FOO
138240
    1MOL0     O    1   6.880   5.178   5.476 -0.2663 -0.1275  0.5688
    1MOL0     C    2   6.919   5.079   5.527 -0.6686 -0.5602 -0.5286
    1MOL0     O    3   6.870   4.961   5.521  0.1883  0.3079  0.0290
    1MOL0     C    4   6.770   4.937   5.434 -0.1921  0.1188  0.4894
    1MOL0     C    5   6.795   4.941   5.292  0.4816  0.0426 -0.1146
    1MOL0     C    6   6.690   4.916   5.213 -0.2182  0.5692 -0.5408
    1MOL0     C    7   6.562   4.891   5.269  0.3918 -0.0756  1.0946
    1MOL0     O    8   6.445   4.850   5.198 -1.2671  1.1605 -1.0026
    1MOL0     C    9   6.466   4.758   5.090 -0.9692 -0.6122 -1.0771
    1MOL0     C   10   6.340   4.686   5.040  0.4543  0.0862  0.3000
    1MOL0     C   11   6.228   4.773   4.985 -0.3784 -0.4373 -0.0411
    1MOL0     C   12   6.111   4.694   4.949 -0.3931  1.0602 -0.2018
    1MOL0     C   13   5.993   4.769   4.886  0.6615 -0.0263  0.2704
    1MOL0     C   14   5.941   4.876   4.979 -0.4918 -0.7430 -0.9504
    1MOL0     C   15   5.904   4.827   5.124  0.6015 -0.1212 -0.8894
    1MOL0     C   16   5.776   4.737   5.116 -0.2879  0.4012 -0.6824
    1MOL0     N   17   5.762   4.653   5.229 -0.2773  0.0068 -0.9474
    1MOL0     C   18   5.748   4.690   5.367 -0.4955 -0.1599  1.2108
    1MOL0     C   19   5.774   4.578   5.427  0.6729  0.7113 -0.8761
    1MOL0     C   20   5.782   4.562   5.587 -0.0367  0.0446  0.2955
    1MOL0     C   21   5.648   4.546   5.668 -0.0068 -0.3759  0.0508
    1MOL0     C   22   5.551   4.451   5.596  0.3474  1.3229  0.6752
    1MOL0     C   23   5.585   4.305   5.595 -0.5014 -0.2055 -0.4667
    1MOL0     O   24   5.493   4.227   5.520  0.4434 -1.0833 -0.1766
    1MOL0     C   25   5.378   4.168   5.573  0.5143 -0.2350 -0.0587
    1MOL0     C   26   5.296   4.124   5.476  0.1655  0.3890 -0.5097
    1MOL0     C   27   5.171   4.055   5.499 -0.2806  0.4771 -0.7060
    1MOL0     C   28   5.089   4.003   5.384 -0.7301  0.7544  0.1984
    1MOL0     C   29   5.134   4.027   5.637  0.3229 -0.0864 -0.1656
    1MOL0     C   30   5.002   3.968   5.683 -0.6770  0.2078  0.4518
    1MOL0     O   31   4.910   3.936   5.593 -0.1196 -0.5296 -0.5631
    1MOL0     C   32   4.784   3.893   5.625 -0.6122 -0.4925  0.6923
    1MOL0     C   33   4.674   3.958   5.570  0.5877 -0.0942 -0.3224
    1MOL0     C   34   4.548   3.906   5.583 -0.9357 -0.2091 -0.3410
    1MOL0     C   35   4.516   3.795   5.664 -0.4635 -0.4961  0.5325
    1MOL0     O   36   4.383   3.753   5.658 -0.1294  0.2341 -0.6785
    1MOL0     C   37   4.362   3.638   5.741 -0.5524 -0.1189  0.0335
    1MOL0     C   38   4.209   3.623   5.749 -0.6140  0.4108 -0.1697
    1MOL0     C   39   4.169   3.515   5.854 -0.5490 -0.2532  0.4353
    1MOL0     C   40   4.013   3.494   5.854 -0.6979  0.2304 -0.4348
    1MOL0     C   41   3.968   3.367   5.920 -0.3282  0.1920 -0.3912
    1MOL0     C   42   3.855   3.379   6.027 -1.0014  0.5184  0.0704
    1MOL0     C   43   3.820   3.243   6.098 -0.4838 -2.0081 -0.1282
    1MOL0     C   44   3.735   3.253   6.227 -0.0677 -0.7501 -0.2143
    1MOL0    Cl   45   3.834   3.335   6.349  0.1701  0.0386  0.1313
    1MOL0     C   46   4.626   3.729   5.725  0.2463 -0.3993  0.6069
    1MOL0     C   47   4.758   3.781   5.704  1.1851 -0.2318  0.4428
    1MOL0     O   48   4.998   3.939   5.804  0.3888 -0.8606 -0.3810
    1MOL0     C   49   5.218   4.073   5.737  0.0986  0.2098  0.9268
    1MOL0     C   50   5.335   4.142   5.698  0.7541 -0.4489 -0.0858
    1MOL0     N   51   5.790   4.469   5.333 -0.2513 -0.1716  0.0442
    1MOL0     N   52   5.786   4.517   5.218  0.2070 -0.3087  0.9539
    1MOL0     C   53   6.542   4.892   5.401 -0.1563  0.8869 -0.1208
    1MOL0     C   54   6.651   4.917   5.488  0.1662  0.2155  0.3860
    1MOL0     C   55   7.026   5.097   5.624 -0.1094 -0.7476 -0.3702
    1MOL0     C   56   7.103   5.208   5.618 -0.6623  0.2029  0.1813
    1MOL0     C   57   7.212   5.233   5.703 -0.3963 -0.3172  0.1247
    1MOL0     C   58   7.253   5.132   5.799 -0.0949 -0.5276  0.3195
    1MOL0     O   59   7.359   5.139   5.885 -0.7543 -0.5619 -0.0530
    1MOL0     C   60   7.432   5.264   5.903 -1.0675  0.4521  0.5543
    1MOL0     C   61   7.532   5.247   6.032  0.3553  0.0034  0.5634
    1MOL0     C   62   7.669   5.250   5.974 -0.2960 -0.6900  0.1093
    1MOL0     C   63   7.788   5.226   6.061 -0.2017 -0.2913  0.0562
    1MOL0     C   64   7.853   5.345   6.104  0.3066  0.0916  0.4428
    1MOL0     C   65   7.901   5.448   6.129 -0.4783 -0.2119  0.2391
    1MOL0     C   66   7.177   5.011   5.800  0.4011  0.0299  0.0178
    1MOL0     C   67   7.068   4.998   5.711  0.3251  1.0241 -0.2716
    1MOL0     H   68   6.893   4.956   5.246 -0.0564  0.0621 -1.2697
    1MOL0     H   69   6.699   4.908   5.105  3.7965 -0.9960 -0.2633
    1MOL0     H   70   6.499   4.832   5.016  0.8394  0.7041  0.9053
    1MOL0     H   71   6.543   4.686   5.121 -2.7841 -1.2247  2.5598
    1MOL0     H   72   6.389   4.636   4.956  1.7160 -0.8979  1.5623
    1MOL0     H   73   6.302   4.609   5.108  0.7612 -0.3242  0.0148
    1MOL0     H   74   6.201   4.840   5.067  0.4856  0.4227 -0.4356
    1MOL0     H   75   6.247   4.828   4.892  0.6965 -0.8057 -0.0530
    1MOL0     H   76   6.137   4.625   4.868 -0.9279  1.1568 -0.4602
    1MOL0     H   77   6.079   4.631   5.033 -0.6804  0.8137 -0.4922
    1MOL0     H   78   6.036   4.804   4.792 -2.3473 -0.3626 -1.3481
    1MOL0     H   79   5.911   4.702   4.858  4.1004 -4.5787 -0.1604
    1MOL0     H   80   6.030   4.935   4.999  0.4083 -1.4119 -2.7481
    1MOL0     H   81   5.866   4.940   4.933  1.9297  2.9039 -0.1785
    1MOL0     H   82   5.989   4.783   5.177  0.1446 -0.7354 -0.6586
    1MOL0     H   83   5.877   4.916   5.182  1.4543 -1.2176  1.2858
    1MOL0     H   84   5.774   4.673   5.027  2.3350  0.5763 -0.9410
    1MOL0     H   85   5.694   4.808   5.106 -1.4691 -0.9134 -0.6777
    1MOL0     H   86   5.736   4.788   5.413 -0.0926  0.7330 -0.5128
    1MOL0     H   87   5.841   4.471   5.597  0.8773  0.7520  1.6234
    1MOL0     H   88   5.844   4.642   5.629  0.9973 -0.1963 -0.7500
    1MOL0     H   89   5.600   4.643   5.682  0.4628 -0.4022  2.0349
    1MOL0     H   90   5.654   4.509   5.770 -1.8310 -0.7744  0.0506
    1MOL0     H   91   5.526   4.477   5.492 -0.3295  0.1376  0.5155
    1MOL0     H   92   5.452   4.456   5.642 -0.2419 -0.9917 -0.1938
    1MOL0     H   93   5.611   4.264   5.693  1.8198  0.8267 -0.5979
    1MOL0     H   94   5.681   4.291   5.546  0.7558  0.6940  1.6146
    1MOL0     H   95   5.336   4.132   5.375 -0.3601 -0.1343 -0.7640
    1MOL0     H   96   5.067   3.897   5.395 -2.8782  1.2342  1.1546
    1MOL0     H   97   4.995   4.058   5.386 -1.3863 -0.3200 -0.3499
    1MOL0     H   98   5.145   4.025   5.292 -0.5768  2.3538  0.6369
    1MOL0     H   99   4.681   4.042   5.502  0.1034  1.5527  1.5619
    1MOL0     H  100   4.457   3.942   5.536 -1.3191 -0.2959  0.3235
    1MOL0     H  101   4.398   3.545   5.698  1.5170  0.6520  0.0125
    1MOL0     H  102   4.397   3.654   5.844 -1.9863 -0.3341  0.5773
    1MOL0     H  103   4.165   3.719   5.774 -3.5116 -1.2483  1.7107
    1MOL0     H  104   4.176   3.583   5.653 -0.6149 -1.4997  0.5618
    1MOL0     H  105   4.204   3.548   5.952 -1.0659  2.8100 -0.3305
    1MOL0     H  106   4.224   3.422   5.830  0.1709 -0.0097  1.0922
    1MOL0     H  107   3.967   3.582   5.899  0.6900  1.1440 -0.7257
    1MOL0     H  108   3.976   3.490   5.751  0.8030 -2.0007 -0.9594
    1MOL0     H  109   4.049   3.304   5.957 -1.7024 -1.7162 -0.4602
    1MOL0     H  110   3.917   3.313   5.840 -0.0722 -1.0538  0.2559
    1MOL0     H  111   3.889   3.455   6.097  0.7408 -0.7875  0.7177
    1MOL0     H  112   3.763   3.412   5.977 -0.7288  2.7388  0.9247
    1MOL0     H  113   3.915   3.202   6.133  0.0107 -0.5206  0.3383
    1MOL0     H  114   3.772   3.174   6.028 -0.3728 -2.4518  0.2333
    1MOL0     H  115   3.713   3.153   6.267  0.1333 -1.2625 -1.3497
    1MOL0     H  116   3.641   3.304   6.206  0.8862  1.0390 -0.3313
    1MOL0     H  117   4.618   3.639   5.784 -0.4149 -0.9737 -0.3290
    1MOL0     H  118   4.845   3.741   5.756  2.9557 -0.0019 -2.1775
    1MOL0     H  119   5.191   4.065   5.841 -3.2102 -2.1950  0.0407
    1MOL0     H  120   5.405   4.177   5.773  3.1433 -4.2844 -0.2730
    1MOL0     H  121   6.443   4.864   5.436  0.3859 -2.6617 -0.9914
    1MOL0     H  122   6.631   4.906   5.594  1.6626  2.9746  1.0505
    1MOL0     H  123   7.084   5.288   5.547  0.1553 -0.8687 -1.3088
    1MOL0     H  124   7.270   5.324   5.694 -0.4094 -0.2886  0.3181
    1MOL0     H  125   7.480   5.289   5.808 -0.5458 -1.5283  0.2524
    1MOL0     H  126   7.361   5.340   5.938 -1.2257  0.4248  0.3038
    1MOL0     H  127   7.515   5.155   6.089  0.1366  0.4686  1.2444
    1MOL0     H  128   7.521   5.322   6.110  0.2962  0.1796  0.3844
    1MOL0     H  129   7.681   5.344   5.920 -3.2697 -0.9158 -1.1509
    1MOL0     H  130   7.672   5.167   5.903 -1.0844  0.8131 -1.7688
    1MOL0     H  131   7.859   5.166   6.005  1.9559 -0.1621  2.4589
    1MOL0     H  132   7.763   5.159   6.144 -2.3054 -0.0496 -0.3324
    1MOL0     H  133   7.939   5.548   6.144 -1.6923  0.8389 -2.8876
    1MOL0     H  134   7.192   4.927   5.867  0.3153 -1.3606 -1.6187
    1MOL0     H  135   7.020   4.901   5.722  0.8532  0.9416  1.5401
    2MOL0     O  136   6.061   4.559   6.544 -0.7591 -0.2884  0.1708
    2MOL0     C  137   6.099   4.675   6.530  0.0448  0.0583 -0.0895
    2MOL0     O  138   6.041   4.770   6.443  0.5380  0.2531  0.7285
    2MOL0     C  139   5.929   4.732   6.384  0.3902 -0.2094 -0.6081
    2MOL0     C  140   5.934   4.652   6.275  0.7425  0.1584  0.2238
    2MOL0     C  141   5.814   4.616   6.211 -1.4339 -0.8985 -0.2141
    2MOL0     C  142   5.685   4.660   6.252  0.1340 -0.0146  0.1873
    2MOL0     O  143   5.566   4.627   6.202 -0.4627 -0.3658 -0.5773
    2MOL0     C  144   5.557   4.527   6.093 -0.2721 -0.4806 -0.0622
    2MOL0     C  145   5.415   4.520   6.057  0.4331 -0.3477  0.6420
    2MOL0     C  146   5.344   4.650   6.033 -0.4365 -0.2466  0.8909
    2MOL0     C  147   5.410   4.777   5.964 -0.2401  0.4096  0.1146
    2MOL0     C  148   5.312   4.904   5.967  0.2023  0.8966  0.8009
    2MOL0     C  149   5.171   4.881   5.918 -1.0533  0.4266  0.1549
    2MOL0     C  150   5.171   4.828   5.770  0.1733  0.2313  0.8064
    2MOL0     C  151   5.041   4.860   5.705  0.2470  0.5811  0.5446
    2MOL0     N  152   4.932   4.773   5.748 -0.6694  0.8610 -0.0901
    2MOL0     C  153   4.884   4.777   5.870 -1.0698  0.0544 -0.3940
    2MOL0     C  154   4.775   4.708   5.869 -0.0639  0.1368  0.4793
    2MOL0     C  155   4.688   4.662   5.983 -0.4873  0.9745  0.1810
    2MOL0     C  156   4.553   4.734   5.971 -0.2002  0.3670  0.5832
    2MOL0     C  157   4.454   4.644   5.901  0.3178 -0.2900  0.3626
    2MOL0     C  158   4.312   4.718   5.906 -0.0794  0.5432  0.1824
    2MOL0     O  159   4.334   4.847   5.842 -0.1858 -0.2957 -0.0151
    2MOL0     C  160   4.224   4.922   5.832 -0.3230  0.5837  0.0202
    2MOL0     C  161   4.234   5.043   5.759 -0.9170  0.9491  0.5930
    2MOL0     C  162   4.129   5.133   5.730 -0.0192 -0.0953  0.6499
    2MOL0     C  163   4.154   5.262   5.645 -0.3666  0.1571  0.0486
    2MOL0     C  164   4.005   5.108   5.790 -0.4830  0.5703  0.4270
    2MOL0     C  165   3.885   5.189   5.756 -0.5764 -0.6478  0.0690
    2MOL0     O  166   3.798   5.215   5.855 -0.2404 -0.0668  0.0674
    2MOL0     C  167   3.677   5.269   5.829  1.0618  0.0359 -0.1437
    2MOL0     C  168   3.642   5.377   5.906 -0.1068 -0.5608  1.3046
    2MOL0     C  169   3.518   5.444   5.887  0.0667 -0.4108 -0.1919
    2MOL0     C  170   3.431   5.399   5.785  0.9471  0.3849  0.0117
    2MOL0     O  171   3.304   5.456   5.765 -0.0057 -0.3126  0.3743
    2MOL0     C  172   3.240   5.522   5.875  0.6270  0.1915  0.7639
    2MOL0     C  173   3.093   5.562   5.841  0.2872  0.6956 -0.0207
    2MOL0     C  174   3.014   5.600   5.962  0.3834 -0.1364 -0.0023
    2MOL0     C  175   2.872   5.625   5.931  0.4983 -0.5819 -0.4977
    2MOL0     C  176   2.809   5.706   6.045 -0.6623  0.3211  0.0598
    2MOL0     C  177   2.662   5.742   6.031 -0.3799 -0.1679 -0.0036
    2MOL0     C  178   2.610   5.787   6.165 -0.4445 -0.0344 -0.5852
    2MOL0     C  179   2.459   5.834   6.142 -0.6267  0.5717 -0.0621
    2MOL0    Cl  180   2.360   5.704   6.067 -0.2292  0.0337 -0.5377
    2MOL0     C  181   3.468   5.286   5.703  0.0184 -0.1410  0.7351
    2MOL0     C  182   3.585   5.223   5.737  0.1191  0.0011  0.0073
    2MOL0     O  183   3.860   5.199   5.635 -0.4910 -0.2695  0.7405
    2MOL0     C  184   3.998   4.994   5.878 -0.4652  1.0943  0.4115
    2MOL0     C  185   4.106   4.902   5.891  0.6328  0.5265  0.6022
    2MOL0     N  186   4.751   4.663   5.741 -0.0203  0.0578  0.0679
    2MOL0     N  187   4.841   4.705   5.665 -0.1508 -0.1957  0.0389
    2MOL0     C  188   5.687   4.748   6.364 -0.4472  0.1519  0.5454
    2MOL0     C  189   5.802   4.793   6.419 -0.4883  0.5886 -0.1900
    2MOL0     C  190   6.229   4.713   6.593 -0.7223 -0.3720  1.2941
    2MOL0     C  191   6.299   4.825   6.553 -0.0686 -0.8109 -0.0422
    2MOL0     C  192   6.427   4.857   6.600  0.0945  0.8650 -0.0777
    2MOL0     C  193   6.485   4.783   6.705 -0.5165 -0.2311  0.1841
    2MOL0     O  194   6.605   4.810   6.767  0.5249  0.3555 -0.8707
    2MOL0     C  195   6.692   4.924   6.718 -0.1917  0.3611  0.7220
    2MOL0     C  196   6.803   4.937   6.817 -0.0988  0.5246  0.0867
    2MOL0     C  197   6.750   4.989   6.955 -0.1406  0.7038  0.4839
    2MOL0     C  198   6.853   5.077   7.022  0.1550  0.6432 -0.0276
    2MOL0     C  199   6.807   5.130   7.152 -0.4836 -0.9160 -1.2242
    2MOL0     C  200   6.772   5.178   7.257 -0.0140 -0.0914 -0.1293
    2MOL0     C  201   6.419   4.671   6.738  0.0246 -0.7029  0.5143
    2MOL0     C  202   6.293   4.638   6.685  0.0335 -0.0728  0.2637
    2MOL0     H  203   6.034   4.622   6.245  0.1273 -0.5373 -1.1813
    2MOL0     H  204   5.826   4.550   6.125  2.8070  1.3976 -1.6958
    2MOL0     H  205   5.607   4.560   6.001  1.8946 -1.1692  0.7835
    2MOL0     H  206   5.607   4.439   6.134  2.1760  1.0355  0.4586
    2MOL0     H  207   5.406   4.453   5.971 -2.5615 -0.8382  1.2368
    2MOL0     H  208   5.361   4.469   6.136 -0.0085  0.1124  0.6410
    2MOL0     H  209   5.255   4.631   5.973 -0.5619 -2.5265  1.6818
    2MOL0     H  210   5.309   4.681   6.132 -0.1203  2.1425  0.3195
    2MOL0     H  211   5.503   4.800   6.016  0.1811  0.4962 -0.6667
    2MOL0     H  212   5.432   4.743   5.862  2.1592 -0.6549  0.9246
    2MOL0     H  213   5.308   4.936   6.071  0.4857  1.9478  0.4988
    2MOL0     H  214   5.352   4.995   5.922  1.5800 -0.0497  0.0126
    2MOL0     H  215   5.115   4.800   5.967 -1.1085 -0.2735 -1.0111
    2MOL0     H  216   5.106   4.968   5.928 -3.0110 -1.1220  2.0067
    2MOL0     H  217   5.250   4.875   5.711  0.4135  0.2279  1.1210
    2MOL0     H  218   5.205   4.724   5.773  1.2020  0.5421  0.4238
    2MOL0     H  219   5.048   4.836   5.598  1.4051  1.1222  0.4853
    2MOL0     H  220   5.011   4.964   5.722 -2.2461 -0.2772  1.7864
    2MOL0     H  221   4.916   4.830   5.959 -0.2781 -1.5053  0.3097
    2MOL0     H  222   4.656   4.558   5.968 -0.6728  0.8518  1.3621
    2MOL0     H  223   4.730   4.664   6.083 -0.6810  1.3951  0.2546
    2MOL0     H  224   4.568   4.832   5.926 -2.1913 -0.5534 -2.3294
    2MOL0     H  225   4.527   4.744   6.077  1.2777 -1.1409  1.1427
    2MOL0     H  226   4.434   4.550   5.954 -2.5557 -0.2966 -0.5966
    2MOL0     H  227   4.496   4.620   5.803 -0.5113 -1.8542  0.3593
    2MOL0     H  228   4.274   4.729   6.008 -0.8938  2.5531 -0.2762
    2MOL0     H  229   4.239   4.662   5.847  1.7369  0.0213 -1.7105
    2MOL0     H  230   4.330   5.062   5.712 -1.2018 -1.5276 -1.2291
    2MOL0     H  231   4.109   5.347   5.697  1.3997  2.0597 -1.3716
    2MOL0     H  232   4.260   5.285   5.632 -1.1701  3.3888 -1.7182
    2MOL0     H  233   4.100   5.258   5.549 -0.9473 -1.2611  0.4013
    2MOL0     H  234   3.712   5.412   5.981 -2.0203  2.6595  1.7631
    2MOL0     H  235   3.494   5.523   5.956  0.1866  2.8945 -3.6064
    2MOL0     H  236   3.242   5.462   5.967 -0.6572 -2.1371 -0.6198
    2MOL0     H  237   3.295   5.615   5.889 -0.3279  0.7563  0.8817
    2MOL0     H  238   3.090   5.644   5.768 -2.7353  0.9656  0.2531
    2MOL0     H  239   3.050   5.474   5.793  1.5747 -1.4662  2.5275
    2MOL0     H  240   3.068   5.689   5.995 -1.5062  0.7762  0.7678
    2MOL0     H  241   3.022   5.536   6.050 -2.8041  0.1550  0.6241
    2MOL0     H  242   2.868   5.689   5.843  2.4456 -0.1583 -0.3123
    2MOL0     H  243   2.814   5.532   5.931 -1.2573  0.4617 -1.2143
    2MOL0     H  244   2.865   5.800   6.041 -1.4867  0.8219  0.1268
    2MOL0     H  245   2.828   5.641   6.132  1.2269  0.1113 -0.4587
    2MOL0     H  246   2.658   5.827   5.962 -0.3515 -1.4702 -1.6690
    2MOL0     H  247   2.601   5.660   5.991  0.1446  0.2538 -1.7417
    2MOL0     H  248   2.670   5.871   6.200 -3.2029  1.0134  2.1126
    2MOL0     H  249   2.620   5.707   6.239  0.3727  0.0746 -0.5657
    2MOL0     H  250   2.464   5.922   6.076  1.3150  0.9128  0.4840
    2MOL0     H  251   2.409   5.855   6.237 -1.1403 -1.4088  0.1551
    2MOL0     H  252   3.406   5.263   5.617 -1.2010 -0.7564  1.7382
    2MOL0     H  253   3.615   5.135   5.680  2.5335  0.0434  1.1273
    2MOL0     H  254   3.905   4.976   5.932 -0.5968  0.4819 -0.0084
    2MOL0     H  255   4.097   4.813   5.953 -0.2454 -0.9045 -1.4842
    2MOL0     H  256   5.591   4.782   6.402 -0.9656 -0.6149 -0.0398
    2MOL0     H  257   5.798   4.864   6.502 -0.7347  1.8190 -1.2145
    2MOL0     H  258   6.255   4.897   6.484  2.8217 -1.5327 -2.8956
    2MOL0     H  259   6.486   4.943   6.569 -1.7041  2.6700  1.2719
    2MOL0     H  260   6.737   4.907   6.619  1.1312  2.0918  0.9842
    2MOL0     H  261   6.626   5.011   6.711  1.1887  1.6427  2.8314
    2MOL0     H  262   6.869   5.012   6.773 -0.0477 -0.0676 -0.8780
    2MOL0     H  263   6.870   4.850   6.815 -0.0572  0.5310 -2.3238
    2MOL0     H  264   6.726   4.900   7.014  1.4055  1.5630  2.5289
    2MOL0     H  265   6.654   5.040   6.944 -0.2160  0.2580 -1.1842
    2MOL0     H  266   6.872   5.158   6.950  0.3424  0.5892 -0.0374
    2MOL0     H  267   6.940   5.016   7.046  0.4804  2.4793  4.1996
    2MOL0     H  268   6.748   5.230   7.348 -1.7547 -0.0191 -0.5944
    2MOL0     H  269   6.465   4.612   6.816 -0.0502  0.1686  1.2208
    2MOL0     H  270   6.229   4.560   6.725  0.9452 -0.5659  0.7889
    3MOL0     O  271   5.274   9.986   0.993 -0.3453 -0.3291 -0.8504
    3MOL0     C  272   5.390  10.008   0.950  0.6029 -0.1977  0.7044
    3MOL0     O  273   5.430  10.124   0.894 -0.1024  0.3159 -0.4820
    3MOL0     C  274   5.349  10.225   0.929 -1.0517 -0.1579 -0.9332
    3MOL0     C  275   5.382  10.324   1.020  1.7682  0.0085 -0.5973
    3MOL0     C  276   5.289  10.421   1.056  1.0195 -0.0819 -0.0869
    3MOL0     C  277   5.163  10.428   0.999 -0.2111  0.2300 -0.3003
    3MOL0     O  278   5.070  10.514   1.046  0.3121  0.5401 -0.0729
    3MOL0     C  279   4.928  10.483   1.032  0.3537  1.0933 -0.8146
    3MOL0     C  280   4.850  10.588   1.117  1.2937  0.3991  0.0495
    3MOL0     C  281   4.703  10.540   1.152  0.3142 -0.2045  0.6194
    3MOL0     C  282   4.605  10.657   1.159 -0.8266  0.4747 -0.7093
    3MOL0     C  283   4.468  10.599   1.198  0.5652 -0.3649 -0.0378
    3MOL0     C  284   4.358  10.707   1.201 -0.3443  0.8511 -0.2813
    3MOL0     C  285   4.225  10.646   1.237 -0.4252 -0.3753 -0.4082
    3MOL0     C  286   4.132  10.760   1.287 -0.5373 -0.2064 -0.1772
    3MOL0     N  287   3.991  10.713   1.307 -0.4151 -0.1621 -0.3052
    3MOL0     C  288   3.956  10.607   1.386 -0.5729 -0.1498  0.2579
    3MOL0     C  289   3.822  10.596   1.382 -0.0422  0.4552 -0.2461
    3MOL0     C  290   3.742  10.492   1.453  0.4596  0.3114 -0.5819
    3MOL0     C  291   3.709  10.530   1.599  0.1365 -0.6440 -0.3671
    3MOL0     C  292   3.593  10.629   1.605 -0.1451  0.1482 -1.1123
    3MOL0     C  293   3.457  10.558   1.571 -0.5662 -0.4454 -0.7708
    3MOL0     O  294   3.357  10.649   1.609  0.2974 -0.3094  0.1791
    3MOL0     C  295   3.251  10.596   1.668  0.2439  0.2899 -0.1185
    3MOL0     C  296   3.250  10.497   1.768  0.2780  0.2524 -0.5019
    3MOL0     C  297   3.136  10.447   1.831  0.2798  0.8172  0.6954
    3MOL0     C  298   3.155  10.333   1.929  0.4506 -0.5576  0.7762
    3MOL0     C  299   3.014  10.507   1.802  0.2267  0.1719  0.2717
    3MOL0     C  300   2.878  10.464   1.858 -0.6011  0.1306 -0.1212
    3MOL0     O  301   2.770  10.529   1.803  0.4428 -0.4105  0.1029
    3MOL0     C  302   2.641  10.486   1.824 -0.5126 -0.9639  0.9056
    3MOL0     C  303   2.593  10.457   1.952  0.8551 -0.0680 -0.2217
    3MOL0     C  304   2.457  10.410   1.975 -0.3312 -0.0973  0.3429
    3MOL0     C  305   2.371  10.406   1.869  0.4481  0.4214 -0.3119
    3MOL0     O  306   2.233  10.379   1.883  0.0677 -0.2467 -0.2415
    3MOL0     C  307   2.178  10.306   1.998  0.2775  0.9784  0.2785
    3MOL0     C  308   2.031  10.248   1.962 -0.3035 -0.4953  0.7412
    3MOL0     C  309   1.971  10.188   2.081 -0.6161  0.4685 -0.2882
    3MOL0     C  310   1.823  10.147   2.056 -0.2581 -0.3624 -0.5592
    3MOL0     C  311   1.771  10.062   2.174  0.4394 -0.5295  0.1217
    3MOL0     C  312   1.612  10.057   2.177 -0.5630 -0.0753  0.2290
    3MOL0     C  313   1.559   9.997   2.304 -0.1965 -0.6117  0.2229
    3MOL0     C  314   1.418   9.966   2.305 -0.0510 -0.1642  0.4395
    3MOL0    Cl  315   1.307  10.104   2.288  0.3414  0.3921  0.5988
    3MOL0     C  316   2.423  10.435   1.741  0.6173 -0.0274 -0.1972
    3MOL0     C  317   2.554  10.486   1.715  0.4127 -0.3555  1.1231
    3MOL0     O  318   2.873  10.374   1.943 -0.1508 -0.3560  0.1131
    3MOL0     C  319   3.009  10.600   1.699  0.2766 -0.4398  0.0908
    3MOL0     C  320   3.125  10.651   1.634 -0.2184  0.1517 -0.3239
    3MOL0     N  321   3.776  10.706   1.308 -0.7900 -0.4858  0.2978
    3MOL0     N  322   3.876  10.771   1.269 -0.2515 -0.0540  0.7141
    3MOL0     C  323   5.142  10.334   0.891 -0.1444 -0.1766 -0.1655
    3MOL0     C  324   5.237  10.241   0.851 -0.6261 -0.8896 -0.0222
    3MOL0     C  325   5.485   9.899   0.934 -0.1708  0.4840 -0.4665
    3MOL0     C  326   5.445   9.761   0.935  0.6364 -0.8419  0.5285
    3MOL0     C  327   5.544   9.664   0.915  0.2892 -0.4555  0.3317
    3MOL0     C  328   5.680   9.687   0.892  0.6332 -0.0752 -0.0841
    3MOL0     O  329   5.779   9.594   0.861  0.4422 -0.2332 -0.3282
    3MOL0     C  330   5.760   9.460   0.916  0.1154 -0.5419  0.4239
    3MOL0     C  331   5.872   9.373   0.876  0.3230 -0.5952 -0.5396
    3MOL0     C  332   5.882   9.352   0.725 -0.4776  0.5684  0.1652
    3MOL0     C  333   5.977   9.439   0.652  0.1261  0.9386  0.4496
    3MOL0     C  334   5.983   9.397   0.511 -0.2274 -0.7658 -0.3782
    3MOL0     C  335   6.002   9.348   0.401  0.0387  0.0353  0.1268
    3MOL0     C  336   5.715   9.819   0.887  0.3638  1.0066 -0.0637
    3MOL0     C  337   5.627   9.920   0.913  0.5593 -0.8327  0.5254
    3MOL0     H  338   5.476  10.322   1.075  0.6210  1.2550  1.5307
    3MOL0     H  339   5.312  10.495   1.131 -0.7032  2.8268 -2.2306
    3MOL0     H  340   4.895  10.469   0.929 -1.3238 -0.2758 -0.1323
    3MOL0     H  341   4.898  10.404   1.100 -0.6844  2.2068  0.0773
    3MOL0     H  342   4.906  10.591   1.211 -0.7490 -0.1330  1.3413
    3MOL0     H  343   4.855  10.684   1.065  2.4646 -0.1365 -0.8970
    3MOL0     H  344   4.676  10.477   1.066 -2.1004  1.8093 -0.2177
    3MOL0     H  345   4.713  10.486   1.246 -2.3001 -1.9307  0.0174
    3MOL0     H  346   4.639  10.730   1.232  0.7896 -0.8976 -0.0096
    3MOL0     H  347   4.589  10.694   1.058  1.9219  2.6664 -0.4546
    3MOL0     H  348   4.441  10.519   1.129 -1.6342 -1.6715  2.1650
    3MOL0     H  349   4.473  10.555   1.298 -0.7840 -3.3093 -1.1789
    3MOL0     H  350   4.383  10.767   1.289  0.8733 -0.5548  0.3697
    3MOL0     H  351   4.356  10.751   1.101 -0.1050  1.7708  0.1070
    3MOL0     H  352   4.177  10.585   1.159 -0.6856 -0.8270  0.0963
    3MOL0     H  353   4.250  10.584   1.324  0.6585 -0.9317 -1.0907
    3MOL0     H  354   4.132  10.836   1.209  0.6965 -0.0890 -0.0795
    3MOL0     H  355   4.166  10.804   1.382 -1.1888 -0.5782  0.2433
    3MOL0     H  356   4.024  10.536   1.432 -2.4412 -2.3835 -0.1991
    3MOL0     H  357   3.655  10.472   1.389  1.9264  0.4821 -2.7193
    3MOL0     H  358   3.801  10.400   1.451 -0.4264 -0.2746 -0.3935
    3MOL0     H  359   3.796  10.575   1.649  0.3506 -1.3760 -0.0667
    3MOL0     H  360   3.681  10.446   1.663  2.7827  1.1185  3.5478
    3MOL0     H  361   3.614  10.719   1.546  0.5196 -0.4708 -1.8458
    3MOL0     H  362   3.591  10.673   1.705  0.2088  1.8122 -1.8070
    3MOL0     H  363   3.457  10.464   1.625  1.2090  0.3387  0.6845
    3MOL0     H  364   3.457  10.543   1.462  1.7224 -0.6197 -0.7879
    3MOL0     H  365   3.342  10.447   1.797 -0.2557  0.0573  0.9563
    3MOL0     H  366   3.258  10.296   1.923  1.6848  2.8397 -1.8617
    3MOL0     H  367   3.126  10.359   2.031 -2.0054 -0.4705  0.1233
    3MOL0     H  368   3.084  10.252   1.915 -0.8434  0.2424  2.4059
    3MOL0     H  369   2.663  10.477   2.032  1.8773  1.6836 -1.4768
    3MOL0     H  370   2.428  10.399   2.079  1.4338  1.6826  1.1017
    3MOL0     H  371   2.250  10.226   2.018  1.6895  2.5974  2.1800
    3MOL0     H  372   2.173  10.372   2.086 -1.7161  0.6117  0.4851
    3MOL0     H  373   1.964  10.327   1.927 -1.0706 -2.0226 -1.4741
    3MOL0     H  374   2.045  10.174   1.883  0.2340  1.2033 -0.8204
    3MOL0     H  375   1.984  10.253   2.168  1.7063 -1.9642  1.3710
    3MOL0     H  376   2.020  10.092   2.103 -0.4142  0.9136  1.3341
    3MOL0     H  377   1.770  10.241   2.068 -0.2342 -0.5676  1.5167
    3MOL0     H  378   1.793  10.119   1.954 -1.6857  1.1745 -0.6055
    3MOL0     H  379   1.813  10.101   2.266  1.1089 -2.8173  0.8671
    3MOL0     H  380   1.797   9.957   2.157  2.3099  0.3103 -2.9605
    3MOL0     H  381   1.579  10.160   2.164  2.1295  0.7817 -0.4690
    3MOL0     H  382   1.577   9.998   2.091 -0.7341 -0.0522  0.2827
    3MOL0     H  383   1.592  10.063   2.385  0.2084  0.2032 -0.5963
    3MOL0     H  384   1.612   9.901   2.308  0.9506 -0.1360 -1.9671
    3MOL0     H  385   1.388   9.907   2.392  0.8079  0.4927  1.1964
    3MOL0     H  386   1.387   9.919   2.212 -0.3877  1.0318 -0.0715
    3MOL0     H  387   2.350  10.418   1.663 -0.2974 -0.4993  0.7289
    3MOL0     H  388   2.578  10.523   1.616 -0.4414 -2.6030  0.0016
    3MOL0     H  389   2.920  10.657   1.671  0.6862  0.4621  0.5837
    3MOL0     H  390   3.104  10.717   1.551 -0.8222  0.0983 -0.2162
    3MOL0     H  391   5.058  10.355   0.826  0.8137  0.9392 -1.1030
    3MOL0     H  392   5.216  10.179   0.765 -1.5670  2.1590 -2.1506
    3MOL0     H  393   5.347   9.733   0.973  0.1974  0.1771  0.1851
    3MOL0     H  394   5.507   9.561   0.913  0.8351 -0.6529 -1.7270
    3MOL0     H  395   5.770   9.475   1.023  2.4361  1.6285 -0.0100
    3MOL0     H  396   5.665   9.418   0.880  0.2006  1.1213 -1.9772
    3MOL0     H  397   5.871   9.275   0.925  0.9845  0.5610  1.9601
    3MOL0     H  398   5.967   9.416   0.910  1.1057 -1.9286 -0.9623
    3MOL0     H  399   5.790   9.366   0.669  0.6306  2.7585 -1.2611
    3MOL0     H  400   5.902   9.246   0.711 -0.2416  0.6489 -0.1222
    3MOL0     H  401   6.077   9.420   0.692  0.8546  1.8803 -0.8441
    3MOL0     H  402   5.951   9.545   0.659  1.4401  1.2029  1.8188
    3MOL0     H  403   6.026   9.297   0.310 -0.1189 -1.4675  0.8814
    3MOL0     H  404   5.821   9.843   0.873  1.3921 -1.4604  2.6397
    3MOL0     H  405   5.662  10.021   0.894 -0.5490 -0.7387 -1.2817
    4MOL0     O  406   2.240   1.979   1.160 -0.1768  0.1469 -0.4531
    4MOL0     C  407   2.295   2.049   1.247  0.2324 -0.3446 -1.0038
    4MOL0     O  408   2.244   2.171   1.297 -0.0449 -0.7286  0.9429
    4MOL0     C  409   2.106   2.188   1.283  0.6151  0.3321  0.2694
    4MOL0     C  410   2.063   2.306   1.228 -0.5157  0.3662  0.2192
    4MOL0     C  411   1.926   2.335   1.215 -0.1901  0.3906 -0.0505
    4MOL0     C  412   1.828   2.250   1.264  0.1247 -0.6541  0.6289
    4MOL0     O  413   1.693   2.284   1.258  0.3147  0.4161  1.0635
    4MOL0     C  414   1.667   2.411   1.312  0.2417 -0.4598  0.4234
    4MOL0     C  415   1.519   2.460   1.264  0.0581  0.5053 -0.4218
    4MOL0     C  416   1.417   2.341   1.259  0.1465 -1.0261 -0.6147
    4MOL0     C  417   1.393   2.295   1.403  0.5400 -0.1745 -0.0270
    4MOL0     C  418   1.316   2.168   1.417 -0.5672  0.5160  0.0381
    4MOL0     C  419   1.178   2.170   1.348 -0.5418 -0.1297 -0.6638
    4MOL0     C  420   1.100   2.041   1.353 -0.4297 -0.1923  0.3714
    4MOL0     C  421   0.949   2.086   1.369 -0.2124  0.7348  0.3086
    4MOL0     N  422   0.861   1.967   1.363 -0.2703  0.1881  0.0369
    4MOL0     C  423   0.811   1.908   1.246 -0.4605  0.7440  0.4585
    4MOL0     C  424   0.714   1.826   1.296 -0.1565  0.0568  0.7208
    4MOL0     C  425   0.626   1.755   1.194  0.6259  0.4562 -0.0845
    4MOL0     C  426   0.618   1.603   1.223 -0.2969 -0.1457 -0.5983
    4MOL0     C  427   0.510   1.571   1.332 -0.0969 -0.0403 -0.7553
    4MOL0     C  428   0.456   1.426   1.312  0.0867 -0.2027  0.4484
    4MOL0     O  429   0.381   1.394   1.432 -0.2500 -1.0001 -0.7929
    4MOL0     C  430   0.252   1.350   1.428 -0.2780  0.6048 -0.1001
    4MOL0     C  431   0.168   1.355   1.539  0.8098 -0.0182 -0.4428
    4MOL0     C  432   0.042   1.302   1.545 -0.0275  1.3807  0.5364
    4MOL0     C  433  -0.027   1.296   1.675  0.1303 -0.1961 -0.4199
    4MOL0     C  434  -0.009   1.239   1.423  0.4702  0.1262  0.0899
    4MOL0     C  435  -0.145   1.173   1.413  0.2556  0.4105  0.0936
    4MOL0     O  436  -0.182   1.139   1.281 -0.3336 -0.8268 -0.0558
    4MOL0     C  437  -0.307   1.102   1.251  0.2575  0.1067 -0.4374
    4MOL0     C  438  -0.369   1.154   1.135  0.1528  0.0658 -0.2587
    4MOL0     C  439  -0.508   1.116   1.102  0.2411  1.2405 -0.8113
    4MOL0     C  440  -0.571   1.016   1.182 -0.4752 -0.1356  0.5054
    4MOL0     O  441  -0.689   0.949   1.146  0.5341  0.5870  0.2250
    4MOL0     C  442  -0.774   1.008   1.043 -0.2594 -0.3794  0.1470
    4MOL0     C  443  -0.840   1.134   1.110  0.0276  0.4633  0.5456
    4MOL0     C  444  -0.964   1.098   1.193 -0.0854  0.0222 -0.5261
    4MOL0     C  445  -1.047   1.225   1.240 -0.6229  0.5240  0.7042
    4MOL0     C  446  -1.193   1.197   1.272  0.5733 -0.2388 -0.1989
    4MOL0     C  447  -1.204   1.139   1.411  0.1908  0.2740 -0.9394
    4MOL0     C  448  -1.350   1.128   1.461  0.0742 -0.2649 -0.1220
    4MOL0     C  449  -1.439   1.052   1.359  0.6996 -0.5571  0.3690
    4MOL0    Cl  450  -1.378   0.896   1.295  0.5223  0.3001  0.1623
    4MOL0     C  451  -0.505   0.973   1.293 -0.6194  0.2977  0.5178
    4MOL0     C  452  -0.372   1.004   1.322  0.3240  0.0613  0.5822
    4MOL0     O  453  -0.227   1.152   1.511  0.0009 -0.6332  0.0061
    4MOL0     C  454   0.070   1.247   1.306 -0.2844 -0.4918 -0.3543
    4MOL0     C  455   0.194   1.300   1.310  0.1046  0.8057 -0.0131
    4MOL0     N  456   0.702   1.828   1.431  0.7664 -1.0396  0.3595
    4MOL0     N  457   0.788   1.915   1.463 -0.4985  0.5041  0.2735
    4MOL0     C  458   1.872   2.131   1.324  0.3920 -0.5582  1.1414
    4MOL0     C  459   2.004   2.098   1.341 -0.1960  0.1530 -0.6285
    4MOL0     C  460   2.424   2.000   1.282  1.3811  0.0489 -0.6000
    4MOL0     C  461   2.468   1.877   1.256 -0.0911  0.3383  0.0802
    4MOL0     C  462   2.605   1.833   1.275  1.0095 -0.2508 -0.7116
    4MOL0     C  463   2.690   1.925   1.340 -0.0529 -0.2613  0.7685
    4MOL0     O  464   2.818   1.895   1.374  0.3687  0.6145 -0.0597
    4MOL0     C  465   2.865   1.755   1.366  0.5994  0.3497  0.1844
    4MOL0     C  466   2.947   1.714   1.238  0.4989  0.4020  1.0394
    4MOL0     C  467   3.066   1.816   1.214  0.7044  0.5336 -0.6050
    4MOL0     C  468   3.166   1.770   1.110 -0.4370 -0.3558 -0.9846
    4MOL0     C  469   3.229   1.644   1.144 -0.0047 -0.8638 -0.1063
    4MOL0     C  470   3.274   1.543   1.183  0.7211 -0.0537  0.3697
    4MOL0     C  471   2.643   2.053   1.369  0.5111 -0.6114  0.2345
    4MOL0     C  472   2.513   2.084   1.346  0.6287  0.5812  1.3407
    4MOL0     H  473   2.143   2.366   1.187  1.5614 -0.3500  2.9242
    4MOL0     H  474   1.892   2.424   1.163  0.8465  1.8641  1.6673
    4MOL0     H  475   1.678   2.423   1.420 -0.1171 -0.8624  0.5059
    4MOL0     H  476   1.734   2.486   1.268 -1.1264  0.3324 -0.4076
    4MOL0     H  477   1.500   2.533   1.344  1.5271  0.4385  0.0100
    4MOL0     H  478   1.524   2.507   1.165  1.7217  2.2181  0.4231
    4MOL0     H  479   1.320   2.380   1.227 -0.5000 -0.9005  1.3488
    4MOL0     H  480   1.449   2.255   1.199  1.4019 -0.1500 -1.2663
    4MOL0     H  481   1.485   2.280   1.462 -0.3238  1.4796  1.8819
    4MOL0     H  482   1.338   2.376   1.451  0.6387 -0.8374  1.2477
    4MOL0     H  483   1.378   2.090   1.372  1.8737  3.3464 -1.9154
    4MOL0     H  484   1.295   2.146   1.522 -0.8822 -0.9728 -0.3100
    4MOL0     H  485   1.122   2.250   1.397  1.9420  2.3815 -1.6555
    4MOL0     H  486   1.195   2.207   1.247 -0.2192  0.0514 -0.5474
    4MOL0     H  487   1.106   1.978   1.263  3.1568  1.2477 -0.5845
    4MOL0     H  488   1.124   1.979   1.440 -1.8440 -2.3802 -0.6922
    4MOL0     H  489   0.917   2.136   1.278 -0.9884  0.8030  0.6115
    4MOL0     H  490   0.929   2.158   1.449 -3.9586  0.4951 -0.2180
    4MOL0     H  491   0.835   1.937   1.145  1.8415  1.0513  1.0332
    4MOL0     H  492   0.522   1.790   1.196  0.3993 -0.1057 -1.1877
    4MOL0     H  493   0.675   1.774   1.098  2.7188  0.2246  0.8717
    4MOL0     H  494   0.716   1.563   1.249 -0.0523  0.7660 -0.0566
    4MOL0     H  495   0.589   1.560   1.126  1.2641  0.2103 -1.2527
    4MOL0     H  496   0.426   1.640   1.346 -1.0945 -1.3951  0.1209
    4MOL0     H  497   0.562   1.572   1.428  0.9410  1.1202 -1.3057
    4MOL0     H  498   0.538   1.357   1.290 -0.4930 -1.2199  1.3565
    4MOL0     H  499   0.392   1.448   1.225  1.6061  2.5312 -0.0841
    4MOL0     H  500   0.211   1.396   1.630  2.9698 -1.8680 -0.5416
    4MOL0     H  501  -0.132   1.326   1.668 -0.0427 -1.0299 -1.6580
    4MOL0     H  502  -0.020   1.195   1.716 -0.7760  0.5765  1.8697
    4MOL0     H  503   0.029   1.360   1.744 -0.7630  0.0689  0.0865
    4MOL0     H  504  -0.302   1.227   1.091  1.6492  1.5502  3.9466
    4MOL0     H  505  -0.557   1.161   1.016 -1.7106  0.9218  0.0704
    4MOL0     H  506  -0.722   1.027   0.948  2.2894  1.1876  1.7393
    4MOL0     H  507  -0.852   0.935   1.020 -0.9085  0.0471  0.9402
    4MOL0     H  508  -0.766   1.178   1.177 -1.2025 -1.8238  3.6123
    4MOL0     H  509  -0.870   1.204   1.031  0.9362  0.9422  0.6162
    4MOL0     H  510  -0.943   1.029   1.276  2.2849  0.8969 -0.3149
    4MOL0     H  511  -1.025   1.038   1.126 -0.4405 -0.9249  0.6013
    4MOL0     H  512  -0.989   1.278   1.316 -1.9582  1.9027  0.8018
    4MOL0     H  513  -1.040   1.290   1.152 -0.8165 -1.3625 -0.7697
    4MOL0     H  514  -1.241   1.139   1.192  2.0861 -0.4289 -1.0031
    4MOL0     H  515  -1.254   1.287   1.286 -0.5209 -1.1109  0.9863
    4MOL0     H  516  -1.147   1.046   1.420  2.7499  1.7526 -0.9052
    4MOL0     H  517  -1.156   1.211   1.477 -2.6499  1.7178 -0.3073
    4MOL0     H  518  -1.391   1.225   1.491 -2.9993 -0.4767 -3.0288
    4MOL0     H  519  -1.360   1.065   1.549 -1.8478  0.6179  0.3370
    4MOL0     H  520  -1.451   1.110   1.267 -0.5098  0.1224  0.9259
    4MOL0     H  521  -1.537   1.031   1.403 -0.8550  2.2345 -1.4461
    4MOL0     H  522  -0.554   0.889   1.341  1.5869 -2.1170 -1.1223
    4MOL0     H  523  -0.321   0.949   1.401 -1.8509 -1.6426  0.8902
    4MOL0     H  524   0.050   1.205   1.208  1.6719 -1.4799 -0.3633
    4MOL0     H  525   0.241   1.307   1.213  0.2628 -0.1013 -0.0092
    4MOL0     H  526   1.795   2.058   1.347  1.8199 -1.7161  2.4415
    4MOL0     H  527   2.030   1.998   1.372 -1.7889  0.0841  0.6068
    4MOL0     H  528   2.397   1.800   1.228 -1.0143 -0.3718  3.8308
    4MOL0     H  529   2.633   1.735   1.236 -1.5567 -0.7365 -1.4837
    4MOL0     H  530   2.943   1.734   1.440  3.1341 -2.1563 -2.9263
    4MOL0     H  531   2.784   1.683   1.379 -1.4125  2.6801  1.4361
    4MOL0     H  532   2.891   1.718   1.145 -3.4563 -1.3081  3.1060
    4MOL0     H  533   2.980   1.610   1.246 -1.8196 -0.4000  0.9749
    4MOL0     H  534   3.119   1.829   1.309 -1.0509 -1.6143  0.7766
    4MOL0     H  535   3.022   1.911   1.183 -0.6307  0.8339  1.9590
    4MOL0     H  536   3.239   1.851   1.103 -0.5475  0.1291  2.0670
    4MOL0     H  537   3.102   1.765   1.021 -0.0973 -2.0651 -1.1630
    4MOL0     H  538   3.310   1.452   1.228 -0.8117  0.3009  2.4355
    4MOL0     H  539   2.697   2.126   1.427 -1.3794  0.2889  0.9566
    4MOL0     H  540   2.474   2.179   1.380 -0.7279  1.5705 -2.5817
    5MOL0     O  541   0.677   7.923   5.958 -0.1359 -0.7197  0.0476
    5MOL0     C  542   0.745   7.824   5.950  0.6697 -0.1371 -0.0446
    5MOL0     O  543   0.702   7.713   5.880 -0.3777 -0.2558  0.1780
    5MOL0     C  544   0.573   7.701   5.841  0.5911  0.5344  0.5174
    5MOL0     C  545   0.549   7.666   5.709 -0.8481  1.1474 -0.2056
    5MOL0     C  546   0.423   7.643   5.672  1.2003  0.0390 -0.6089
    5MOL0     C  547   0.310   7.648   5.768 -0.2785 -0.5300 -0.6031
    5MOL0     O  548   0.182   7.641   5.728 -0.2051  0.6075 -0.5816
    5MOL0     C  549   0.157   7.593   5.597 -0.3826 -0.8659 -0.5066
    5MOL0     C  550   0.011   7.565   5.595 -0.0023 -0.8006 -0.0352
    5MOL0     C  551  -0.035   7.511   5.453  0.0161 -1.3924  0.0022
    5MOL0     C  552  -0.184   7.484   5.454 -0.3720  0.2108  0.4213
    5MOL0     C  553  -0.234   7.430   5.314 -0.4724  0.3964  0.4848
    5MOL0     C  554  -0.385   7.442   5.287 -0.1400  0.5039  0.2080
    5MOL0     C  555  -0.433   7.591   5.280  0.4767 -0.4858  0.8583
    5MOL0     C  556  -0.511   7.633   5.406  0.0246 -0.0165  0.3620
    5MOL0     N  557  -0.646   7.591   5.396 -0.6546 -0.3589  0.8142
    5MOL0     C  558  -0.723   7.575   5.283 -0.3955 -0.5916 -0.5759
    5MOL0     C  559  -0.844   7.537   5.329  0.3273 -0.3995  0.6933
    5MOL0     C  560  -0.962   7.485   5.241  0.9160 -0.8868  0.7578
    5MOL0     C  561  -1.089   7.454   5.322 -0.5135 -0.7477  0.6105
    5MOL0     C  562  -1.087   7.314   5.378 -0.5249 -0.3038  0.2933
    5MOL0     C  563  -1.227   7.273   5.430  0.3996 -0.4033 -0.9439
    5MOL0     O  564  -1.318   7.239   5.325  1.1129 -0.0687 -0.1921
    5MOL0     C  565  -1.454   7.208   5.346  0.6909 -0.2411 -0.5603
    5MOL0     C  566  -1.529   7.238   5.467 -0.2281  1.2021  0.3928
    5MOL0     C  567  -1.662   7.199   5.481 -0.6305  0.6272 -0.8903
    5MOL0     C  568  -1.727   7.223   5.616 -0.1952 -0.6939  0.2686
    5MOL0     C  569  -1.728   7.147   5.370  0.1604  0.1454 -0.7787
    5MOL0     C  570  -1.870   7.111   5.366  1.2871  0.2629 -0.5629
    5MOL0     O  571  -1.935   7.127   5.247  0.5715 -0.5141  0.0745
    5MOL0     C  572  -2.050   7.054   5.221  0.3320 -0.2473  0.8672
    5MOL0     C  573  -2.059   6.916   5.232  0.9391 -0.0977 -0.3270
    5MOL0     C  574  -2.180   6.837   5.203 -0.5756 -1.7272 -0.4261
    5MOL0     C  575  -2.289   6.906   5.149  0.7331  0.0558 -0.6300
    5MOL0     O  576  -2.395   6.827   5.105  0.4782  0.2502  0.0414
    5MOL0     C  577  -2.489   6.882   5.013 -1.0970  0.7950 -0.6869
    5MOL0     C  578  -2.598   6.773   4.958  0.2588 -0.7240 -0.3712
    5MOL0     C  579  -2.696   6.837   4.856  0.2850  0.3105 -0.4122
    5MOL0     C  580  -2.785   6.950   4.911 -0.0927  0.3571 -1.0480
    5MOL0     C  581  -2.891   7.001   4.816 -0.1246 -0.2144  0.1140
    5MOL0     C  582  -2.978   7.095   4.890  0.2350  0.6142 -0.6115
    5MOL0     C  583  -3.061   7.181   4.802  0.2484 -0.2683 -0.1189
    5MOL0     C  584  -3.127   7.102   4.690 -0.0228  0.4622  0.6419
    5MOL0    Cl  585  -3.225   7.190   4.571  0.2778 -0.0284  0.3092
    5MOL0     C  586  -2.277   7.044   5.136 -0.7811  0.0265  0.0036
    5MOL0     C  587  -2.160   7.118   5.171  0.1673  0.0632  1.0660
    5MOL0     O  588  -1.920   7.054   5.461 -0.1612  0.1158 -0.0337
    5MOL0     C  589  -1.660   7.130   5.247  0.6237 -0.7711 -0.5989
    5MOL0     C  590  -1.528   7.164   5.234 -1.0894  0.4804 -1.0260
    5MOL0     N  591  -0.839   7.532   5.467  0.6292 -0.6583 -0.3468
    5MOL0     N  592  -0.721   7.575   5.501  0.4423 -0.1633  0.9254
    5MOL0     C  593   0.328   7.691   5.894  0.2449 -0.1954  0.0113
    5MOL0     C  594   0.466   7.714   5.930  0.2029 -0.9515  0.1424
    5MOL0     C  595   0.884   7.817   5.987 -0.6709  0.3879 -0.0929
    5MOL0     C  596   0.971   7.716   5.950 -0.3366 -1.2216  0.4354
    5MOL0     C  597   1.095   7.706   6.012 -0.6395 -0.5388 -0.1235
    5MOL0     C  598   1.135   7.798   6.112 -1.0179  0.0103 -0.1086
    5MOL0     O  599   1.260   7.804   6.172  0.4732  0.2991 -0.3829
    5MOL0     C  600   1.339   7.686   6.176 -0.2702  0.4735 -0.4204
    5MOL0     C  601   1.449   7.690   6.074 -0.0435  0.0969 -1.2501
    5MOL0     C  602   1.534   7.559   6.074 -0.0557 -0.6457 -0.1658
    5MOL0     C  603   1.655   7.584   5.989 -0.1404  0.0200  0.6079
    5MOL0     C  604   1.744   7.466   5.984 -0.3989 -0.0311 -0.3420
    5MOL0     C  605   1.825   7.374   5.983  0.3783  0.4145  0.8387
    5MOL0     C  606   1.051   7.898   6.146  0.1141 -0.1233 -0.2532
    5MOL0     C  607   0.924   7.911   6.077  0.7095  0.2145  0.1344
    5MOL0     H  608   0.628   7.641   5.639  0.5330  1.1358  1.3014
    5MOL0     H  609   0.413   7.616   5.567 -0.5682 -1.2018 -0.1480
    5MOL0     H  610   0.163   7.677   5.527 -2.1365 -1.0389 -0.9099
    5MOL0     H  611   0.213   7.504   5.567 -0.5328 -1.5565  1.1259
    5MOL0     H  612  -0.013   7.501   5.681  0.5280  0.4351  1.0591
    5MOL0     H  613  -0.032   7.663   5.616 -1.5839 -1.6077  0.6725
    5MOL0     H  614  -0.015   7.596   5.388 -2.5861 -1.2957 -0.7748
    5MOL0     H  615   0.021   7.423   5.418 -2.0331 -2.8710  0.2526
    5MOL0     H  616  -0.209   7.416   5.536  2.8234 -0.6342  0.8172
    5MOL0     H  617  -0.244   7.574   5.469 -0.3786  0.5709 -1.5088
    5MOL0     H  618  -0.197   7.487   5.228 -1.9774  2.8796  1.3572
    5MOL0     H  619  -0.203   7.325   5.309 -0.4592  0.2985  1.9989
    5MOL0     H  620  -0.400   7.392   5.191  0.6100  2.5612 -1.0352
    5MOL0     H  621  -0.448   7.394   5.362 -2.5106  1.7389 -0.8674
    5MOL0     H  622  -0.342   7.647   5.259  0.5274 -1.4024 -1.8702
    5MOL0     H  623  -0.486   7.607   5.186 -0.1586  1.5538  1.5222
    5MOL0     H  624  -0.501   7.741   5.420 -0.4774 -0.1467  1.9446
    5MOL0     H  625  -0.465   7.589   5.495  1.7892 -0.7264 -0.8281
    5MOL0     H  626  -0.695   7.581   5.178  1.5251  3.4257  0.0020
    5MOL0     H  627  -0.992   7.567   5.175 -0.9336 -1.9071  0.2708
    5MOL0     H  628  -0.937   7.393   5.187 -1.5573 -1.6476  0.7863
    5MOL0     H  629  -1.175   7.468   5.255 -0.0377  2.3449  0.4856
    5MOL0     H  630  -1.102   7.520   5.408  1.6644  0.8086 -0.1791
    5MOL0     H  631  -1.007   7.303   5.451 -0.8635 -4.2714  0.3160
    5MOL0     H  632  -1.065   7.243   5.298  1.2895  1.1632 -0.5633
    5MOL0     H  633  -1.265   7.361   5.484  1.3118 -0.3462 -0.3710
    5MOL0     H  634  -1.207   7.192   5.500 -0.9569 -1.1934 -1.4262
    5MOL0     H  635  -1.475   7.259   5.559 -0.0445 -1.5208  0.9793
    5MOL0     H  636  -1.701   7.319   5.661 -0.1867 -1.0627  1.0682
    5MOL0     H  637  -1.837   7.221   5.617 -0.2725  0.0036 -1.6331
    5MOL0     H  638  -1.693   7.145   5.684  1.9285  0.8124  1.0490
    5MOL0     H  639  -1.977   6.860   5.275  1.6050  1.1454  0.0440
    5MOL0     H  640  -2.193   6.733   5.230  0.6970 -1.9269 -0.5570
    5MOL0     H  641  -2.541   6.966   5.061 -1.3702 -0.8216  2.0598
    5MOL0     H  642  -2.431   6.912   4.926  0.1730  0.3037 -0.0236
    5MOL0     H  643  -2.545   6.693   4.907  0.4332  0.1673 -1.6260
    5MOL0     H  644  -2.659   6.722   5.034  0.1473 -0.7481 -0.4753
    5MOL0     H  645  -2.756   6.748   4.835 -1.1553  1.5693 -2.0401
    5MOL0     H  646  -2.642   6.856   4.762 -1.5497 -2.9611 -2.3229
    5MOL0     H  647  -2.836   6.912   5.000 -0.6425  2.3969 -0.4389
    5MOL0     H  648  -2.720   7.026   4.956  2.5676 -1.1184 -2.1490
    5MOL0     H  649  -2.937   6.923   4.755  3.4620 -0.0594 -3.2131
    5MOL0     H  650  -2.836   7.062   4.743  0.9936  1.3151  2.1008
    5MOL0     H  651  -3.045   7.044   4.960 -0.6577  0.0023 -1.8804
    5MOL0     H  652  -2.918   7.166   4.948  0.2426  2.0892 -2.3416
    5MOL0     H  653  -2.996   7.257   4.758 -1.6232  1.9090  0.7390
    5MOL0     H  654  -3.135   7.216   4.874  1.2277 -0.7410  1.1432
    5MOL0     H  655  -3.181   7.015   4.729 -1.2864  0.7261 -0.4552
    5MOL0     H  656  -3.046   7.068   4.624  0.7471 -1.0094  2.2444
    5MOL0     H  657  -2.352   7.102   5.084  0.3801  3.3792  1.7611
    5MOL0     H  658  -2.150   7.223   5.147 -0.8384  1.1448  4.6613
    5MOL0     H  659  -1.714   7.093   5.160  1.0006 -1.3230 -0.6092
    5MOL0     H  660  -1.486   7.152   5.134  0.8045 -0.3725 -0.1748
    5MOL0     H  661   0.250   7.682   5.969 -1.4520 -0.2148 -1.6963
    5MOL0     H  662   0.488   7.733   6.035 -0.8844  4.9622 -0.3316
    5MOL0     H  663   0.939   7.651   5.869  0.6350  0.2682 -1.2365
    5MOL0     H  664   1.154   7.621   5.980 -1.7197 -1.6967  0.8644
    5MOL0     H  665   1.369   7.667   6.280 -3.5772  1.0945  0.8010
    5MOL0     H  666   1.275   7.597   6.173  2.0454 -1.4699  2.0926
    5MOL0     H  667   1.517   7.765   6.115 -0.9103 -0.7041  1.9368
    5MOL0     H  668   1.412   7.713   5.974 -0.0210 -1.3004 -1.6033
    5MOL0     H  669   1.473   7.482   6.025 -3.0611 -0.6282  3.1506
    5MOL0     H  670   1.556   7.523   6.175 -0.8771  0.0063  0.2521
    5MOL0     H  671   1.714   7.661   6.040  0.1703  1.8142 -2.2544
    5MOL0     H  672   1.620   7.612   5.889 -0.5896 -0.7363  0.5459
    5MOL0     H  673   1.881   7.283   5.988  0.3439  0.3312 -0.0373
    5MOL0     H  674   1.079   7.968   6.224 -1.2886 -0.5042  0.6232
    5MOL0     H  675   0.851   7.987   6.100 -0.2324 -0.6115 -0.0673
    6MOL0     O  676   0.439   1.555   1.931  0.0650 -0.2935  0.6966
    6MOL0     C  677   0.515   1.630   1.998  0.6131 -0.0212  0.6601
    6MOL0     O  678   0.499   1.659   2.125  0.3727 -0.0245 -1.5561
    6MOL0     C  679   0.408   1.591   2.210  0.3503  0.4870  0.6274
    6MOL0     C  680   0.333   1.674   2.298  0.1462  0.4417  0.0592
    6MOL0     C  681   0.249   1.613   2.391  0.3810 -0.4632 -0.0800
    6MOL0     C  682   0.237   1.474   2.400 -0.2247  0.2722 -0.0972
    6MOL0     O  683   0.145   1.414   2.482  0.0687 -0.0138  0.3463
    6MOL0     C  684   0.005   1.458   2.455  0.2737  0.0049  0.5606
    6MOL0     C  685  -0.097   1.374   2.532  0.2887 -0.0620  0.0675
    6MOL0     C  686  -0.227   1.419   2.493 -0.2312  0.0100  0.1888
    6MOL0     C  687  -0.324   1.379   2.607  0.2967 -1.0198  0.4417
    6MOL0     C  688  -0.464   1.438   2.605 -0.2354 -0.3886 -0.3723
    6MOL0     C  689  -0.537   1.408   2.483  0.1070  0.6022  0.6312
    6MOL0     C  690  -0.676   1.467   2.488  0.2721 -0.2663 -0.7707
    6MOL0     C  691  -0.770   1.389   2.585 -0.6361  0.0068  0.4968
    6MOL0     N  692  -0.904   1.436   2.595 -0.3108 -0.2135 -0.2682
    6MOL0     C  693  -0.954   1.485   2.706  0.0288  0.0452  0.5190
    6MOL0     C  694  -1.085   1.495   2.671 -0.0545  0.2013 -1.1855
    6MOL0     C  695  -1.183   1.568   2.759 -0.5510 -0.0854 -0.4590
    6MOL0     C  696  -1.210   1.499   2.896 -0.4763 -1.2162  0.1732
    6MOL0     C  697  -1.316   1.591   2.969  0.1301 -0.6855 -0.0818
    6MOL0     C  698  -1.459   1.535   2.924 -0.2782 -0.4551 -0.0560
    6MOL0     O  699  -1.558   1.617   2.997  0.1716 -0.3480  0.4943
    6MOL0     C  700  -1.682   1.621   2.945 -0.5299 -0.3358  0.4329
    6MOL0     C  701  -1.780   1.715   2.997  0.9532 -0.0388 -0.5550
    6MOL0     C  702  -1.916   1.713   2.947  0.7294  0.4317 -1.3296
    6MOL0     C  703  -2.010   1.809   3.004 -0.0784 -0.6133  0.1755
    6MOL0     C  704  -1.960   1.605   2.868  0.3864  0.5864 -0.4578
    6MOL0     C  705  -2.101   1.585   2.826 -0.1567  0.4981 -0.1939
    6MOL0     O  706  -2.139   1.452   2.805  0.1907  0.7124  0.0635
    6MOL0     C  707  -2.276   1.427   2.805 -0.5704 -0.6458 -0.4341
    6MOL0     C  708  -2.374   1.506   2.867 -0.5323  0.1251 -0.3608
    6MOL0     C  709  -2.514   1.470   2.871  0.4487  0.8263 -0.7486
    6MOL0     C  710  -2.551   1.352   2.818 -0.2059 -0.3449  0.3460
    6MOL0     O  711  -2.689   1.338   2.815 -0.7090 -0.9567  0.3262
    6MOL0     C  712  -2.749   1.213   2.793  0.6403 -0.8530  0.6405
    6MOL0     C  713  -2.892   1.249   2.801  0.5030  0.8094 -0.8138
    6MOL0     C  714  -2.988   1.129   2.764 -0.1509 -0.6043  0.4119
    6MOL0     C  715  -3.061   1.156   2.632  0.2314 -0.7904 -0.1783
    6MOL0     C  716  -3.136   1.044   2.566  0.0700 -0.0799 -0.1156
    6MOL0     C  717  -3.220   0.954   2.656  0.1598 -0.7464  0.1976
    6MOL0     C  718  -3.316   0.858   2.585  0.3545  0.0717  0.1417
    6MOL0     C  719  -3.451   0.925   2.558  0.0380 -0.1114  0.1196
    6MOL0    Cl  720  -3.573   0.806   2.489 -0.0786 -0.0118 -0.1422
    6MOL0     C  721  -2.460   1.262   2.767 -0.6285 -0.1689  0.3673
    6MOL0     C  722  -2.321   1.300   2.760  0.4953  0.1823 -0.6686
    6MOL0     O  723  -2.170   1.680   2.805  0.9304  0.4940 -0.0432
    6MOL0     C  724  -1.870   1.512   2.825  0.6693  0.0955  0.0404
    6MOL0     C  725  -1.733   1.524   2.857  0.1998  0.6413  0.6366
    6MOL0     N  726  -1.106   1.459   2.547  0.3348 -0.5141  0.3743
    6MOL0     N  727  -0.998   1.404   2.504  1.7231 -0.1308 -0.1370
    6MOL0     C  728   0.319   1.392   2.313  0.1660  0.3596  0.3017
    6MOL0     C  729   0.404   1.445   2.214 -0.3675 -0.4646  0.5235
    6MOL0     C  730   0.624   1.692   1.929 -0.4461  1.1199  0.0149
    6MOL0     C  731   0.645   1.670   1.789 -0.1427  0.6210 -0.1656
    6MOL0     C  732   0.760   1.713   1.733  0.8465  0.3076 -0.1185
    6MOL0     C  733   0.857   1.781   1.811  0.4033  0.5071 -0.0511
    6MOL0     O  734   0.968   1.797   1.734 -0.1367  0.0050  0.5968
    6MOL0     C  735   1.089   1.856   1.795 -0.8109 -0.2383 -0.3752
    6MOL0     C  736   1.222   1.830   1.712  0.6611  0.5393 -0.1547
    6MOL0     C  737   1.259   1.684   1.700 -0.5549 -0.0880  0.3441
    6MOL0     C  738   1.162   1.583   1.631 -0.5052 -1.1766  0.1177
    6MOL0     C  739   1.111   1.641   1.511  0.6185  0.5719  0.2751
    6MOL0     C  740   1.083   1.689   1.402  0.2622  0.1594 -0.1425
    6MOL0     C  741   0.843   1.805   1.949  0.8577 -0.9565 -0.0720
    6MOL0     C  742   0.722   1.764   2.011  0.1296 -0.1076  0.0221
    6MOL0     H  743   0.349   1.781   2.293  3.0609  0.0334 -1.4605
    6MOL0     H  744   0.184   1.677   2.451 -0.0861 -0.7350 -0.2908
    6MOL0     H  745  -0.015   1.561   2.486 -2.0437 -0.5861  1.2056
    6MOL0     H  746  -0.014   1.439   2.349 -2.9135 -0.4614  1.1322
    6MOL0     H  747  -0.074   1.270   2.505  2.0148  0.2882  0.0562
    6MOL0     H  748  -0.077   1.381   2.639  2.0977 -4.8936  0.3180
    6MOL0     H  749  -0.239   1.523   2.462 -0.7143 -0.3388 -0.8675
    6MOL0     H  750  -0.261   1.354   2.411  1.8936 -2.1390  0.9073
    6MOL0     H  751  -0.332   1.270   2.618 -2.0355 -0.9687 -0.3757
    6MOL0     H  752  -0.275   1.415   2.699  1.6290 -0.9333 -0.2721
    6MOL0     H  753  -0.524   1.399   2.688 -2.7845  0.8483 -1.5223
    6MOL0     H  754  -0.458   1.547   2.615  0.0813 -0.5054  0.9437
    6MOL0     H  755  -0.476   1.439   2.398  0.6176 -3.5914 -0.7740
    6MOL0     H  756  -0.541   1.299   2.474  1.4931  0.4609  1.5424
    6MOL0     H  757  -0.670   1.569   2.528 -0.4060 -0.9648  1.2275
    6MOL0     H  758  -0.733   1.471   2.394 -1.3916 -2.9953  0.0167
    6MOL0     H  759  -0.722   1.378   2.683 -2.5121 -1.9913  1.2587
    6MOL0     H  760  -0.763   1.287   2.546  1.7433  0.5956 -0.8553
    6MOL0     H  761  -0.902   1.507   2.799  0.7827 -3.1458  1.0000
    6MOL0     H  762  -1.146   1.668   2.780 -2.3724  0.5185  0.0724
    6MOL0     H  763  -1.275   1.586   2.702  0.9731 -1.1060 -3.4556
    6MOL0     H  764  -1.112   1.501   2.945 -0.5946 -3.7983  0.6690
    6MOL0     H  765  -1.251   1.399   2.883 -2.1482 -0.3514 -1.6845
    6MOL0     H  766  -1.317   1.695   2.934  0.2128 -0.6015  0.1605
    6MOL0     H  767  -1.297   1.587   3.076 -0.1141  0.0272 -0.0029
    6MOL0     H  768  -1.463   1.427   2.943 -0.8159 -0.4205  0.0500
    6MOL0     H  769  -1.478   1.546   2.816 -0.7273  1.9269  0.2218
    6MOL0     H  770  -1.732   1.780   3.071  3.9546 -4.6421  2.0596
    6MOL0     H  771  -2.034   1.872   2.918  1.9002 -0.0583 -0.0257
    6MOL0     H  772  -2.104   1.768   3.040 -0.5613  0.0951 -0.2618
    6MOL0     H  773  -1.955   1.870   3.076  3.0410 -0.0944 -2.4044
    6MOL0     H  774  -2.338   1.582   2.935 -1.6624 -1.6881  2.4196
    6MOL0     H  775  -2.584   1.539   2.918  0.9366  1.1833 -0.5394
    6MOL0     H  776  -2.728   1.190   2.689  0.4389  2.9812 -0.3956
    6MOL0     H  777  -2.702   1.153   2.872  0.3555  3.5395  4.5458
    6MOL0     H  778  -2.906   1.288   2.902  2.7014  1.0209 -0.5453
    6MOL0     H  779  -2.918   1.333   2.735  0.7996  0.8253 -0.9142
    6MOL0     H  780  -3.064   1.112   2.841 -0.5192  1.2263  0.5080
    6MOL0     H  781  -2.931   1.036   2.766 -0.6744 -0.9320  0.3203
    6MOL0     H  782  -3.133   1.237   2.647 -0.3342 -1.1923 -0.6891
    6MOL0     H  783  -2.995   1.187   2.551  1.9912 -0.4668  1.3027
    6MOL0     H  784  -3.064   0.993   2.500 -0.7009  1.7307 -2.5315
    6MOL0     H  785  -3.210   1.089   2.499  0.3412  1.8200  0.7967
    6MOL0     H  786  -3.154   0.905   2.729  2.2690 -0.0101 -1.1167
    6MOL0     H  787  -3.281   1.024   2.714  0.4439  0.5487 -1.0034
    6MOL0     H  788  -3.343   0.772   2.648 -2.2175  0.2756 -0.6077
    6MOL0     H  789  -3.265   0.811   2.500  0.4132  1.1923 -0.4482
    6MOL0     H  790  -3.443   1.008   2.487  0.0236 -1.4934 -1.5649
    6MOL0     H  791  -3.492   0.966   2.650 -1.2315  1.0957 -0.9494
    6MOL0     H  792  -2.481   1.161   2.732  1.7751  0.0435 -1.9762
    6MOL0     H  793  -2.246   1.234   2.717 -0.5911 -1.8068  0.3725
    6MOL0     H  794  -1.908   1.429   2.767 -2.4964  1.3045  0.1951
    6MOL0     H  795  -1.667   1.446   2.821  0.2707  0.6713  0.7027
    6MOL0     H  796   0.317   1.285   2.327 -0.2933  0.5118  1.4646
    6MOL0     H  797   0.465   1.379   2.153  2.0282  1.5445  0.6253
    6MOL0     H  798   0.581   1.604   1.732 -0.6035  0.5551  0.4202
    6MOL0     H  799   0.774   1.691   1.628  1.4203 -0.8857  0.1889
    6MOL0     H  800   1.085   1.965   1.806  0.8575 -0.1239 -0.6819
    6MOL0     H  801   1.105   1.824   1.899  0.6488  1.8157  0.1047
    6MOL0     H  802   1.311   1.874   1.758  2.9624 -4.1354  0.4287
    6MOL0     H  803   1.211   1.869   1.610 -0.0506 -0.9383 -0.6681
    6MOL0     H  804   1.270   1.644   1.802 -0.8238 -1.3902 -0.1220
    6MOL0     H  805   1.357   1.682   1.652 -1.3537 -0.9102 -1.3245
    6MOL0     H  806   1.079   1.549   1.694  0.0879 -1.3933  0.7897
    6MOL0     H  807   1.223   1.496   1.605  1.2800 -0.1412  0.6603
    6MOL0     H  808   1.048   1.736   1.312 -0.6701  1.6906  0.9599
    6MOL0     H  809   0.918   1.861   2.004  0.0535 -0.7821  0.8795
    6MOL0     H  810   0.708   1.774   2.118 -0.6932  3.0766 -0.2729
    7MOL0     O  811  10.153  10.119   4.405  0.0962  0.0821 -0.1830
    7MOL0     C  812  10.156  10.109   4.530  0.1986 -1.2273 -0.4449
    7MOL0     O  813  10.050  10.096   4.605  0.0566 -0.0755 -0.3648
    7MOL0     C  814   9.929  10.072   4.540  0.2521 -0.4777 -0.2865
    7MOL0     C  815   9.850  10.174   4.489  0.2399 -0.4621  0.2918
    7MOL0     C  816   9.731  10.150   4.425 -0.7150 -0.1692 -0.0694
    7MOL0     C  817   9.675  10.022   4.422 -0.0555 -0.9895 -0.3610
    7MOL0     O  818   9.541   9.997   4.406  0.4272  0.0314  0.0828
    7MOL0     C  819   9.449  10.084   4.469 -0.4878 -0.4493 -0.1972
    7MOL0     C  820   9.331  10.083   4.367 -0.2299 -0.4302 -0.1012
    7MOL0     C  821   9.211  10.164   4.418 -0.2477  0.1206 -0.6560
    7MOL0     C  822   9.095  10.152   4.316  0.2993 -0.0192  0.5729
    7MOL0     C  823   8.956  10.199   4.352  0.1138 -0.0490 -0.8155
    7MOL0     C  824   8.868  10.212   4.225  0.8223  0.8885  0.4931
    7MOL0     C  825   8.724  10.223   4.258  0.0492 -0.3213 -1.1250
    7MOL0     C  826   8.625  10.176   4.151 -0.1455 -0.1371  0.9342
    7MOL0     N  827   8.485  10.185   4.185 -0.1123 -0.2653 -0.3124
    7MOL0     C  828   8.398  10.107   4.124  1.0804 -0.0663  0.4006
    7MOL0     C  829   8.279  10.123   4.191 -0.3189 -0.5994  0.6775
    7MOL0     C  830   8.152  10.046   4.160 -0.2988  0.2978  0.6780
    7MOL0     C  831   8.046  10.140   4.096 -0.2940  0.2013  0.5661
    7MOL0     C  832   7.928  10.050   4.066 -0.1478 -0.4734 -0.2027
    7MOL0     C  833   7.814  10.132   4.015  0.3599  0.0442  0.0507
    7MOL0     O  834   7.689  10.073   4.053  0.3953 -0.7772  0.2657
    7MOL0     C  835   7.577  10.126   4.002  0.7077  0.0134  0.4991
    7MOL0     C  836   7.461  10.042   4.004 -0.0124  0.0090  0.1874
    7MOL0     C  837   7.331  10.078   3.961 -0.1909  0.2465 -0.0908
    7MOL0     C  838   7.230   9.969   3.985  0.0925  0.3537  1.0228
    7MOL0     C  839   7.310  10.214   3.908  0.0448  0.3558 -0.3423
    7MOL0     C  840   7.182  10.273   3.863  0.0284  0.9790 -0.0900
    7MOL0     O  841   7.073  10.197   3.858 -0.4291  0.5425  0.7764
    7MOL0     C  842   6.961  10.275   3.831 -0.4005  0.6462 -0.0098
    7MOL0     C  843   6.888  10.239   3.722  0.0032  0.3130  0.0759
    7MOL0     C  844   6.770  10.312   3.687 -0.4846 -0.1452 -0.3737
    7MOL0     C  845   6.715  10.401   3.779 -0.1156  0.1428 -0.1630
    7MOL0     O  846   6.595  10.465   3.760 -0.7204  0.1326  0.0904
    7MOL0     C  847   6.521  10.452   3.632 -0.2534 -0.4657  0.3598
    7MOL0     C  848   6.384  10.519   3.674 -0.2236 -0.5407  0.6097
    7MOL0     C  849   6.406  10.658   3.734  0.3910 -0.7726 -0.6204
    7MOL0     C  850   6.274  10.739   3.730 -0.7253 -0.0967 -0.0237
    7MOL0     C  851   6.282  10.892   3.753  0.1093 -0.1976 -0.5654
    7MOL0     C  852   6.142  10.956   3.737  0.7115 -0.5098  0.8547
    7MOL0     C  853   6.142  11.104   3.768 -0.1949  1.1559 -0.0661
    7MOL0     C  854   6.011  11.160   3.719  0.6211 -0.0828  0.2544
    7MOL0    Cl  855   5.872  11.109   3.814  0.0146  0.1369 -0.6543
    7MOL0     C  856   6.786  10.422   3.901 -0.1212 -0.3421 -0.2439
    7MOL0     C  857   6.911  10.362   3.925 -0.0479 -0.1794  0.9291
    7MOL0     O  858   7.189  10.385   3.825 -0.9355 -0.0614 -0.0150
    7MOL0     C  859   7.428  10.296   3.917  1.1005 -0.1846  0.8313
    7MOL0     C  860   7.553  10.256   3.955 -0.1012  0.7397  0.0344
    7MOL0     N  861   8.295  10.216   4.297 -0.9562  0.6578  0.1250
    7MOL0     N  862   8.420  10.259   4.282  0.1507 -0.1919  0.6905
    7MOL0     C  863   9.745   9.913   4.474 -0.8043  0.3416  0.3993
    7MOL0     C  864   9.878   9.938   4.525  0.7028  0.0661  0.5544
    7MOL0     C  865  10.284  10.117   4.597  1.2485  0.1331 -0.6482
    7MOL0     C  866  10.406  10.155   4.533 -0.3885 -0.4962 -0.5946
    7MOL0     C  867  10.521  10.139   4.606 -0.3298  0.2590  0.6342
    7MOL0     C  868  10.530  10.091   4.738  0.5589 -0.3339  0.2254
    7MOL0     O  869  10.658  10.101   4.796 -0.2264  0.1868 -0.2418
    7MOL0     C  870  10.658  10.094   4.938  0.1760  0.4640 -0.1020
    7MOL0     C  871  10.774  10.177   4.996  0.0481 -0.5860  0.1368
    7MOL0     C  872  10.914  10.111   4.967  0.2153  0.7003 -0.1760
    7MOL0     C  873  10.936   9.998   5.072  0.5634  0.5119 -1.3505
    7MOL0     C  874  11.081   9.974   5.081  0.3973 -0.0054 -0.3907
    7MOL0     C  875  11.195   9.948   5.054  0.0580 -0.1596 -0.3615
    7MOL0     C  876  10.409  10.052   4.800 -0.6569  0.0972  0.1399
    7MOL0     C  877  10.291  10.063   4.727 -0.3922 -0.3926 -0.5774
    7MOL0     H  878   9.886  10.277   4.490 -0.9675 -0.0116 -0.2293
    7MOL0     H  879   9.672  10.234   4.389  2.4836  1.5020 -1.8281
    7MOL0     H  880   9.433  10.041   4.568 -0.0391  2.0375  1.0462
    7MOL0     H  881   9.485  10.187   4.482 -0.8270 -0.3907  0.2961
    7MOL0     H  882   9.361  10.131   4.273  0.2265  3.5053  1.8291
    7MOL0     H  883   9.301   9.978   4.356 -3.2422  0.5454 -3.2947
    7MOL0     H  884   9.183  10.123   4.515  0.0773 -0.4050 -0.7777
    7MOL0     H  885   9.234  10.269   4.439 -3.6104  0.9734 -0.6335
    7MOL0     H  886   9.124  10.200   4.223 -2.1894  1.9736  0.7436
    7MOL0     H  887   9.088  10.045   4.295  0.2432 -0.2144  1.5121
    7MOL0     H  888   8.917  10.131   4.429  0.1933 -0.8803 -1.4861
    7MOL0     H  889   8.965  10.301   4.390  1.1185 -0.9113  1.4091
    7MOL0     H  890   8.906  10.292   4.161  0.7447  1.9575  1.7280
    7MOL0     H  891   8.877  10.120   4.166  0.9411  1.3027 -0.1505
    7MOL0     H  892   8.709  10.155   4.343  2.1264 -2.0406 -2.0447
    7MOL0     H  893   8.698  10.326   4.286  3.9530  0.4595  0.2218
    7MOL0     H  894   8.631  10.073   4.117  0.1125 -0.2003  1.1683
    7MOL0     H  895   8.651  10.226   4.057  2.9518 -2.7230  0.2503
    7MOL0     H  896   8.406  10.030   4.047 -2.8348 -2.0424  1.6739
    7MOL0     H  897   8.178   9.968   4.089  3.3482  1.5974  0.3664
    7MOL0     H  898   8.103  10.002   4.246  0.3458 -1.1928  0.3096
    7MOL0     H  899   8.096  10.179   4.008  2.0728 -2.4224  0.5934
    7MOL0     H  900   8.023  10.216   4.171  2.2239  0.1028  1.5387
    7MOL0     H  901   7.895  10.005   4.160 -0.9396 -1.7260 -1.0528
    7MOL0     H  902   7.944   9.971   3.993  1.6755  0.9240 -1.4185
    7MOL0     H  903   7.807  10.135   3.906 -1.5623 -1.6651  0.0715
    7MOL0     H  904   7.812  10.232   4.059  3.9799  0.3361 -0.1622
    7MOL0     H  905   7.486   9.945   4.046  1.0841  1.0028  1.9682
    7MOL0     H  906   7.196   9.937   3.887  1.5101 -2.4887  1.3494
    7MOL0     H  907   7.270   9.880   4.035  0.3758  0.3554  0.7989
    7MOL0     H  908   7.147   9.996   4.051  0.8910  1.4579  1.6296
    7MOL0     H  909   6.914  10.166   3.645 -0.5741  0.5483 -0.3416
    7MOL0     H  910   6.727  10.295   3.589  0.2314  1.1016 -0.9249
    7MOL0     H  911   6.569  10.513   3.555  2.3071  0.3226  2.4475
    7MOL0     H  912   6.521  10.349   3.594 -0.7888 -0.2179 -0.3316
    7MOL0     H  913   6.320  10.533   3.586 -2.6189  0.2474  2.3794
    7MOL0     H  914   6.320  10.467   3.746  0.3155  2.2917  3.3247
    7MOL0     H  915   6.486  10.716   3.687  0.1200  0.7775  0.7716
    7MOL0     H  916   6.448  10.641   3.833 -0.3382 -3.3398 -0.6677
    7MOL0     H  917   6.235  10.714   3.631  3.4640 -1.8934 -1.4437
    7MOL0     H  918   6.212  10.697   3.809 -0.5034 -2.8163 -1.1652
    7MOL0     H  919   6.342  10.935   3.672  0.8657 -1.1204 -0.5248
    7MOL0     H  920   6.326  10.916   3.850  2.3207 -1.0139 -1.2875
    7MOL0     H  921   6.115  10.941   3.632  0.4335 -0.5906  0.9368
    7MOL0     H  922   6.074  10.904   3.805  2.2093 -1.7967  1.4306
    7MOL0     H  923   6.221  11.161   3.718  0.7262 -0.4500 -0.5281
    7MOL0     H  924   6.151  11.113   3.877  1.4679 -1.5683  0.1163
    7MOL0     H  925   6.001  11.125   3.615  3.2162 -1.0369  0.2551
    7MOL0     H  926   6.021  11.269   3.714  0.3459 -0.0844 -0.6307
    7MOL0     H  927   6.741  10.487   3.976 -0.2742 -0.1251 -0.5244
    7MOL0     H  928   6.965  10.372   4.019  0.0014 -1.1486  1.0079
    7MOL0     H  929   7.434  10.396   3.875 -0.2584 -0.8892 -1.2351
    7MOL0     H  930   7.645  10.314   3.944 -0.5920  1.0931 -2.8636
    7MOL0     H  931   9.693   9.819   4.484 -0.5875  0.3854  2.1296
    7MOL0     H  932   9.926   9.847   4.559 -3.3492 -2.1965  0.7129
    7MOL0     H  933  10.413  10.197   4.434  0.3889 -0.5639 -0.5709
    7MOL0     H  934  10.617  10.168   4.567 -1.2490 -0.3113 -2.2876
    7MOL0     H  935  10.571  10.145   4.981 -0.6416 -0.3073 -0.7953
    7MOL0     H  936  10.641   9.990   4.968 -1.4297  0.6423 -0.2991
    7MOL0     H  937  10.765  10.191   5.104 -0.8131  1.6212 -0.1710
    7MOL0     H  938  10.763  10.279   4.959 -1.0701  0.4726  3.0905
    7MOL0     H  939  10.992  10.188   4.976  2.2646 -0.9858 -2.4040
    7MOL0     H  940  10.922  10.088   4.861  2.9275  1.9889 -0.3151
    7MOL0     H  941  10.882   9.905   5.052  0.7055  0.1742 -0.2409
    7MOL0     H  942  10.910  10.029   5.174  0.3894  2.4826 -1.9493
    7MOL0     H  943  11.287   9.904   5.022  2.1943  3.0015  0.9126
    7MOL0     H  944  10.404  10.002   4.897  2.1024  0.5315  0.6092
    7MOL0     H  945  10.204  10.031   4.785  2.2817 -1.3672  3.3070
    8MOL0     O  946   6.325   0.409   8.923 -0.0711 -0.0701  0.1843
    8MOL0     C  947   6.331   0.354   9.035 -0.5494 -0.1370  0.2620
    8MOL0     O  948   6.422   0.258   9.066 -0.6581 -0.4949 -0.1227
    8MOL0     C  949   6.448   0.180   8.955 -0.7555  0.6093  0.0400
    8MOL0     C  950   6.359   0.083   8.925  0.5765  0.7041 -0.0586
    8MOL0     C  951   6.364   0.003   8.808  0.2430 -1.2374  0.2733
    8MOL0     C  952   6.473   0.013   8.725 -0.8587 -0.5044  0.2884
    8MOL0     O  953   6.468  -0.082   8.619 -0.2000  0.5287 -0.2769
    8MOL0     C  954   6.577  -0.084   8.525  0.2180 -0.0385  0.0168
    8MOL0     C  955   6.555  -0.181   8.415 -0.6406  0.1405  0.2735
    8MOL0     C  956   6.449  -0.127   8.317 -0.0667 -0.2191  0.9542
    8MOL0     C  957   6.495  -0.034   8.205 -0.6138 -0.3544 -0.3261
    8MOL0     C  958   6.395  -0.044   8.090  0.1637  0.3284  0.0781
    8MOL0     C  959   6.276   0.045   8.119 -0.2535  0.1787 -0.1610
    8MOL0     C  960   6.174   0.038   8.003  0.6777 -0.4862 -0.7016
    8MOL0     C  961   6.067   0.153   8.014 -0.1243  0.7902 -0.1635
    8MOL0     N  962   5.991   0.184   8.136 -0.9864  0.4615  0.1736
    8MOL0     C  963   5.925   0.088   8.206  0.2358 -0.1764 -0.2668
    8MOL0     C  964   5.865   0.155   8.306  0.3452  0.0542 -0.3475
    8MOL0     C  965   5.768   0.105   8.407  0.6799 -0.8768  0.0325
    8MOL0     C  966   5.630   0.094   8.357 -0.1158  0.5407  0.2663
    8MOL0     C  967   5.610  -0.031   8.262  0.0491  0.1015  0.4008
    8MOL0     C  968   5.461  -0.058   8.231  0.1311  0.2696 -0.3580
    8MOL0     O  969   5.390  -0.114   8.350 -0.3349 -0.2865  0.6980
    8MOL0     C  970   5.303  -0.216   8.346 -0.2963  0.4423 -0.1454
    8MOL0     C  971   5.252  -0.254   8.475  0.0466 -0.4073 -0.0148
    8MOL0     C  972   5.165  -0.363   8.496  1.0580  0.6082  0.1209
    8MOL0     C  973   5.129  -0.385   8.648  0.0577  0.0226 -1.0636
    8MOL0     C  974   5.114  -0.446   8.388  0.4007  0.6083  0.3199
    8MOL0     C  975   5.024  -0.567   8.393 -0.1673 -0.1962  0.7374
    8MOL0     O  976   5.034  -0.654   8.283 -0.3590  0.2958  0.3867
    8MOL0     C  977   4.944  -0.761   8.282 -0.0113  0.5233  0.5922
    8MOL0     C  978   4.962  -0.878   8.359  0.7162 -0.4740 -0.3803
    8MOL0     C  979   4.865  -0.977   8.374 -0.8588 -0.1345 -0.7282
    8MOL0     C  980   4.750  -0.970   8.292 -0.6223 -1.1236 -0.0783
    8MOL0     O  981   4.652  -1.058   8.304  0.1188 -0.1415 -0.4061
    8MOL0     C  982   4.589  -1.116   8.194  0.3379  0.0134  0.1127
    8MOL0     C  983   4.538  -1.259   8.210  0.0918 -0.5880 -0.5351
    8MOL0     C  984   4.503  -1.311   8.070  0.1015 -0.4315  0.4938
    8MOL0     C  985   4.427  -1.440   8.083  0.2631  0.0711 -0.4089
    8MOL0     C  986   4.382  -1.505   7.953  0.5021 -0.8028  0.7367
    8MOL0     C  987   4.504  -1.581   7.894 -0.8417  0.2051 -0.0960
    8MOL0     C  988   4.468  -1.617   7.746 -0.5397  1.3188 -0.4828
    8MOL0     C  989   4.592  -1.678   7.676 -0.4719  0.2761  0.2540
    8MOL0    Cl  990   4.570  -1.778   7.534  0.2765 -0.0144  0.0483
    8MOL0     C  991   4.730  -0.863   8.206  0.9854  0.1694 -0.8895
    8MOL0     C  992   4.825  -0.753   8.203 -0.0884  0.1725  0.4918
    8MOL0     O  993   4.950  -0.591   8.493  0.2343 -1.2677  0.5253
    8MOL0     C  994   5.156  -0.399   8.258 -0.4164 -0.4711  0.1973
    8MOL0     C  995   5.245  -0.284   8.238 -0.8675  0.2428  0.6781
    8MOL0     N  996   5.904   0.287   8.299 -0.2567  0.1564 -0.2257
    8MOL0     N  997   5.971   0.304   8.192  0.4597 -0.0118 -0.8291
    8MOL0     C  998   6.581   0.097   8.757 -0.1841 -0.1986  0.3611
    8MOL0     C  999   6.568   0.181   8.872  0.6043 -0.0435  0.8971
    8MOL0     C 1000   6.236   0.396   9.130 -0.8281 -0.4100 -0.6257
    8MOL0     C 1001   6.255   0.358   9.263 -0.4377 -0.6528 -0.2131
    8MOL0     C 1002   6.155   0.384   9.362 -0.0464 -0.2932 -0.1349
    8MOL0     C 1003   6.042   0.453   9.330  0.3000 -0.0668 -0.1362
    8MOL0     O 1004   5.960   0.487   9.438 -0.4811  0.3491  0.0575
    8MOL0     C 1005   5.941   0.631   9.461 -0.7947  0.4989  0.3658
    8MOL0     C 1006   5.793   0.656   9.478 -1.0121 -0.2033 -0.5519
    8MOL0     C 1007   5.764   0.813   9.468  1.0130  0.7783 -0.6155
    8MOL0     C 1008   5.739   0.877   9.609  0.6908  0.3217 -0.0922
    8MOL0     C 1009   5.645   0.993   9.594  0.0765 -0.2357 -0.5036
    8MOL0     C 1010   5.575   1.095   9.592 -0.5483 -0.3033 -1.2217
    8MOL0     C 1011   6.023   0.497   9.199  0.0150  0.1028 -0.5537
    8MOL0     C 1012   6.113   0.458   9.095  0.3221 -0.1256 -0.3122
    8MOL0     H 1013   6.271   0.067   8.988  1.0500 -0.9905  0.2251
    8MOL0     H 1014   6.274  -0.056   8.794 -1.6823  0.1729  5.0115
    8MOL0     H 1015   6.596   0.007   8.468  1.6200 -1.7963 -2.5161
    8MOL0     H 1016   6.665  -0.100   8.588  1.8118 -2.3889 -2.5823
    8MOL0     H 1017   6.653  -0.202   8.371 -1.1062 -0.8564 -0.3171
    8MOL0     H 1018   6.519  -0.277   8.455 -2.9820 -0.1811 -2.3151
    8MOL0     H 1019   6.384  -0.207   8.280 -2.2565  1.5410  0.8064
    8MOL0     H 1020   6.389  -0.057   8.375  3.2529  4.3545 -0.5318
    8MOL0     H 1021   6.511   0.071   8.232 -2.1715 -0.3818  0.8566
    8MOL0     H 1022   6.592  -0.073   8.172  1.7011  3.0265  1.7131
    8MOL0     H 1023   6.452  -0.014   8.001 -0.7547  0.8700 -0.3483
    8MOL0     H 1024   6.352  -0.143   8.076  1.2994 -0.0621 -0.7269
    8MOL0     H 1025   6.224   0.021   8.212  1.7088 -1.1793  0.6640
    8MOL0     H 1026   6.313   0.148   8.127  0.9344 -0.2869  0.7075
    8MOL0     H 1027   6.220   0.023   7.905  3.9432 -0.3368  0.6908
    8MOL0     H 1028   6.119  -0.056   8.017  0.9417 -0.6507 -0.7555
    8MOL0     H 1029   5.991   0.140   7.937 -1.6350 -1.2558  1.5690
    8MOL0     H 1030   6.131   0.239   7.994  0.3376  0.3540 -0.6115
    8MOL0     H 1031   5.926  -0.018   8.180  1.3337 -0.4756  0.9039
    8MOL0     H 1032   5.797   0.009   8.450  3.0506  1.5618  4.5896
    8MOL0     H 1033   5.774   0.173   8.493  0.6317  1.1376 -1.4681
    8MOL0     H 1034   5.604   0.184   8.300 -0.2045  1.5126  1.7836
    8MOL0     H 1035   5.553   0.086   8.434 -2.5879 -0.3398 -2.1558
    8MOL0     H 1036   5.648  -0.127   8.299  1.4898 -0.9125 -3.2489
    8MOL0     H 1037   5.664  -0.013   8.169  0.2357  0.3282  0.5546
    8MOL0     H 1038   5.460  -0.136   8.153 -0.2147 -3.5584  3.1178
    8MOL0     H 1039   5.418   0.038   8.203 -0.9577 -0.1534 -0.1732
    8MOL0     H 1040   5.307  -0.198   8.550 -2.5625  1.1708  0.8272
    8MOL0     H 1041   5.186  -0.468   8.691  0.5896  0.9476  0.0842
    8MOL0     H 1042   5.156  -0.293   8.700 -0.0924 -0.6668  0.2927
    8MOL0     H 1043   5.024  -0.412   8.662  0.9566 -2.3248  2.6763
    8MOL0     H 1044   5.057  -0.871   8.413  2.2280 -2.9423 -2.5109
    8MOL0     H 1045   4.874  -1.061   8.442 -3.1889 -0.9466 -1.3222
    8MOL0     H 1046   4.496  -1.060   8.180 -0.7330 -1.2436  1.7935
    8MOL0     H 1047   4.661  -1.125   8.112  0.6720  1.1108  0.2731
    8MOL0     H 1048   4.615  -1.317   8.262  2.4104  1.9720 -0.8920
    8MOL0     H 1049   4.450  -1.243   8.272  0.1291 -1.9246 -0.0931
    8MOL0     H 1050   4.596  -1.332   8.016 -2.0634  1.2230 -4.5088
    8MOL0     H 1051   4.426  -1.243   8.031  0.2190 -1.3805 -1.5143
    8MOL0     H 1052   4.483  -1.505   8.151 -2.5858 -0.8873  1.1706
    8MOL0     H 1053   4.332  -1.426   8.136 -0.9969 -1.4309 -2.1372
    8MOL0     H 1054   4.355  -1.430   7.878 -1.3316 -1.4648  0.6895
    8MOL0     H 1055   4.289  -1.561   7.958  0.0487 -0.1897 -0.3426
    8MOL0     H 1056   4.593  -1.518   7.897  0.0793 -1.0510  0.0484
    8MOL0     H 1057   4.532  -1.668   7.955  0.9430  1.2931  0.7230
    8MOL0     H 1058   4.426  -1.532   7.692 -2.6540  0.8115  0.2844
    8MOL0     H 1059   4.389  -1.692   7.743  0.0745  0.6824 -1.0804
    8MOL0     H 1060   4.643  -1.743   7.747  0.2432 -0.2940 -0.7509
    8MOL0     H 1061   4.668  -1.599   7.668  0.8420 -0.9356  0.2909
    8MOL0     H 1062   4.633  -0.865   8.157  0.0382  2.1352  0.7374
    8MOL0     H 1063   4.796  -0.662   8.151 -1.9004 -2.9503 -4.7502
    8MOL0     H 1064   5.131  -0.448   8.164  0.0598  0.5636 -0.4868
    8MOL0     H 1065   5.264  -0.244   8.139 -3.4353 -0.0610  0.0027
    8MOL0     H 1066   6.664   0.098   8.687  1.4755  1.9860  2.2164
    8MOL0     H 1067   6.648   0.253   8.882  2.4287 -1.7914 -0.2796
    8MOL0     H 1068   6.344   0.305   9.296 -0.1884  0.4013  0.8794
    8MOL0     H 1069   6.167   0.341   9.461  0.9159 -3.0201 -1.3424
    8MOL0     H 1070   6.005   0.661   9.545  0.0269 -1.0632  0.3408
    8MOL0     H 1071   5.971   0.695   9.377 -0.7096 -1.1505 -0.9116
    8MOL0     H 1072   5.743   0.619   9.568 -1.4541  3.6510  1.0071
    8MOL0     H 1073   5.748   0.618   9.386 -1.1703  1.7260 -1.3326
    8MOL0     H 1074   5.671   0.817   9.411  1.3595 -3.9256 -1.9188
    8MOL0     H 1075   5.842   0.870   9.417  1.2237 -0.4703 -1.7508
    8MOL0     H 1076   5.834   0.909   9.652  0.9621 -1.9817  1.2003
    8MOL0     H 1077   5.689   0.799   9.667 -1.4979 -0.4556 -2.7900
    8MOL0     H 1078   5.517   1.184   9.581  0.6234  0.8497  1.2310
    8MOL0     H 1079   5.938   0.558   9.170  0.2109  0.0312 -1.2886
    8MOL0     H 1080   6.088   0.491   8.994  3.2948  1.8008 -0.5410
    9MOL0     O 1081   8.566   4.991   6.403  0.5358  0.0997  0.2163
    9MOL0     C 1082   8.562   4.873   6.356  0.1052  0.5277 -0.0786
    9MOL0     O 1083   8.475   4.829   6.260  0.2483  0.6542  0.4944
    9MOL0     C 1084   8.386   4.908   6.186 -0.4595  0.2466 -1.0063
    9MOL0     C 1085   8.310   4.860   6.077  0.1367  0.0482  0.2662
    9MOL0     C 1086   8.214   4.938   6.008 -0.3346 -0.3217  0.6498
    9MOL0     C 1087   8.197   5.072   6.036  0.1048  0.2733 -0.3232
    9MOL0     O 1088   8.141   5.155   5.945 -0.1462  0.2841  0.1120
    9MOL0     C 1089   8.231   5.250   5.882  1.0650  0.7783 -0.4230
    9MOL0     C 1090   8.156   5.359   5.810  0.0961 -0.2100  0.1904
    9MOL0     C 1091   8.029   5.312   5.736 -0.2766 -0.4166 -0.7090
    9MOL0     C 1092   7.951   5.437   5.708 -0.2705  0.2251  0.0054
    9MOL0     C 1093   7.826   5.395   5.622  0.0152 -0.7343 -0.3288
    9MOL0     C 1094   7.720   5.511   5.623  0.1871  0.4339  1.1295
    9MOL0     C 1095   7.587   5.454   5.586  0.6478 -0.8777  0.6968
    9MOL0     C 1096   7.494   5.577   5.546  0.0080  0.2224 -0.5856
    9MOL0     N 1097   7.368   5.532   5.487 -0.4923  0.3755 -0.1185
    9MOL0     C 1098   7.352   5.456   5.372  0.9370 -0.6932 -0.0875
    9MOL0     C 1099   7.222   5.448   5.354  0.8377 -0.2532  0.5811
    9MOL0     C 1100   7.157   5.375   5.245 -0.1032 -0.0120 -0.3616
    9MOL0     C 1101   7.055   5.458   5.157  0.2951 -0.4282  1.0623
    9MOL0     C 1102   7.017   5.367   5.039  0.5036 -0.2860 -0.2081
    9MOL0     C 1103   6.897   5.432   4.973 -0.4332  0.0467 -0.5620
    9MOL0     O 1104   6.805   5.329   4.930 -0.3124 -0.0109  0.1329
    9MOL0     C 1105   6.705   5.285   5.007 -0.4549  0.1263 -0.3473
    9MOL0     C 1106   6.613   5.207   4.947 -0.1101  0.5712 -0.0303
    9MOL0     C 1107   6.495   5.169   5.013  0.2124 -0.1671  0.2130
    9MOL0     C 1108   6.401   5.097   4.925  0.0544 -0.0916 -0.2447
    9MOL0     C 1109   6.473   5.199   5.153  0.1658 -0.7233  0.0845
    9MOL0     C 1110   6.362   5.160   5.244 -0.2978  0.8325  0.0947
    9MOL0     O 1111   6.246   5.113   5.176 -0.2949 -0.1213 -0.0589
    9MOL0     C 1112   6.130   5.118   5.250 -0.8121  0.3002  0.2495
    9MOL0     C 1113   6.027   5.202   5.212  0.5601  0.1047 -0.3102
    9MOL0     C 1114   5.910   5.210   5.284 -0.6168 -0.1099  0.1704
    9MOL0     C 1115   5.891   5.112   5.388 -0.0925 -0.7644  0.4751
    9MOL0     O 1116   5.770   5.121   5.454 -0.3696 -0.3100 -0.2894
    9MOL0     C 1117   5.779   5.187   5.582  0.0400 -0.5839 -0.2677
    9MOL0     C 1118   5.658   5.145   5.666  1.3671 -0.1082  0.3603
    9MOL0     C 1119   5.682   5.033   5.761  0.4179 -0.3180  0.7715
    9MOL0     C 1120   5.750   5.084   5.885 -0.1027  0.5745  0.1496
    9MOL0     C 1121   5.760   4.976   5.990 -0.0326  0.2993  0.0817
    9MOL0     C 1122   5.853   5.011   6.106  0.6569 -0.1094 -0.1789
    9MOL0     C 1123   6.009   4.991   6.092 -0.5765 -0.1306 -0.1391
    9MOL0     C 1124   6.078   5.030   6.226 -0.6684  0.6840  0.6433
    9MOL0    Cl 1125   6.251   4.977   6.223 -0.0285  0.1198  0.0047
    9MOL0     C 1126   5.992   5.026   5.421 -0.2878 -0.6292 -0.6079
    9MOL0     C 1127   6.110   5.027   5.353 -1.5677 -0.9144 -0.3950
    9MOL0     O 1128   6.373   5.177   5.366  0.0852 -1.2258  0.3164
    9MOL0     C 1129   6.575   5.276   5.216 -0.1855 -0.8309  0.2048
    9MOL0     C 1130   6.682   5.328   5.141  0.5145 -0.4720 -0.6960
    9MOL0     N 1131   7.151   5.508   5.460 -0.3139  0.6519  0.7838
    9MOL0     N 1132   7.244   5.559   5.532  0.1128 -0.5240  0.5185
    9MOL0     C 1133   8.260   5.124   6.150 -0.4324  0.5276  0.6229
    9MOL0     C 1134   8.346   5.044   6.225 -0.0174  1.0782  0.3565
    9MOL0     C 1135   8.655   4.776   6.405  0.3417 -0.4684 -1.3190
    9MOL0     C 1136   8.642   4.636   6.382  0.0601  0.3585 -0.4859
    9MOL0     C 1137   8.725   4.545   6.448 -0.3803 -0.7512  0.2538
    9MOL0     C 1138   8.828   4.590   6.537  0.3392 -1.0213  0.0468
    9MOL0     O 1139   8.913   4.511   6.608 -0.5204  0.9265  0.5601
    9MOL0     C 1140   8.881   4.370   6.625  0.1965  0.5499 -0.2156
    9MOL0     C 1141   8.982   4.301   6.717  1.0119 -0.7258  0.4333
    9MOL0     C 1142   8.966   4.350   6.862  0.1149 -0.0248 -0.0932
    9MOL0     C 1143   9.088   4.340   6.957  0.7941 -0.8916  0.2054
    9MOL0     C 1144   9.106   4.205   7.026  0.1967  0.5897  0.2978
    9MOL0     C 1145   9.133   4.091   7.071  0.2268  0.9160  0.4091
    9MOL0     C 1146   8.845   4.731   6.561  0.9417  0.0562  0.6942
    9MOL0     C 1147   8.757   4.821   6.496 -0.3447  0.1148 -0.3321
    9MOL0     H 1148   8.313   4.757   6.043 -2.2405  0.2311 -0.6386
    9MOL0     H 1149   8.160   4.912   5.918  0.6253  2.9012 -1.0343
    9MOL0     H 1150   8.281   5.306   5.962 -4.1202  3.2810  1.5104
    9MOL0     H 1151   8.292   5.197   5.807 -1.3368 -1.2114 -1.1142
    9MOL0     H 1152   8.150   5.445   5.876  0.2946 -0.1295  0.1067
    9MOL0     H 1153   8.215   5.401   5.728 -1.0708  1.5838  0.2333
    9MOL0     H 1154   8.061   5.258   5.647 -1.5549  0.5911 -1.8123
    9MOL0     H 1155   7.961   5.252   5.796 -1.6728 -1.2346 -3.0301
    9MOL0     H 1156   7.916   5.481   5.802  0.2478 -3.4948  2.1522
    9MOL0     H 1157   8.015   5.511   5.660  1.6900  0.4077  2.7028
    9MOL0     H 1158   7.856   5.352   5.525  1.8634 -4.3152  1.6211
    9MOL0     H 1159   7.777   5.315   5.678  2.8090 -1.8429  0.7291
    9MOL0     H 1160   7.716   5.569   5.716 -0.8025  3.2020 -0.5060
    9MOL0     H 1161   7.752   5.582   5.546 -0.2548  1.6760  2.0669
    9MOL0     H 1162   7.606   5.394   5.497 -1.3395 -0.4436 -0.0628
    9MOL0     H 1163   7.544   5.405   5.673 -0.3922 -1.5683 -0.1944
    9MOL0     H 1164   7.555   5.634   5.475  0.7216  0.6000  0.3072
    9MOL0     H 1165   7.482   5.632   5.639  1.8640 -0.3317  0.0327
    9MOL0     H 1166   7.437   5.397   5.339  0.6530 -1.6751  0.8412
    9MOL0     H 1167   7.232   5.334   5.177  2.2342 -1.1680  2.6822
    9MOL0     H 1168   7.104   5.291   5.289 -1.0967  0.4630 -0.6083
    9MOL0     H 1169   7.101   5.551   5.124 -1.4647 -0.0237 -0.4160
    9MOL0     H 1170   6.963   5.477   5.213 -0.4748  1.3433 -0.6872
    9MOL0     H 1171   7.003   5.264   5.072  1.1833 -2.2195 -5.0975
    9MOL0     H 1172   7.092   5.353   4.961  2.0346 -0.5184  1.2459
    9MOL0     H 1173   6.926   5.490   4.885 -0.0705  2.5353  1.0911
    9MOL0     H 1174   6.851   5.510   5.034  1.5190  0.6770  0.1942
    9MOL0     H 1175   6.622   5.170   4.846 -0.0502 -1.8168  0.7987
    9MOL0     H 1176   6.353   5.178   4.870 -2.0557 -2.0644 -1.4811
    9MOL0     H 1177   6.453   5.029   4.857 -1.4325 -0.5898 -0.9241
    9MOL0     H 1178   6.326   5.035   4.975  1.8329 -1.5069  0.8165
    9MOL0     H 1179   6.048   5.258   5.121  2.0305  0.8336  0.4418
    9MOL0     H 1180   5.825   5.271   5.255 -1.3343 -0.1119  2.1488
    9MOL0     H 1181   5.869   5.156   5.636  0.2578  1.6720  0.7478
    9MOL0     H 1182   5.792   5.295   5.574  1.0408 -0.6691  0.0276
    9MOL0     H 1183   5.620   5.230   5.723  0.4288  0.1750 -0.6734
    9MOL0     H 1184   5.578   5.123   5.596  0.4550  1.2140  0.9346
    9MOL0     H 1185   5.748   4.958   5.717 -1.0064 -0.5963 -0.9930
    9MOL0     H 1186   5.589   4.983   5.790  0.6797  1.4103  5.3768
    9MOL0     H 1187   5.852   5.114   5.859  1.6585 -2.5303  2.8004
    9MOL0     H 1188   5.692   5.169   5.922 -2.2610 -0.7026 -0.1012
    9MOL0     H 1189   5.784   4.880   5.945 -1.1272 -0.2751  0.6713
    9MOL0     H 1190   5.661   4.956   6.033  0.1180 -0.2085  0.1949
    9MOL0     H 1191   5.835   5.115   6.134  0.7142 -1.0751  4.2109
    9MOL0     H 1192   5.820   4.944   6.187 -0.4520  2.6679  1.8268
    9MOL0     H 1193   6.051   5.047   6.009  1.1859 -0.6361  0.3730
    9MOL0     H 1194   6.036   4.889   6.065 -0.4577  0.2664 -1.6039
    9MOL0     H 1195   6.034   4.965   6.302  0.0953 -2.1410 -1.1856
    9MOL0     H 1196   6.078   5.137   6.249  0.9439  1.0216 -0.7284
    9MOL0     H 1197   5.973   4.951   5.498 -2.3872  0.7045  0.2647
    9MOL0     H 1198   6.189   4.956   5.369  3.5540  4.1774  0.2392
    9MOL0     H 1199   6.585   5.305   5.320  2.0753 -3.6128  0.9161
    9MOL0     H 1200   6.752   5.391   5.195 -0.5702 -0.5446  0.8856
    9MOL0     H 1201   8.235   5.226   6.178 -2.6792  0.2961 -0.2950
    9MOL0     H 1202   8.376   5.090   6.318 -1.7774 -0.5448  1.8139
    9MOL0     H 1203   8.568   4.600   6.311 -0.8498 -0.8132  0.9918
    9MOL0     H 1204   8.706   4.440   6.433  1.7185 -1.6698  3.1847
    9MOL0     H 1205   8.783   4.353   6.669 -0.1403 -0.6596 -1.3934
    9MOL0     H 1206   8.857   4.318   6.532 -0.6527 -1.3684  1.0248
    9MOL0     H 1207   9.083   4.310   6.675 -0.1602 -1.5366 -2.9074
    9MOL0     H 1208   8.953   4.196   6.729  1.7145 -0.7530  2.1516
    9MOL0     H 1209   8.883   4.296   6.908  0.8350 -1.3202 -0.2746
    9MOL0     H 1210   8.929   4.453   6.865 -0.9335 -0.3995  0.2217
    9MOL0     H 1211   9.069   4.413   7.036 -1.7413 -0.7613 -0.4244
    9MOL0     H 1212   9.172   4.380   6.900  0.0751  2.8626  1.4629
    9MOL0     H 1213   9.161   3.993   7.103  0.2146  0.9517  0.5313
    9MOL0     H 1214   8.921   4.765   6.631 -0.7090  0.7002  2.2610
    9MOL0     H 1215   8.781   4.923   6.523  0.8319 -0.3378  0.4325
   10MOL0     O 1216   7.441   9.738   0.709  1.2419  0.4276  0.7047
   10MOL0     C 1217   7.451   9.841   0.774 -0.0492  0.9142  0.2764
   10MOL0     O 1218   7.339   9.915   0.820 -0.1076 -0.4217  0.0023
   10MOL0     C 1219   7.208   9.877   0.796 -1.2110  0.0438  0.1765
   10MOL0     C 1220   7.165   9.757   0.725  0.4657  0.2883 -0.6907
   10MOL0     C 1221   7.032   9.731   0.725 -0.4535  0.0990  0.1885
   10MOL0     C 1222   6.939   9.812   0.784  0.4378  0.1727  0.0704
   10MOL0     O 1223   6.804   9.791   0.764  0.0060 -0.1692  0.1576
   10MOL0     C 1224   6.737   9.744   0.882 -0.3637 -0.2084 -0.2946
   10MOL0     C 1225   6.582   9.733   0.857 -0.3916 -0.2494  0.1857
   10MOL0     C 1226   6.503   9.703   0.984  0.5883  0.1000 -1.6034
   10MOL0     C 1227   6.351   9.690   0.951 -0.2648  0.2133  0.0716
   10MOL0     C 1228   6.257   9.703   1.070 -1.1330 -0.7524 -0.3371
   10MOL0     C 1229   6.120   9.728   1.014  0.8183 -0.2841 -1.3074
   10MOL0     C 1230   6.007   9.725   1.120 -0.1344 -0.1185  0.5564
   10MOL0     C 1231   5.983   9.866   1.175 -0.3841 -0.1755 -0.2492
   10MOL0     N 1232   5.879   9.864   1.281  0.0480  0.3421 -0.2928
   10MOL0     C 1233   5.767   9.943   1.269 -0.2585 -0.2005 -0.5956
   10MOL0     C 1234   5.694   9.915   1.380 -0.0745  0.3156  0.3811
   10MOL0     C 1235   5.555   9.972   1.413 -0.3471 -0.9061  0.6626
   10MOL0     C 1236   5.566  10.119   1.464 -0.2590  0.6923  0.2184
   10MOL0     C 1237   5.426  10.157   1.515 -0.0416 -1.0477  0.5461
   10MOL0     C 1238   5.329  10.191   1.398 -0.3409 -0.1082  0.1468
   10MOL0     O 1239   5.210  10.229   1.475 -0.2418 -0.4688 -0.0270
   10MOL0     C 1240   5.085  10.241   1.425 -0.2417  0.1475 -0.3304
   10MOL0     C 1241   5.056  10.198   1.301  1.3762 -0.4785  0.1647
   10MOL0     C 1242   4.918  10.190   1.252  0.6576 -1.4194 -0.0545
   10MOL0     C 1243   4.897  10.135   1.115 -0.0305  0.5278  0.3454
   10MOL0     C 1244   4.813  10.232   1.345  0.5994  0.4383  0.1703
   10MOL0     C 1245   4.670  10.222   1.311  0.3448  0.2715 -0.3371
   10MOL0     O 1246   4.577  10.308   1.377 -0.4170  0.2017 -0.3499
   10MOL0     C 1247   4.445  10.268   1.374 -0.4378 -0.5233  0.8864
   10MOL0     C 1248   4.394  10.217   1.490 -0.2738  0.3273  0.1912
   10MOL0     C 1249   4.255  10.181   1.491 -0.4318 -0.9156 -0.1332
   10MOL0     C 1250   4.166  10.197   1.387  0.2629  0.5642 -1.0670
   10MOL0     O 1251   4.028  10.187   1.388 -0.5425  0.7603  0.0256
   10MOL0     C 1252   3.962  10.171   1.509  0.0309 -0.4296 -0.5935
   10MOL0     C 1253   3.833  10.097   1.476  1.3893  0.1144  0.2964
   10MOL0     C 1254   3.716  10.126   1.582 -0.0162  0.6231 -0.4149
   10MOL0     C 1255   3.582  10.067   1.548 -1.1633 -0.0857  0.7221
   10MOL0     C 1256   3.473  10.109   1.646 -0.6460  0.1212 -0.2063
   10MOL0     C 1257   3.475  10.004   1.765  0.5255  0.6831  0.1624
   10MOL0     C 1258   3.370  10.044   1.865  0.0586 -0.1204  0.5301
   10MOL0     C 1259   3.362   9.940   1.975  0.1207 -0.2574  0.5215
   10MOL0    Cl 1260   3.299   9.778   1.932  0.3517  0.3598  0.1977
   10MOL0     C 1261   4.230  10.237   1.268 -0.0356  0.1223  0.4690
   10MOL0     C 1262   4.369  10.279   1.258 -0.0992  0.1771 -0.0485
   10MOL0     O 1263   4.639  10.136   1.235  0.1767 -0.9997  0.1791
   10MOL0     C 1264   4.850  10.295   1.467 -1.0971 -1.0698 -0.4157
   10MOL0     C 1265   4.984  10.294   1.505  0.5583 -0.3338 -0.2873
   10MOL0     N 1266   5.762   9.818   1.452 -0.3372  0.0783 -0.6219
   10MOL0     N 1267   5.871   9.780   1.383 -0.3795  0.6399 -0.0816
   10MOL0     C 1268   6.981   9.925   0.844  0.0108 -0.1594  0.3213
   10MOL0     C 1269   7.114   9.966   0.852 -0.3606  0.3864 -0.1430
   10MOL0     C 1270   7.578   9.905   0.782 -0.6993 -0.1138 -0.0819
   10MOL0     C 1271   7.683   9.855   0.706 -0.1487  0.1137  0.0778
   10MOL0     C 1272   7.817   9.906   0.734  0.2992  0.0104  0.4048
   10MOL0     C 1273   7.845  10.011   0.825  0.0933  0.3292 -0.5790
   10MOL0     O 1274   7.971  10.058   0.835  0.0879  0.3360 -0.2590
   10MOL0     C 1275   7.994  10.192   0.787 -0.9540 -0.0537 -0.4980
   10MOL0     C 1276   8.027  10.204   0.637  0.0762  0.2339  0.1980
   10MOL0     C 1277   8.138  10.105   0.610  0.3722  0.1563 -0.1421
   10MOL0     C 1278   8.196  10.145   0.468 -0.1011 -0.7237  0.0233
   10MOL0     C 1279   8.104  10.090   0.367 -0.6031 -0.4432 -0.7411
   10MOL0     C 1280   8.024  10.044   0.289  0.0429 -0.0897 -0.0947
   10MOL0     C 1281   7.730  10.063   0.891  0.5019 -0.1619 -0.2947
   10MOL0     C 1282   7.606  10.007   0.868  0.7102 -0.6905 -0.8329
   10MOL0     H 1283   7.227   9.683   0.675  1.4964 -0.3580  1.4003
   10MOL0     H 1284   6.990   9.643   0.676  2.3382 -1.3997  0.2596
   10MOL0     H 1285   6.767   9.642   0.910 -1.1531 -0.6458 -0.9799
   10MOL0     H 1286   6.764   9.811   0.964 -1.4521 -0.9047  0.6667
   10MOL0     H 1287   6.550   9.828   0.814  0.2780 -0.6467 -1.2754
   10MOL0     H 1288   6.566   9.660   0.777 -1.8490  1.0736 -0.8002
   10MOL0     H 1289   6.532   9.611   1.037 -0.4996  0.1020 -0.9625
   10MOL0     H 1290   6.516   9.780   1.060  0.0323  0.5292 -1.9383
   10MOL0     H 1291   6.327   9.769   0.879  0.6131 -0.3977 -0.9147
   10MOL0     H 1292   6.331   9.596   0.899  0.2976  0.3135 -0.3290
   10MOL0     H 1293   6.256   9.610   1.128  0.5994  0.7602  2.3579
   10MOL0     H 1294   6.288   9.792   1.126 -1.2676 -1.2506  0.5548
   10MOL0     H 1295   6.109   9.828   0.970 -2.4459  0.8836  1.6860
   10MOL0     H 1296   6.099   9.657   0.934 -3.5956  0.9402 -1.4834
   10MOL0     H 1297   5.917   9.684   1.074  1.7696 -2.4929 -1.3501
   10MOL0     H 1298   6.039   9.658   1.201  2.5677 -2.0512 -1.9194
   10MOL0     H 1299   5.960   9.929   1.088  0.7163 -1.8044 -1.8000
   10MOL0     H 1300   6.081   9.889   1.220  0.3282 -1.5138 -1.0560
   10MOL0     H 1301   5.734  10.014   1.194 -1.5621  0.3165  0.4283
   10MOL0     H 1302   5.483   9.955   1.333 -0.0520 -2.4266  0.6833
   10MOL0     H 1303   5.524   9.900   1.491  1.6788 -0.8667  1.5783
   10MOL0     H 1304   5.600  10.188   1.386 -1.5505  0.1392 -0.8663
   10MOL0     H 1305   5.640  10.123   1.546 -1.0362 -1.3901  1.0815
   10MOL0     H 1306   5.430  10.245   1.580 -2.4473  1.5956 -2.5435
   10MOL0     H 1307   5.377  10.073   1.565 -1.6682 -0.8526 -0.6386
   10MOL0     H 1308   5.315  10.115   1.320  1.2262 -2.3221  1.9024
   10MOL0     H 1309   5.364  10.275   1.337 -2.8164 -0.5016 -2.0117
   10MOL0     H 1310   5.134  10.148   1.245  1.7741 -1.6639  1.6989
   10MOL0     H 1311   4.985  10.152   1.053  0.8053 -1.3853  0.9401
   10MOL0     H 1312   4.875  10.029   1.131  1.9570  0.0392  0.0015
   10MOL0     H 1313   4.809  10.181   1.070  1.6794  0.4127 -3.4937
   10MOL0     H 1314   4.464  10.227   1.572 -0.0212 -0.0174  0.0198
   10MOL0     H 1315   4.215  10.143   1.584 -0.3929  1.1823  0.7995
   10MOL0     H 1316   4.014  10.101   1.575 -1.5439 -1.7420 -0.6766
   10MOL0     H 1317   3.947  10.269   1.554  1.9568  0.1945 -1.2256
   10MOL0     H 1318   3.790  10.129   1.380 -4.0052 -2.0148  1.6838
   10MOL0     H 1319   3.849   9.989   1.477  2.4993  0.2581  1.5936
   10MOL0     H 1320   3.702  10.233   1.598  2.6573  0.9405  0.3426
   10MOL0     H 1321   3.745  10.091   1.682  1.7889 -2.2923 -1.8068
   10MOL0     H 1322   3.557  10.106   1.449 -1.0723 -0.7458  0.4398
   10MOL0     H 1323   3.594   9.959   1.536  0.5719  0.3477 -2.6733
   10MOL0     H 1324   3.377  10.108   1.594  0.6930  3.8860 -3.2278
   10MOL0     H 1325   3.493  10.214   1.672  0.0182 -0.6142  2.6562
   10MOL0     H 1326   3.447   9.916   1.705  3.7246 -0.2376 -0.1530
   10MOL0     H 1327   3.575   9.997   1.808  1.5901  3.5000 -1.5693
   10MOL0     H 1328   3.270  10.062   1.825  0.2594 -2.2313 -1.0870
   10MOL0     H 1329   3.411  10.132   1.915  3.8647 -1.8108  0.7505
   10MOL0     H 1330   3.301   9.980   2.057  0.5140 -0.4449  0.9128
   10MOL0     H 1331   3.460   9.918   2.019  0.0719 -0.8015  0.3703
   10MOL0     H 1332   4.173  10.260   1.179  0.8940  6.7145  1.0703
   10MOL0     H 1333   4.416  10.311   1.165 -0.7391  0.9256 -0.1300
   10MOL0     H 1334   4.778  10.349   1.527 -0.8753  1.0589 -1.9482
   10MOL0     H 1335   4.995  10.312   1.611 -0.4514 -2.2866  0.1876
   10MOL0     H 1336   6.902   9.995   0.868 -0.5631 -0.5193 -0.4887
   10MOL0     H 1337   7.150  10.063   0.883  0.7894 -0.0822  0.0440
   10MOL0     H 1338   7.668   9.767   0.644  1.0571  1.6211 -2.5651
   10MOL0     H 1339   7.894   9.861   0.672 -1.4164 -0.7694 -1.2577
   10MOL0     H 1340   7.915  10.265   0.802  0.3314  1.9373 -2.7587
   10MOL0     H 1341   8.081  10.227   0.843 -0.7455  1.8649 -1.9501
   10MOL0     H 1342   8.044  10.302   0.591 -1.9033 -1.1386 -3.9624
   10MOL0     H 1343   7.936  10.174   0.584  0.1307  0.6568 -0.1427
   10MOL0     H 1344   8.111   9.999   0.611 -0.7573  0.4334 -0.4419
   10MOL0     H 1345   8.223  10.122   0.677  1.0473 -2.7532 -0.1426
   10MOL0     H 1346   8.296  10.101   0.465  0.7601  0.8810  1.9735
   10MOL0     H 1347   8.213  10.252   0.450 -2.9200 -0.8004 -4.7494
   10MOL0     H 1348   7.949  10.018   0.217 -0.6174 -1.1213  0.9222
   10MOL0     H 1349   7.730  10.150   0.955  0.4925 -0.3192 -0.0773
   10MOL0     H 1350   7.519  10.046   0.921 -0.1459  0.8521 -3.1695
   11MOL0     O 1351  10.461   3.683   2.452 -0.1413 -0.1261  0.8120
   11MOL0     C 1352  10.427   3.751   2.550  0.0921  0.5741  1.0141
   11MOL0     O 1353  10.311   3.817   2.570 -0.0782  0.2281  0.6136
   11MOL0     C 1354  10.216   3.797   2.479 -0.8492  0.0383 -0.1818
   11MOL0     C 1355  10.111   3.714   2.521 -0.0615  0.2311 -0.2183
   11MOL0     C 1356   9.997   3.695   2.437  0.0861 -0.9028  1.3208
   11MOL0     C 1357   9.989   3.754   2.311 -0.2251  0.0534 -0.7228
   11MOL0     O 1358   9.883   3.727   2.229  0.2861  0.1267 -0.0093
   11MOL0     C 1359   9.754   3.736   2.288 -0.8178  0.2903 -0.0302
   11MOL0     C 1360   9.653   3.763   2.176 -0.8989  0.0831  0.1849
   11MOL0     C 1361   9.647   3.637   2.086 -0.2883 -0.4521  0.2307
   11MOL0     C 1362   9.544   3.648   1.968 -0.2869  0.2762 -0.9695
   11MOL0     C 1363   9.403   3.608   2.028  0.7041 -0.1716 -0.5069
   11MOL0     C 1364   9.379   3.453   2.033 -0.2642 -1.0996 -0.3082
   11MOL0     C 1365   9.239   3.434   2.100 -0.1497  0.3333 -0.4613
   11MOL0     C 1366   9.127   3.445   1.999 -0.5744 -0.4011  0.1768
   11MOL0     N 1367   8.991   3.433   2.061 -0.2517 -0.4076 -0.7755
   11MOL0     C 1368   8.942   3.325   2.133  0.0850  0.2565 -0.2412
   11MOL0     C 1369   8.807   3.349   2.141 -0.5005  0.2999 -1.3929
   11MOL0     C 1370   8.717   3.243   2.194  0.4326 -0.3900 -0.1729
   11MOL0     C 1371   8.655   3.171   2.083  0.4459  0.4984 -0.2090
   11MOL0     C 1372   8.551   3.070   2.148 -0.1824  0.6876  0.2792
   11MOL0     C 1373   8.428   3.134   2.195  0.1787 -0.7132 -0.0415
   11MOL0     O 1374   8.328   3.029   2.206 -0.4067  0.3896  0.6475
   11MOL0     C 1375   8.208   3.045   2.267 -0.4300 -0.4138  0.4091
   11MOL0     C 1376   8.163   3.165   2.322  0.2255  0.2949 -0.6071
   11MOL0     C 1377   8.043   3.169   2.400 -0.4308  0.0742  0.4882
   11MOL0     C 1378   8.005   3.301   2.458  0.1843  0.2592  0.9881
   11MOL0     C 1379   7.969   3.051   2.416  0.3211 -0.6232 -0.7210
   11MOL0     C 1380   7.829   3.049   2.473  0.0711  0.6229 -0.1834
   11MOL0     O 1381   7.775   3.163   2.529  0.0393  0.6435  0.2886
   11MOL0     C 1382   7.642   3.179   2.554  0.7329  0.7384  0.2405
   11MOL0     C 1383   7.537   3.142   2.464 -0.4005  0.4145 -0.5177
   11MOL0     C 1384   7.400   3.169   2.491  1.0102 -0.2614 -0.9652
   11MOL0     C 1385   7.361   3.223   2.620 -0.5952  0.2746 -0.0599
   11MOL0     O 1386   7.228   3.230   2.653  1.0274 -0.7918  0.0717
   11MOL0     C 1387   7.177   3.311   2.760  0.3861  0.4158  0.4847
   11MOL0     C 1388   7.033   3.357   2.721 -0.6355 -0.4300 -0.6694
   11MOL0     C 1389   6.929   3.245   2.738  0.9242 -0.4676 -0.4737
   11MOL0     C 1390   6.795   3.310   2.700 -0.2897 -0.0338 -0.6607
   11MOL0     C 1391   6.676   3.246   2.749  0.2185 -0.9111 -0.3565
   11MOL0     C 1392   6.548   3.335   2.726  0.6409 -0.3567 -0.8409
   11MOL0     C 1393   6.420   3.275   2.796  0.1194  0.9925  0.4499
   11MOL0     C 1394   6.305   3.372   2.752  0.2430  0.1839  0.6477
   11MOL0    Cl 1395   6.148   3.332   2.821 -0.0411 -0.1053 -0.4402
   11MOL0     C 1396   7.466   3.258   2.705  0.0459  1.0017 -0.1231
   11MOL0     C 1397   7.604   3.236   2.679  0.0939 -0.6089 -0.1565
   11MOL0     O 1398   7.767   2.941   2.469 -0.5155  0.8999  0.1373
   11MOL0     C 1399   8.015   2.937   2.346  0.5365  0.3177 -0.3075
   11MOL0     C 1400   8.132   2.932   2.287  0.8686 -0.1386  0.0435
   11MOL0     N 1401   8.782   3.473   2.093  0.1859  0.1854  0.9137
   11MOL0     N 1402   8.893   3.526   2.043 -0.4046 -0.2048  0.0857
   11MOL0     C 1403  10.095   3.836   2.263  0.2451  0.3513  0.4308
   11MOL0     C 1404  10.209   3.854   2.348 -0.4255  0.2705 -0.5110
   11MOL0     C 1405  10.527   3.757   2.662  1.0533 -0.3237  0.2605
   11MOL0     C 1406  10.640   3.683   2.660 -0.5354 -0.2764  0.1674
   11MOL0     C 1407  10.740   3.697   2.761 -0.1279 -0.6775  1.2280
   11MOL0     C 1408  10.719   3.778   2.868 -0.0964 -0.4073 -1.0864
   11MOL0     O 1409  10.812   3.792   2.974  0.5699  0.3771 -0.7747
   11MOL0     C 1410  10.890   3.680   3.023  0.0560 -0.1121 -0.4332
   11MOL0     C 1411  11.035   3.675   2.965 -0.4887 -0.8161 -0.5280
   11MOL0     C 1412  11.127   3.611   3.074 -0.4769 -0.2219  0.3254
   11MOL0     C 1413  11.103   3.459   3.082 -0.2519  0.6079  0.2535
   11MOL0     C 1414  11.166   3.398   3.193 -0.6686  0.3105  0.3069
   11MOL0     C 1415  11.226   3.335   3.284 -0.4698 -0.6507 -0.0436
   11MOL0     C 1416  10.599   3.848   2.879  0.5456 -0.3819  0.7007
   11MOL0     C 1417  10.504   3.836   2.773 -0.9885 -0.8950  0.4021
   11MOL0     H 1418  10.117   3.659   2.614 -1.9646 -1.2743 -0.9147
   11MOL0     H 1419   9.915   3.634   2.475 -0.6366  0.5972  2.2900
   11MOL0     H 1420   9.726   3.646   2.344 -0.1255  1.6878  2.7289
   11MOL0     H 1421   9.750   3.819   2.358  1.7622  0.4123  0.0578
   11MOL0     H 1422   9.555   3.784   2.218 -1.5439 -0.5158 -0.9736
   11MOL0     H 1423   9.692   3.846   2.115 -0.8969  2.5827  3.3085
   11MOL0     H 1424   9.745   3.644   2.038  1.6185  2.4203  4.0000
   11MOL0     H 1425   9.637   3.539   2.133  1.5760 -0.7456  0.0712
   11MOL0     H 1426   9.533   3.754   1.945 -0.8496  1.6004  4.2314
   11MOL0     H 1427   9.572   3.583   1.885  1.1808 -2.4340  1.4324
   11MOL0     H 1428   9.388   3.647   2.129  1.7239 -1.2055  0.0723
   11MOL0     H 1429   9.330   3.654   1.961 -0.7160 -0.4467  0.7914
   11MOL0     H 1430   9.388   3.400   1.938  1.6232 -1.6551  0.1309
   11MOL0     H 1431   9.465   3.415   2.090 -0.2859 -0.7001 -0.0028
   11MOL0     H 1432   9.235   3.332   2.139 -3.9738 -0.0489 -1.5017
   11MOL0     H 1433   9.228   3.508   2.180  0.0171  0.1509 -0.2693
   11MOL0     H 1434   9.145   3.363   1.928 -0.2299 -2.3054  2.3348
   11MOL0     H 1435   9.126   3.537   1.941 -0.5497 -0.6284 -0.1912
   11MOL0     H 1436   8.987   3.232   2.166 -2.0456 -1.0882 -0.8743
   11MOL0     H 1437   8.762   3.170   2.261 -0.1800  0.7501  1.5533
   11MOL0     H 1438   8.637   3.295   2.248  1.2408  0.5248  0.1616
   11MOL0     H 1439   8.729   3.120   2.021 -0.2734 -2.2780  1.0302
   11MOL0     H 1440   8.597   3.242   2.024 -1.2216 -1.3155 -0.8843
   11MOL0     H 1441   8.602   3.014   2.227  2.1727 -2.1571 -2.9328
   11MOL0     H 1442   8.528   2.991   2.076  0.4993 -0.4294  1.2460
   11MOL0     H 1443   8.398   3.218   2.132 -1.8605 -0.7371  0.8318
   11MOL0     H 1444   8.445   3.175   2.295 -0.9452 -0.9573  0.2634
   11MOL0     H 1445   8.236   3.245   2.320  0.3890  0.1474 -0.6111
   11MOL0     H 1446   8.088   3.371   2.445  1.7574 -1.9167 -2.0462
   11MOL0     H 1447   7.912   3.334   2.412  0.1318 -0.3425  0.6485
   11MOL0     H 1448   7.979   3.300   2.564 -1.8726  0.8046  0.5311
   11MOL0     H 1449   7.561   3.078   2.380  1.0560 -0.7291  0.7034
   11MOL0     H 1450   7.331   3.123   2.421  1.4955 -3.6083  0.5349
   11MOL0     H 1451   7.171   3.253   2.852 -0.0045 -0.2152  0.0626
   11MOL0     H 1452   7.232   3.405   2.770 -0.0421  0.5394  1.8109
   11MOL0     H 1453   7.009   3.445   2.780 -0.8443  0.4916 -2.0734
   11MOL0     H 1454   7.024   3.395   2.619  0.9152  2.1941  0.0965
   11MOL0     H 1455   6.933   3.211   2.842  2.1329  0.0684 -0.3293
   11MOL0     H 1456   6.958   3.161   2.676  5.5087  1.1363 -0.8864
   11MOL0     H 1457   6.798   3.409   2.746  1.9490  0.1027 -0.9946
   11MOL0     H 1458   6.792   3.339   2.594  1.2225  1.4200 -0.3592
   11MOL0     H 1459   6.687   3.218   2.854 -0.2231 -2.0279 -0.5909
   11MOL0     H 1460   6.663   3.154   2.691  2.0214 -1.7289  0.4911
   11MOL0     H 1461   6.566   3.439   2.755  1.5244 -0.8245  0.3653
   11MOL0     H 1462   6.522   3.335   2.620  0.1828  0.0050 -0.7304
   11MOL0     H 1463   6.415   3.265   2.905 -1.8967  0.1233  0.3235
   11MOL0     H 1464   6.397   3.181   2.746  0.2429  1.3116 -0.2198
   11MOL0     H 1465   6.305   3.378   2.643  3.2879  3.3917  0.6280
   11MOL0     H 1466   6.324   3.475   2.784 -0.4488  0.5019  0.0512
   11MOL0     H 1467   7.442   3.303   2.801 -0.9306  4.5179 -1.8386
   11MOL0     H 1468   7.683   3.274   2.744  0.4525  1.1285 -1.5343
   11MOL0     H 1469   7.963   2.842   2.356  1.0933  0.0493  0.1234
   11MOL0     H 1470   8.165   2.839   2.242 -1.2183 -0.8247 -0.1592
   11MOL0     H 1471  10.080   3.891   2.171  0.6461  1.6863  1.1400
   11MOL0     H 1472  10.279   3.934   2.324  0.1164  0.7199  2.2667
   11MOL0     H 1473  10.645   3.595   2.596  0.1201 -1.9786  2.4192
   11MOL0     H 1474  10.822   3.626   2.765 -1.1155 -1.8001  3.0041
   11MOL0     H 1475  10.887   3.681   3.132 -1.0966  1.0653 -0.4452
   11MOL0     H 1476  10.842   3.584   2.997  2.5004 -2.1561  2.0168
   11MOL0     H 1477  11.065   3.780   2.952 -2.4360  0.1887  2.0767
   11MOL0     H 1478  11.045   3.609   2.879 -0.9034  0.6373 -1.7366
   11MOL0     H 1479  11.110   3.653   3.173 -0.3387 -0.5721  0.4974
   11MOL0     H 1480  11.228   3.630   3.035 -1.5036  3.4811 -1.0300
   11MOL0     H 1481  11.138   3.405   2.993 -0.6594  0.9677 -0.1375
   11MOL0     H 1482  10.996   3.437   3.083 -0.2007  0.3110  2.0440
   11MOL0     H 1483  11.292   3.285   3.352 -0.6308  0.5629  1.0461
   11MOL0     H 1484  10.589   3.919   2.961  4.0066  1.3831 -0.2150
   11MOL0     H 1485  10.419   3.904   2.773 -0.6306 -0.4266 -0.1811
   12MOL0     O 1486   4.784  10.155  10.421 -0.4745  0.4002  0.3570
   12MOL0     C 1487   4.763  10.076  10.330 -0.1800  0.5183  0.9965
   12MOL0     O 1488   4.642  10.049  10.270 -0.2622  0.5453 -0.0801
   12MOL0     C 1489   4.528  10.101  10.327  0.7329 -0.2190  0.8069
   12MOL0     C 1490   4.420  10.013  10.335 -0.3748  0.2921  0.3472
   12MOL0     C 1491   4.296  10.054  10.382  0.1443  0.1493  0.0193
   12MOL0     C 1492   4.273  10.181  10.424  0.5278 -0.9569  0.3102
   12MOL0     O 1493   4.158  10.241  10.468 -0.2219  0.0219 -0.2516
   12MOL0     C 1494   4.049  10.160  10.495 -0.4970 -1.2625 -0.0740
   12MOL0     C 1495   3.916  10.236  10.493  0.2497  0.6050 -0.7065
   12MOL0     C 1496   3.799  10.143  10.494 -0.3386 -0.0882 -0.1118
   12MOL0     C 1497   3.662  10.207  10.508  0.4291  0.5013 -0.8744
   12MOL0     C 1498   3.557  10.103  10.468 -0.1214  0.4569 -0.6998
   12MOL0     C 1499   3.416  10.145  10.507 -0.0834 -0.0600  0.1852
   12MOL0     C 1500   3.324  10.027  10.494  0.0906  0.7817  0.4193
   12MOL0     C 1501   3.176  10.070  10.518 -0.7900  0.0901  0.5490
   12MOL0     N 1502   3.084   9.959  10.506  0.9292 -1.0987  0.8200
   12MOL0     C 1503   3.083   9.842  10.577 -0.1607  0.4870 -0.5469
   12MOL0     C 1504   2.975   9.775  10.532  0.2275  0.0309  0.7132
   12MOL0     C 1505   2.932   9.625  10.562 -0.1360 -1.2234 -0.2591
   12MOL0     C 1506   2.778   9.627  10.579 -0.5760 -0.8214 -0.1740
   12MOL0     C 1507   2.720   9.493  10.566 -0.6157  0.3202 -0.4859
   12MOL0     C 1508   2.572   9.483  10.528 -0.6282 -0.7093 -0.3011
   12MOL0     O 1509   2.487   9.516  10.637  0.2967  0.2178 -0.0999
   12MOL0     C 1510   2.354   9.509  10.613 -0.0895 -0.1560 -0.1299
   12MOL0     C 1511   2.277   9.489  10.721  0.4716 -0.3476 -0.8308
   12MOL0     C 1512   2.137   9.494  10.714 -0.6219 -0.4443  1.0972
   12MOL0     C 1513   2.060   9.456  10.840 -0.2379 -0.3137 -1.0981
   12MOL0     C 1514   2.081   9.529  10.591 -0.3030 -0.1394  0.5171
   12MOL0     C 1515   1.934   9.514  10.570 -0.7522 -0.9448 -0.0190
   12MOL0     O 1516   1.875   9.508  10.444 -0.7326  0.1654 -0.3544
   12MOL0     C 1517   1.738   9.516  10.432 -0.0007  0.4129 -0.2197
   12MOL0     C 1518   1.691   9.579  10.317  0.0996  0.2400  1.5390
   12MOL0     C 1519   1.559   9.598  10.290  0.1586 -0.3909 -0.3647
   12MOL0     C 1520   1.468   9.545  10.377 -0.8029 -0.5248  0.9288
   12MOL0     O 1521   1.331   9.563  10.366 -0.4196  0.4345  0.1817
   12MOL0     C 1522   1.285   9.591  10.231  0.3168  0.2916 -0.1604
   12MOL0     C 1523   1.241   9.737  10.205 -0.8614  0.0681  0.4911
   12MOL0     C 1524   1.223   9.779  10.057 -0.0399 -0.4377 -0.3887
   12MOL0     C 1525   1.137   9.697   9.962  0.7103  0.7753 -0.5920
   12MOL0     C 1526   0.986   9.716   9.989  0.3531  0.0866 -0.0850
   12MOL0     C 1527   0.936   9.674  10.130  0.0596 -0.5625  0.2555
   12MOL0     C 1528   0.781   9.655  10.125 -0.3340  0.1493 -0.3380
   12MOL0     C 1529   0.717   9.605  10.260  0.5344 -0.1242 -0.2941
   12MOL0    Cl 1530   0.741   9.430  10.267 -0.1477 -0.2985  0.4681
   12MOL0     C 1531   1.508   9.479  10.500  0.6582  0.3481  0.5485
   12MOL0     C 1532   1.644   9.455  10.524 -0.8704 -0.4349  0.1503
   12MOL0     O 1533   1.870   9.536  10.673 -0.5018 -0.1612  0.4800
   12MOL0     C 1534   2.151   9.542  10.477  0.2904 -0.3883  0.0772
   12MOL0     C 1535   2.293   9.522  10.482 -0.2366 -0.4550 -0.4395
   12MOL0     N 1536   2.916   9.836  10.430 -0.2754 -0.2534 -0.0778
   12MOL0     N 1537   2.976   9.947  10.417 -0.4933  0.0517  0.2512
   12MOL0     C 1538   4.382  10.272  10.410 -0.3654  0.6631  0.5004
   12MOL0     C 1539   4.506  10.230  10.365  0.4709 -0.8316 -0.3576
   12MOL0     C 1540   4.879   9.990  10.284  0.7698  0.3482 -0.5018
   12MOL0     C 1541   4.998   9.979  10.353 -0.6271 -0.3491  0.4689
   12MOL0     C 1542   5.108   9.919  10.297  0.2467 -0.5559 -0.1811
   12MOL0     C 1543   5.098   9.864  10.169 -0.3893  0.0244  0.7500
   12MOL0     O 1544   5.217   9.814  10.120  0.5897  0.3132  0.3831
   12MOL0     C 1545   5.218   9.761   9.985 -0.0728 -0.4205 -0.2180
   12MOL0     C 1546   5.359   9.698   9.965 -0.6055  0.4331 -0.4132
   12MOL0     C 1547   5.474   9.800   9.953  0.6721 -0.8573  0.1452
   12MOL0     C 1548   5.609   9.727   9.941  0.3732 -0.2156 -0.4489
   12MOL0     C 1549   5.655   9.659  10.062  0.2680  0.1950 -0.1621
   12MOL0     C 1550   5.708   9.600  10.152  0.2258 -0.2422 -0.2375
   12MOL0     C 1551   4.978   9.867  10.097  0.1155  0.2180  0.1559
   12MOL0     C 1552   4.871   9.932  10.156  0.6860 -0.4260  0.2036
   12MOL0     H 1553   4.426   9.910  10.301  2.3855  0.9184 -1.3523
   12MOL0     H 1554   4.213   9.983  10.384  0.1640 -0.0833 -2.7414
   12MOL0     H 1555   4.038  10.089  10.412 -3.9508  0.4651 -1.3250
   12MOL0     H 1556   4.066  10.122  10.596  0.9784  0.6088  0.4325
   12MOL0     H 1557   3.911  10.296  10.584  2.3575 -0.4107  0.1489
   12MOL0     H 1558   3.913  10.300  10.404 -0.6341  2.4845  0.6001
   12MOL0     H 1559   3.800  10.086  10.401  0.7641 -3.0355  1.5889
   12MOL0     H 1560   3.814  10.064  10.568  0.4657 -3.4396 -3.5649
   12MOL0     H 1561   3.643  10.228  10.614 -0.3681  1.7638 -1.2383
   12MOL0     H 1562   3.646  10.299  10.451  1.2208  0.6367 -0.8987
   12MOL0     H 1563   3.560  10.069  10.364 -2.0442  0.8776 -0.9384
   12MOL0     H 1564   3.585  10.014  10.526 -0.2932  2.0130  1.9675
   12MOL0     H 1565   3.404  10.170  10.613 -0.2519 -0.3524  0.2362
   12MOL0     H 1566   3.400  10.230  10.440 -0.0782 -1.5492 -1.7641
   12MOL0     H 1567   3.337   9.965  10.405 -0.4517 -0.8396  1.4391
   12MOL0     H 1568   3.343   9.963  10.580 -4.5752 -0.3579  0.8405
   12MOL0     H 1569   3.157  10.147  10.442  0.1179 -0.7879 -0.6143
   12MOL0     H 1570   3.173  10.112  10.618  2.1249 -1.2117  1.2674
   12MOL0     H 1571   3.159   9.803  10.645 -0.2639 -2.1911 -1.8368
   12MOL0     H 1572   2.964   9.551  10.489 -0.2719  0.1468 -1.7577
   12MOL0     H 1573   2.978   9.600  10.658 -0.8264 -3.3427 -0.4246
   12MOL0     H 1574   2.722   9.694  10.513 -1.1334  0.5818  1.6364
   12MOL0     H 1575   2.768   9.672  10.679  1.0626  0.2401 -0.4558
   12MOL0     H 1576   2.740   9.443  10.661 -1.7606  0.1570 -0.3242
   12MOL0     H 1577   2.782   9.438  10.494 -0.4164 -0.8427  0.5570
   12MOL0     H 1578   2.545   9.384  10.492  1.8793 -0.1315 -4.3400
   12MOL0     H 1579   2.559   9.553  10.445 -0.4889 -0.8121 -0.4089
   12MOL0     H 1580   2.314   9.447  10.814 -0.0429 -0.7252 -0.7896
   12MOL0     H 1581   1.974   9.389  10.832 -0.4868  0.1060 -2.0236
   12MOL0     H 1582   2.127   9.401  10.907 -1.1952 -0.4016 -0.1901
   12MOL0     H 1583   2.023   9.545  10.891  1.3852 -0.4693  0.4856
   12MOL0     H 1584   1.771   9.600  10.247  0.1844 -3.1216  0.4645
   12MOL0     H 1585   1.523   9.653  10.203 -2.4735  0.8729  1.3826
   12MOL0     H 1586   1.358   9.556  10.158 -1.2687  0.3175 -1.8250
   12MOL0     H 1587   1.197   9.528  10.213 -0.4086  0.6333  1.9149
   12MOL0     H 1588   1.154   9.784  10.253 -0.3885 -1.0004  2.5115
   12MOL0     H 1589   1.312   9.806  10.253 -2.5147  0.7756  2.0541
   12MOL0     H 1590   1.325   9.775  10.017 -0.2864 -0.7135 -0.9947
   12MOL0     H 1591   1.193   9.883  10.040  0.5312 -0.6862 -3.6276
   12MOL0     H 1592   1.156   9.721   9.857  1.3469 -0.6402 -0.8290
   12MOL0     H 1593   1.163   9.592   9.977 -0.6234  0.3676 -1.0001
   12MOL0     H 1594   0.939   9.650   9.915  0.8600  1.6349 -1.8629
   12MOL0     H 1595   0.956   9.818   9.964  1.4155  0.3878 -0.1829
   12MOL0     H 1596   0.976   9.579  10.166  2.3451  0.6144  1.0439
   12MOL0     H 1597   0.953   9.754  10.203  1.3604 -1.0791  0.5349
   12MOL0     H 1598   0.760   9.580  10.048  2.0370 -2.2650  1.1994
   12MOL0     H 1599   0.741   9.753  10.100  1.3070  0.5539 -1.4948
   12MOL0     H 1600   0.610   9.623  10.245  0.6021  0.5909  0.0292
   12MOL0     H 1601   0.747   9.659  10.350  1.0587 -0.6881 -0.1295
   12MOL0     H 1602   1.426   9.448  10.564  0.3144 -1.6437 -0.7810
   12MOL0     H 1603   1.671   9.394  10.610 -1.4168  0.9485  1.3380
   12MOL0     H 1604   2.104   9.574  10.385 -0.9995 -0.9357  0.5311
   12MOL0     H 1605   2.356   9.537  10.395  2.3724 -2.0338  1.0361
   12MOL0     H 1606   4.363  10.378  10.424 -1.9171  0.4722  0.0985
   12MOL0     H 1607   4.583  10.306  10.360  1.0698 -1.2044  1.8553
   12MOL0     H 1608   5.001  10.014  10.456 -2.7797 -0.4029  0.5997
   12MOL0     H 1609   5.203   9.903  10.347 -0.0505 -2.7655 -0.2110
   12MOL0     H 1610   5.140   9.685   9.972  0.6268 -0.9859 -1.1920
   12MOL0     H 1611   5.197   9.847   9.921  1.0671 -0.3037 -0.4437
   12MOL0     H 1612   5.353   9.640   9.873  1.0259 -0.2294 -0.1347
   12MOL0     H 1613   5.374   9.619  10.040 -1.3026 -1.3688 -2.0779
   12MOL0     H 1614   5.468   9.862  10.043 -3.3912 -2.6371  1.3216
   12MOL0     H 1615   5.458   9.870   9.870  1.0903 -0.3220  0.5020
   12MOL0     H 1616   5.677   9.800   9.896  0.1424  0.3921  0.1810
   12MOL0     H 1617   5.601   9.654   9.861 -1.8638 -0.3073 -0.1928
   12MOL0     H 1618   5.749   9.554  10.239 -1.6662 -0.3279  0.6754
   12MOL0     H 1619   4.953   9.831   9.998 -0.2010 -0.7820  0.5839
   12MOL0     H 1620   4.781   9.940  10.096  0.7076  2.1446  0.3967
   13MOL0     O 1621   7.937   3.932   3.903 -0.5597 -0.0751 -0.5932
   13MOL0     C 1622   7.943   4.045   3.853 -0.8919 -0.1440  0.2735
   13MOL0     O 1623   7.857   4.101   3.757 -0.1909  0.5541  0.6064
   13MOL0     C 1624   7.758   4.023   3.721 -0.2613  0.0121  0.0530
   13MOL0     C 1625   7.747   3.984   3.590 -0.2069 -0.4048  0.2031
   13MOL0     C 1626   7.632   3.924   3.538  0.6898  0.0229 -0.0490
   13MOL0     C 1627   7.526   3.889   3.622  0.1633 -0.0820 -0.7065
   13MOL0     O 1628   7.407   3.833   3.572  0.0816  1.4301  0.3904
   13MOL0     C 1629   7.407   3.785   3.437 -0.0029 -0.3388 -0.2033
   13MOL0     C 1630   7.279   3.699   3.429 -0.4503  0.1583 -0.2997
   13MOL0     C 1631   7.289   3.570   3.507  0.4237  0.4747  0.5561
   13MOL0     C 1632   7.184   3.461   3.490  0.5329 -0.5290 -0.2943
   13MOL0     C 1633   7.032   3.520   3.502 -0.8576 -0.6752 -0.4521
   13MOL0     C 1634   6.937   3.403   3.523 -0.9861 -1.0620  0.5422
   13MOL0     C 1635   6.795   3.445   3.574  0.1683 -0.8516 -0.8120
   13MOL0     C 1636   6.732   3.578   3.515 -0.0817 -0.1920 -0.2202
   13MOL0     N 1637   6.592   3.593   3.548 -0.2040 -0.2292  0.3073
   13MOL0     C 1638   6.498   3.520   3.490 -0.1425  0.0860  0.8207
   13MOL0     C 1639   6.386   3.545   3.553 -0.0489  1.1210  0.1517
   13MOL0     C 1640   6.262   3.459   3.537 -0.5294  0.6092 -0.1453
   13MOL0     C 1641   6.193   3.470   3.401 -0.8228 -0.5468  0.6323
   13MOL0     C 1642   6.144   3.609   3.387  0.4169 -0.4758 -0.1064
   13MOL0     C 1643   6.011   3.636   3.323 -0.0216  0.0826 -0.9913
   13MOL0     O 1644   6.008   3.561   3.204 -0.1408 -0.0469 -0.8366
   13MOL0     C 1645   5.877   3.554   3.160  0.0069 -0.1471  0.4131
   13MOL0     C 1646   5.860   3.470   3.053 -0.2607 -0.8319 -0.4173
   13MOL0     C 1647   5.742   3.444   2.983  0.7863 -0.1717 -0.0226
   13MOL0     C 1648   5.743   3.354   2.869  0.2870 -0.0270  0.6639
   13MOL0     C 1649   5.621   3.497   3.035 -0.8238 -0.3716 -0.1902
   13MOL0     C 1650   5.487   3.483   2.981  0.7807 -1.0173  0.5994
   13MOL0     O 1651   5.383   3.515   3.068  0.3597 -0.2500  0.0768
   13MOL0     C 1652   5.252   3.515   3.020 -0.3698 -0.3235  0.4595
   13MOL0     C 1653   5.197   3.616   2.935  0.8239 -1.1374  0.2172
   13MOL0     C 1654   5.068   3.605   2.876  0.1020  0.7441 -0.2361
   13MOL0     C 1655   4.990   3.484   2.893 -0.4028 -0.3055 -0.2086
   13MOL0     O 1656   4.874   3.478   2.826 -0.4838 -0.3386 -0.7484
   13MOL0     C 1657   4.812   3.353   2.809 -0.8070  0.1480 -0.3003
   13MOL0     C 1658   4.690   3.362   2.730  0.3423 -0.0707  0.2348
   13MOL0     C 1659   4.716   3.434   2.590 -0.2038 -0.1732 -0.6204
   13MOL0     C 1660   4.588   3.481   2.532 -0.0646  0.5205 -0.2991
   13MOL0     C 1661   4.596   3.568   2.405  0.4985 -1.1202  0.5831
   13MOL0     C 1662   4.459   3.640   2.373  0.9422 -0.1587  0.9205
   13MOL0     C 1663   4.461   3.706   2.225 -0.6122 -0.6096 -1.2143
   13MOL0     C 1664   4.326   3.726   2.167  0.0115  0.4999  1.1441
   13MOL0    Cl 1665   4.248   3.570   2.150 -0.3281 -0.0498  0.3515
   13MOL0     C 1666   5.046   3.389   2.977 -0.0354  0.2656 -0.9191
   13MOL0     C 1667   5.170   3.406   3.046 -0.2475  0.3625 -0.4399
   13MOL0     O 1668   5.467   3.446   2.867  0.3487 -0.0196  0.5627
   13MOL0     C 1669   5.630   3.575   3.156 -0.0504  0.4529  0.4790
   13MOL0     C 1670   5.756   3.601   3.210 -1.1931 -0.4325 -0.5342
   13MOL0     N 1671   6.412   3.630   3.660 -0.1924 -0.1662  0.2320
   13MOL0     N 1672   6.538   3.655   3.657 -0.4837 -0.1712  0.5687
   13MOL0     C 1673   7.528   3.941   3.755  0.4393  0.6084  0.5097
   13MOL0     C 1674   7.646   4.001   3.806  0.2429 -0.4868  0.2869
   13MOL0     C 1675   8.042   4.142   3.910 -0.5169  0.0789 -0.3516
   13MOL0     C 1676   8.042   4.281   3.868  0.4841 -0.1670  0.6540
   13MOL0     C 1677   8.143   4.369   3.913  0.8227  0.0519 -0.0378
   13MOL0     C 1678   8.242   4.332   4.003 -0.4607 -0.4899 -0.5831
   13MOL0     O 1679   8.332   4.417   4.059 -0.1891 -0.0222  0.1140
   13MOL0     C 1680   8.311   4.561   4.026 -0.1523  0.0027  0.0555
   13MOL0     C 1681   8.416   4.650   4.097 -0.6757  0.4188  0.7971
   13MOL0     C 1682   8.412   4.641   4.246  0.0730  0.5021  0.3872
   13MOL0     C 1683   8.281   4.683   4.312 -0.0688  0.1160  0.0116
   13MOL0     C 1684   8.254   4.824   4.303  0.2923  0.5095 -0.9256
   13MOL0     C 1685   8.257   4.944   4.318 -0.6630 -0.7534 -0.8027
   13MOL0     C 1686   8.236   4.195   4.038  0.3927  0.5327  0.1687
   13MOL0     C 1687   8.137   4.101   3.998  0.0768  0.9713 -0.3132
   13MOL0     H 1688   7.836   4.013   3.535 -1.0602  2.5809  0.2333
   13MOL0     H 1689   7.637   3.921   3.429 -3.0092  0.8480 -0.3837
   13MOL0     H 1690   7.404   3.886   3.395 -1.0342 -0.2570  0.0313
   13MOL0     H 1691   7.498   3.731   3.410  1.8220  1.8492  1.1797
   13MOL0     H 1692   7.194   3.756   3.468  0.2563  0.3351  1.0535
   13MOL0     H 1693   7.252   3.677   3.326 -0.7236  2.3364 -0.7421
   13MOL0     H 1694   7.388   3.534   3.477  1.9740  2.6765  2.5552
   13MOL0     H 1695   7.297   3.597   3.613  4.5630 -1.5165  0.9669
   13MOL0     H 1696   7.194   3.405   3.397 -0.6382 -1.9992  0.4282
   13MOL0     H 1697   7.204   3.398   3.577  2.4990 -0.9558 -1.0083
   13MOL0     H 1698   7.033   3.583   3.591 -1.4001  1.1987 -1.7254
   13MOL0     H 1699   7.002   3.579   3.415 -1.9155 -1.0104 -0.3247
   13MOL0     H 1700   6.935   3.341   3.433  0.7084  1.0273 -1.0289
   13MOL0     H 1701   6.992   3.335   3.588  2.8927  2.8905  1.9328
   13MOL0     H 1702   6.725   3.369   3.538 -0.0932 -0.1525 -1.8140
   13MOL0     H 1703   6.801   3.438   3.683  1.9546  1.7910 -0.6427
   13MOL0     H 1704   6.756   3.587   3.409 -0.2755  1.5566 -0.1461
   13MOL0     H 1705   6.785   3.663   3.561  2.7605 -1.5919 -0.6795
   13MOL0     H 1706   6.518   3.447   3.412  1.0415  1.0179  0.2375
   13MOL0     H 1707   6.262   3.351   3.554 -1.9154  0.7360  0.8463
   13MOL0     H 1708   6.189   3.496   3.610 -0.2299  0.0983  0.4177
   13MOL0     H 1709   6.104   3.407   3.387 -3.1372  2.6990 -0.3466
   13MOL0     H 1710   6.256   3.446   3.315  0.4480  0.3626  1.2750
   13MOL0     H 1711   6.217   3.673   3.336  1.8393  0.2677  2.6756
   13MOL0     H 1712   6.116   3.642   3.487  0.2645  2.3755 -0.9744
   13MOL0     H 1713   5.997   3.743   3.309 -0.2173  0.2754  0.4722
   13MOL0     H 1714   5.929   3.605   3.388 -1.1668 -2.1777 -3.3353
   13MOL0     H 1715   5.945   3.417   3.012 -0.2973 -0.5387 -0.8758
   13MOL0     H 1716   5.755   3.417   2.780 -0.8382  3.9001  3.0804
   13MOL0     H 1717   5.829   3.286   2.866  2.1396  2.1123  1.8171
   13MOL0     H 1718   5.648   3.302   2.859  0.1898  0.2682 -0.0024
   13MOL0     H 1719   5.249   3.709   2.916  1.3215 -1.8490 -2.2438
   13MOL0     H 1720   5.029   3.684   2.813  0.2392  1.8254  0.9915
   13MOL0     H 1721   4.876   3.277   2.763 -1.6866  0.4068 -2.0089
   13MOL0     H 1722   4.778   3.316   2.906 -0.1491 -1.2032 -0.5566
   13MOL0     H 1723   4.638   3.268   2.710 -5.2803  2.2986  1.9746
   13MOL0     H 1724   4.616   3.426   2.778  0.8255  2.1376 -1.7755
   13MOL0     H 1725   4.769   3.370   2.520 -1.2119  2.5039 -4.1051
   13MOL0     H 1726   4.779   3.522   2.606 -1.1243  0.2228  1.1450
   13MOL0     H 1727   4.536   3.392   2.497 -0.1446  0.1746  0.6721
   13MOL0     H 1728   4.521   3.515   2.611  0.5363 -1.3085  1.0386
   13MOL0     H 1729   4.627   3.505   2.321 -1.8632 -0.6980 -0.6975
   13MOL0     H 1730   4.674   3.643   2.423 -2.2532  2.4754 -1.2010
   13MOL0     H 1731   4.372   3.576   2.394  0.6169  0.5681  1.8546
   13MOL0     H 1732   4.464   3.718   2.449 -0.4014  1.6531 -0.7623
   13MOL0     H 1733   4.522   3.642   2.161  1.9178  3.1586 -2.9935
   13MOL0     H 1734   4.507   3.806   2.224 -0.5615 -0.6068 -3.6558
   13MOL0     H 1735   4.343   3.768   2.067 -1.6259 -1.8963 -0.2691
   13MOL0     H 1736   4.253   3.787   2.221 -2.5223 -1.2082 -0.1084
   13MOL0     H 1737   4.998   3.293   2.995  1.6759 -0.7115 -1.3856
   13MOL0     H 1738   5.194   3.324   3.114 -2.3263 -0.8315 -1.0442
   13MOL0     H 1739   5.542   3.606   3.211 -1.8304  0.1704 -2.0588
   13MOL0     H 1740   5.750   3.662   3.299  1.8265  1.2509 -1.3796
   13MOL0     H 1741   7.444   3.923   3.821 -0.3435  0.0284 -0.6249
   13MOL0     H 1742   7.651   4.048   3.904 -0.8595  0.8258 -0.2481
   13MOL0     H 1743   7.961   4.313   3.803 -1.4160 -2.3618  1.7642
   13MOL0     H 1744   8.134   4.473   3.882 -0.5145 -0.0416 -0.0363
   13MOL0     H 1745   8.335   4.578   3.921  0.9274  0.6976  0.4061
   13MOL0     H 1746   8.208   4.589   4.052 -1.2257 -2.8861 -0.6614
   13MOL0     H 1747   8.395   4.753   4.068 -1.2958 -0.1267 -0.7881
   13MOL0     H 1748   8.511   4.619   4.053 -0.5370  1.8979  0.0206
   13MOL0     H 1749   8.502   4.690   4.286 -0.4142  1.6760  0.0780
   13MOL0     H 1750   8.414   4.534   4.271 -2.6369  0.3329  0.1177
   13MOL0     H 1751   8.276   4.649   4.416  0.7146  2.2142  0.7802
   13MOL0     H 1752   8.196   4.635   4.263  1.4028 -1.3437 -1.2269
   13MOL0     H 1753   8.242   5.046   4.345 -1.1588 -1.3620  1.4221
   13MOL0     H 1754   8.322   4.166   4.098  0.3441 -0.2109 -0.1106
   13MOL0     H 1755   8.139   3.995   4.022  1.4531  0.9378 -0.4752
   14MOL0     O 1756   6.263   4.187   5.457  0.1761 -0.0685  0.9561
   14MOL0     C 1757   6.184   4.276   5.414 -0.1782 -0.0038  0.1148
   14MOL0     O 1758   6.088   4.261   5.315 -0.2491  0.3030  0.0633
   14MOL0     C 1759   6.071   4.137   5.253  0.2820  0.3195 -0.3979
   14MOL0     C 1760   6.179   4.059   5.218 -0.5667 -0.8646  0.9261
   14MOL0     C 1761   6.162   3.930   5.153 -0.2561 -0.1747 -0.4590
   14MOL0     C 1762   6.032   3.873   5.143 -0.1913 -0.5338  0.5010
   14MOL0     O 1763   6.024   3.741   5.110 -0.2516  0.7522 -0.2640
   14MOL0     C 1764   5.900   3.680   5.067 -1.3729 -0.0479 -0.3267
   14MOL0     C 1765   5.946   3.545   4.996 -0.9031 -0.4795 -0.1382
   14MOL0     C 1766   5.838   3.449   4.965  0.7034  0.4481  0.4553
   14MOL0     C 1767   5.768   3.514   4.847  0.0559  0.0478 -0.5466
   14MOL0     C 1768   5.645   3.439   4.809 -0.3058 -0.3779 -0.4667
   14MOL0     C 1769   5.525   3.459   4.909  0.9418 -0.0855  0.2907
   14MOL0     C 1770   5.398   3.483   4.827  0.0036 -0.0104 -0.3078
   14MOL0     C 1771   5.277   3.511   4.929 -0.0358 -1.0274  0.4176
   14MOL0     N 1772   5.282   3.642   4.986 -0.1998  0.3400  0.3447
   14MOL0     C 1773   5.333   3.667   5.109 -0.2256  0.1109  0.1939
   14MOL0     C 1774   5.331   3.806   5.105 -0.6541  0.0360  0.0145
   14MOL0     C 1775   5.398   3.902   5.194  1.2410 -0.7657 -0.0595
   14MOL0     C 1776   5.551   3.891   5.175 -0.2376 -0.1166  0.2286
   14MOL0     C 1777   5.598   3.950   5.038  0.2994 -0.0001 -0.4118
   14MOL0     C 1778   5.609   4.101   5.049 -0.2721  0.3238 -0.8985
   14MOL0     O 1779   5.657   4.158   4.925 -0.1716 -0.1397  0.4753
   14MOL0     C 1780   5.572   4.183   4.817  0.4536 -0.9404  0.1159
   14MOL0     C 1781   5.629   4.248   4.703  0.4202 -0.7708  0.2706
   14MOL0     C 1782   5.547   4.259   4.583 -0.5539 -0.3271  0.8974
   14MOL0     C 1783   5.609   4.319   4.456  0.5441  0.6039  0.2168
   14MOL0     C 1784   5.419   4.197   4.577 -0.6631  0.6004 -0.0173
   14MOL0     C 1785   5.328   4.189   4.454 -0.4188  0.1327  0.0136
   14MOL0     O 1786   5.191   4.206   4.476  0.3712 -0.6379 -0.6357
   14MOL0     C 1787   5.123   4.239   4.361  0.4395  0.9195  0.0858
   14MOL0     C 1788   5.025   4.152   4.304  0.3789 -0.4533 -0.4880
   14MOL0     C 1789   4.952   4.184   4.188  1.1157  0.1221  0.0640
   14MOL0     C 1790   4.966   4.311   4.130 -0.3365 -0.1086  0.6670
   14MOL0     O 1791   4.875   4.350   4.030 -0.1023 -0.0820  0.5080
   14MOL0     C 1792   4.850   4.485   4.001 -0.2224 -0.8066 -0.0946
   14MOL0     C 1793   4.783   4.577   4.103 -0.4848  1.3309  0.4451
   14MOL0     C 1794   4.631   4.565   4.095 -0.7519  0.5058  0.3799
   14MOL0     C 1795   4.560   4.657   4.208 -0.6611  1.2489 -0.2211
   14MOL0     C 1796   4.565   4.580   4.343  0.1044 -0.0588  0.5038
   14MOL0     C 1797   4.454   4.629   4.437  0.2323 -0.1787  0.0815
   14MOL0     C 1798   4.428   4.524   4.545  0.6849  0.4640 -0.1382
   14MOL0     C 1799   4.296   4.565   4.628  0.4080 -0.0821 -1.2310
   14MOL0    Cl 1800   4.281   4.732   4.674 -0.1887 -0.0035 -0.2532
   14MOL0     C 1801   5.060   4.402   4.186  0.0081 -0.5626  0.6319
   14MOL0     C 1802   5.138   4.363   4.299 -0.0744 -0.8276 -0.2116
   14MOL0     O 1803   5.381   4.148   4.354 -0.3002 -0.0582  0.2326
   14MOL0     C 1804   5.371   4.139   4.698 -0.4698 -0.8498 -0.8156
   14MOL0     C 1805   5.438   4.138   4.816  0.6878  0.1974  0.1797
   14MOL0     N 1806   5.268   3.851   4.988  0.0034  0.1899  0.6089
   14MOL0     N 1807   5.243   3.748   4.914  0.1650 -0.3259  0.7869
   14MOL0     C 1808   5.926   3.950   5.180  0.3218 -0.1784 -0.4597
   14MOL0     C 1809   5.939   4.080   5.233 -0.2686  0.1995  0.2504
   14MOL0     C 1810   6.197   4.419   5.460 -0.1700 -0.4600 -0.2370
   14MOL0     C 1811   6.111   4.522   5.405 -0.5586  1.2260 -0.2979
   14MOL0     C 1812   6.109   4.651   5.445  0.0603  0.2715 -0.1915
   14MOL0     C 1813   6.203   4.690   5.547 -0.5307  1.2509 -0.1514
   14MOL0     O 1814   6.208   4.820   5.579 -0.3243 -0.1672  0.1180
   14MOL0     C 1815   6.302   4.864   5.683  0.9163  0.8158  0.2173
   14MOL0     C 1816   6.237   5.001   5.727 -0.3536 -0.9503  0.5508
   14MOL0     C 1817   6.293   5.068   5.859  0.1033 -0.1317  0.2507
   14MOL0     C 1818   6.445   5.086   5.862 -0.6773  1.0893 -0.8148
   14MOL0     C 1819   6.505   5.162   5.749 -0.4492  0.1435 -0.4685
   14MOL0     C 1820   6.561   5.211   5.656 -0.5963  0.2831  0.8994
   14MOL0     C 1821   6.291   4.587   5.592 -0.7755 -0.9005  0.3347
   14MOL0     C 1822   6.282   4.458   5.558  1.1129  0.6313 -0.7536
   14MOL0     H 1823   6.279   4.099   5.232  0.6121 -3.2131 -0.2337
   14MOL0     H 1824   6.249   3.871   5.127  0.4200  0.2651  0.7318
   14MOL0     H 1825   5.835   3.662   5.153 -1.6787  1.7288 -0.1448
   14MOL0     H 1826   5.844   3.745   4.999  1.4685  2.5384 -0.3917
   14MOL0     H 1827   6.007   3.576   4.910  0.0824 -0.3662  0.5822
   14MOL0     H 1828   6.005   3.502   5.078 -2.3838 -0.4864  0.9621
   14MOL0     H 1829   5.868   3.351   4.925 -0.2527  0.6393 -0.7986
   14MOL0     H 1830   5.773   3.433   5.051 -0.5705  2.5415 -0.0356
   14MOL0     H 1831   5.736   3.616   4.875 -2.2942 -0.7786  0.0799
   14MOL0     H 1832   5.839   3.507   4.765  1.3169  2.1495  0.2947
   14MOL0     H 1833   5.620   3.472   4.708 -0.8753 -1.3688 -0.6639
   14MOL0     H 1834   5.661   3.331   4.805 -1.0786 -0.4757 -1.2525
   14MOL0     H 1835   5.522   3.372   4.976  3.0750 -0.5103 -0.0802
   14MOL0     H 1836   5.548   3.548   4.968  0.6376  0.1654  0.0335
   14MOL0     H 1837   5.398   3.573   4.764  0.4438 -0.7835 -1.4386
   14MOL0     H 1838   5.375   3.390   4.775  2.9723 -0.1730 -1.5378
   14MOL0     H 1839   5.288   3.443   5.014 -0.1852 -0.1346  1.1623
   14MOL0     H 1840   5.179   3.490   4.887  0.0552  2.6445 -2.0908
   14MOL0     H 1841   5.369   3.598   5.184 -0.3452 -0.4661 -0.2703
   14MOL0     H 1842   5.361   4.004   5.190  0.0477 -1.1469  0.6329
   14MOL0     H 1843   5.379   3.871   5.298  2.1629  1.1888  0.7343
   14MOL0     H 1844   5.579   3.788   5.196  0.8525 -0.0025 -0.5899
   14MOL0     H 1845   5.588   3.952   5.259  0.0511 -0.0803  0.0772
   14MOL0     H 1846   5.531   3.929   4.954 -1.4205  1.2909  0.5604
   14MOL0     H 1847   5.694   3.911   5.004 -0.4323  0.2234 -2.8768
   14MOL0     H 1848   5.689   4.122   5.121  0.2384  3.0473 -2.1031
   14MOL0     H 1849   5.514   4.142   5.084  1.1410  0.7022  2.9557
   14MOL0     H 1850   5.729   4.289   4.713  0.5908 -1.1460  0.1044
   14MOL0     H 1851   5.699   4.376   4.483  0.4434  1.0359 -0.3459
   14MOL0     H 1852   5.639   4.239   4.388 -0.5216 -0.6713  1.1974
   14MOL0     H 1853   5.541   4.391   4.409  1.4588  1.4206  0.0954
   14MOL0     H 1854   4.996   4.066   4.363 -1.8746  0.2783 -0.4085
   14MOL0     H 1855   4.874   4.113   4.163  0.2985  1.0637 -0.1228
   14MOL0     H 1856   4.949   4.526   3.983 -0.5843 -0.5480 -1.6760
   14MOL0     H 1857   4.796   4.484   3.905 -0.8634 -0.2287  0.2456
   14MOL0     H 1858   4.815   4.553   4.204  1.1328  2.6868  0.3047
   14MOL0     H 1859   4.811   4.682   4.093 -1.1411  1.4073 -0.8745
   14MOL0     H 1860   4.618   4.457   4.104  1.2815  0.2405  0.5969
   14MOL0     H 1861   4.592   4.582   3.995 -0.1161 -0.0260  0.0341
   14MOL0     H 1862   4.627   4.744   4.213  0.6723  0.2188  1.4451
   14MOL0     H 1863   4.455   4.678   4.187 -1.0439  0.5488  0.8813
   14MOL0     H 1864   4.658   4.607   4.393 -0.0617  1.6753 -0.0336
   14MOL0     H 1865   4.551   4.475   4.317 -0.1478 -0.7605  3.2131
   14MOL0     H 1866   4.494   4.719   4.485 -0.9390 -0.0819  0.9134
   14MOL0     H 1867   4.365   4.658   4.381  0.5471 -0.1611 -0.4122
   14MOL0     H 1868   4.517   4.525   4.608  1.3323 -2.6319 -0.8627
   14MOL0     H 1869   4.411   4.425   4.502  0.4792 -0.5384  2.0882
   14MOL0     H 1870   4.292   4.510   4.722  0.1545  0.1755 -1.0892
   14MOL0     H 1871   4.210   4.529   4.570  0.6910 -3.1085  0.0392
   14MOL0     H 1872   5.073   4.502   4.147 -0.7064 -0.4962  0.5538
   14MOL0     H 1873   5.206   4.440   4.334  1.2864 -0.6479 -2.9468
   14MOL0     H 1874   5.274   4.091   4.702 -1.2507  0.7096 -0.0214
   14MOL0     H 1875   5.395   4.086   4.900  2.5539  1.4152  1.9884
   14MOL0     H 1876   5.830   3.900   5.182 -0.1974  0.6254 -2.7355
   14MOL0     H 1877   5.866   4.146   5.279  1.2729  0.0255  3.1842
   14MOL0     H 1878   6.064   4.499   5.310  1.4873 -1.1957 -0.8521
   14MOL0     H 1879   6.049   4.726   5.396  1.6279 -0.3914 -3.4046
   14MOL0     H 1880   6.299   4.790   5.764  2.3886 -0.5188 -0.9014
   14MOL0     H 1881   6.405   4.877   5.651  0.4456  1.4132 -1.1265
   14MOL0     H 1882   6.133   4.974   5.746 -0.8995 -0.5477 -1.5775
   14MOL0     H 1883   6.243   5.072   5.644  0.1760  0.4528  1.7357
   14MOL0     H 1884   6.268   5.001   5.942 -0.2532  1.4405  1.4605
   14MOL0     H 1885   6.241   5.165   5.859  0.5897  0.1959 -2.2754
   14MOL0     H 1886   6.498   4.991   5.862 -0.0522  1.4137 -2.4924
   14MOL0     H 1887   6.463   5.141   5.955 -2.4876  0.3417  0.0239
   14MOL0     H 1888   6.617   5.269   5.584  1.3773 -1.6587  0.7621
   14MOL0     H 1889   6.372   4.608   5.662 -0.5466  1.4928 -0.5418
   14MOL0     H 1890   6.352   4.388   5.601 -0.2532  0.4945  1.3805
   15MOL0     O 1891   5.468   4.623   2.594  0.1598  0.3268  0.0994
   15MOL0     C 1892   5.503   4.720   2.661  0.5186 -0.3579  0.6700
   15MOL0     O 1893   5.432   4.782   2.764 -0.5579 -0.4172  0.1148
   15MOL0     C 1894   5.316   4.734   2.811  0.7635  0.3069  0.6566
   15MOL0     C 1895   5.316   4.615   2.881 -0.3091 -0.5271 -0.4632
   15MOL0     C 1896   5.203   4.564   2.935 -0.1046  0.0091  0.3381
   15MOL0     C 1897   5.076   4.617   2.911 -0.1261 -0.5908 -0.6594
   15MOL0     O 1898   4.947   4.567   2.950 -0.1305  0.2744  0.0157
   15MOL0     C 1899   4.938   4.462   3.048  0.1356 -1.0267 -0.6003
   15MOL0     C 1900   4.793   4.423   3.055 -0.4737 -0.3693 -0.3594
   15MOL0     C 1901   4.780   4.299   3.135 -0.1063  0.4476 -0.1985
   15MOL0     C 1902   4.642   4.235   3.122  0.0591 -0.0947  0.1420
   15MOL0     C 1903   4.614   4.135   3.238  0.3330 -0.1204 -0.6452
   15MOL0     C 1904   4.513   4.195   3.334 -0.4684  0.5753 -0.4134
   15MOL0     C 1905   4.367   4.199   3.280 -0.5346 -0.0786  0.0086
   15MOL0     C 1906   4.278   4.301   3.355  0.8791  0.1344 -0.1878
   15MOL0     N 1907   4.133   4.280   3.312 -0.3264 -0.4063 -0.2309
   15MOL0     C 1908   4.058   4.168   3.349 -0.7293 -0.7055 -0.1462
   15MOL0     C 1909   3.944   4.184   3.281 -0.2761 -0.8418 -0.4221
   15MOL0     C 1910   3.825   4.093   3.270 -0.6567 -0.5673  0.7950
   15MOL0     C 1911   3.692   4.171   3.243  0.7988 -0.1087  0.8359
   15MOL0     C 1912   3.575   4.076   3.296 -0.3913 -0.3090  0.7625
   15MOL0     C 1913   3.440   4.072   3.214 -0.7219 -0.4771 -0.2325
   15MOL0     O 1914   3.443   3.971   3.110 -0.2238 -0.3523  0.3781
   15MOL0     C 1915   3.323   3.910   3.110 -0.4161  0.2707  0.8915
   15MOL0     C 1916   3.273   3.822   3.214  0.1316 -0.5358 -0.5184
   15MOL0     C 1917   3.151   3.766   3.214  0.1128 -0.5951 -0.5044
   15MOL0     C 1918   3.113   3.685   3.343 -0.4171 -0.6283 -0.0958
   15MOL0     C 1919   3.069   3.767   3.101  0.7536 -0.8470  0.8939
   15MOL0     C 1920   2.940   3.700   3.096 -0.7112 -0.3956  0.5111
   15MOL0     O 1921   2.839   3.732   3.181  0.5609  0.3966  0.5897
   15MOL0     C 1922   2.711   3.669   3.187 -0.0410  0.1331  0.5873
   15MOL0     C 1923   2.631   3.662   3.075  0.7780  0.1988 -0.4625
   15MOL0     C 1924   2.508   3.590   3.072 -0.2140 -0.3398  0.5569
   15MOL0     C 1925   2.454   3.545   3.193  0.7187 -0.3075 -1.0394
   15MOL0     O 1926   2.324   3.503   3.202 -0.1912  0.3763  0.5084
   15MOL0     C 1927   2.271   3.423   3.091 -0.1479  0.5509 -0.0477
   15MOL0     C 1928   2.151   3.343   3.129  0.3900  0.4241 -0.4692
   15MOL0     C 1929   2.034   3.448   3.153  0.0743 -0.1533 -0.6021
   15MOL0     C 1930   1.997   3.463   3.303 -0.0144 -0.0430 -0.0357
   15MOL0     C 1931   1.903   3.357   3.352  0.1713  0.9480 -0.1607
   15MOL0     C 1932   1.849   3.370   3.489 -0.9488  0.0893 -0.4010
   15MOL0     C 1933   1.742   3.484   3.526 -0.1374  0.4310  0.7751
   15MOL0     C 1934   1.601   3.440   3.551 -0.1984  0.2872  0.2390
   15MOL0    Cl 1935   1.543   3.320   3.421 -0.1919  0.5564 -0.0234
   15MOL0     C 1936   2.525   3.566   3.314  0.7551  0.1370  0.5393
   15MOL0     C 1937   2.659   3.613   3.306  0.2648  0.0022  0.2337
   15MOL0     O 1938   2.927   3.630   2.999  0.3984  0.4448  0.6537
   15MOL0     C 1939   3.119   3.845   2.993 -0.2314 -0.0205 -0.7047
   15MOL0     C 1940   3.241   3.918   2.995  0.4988  0.5450 -0.6305
   15MOL0     N 1941   3.946   4.312   3.218  0.2460 -0.3521 -0.5788
   15MOL0     N 1942   4.057   4.369   3.241 -0.0364 -0.3130  0.4389
   15MOL0     C 1943   5.066   4.745   2.848 -0.4695  0.0439 -0.0236
   15MOL0     C 1944   5.187   4.804   2.798  0.0845  0.0447  0.8179
   15MOL0     C 1945   5.641   4.762   2.641  0.2524  0.0781 -0.3257
   15MOL0     C 1946   5.692   4.876   2.706 -0.0679 -0.7909  0.0588
   15MOL0     C 1947   5.825   4.920   2.685  1.2195  0.4236 -0.1803
   15MOL0     C 1948   5.913   4.852   2.599 -0.1331  0.7426 -0.3834
   15MOL0     O 1949   6.036   4.887   2.553 -0.2720 -0.4854 -0.1383
   15MOL0     C 1950   6.099   4.991   2.636 -0.0525  0.9596 -0.7067
   15MOL0     C 1951   6.249   4.981   2.614  0.2459 -0.1147 -0.3143
   15MOL0     C 1952   6.303   4.839   2.641  0.1248 -0.6021  0.7711
   15MOL0     C 1953   6.447   4.833   2.577 -0.2064  0.3154 -0.2527
   15MOL0     C 1954   6.517   4.709   2.614 -0.2642 -0.7035  0.0216
   15MOL0     C 1955   6.566   4.604   2.650  0.9366  0.3658  0.3559
   15MOL0     C 1956   5.859   4.732   2.541 -0.2435 -0.7441 -1.0613
   15MOL0     C 1957   5.733   4.684   2.569  0.7025  0.0389 -0.3575
   15MOL0     H 1958   5.414   4.577   2.908 -0.2998 -0.6193 -0.6255
   15MOL0     H 1959   5.206   4.471   2.991  1.6564 -1.8604 -2.6078
   15MOL0     H 1960   4.986   4.371   3.009 -1.9162 -2.3431 -0.1994
   15MOL0     H 1961   4.977   4.489   3.146 -2.0557 -2.5036  0.7817
   15MOL0     H 1962   4.730   4.503   3.097  1.7986  1.7369 -0.7191
   15MOL0     H 1963   4.759   4.411   2.952  0.6006  1.0248 -0.9133
   15MOL0     H 1964   4.868   4.235   3.130 -1.8021 -2.4394  2.4902
   15MOL0     H 1965   4.780   4.331   3.240 -3.2179  0.3689 -0.0776
   15MOL0     H 1966   4.567   4.315   3.118  0.2470  0.0512 -0.7326
   15MOL0     H 1967   4.631   4.185   3.025 -2.7925 -1.4830  1.0614
   15MOL0     H 1968   4.576   4.043   3.192  1.7084 -0.2562 -1.5812
   15MOL0     H 1969   4.700   4.116   3.303 -0.6028 -2.0759  0.0674
   15MOL0     H 1970   4.510   4.141   3.429 -1.4189  0.9669 -0.2030
   15MOL0     H 1971   4.544   4.296   3.361  0.2897 -0.0801  1.3076
   15MOL0     H 1972   4.367   4.221   3.173  3.6445 -0.6757 -0.2571
   15MOL0     H 1973   4.329   4.098   3.301 -1.1593  0.4687  1.6852
   15MOL0     H 1974   4.314   4.398   3.318  3.6038  0.2611  2.4052
   15MOL0     H 1975   4.286   4.310   3.463 -0.9031 -3.2191  0.3550
   15MOL0     H 1976   4.084   4.079   3.406  1.6156 -0.7327 -1.1346
   15MOL0     H 1977   3.847   4.014   3.197  0.8409  0.7770 -0.2753
   15MOL0     H 1978   3.806   4.036   3.361 -2.3892 -2.1967 -0.5068
   15MOL0     H 1979   3.684   4.200   3.138 -0.6817  1.8329  1.4209
   15MOL0     H 1980   3.677   4.259   3.307  0.5464  0.8373 -0.4862
   15MOL0     H 1981   3.544   4.123   3.389 -0.9093  2.0137 -0.4972
   15MOL0     H 1982   3.613   3.976   3.320 -1.1356 -0.7785  0.0589
   15MOL0     H 1983   3.416   4.164   3.159  0.9498 -2.0248 -3.8172
   15MOL0     H 1984   3.364   4.052   3.290 -0.2075 -1.7907 -0.0499
   15MOL0     H 1985   3.339   3.804   3.299 -0.1345 -0.1154 -0.2183
   15MOL0     H 1986   3.161   3.727   3.432  0.4465  0.0629 -0.8685
   15MOL0     H 1987   3.004   3.689   3.354 -0.5058  2.1139 -1.2668
   15MOL0     H 1988   3.147   3.582   3.328 -1.5418 -1.1232  0.5796
   15MOL0     H 1989   2.653   3.722   2.987 -1.4082 -0.6462 -1.6857
   15MOL0     H 1990   2.454   3.584   2.978 -1.9803 -0.7167  1.5588
   15MOL0     H 1991   2.252   3.481   3.000  1.1603 -1.6420 -1.8320
   15MOL0     H 1992   2.347   3.349   3.062 -2.3615  0.3359 -7.0620
   15MOL0     H 1993   2.131   3.267   3.053 -2.0292 -0.8364  1.3150
   15MOL0     H 1994   2.172   3.273   3.210 -1.9853 -1.1092 -1.1021
   15MOL0     H 1995   1.950   3.398   3.102 -0.5047 -1.1087  1.1852
   15MOL0     H 1996   2.058   3.541   3.100  0.0717 -1.6162 -3.3964
   15MOL0     H 1997   2.084   3.458   3.370 -1.6029 -0.3300  2.0990
   15MOL0     H 1998   1.944   3.557   3.320 -0.0510 -0.2294  0.9142
   15MOL0     H 1999   1.955   3.261   3.342 -4.1121 -1.6122 -0.7849
   15MOL0     H 2000   1.822   3.351   3.279 -1.2262 -1.2230  1.4181
   15MOL0     H 2001   1.810   3.271   3.513 -2.9512  0.4889 -1.7138
   15MOL0     H 2002   1.929   3.394   3.559  0.6966 -0.8631 -1.8981
   15MOL0     H 2003   1.728   3.546   3.437  2.4287 -3.0706 -2.4048
   15MOL0     H 2004   1.775   3.551   3.606 -0.6087  0.1328  1.2222
   15MOL0     H 2005   1.532   3.525   3.555  0.0779  0.4771  1.2136
   15MOL0     H 2006   1.604   3.386   3.647  1.3586  2.1444  1.3135
   15MOL0     H 2007   2.478   3.533   3.406 -3.8799  1.6092 -1.0304
   15MOL0     H 2008   2.724   3.614   3.393  1.1345 -0.2031 -0.4004
   15MOL0     H 2009   3.056   3.835   2.905 -0.9709  0.2474 -0.2210
   15MOL0     H 2010   3.278   3.976   2.912  1.3771 -0.2262 -0.7971
   15MOL0     H 2011   4.969   4.793   2.839 -0.7318 -0.3310  0.6993
   15MOL0     H 2012   5.194   4.899   2.746  0.2773 -0.2867  0.2305
   15MOL0     H 2013   5.620   4.938   2.759 -3.0154 -1.1229 -3.1248
   15MOL0     H 2014   5.849   5.021   2.714  0.6642  0.3256  0.6555
   15MOL0     H 2015   6.065   5.087   2.595  0.9354  2.3228  1.4436
   15MOL0     H 2016   6.065   4.987   2.740 -0.7213  4.6714 -0.6406
   15MOL0     H 2017   6.301   5.046   2.685  1.1707 -1.1061 -0.0593
   15MOL0     H 2018   6.267   5.019   2.513 -0.9370 -1.3119 -1.0076
   15MOL0     H 2019   6.240   4.764   2.593  1.3914 -3.1388  2.8282
   15MOL0     H 2020   6.305   4.830   2.750  2.4642  0.4343  0.8833
   15MOL0     H 2021   6.517   4.911   2.609  3.5879 -2.8402 -0.1644
   15MOL0     H 2022   6.435   4.836   2.468 -0.8910  0.7847 -0.1712
   15MOL0     H 2023   6.623   4.521   2.686 -1.8065 -1.6504  0.3544
   15MOL0     H 2024   5.921   4.676   2.472  1.0398 -0.1497 -0.4405
   15MOL0     H 2025   5.699   4.597   2.513 -0.6984  1.9302 -2.6311
   16MOL0     O 2026  10.334   2.229   3.123  0.4297  0.3353  0.5543
   16MOL0     C 2027  10.376   2.283   3.024 -0.3056  0.0414  0.1532
   16MOL0     O 2028  10.311   2.379   2.952 -0.2340  0.1420  0.5218
   16MOL0     C 2029  10.177   2.405   2.971  0.2152  0.0854  0.4575
   16MOL0     C 2030  10.079   2.313   2.995  0.2565  0.4400  0.7123
   16MOL0     C 2031   9.945   2.355   3.012  0.0069 -0.0866  0.2434
   16MOL0     C 2032   9.907   2.493   2.996  0.1046 -0.0787 -0.1444
   16MOL0     O 2033   9.775   2.513   3.010 -0.6173  0.2424 -0.1569
   16MOL0     C 2034   9.730   2.626   2.932  0.4396 -0.1137  0.4044
   16MOL0     C 2035   9.590   2.654   2.977  1.1004  0.0979  0.4873
   16MOL0     C 2036   9.547   2.605   3.113 -1.1577 -0.0449  0.8517
   16MOL0     C 2037   9.419   2.689   3.152 -0.3161  0.5528 -0.0636
   16MOL0     C 2038   9.355   2.626   3.282 -0.0280  0.3525 -0.1443
   16MOL0     C 2039   9.219   2.699   3.311 -0.2370  0.1584 -0.7357
   16MOL0     C 2040   9.239   2.821   3.401 -0.3121 -0.3951  0.4815
   16MOL0     C 2041   9.109   2.896   3.427  0.2226  0.4361 -0.0221
   16MOL0     N 2042   9.132   3.009   3.517 -0.2879 -0.0274 -0.5507
   16MOL0     C 2043   9.108   3.012   3.656  0.1312 -0.5734  0.1043
   16MOL0     C 2044   9.122   3.141   3.685 -0.0296  0.5316 -0.1520
   16MOL0     C 2045   9.121   3.202   3.823  0.5984  0.6346  0.1357
   16MOL0     C 2046   9.152   3.091   3.933  0.3965  0.1349  0.3394
   16MOL0     C 2047   9.124   3.117   4.080  0.3237  0.6318  0.3717
   16MOL0     C 2048   8.992   3.189   4.100  0.5079 -0.8542  0.7412
   16MOL0     O 2049   8.884   3.135   4.023 -0.7372  0.7660  0.1194
   16MOL0     C 2050   8.760   3.123   4.091  0.3962 -1.4122  0.8931
   16MOL0     C 2051   8.674   3.031   4.033 -0.7924 -0.4612  0.2116
   16MOL0     C 2052   8.544   3.018   4.077  0.0477  0.4168 -0.1273
   16MOL0     C 2053   8.457   2.921   3.991 -0.0012  0.7075 -0.0812
   16MOL0     C 2054   8.498   3.101   4.176 -0.2548  0.1733 -0.3662
   16MOL0     C 2055   8.357   3.086   4.223 -0.1598  0.9007 -0.0128
   16MOL0     O 2056   8.255   3.034   4.141  0.1688 -0.7868  0.3129
   16MOL0     C 2057   8.117   3.036   4.174 -0.1984  0.1728 -0.1044
   16MOL0     C 2058   8.046   3.083   4.280  0.5579  0.5857 -0.4362
   16MOL0     C 2059   7.906   3.075   4.284  0.2219 -0.6228  0.0283
   16MOL0     C 2060   7.833   3.020   4.182 -0.1646 -0.9109  0.6847
   16MOL0     O 2061   7.691   3.016   4.185  0.2985  0.0427  0.0296
   16MOL0     C 2062   7.611   3.060   4.298 -0.6772 -0.1323 -0.6142
   16MOL0     C 2063   7.472   3.003   4.279 -0.0927 -0.1139  0.8572
   16MOL0     C 2064   7.464   2.859   4.221  0.7585  0.2219  0.4897
   16MOL0     C 2065   7.439   2.772   4.348  0.4325 -0.5628  1.4634
   16MOL0     C 2066   7.432   2.626   4.292 -0.2291 -0.4823 -1.2085
   16MOL0     C 2067   7.391   2.519   4.393 -0.3344 -1.7245 -1.0192
   16MOL0     C 2068   7.259   2.531   4.463  1.2712 -0.3546  0.7035
   16MOL0     C 2069   7.138   2.507   4.365 -0.1431  0.3417  0.1000
   16MOL0    Cl 2070   7.122   2.339   4.309  0.2681 -0.0375  0.6025
   16MOL0     C 2071   7.904   2.971   4.070  0.4009 -0.6943 -0.4144
   16MOL0     C 2072   8.044   2.978   4.071  1.0262  0.0124  0.5835
   16MOL0     O 2073   8.337   3.136   4.337 -0.3750  0.4655  0.0271
   16MOL0     C 2074   8.588   3.186   4.244 -0.2760  0.2136 -0.2291
   16MOL0     C 2075   8.718   3.201   4.201 -0.6376 -0.1898 -0.2769
   16MOL0     N 2076   9.149   3.220   3.572  0.0678  0.4010  0.6096
   16MOL0     N 2077   9.152   3.139   3.472 -0.8582  0.5621 -0.3302
   16MOL0     C 2078  10.003   2.579   2.949  0.2890 -0.5152 -0.5704
   16MOL0     C 2079  10.138   2.537   2.949  0.4333 -0.0304 -0.2282
   16MOL0     C 2080  10.516   2.241   2.980  0.0635 -0.3335 -0.6635
   16MOL0     C 2081  10.590   2.325   2.892 -0.2970  0.4406  0.3370
   16MOL0     C 2082  10.711   2.280   2.832 -0.1328 -0.2444  0.3545
   16MOL0     C 2083  10.758   2.158   2.868  0.4347  0.4272 -0.1263
   16MOL0     O 2084  10.872   2.099   2.828 -0.7877  0.0489  0.9659
   16MOL0     C 2085  10.946   2.167   2.725 -0.0470  0.5159  0.4458
   16MOL0     C 2086  10.893   2.127   2.586  0.2008  0.5730 -0.2283
   16MOL0     C 2087  10.992   2.185   2.476  0.1422 -0.5987 -0.2948
   16MOL0     C 2088  10.937   2.135   2.340 -0.0678  0.4220 -0.2933
   16MOL0     C 2089  10.937   2.239   2.245  0.0645 -0.4799  0.2651
   16MOL0     C 2090  10.924   2.319   2.158 -0.6818 -0.0412 -0.2571
   16MOL0     C 2091  10.691   2.076   2.962  0.1409 -0.3181  0.3499
   16MOL0     C 2092  10.571   2.118   3.017  0.7233  0.0047 -0.2526
   16MOL0     H 2093  10.092   2.209   3.022  0.4986  0.3977  0.4413
   16MOL0     H 2094   9.872   2.278   3.037 -1.1701  0.6061 -0.9137
   16MOL0     H 2095   9.786   2.719   2.948 -0.1067  0.5389 -1.2114
   16MOL0     H 2096   9.741   2.605   2.825  2.0669  1.0346  0.2994
   16MOL0     H 2097   9.552   2.757   2.970  0.2929 -0.0159  2.5918
   16MOL0     H 2098   9.514   2.609   2.912  0.5810  2.3152 -0.5446
   16MOL0     H 2099   9.517   2.501   3.118 -2.0680  0.1723  0.1540
   16MOL0     H 2100   9.632   2.623   3.180  0.6080  2.7811 -1.8386
   16MOL0     H 2101   9.457   2.788   3.178  1.6666  0.3059 -1.7358
   16MOL0     H 2102   9.347   2.685   3.071  1.6069 -2.9023 -1.8172
   16MOL0     H 2103   9.340   2.521   3.255  3.4611 -0.5486  0.9593
   16MOL0     H 2104   9.418   2.626   3.371  2.2156 -1.3666 -1.6156
   16MOL0     H 2105   9.176   2.737   3.218 -0.9836 -0.3343 -0.5957
   16MOL0     H 2106   9.137   2.639   3.351  0.3794  0.4808  1.0767
   16MOL0     H 2107   9.290   2.792   3.494 -1.8004  3.0946  2.5845
   16MOL0     H 2108   9.310   2.890   3.354 -1.1572 -0.6899 -1.2910
   16MOL0     H 2109   9.039   2.837   3.487 -0.4716  1.5593  0.3027
   16MOL0     H 2110   9.060   2.927   3.334  0.8294 -3.8644 -2.0617
   16MOL0     H 2111   9.090   2.931   3.726  1.8607 -1.9104 -0.8854
   16MOL0     H 2112   9.190   3.286   3.835  1.2674  0.1495 -0.2368
   16MOL0     H 2113   9.019   3.239   3.840 -0.1418 -2.0800  2.3883
   16MOL0     H 2114   9.258   3.064   3.934  0.8750  1.9005 -0.1986
   16MOL0     H 2115   9.103   2.996   3.909 -0.5602  0.8409 -0.5775
   16MOL0     H 2116   9.199   3.188   4.115  1.1591 -0.5405  1.0189
   16MOL0     H 2117   9.119   3.019   4.129  0.0805  0.2780 -0.3527
   16MOL0     H 2118   9.001   3.296   4.079  1.4052 -0.8824  0.9183
   16MOL0     H 2119   8.969   3.155   4.201 -0.2893 -2.9351 -0.0935
   16MOL0     H 2120   8.719   2.972   3.953  2.0488 -0.4995  1.7013
   16MOL0     H 2121   8.381   2.972   3.931  0.4043  3.3182  1.4835
   16MOL0     H 2122   8.514   2.855   3.925 -1.4242  0.1771 -0.8376
   16MOL0     H 2123   8.405   2.850   4.055  0.7468 -0.4022 -0.6802
   16MOL0     H 2124   8.108   3.128   4.357  2.6834  0.2703 -1.8448
   16MOL0     H 2125   7.841   3.112   4.363 -1.6363 -0.5654 -1.4712
   16MOL0     H 2126   7.651   3.032   4.396 -0.2457  2.9236  0.1789
   16MOL0     H 2127   7.600   3.168   4.297  0.1537 -0.0355 -0.1322
   16MOL0     H 2128   7.428   3.009   4.379 -0.4124  3.1143  0.6308
   16MOL0     H 2129   7.407   3.070   4.222 -1.9922 -3.0862 -0.6944
   16MOL0     H 2130   7.549   2.819   4.165 -1.6035 -5.9511  0.5214
   16MOL0     H 2131   7.377   2.848   4.157  0.2047 -0.8850  1.3842
   16MOL0     H 2132   7.519   2.781   4.422  1.9497  1.0274 -0.2602
   16MOL0     H 2133   7.346   2.799   4.398  0.4430  0.9046  0.7542
   16MOL0     H 2134   7.529   2.606   4.247 -0.8562  0.8113 -3.2881
   16MOL0     H 2135   7.360   2.621   4.209 -2.2905  3.6338  0.0532
   16MOL0     H 2136   7.392   2.419   4.349 -0.4632 -1.9733 -0.4635
   16MOL0     H 2137   7.472   2.516   4.466 -2.1817 -2.7287  1.1118
   16MOL0     H 2138   7.252   2.632   4.504  1.9861 -0.9248  2.3362
   16MOL0     H 2139   7.262   2.454   4.541  1.0662 -0.0850  0.9784
   16MOL0     H 2140   7.149   2.577   4.282 -2.5541  0.1155 -0.4930
   16MOL0     H 2141   7.038   2.528   4.404 -1.0107 -1.2841 -1.1182
   16MOL0     H 2142   7.856   2.932   3.981  1.3798  0.2333 -1.3844
   16MOL0     H 2143   8.092   2.956   3.976  2.4199  1.0767  1.0131
   16MOL0     H 2144   8.557   3.256   4.322  1.8079 -0.9661  1.7785
   16MOL0     H 2145   8.781   3.279   4.244 -3.4294  0.9889  2.0581
   16MOL0     H 2146   9.991   2.680   2.913  5.9082  0.8544  0.5602
   16MOL0     H 2147  10.214   2.611   2.928  1.0848 -0.9631 -1.3047
   16MOL0     H 2148  10.559   2.425   2.862  0.0016  0.5568  0.4081
   16MOL0     H 2149  10.759   2.352   2.767  1.5890 -1.1069  0.6035
   16MOL0     H 2150  10.951   2.276   2.731 -1.8241  0.5992  0.7897
   16MOL0     H 2151  11.050   2.134   2.732  0.0657  0.3132 -1.4662
   16MOL0     H 2152  10.797   2.179   2.576 -1.3528 -1.8178  1.1993
   16MOL0     H 2153  10.891   2.018   2.581  1.2924  0.5984 -2.3954
   16MOL0     H 2154  11.095   2.149   2.490  0.3382  0.2262  0.4959
   16MOL0     H 2155  10.999   2.294   2.480  0.5413 -0.6305 -0.0291
   16MOL0     H 2156  10.834   2.099   2.346  0.6432 -1.6973  0.0448
   16MOL0     H 2157  10.998   2.054   2.300 -1.1159 -0.2121 -0.6341
   16MOL0     H 2158  10.931   2.392   2.079  0.1308 -0.3440 -0.4686
   16MOL0     H 2159  10.741   1.981   2.981  2.0860  0.6746  0.3507
   16MOL0     H 2160  10.515   2.058   3.088  0.2263  0.4906 -0.2247
   17MOL0     O 2161   1.474  10.924   7.448 -0.4005 -1.7290 -0.3237
   17MOL0     C 2162   1.511  10.813   7.406 -0.1967  0.4242 -1.2076
   17MOL0     O 2163   1.433  10.707   7.373 -0.3054  0.8426  0.8223
   17MOL0     C 2164   1.300  10.720   7.339  0.5061  0.3994 -0.4209
   17MOL0     C 2165   1.227  10.844   7.317  0.6487 -0.2370 -0.2265
   17MOL0     C 2166   1.086  10.848   7.312  0.0136 -0.1370 -0.4959
   17MOL0     C 2167   1.018  10.726   7.313  0.2272  0.0051  0.4080
   17MOL0     O 2168   0.889  10.714   7.272 -0.0392  0.8753  0.8272
   17MOL0     C 2169   0.872  10.680   7.126 -0.5829 -0.3653 -0.0853
   17MOL0     C 2170   0.723  10.706   7.095  0.0485 -0.2837  0.3298
   17MOL0     C 2171   0.704  10.856   7.074 -0.3295  0.9062  0.3762
   17MOL0     C 2172   0.570  10.885   6.996  0.6374  0.4124  0.1092
   17MOL0     C 2173   0.566  11.035   6.988 -1.3052 -0.0518  0.7810
   17MOL0     C 2174   0.442  11.072   6.907 -0.1464 -0.3337  0.4155
   17MOL0     C 2175   0.421  11.221   6.916  0.5271 -0.4733 -0.0466
   17MOL0     C 2176   0.304  11.278   6.847 -0.2980 -0.3208  0.9183
   17MOL0     N 2177   0.180  11.289   6.917  0.4808 -0.1140 -0.0386
   17MOL0     C 2178   0.122  11.409   6.946  0.1300  0.9069  0.5269
   17MOL0     C 2179   0.000  11.371   7.002 -0.2842  0.7578 -0.0632
   17MOL0     C 2180  -0.109  11.464   7.044 -0.0688 -0.8092  0.4993
   17MOL0     C 2181  -0.252  11.415   7.070 -0.5424 -0.0792 -0.2325
   17MOL0     C 2182  -0.313  11.356   6.943  0.1437  0.1837  0.4916
   17MOL0     C 2183  -0.455  11.304   6.973  0.2985  1.4622 -0.2756
   17MOL0     O 2184  -0.491  11.180   6.899  0.0629  0.0464 -0.2434
   17MOL0     C 2185  -0.600  11.113   6.948  0.3130  0.0832 -0.0945
   17MOL0     C 2186  -0.616  10.990   6.890 -0.8030  0.2642 -0.5225
   17MOL0     C 2187  -0.729  10.913   6.926  0.5610  0.6179  0.2235
   17MOL0     C 2188  -0.730  10.782   6.846  0.7431 -0.6104 -1.6708
   17MOL0     C 2189  -0.827  10.953   7.022 -0.2304 -0.4267 -0.1001
   17MOL0     C 2190  -0.952  10.872   7.073 -0.6044 -0.0625 -0.5565
   17MOL0     O 2191  -1.009  10.916   7.193 -0.0933 -0.3558 -0.0251
   17MOL0     C 2192  -1.121  10.856   7.248 -0.5865 -0.9749  1.0223
   17MOL0     C 2193  -1.236  10.827   7.174  0.1593 -1.2101 -0.0297
   17MOL0     C 2194  -1.340  10.764   7.242 -0.2790 -0.7174 -0.6490
   17MOL0     C 2195  -1.337  10.734   7.382  0.4242  0.2896  0.2815
   17MOL0     O 2196  -1.443  10.670   7.432 -0.0901 -0.6604  0.2578
   17MOL0     C 2197  -1.537  10.763   7.500  0.4778 -0.0610  0.0622
   17MOL0     C 2198  -1.656  10.824   7.425 -0.3282 -0.3095  0.0141
   17MOL0     C 2199  -1.738  10.727   7.350  0.2994 -0.3200  0.1560
   17MOL0     C 2200  -1.886  10.780   7.331 -0.8297  0.0838  0.0906
   17MOL0     C 2201  -1.981  10.700   7.233 -0.3363 -0.0521 -0.5700
   17MOL0     C 2202  -1.927  10.708   7.084  0.3873 -0.7801 -0.1315
   17MOL0     C 2203  -2.002  10.620   6.985  0.2846  0.0649 -0.3620
   17MOL0     C 2204  -2.038  10.480   7.020  0.3186  0.2212  0.4204
   17MOL0    Cl 2205  -2.085  10.396   6.880 -0.1894  0.2059  0.3639
   17MOL0     C 2206  -1.221  10.775   7.456  0.1356 -0.0808  0.2046
   17MOL0     C 2207  -1.110  10.823   7.386  0.1683  0.2028  0.4385
   17MOL0     O 2208  -0.987  10.786   6.997 -0.3261 -0.5471  0.2203
   17MOL0     C 2209  -0.804  11.083   7.077  0.2636 -1.0802 -0.3991
   17MOL0     C 2210  -0.691  11.158   7.042 -0.2660 -1.1949 -0.5077
   17MOL0     N 2211   0.002  11.226   7.007  1.0542 -0.2618  0.1946
   17MOL0     N 2212   0.102  11.185   6.950 -0.0785  0.1569  0.2011
   17MOL0     C 2213   1.087  10.606   7.322  0.4884  0.2555 -0.3621
   17MOL0     C 2214   1.224  10.606   7.330 -0.8234  0.7039 -0.6240
   17MOL0     C 2215   1.648  10.779   7.411 -0.2671  0.7397 -0.3090
   17MOL0     C 2216   1.700  10.680   7.326 -0.2231 -0.2092  1.2066
   17MOL0     C 2217   1.833  10.633   7.330  0.1161  0.4387  0.2459
   17MOL0     C 2218   1.919  10.699   7.418 -0.7142  0.9055  0.0801
   17MOL0     O 2219   2.046  10.665   7.451  0.7390  0.3649 -0.0525
   17MOL0     C 2220   2.100  10.548   7.384 -0.1025  0.5616 -0.5655
   17MOL0     C 2221   2.045  10.415   7.444 -1.2265  1.1083 -0.2012
   17MOL0     C 2222   2.037  10.406   7.604 -0.0604  0.6352  0.3111
   17MOL0     C 2223   2.166  10.444   7.681  0.0975  0.3839  0.5861
   17MOL0     C 2224   2.273  10.347   7.647  0.3611  0.7076  1.3589
   17MOL0     C 2225   2.362  10.275   7.604  0.5407 -0.0026 -0.5399
   17MOL0     C 2226   1.881  10.806   7.493  1.0831  0.9045 -0.2385
   17MOL0     C 2227   1.742  10.849   7.479  0.0755 -0.1484  0.7017
   17MOL0     H 2228   1.275  10.942   7.316 -0.5943  0.7306  5.0236
   17MOL0     H 2229   1.028  10.940   7.315 -2.1578 -1.4808  1.9197
   17MOL0     H 2230   0.940  10.737   7.062  0.5454 -1.3596  0.1861
   17MOL0     H 2231   0.888  10.574   7.101  1.6188 -0.5664  1.7871
   17MOL0     H 2232   0.701  10.649   7.004  1.7019 -3.3678  1.6974
   17MOL0     H 2233   0.661  10.670   7.177  1.4890  0.3117  1.7290
   17MOL0     H 2234   0.705  10.898   7.175 -0.5435 -2.4960  1.9193
   17MOL0     H 2235   0.788  10.887   7.011 -2.6153  1.0030 -2.8787
   17MOL0     H 2236   0.565  10.838   6.897 -0.7385  1.8907 -0.5606
   17MOL0     H 2237   0.484  10.848   7.052 -0.5280 -3.1480 -3.5269
   17MOL0     H 2238   0.560  11.078   7.088  0.5474 -1.4764  1.5491
   17MOL0     H 2239   0.651  11.069   6.927 -0.9632 -0.3718  1.0786
   17MOL0     H 2240   0.456  11.038   6.804 -1.8690 -2.2108  0.7477
   17MOL0     H 2241   0.354  11.023   6.950 -0.0417  0.4867  1.6209
   17MOL0     H 2242   0.417  11.248   7.022  1.1549 -0.1722 -0.0961
   17MOL0     H 2243   0.510  11.268   6.873 -0.0097  0.7222  0.1235
   17MOL0     H 2244   0.289  11.223   6.754 -1.1412  1.8187 -0.2957
   17MOL0     H 2245   0.321  11.379   6.809  1.5590 -0.2997  1.7217
   17MOL0     H 2246   0.164  11.507   6.928  1.3755 -0.2066 -3.7700
   17MOL0     H 2247  -0.079  11.520   7.132  1.4004  1.9820 -1.6036
   17MOL0     H 2248  -0.116  11.542   6.967 -0.7181 -0.5944  0.7642
   17MOL0     H 2249  -0.314  11.496   7.108  0.8603  1.3405 -0.8555
   17MOL0     H 2250  -0.239  11.330   7.138 -1.7495  0.3750  0.6014
   17MOL0     H 2251  -0.252  11.272   6.907  1.3940  1.9122 -1.6935
   17MOL0     H 2252  -0.314  11.424   6.858  0.8525 -0.0865  0.2545
   17MOL0     H 2253  -0.524  11.385   6.948  0.2604  1.6196  0.3232
   17MOL0     H 2254  -0.474  11.292   7.080  1.2983 -0.9396 -0.3163
   17MOL0     H 2255  -0.547  10.954   6.814 -0.9184  2.2537 -1.6402
   17MOL0     H 2256  -0.702  10.703   6.916 -1.5774 -0.2737 -0.2549
   17MOL0     H 2257  -0.829  10.760   6.804 -2.0798  0.9928  3.3459
   17MOL0     H 2258  -0.657  10.786   6.765 -0.1740 -0.0085 -2.4951
   17MOL0     H 2259  -1.239  10.855   7.069  0.7878  0.0851  0.2819
   17MOL0     H 2260  -1.428  10.758   7.179  0.5408 -1.0215 -1.7872
   17MOL0     H 2261  -1.577  10.707   7.585  2.0301 -1.0861  0.1385
   17MOL0     H 2262  -1.475  10.840   7.546  0.3497 -1.4071  2.6790
   17MOL0     H 2263  -1.716  10.870   7.504  0.9791 -0.0742  0.9142
   17MOL0     H 2264  -1.622  10.906   7.360 -2.0435 -1.9058 -3.1288
   17MOL0     H 2265  -1.745  10.631   7.402  3.2082 -0.0450  1.2863
   17MOL0     H 2266  -1.698  10.713   7.249 -3.2923 -0.6435 -1.3548
   17MOL0     H 2267  -1.931  10.768   7.429  0.4645  1.7109  0.9398
   17MOL0     H 2268  -1.894  10.887   7.310 -0.7229  0.2920  1.0652
   17MOL0     H 2269  -2.088  10.724   7.239 -1.2330 -3.2153 -1.6769
   17MOL0     H 2270  -1.982  10.597   7.269 -3.0797 -0.3069 -1.0884
   17MOL0     H 2271  -1.930  10.813   7.051 -0.3550 -0.8881 -0.4264
   17MOL0     H 2272  -1.820  10.685   7.082  1.0917  1.8621  1.5554
   17MOL0     H 2273  -1.928  10.625   6.904  0.0383 -0.4605 -0.6226
   17MOL0     H 2274  -2.094  10.668   6.951  0.2895  0.4937  0.2147
   17MOL0     H 2275  -2.121  10.481   7.091  0.5336 -0.3517  0.6852
   17MOL0     H 2276  -1.955  10.426   7.067  0.8341  1.0813  0.5339
   17MOL0     H 2277  -1.234  10.755   7.562  1.4543 -2.7676 -0.0733
   17MOL0     H 2278  -1.023  10.846   7.446  1.5330 -2.1377 -0.5191
   17MOL0     H 2279  -0.878  11.127   7.143  1.0464  0.5132 -0.5330
   17MOL0     H 2280  -0.681  11.260   7.078  0.4546 -1.8253  1.1988
   17MOL0     H 2281   1.036  10.510   7.319  0.0871  0.4514  0.1377
   17MOL0     H 2282   1.271  10.509   7.346 -0.5463  0.9462  0.0815
   17MOL0     H 2283   1.633  10.643   7.249 -1.4535  1.1212  1.6041
   17MOL0     H 2284   1.872  10.562   7.259 -1.1133  1.1391 -1.1775
   17MOL0     H 2285   2.081  10.543   7.277 -3.0890  0.8100 -0.1354
   17MOL0     H 2286   2.208  10.553   7.401  0.1778 -2.9260 -0.6991
   17MOL0     H 2287   2.107  10.333   7.404  0.7139  2.0542  0.7612
   17MOL0     H 2288   1.942  10.400   7.410 -1.7006 -2.9385  2.2721
   17MOL0     H 2289   1.999  10.308   7.636  0.2238  0.6466  0.7014
   17MOL0     H 2290   1.953  10.469   7.636 -1.5721 -0.6102 -1.0317
   17MOL0     H 2291   2.140  10.448   7.787 -0.2666  1.3550  0.4687
   17MOL0     H 2292   2.194  10.542   7.642  1.2887  1.2831  3.4656
   17MOL0     H 2293   2.438  10.211   7.564  1.6624  0.3454  0.9245
   17MOL0     H 2294   1.953  10.861   7.553  3.0462  0.5675 -2.1308
   17MOL0     H 2295   1.721  10.942   7.532  2.0640  0.3682  0.6519
   18MOL0     O 2296   5.403   9.431   5.837  0.0876  0.0121  0.1704
   18MOL0     C 2297   5.421   9.472   5.950 -0.0509  0.2196  0.2909
   18MOL0     O 2298   5.357   9.575   6.009 -0.0143  0.1169  0.8514
   18MOL0     C 2299   5.244   9.633   5.967  0.5706 -0.7840  0.2399
   18MOL0     C 2300   5.203   9.749   6.035  0.1780 -0.1678  0.2009
   18MOL0     C 2301   5.089   9.825   5.991  0.0272 -0.3923 -0.6410
   18MOL0     C 2302   5.005   9.774   5.889  1.1472  0.5917 -0.4742
   18MOL0     O 2303   4.892   9.839   5.859  0.4114 -0.1915  0.6026
   18MOL0     C 2304   4.817   9.822   5.735  0.0075  0.1569 -0.0794
   18MOL0     C 2305   4.683   9.889   5.742  0.4370 -0.4537 -0.3061
   18MOL0     C 2306   4.584   9.845   5.644 -0.2439 -0.0065  0.2225
   18MOL0     C 2307   4.631   9.903   5.508  0.0659  0.6049 -0.2118
   18MOL0     C 2308   4.522   9.894   5.407 -0.4170  0.4168  0.2717
   18MOL0     C 2309   4.471   9.752   5.383  0.4576  0.0211  0.6856
   18MOL0     C 2310   4.434   9.718   5.236 -0.0314 -0.7720  0.0880
   18MOL0     C 2311   4.392   9.569   5.218 -0.2022  0.2435  0.0015
   18MOL0     N 2312   4.504   9.495   5.160  0.4406  0.6088  0.1602
   18MOL0     C 2313   4.637   9.500   5.196 -0.0130 -0.2278 -0.1635
   18MOL0     C 2314   4.700   9.401   5.125  0.0059  1.2288  0.2301
   18MOL0     C 2315   4.845   9.357   5.150  0.4507 -0.5085  0.0933
   18MOL0     C 2316   4.871   9.300   5.284  0.1952  0.0467 -0.5265
   18MOL0     C 2317   4.791   9.169   5.304 -0.0380 -0.8398  0.1645
   18MOL0     C 2318   4.804   9.129   5.452 -0.0174 -0.5164 -0.2638
   18MOL0     O 2319   4.760   9.240   5.539  0.2603  0.3036 -0.1140
   18MOL0     C 2320   4.630   9.281   5.551  0.7078  0.1518 -0.5076
   18MOL0     C 2321   4.516   9.223   5.484 -0.0905 -0.2015 -1.1429
   18MOL0     C 2322   4.389   9.276   5.508  0.1489 -0.1639 -0.6595
   18MOL0     C 2323   4.289   9.202   5.421 -0.1724  0.0009 -0.5432
   18MOL0     C 2324   4.367   9.384   5.592 -0.6451 -0.5717 -0.7615
   18MOL0     C 2325   4.235   9.448   5.610  0.3421  0.0845  0.2599
   18MOL0     O 2326   4.232   9.582   5.646 -0.7258  0.7960  0.0818
   18MOL0     C 2327   4.106   9.626   5.688  0.3466  0.6470  1.0338
   18MOL0     C 2328   4.009   9.680   5.606 -0.5824 -0.5891 -0.7004
   18MOL0     C 2329   3.888   9.715   5.672  0.6237  0.7521 -0.6505
   18MOL0     C 2330   3.868   9.700   5.810  0.2318  0.8152 -0.3623
   18MOL0     O 2331   3.753   9.744   5.871 -0.2944  0.1473 -0.0277
   18MOL0     C 2332   3.713   9.686   5.988  0.6576  0.5640  0.0293
   18MOL0     C 2333   3.572   9.723   6.014 -0.5270 -0.0362  0.3261
   18MOL0     C 2334   3.495   9.646   5.919 -0.0560  0.7815 -0.0648
   18MOL0     C 2335   3.350   9.683   5.942  0.6783 -0.2047 -0.5534
   18MOL0     C 2336   3.252   9.639   5.823  0.4851 -1.0399  0.0111
   18MOL0     C 2337   3.110   9.683   5.862  0.2023 -1.0001  0.6597
   18MOL0     C 2338   3.017   9.621   5.763  0.5920  0.5007  0.4269
   18MOL0     C 2339   2.873   9.670   5.783 -0.5210 -0.1501 -0.0905
   18MOL0    Cl 2340   2.763   9.621   5.641 -0.4686 -0.6856 -0.0066
   18MOL0     C 2341   3.962   9.632   5.887 -0.1298 -0.1871  0.2645
   18MOL0     C 2342   4.084   9.608   5.824 -0.0873  0.8723 -0.4042
   18MOL0     O 2343   4.135   9.378   5.593  0.4098 -0.0109  0.1074
   18MOL0     C 2344   4.477   9.446   5.651 -0.9966  0.0596  0.2538
   18MOL0     C 2345   4.609   9.396   5.628  0.1086  1.4864 -0.7156
   18MOL0     N 2346   4.604   9.346   5.040  0.0124  0.6497  0.4663
   18MOL0     N 2347   4.486   9.399   5.062  0.1321 -0.0100 -0.7558
   18MOL0     C 2348   5.022   9.640   5.850 -0.8537 -0.4035  0.1314
   18MOL0     C 2349   5.142   9.573   5.884  0.5914 -0.1022 -0.2858
   18MOL0     C 2350   5.523   9.413   6.039 -0.1752  0.8159  0.4580
   18MOL0     C 2351   5.579   9.291   6.009  0.2140 -0.9764 -0.4825
   18MOL0     C 2352   5.694   9.249   6.076 -0.3475 -0.1471 -0.2958
   18MOL0     C 2353   5.744   9.313   6.185  0.2684 -0.3674  0.0822
   18MOL0     O 2354   5.838   9.252   6.254 -0.4955  0.6275  1.1430
   18MOL0     C 2355   5.965   9.319   6.266  1.2263 -0.1857 -0.4721
   18MOL0     C 2356   6.036   9.329   6.131 -0.2585 -0.4408  0.0426
   18MOL0     C 2357   6.192   9.354   6.160  0.4891 -0.3957  0.4086
   18MOL0     C 2358   6.278   9.379   6.033  0.1816 -0.1263  0.3372
   18MOL0     C 2359   6.423   9.391   6.065 -0.0554  0.2582 -0.1394
   18MOL0     C 2360   6.537   9.406   6.096  0.6888 -0.2337 -1.3491
   18MOL0     C 2361   5.684   9.436   6.218  0.4008  0.3940 -0.4472
   18MOL0     C 2362   5.580   9.488   6.145  0.0196  0.2794 -0.0884
   18MOL0     H 2363   5.261   9.784   6.120 -1.2736  1.2248  0.6696
   18MOL0     H 2364   5.064   9.911   6.051 -0.3790 -0.7724 -0.2542
   18MOL0     H 2365   4.883   9.848   5.651  3.4655 -1.1089  2.0299
   18MOL0     H 2366   4.797   9.715   5.720  1.1246  0.3029 -3.3208
   18MOL0     H 2367   4.639   9.867   5.840  1.6057 -0.2998  0.2769
   18MOL0     H 2368   4.693   9.998   5.738  0.9541 -0.4719  0.2597
   18MOL0     H 2369   4.585   9.736   5.649  0.7357  0.0001  0.3796
   18MOL0     H 2370   4.492   9.894   5.679  1.2064 -0.4297  5.3335
   18MOL0     H 2371   4.646  10.011   5.517  0.0301  0.8142 -2.3102
   18MOL0     H 2372   4.721   9.853   5.473  0.5971  1.1496  0.3570
   18MOL0     H 2373   4.438   9.951   5.449 -3.7789 -2.0795 -2.4354
   18MOL0     H 2374   4.546   9.938   5.310  0.1489 -1.1196 -0.3173
   18MOL0     H 2375   4.551   9.683   5.412  0.6701 -0.7040 -1.4755
   18MOL0     H 2376   4.380   9.731   5.440 -0.1613  0.5244 -0.1074
   18MOL0     H 2377   4.349   9.783   5.212  0.5194 -0.1031 -0.1011
   18MOL0     H 2378   4.523   9.744   5.177  0.1551 -0.1283  0.6359
   18MOL0     H 2379   4.303   9.548   5.158 -0.4083 -3.2780  1.2668
   18MOL0     H 2380   4.369   9.524   5.315 -2.1790  0.3823 -0.3719
   18MOL0     H 2381   4.673   9.556   5.282 -1.0669 -0.2853  0.3316
   18MOL0     H 2382   4.868   9.292   5.065 -1.3331 -0.9765 -0.0689
   18MOL0     H 2383   4.913   9.441   5.165 -0.0204 -0.6733  4.0976
   18MOL0     H 2384   4.836   9.375   5.355  0.1814 -1.2463  0.8941
   18MOL0     H 2385   4.979   9.283   5.290  0.2983 -1.3842 -4.0123
   18MOL0     H 2386   4.835   9.091   5.242  0.6620 -0.8229  0.6271
   18MOL0     H 2387   4.686   9.178   5.274 -0.0965 -3.0068 -0.4882
   18MOL0     H 2388   4.906   9.096   5.471  0.0483 -0.0191  0.2948
   18MOL0     H 2389   4.742   9.040   5.470 -1.1898  0.4838  0.9773
   18MOL0     H 2390   4.532   9.127   5.437  2.9076 -1.5846  2.2095
   18MOL0     H 2391   4.208   9.265   5.382 -0.1468  0.2450 -0.2106
   18MOL0     H 2392   4.344   9.165   5.335  0.6441 -0.3680  0.1204
   18MOL0     H 2393   4.244   9.122   5.481  0.5620 -0.4295 -0.5628
   18MOL0     H 2394   4.031   9.707   5.503  1.6820  2.4437  0.4380
   18MOL0     H 2395   3.808   9.755   5.610  1.1229  1.2030 -1.0060
   18MOL0     H 2396   3.725   9.578   5.974  0.8005  0.7920 -2.0402
   18MOL0     H 2397   3.769   9.723   6.074 -0.6912  1.2977  0.6277
   18MOL0     H 2398   3.549   9.708   6.120  1.9075 -0.9035  0.7825
   18MOL0     H 2399   3.554   9.830   6.003  0.4283 -0.1009 -3.0326
   18MOL0     H 2400   3.510   9.538   5.923  0.9180  0.9400  1.2671
   18MOL0     H 2401   3.519   9.681   5.819  0.5873 -0.5617 -0.4054
   18MOL0     H 2402   3.314   9.633   6.033 -1.1816  1.9162 -0.0400
   18MOL0     H 2403   3.345   9.792   5.950  2.2379  0.0239 -2.1480
   18MOL0     H 2404   3.265   9.532   5.804  0.1071 -1.1664  0.4623
   18MOL0     H 2405   3.279   9.684   5.727  0.0096 -2.5803 -0.8788
   18MOL0     H 2406   3.081   9.650   5.962 -2.4458 -0.2810  0.1900
   18MOL0     H 2407   3.105   9.792   5.861 -1.1552 -1.0492 -0.0142
   18MOL0     H 2408   3.014   9.513   5.774  3.0696  0.1366 -1.8022
   18MOL0     H 2409   3.049   9.643   5.661 -0.8881  2.0000  0.2320
   18MOL0     H 2410   2.884   9.779   5.789  3.1439 -0.2953 -1.3638
   18MOL0     H 2411   2.841   9.623   5.876  0.2130 -1.6442 -0.5513
   18MOL0     H 2412   3.961   9.609   5.993  1.8369 -0.2756  0.3041
   18MOL0     H 2413   4.165   9.575   5.888 -0.8332  1.3078  0.8009
   18MOL0     H 2414   4.466   9.546   5.694 -0.2686  0.2707 -0.0314
   18MOL0     H 2415   4.692   9.452   5.669  0.9677 -1.8444  2.6879
   18MOL0     H 2416   4.955   9.583   5.786  0.7047 -2.3998  0.1825
   18MOL0     H 2417   5.177   9.481   5.839 -0.7696  0.2679 -2.1812
   18MOL0     H 2418   5.538   9.242   5.921  1.2875  0.6040 -1.9204
   18MOL0     H 2419   5.752   9.159   6.058  1.0506 -0.2067  3.6275
   18MOL0     H 2420   5.937   9.411   6.317  1.2981 -0.2320 -0.3497
   18MOL0     H 2421   6.033   9.255   6.323  2.8623  0.6210 -1.4346
   18MOL0     H 2422   5.996   9.421   6.086  0.5841  0.3163  0.7855
   18MOL0     H 2423   6.023   9.238   6.071 -2.0970  0.0704 -0.4017
   18MOL0     H 2424   6.230   9.264   6.209 -0.3211  0.8010  3.4423
   18MOL0     H 2425   6.200   9.435   6.233  2.8207 -0.5593  0.4117
   18MOL0     H 2426   6.238   9.465   5.978 -0.6516 -0.4787  0.3643
   18MOL0     H 2427   6.265   9.284   5.980 -3.5895 -0.2785  1.2350
   18MOL0     H 2428   6.638   9.430   6.123  0.8601 -1.8556 -0.4358
   18MOL0     H 2429   5.726   9.501   6.295 -0.0753  1.4640 -1.0792
   18MOL0     H 2430   5.532   9.582   6.169 -1.2273 -0.3893  0.0772
   19MOL0     O 2431  10.204   7.920   1.220  0.2911 -0.2992  0.7975
   19MOL0     C 2432  10.266   7.851   1.139  0.6198 -0.1864 -0.3433
   19MOL0     O 2433  10.233   7.730   1.078 -0.0431 -0.3971  0.4552
   19MOL0     C 2434  10.128   7.656   1.112 -0.1169 -0.1429 -0.1304
   19MOL0     C 2435   9.999   7.712   1.113  0.3089 -1.0548 -0.9090
   19MOL0     C 2436   9.890   7.635   1.151  0.7157  0.6595  0.4018
   19MOL0     C 2437   9.899   7.502   1.188 -0.6580  0.2188  1.1948
   19MOL0     O 2438   9.809   7.422   1.243 -0.0198  0.1482  0.0916
   19MOL0     C 2439   9.695   7.489   1.297  0.0240  0.1373  0.4029
   19MOL0     C 2440   9.588   7.382   1.338 -0.3799 -0.0772  0.0057
   19MOL0     C 2441   9.465   7.443   1.399 -0.8365  0.0012  0.3888
   19MOL0     C 2442   9.374   7.494   1.283 -0.4517 -0.0610 -0.0728
   19MOL0     C 2443   9.237   7.496   1.343 -0.3055 -0.8317 -0.2853
   19MOL0     C 2444   9.122   7.551   1.265 -0.3431 -0.6422  0.2008
   19MOL0     C 2445   9.134   7.706   1.246  0.0667 -0.4981  0.1066
   19MOL0     C 2446   9.010   7.766   1.173 -0.3705 -0.1688  0.3078
   19MOL0     N 2447   8.995   7.710   1.034 -0.0523  0.0639  0.4576
   19MOL0     C 2448   9.085   7.723   0.932 -0.3786 -0.2449  0.1893
   19MOL0     C 2449   9.029   7.659   0.826 -0.4550 -1.3573  0.1401
   19MOL0     C 2450   9.080   7.660   0.683  0.2212 -1.1988 -0.2464
   19MOL0     C 2451   9.113   7.805   0.631 -0.5416  1.3864  0.6625
   19MOL0     C 2452   9.011   7.918   0.640 -0.0260 -0.6562 -0.1889
   19MOL0     C 2453   8.891   7.895   0.552  0.6169 -0.0047 -1.0631
   19MOL0     O 2454   8.795   8.004   0.571 -0.6139 -0.1214  0.3393
   19MOL0     C 2455   8.668   7.979   0.513 -0.6296  0.2610  0.0968
   19MOL0     C 2456   8.649   7.913   0.390 -0.4911  0.0948  0.2738
   19MOL0     C 2457   8.528   7.906   0.329  0.0017 -0.0494 -0.3030
   19MOL0     C 2458   8.536   7.847   0.193 -0.0892 -0.5418 -0.5666
   19MOL0     C 2459   8.414   7.952   0.395 -0.9463 -0.2137  0.4248
   19MOL0     C 2460   8.277   7.952   0.336 -0.3654 -0.3757 -0.0585
   19MOL0     O 2461   8.259   7.879   0.223  0.0781  0.0478 -0.1620
   19MOL0     C 2462   8.134   7.840   0.176  0.6430 -0.1464 -1.2089
   19MOL0     C 2463   8.125   7.819   0.040  0.0361 -1.4286 -0.5654
   19MOL0     C 2464   8.003   7.798  -0.027 -0.1026  0.1388 -0.0369
   19MOL0     C 2465   7.887   7.782   0.048 -0.1598  0.3241  0.6813
   19MOL0     O 2466   7.778   7.771  -0.032 -0.5943 -0.7523 -0.7784
   19MOL0     C 2467   7.648   7.733   0.017  0.1868 -0.0059  0.0415
   19MOL0     C 2468   7.572   7.675  -0.104  0.9570  0.0138  0.1692
   19MOL0     C 2469   7.443   7.597  -0.053  0.1979 -0.5545  0.4124
   19MOL0     C 2470   7.475   7.450  -0.013  0.4696 -0.5523 -0.4716
   19MOL0     C 2471   7.482   7.362  -0.132 -0.4524 -0.5461 -0.6815
   19MOL0     C 2472   7.510   7.213  -0.109 -0.3949  0.6642 -0.3484
   19MOL0     C 2473   7.511   7.146  -0.246 -0.7457  0.5079  0.6209
   19MOL0     C 2474   7.575   7.004  -0.230 -0.0907 -0.7124 -0.8442
   19MOL0    Cl 2475   7.485   6.918  -0.108  0.5061  0.1996 -0.2251
   19MOL0     C 2476   7.898   7.789   0.186  0.2666  0.1854 -0.7312
   19MOL0     C 2477   8.018   7.822   0.258 -0.1857 -0.1449  0.2069
   19MOL0     O 2478   8.183   8.006   0.401 -0.3359  1.1708 -0.4106
   19MOL0     C 2479   8.431   8.006   0.524  0.2155  0.0390  0.4343
   19MOL0     C 2480   8.552   8.019   0.577  0.6930  0.7628  0.6271
   19MOL0     N 2481   8.904   7.608   0.876 -0.9585 -0.1301  0.2985
   19MOL0     N 2482   8.895   7.630   0.996 -0.0774  0.5489  0.3759
   19MOL0     C 2483  10.026   7.448   1.182  0.2190  0.3090 -0.2781
   19MOL0     C 2484  10.141   7.522   1.148 -0.5945  0.7370  0.2676
   19MOL0     C 2485  10.406   7.896   1.117  0.9213  0.1337  0.7186
   19MOL0     C 2486  10.454   8.020   1.161  0.5704 -0.8659  0.3468
   19MOL0     C 2487  10.594   8.043   1.167 -0.1002 -1.1200  0.2607
   19MOL0     C 2488  10.680   7.949   1.109 -0.3019  0.4221  0.6576
   19MOL0     O 2489  10.804   7.999   1.106 -0.2191  0.2474 -0.0127
   19MOL0     C 2490  10.908   7.920   1.050  0.2183  0.3753  0.0002
   19MOL0     C 2491  11.044   7.992   1.086 -0.6743  0.7894  0.9237
   19MOL0     C 2492  11.162   7.936   0.998  0.5066 -0.7074  0.0950
   19MOL0     C 2493  11.294   8.030   1.015  0.6212 -0.2550  0.0689
   19MOL0     C 2494  11.413   7.947   1.018  0.8334  1.4647 -0.0602
   19MOL0     C 2495  11.510   7.874   1.011  0.0865  0.0484  0.5651
   19MOL0     C 2496  10.631   7.833   1.034  0.4389 -0.4293 -0.3994
   19MOL0     C 2497  10.493   7.807   1.045 -0.2799  0.5731  0.0285
   19MOL0     H 2498   9.986   7.810   1.069  2.8440  0.5996  1.7057
   19MOL0     H 2499   9.803   7.700   1.164  1.5899  2.2424 -1.1611
   19MOL0     H 2500   9.722   7.544   1.388 -2.2349  0.0149  1.2268
   19MOL0     H 2501   9.645   7.564   1.235 -0.7423  0.5454  1.4699
   19MOL0     H 2502   9.557   7.313   1.259 -2.3068  0.7438 -0.0047
   19MOL0     H 2503   9.637   7.318   1.413  1.3462 -0.4163 -1.3503
   19MOL0     H 2504   9.422   7.360   1.455 -0.8921  0.9210  1.7480
   19MOL0     H 2505   9.480   7.525   1.471 -1.2949 -1.0833  1.7617
   19MOL0     H 2506   9.407   7.587   1.235 -0.9584  0.5826  0.7958
   19MOL0     H 2507   9.367   7.419   1.204 -0.4714 -0.8195  0.6295
   19MOL0     H 2508   9.213   7.393   1.370 -0.0746 -0.1109  3.0324
   19MOL0     H 2509   9.255   7.547   1.438  1.5468 -0.8844 -0.5708
   19MOL0     H 2510   9.098   7.512   1.166 -0.9646  0.0965  0.0487
   19MOL0     H 2511   9.037   7.526   1.330  2.7657  0.4011  5.2243
   19MOL0     H 2512   9.139   7.746   1.347 -0.3956  0.0297 -0.0748
   19MOL0     H 2513   9.225   7.725   1.188 -1.9310 -1.8934 -3.8676
   19MOL0     H 2514   9.025   7.873   1.160 -0.2307 -0.3591 -1.4463
   19MOL0     H 2515   8.913   7.743   1.218 -2.1595 -0.4798 -3.3000
   19MOL0     H 2516   9.174   7.784   0.931  0.1107 -0.9458 -0.4206
   19MOL0     H 2517   9.174   7.605   0.696 -0.1898 -1.5818  1.4840
   19MOL0     H 2518   9.024   7.596   0.614  0.8170 -1.0420 -0.8870
   19MOL0     H 2519   9.159   7.790   0.533 -0.8894 -1.5090  0.8469
   19MOL0     H 2520   9.191   7.851   0.692 -0.0601  2.6718 -0.8497
   19MOL0     H 2521   9.058   8.013   0.612  0.3244 -0.7710  0.0030
   19MOL0     H 2522   8.969   7.923   0.741  0.3187  0.9433 -0.0944
   19MOL0     H 2523   8.843   7.807   0.594  2.1383  0.5257  2.0446
   19MOL0     H 2524   8.927   7.887   0.449  2.5880  0.4409 -0.4506
   19MOL0     H 2525   8.732   7.868   0.336 -0.5830  0.1516  0.0832
   19MOL0     H 2526   8.509   7.741   0.204  0.8912 -0.6217  1.7405
   19MOL0     H 2527   8.467   7.899   0.127  0.6174 -0.8172 -1.5451
   19MOL0     H 2528   8.637   7.844   0.151 -0.4835 -1.7532 -1.4693
   19MOL0     H 2529   8.222   7.821  -0.009  0.2731 -1.6481 -0.1137
   19MOL0     H 2530   8.007   7.791  -0.135  2.5555  1.1520 -0.0972
   19MOL0     H 2531   7.660   7.667   0.103  1.3779  3.9150  3.2176
   19MOL0     H 2532   7.602   7.823   0.060  3.0730  1.2364  0.7751
   19MOL0     H 2533   7.540   7.764  -0.158  0.3457  0.3847  1.1195
   19MOL0     H 2534   7.641   7.613  -0.162 -0.3907 -0.7733 -0.6391
   19MOL0     H 2535   7.364   7.597  -0.129 -0.2399  2.2781  0.7315
   19MOL0     H 2536   7.401   7.650   0.033  0.2757  0.1248  0.0444
   19MOL0     H 2537   7.565   7.439   0.049  0.9911  0.2142 -1.0664
   19MOL0     H 2538   7.389   7.409   0.040 -1.1530  1.3744 -1.4643
   19MOL0     H 2539   7.563   7.402  -0.194  1.1726 -0.5773  1.3212
   19MOL0     H 2540   7.392   7.378  -0.192 -0.1032  2.9092 -0.4754
   19MOL0     H 2541   7.607   7.213  -0.060 -0.8754  4.4319  0.9232
   19MOL0     H 2542   7.443   7.157  -0.042  1.4305 -0.3645  0.6898
   19MOL0     H 2543   7.587   7.197  -0.306  0.8215 -3.2738 -0.9429
   19MOL0     H 2544   7.413   7.139  -0.293  0.8220 -1.0943 -2.8203
   19MOL0     H 2545   7.680   7.006  -0.201 -0.3880 -1.8463  0.4070
   19MOL0     H 2546   7.572   6.952  -0.327  0.1631 -1.5359 -0.4222
   19MOL0     H 2547   7.799   7.786   0.231  1.0528 -0.9321  0.9976
   19MOL0     H 2548   8.017   7.829   0.366  0.6967  0.7001  0.1836
   19MOL0     H 2549   8.347   8.034   0.587  0.4328  1.9629 -0.0837
   19MOL0     H 2550   8.564   8.067   0.673 -1.1761 -1.2438  1.9675
   19MOL0     H 2551  10.030   7.345   1.218  1.0012  0.2912 -0.3838
   19MOL0     H 2552  10.236   7.470   1.137 -2.5391 -2.6691 -2.0589
   19MOL0     H 2553  10.379   8.093   1.186 -0.2038 -0.0092 -3.7901
   19MOL0     H 2554  10.627   8.136   1.212 -0.8384 -0.1066 -1.2014
   19MOL0     H 2555  10.912   7.827   1.108 -1.5293 -0.5504 -1.2462
   19MOL0     H 2556  10.893   7.897   0.944  1.1670 -2.3501  0.3715
   19MOL0     H 2557  11.060   7.977   1.193 -0.8094 -0.1531  0.8207
   19MOL0     H 2558  11.025   8.099   1.072 -1.4844  0.8521  2.4089
   19MOL0     H 2559  11.125   7.937   0.895  1.8793  0.6882 -0.4199
   19MOL0     H 2560  11.187   7.834   1.029  4.9905  0.7256  1.9533
   19MOL0     H 2561  11.288   8.089   1.107  3.8643  0.4762 -0.0633
   19MOL0     H 2562  11.290   8.092   0.926  0.7850 -2.6390 -1.7165
   19MOL0     H 2563  11.589   7.808   0.982 -1.3954 -1.1363 -1.0300
   19MOL0     H 2564  10.699   7.769   0.978 -0.4945 -0.9965 -0.8971
   19MOL0     H 2565  10.451   7.717   1.001  0.9582 -1.7239  3.2060
   20MOL0     O 2566   2.718   5.287   7.777  0.2182  0.1426  0.2066
   20MOL0     C 2567   2.768   5.306   7.667 -0.4151  0.2488  0.2461
   20MOL0     O 2568   2.700   5.350   7.559 -0.4284 -1.1128  0.1285
   20MOL0     C 2569   2.560   5.365   7.572  0.0138 -0.1359 -0.0972
   20MOL0     C 2570   2.486   5.246   7.587 -0.1749  0.2429 -0.3125
   20MOL0     C 2571   2.349   5.241   7.573  0.0598 -0.3836 -0.0551
   20MOL0     C 2572   2.283   5.364   7.543  0.4429  0.0386 -0.0029
   20MOL0     O 2573   2.151   5.361   7.505  1.1887  0.9955 -0.6292
   20MOL0     C 2574   2.070   5.241   7.543  0.2384 -0.2229  0.0532
   20MOL0     C 2575   1.926   5.256   7.499  0.0667  0.2787  0.5790
   20MOL0     C 2576   1.844   5.140   7.552 -0.8500  0.7609  0.0954
   20MOL0     C 2577   1.892   4.999   7.494 -0.4052 -0.0219  0.2320
   20MOL0     C 2578   1.802   4.885   7.531  0.2351 -0.1061  0.1779
   20MOL0     C 2579   1.647   4.889   7.490 -0.6907 -0.2472 -0.4128
   20MOL0     C 2580   1.577   4.797   7.588  0.9543  1.1062 -0.4142
   20MOL0     C 2581   1.444   4.771   7.524 -0.3836 -0.4035  0.2137
   20MOL0     N 2582   1.337   4.738   7.614  0.1945 -0.5302 -0.0342
   20MOL0     C 2583   1.226   4.669   7.571 -0.6287  1.5950  0.5229
   20MOL0     C 2584   1.131   4.682   7.666 -0.4050 -0.9030  0.2591
   20MOL0     C 2585   0.994   4.624   7.681  0.3811  0.7999  0.5767
   20MOL0     C 2586   0.997   4.465   7.675 -0.5092 -0.1258 -0.8304
   20MOL0     C 2587   0.859   4.404   7.679 -0.4399  1.0289  0.7756
   20MOL0     C 2588   0.856   4.247   7.701  0.0957  0.5468 -0.2582
   20MOL0     O 2589   0.879   4.160   7.583 -1.0186 -0.6822  0.2092
   20MOL0     C 2590   0.779   4.125   7.492 -0.6002  0.9128  0.3660
   20MOL0     C 2591   0.783   3.999   7.446  0.2750 -0.0087  0.7133
   20MOL0     C 2592   0.683   3.943   7.363  0.4577  0.0470  0.4724
   20MOL0     C 2593   0.698   3.805   7.318  0.8017 -0.1558  0.4192
   20MOL0     C 2594   0.571   4.025   7.329  0.4141  0.0118 -0.5948
   20MOL0     C 2595   0.461   3.976   7.244  0.3217 -1.0013 -0.3699
   20MOL0     O 2596   0.370   4.077   7.224  0.5514  0.0755  0.3873
   20MOL0     C 2597   0.257   4.040   7.152 -0.2768  0.1812 -0.9815
   20MOL0     C 2598   0.249   4.093   7.023 -0.1099 -0.9159  0.1584
   20MOL0     C 2599   0.135   4.083   6.947 -0.3176  0.1556 -1.2285
   20MOL0     C 2600   0.018   4.027   7.002 -0.4190 -0.8046 -0.8592
   20MOL0     O 2601  -0.097   4.023   6.925 -0.4086  0.6348 -0.4095
   20MOL0     C 2602  -0.177   4.135   6.943  0.4446 -0.2234 -0.3571
   20MOL0     C 2603  -0.324   4.093   6.974 -0.9337  0.0939  0.2145
   20MOL0     C 2604  -0.423   4.209   6.983 -0.1675 -0.0174 -0.0770
   20MOL0     C 2605  -0.459   4.258   6.841 -0.0059  0.6184 -0.0846
   20MOL0     C 2606  -0.536   4.389   6.830  0.2012 -0.1463 -0.3644
   20MOL0     C 2607  -0.526   4.464   6.695  0.0563  0.9292 -0.8264
   20MOL0     C 2608  -0.640   4.563   6.691 -0.3634  0.0091 -0.0229
   20MOL0     C 2609  -0.611   4.658   6.572 -0.1161  0.8273 -0.5250
   20MOL0    Cl 2610  -0.461   4.757   6.596  0.6409 -0.2501 -0.0308
   20MOL0     C 2611   0.020   3.978   7.129  0.4246  0.8279  0.1307
   20MOL0     C 2612   0.136   3.988   7.207 -0.0886  0.4923  0.5604
   20MOL0     O 2613   0.446   3.859   7.211 -0.4599  0.5125  0.4748
   20MOL0     C 2614   0.570   4.159   7.372  0.6306  0.8059 -0.4954
   20MOL0     C 2615   0.668   4.206   7.458  0.3587 -0.4387 -0.0270
   20MOL0     N 2616   1.178   4.767   7.768 -0.6610 -0.5756  0.2062
   20MOL0     N 2617   1.309   4.787   7.738 -0.2923 -0.3920 -0.9321
   20MOL0     C 2618   2.352   5.480   7.525 -0.8969 -0.0445 -0.3800
   20MOL0     C 2619   2.492   5.486   7.547  0.3591 -0.5929  1.3570
   20MOL0     C 2620   2.912   5.321   7.667  1.2075 -0.5417  0.0597
   20MOL0     C 2621   2.973   5.402   7.570 -0.0674 -0.2416  0.4458
   20MOL0     C 2622   3.104   5.424   7.568  0.1042  0.4093 -0.1612
   20MOL0     C 2623   3.182   5.374   7.669 -0.4527  0.1010  0.4719
   20MOL0     O 2624   3.317   5.387   7.654 -0.5159  0.1677  0.5669
   20MOL0     C 2625   3.415   5.330   7.743 -0.1958  0.5469  0.6127
   20MOL0     C 2626   3.558   5.338   7.689 -0.5602  0.4446 -1.1651
   20MOL0     C 2627   3.640   5.414   7.791 -0.2032  0.2349 -0.1413
   20MOL0     C 2628   3.787   5.417   7.742  0.1858 -0.8106 -0.0938
   20MOL0     C 2629   3.853   5.288   7.781  0.0496  0.4427  0.0999
   20MOL0     C 2630   3.912   5.183   7.816  0.7648 -0.4029  0.7158
   20MOL0     C 2631   3.124   5.294   7.770 -0.4738 -0.7476  0.4555
   20MOL0     C 2632   2.991   5.270   7.768 -0.3450 -0.2807 -0.0354
   20MOL0     H 2633   2.533   5.154   7.620 -1.8963  0.0147  1.6670
   20MOL0     H 2634   2.294   5.153   7.605 -2.6727  0.8682 -1.0499
   20MOL0     H 2635   2.122   5.151   7.510  1.8787  0.2745  1.1069
   20MOL0     H 2636   2.076   5.240   7.652  0.7229  0.8076  0.0542
   20MOL0     H 2637   1.876   5.348   7.530 -1.4556  0.0746 -1.0906
   20MOL0     H 2638   1.912   5.253   7.390 -0.4479  1.1016  0.6098
   20MOL0     H 2639   1.848   5.139   7.661 -2.6011 -1.8095  0.2232
   20MOL0     H 2640   1.742   5.157   7.516 -0.5145 -2.6264 -3.0707
   20MOL0     H 2641   1.887   5.008   7.385  1.6516  2.7431  0.2697
   20MOL0     H 2642   1.995   4.974   7.519 -0.3105 -1.2706 -1.2939
   20MOL0     H 2643   1.842   4.790   7.494 -2.4718 -2.2757  2.3309
   20MOL0     H 2644   1.809   4.878   7.640 -1.8294 -0.5692  0.3172
   20MOL0     H 2645   1.602   4.989   7.494 -1.5386 -0.6412  0.4620
   20MOL0     H 2646   1.646   4.859   7.384  2.6252  3.3570 -1.6646
   20MOL0     H 2647   1.640   4.708   7.600  1.6704  1.5454 -0.8329
   20MOL0     H 2648   1.563   4.837   7.688 -1.8839 -0.4848 -0.0686
   20MOL0     H 2649   1.446   4.694   7.447  0.8601 -0.0754 -0.1011
   20MOL0     H 2650   1.406   4.860   7.473 -1.6088 -1.3714 -0.6172
   20MOL0     H 2651   1.205   4.620   7.477  2.4103 -0.3718  0.7557
   20MOL0     H 2652   0.949   4.677   7.765 -1.4759  2.2744 -1.2589
   20MOL0     H 2653   0.930   4.655   7.598  0.2993  2.3256  1.1769
   20MOL0     H 2654   1.055   4.442   7.765 -0.5691  1.1592 -0.4468
   20MOL0     H 2655   1.053   4.419   7.593  0.5450  0.9810 -0.7505
   20MOL0     H 2656   0.811   4.429   7.584  3.2590 -0.5191 -1.7681
   20MOL0     H 2657   0.816   4.453   7.767  1.4274  0.0493  2.3334
   20MOL0     H 2658   0.766   4.221   7.757  1.3708  2.1514  2.7560
   20MOL0     H 2659   0.943   4.227   7.764  0.2969 -1.2843 -1.0399
   20MOL0     H 2660   0.872   3.938   7.451  0.0597 -0.4163 -0.1153
   20MOL0     H 2661   0.783   3.755   7.366  0.6728 -1.7942 -0.9675
   20MOL0     H 2662   0.613   3.741   7.343  1.6883 -1.3203  0.5540
   20MOL0     H 2663   0.722   3.807   7.211  1.5352  1.6681  0.5793
   20MOL0     H 2664   0.343   4.133   6.984 -1.0521  1.5403  0.1872
   20MOL0     H 2665   0.145   4.128   6.849  1.6232  1.2986 -0.5728
   20MOL0     H 2666  -0.139   4.204   7.019 -0.4365 -0.3087  0.1763
   20MOL0     H 2667  -0.182   4.185   6.846 -1.0364  0.2566 -0.0708
   20MOL0     H 2668  -0.347   4.014   6.902 -0.3736 -1.6785  1.8850
   20MOL0     H 2669  -0.325   4.039   7.069 -0.1344 -1.4916 -0.6314
   20MOL0     H 2670  -0.373   4.292   7.034 -3.1028  1.6154  0.3408
   20MOL0     H 2671  -0.517   4.186   7.035 -0.1744 -0.7757 -0.4141
   20MOL0     H 2672  -0.369   4.271   6.780  0.8956  0.7230  1.2362
   20MOL0     H 2673  -0.533   4.188   6.802 -1.3759  1.0967  1.5647
   20MOL0     H 2674  -0.496   4.457   6.907 -1.2075  2.9369 -2.1679
   20MOL0     H 2675  -0.640   4.363   6.852  0.9982 -3.3737  0.0361
   20MOL0     H 2676  -0.427   4.512   6.691 -0.5886  2.7052  1.7139
   20MOL0     H 2677  -0.544   4.399   6.609  0.8769 -0.9156  0.3363
   20MOL0     H 2678  -0.634   4.620   6.785  0.1048 -0.8024  0.4549
   20MOL0     H 2679  -0.743   4.527   6.678  0.3425 -2.0597 -0.3004
   20MOL0     H 2680  -0.696   4.728   6.570 -0.0942  0.8506 -0.7130
   20MOL0     H 2681  -0.595   4.605   6.477  0.5763 -0.9489  0.5502
   20MOL0     H 2682  -0.070   3.927   7.163  0.6622  0.0819 -0.3248
   20MOL0     H 2683   0.140   3.956   7.311 -0.8475  3.3475  1.5604
   20MOL0     H 2684   0.486   4.227   7.362  0.2997  0.9976  2.6358
   20MOL0     H 2685   0.654   4.307   7.497 -3.1451 -1.3840  1.5796
   20MOL0     H 2686   2.296   5.562   7.481 -0.9801  0.9029  1.4196
   20MOL0     H 2687   2.553   5.571   7.519  0.4418 -1.1228 -0.2219
   20MOL0     H 2688   2.920   5.449   7.487  1.5815  1.8611  0.4797
   20MOL0     H 2689   3.159   5.475   7.490  0.1871  0.3865 -0.1175
   20MOL0     H 2690   3.405   5.384   7.838 -1.1827 -0.4425  1.1047
   20MOL0     H 2691   3.398   5.224   7.768  2.3239 -0.6438 -2.1720
   20MOL0     H 2692   3.573   5.398   7.599  3.1330  0.8577 -0.4331
   20MOL0     H 2693   3.596   5.244   7.649 -0.2823  0.2597 -0.4844
   20MOL0     H 2694   3.634   5.369   7.890 -1.1475  4.2017  1.8224
   20MOL0     H 2695   3.601   5.515   7.809  3.5092  1.8481 -0.1622
   20MOL0     H 2696   3.833   5.498   7.800 -0.0627  1.6036 -3.0094
   20MOL0     H 2697   3.805   5.439   7.637  2.7910  0.1714  0.4799
   20MOL0     H 2698   3.955   5.086   7.831  0.7962 -0.2123  1.9557
   20MOL0     H 2699   3.175   5.250   7.855 -0.6879  0.3543  1.1753
   20MOL0     H 2700   2.949   5.216   7.852  1.0741  0.1010  0.9652
   21MOL0     O 2701   0.166   2.815   5.329  0.9516  0.1178  0.1097
   21MOL0     C 2702   0.155   2.802   5.447  0.3201 -0.3651  0.4109
   21MOL0     O 2703   0.042   2.805   5.518  0.1908 -0.7433  0.4901
   21MOL0     C 2704  -0.080   2.823   5.459  0.1066  1.0770  0.5218
   21MOL0     C 2705  -0.176   2.895   5.533  0.4516  0.8595 -0.3632
   21MOL0     C 2706  -0.314   2.903   5.506 -0.1431 -0.2546  0.4574
   21MOL0     C 2707  -0.356   2.841   5.388 -0.2333 -0.6963  0.3956
   21MOL0     O 2708  -0.493   2.844   5.373  0.2161 -0.3552  0.3141
   21MOL0     C 2709  -0.565   2.716   5.371  0.4005  0.1693 -0.0904
   21MOL0     C 2710  -0.710   2.732   5.416  0.1468 -0.2568  0.0088
   21MOL0     C 2711  -0.812   2.651   5.342  0.4714 -0.1133  0.1271
   21MOL0     C 2712  -0.952   2.699   5.379 -0.2728 -0.5368  0.5649
   21MOL0     C 2713  -1.053   2.623   5.305 -0.1908 -0.1022  0.0985
   21MOL0     C 2714  -1.190   2.688   5.336 -0.3948  0.5700 -0.1935
   21MOL0     C 2715  -1.304   2.639   5.249  0.1795 -1.1043  0.0717
   21MOL0     C 2716  -1.362   2.498   5.292  0.2126 -0.1191 -0.5298
   21MOL0     N 2717  -1.504   2.506   5.327  0.1155  0.9196 -0.0481
   21MOL0     C 2718  -1.553   2.593   5.424  0.8789 -0.9573  0.6615
   21MOL0     C 2719  -1.695   2.574   5.421 -0.0255 -0.0573  0.3491
   21MOL0     C 2720  -1.808   2.637   5.510  0.0407  0.3762 -0.2737
   21MOL0     C 2721  -1.909   2.717   5.419 -1.0274  0.9215 -0.2421
   21MOL0     C 2722  -1.853   2.856   5.388 -1.2151 -0.3041 -0.2799
   21MOL0     C 2723  -1.961   2.949   5.326 -0.8999  0.0570  0.4086
   21MOL0     O 2724  -2.057   2.987   5.425 -0.5649 -0.1007 -0.1150
   21MOL0     C 2725  -2.162   3.056   5.390  0.1780 -1.1154  0.0384
   21MOL0     C 2726  -2.205   3.085   5.248  0.4600  0.1896 -0.2557
   21MOL0     C 2727  -2.326   3.153   5.230 -0.6146 -0.1822 -0.3051
   21MOL0     C 2728  -2.343   3.204   5.088 -0.7128 -0.1760  0.5218
   21MOL0     C 2729  -2.410   3.192   5.339 -0.0808 -0.2987 -0.0930
   21MOL0     C 2730  -2.549   3.248   5.327  0.0059 -0.7598 -0.2913
   21MOL0     O 2731  -2.589   3.301   5.208  0.4667 -0.6149 -0.0198
   21MOL0     C 2732  -2.715   3.353   5.207  0.3091  0.0079  0.1011
   21MOL0     C 2733  -2.811   3.287   5.128  0.3204 -0.1361 -0.6858
   21MOL0     C 2734  -2.944   3.322   5.125 -0.6341 -0.7764 -0.2852
   21MOL0     C 2735  -2.976   3.451   5.188 -0.5468  0.0037 -0.0055
   21MOL0     O 2736  -3.101   3.500   5.190  0.2762 -0.0671 -0.4911
   21MOL0     C 2737  -3.209   3.408   5.174 -0.5240  0.2059  0.8208
   21MOL0     C 2738  -3.330   3.491   5.173 -0.0486  0.9460 -1.0368
   21MOL0     C 2739  -3.348   3.577   5.298 -0.5409 -0.6092 -0.1472
   21MOL0     C 2740  -3.483   3.642   5.310 -0.2533 -1.4917  0.8518
   21MOL0     C 2741  -3.523   3.744   5.188  0.0016  0.0517 -1.5498
   21MOL0     C 2742  -3.662   3.811   5.216  0.3561  0.9387  0.0793
   21MOL0     C 2743  -3.774   3.735   5.154  0.2703 -0.2803 -0.3543
   21MOL0     C 2744  -3.861   3.814   5.049  0.0106 -0.6991  0.2466
   21MOL0    Cl 2745  -4.004   3.713   4.981  0.2416 -0.1062 -0.2783
   21MOL0     C 2746  -2.890   3.526   5.260 -0.2242  0.0123 -0.0902
   21MOL0     C 2747  -2.757   3.469   5.280 -1.2267 -0.2592  0.4666
   21MOL0     O 2748  -2.617   3.254   5.428 -0.2432 -0.3421 -0.8750
   21MOL0     C 2749  -2.363   3.169   5.472  0.0634  0.1738 -0.6640
   21MOL0     C 2750  -2.246   3.099   5.491 -1.0716  0.0729 -0.9556
   21MOL0     N 2751  -1.713   2.451   5.355 -0.1395 -0.0842 -0.6272
   21MOL0     N 2752  -1.606   2.413   5.294 -0.1965 -0.4076 -0.1586
   21MOL0     C 2753  -0.266   2.772   5.303  0.5488 -0.3637  0.8737
   21MOL0     C 2754  -0.132   2.760   5.345  0.3358 -0.3894  0.8821
   21MOL0     C 2755   0.281   2.778   5.519  0.3599 -0.0097  0.0505
   21MOL0     C 2756   0.397   2.727   5.460  0.5060 -0.6834  0.0149
   21MOL0     C 2757   0.515   2.711   5.530  1.1340  0.3433 -0.2809
   21MOL0     C 2758   0.518   2.739   5.667  0.2769 -0.6271  0.0148
   21MOL0     O 2759   0.634   2.727   5.745  1.4335 -0.5820  0.1520
   21MOL0     C 2760   0.762   2.704   5.685  0.1747  0.5050 -0.0282
   21MOL0     C 2761   0.864   2.706   5.795  0.0729 -0.0330  0.0078
   21MOL0     C 2762   0.999   2.762   5.752  0.2042 -0.0318 -0.7287
   21MOL0     C 2763   1.106   2.768   5.862 -0.0764 -0.1168  0.2672
   21MOL0     C 2764   1.228   2.820   5.794  0.8553  0.5304 -0.7855
   21MOL0     C 2765   1.325   2.876   5.738 -0.5357  0.5249 -0.1877
   21MOL0     C 2766   0.399   2.788   5.732  0.1423  0.6202 -1.0710
   21MOL0     C 2767   0.280   2.805   5.657  0.0874  0.6169  0.0209
   21MOL0     H 2768  -0.138   2.919   5.631 -1.3367 -1.9789  1.1755
   21MOL0     H 2769  -0.397   2.950   5.558 -2.3683  1.2845 -3.9648
   21MOL0     H 2770  -0.565   2.682   5.267 -2.5878 -0.4771  0.0190
   21MOL0     H 2771  -0.519   2.634   5.427  1.0767  0.2912 -0.4560
   21MOL0     H 2772  -0.703   2.704   5.522  0.3186 -0.5704 -0.0874
   21MOL0     H 2773  -0.742   2.837   5.405  0.0133 -0.4274 -1.3853
   21MOL0     H 2774  -0.798   2.666   5.234  0.8087  3.4581  0.5201
   21MOL0     H 2775  -0.802   2.547   5.374  0.5318 -0.3568 -0.6425
   21MOL0     H 2776  -0.976   2.679   5.484  0.6243 -1.7145  0.5604
   21MOL0     H 2777  -0.956   2.805   5.351  0.8461 -1.2301 -2.5964
   21MOL0     H 2778  -1.037   2.625   5.197 -2.3562  1.8972 -0.2658
   21MOL0     H 2779  -1.057   2.517   5.333 -0.8778 -0.6962 -2.0206
   21MOL0     H 2780  -1.213   2.658   5.439 -1.6310 -4.0600 -1.5752
   21MOL0     H 2781  -1.185   2.796   5.323 -0.3274  0.6528  0.4766
   21MOL0     H 2782  -1.380   2.716   5.264  0.2351 -1.2063  0.9465
   21MOL0     H 2783  -1.273   2.629   5.145  0.9802 -0.1393  0.2050
   21MOL0     H 2784  -1.311   2.463   5.382  0.7053  0.9268 -0.3899
   21MOL0     H 2785  -1.349   2.420   5.217 -1.0734 -0.8945  0.0231
   21MOL0     H 2786  -1.490   2.662   5.478  0.2615 -0.7084  1.0707
   21MOL0     H 2787  -1.864   2.558   5.560 -2.7607  2.0997 -0.4477
   21MOL0     H 2788  -1.763   2.701   5.587  2.2643 -1.5574  0.1547
   21MOL0     H 2789  -1.999   2.727   5.479 -0.7412 -1.3801  0.6773
   21MOL0     H 2790  -1.931   2.654   5.332  1.6574 -0.4883 -0.0131
   21MOL0     H 2791  -1.772   2.846   5.315  0.6068  3.4712  0.9615
   21MOL0     H 2792  -1.826   2.908   5.481 -2.9018  1.8946 -0.9373
   21MOL0     H 2793  -2.001   2.899   5.237  0.8170 -3.9251  1.6150
   21MOL0     H 2794  -1.902   3.034   5.291  0.6443 -1.1810 -0.1406
   21MOL0     H 2795  -2.132   3.059   5.172  0.1458 -1.2612 -0.1009
   21MOL0     H 2796  -2.250   3.194   5.030 -2.1587  0.8886 -2.1799
   21MOL0     H 2797  -2.429   3.160   5.035 -3.0603  1.8566  2.4316
   21MOL0     H 2798  -2.349   3.313   5.087  3.3176  0.2162  0.6870
   21MOL0     H 2799  -2.775   3.202   5.070 -0.2996 -1.3324  0.6070
   21MOL0     H 2800  -3.009   3.258   5.066 -0.9799 -0.2959 -0.4325
   21MOL0     H 2801  -3.203   3.346   5.085 -0.3840 -0.2344  1.1339
   21MOL0     H 2802  -3.208   3.341   5.261  0.1997  0.4825  1.0298
   21MOL0     H 2803  -3.337   3.555   5.084 -2.3171  0.2379 -1.4517
   21MOL0     H 2804  -3.407   3.414   5.164 -0.8685  1.0474  3.2581
   21MOL0     H 2805  -3.271   3.654   5.287 -1.3279 -0.0203 -1.9802
   21MOL0     H 2806  -3.337   3.525   5.393 -0.9512  1.7217  1.2359
   21MOL0     H 2807  -3.557   3.561   5.314 -1.2544 -0.5965  0.9354
   21MOL0     H 2808  -3.489   3.689   5.408 -0.0907  0.6139 -0.1078
   21MOL0     H 2809  -3.514   3.694   5.091  1.1792 -4.1517  0.5294
   21MOL0     H 2810  -3.459   3.832   5.203 -1.1921  0.7235 -0.1611
   21MOL0     H 2811  -3.686   3.820   5.323  0.4765  1.7743  0.0408
   21MOL0     H 2812  -3.675   3.912   5.177 -2.0630  2.0713  3.3665
   21MOL0     H 2813  -3.842   3.716   5.238  1.3039  2.3735  1.1993
   21MOL0     H 2814  -3.737   3.644   5.106 -1.7651  0.1345 -2.9256
   21MOL0     H 2815  -3.800   3.849   4.965 -0.7015  0.5806  0.2419
   21MOL0     H 2816  -3.908   3.897   5.103 -2.2281 -1.6534 -0.1156
   21MOL0     H 2817  -2.911   3.620   5.309  1.9794  0.7806 -0.5004
   21MOL0     H 2818  -2.681   3.518   5.339  0.1474  2.3454 -3.1031
   21MOL0     H 2819  -2.425   3.185   5.559 -1.9381  0.2890 -2.0345
   21MOL0     H 2820  -2.218   3.065   5.590 -0.7136  4.2571  0.6066
   21MOL0     H 2821  -0.292   2.740   5.202  0.7132 -0.5050  0.8748
   21MOL0     H 2822  -0.070   2.695   5.283  1.2148  0.3291  0.9880
   21MOL0     H 2823   0.396   2.703   5.354  0.3404 -3.4086  0.5545
   21MOL0     H 2824   0.597   2.659   5.480  0.5886 -1.4694  0.6154
   21MOL0     H 2825   0.767   2.606   5.636  1.2977  1.8509 -2.8566
   21MOL0     H 2826   0.785   2.781   5.610  0.4271 -0.3138 -0.8026
   21MOL0     H 2827   0.876   2.604   5.835  1.8389 -0.7374 -2.1700
   21MOL0     H 2828   0.835   2.779   5.872  2.5703  2.1105 -0.9566
   21MOL0     H 2829   0.975   2.865   5.723  2.2510  0.8303  0.3973
   21MOL0     H 2830   1.047   2.709   5.669  0.3694 -3.0534  1.1621
   21MOL0     H 2831   1.126   2.671   5.907  0.5803 -1.3541 -2.4701
   21MOL0     H 2832   1.068   2.842   5.933  0.3287 -0.6091  1.0012
   21MOL0     H 2833   1.405   2.930   5.691 -1.1950 -1.6602 -4.2294
   21MOL0     H 2834   0.401   2.811   5.838  1.4807 -1.9033 -0.4531
   21MOL0     H 2835   0.188   2.829   5.708 -0.8580  1.8000 -2.1123
   22MOL0     O 2836  10.199   4.750   5.962 -0.3390 -0.3457 -0.0946
   22MOL0     C 2837  10.172   4.856   6.017 -0.0263  0.1845 -0.8462
   22MOL0     O 2838  10.138   4.875   6.148  0.4205  0.3544 -0.2583
   22MOL0     C 2839  10.149   4.773   6.236  0.0067  0.6273  0.5144
   22MOL0     C 2840  10.055   4.776   6.342 -0.6099 -0.2324 -0.0314
   22MOL0     C 2841  10.045   4.668   6.427  0.5827 -0.0778 -0.0517
   22MOL0     C 2842  10.112   4.552   6.410  0.5556 -0.2046 -0.3181
   22MOL0     O 2843  10.095   4.445   6.495  0.1522  0.1376  0.1308
   22MOL0     C 2844  10.187   4.337   6.491 -0.2195  0.2032 -0.3020
   22MOL0     C 2845  10.153   4.226   6.589  1.1064 -1.2144 -0.6838
   22MOL0     C 2846  10.167   4.279   6.740  0.5312 -0.0281  0.4319
   22MOL0     C 2847  10.309   4.326   6.783 -0.1647 -0.4885 -0.9900
   22MOL0     C 2848  10.322   4.347   6.941 -1.0040 -0.3007  0.4782
   22MOL0     C 2849  10.249   4.474   6.984  0.1257 -0.2749 -0.4055
   22MOL0     C 2850  10.287   4.596   6.911  0.4849 -0.1109  1.1656
   22MOL0     C 2851  10.236   4.733   6.968  0.9797  0.5871  0.0817
   22MOL0     N 2852  10.283   4.827   6.870  0.0656 -0.4155 -0.0243
   22MOL0     C 2853  10.223   4.848   6.748 -0.0002  1.5341 -1.0024
   22MOL0     C 2854  10.303   4.939   6.693 -0.2751 -0.1034  0.4062
   22MOL0     C 2855  10.306   4.983   6.548 -0.4791 -0.8624 -0.2631
   22MOL0     C 2856  10.281   5.137   6.541  0.5639 -0.1199  0.4074
   22MOL0     C 2857  10.247   5.162   6.390 -0.7643  0.5762 -0.1512
   22MOL0     C 2858  10.221   5.313   6.375 -1.3876 -0.6909  0.5197
   22MOL0     O 2859  10.237   5.347   6.234  0.4885  0.0667 -0.1796
   22MOL0     C 2860  10.217   5.480   6.191 -0.9191  0.0807 -0.7318
   22MOL0     C 2861  10.156   5.583   6.267  1.0407 -0.2374  0.8698
   22MOL0     C 2862  10.136   5.711   6.220  0.1806 -0.4880  0.1542
   22MOL0     C 2863  10.078   5.804   6.317 -0.5152 -0.0676 -0.0500
   22MOL0     C 2864  10.176   5.739   6.089  0.2077 -0.4802 -0.9758
   22MOL0     C 2865  10.160   5.871   6.015 -1.2330 -0.0325 -0.5585
   22MOL0     O 2866  10.254   5.899   5.911  0.3082  0.5549 -0.7888
   22MOL0     C 2867  10.235   6.015   5.849  0.4375 -0.5257  0.5543
   22MOL0     C 2868  10.132   6.032   5.763  0.3213 -0.0556 -0.5987
   22MOL0     C 2869  10.121   6.144   5.681 -0.3740 -0.2912  0.0816
   22MOL0     C 2870  10.234   6.229   5.680  0.0711 -0.1253 -0.3483
   22MOL0     O 2871  10.241   6.333   5.586 -0.0279 -0.1193 -0.2333
   22MOL0     C 2872  10.124   6.387   5.526 -0.0860  0.3377 -0.0491
   22MOL0     C 2873  10.138   6.518   5.456 -0.4603  0.8723  0.6027
   22MOL0     C 2874  10.009   6.589   5.424 -0.1182 -0.1162 -0.1547
   22MOL0     C 2875  10.041   6.725   5.369  0.3027 -0.2347  0.8576
   22MOL0     C 2876   9.918   6.794   5.329  0.6310 -1.1140  1.3040
   22MOL0     C 2877   9.837   6.742   5.208 -0.9497  0.4766  0.1018
   22MOL0     C 2878   9.922   6.709   5.082  0.0254 -0.2147  0.4927
   22MOL0     C 2879   9.973   6.831   5.008 -1.0276 -0.6792 -1.2359
   22MOL0    Cl 2880   9.837   6.910   4.917  0.4303 -0.4378 -0.4872
   22MOL0     C 2881  10.333   6.215   5.771  0.0932  0.1436 -0.4024
   22MOL0     C 2882  10.335   6.108   5.856  0.3399  0.1920  0.3346
   22MOL0     O 2883  10.068   5.947   6.052  0.3069 -0.2092  0.4050
   22MOL0     C 2884  10.234   5.640   6.014  0.1838 -0.5327 -0.8307
   22MOL0     C 2885  10.257   5.515   6.067 -0.3207 -0.1256  0.0996
   22MOL0     N 2886  10.409   4.962   6.776 -0.0053 -1.0235  0.4508
   22MOL0     N 2887  10.391   4.900   6.885  0.6898 -0.2698  0.9714
   22MOL0     C 2888  10.218   4.555   6.311 -0.1055  0.3073  0.9172
   22MOL0     C 2889  10.240   4.662   6.230  0.0284 -0.3110  0.1446
   22MOL0     C 2890  10.155   4.979   5.933 -0.3426 -0.0221 -0.0672
   22MOL0     C 2891  10.073   5.096   5.974 -0.7716 -0.0305  0.2016
   22MOL0     C 2892  10.073   5.213   5.891  0.5055 -0.6376 -0.5539
   22MOL0     C 2893  10.127   5.209   5.765 -0.2917 -0.3077 -1.0014
   22MOL0     O 2894  10.130   5.317   5.684 -0.7442 -0.2947 -0.0711
   22MOL0     C 2895  10.039   5.428   5.711  0.3972  0.5337 -0.3970
   22MOL0     C 2896  10.059   5.540   5.609  0.2185 -0.2021  0.4477
   22MOL0     C 2897   9.970   5.515   5.487 -0.6121 -0.3671 -0.7637
   22MOL0     C 2898   9.985   5.611   5.371  0.8476 -0.4163  0.4429
   22MOL0     C 2899  10.105   5.613   5.289 -0.2399 -0.0583  0.4018
   22MOL0     C 2900  10.203   5.616   5.213  0.6823  0.0732  0.4030
   22MOL0     C 2901  10.190   5.092   5.716 -0.9390 -0.0692  0.7370
   22MOL0     C 2902  10.211   4.980   5.801  0.5751 -0.2452 -0.2280
   22MOL0     H 2903  10.011   4.871   6.369  2.4322  0.7282  2.1392
   22MOL0     H 2904   9.989   4.670   6.520  1.5418 -0.8190  0.5618
   22MOL0     H 2905  10.189   4.294   6.390  1.7396 -1.3297  0.3117
   22MOL0     H 2906  10.290   4.366   6.516  0.2312 -2.1490  0.9748
   22MOL0     H 2907  10.047   4.207   6.569  0.7863 -0.5245  0.2315
   22MOL0     H 2908  10.208   4.132   6.577  2.7044 -0.3927 -0.0897
   22MOL0     H 2909  10.105   4.363   6.774  2.3777  0.3610  3.1563
   22MOL0     H 2910  10.131   4.200   6.807  0.0216  1.5511  2.1367
   22MOL0     H 2911  10.379   4.246   6.758  1.7233  1.4769 -2.3745
   22MOL0     H 2912  10.348   4.416   6.733  2.5789 -1.5376 -0.9461
   22MOL0     H 2913  10.272   4.265   6.994  0.8835 -0.7917  1.5916
   22MOL0     H 2914  10.428   4.346   6.970 -1.1167  0.5266  0.9522
   22MOL0     H 2915  10.140   4.465   6.973  0.1934  0.5212 -1.8952
   22MOL0     H 2916  10.261   4.489   7.092 -2.8765 -1.9945  0.2999
   22MOL0     H 2917  10.389   4.608   6.873  0.7848 -1.0287  1.6625
   22MOL0     H 2918  10.235   4.587   6.815 -0.2970  1.0976  1.4570
   22MOL0     H 2919  10.290   4.748   7.062  3.8001 -0.6507 -1.2268
   22MOL0     H 2920  10.129   4.728   6.994  1.2538 -0.1495  1.1406
   22MOL0     H 2921  10.142   4.793   6.701  0.9273 -0.2697 -0.5755
   22MOL0     H 2922  10.401   4.953   6.502 -1.3799 -3.3266 -0.6262
   22MOL0     H 2923  10.233   4.930   6.488  0.5594 -3.4754  0.6466
   22MOL0     H 2924  10.372   5.191   6.570  0.5788 -0.3359  0.7688
   22MOL0     H 2925  10.197   5.169   6.604 -1.7374 -1.3378 -1.8668
   22MOL0     H 2926  10.158   5.102   6.368 -0.2705 -0.9354  1.7241
   22MOL0     H 2927  10.330   5.122   6.330  1.4679  0.3231  2.9042
   22MOL0     H 2928  10.295   5.370   6.433  1.4342 -3.0650 -0.5214
   22MOL0     H 2929  10.120   5.342   6.408 -2.7061  0.1318 -3.6377
   22MOL0     H 2930  10.140   5.551   6.370  1.5700  0.5369  1.2000
   22MOL0     H 2931  10.079   5.758   6.417  1.3501 -1.4597 -0.6503
   22MOL0     H 2932  10.116   5.905   6.333 -1.6041  0.4420 -0.5828
   22MOL0     H 2933   9.973   5.806   6.285  0.2174 -0.0736 -2.5869
   22MOL0     H 2934  10.048   5.964   5.759  1.1180 -1.1341  0.3740
   22MOL0     H 2935  10.024   6.156   5.631 -0.8161 -0.2415  0.9375
   22MOL0     H 2936  10.087   6.315   5.453 -0.9449  1.5034 -0.8112
   22MOL0     H 2937  10.054   6.418   5.604 -0.0799 -0.3416  0.2264
   22MOL0     H 2938  10.190   6.583   5.527  0.4803 -0.3258  1.0256
   22MOL0     H 2939  10.198   6.510   5.365 -1.2055 -0.0052  0.1782
   22MOL0     H 2940   9.960   6.610   5.519  2.4911 -0.3931  1.3729
   22MOL0     H 2941   9.944   6.528   5.361 -2.0686 -0.0929  1.7333
   22MOL0     H 2942  10.097   6.784   5.442  4.3136 -0.9280 -1.3800
   22MOL0     H 2943  10.111   6.731   5.285  1.1706  2.4205  1.6567
   22MOL0     H 2944   9.954   6.896   5.312  4.1135 -2.2681  0.8385
   22MOL0     H 2945   9.851   6.803   5.415  0.1866  2.0342  0.7362
   22MOL0     H 2946   9.777   6.657   5.242  0.1025 -0.7446 -0.9868
   22MOL0     H 2947   9.770   6.823   5.177  0.3994  1.6200  0.1038
   22MOL0     H 2948   9.864   6.654   5.007  1.5247  0.5941 -1.3358
   22MOL0     H 2949   9.997   6.631   5.099  2.0352  1.1087 -1.6559
   22MOL0     H 2950  10.056   6.812   4.939  2.7530  0.9330  2.4360
   22MOL0     H 2951  10.021   6.912   5.064  1.5680 -1.0055 -2.7988
   22MOL0     H 2952  10.416   6.285   5.768 -0.7275  1.1164 -1.7169
   22MOL0     H 2953  10.420   6.090   5.922  2.0872  1.1867 -1.5058
   22MOL0     H 2954  10.245   5.661   5.908  0.2561  1.1166 -0.5262
   22MOL0     H 2955  10.285   5.433   6.002  1.2269 -0.9435  1.7276
   22MOL0     H 2956  10.285   4.471   6.296  1.1030  1.0126  2.1057
   22MOL0     H 2957  10.313   4.659   6.150 -1.3684  3.1317 -1.4888
   22MOL0     H 2958  10.015   5.108   6.065 -2.6059 -0.6842 -0.8444
   22MOL0     H 2959  10.030   5.304   5.932  0.0053 -0.2437 -1.8848
   22MOL0     H 2960   9.934   5.397   5.706  0.2983 -0.0448  3.0705
   22MOL0     H 2961  10.065   5.470   5.808  3.1304 -0.7301 -0.4627
   22MOL0     H 2962  10.163   5.543   5.574 -0.0616  2.6210 -0.4318
   22MOL0     H 2963  10.031   5.638   5.651 -0.2659  0.1157 -0.5986
   22MOL0     H 2964   9.864   5.520   5.515 -1.2413  0.3145 -3.0710
   22MOL0     H 2965   9.985   5.416   5.442  0.8076 -0.8451  0.6437
   22MOL0     H 2966   9.966   5.709   5.414  0.3391  0.3469 -1.4337
   22MOL0     H 2967   9.905   5.593   5.298  0.1207  2.2796  0.4706
   22MOL0     H 2968  10.284   5.613   5.142  0.9596 -1.6324  0.7474
   22MOL0     H 2969  10.221   5.091   5.612 -0.1671 -0.8927  0.9559
   22MOL0     H 2970  10.261   4.894   5.758  0.0501  1.1399 -3.9137
   23MOL0     O 2971   0.963   7.694   5.065  0.2486  0.3073  0.1527
   23MOL0     C 2972   1.026   7.693   4.958 -0.5724 -0.3317 -0.2262
   23MOL0     O 2973   0.980   7.717   4.835  0.1785 -0.0478 -0.4637
   23MOL0     C 2974   0.862   7.766   4.805  0.9828  0.2716  0.1337
   23MOL0     C 2975   0.757   7.805   4.900  0.3988 -0.4804 -0.2713
   23MOL0     C 2976   0.643   7.865   4.852 -0.6467 -0.5557  0.1340
   23MOL0     C 2977   0.620   7.891   4.714  0.9830  0.6197 -0.2181
   23MOL0     O 2978   0.510   7.952   4.655  0.4067  0.3184  0.2459
   23MOL0     C 2979   0.392   7.982   4.736 -0.0418  0.1520 -0.7330
   23MOL0     C 2980   0.281   8.040   4.651  0.7989 -0.6291  0.2338
   23MOL0     C 2981   0.134   8.018   4.686  0.1244  0.2293 -0.3383
   23MOL0     C 2982   0.107   7.923   4.803  0.3013 -0.2104  0.0817
   23MOL0     C 2983  -0.034   7.932   4.846 -0.5414 -0.9102  0.2500
   23MOL0     C 2984  -0.071   8.056   4.931  1.3020  0.3184 -0.0140
   23MOL0     C 2985  -0.218   8.041   4.983 -0.9335  0.4360  0.0010
   23MOL0     C 2986  -0.248   7.920   5.069  0.0625 -0.7860 -0.7233
   23MOL0     N 2987  -0.376   7.950   5.143 -0.0259  0.1153 -0.5929
   23MOL0     C 2988  -0.397   7.997   5.270  0.3896 -0.0280  0.3206
   23MOL0     C 2989  -0.531   8.029   5.288 -0.2101  0.7624 -0.5789
   23MOL0     C 2990  -0.597   8.086   5.408  0.7881  0.1553 -0.9138
   23MOL0     C 2991  -0.712   8.002   5.464  0.1728 -1.3015  0.5458
   23MOL0     C 2992  -0.840   8.021   5.394  0.1959 -0.2051 -0.2589
   23MOL0     C 2993  -0.947   7.933   5.464  0.6552 -0.1129 -0.1906
   23MOL0     O 2994  -1.074   7.949   5.399  0.0086  0.6161 -0.1906
   23MOL0     C 2995  -1.178   7.866   5.423 -0.8693 -1.1321  0.2706
   23MOL0     C 2996  -1.291   7.869   5.335 -0.6374  0.2637  0.2518
   23MOL0     C 2997  -1.404   7.788   5.358 -0.0147 -0.1761 -0.2751
   23MOL0     C 2998  -1.526   7.821   5.277 -0.0074  0.5785  0.4811
   23MOL0     C 2999  -1.402   7.687   5.457  0.3378  0.6423 -0.8311
   23MOL0     C 3000  -1.528   7.606   5.502 -0.1079  0.2986 -0.1850
   23MOL0     O 3001  -1.624   7.585   5.409  0.0495  0.7988 -0.3582
   23MOL0     C 3002  -1.754   7.567   5.438  0.4865  0.4577  0.1409
   23MOL0     C 3003  -1.828   7.620   5.546  0.6924  0.4643 -0.1189
   23MOL0     C 3004  -1.966   7.571   5.571 -0.3664 -0.6962  0.2792
   23MOL0     C 3005  -2.017   7.466   5.491  0.0085  0.0574  0.5903
   23MOL0     O 3006  -2.145   7.435   5.535  0.3562  0.3132  0.2202
   23MOL0     C 3007  -2.174   7.296   5.534  0.7184 -0.3413  0.0570
   23MOL0     C 3008  -2.321   7.273   5.481  0.4609  0.2808 -0.0505
   23MOL0     C 3009  -2.362   7.124   5.491 -0.3693 -0.6476  0.2316
   23MOL0     C 3010  -2.502   7.117   5.444  1.2448  0.4581  0.6752
   23MOL0     C 3011  -2.545   6.971   5.428 -0.1157  0.5163  0.1739
   23MOL0     C 3012  -2.694   6.953   5.376  0.4053 -0.4967 -0.0149
   23MOL0     C 3013  -2.800   7.027   5.465 -0.5236 -0.6954  0.3378
   23MOL0     C 3014  -2.945   7.001   5.406  0.9827 -0.2206 -0.1181
   23MOL0    Cl 3015  -2.949   7.083   5.251 -0.0928  0.0620 -0.4908
   23MOL0     C 3016  -1.953   7.433   5.372 -0.6502 -0.7804 -0.1629
   23MOL0     C 3017  -1.822   7.480   5.351 -0.0105  0.6617  0.2266
   23MOL0     O 3018  -1.536   7.567   5.619 -0.1611  0.4185 -0.1423
   23MOL0     C 3019  -1.289   7.680   5.540  0.1780 -0.0481  0.2529
   23MOL0     C 3020  -1.182   7.769   5.525 -0.1263  0.1194 -0.2626
   23MOL0     N 3021  -0.590   7.977   5.175 -0.3667 -0.0428 -0.0143
   23MOL0     N 3022  -0.501   7.927   5.096  0.4165  0.3894  0.4487
   23MOL0     C 3023   0.711   7.850   4.625 -0.4381 -0.3421 -0.2448
   23MOL0     C 3024   0.827   7.781   4.673 -0.2235  1.0582  0.4822
   23MOL0     C 3025   1.179   7.684   4.964 -0.4297  0.5580  0.7670
   23MOL0     C 3026   1.239   7.652   5.083 -0.2285  0.1289  0.2673
   23MOL0     C 3027   1.381   7.644   5.091 -0.5062  0.2504  0.1238
   23MOL0     C 3028   1.467   7.657   4.973  0.3211 -0.3240 -0.5004
   23MOL0     O 3029   1.605   7.653   4.973 -0.2981 -0.5167  0.4819
   23MOL0     C 3030   1.664   7.562   5.067 -0.5064 -0.2591  0.3295
   23MOL0     C 3031   1.816   7.534   5.036 -0.1941 -0.1835 -0.1133
   23MOL0     C 3032   1.907   7.653   5.042  0.5866  0.6922  0.2107
   23MOL0     C 3033   1.950   7.707   5.176 -0.6053  0.4117 -0.9169
   23MOL0     C 3034   2.074   7.788   5.158  0.0678  0.1562  0.6410
   23MOL0     C 3035   2.183   7.846   5.162 -0.0335 -0.9581  0.1799
   23MOL0     C 3036   1.399   7.687   4.849  0.5507  0.0163  0.2340
   23MOL0     C 3037   1.259   7.707   4.848  0.3516  0.0860 -0.3712
   23MOL0     H 3038   0.769   7.785   5.006  0.7667 -2.9813 -0.7242
   23MOL0     H 3039   0.569   7.903   4.921  0.2983  1.1193  0.2779
   23MOL0     H 3040   0.366   7.888   4.784  2.1123 -1.3170 -2.2632
   23MOL0     H 3041   0.412   8.059   4.811 -0.3091  1.3569 -1.8415
   23MOL0     H 3042   0.295   8.147   4.633 -0.6048 -0.5587 -0.6448
   23MOL0     H 3043   0.285   7.986   4.556  1.2505 -3.2742  1.6578
   23MOL0     H 3044   0.093   8.119   4.699  2.0341  1.2912 -1.9434
   23MOL0     H 3045   0.106   7.960   4.597 -0.7051 -1.6208  1.0751
   23MOL0     H 3046   0.131   7.821   4.770  1.0148 -1.7820  4.6842
   23MOL0     H 3047   0.170   7.938   4.892 -0.1423 -2.3424  0.8171
   23MOL0     H 3048  -0.099   7.928   4.759  0.7348  3.3785 -1.1689
   23MOL0     H 3049  -0.048   7.851   4.919  0.5752 -1.3948 -0.0502
   23MOL0     H 3050  -0.006   8.060   5.019 -0.9035  0.6066  1.6661
   23MOL0     H 3051  -0.072   8.151   4.876 -0.1695  1.2940  1.5972
   23MOL0     H 3052  -0.246   8.132   5.037  1.1786  1.0714  0.1494
   23MOL0     H 3053  -0.294   8.033   4.905 -1.7117 -1.0304  0.8663
   23MOL0     H 3054  -0.166   7.898   5.138  0.7008 -0.7522 -1.4531
   23MOL0     H 3055  -0.259   7.829   5.010 -2.3479 -2.0651  1.5001
   23MOL0     H 3056  -0.311   8.031   5.328 -0.0528  0.8152  0.5110
   23MOL0     H 3057  -0.526   8.091   5.491 -0.2869 -1.3298  0.1606
   23MOL0     H 3058  -0.632   8.187   5.385 -2.0077 -0.5753 -0.3046
   23MOL0     H 3059  -0.725   8.032   5.568 -0.3227 -0.7720  0.3332
   23MOL0     H 3060  -0.672   7.900   5.454  1.8569 -0.6667  0.5602
   23MOL0     H 3061  -0.840   7.988   5.289 -2.7345 -1.4265  0.0264
   23MOL0     H 3062  -0.875   8.125   5.393  0.1119 -0.2349 -0.9797
   23MOL0     H 3063  -0.949   7.961   5.570 -0.8228 -0.1908 -0.1784
   23MOL0     H 3064  -0.925   7.825   5.463 -2.0913 -0.7849  1.4089
   23MOL0     H 3065  -1.295   7.933   5.248  1.7363 -1.8203 -1.5105
   23MOL0     H 3066  -1.520   7.906   5.209  0.3411 -2.6570 -3.9477
   23MOL0     H 3067  -1.558   7.736   5.215 -0.0102 -0.1779  1.4821
   23MOL0     H 3068  -1.600   7.846   5.354 -0.8502 -0.0669 -0.0964
   23MOL0     H 3069  -1.779   7.686   5.616  2.2511 -1.4930  0.7417
   23MOL0     H 3070  -2.030   7.614   5.648 -0.8640  0.5412 -0.7982
   23MOL0     H 3071  -2.115   7.234   5.466  0.6879 -0.3678  0.0541
   23MOL0     H 3072  -2.164   7.256   5.635  0.0735 -0.9175 -0.1012
   23MOL0     H 3073  -2.391   7.332   5.541  0.3183  0.0276  0.0305
   23MOL0     H 3074  -2.317   7.304   5.376  5.2979 -1.7427 -0.7355
   23MOL0     H 3075  -2.347   7.095   5.596  2.7036  0.5340  0.2205
   23MOL0     H 3076  -2.294   7.055   5.441 -2.7076 -2.1081 -1.1306
   23MOL0     H 3077  -2.566   7.166   5.518  2.5947  1.3817  1.2702
   23MOL0     H 3078  -2.523   7.159   5.345  2.9884 -0.7320 -0.2640
   23MOL0     H 3079  -2.532   6.934   5.530  1.3699  3.1767  1.0593
   23MOL0     H 3080  -2.465   6.925   5.369 -1.2152 -2.4945  0.9041
   23MOL0     H 3081  -2.687   6.988   5.273  0.3652  1.5647  0.6505
   23MOL0     H 3082  -2.709   6.845   5.363  0.8901 -0.4868 -0.6913
   23MOL0     H 3083  -2.778   7.132   5.484  1.7588 -1.1359  0.4240
   23MOL0     H 3084  -2.810   6.981   5.564 -1.0855 -0.1944  0.5227
   23MOL0     H 3085  -3.014   7.043   5.480 -0.6215 -3.3321  0.3037
   23MOL0     H 3086  -2.971   6.895   5.399  0.8864 -0.0915 -2.6739
   23MOL0     H 3087  -2.010   7.370   5.304 -0.6794 -0.7611 -0.1559
   23MOL0     H 3088  -1.771   7.422   5.274 -3.2510 -1.9746 -0.1987
   23MOL0     H 3089  -1.288   7.614   5.626 -1.2840 -0.7364 -0.2215
   23MOL0     H 3090  -1.110   7.764   5.606 -1.1917  1.7774  0.8536
   23MOL0     H 3091   0.695   7.866   4.519  1.4746 -0.3169 -0.5710
   23MOL0     H 3092   0.900   7.757   4.596  0.3099  4.1255 -0.1122
   23MOL0     H 3093   1.191   7.632   5.179  0.7677  0.8212  0.9269
   23MOL0     H 3094   1.434   7.617   5.182  0.3074  2.7112  0.4391
   23MOL0     H 3095   1.658   7.600   5.169 -2.6755  0.2387  0.0640
   23MOL0     H 3096   1.621   7.462   5.054 -0.1187 -0.4539  0.4918
   23MOL0     H 3097   1.825   7.488   4.937  0.5174  0.8495 -0.5437
   23MOL0     H 3098   1.852   7.454   5.100  1.6086  0.0205 -0.8333
   23MOL0     H 3099   1.874   7.735   4.978 -2.3819 -1.3261 -1.0739
   23MOL0     H 3100   1.995   7.618   4.986 -0.6654 -0.4045 -1.1440
   23MOL0     H 3101   1.966   7.625   5.247  2.1698  0.6717 -1.1440
   23MOL0     H 3102   1.863   7.760   5.219 -0.8769  0.2018 -1.2029
   23MOL0     H 3103   2.271   7.907   5.156  1.0820 -2.6075 -2.0813
   23MOL0     H 3104   1.453   7.690   4.755 -0.4267  0.3206 -0.3285
   23MOL0     H 3105   1.216   7.752   4.759  2.3774 -1.7535 -2.4225
   24MOL0     O 3106  10.972   1.928  10.451 -0.3684 -0.2934  0.1773
   24MOL0     C 3107  10.966   1.995  10.347 -1.1173 -0.4843  0.9203
   24MOL0     O 3108  10.858   2.002  10.253 -0.1507  0.0672 -0.3258
   24MOL0     C 3109  10.735   1.961  10.290  0.5124  1.2729  0.3928
   24MOL0     C 3110  10.667   2.027  10.392  0.3930  0.9686 -0.2487
   24MOL0     C 3111  10.543   1.973  10.447  0.2503 -0.1722  0.3002
   24MOL0     C 3112  10.479   1.874  10.381  0.3391 -0.3329  0.4954
   24MOL0     O 3113  10.358   1.817  10.414 -0.1996  1.3005  0.3045
   24MOL0     C 3114  10.249   1.899  10.454 -0.2144 -0.9897 -0.2025
   24MOL0     C 3115  10.125   1.809  10.476  0.3061 -0.5431 -0.1424
   24MOL0     C 3116  10.088   1.738  10.337  0.0859  0.4136 -0.9787
   24MOL0     C 3117   9.958   1.667  10.347  0.0901  0.2833  0.6078
   24MOL0     C 3118   9.939   1.582  10.222 -0.0594  0.2167  0.1343
   24MOL0     C 3119   9.791   1.556  10.190 -0.2339  0.4645  0.3206
   24MOL0     C 3120   9.733   1.433  10.258  0.0982  0.4428  0.2852
   24MOL0     C 3121   9.820   1.308  10.251  0.2181 -0.2875  0.5184
   24MOL0     N 3122   9.756   1.189  10.294  0.6313 -0.0628 -0.1573
   24MOL0     C 3123   9.739   1.143  10.422 -0.9261 -0.8912  0.1254
   24MOL0     C 3124   9.702   1.014  10.401  0.0847  0.4230 -0.5927
   24MOL0     C 3125   9.686   0.915  10.514  0.2159 -0.4739  0.0950
   24MOL0     C 3126   9.579   0.961  10.610  0.7634  0.0917 -0.7680
   24MOL0     C 3127   9.440   0.980  10.543 -0.8999  0.1941  0.0157
   24MOL0     C 3128   9.325   0.899  10.611  0.2438 -0.3010  0.0064
   24MOL0     O 3129   9.218   0.982  10.564  0.4778 -0.2777 -0.2411
   24MOL0     C 3130   9.088   0.940  10.589 -0.5010 -0.7566 -0.3480
   24MOL0     C 3131   8.989   1.000  10.513 -0.1922  0.5291  0.4709
   24MOL0     C 3132   8.851   0.979  10.538  0.6675 -0.0898 -0.5996
   24MOL0     C 3133   8.749   1.074  10.469  0.0084  0.5833  0.4235
   24MOL0     C 3134   8.815   0.866  10.630 -0.0724  0.3575  0.3858
   24MOL0     C 3135   8.672   0.828  10.663 -0.4685  0.0352 -0.0634
   24MOL0     O 3136   8.582   0.924  10.641  0.0931 -0.1382  0.5214
   24MOL0     C 3137   8.448   0.896  10.642  0.7255 -0.7314  0.0964
   24MOL0     C 3138   8.380   0.863  10.759 -0.0164  0.2654 -0.6527
   24MOL0     C 3139   8.237   0.852  10.752 -0.3235 -0.3625  0.5434
   24MOL0     C 3140   8.160   0.865  10.636 -1.1773 -0.1320  0.4296
   24MOL0     O 3141   8.030   0.848  10.644 -0.2795  0.2133 -0.0776
   24MOL0     C 3142   7.946   0.858  10.529 -0.0989 -0.5770  0.6857
   24MOL0     C 3143   7.804   0.811  10.565 -0.4967 -0.5417 -0.0279
   24MOL0     C 3144   7.762   0.829  10.716 -0.4737  0.4878 -0.1153
   24MOL0     C 3145   7.619   0.770  10.714  0.0868  0.1043 -0.0604
   24MOL0     C 3146   7.568   0.791  10.861 -0.4088  0.3755 -0.3675
   24MOL0     C 3147   7.443   0.693  10.888 -0.4822 -0.1221 -0.5416
   24MOL0     C 3148   7.384   0.711  11.038 -0.0011  0.1173  1.0251
   24MOL0     C 3149   7.272   0.610  11.065 -0.3487 -0.4163  0.0145
   24MOL0    Cl 3150   7.127   0.661  10.965  0.0656  0.3966  0.1994
   24MOL0     C 3151   8.232   0.895  10.520  0.1267 -0.0586  0.1550
   24MOL0     C 3152   8.373   0.910  10.521 -0.1470  0.0018  0.5889
   24MOL0     O 3153   8.649   0.715  10.699  0.7233 -0.7984 -0.2142
   24MOL0     C 3154   8.919   0.804  10.699 -0.5782  0.0177  0.9960
   24MOL0     C 3155   9.051   0.841  10.678  0.1801 -0.8077  0.5339
   24MOL0     N 3156   9.684   0.988  10.270 -0.7168  0.3817 -0.3503
   24MOL0     N 3157   9.711   1.089  10.212  1.1283  0.1705 -0.1370
   24MOL0     C 3158  10.537   1.827  10.257 -0.1354 -0.2086  0.3130
   24MOL0     C 3159  10.664   1.866  10.214  0.3139 -1.1145  0.2283
   24MOL0     C 3160  11.095   2.068  10.322 -0.5987 -0.4679 -0.5589
   24MOL0     C 3161  11.209   2.047  10.412  0.8559 -0.2562 -0.0409
   24MOL0     C 3162  11.328   2.105  10.378  0.3304 -1.3071  0.1165
   24MOL0     C 3163  11.342   2.195  10.270  0.4455  0.0289 -0.2549
   24MOL0     O 3164  11.467   2.263  10.253 -0.3563  0.5428  0.1769
   24MOL0     C 3165  11.485   2.317  10.120  0.1789 -0.4012  0.3501
   24MOL0     C 3166  11.629   2.311  10.083  0.2806 -0.1542 -0.1019
   24MOL0     C 3167  11.668   2.398   9.963  0.0044 -0.0968  0.1297
   24MOL0     C 3168  11.810   2.466   9.984  0.5589  0.4271  0.2778
   24MOL0     C 3169  11.845   2.551   9.867 -0.3505  1.0734 -0.8115
   24MOL0     C 3170  11.858   2.627   9.777 -0.4378 -0.0496 -0.8630
   24MOL0     C 3171  11.234   2.225  10.192  0.3721  0.8018  0.4649
   24MOL0     C 3172  11.118   2.154  10.216 -0.5247 -0.4564  0.6203
   24MOL0     H 3173  10.700   2.113  10.449 -2.7358  0.3334  2.8731
   24MOL0     H 3174  10.494   2.014  10.534  2.8918  0.1845  1.7374
   24MOL0     H 3175  10.264   1.951  10.549  0.4924  2.1565 -1.9077
   24MOL0     H 3176  10.228   1.981  10.384  0.4555 -0.2321  0.4620
   24MOL0     H 3177  10.139   1.734  10.555  0.1234  2.1701  2.6368
   24MOL0     H 3178  10.037   1.869  10.499 -1.4044 -1.4278 -3.6367
   24MOL0     H 3179  10.079   1.820  10.265 -0.8546  1.8037  0.6478
   24MOL0     H 3180  10.165   1.666  10.309  1.2665  0.2730  2.2125
   24MOL0     H 3181   9.950   1.598  10.431  0.2612  0.4615  0.7704
   24MOL0     H 3182   9.876   1.738  10.362 -0.3802 -0.7182  3.3268
   24MOL0     H 3183   9.981   1.631  10.134 -0.6509 -1.4078 -1.1034
   24MOL0     H 3184   9.991   1.486  10.231  0.0792  0.2358 -0.4663
   24MOL0     H 3185   9.727   1.641  10.216 -0.5845 -0.6439  3.4293
   24MOL0     H 3186   9.776   1.533  10.084  2.2829  0.7877 -0.1693
   24MOL0     H 3187   9.707   1.455  10.362  0.4614  0.1985  0.4308
   24MOL0     H 3188   9.636   1.415  10.212 -0.2624 -0.5737  1.3884
   24MOL0     H 3189   9.900   1.324  10.324 -0.6514  0.3950  1.3365
   24MOL0     H 3190   9.861   1.297  10.150  1.6540 -1.1114  1.1457
   24MOL0     H 3191   9.760   1.188  10.519 -1.0831  1.4827 -0.8709
   24MOL0     H 3192   9.654   0.819  10.472 -0.9276 -0.5066  0.9768
   24MOL0     H 3193   9.776   0.893  10.571  0.5266  0.9845  0.1944
   24MOL0     H 3194   9.606   1.060  10.647  0.1456 -0.1408  0.3641
   24MOL0     H 3195   9.572   0.884  10.688  2.4155  0.4815 -0.1906
   24MOL0     H 3196   9.444   0.958  10.436  0.5883  1.0619 -0.1338
   24MOL0     H 3197   9.420   1.087  10.554 -0.8213  0.2272 -0.1600
   24MOL0     H 3198   9.336   0.906  10.719  0.2848 -0.4592  0.0128
   24MOL0     H 3199   9.317   0.793  10.587 -2.9041 -0.0644 -0.3657
   24MOL0     H 3200   9.022   1.086  10.456 -0.7983  0.8201  0.5443
   24MOL0     H 3201   8.803   1.145  10.404  0.8934 -0.8235 -0.4253
   24MOL0     H 3202   8.674   1.019  10.412  1.3870  0.1200 -1.0133
   24MOL0     H 3203   8.692   1.129  10.544  0.8403  4.3939 -1.4395
   24MOL0     H 3204   8.442   0.842  10.846  0.6796 -2.2799 -1.6647
   24MOL0     H 3205   8.180   0.823  10.840 -1.2638 -2.1895 -0.6060
   24MOL0     H 3206   7.949   0.964  10.501  3.5807 -0.7004  0.0640
   24MOL0     H 3207   7.981   0.801  10.442 -0.5279  0.7399 -0.3842
   24MOL0     H 3208   7.728   0.873  10.517  0.2628  0.8924  0.5412
   24MOL0     H 3209   7.797   0.704  10.546  0.7255 -0.3976 -1.5823
   24MOL0     H 3210   7.756   0.934  10.746 -1.4259  1.4991 -3.4226
   24MOL0     H 3211   7.833   0.780  10.783  0.8617  0.0378 -1.7996
   24MOL0     H 3212   7.554   0.818  10.641  1.6140  0.3803 -1.2785
   24MOL0     H 3213   7.620   0.662  10.701 -1.1838  0.1089 -0.3280
   24MOL0     H 3214   7.541   0.895  10.879  1.0028  0.2696  3.0078
   24MOL0     H 3215   7.641   0.773  10.940 -1.4050  2.4537  1.1230
   24MOL0     H 3216   7.370   0.717  10.811 -0.9998  0.7558  0.2084
   24MOL0     H 3217   7.485   0.592  10.877  3.2476  1.0882  1.0071
   24MOL0     H 3218   7.342   0.811  11.054  1.5649  0.3398  5.1201
   24MOL0     H 3219   7.464   0.688  11.110  0.6658  0.3125  0.3567
   24MOL0     H 3220   7.234   0.591  11.166 -0.1088 -2.5105 -0.2441
   24MOL0     H 3221   7.308   0.514  11.028 -1.4050  0.3735 -3.4352
   24MOL0     H 3222   8.200   0.927  10.422 -0.2870  1.0075  0.6298
   24MOL0     H 3223   8.423   0.940  10.430 -0.3232 -0.3242  0.3783
   24MOL0     H 3224   8.906   0.719  10.765  1.7043 -0.3067  1.1061
   24MOL0     H 3225   9.120   0.804  10.753  0.5927 -0.7817  0.1633
   24MOL0     H 3226  10.491   1.752  10.193  1.0740 -0.1888 -0.6321
   24MOL0     H 3227  10.726   1.816  10.140 -0.6669 -1.5617 -0.3307
   24MOL0     H 3228  11.196   1.967  10.484 -2.1324 -3.5368 -3.8044
   24MOL0     H 3229  11.415   2.088  10.440  0.3615 -2.2788 -0.1815
   24MOL0     H 3230  11.428   2.264  10.044 -0.6150 -0.5453  1.0242
   24MOL0     H 3231  11.444   2.419  10.122 -1.6756 -0.9357 -3.0174
   24MOL0     H 3232  11.644   2.206  10.054 -1.0573  0.3367 -2.8898
   24MOL0     H 3233  11.688   2.339  10.171 -1.5362 -0.0143  1.1244
   24MOL0     H 3234  11.591   2.472   9.940 -1.5896 -2.0355 -1.1415
   24MOL0     H 3235  11.670   2.327   9.879 -1.8494 -0.6637  0.5194
   24MOL0     H 3236  11.879   2.384  10.005  0.6623  0.8344  1.6060
   24MOL0     H 3237  11.799   2.523  10.076 -0.3760 -1.6863  1.5456
   24MOL0     H 3238  11.882   2.684   9.689 -2.2142  1.4089 -0.4696
   24MOL0     H 3239  11.230   2.301  10.115 -0.6132  0.4896  0.2016
   24MOL0     H 3240  11.039   2.170  10.143 -2.1487 -0.1178  2.3800
   25MOL0     O 3241   5.566  10.518   6.870  0.2766 -0.2100 -0.0140
   25MOL0     C 3242   5.560  10.627   6.928 -0.5067  0.1506 -0.0221
   25MOL0     O 3243   5.443  10.691   6.953 -0.6452 -0.2300  0.0843
   25MOL0     C 3244   5.332  10.669   6.887  0.1559 -0.5643  0.1328
   25MOL0     C 3245   5.335  10.649   6.741  1.0004 -0.0565 -0.9445
   25MOL0     C 3246   5.220  10.630   6.666 -0.2462 -0.6028  0.0880
   25MOL0     C 3247   5.098  10.635   6.735 -0.2207  0.2483 -0.3469
   25MOL0     O 3248   4.975  10.638   6.670 -0.1242 -0.0086 -0.4845
   25MOL0     C 3249   4.949  10.606   6.533  0.0800  0.0136  0.2858
   25MOL0     C 3250   4.809  10.561   6.505  0.5567 -0.5497  0.1344
   25MOL0     C 3251   4.703  10.670   6.545 -0.0936 -0.6694  1.0397
   25MOL0     C 3252   4.568  10.619   6.597 -0.4358 -0.8909  0.1154
   25MOL0     C 3253   4.576  10.564   6.744  0.5990 -0.5380  0.6087
   25MOL0     C 3254   4.441  10.495   6.787 -0.2367  0.5367 -0.1079
   25MOL0     C 3255   4.323  10.591   6.787  1.3590  0.0633 -0.8547
   25MOL0     C 3256   4.200  10.503   6.837 -1.1729 -0.3449  0.3447
   25MOL0     N 3257   4.076  10.577   6.827 -0.3053 -0.1173 -0.5388
   25MOL0     C 3258   4.015  10.648   6.926 -0.6717 -0.3513 -0.7703
   25MOL0     C 3259   3.921  10.712   6.867  0.7572 -0.0975  0.0003
   25MOL0     C 3260   3.824  10.806   6.925  0.3871  0.2563  0.5303
   25MOL0     C 3261   3.689  10.735   6.928  0.3864 -1.1020  0.5126
   25MOL0     C 3262   3.594  10.820   7.015  0.4927  0.5135  0.2796
   25MOL0     C 3263   3.453  10.796   6.962 -0.3185 -0.5691 -0.0358
   25MOL0     O 3264   3.371  10.898   7.022  0.7851 -0.1265  0.1283
   25MOL0     C 3265   3.236  10.859   7.029 -1.0126 -0.1535  0.0702
   25MOL0     C 3266   3.139  10.918   6.955  0.6911  0.1996 -0.2345
   25MOL0     C 3267   3.006  10.882   6.961  0.0513 -1.0404 -0.4241
   25MOL0     C 3268   2.910  10.958   6.870  0.1068 -0.4353  0.8136
   25MOL0     C 3269   2.967  10.778   7.049 -0.3004 -1.0062  0.5702
   25MOL0     C 3270   2.831  10.732   7.071  0.6010 -0.1626  0.1455
   25MOL0     O 3271   2.730  10.828   7.068  1.1015 -0.1492 -0.4066
   25MOL0     C 3272   2.603  10.792   7.042 -0.2511  0.1002  0.9049
   25MOL0     C 3273   2.558  10.672   6.989 -0.6541  0.0879  0.0719
   25MOL0     C 3274   2.426  10.639   6.962  0.2817 -0.4245 -0.3981
   25MOL0     C 3275   2.321  10.734   6.993  0.6853  0.0160  0.2132
   25MOL0     O 3276   2.190  10.701   6.968 -0.3426 -0.1870  0.1979
   25MOL0     C 3277   2.090  10.807   6.964 -0.2053  0.6626 -0.1931
   25MOL0     C 3278   2.017  10.835   7.096  0.2496 -1.0891  0.1286
   25MOL0     C 3279   1.947  10.975   7.116 -0.6241  0.1156 -0.4475
   25MOL0     C 3280   1.832  11.004   7.032  0.7083 -0.5429 -0.1380
   25MOL0     C 3281   1.696  10.952   7.084 -0.3604  0.2823  0.3328
   25MOL0     C 3282   1.587  10.966   6.978 -0.0954  0.1639 -0.3449
   25MOL0     C 3283   1.453  10.909   7.026  0.1485 -0.7341  0.2701
   25MOL0     C 3284   1.347  10.912   6.913 -0.6632 -0.6347 -0.4012
   25MOL0    Cl 3285   1.186  10.874   6.982  0.0604  0.7531  0.0550
   25MOL0     C 3286   2.367  10.857   7.048 -0.5499 -0.0282  0.1238
   25MOL0     C 3287   2.503  10.891   7.057  0.2058  0.0501 -0.0321
   25MOL0     O 3288   2.815  10.611   7.081  0.0589  0.2947 -0.2776
   25MOL0     C 3289   3.069  10.731   7.133  0.4262  0.2465 -0.0117
   25MOL0     C 3290   3.202  10.772   7.126 -0.3051 -0.1345 -0.1130
   25MOL0     N 3291   3.918  10.677   6.737 -0.1148 -0.0053 -0.3071
   25MOL0     N 3292   4.023  10.602   6.710  0.0854 -0.1720  0.1598
   25MOL0     C 3293   5.091  10.654   6.870 -0.2885  0.2988  0.0466
   25MOL0     C 3294   5.206  10.661   6.950  0.7942 -0.7497  1.1643
   25MOL0     C 3295   5.694  10.680   6.979  0.1633  0.0965 -0.6672
   25MOL0     C 3296   5.704  10.804   7.059  0.7931  0.4789  0.2021
   25MOL0     C 3297   5.825  10.860   7.098 -0.0923  1.0228  1.4872
   25MOL0     C 3298   5.944  10.797   7.050 -1.2379  0.4584  0.3369
   25MOL0     O 3299   6.069  10.848   7.068  0.5348 -0.0522  0.2373
   25MOL0     C 3300   6.095  10.966   7.142 -0.2407 -0.9888 -0.5769
   25MOL0     C 3301   6.111  11.086   7.052  0.3987 -0.1764  0.2671
   25MOL0     C 3302   6.161  11.211   7.122 -0.3703 -0.4083  0.9230
   25MOL0     C 3303   6.084  11.251   7.245  0.2160 -0.4074 -0.7391
   25MOL0     C 3304   5.938  11.261   7.219 -0.2604 -0.3284 -0.1980
   25MOL0     C 3305   5.817  11.272   7.194  0.7313 -0.1366  0.3329
   25MOL0     C 3306   5.934  10.674   6.980  0.1159  0.2810  0.4405
   25MOL0     C 3307   5.815  10.615   6.936  0.1788 -1.0360  0.2998
   25MOL0     H 3308   5.429  10.625   6.693  0.3959  0.7364 -2.5977
   25MOL0     H 3309   5.227  10.601   6.562  2.3091  1.0561 -0.2895
   25MOL0     H 3310   4.969  10.694   6.471  1.4102 -1.4999 -1.5700
   25MOL0     H 3311   5.018  10.521   6.522 -1.0203 -1.5545  3.9671
   25MOL0     H 3312   4.801  10.533   6.399 -5.1619 -2.5180  0.7337
   25MOL0     H 3313   4.781  10.463   6.546 -0.1975 -0.3815  0.0195
   25MOL0     H 3314   4.746  10.727   6.628  0.4036 -0.2381  0.4957
   25MOL0     H 3315   4.694  10.739   6.461  3.6122 -0.7267  0.4060
   25MOL0     H 3316   4.493  10.699   6.590  1.3284  0.7221 -1.5118
   25MOL0     H 3317   4.533  10.558   6.513 -2.1410  0.1251  0.0286
   25MOL0     H 3318   4.646  10.480   6.739  0.5694 -0.4934 -0.9951
   25MOL0     H 3319   4.610  10.635   6.820 -0.5059 -1.4295  1.9978
   25MOL0     H 3320   4.424  10.408   6.723  2.2337 -1.5098  1.7861
   25MOL0     H 3321   4.456  10.455   6.887  0.9112  0.7259 -0.1844
   25MOL0     H 3322   4.328  10.687   6.839 -1.5365  0.3793 -0.9579
   25MOL0     H 3323   4.297  10.628   6.688 -1.7165 -0.1933 -0.2726
   25MOL0     H 3324   4.216  10.480   6.943 -3.2772  0.4013  0.8707
   25MOL0     H 3325   4.196  10.412   6.776  1.9227  0.5206 -1.3466
   25MOL0     H 3326   4.044  10.655   7.031  2.4298 -0.7830 -1.5175
   25MOL0     H 3327   3.853  10.849   7.022 -1.3081  2.8633  0.0026
   25MOL0     H 3328   3.810  10.893   6.860 -1.4156  2.4537  3.5861
   25MOL0     H 3329   3.702  10.637   6.976  2.1442  0.0950  2.6205
   25MOL0     H 3330   3.655  10.729   6.824 -2.1998  0.7559  1.1531
   25MOL0     H 3331   3.614  10.927   7.011 -2.1296  1.0585  0.2112
   25MOL0     H 3332   3.590  10.786   7.118  0.6256 -1.4542 -0.3191
   25MOL0     H 3333   3.419  10.696   6.989 -0.4607  0.0654  2.3180
   25MOL0     H 3334   3.445  10.810   6.854  2.5762  1.8778 -0.0518
   25MOL0     H 3335   3.178  10.994   6.888 -0.9031  0.8139 -0.5172
   25MOL0     H 3336   2.825  10.899   6.835  1.3097 -0.5894 -2.2557
   25MOL0     H 3337   2.864  11.041   6.923  2.8123  0.5068  1.8604
   25MOL0     H 3338   2.958  11.008   6.785 -1.8440  3.0625  1.5902
   25MOL0     H 3339   2.619  10.588   6.958 -0.8792  0.8979 -2.8073
   25MOL0     H 3340   2.399  10.541   6.924 -1.0655 -1.5238  2.9489
   25MOL0     H 3341   2.132  10.902   6.928  0.9181 -0.6502 -2.5492
   25MOL0     H 3342   2.023  10.781   6.883 -1.2134 -1.1859  1.1672
   25MOL0     H 3343   1.947  10.754   7.119 -0.3757 -0.3580  0.8381
   25MOL0     H 3344   2.097  10.835   7.170 -0.3195 -1.0026  0.7511
   25MOL0     H 3345   2.022  11.054   7.106  0.3813 -1.0037 -2.3377
   25MOL0     H 3346   1.918  10.975   7.221  0.0271 -3.7408 -0.1335
   25MOL0     H 3347   1.826  11.113   7.023  2.0716 -0.5828 -2.0156
   25MOL0     H 3348   1.853  10.957   6.936 -0.0276  0.2696 -0.7084
   25MOL0     H 3349   1.674  11.002   7.178  1.9870 -1.1165  1.7292
   25MOL0     H 3350   1.707  10.845   7.107  0.7127  0.4998  0.8763
   25MOL0     H 3351   1.586  11.070   6.947  2.4067  0.2493 -0.3045
   25MOL0     H 3352   1.617  10.905   6.893 -1.5184 -0.2298 -0.6005
   25MOL0     H 3353   1.410  10.978   7.099 -1.8931 -1.8580  0.1979
   25MOL0     H 3354   1.466  10.811   7.073  1.6963  0.1891  1.8794
   25MOL0     H 3355   1.370  10.830   6.844 -2.1825 -2.1938  0.8454
   25MOL0     H 3356   1.344  10.995   6.841  0.1184  1.1782  1.5461
   25MOL0     H 3357   2.295  10.938   7.058  0.4969  1.1038 -1.2707
   25MOL0     H 3358   2.516  10.997   7.076  2.1265 -0.4296  1.7383
   25MOL0     H 3359   3.032  10.654   7.199 -1.6142  1.1580 -0.0091
   25MOL0     H 3360   3.285  10.729   7.180 -1.5816  0.6756  2.6821
   25MOL0     H 3361   4.989  10.661   6.907 -0.8768 -2.6622 -0.7622
   25MOL0     H 3362   5.195  10.675   7.057 -1.0012 -3.5652  1.4547
   25MOL0     H 3363   5.617  10.865   7.083  0.4302  0.3285 -0.6926
   25MOL0     H 3364   5.822  10.963   7.131 -0.3900  2.4280 -2.4427
   25MOL0     H 3365   6.009  10.992   7.205  1.0662  2.5725 -0.0142
   25MOL0     H 3366   6.186  10.971   7.201  0.1417  1.3955 -1.2558
   25MOL0     H 3367   6.020  11.102   6.994  1.3189 -0.6904 -1.4221
   25MOL0     H 3368   6.176  11.062   6.967 -0.5637 -0.8326 -0.2969
   25MOL0     H 3369   6.158  11.290   7.046  1.1761 -2.5925 -1.6330
   25MOL0     H 3370   6.268  11.203   7.146  0.2333  1.0124 -1.0040
   25MOL0     H 3371   6.117  11.337   7.304  1.3209 -1.7053  0.6239
   25MOL0     H 3372   6.099  11.171   7.318 -0.5165  2.1869  2.4779
   25MOL0     H 3373   5.714  11.294   7.177  0.3912 -0.3652  1.9029
   25MOL0     H 3374   6.019  10.620   6.939 -1.4133 -1.4805 -0.5959
   25MOL0     H 3375   5.818  10.526   6.874 -1.0231 -0.6962 -0.2713
   26MOL0     O 3376   6.383   9.708   8.680  0.7260  0.4363 -0.7377
   26MOL0     C 3377   6.364   9.826   8.661 -0.7921 -0.2444 -0.3913
   26MOL0     O 3378   6.246   9.893   8.646 -0.1201 -0.2186  0.3352
   26MOL0     C 3379   6.130   9.818   8.640  0.0492  0.9400  0.0392
   26MOL0     C 3380   6.026   9.864   8.721 -0.5329 -0.1664  0.6713
   26MOL0     C 3381   5.897   9.816   8.714  0.0724  0.2671 -0.0110
   26MOL0     C 3382   5.873   9.709   8.636 -0.6155  0.3524  0.7946
   26MOL0     O 3383   5.750   9.639   8.637 -0.0318 -0.3399 -0.0275
   26MOL0     C 3384   5.667   9.629   8.755 -0.7965  0.4266  0.8707
   26MOL0     C 3385   5.553   9.526   8.740 -0.4392  0.2265  0.2422
   26MOL0     C 3386   5.471   9.527   8.864 -0.2387 -0.1468  0.0726
   26MOL0     C 3387   5.374   9.406   8.877  0.5233  0.2605  0.6990
   26MOL0     C 3388   5.290   9.414   9.002 -0.6337  0.7600  0.3923
   26MOL0     C 3389   5.222   9.280   9.027  0.9781 -0.2866  0.1718
   26MOL0     C 3390   5.122   9.281   9.145 -1.4509  0.0837  0.3232
   26MOL0     C 3391   5.013   9.374   9.112 -0.6578  0.6150  0.3077
   26MOL0     N 3392   4.908   9.370   9.221 -0.0471 -0.7201  0.3135
   26MOL0     C 3393   4.863   9.478   9.300  0.3307 -0.0307  0.5021
   26MOL0     C 3394   4.746   9.431   9.350 -0.8878 -0.2075  0.1773
   26MOL0     C 3395   4.646   9.507   9.436  0.1770  0.2734 -0.3535
   26MOL0     C 3396   4.582   9.426   9.547 -0.1217  1.1262  0.6459
   26MOL0     C 3397   4.473   9.502   9.613  0.0911 -0.2999 -0.1027
   26MOL0     C 3398   4.396   9.403   9.697  0.8484 -0.0033 -0.2931
   26MOL0     O 3399   4.290   9.486   9.751  0.1224  0.6632  0.5389
   26MOL0     C 3400   4.195   9.421   9.823 -0.2949 -0.0276  0.1906
   26MOL0     C 3401   4.199   9.281   9.853  0.3480  0.2428  0.9322
   26MOL0     C 3402   4.094   9.217   9.920 -0.1047  0.4318 -0.5521
   26MOL0     C 3403   4.106   9.069   9.949  0.3361  0.7172 -0.6879
   26MOL0     C 3404   3.977   9.288   9.952  0.3438 -0.0046  0.8717
   26MOL0     C 3405   3.856   9.236  10.030 -1.0142  0.6672 -0.4644
   26MOL0     O 3406   3.755   9.320  10.047  0.1397  0.2180 -0.4425
   26MOL0     C 3407   3.640   9.285  10.118 -0.2332  0.1833 -0.6789
   26MOL0     C 3408   3.649   9.229  10.253 -0.2416  0.3774  0.2704
   26MOL0     C 3409   3.537   9.171  10.321  1.1540  0.0047  0.4967
   26MOL0     C 3410   3.407   9.172  10.256 -1.1826 -0.0758 -0.4729
   26MOL0     O 3411   3.307   9.098  10.326 -0.3902 -0.7744 -0.3263
   26MOL0     C 3412   3.174   9.114  10.277  0.4692  0.0246 -0.4913
   26MOL0     C 3413   3.087   9.000  10.337 -0.4000  0.1906 -0.5443
   26MOL0     C 3414   3.119   8.860  10.285 -0.1686 -0.1348 -0.0268
   26MOL0     C 3415   3.010   8.762  10.311  1.1383  0.0132 -1.1699
   26MOL0     C 3416   3.028   8.613  10.265 -0.1820 -0.9143  0.0281
   26MOL0     C 3417   3.041   8.609  10.114 -0.3451 -1.2664  0.6550
   26MOL0     C 3418   3.070   8.477  10.062 -0.0666  0.8495 -0.3778
   26MOL0     C 3419   3.119   8.480   9.915 -0.0401  0.0798 -0.2731
   26MOL0    Cl 3420   3.002   8.508   9.787  0.1876 -0.7308  0.2567
   26MOL0     C 3421   3.400   9.236  10.131  0.0527 -0.8579  0.0708
   26MOL0     C 3422   3.510   9.294  10.066  0.5745  0.7305  0.2613
   26MOL0     O 3423   3.854   9.114  10.058 -0.3188 -1.1358  0.8859
   26MOL0     C 3424   3.979   9.426   9.927 -0.4248 -0.1607 -0.2797
   26MOL0     C 3425   4.091   9.489   9.864  0.0563 -0.3831 -0.2642
   26MOL0     N 3426   4.731   9.304   9.307 -0.0912 -0.2925  0.5004
   26MOL0     N 3427   4.820   9.268   9.222  0.6132 -0.6744  0.5398
   26MOL0     C 3428   5.970   9.660   8.544 -0.8911  0.0846  0.5075
   26MOL0     C 3429   6.102   9.719   8.546 -0.2383 -0.2706 -0.0955
   26MOL0     C 3430   6.488   9.912   8.643  0.4910 -0.4988  0.4024
   26MOL0     C 3431   6.493  10.056   8.642 -0.8892 -0.3611  0.8658
   26MOL0     C 3432   6.608  10.133   8.624  0.1378  0.8391  0.1784
   26MOL0     C 3433   6.726  10.064   8.606 -0.0930 -0.5213 -0.3115
   26MOL0     O 3434   6.835  10.141   8.577  0.1966 -0.5295 -0.4770
   26MOL0     C 3435   6.958  10.082   8.545  0.0691 -0.2149  0.5049
   26MOL0     C 3436   7.055  10.200   8.535  0.4606  0.9177  0.0261
   26MOL0     C 3437   7.187  10.150   8.469  0.3076 -0.2429  0.2054
   26MOL0     C 3438   7.297  10.254   8.435 -0.3531 -0.5596 -0.2609
   26MOL0     C 3439   7.232  10.363   8.364 -0.8581  1.0028 -0.2862
   26MOL0     C 3440   7.181  10.445   8.299  0.7064 -0.0834 -0.2806
   26MOL0     C 3441   6.734   9.923   8.597 -0.2446 -0.2020 -0.1040
   26MOL0     C 3442   6.616   9.852   8.618 -0.0458  0.5361 -0.3262
   26MOL0     H 3443   6.052   9.943   8.791  2.0921  0.3766 -0.7919
   26MOL0     H 3444   5.822   9.865   8.777 -0.7627 -0.4278 -0.4541
   26MOL0     H 3445   5.724   9.583   8.837  1.0177  2.7811  1.0293
   26MOL0     H 3446   5.626   9.724   8.790 -1.4666  0.3403  0.3270
   26MOL0     H 3447   5.486   9.543   8.656  1.1606  3.2260 -0.5818
   26MOL0     H 3448   5.602   9.428   8.738 -1.9511 -0.5423 -1.3419
   26MOL0     H 3449   5.542   9.542   8.946 -0.5820  2.2616 -0.0051
   26MOL0     H 3450   5.410   9.617   8.860  0.3725  0.3875  1.9336
   26MOL0     H 3451   5.310   9.411   8.788  2.1277 -3.4139 -0.8937
   26MOL0     H 3452   5.429   9.314   8.857  1.4747  1.1088 -0.7495
   26MOL0     H 3453   5.348   9.432   9.093 -0.7606 -0.5357  0.7633
   26MOL0     H 3454   5.218   9.496   8.999 -0.6409  0.8537  2.0478
   26MOL0     H 3455   5.174   9.250   8.933  1.1637  0.1610 -0.0711
   26MOL0     H 3456   5.300   9.207   9.050 -0.4283 -1.7755  0.3997
   26MOL0     H 3457   5.086   9.180   9.165 -2.5726  0.6856  1.4543
   26MOL0     H 3458   5.180   9.318   9.230  1.8040  0.4960 -1.8502
   26MOL0     H 3459   4.974   9.337   9.017  0.8695 -0.9549  0.2519
   26MOL0     H 3460   5.053   9.476   9.106  0.4274  0.2588  1.1655
   26MOL0     H 3461   4.913   9.573   9.318  1.9900 -0.7281 -0.2200
   26MOL0     H 3462   4.696   9.595   9.478  1.7637  0.4227 -2.4134
   26MOL0     H 3463   4.569   9.552   9.373  0.0421  0.1706 -0.2604
   26MOL0     H 3464   4.668   9.398   9.609  0.8412  1.2613 -0.6017
   26MOL0     H 3465   4.538   9.338   9.500 -0.3066  2.0421 -0.9520
   26MOL0     H 3466   4.403   9.534   9.536 -1.6748 -2.3695  0.5321
   26MOL0     H 3467   4.521   9.582   9.670  1.5840 -1.6069  0.5473
   26MOL0     H 3468   4.449   9.363   9.784 -1.6534 -0.4294  1.1192
   26MOL0     H 3469   4.355   9.320   9.638  1.0674 -1.6480  1.7642
   26MOL0     H 3470   4.286   9.226   9.819  0.7395  1.5225 -0.2581
   26MOL0     H 3471   4.191   9.036   9.888  0.5420 -0.6625  0.2991
   26MOL0     H 3472   4.126   9.046  10.054  0.0090 -0.2068 -0.8194
   26MOL0     H 3473   4.015   9.019   9.916  1.1435 -1.1827 -0.1202
   26MOL0     H 3474   3.753   9.224  10.285  0.6710 -0.0585 -2.5238
   26MOL0     H 3475   3.539   9.138  10.425 -2.0585  2.6222  1.5593
   26MOL0     H 3476   3.134   9.209  10.312  0.4126  0.7958 -2.5578
   26MOL0     H 3477   3.169   9.104  10.168 -1.5440  1.8059 -0.6032
   26MOL0     H 3478   3.105   9.008  10.445  0.2867  1.1577 -0.7198
   26MOL0     H 3479   2.980   9.016  10.319 -0.4311  0.0592 -0.4804
   26MOL0     H 3480   3.213   8.817  10.321 -0.6548 -2.1974 -1.0895
   26MOL0     H 3481   3.131   8.869  10.176 -2.1751  2.2925 -0.1425
   26MOL0     H 3482   2.996   8.765  10.420  0.9615 -1.8162 -1.1181
   26MOL0     H 3483   2.912   8.792  10.273  0.8110  1.3381  0.5946
   26MOL0     H 3484   2.933   8.561  10.284  0.3632 -1.7179  0.6391
   26MOL0     H 3485   3.113   8.570  10.319  0.5926  0.0464 -0.4010
   26MOL0     H 3486   2.951   8.638  10.059 -0.4906 -0.2618  1.3790
   26MOL0     H 3487   3.121   8.676  10.079 -1.8750  0.5334  0.4390
   26MOL0     H 3488   2.989   8.406  10.081 -0.7171  2.2014  2.3681
   26MOL0     H 3489   3.150   8.431  10.120 -0.0918 -0.1412 -1.1092
   26MOL0     H 3490   3.172   8.386   9.897  0.4609  0.3716 -0.3139
   26MOL0     H 3491   3.198   8.552   9.895 -0.5040  0.0027 -2.7236
   26MOL0     H 3492   3.304   9.248  10.082  0.8923  2.2022 -1.0198
   26MOL0     H 3493   3.492   9.354   9.977  4.3812  1.1130 -0.4364
   26MOL0     H 3494   3.901   9.491   9.965  0.8961  0.4231  1.5811
   26MOL0     H 3495   4.077   9.595   9.845 -2.0945 -0.6405 -0.4520
   26MOL0     H 3496   5.952   9.584   8.469  2.6828  2.0003 -2.6753
   26MOL0     H 3497   6.177   9.698   8.470 -2.0301  0.5966 -2.2133
   26MOL0     H 3498   6.404  10.114   8.664 -0.8800  0.2049 -0.4870
   26MOL0     H 3499   6.601  10.241   8.629 -0.6812  0.7578  1.0848
   26MOL0     H 3500   6.995  10.022   8.629  2.0542 -1.6281 -1.2631
   26MOL0     H 3501   6.966  10.027   8.451  0.9755  2.7617 -1.3165
   26MOL0     H 3502   7.068  10.233   8.639  2.3749  1.6110 -0.3968
   26MOL0     H 3503   7.007  10.282   8.480 -2.5357  0.4672  1.7362
   26MOL0     H 3504   7.166  10.095   8.376  1.5679  3.1842 -2.3229
   26MOL0     H 3505   7.237  10.072   8.527 -0.1976 -1.0941 -0.4796
   26MOL0     H 3506   7.380  10.204   8.383 -0.2044 -0.8832  0.2853
   26MOL0     H 3507   7.337  10.286   8.531 -1.9473 -0.5011  0.4141
   26MOL0     H 3508   7.123  10.517   8.244 -3.3720 -3.2904 -0.7596
   26MOL0     H 3509   6.825   9.868   8.576  0.6926  1.1029  0.4612
   26MOL0     H 3510   6.615   9.744   8.613 -1.8278  0.5265 -0.7054
   27MOL0     O 3511   8.005  11.284   7.129  0.4555 -0.2515 -0.1072
   27MOL0     C 3512   8.094  11.361   7.157  0.5121 -0.5821 -0.4343
   27MOL0     O 3513   8.086  11.495   7.190  0.0716  0.2617  0.3347
   27MOL0     C 3514   7.965  11.544   7.231 -0.1407  1.2057  0.4570
   27MOL0     C 3515   7.876  11.585   7.135 -0.3367 -0.2072  0.5969
   27MOL0     C 3516   7.748  11.629   7.173  1.1190 -0.0965 -0.2284
   27MOL0     C 3517   7.716  11.656   7.307 -0.1548  0.4853 -0.4682
   27MOL0     O 3518   7.600  11.726   7.349 -0.1902  0.1225 -0.2671
   27MOL0     C 3519   7.487  11.701   7.267 -0.0473 -1.2196  0.0390
   27MOL0     C 3520   7.355  11.766   7.322  0.8298  0.8236 -0.8398
   27MOL0     C 3521   7.336  11.775   7.481  0.0644  0.5954  0.0283
   27MOL0     C 3522   7.204  11.857   7.506 -0.5986  0.2578 -0.1517
   27MOL0     C 3523   7.176  11.859   7.662 -0.8636  0.0869  0.7243
   27MOL0     C 3524   7.058  11.953   7.704 -1.0561 -0.4062  0.6039
   27MOL0     C 3525   6.926  11.930   7.628 -1.1657 -0.0144 -0.2077
   27MOL0     C 3526   6.805  12.003   7.696  0.0228 -0.3940  0.9747
   27MOL0     N 3527   6.687  11.974   7.604 -0.2253  0.0491  0.7448
   27MOL0     C 3528   6.621  12.068   7.534  0.3782 -0.1004  0.5282
   27MOL0     C 3529   6.536  11.999   7.467 -0.2588  0.7098 -0.2899
   27MOL0     C 3530   6.443  12.059   7.363  1.1965  0.2850 -0.1744
   27MOL0     C 3531   6.294  12.046   7.393 -0.1534 -0.2104  0.6682
   27MOL0     C 3532   6.204  12.093   7.266 -0.5168 -0.1722 -1.1592
   27MOL0     C 3533   6.063  12.128   7.314 -0.1318 -0.0700  0.7077
   27MOL0     O 3534   6.010  12.028   7.392 -0.0507 -0.4330  0.6099
   27MOL0     C 3535   5.882  12.032   7.443 -0.2381 -0.4123  0.6115
   27MOL0     C 3536   5.793  12.137   7.408  0.5362 -0.0268 -0.1909
   27MOL0     C 3537   5.666  12.148   7.472 -0.3278  0.2915 -0.1771
   27MOL0     C 3538   5.593  12.271   7.428  0.0222 -0.0207 -0.5067
   27MOL0     C 3539   5.626  12.056   7.568  0.4606 -0.0844 -0.0841
   27MOL0     C 3540   5.504  12.061   7.664 -0.0189 -0.0519 -0.0087
   27MOL0     O 3541   5.473  11.962   7.753 -0.0057  0.3943  0.3477
   27MOL0     C 3542   5.363  11.967   7.836 -0.7574 -0.0169  0.0403
   27MOL0     C 3543   5.235  11.997   7.789  0.6706  0.4743  0.4606
   27MOL0     C 3544   5.124  12.003   7.875  0.2878 -0.1642 -1.0268
   27MOL0     C 3545   5.139  11.998   8.011  0.3519 -0.5988  0.2018
   27MOL0     O 3546   5.031  12.001   8.090  0.4465 -0.0279 -0.1907
   27MOL0     C 3547   5.037  12.051   8.225 -0.2459  0.1122 -0.9465
   27MOL0     C 3548   5.025  11.948   8.339  0.2349 -0.3325  0.5652
   27MOL0     C 3549   4.880  11.925   8.387  0.0042 -0.2628  0.4306
   27MOL0     C 3550   4.778  11.942   8.289  0.3075  0.5465  0.5585
   27MOL0     C 3551   4.643  11.920   8.358 -0.2617 -0.0605  1.0465
   27MOL0     C 3552   4.543  11.973   8.256  0.0746  0.2090  0.1891
   27MOL0     C 3553   4.402  11.950   8.305 -1.0699 -1.1326  0.5284
   27MOL0     C 3554   4.297  12.023   8.214  0.3488 -0.2440 -0.0843
   27MOL0    Cl 3555   4.133  11.994   8.281  0.2885  0.4729  0.0763
   27MOL0     C 3556   5.267  11.969   8.060 -0.2133  0.1655  0.9117
   27MOL0     C 3557   5.379  11.953   7.969 -0.0198  0.1518  0.0580
   27MOL0     O 3558   5.431  12.159   7.648  0.4389 -0.1026  0.2610
   27MOL0     C 3559   5.707  11.941   7.591 -0.2121  0.2385 -0.2844
   27MOL0     C 3560   5.832  11.931   7.526  0.4204 -0.0957 -0.7093
   27MOL0     N 3561   6.542  11.863   7.495 -0.1579 -0.5876  0.2116
   27MOL0     N 3562   6.634  11.847   7.577 -0.1787 -0.0994 -0.2696
   27MOL0     C 3563   7.822  11.624   7.398  0.6219 -0.6027  0.3065
   27MOL0     C 3564   7.937  11.557   7.369  0.1268  0.4008 -0.0466
   27MOL0     C 3565   8.228  11.304   7.160 -0.4449  0.6054  0.0956
   27MOL0     C 3566   8.253  11.166   7.169  0.3603 -0.0297 -0.3456
   27MOL0     C 3567   8.377  11.111   7.185  0.5592 -0.1215  0.4390
   27MOL0     C 3568   8.486  11.198   7.215 -0.1286 -0.2570  0.0887
   27MOL0     O 3569   8.618  11.152   7.239 -0.2111  0.6557  0.3403
   27MOL0     C 3570   8.647  11.015   7.255 -0.7752  0.4708 -0.3361
   27MOL0     C 3571   8.788  10.986   7.313 -0.1200 -0.1145 -0.0004
   27MOL0     C 3572   8.900  11.020   7.216  0.2556  0.8793  0.1181
   27MOL0     C 3573   9.030  10.937   7.251  0.3595  0.2527  0.0507
   27MOL0     C 3574   9.152  11.028   7.223  0.5578  0.4019 -0.2834
   27MOL0     C 3575   9.241  11.102   7.220  0.5250 -0.7435  0.1168
   27MOL0     C 3576   8.461  11.333   7.194 -0.5609 -0.3267 -0.3201
   27MOL0     C 3577   8.344  11.388   7.179  0.6122  0.4030 -0.1653
   27MOL0     H 3578   7.905  11.588   7.030  1.5207 -1.4535  1.0243
   27MOL0     H 3579   7.681  11.669   7.098 -0.6837  0.0251  1.3469
   27MOL0     H 3580   7.506  11.736   7.165 -1.9259  0.8326  0.3141
   27MOL0     H 3581   7.463  11.595   7.257 -2.7869 -0.5823 -1.2644
   27MOL0     H 3582   7.346  11.867   7.281  1.5041 -0.1408 -3.5302
   27MOL0     H 3583   7.275  11.702   7.284  3.4197 -1.9925 -1.9992
   27MOL0     H 3584   7.331  11.672   7.517  2.1085 -0.7930 -3.1623
   27MOL0     H 3585   7.422  11.819   7.532 -0.0029 -0.0043  0.6668
   27MOL0     H 3586   7.222  11.956   7.463  3.8180 -0.7619 -1.1438
   27MOL0     H 3587   7.117  11.815   7.454  0.7776 -0.0027 -2.3542
   27MOL0     H 3588   7.163  11.755   7.693  0.6067 -0.8835 -1.5800
   27MOL0     H 3589   7.264  11.890   7.718 -0.5160 -1.8025  1.2832
   27MOL0     H 3590   7.030  11.941   7.809 -1.3508  0.3428  0.6146
   27MOL0     H 3591   7.087  12.056   7.686  0.1759 -0.6947  0.8797
   27MOL0     H 3592   6.942  11.952   7.522  1.5468  1.8401  0.4758
   27MOL0     H 3593   6.919  11.821   7.639  0.6190 -0.2837 -1.3593
   27MOL0     H 3594   6.813  12.112   7.692 -2.8095 -0.1386 -0.3428
   27MOL0     H 3595   6.791  11.964   7.797  0.1299  1.0701  1.5761
   27MOL0     H 3596   6.629  12.176   7.542  1.3528  0.0189 -1.5633
   27MOL0     H 3597   6.464  12.166   7.346  2.0306  0.4176  1.5132
   27MOL0     H 3598   6.460  12.015   7.265 -3.4132  0.1708 -1.1421
   27MOL0     H 3599   6.276  12.113   7.477 -1.5147  0.9605 -0.4933
   27MOL0     H 3600   6.269  11.942   7.417 -3.1429 -0.1689 -1.6754
   27MOL0     H 3601   6.198  12.007   7.200  3.8786  0.1476 -2.2832
   27MOL0     H 3602   6.242  12.183   7.217 -0.1223 -0.9549 -2.3295
   27MOL0     H 3603   5.989  12.144   7.235  0.2390  0.2428  0.4221
   27MOL0     H 3604   6.068  12.220   7.372 -1.9402 -1.0313  2.5181
   27MOL0     H 3605   5.815  12.206   7.328 -2.5197 -0.8115 -1.8529
   27MOL0     H 3606   5.486  12.261   7.406 -0.5993  0.6316  1.8806
   27MOL0     H 3607   5.612  12.341   7.511  0.0090 -0.1280 -0.4135
   27MOL0     H 3608   5.640  12.315   7.340  0.2052 -2.0770 -1.4965
   27MOL0     H 3609   5.212  11.989   7.683  0.6173 -2.5772  0.6136
   27MOL0     H 3610   5.029  12.008   7.823 -0.6058 -1.1253  0.4327
   27MOL0     H 3611   5.130  12.106   8.243 -1.2021  1.6114 -0.3521
   27MOL0     H 3612   4.961  12.130   8.232 -0.5052 -0.1814 -0.3991
   27MOL0     H 3613   5.077  11.853   8.324 -0.7111 -1.0923  1.8638
   27MOL0     H 3614   5.071  11.994   8.427 -2.1008  0.5666  1.4136
   27MOL0     H 3615   4.853  11.992   8.469  0.0207  1.0187 -0.5709
   27MOL0     H 3616   4.872  11.820   8.417 -1.0562  0.6388  3.6721
   27MOL0     H 3617   4.785  12.039   8.237  1.5419 -0.5239 -1.4007
   27MOL0     H 3618   4.784  11.873   8.204 -0.7631  0.9436  0.1376
   27MOL0     H 3619   4.625  11.971   8.453  2.5647 -0.5265  1.9248
   27MOL0     H 3620   4.638  11.812   8.375  1.5378 -0.5311 -0.9709
   27MOL0     H 3621   4.554  12.081   8.249 -0.9986  0.5654  2.8116
   27MOL0     H 3622   4.562  11.921   8.162  1.4016  0.5013  0.2692
   27MOL0     H 3623   4.396  11.989   8.408  1.6628  0.6431  0.1034
   27MOL0     H 3624   4.370  11.847   8.320 -3.5211 -0.1623  2.8555
   27MOL0     H 3625   4.293  11.975   8.115  0.5974  0.2286 -0.3274
   27MOL0     H 3626   4.328  12.127   8.203  4.4730 -1.2571  0.4275
   27MOL0     H 3627   5.287  11.947   8.165  1.9284  2.8406  1.1946
   27MOL0     H 3628   5.478  11.932   8.011  0.0281  1.0744  0.4183
   27MOL0     H 3629   5.679  11.862   7.661 -1.4237 -0.3220 -1.3711
   27MOL0     H 3630   5.893  11.845   7.553  1.6551 -0.2076 -3.5291
   27MOL0     H 3631   7.805  11.635   7.505  0.9750 -1.6455  0.4871
   27MOL0     H 3632   8.006  11.531   7.449  1.3409  0.8599 -0.9087
   27MOL0     H 3633   8.174  11.095   7.149  1.4694 -2.0030  1.7371
   27MOL0     H 3634   8.373  11.002   7.177 -0.6694 -0.1573  1.2718
   27MOL0     H 3635   8.580  10.985   7.335 -1.2972 -2.8744 -1.8417
   27MOL0     H 3636   8.650  10.956   7.162 -1.5203  0.4222 -0.3322
   27MOL0     H 3637   8.784  10.881   7.345  1.5041 -0.2769 -0.2556
   27MOL0     H 3638   8.812  11.043   7.403  2.7496 -1.3080  0.0977
   27MOL0     H 3639   8.919  11.127   7.218  0.2346  0.8817  0.1720
   27MOL0     H 3640   8.864  10.988   7.118 -1.7292 -1.7946  1.5628
   27MOL0     H 3641   9.022  10.853   7.182  0.2086 -3.9819  4.6951
   27MOL0     H 3642   9.026  10.901   7.354 -2.6498 -0.5099 -0.2229
   27MOL0     H 3643   9.330  11.160   7.230 -1.4755  2.9369 -1.6192
   27MOL0     H 3644   8.544  11.396   7.226 -2.4143 -0.0729  4.8453
   27MOL0     H 3645   8.323  11.495   7.173 -0.0175  0.3230  0.4933
   28MOL0     O 3646   3.986  10.527   0.724 -0.2743 -0.2597  0.1587
   28MOL0     C 3647   3.972  10.420   0.786 -0.0779  0.4171  0.5489
   28MOL0     O 3648   3.867  10.382   0.861 -0.5293  0.5288  0.2636
   28MOL0     C 3649   3.769  10.473   0.871  0.2506 -0.2731  0.4944
   28MOL0     C 3650   3.788  10.580   0.955 -0.1447 -0.6642 -0.2603
   28MOL0     C 3651   3.695  10.679   0.967  0.0954  0.0560 -0.4091
   28MOL0     C 3652   3.580  10.675   0.890 -0.2934  0.2799 -0.0231
   28MOL0     O 3653   3.472  10.768   0.884 -0.5156 -0.0992  0.0668
   28MOL0     C 3654   3.499  10.903   0.923  0.4189  0.1254 -0.3429
   28MOL0     C 3655   3.396  11.009   0.878 -0.1475 -0.5999  0.6720
   28MOL0     C 3656   3.252  10.966   0.915  0.6858 -0.0805 -0.9878
   28MOL0     C 3657   3.225  10.947   1.068 -0.4994 -0.4759 -0.1397
   28MOL0     C 3658   3.084  10.910   1.084  0.3754 -0.3907  0.0177
   28MOL0     C 3659   3.034  10.917   1.237 -0.2522 -0.1027 -0.2044
   28MOL0     C 3660   2.883  10.902   1.244  0.4780 -0.1594  0.4382
   28MOL0     C 3661   2.832  10.905   1.389 -0.1426  0.4052 -1.1227
   28MOL0     N 3662   2.688  10.879   1.394  0.6185  0.2011  0.4159
   28MOL0     C 3663   2.588  10.971   1.419  0.5825  0.4799 -0.9522
   28MOL0     C 3664   2.477  10.893   1.430 -0.4317 -1.3187 -0.9132
   28MOL0     C 3665   2.340  10.942   1.476 -0.0580  0.5309  0.2122
   28MOL0     C 3666   2.344  10.976   1.623  0.0845 -0.2539 -0.7179
   28MOL0     C 3667   2.227  11.070   1.650  0.0840  0.4826  0.0249
   28MOL0     C 3668   2.088  11.007   1.665  0.5241  0.0238 -0.4478
   28MOL0     O 3669   2.096  10.873   1.708  0.1513 -0.0649  0.6706
   28MOL0     C 3670   1.981  10.796   1.711  0.1807  0.3967  0.3968
   28MOL0     C 3671   1.851  10.840   1.704 -0.9808 -0.3743  0.4356
   28MOL0     C 3672   1.741  10.757   1.692  0.2569  0.3203 -0.4543
   28MOL0     C 3673   1.612  10.833   1.688  0.3221 -0.0042  0.3689
   28MOL0     C 3674   1.753  10.617   1.698  0.3466  0.6806  0.8063
   28MOL0     C 3675   1.644  10.527   1.710  0.1132  0.0569  0.2457
   28MOL0     O 3676   1.667  10.411   1.772  0.2803 -0.3349  0.1797
   28MOL0     C 3677   1.564  10.316   1.770  0.1301 -0.1430  0.5460
   28MOL0     C 3678   1.509  10.283   1.647 -0.0492  0.3748 -0.3028
   28MOL0     C 3679   1.388  10.213   1.645 -0.3801  0.0622 -0.2192
   28MOL0     C 3680   1.325  10.182   1.767  0.2114  0.2850  0.0836
   28MOL0     O 3681   1.203  10.122   1.773 -0.2009 -0.0521 -0.4027
   28MOL0     C 3682   1.155  10.048   1.663 -0.0874  0.3412  0.0757
   28MOL0     C 3683   1.020   9.975   1.691  0.2791 -1.1424  0.8379
   28MOL0     C 3684   0.923  10.067   1.766 -0.2821  0.2034  0.1591
   28MOL0     C 3685   0.899  10.207   1.705  0.0479 -0.4867  0.6118
   28MOL0     C 3686   0.790  10.307   1.762  0.9368 -0.5482  0.7525
   28MOL0     C 3687   0.649  10.258   1.732  0.0134 -0.1496  0.2596
   28MOL0     C 3688   0.546  10.351   1.790  0.4940  0.6772 -0.3166
   28MOL0     C 3689   0.398  10.329   1.735  0.7061  0.0659  0.6558
   28MOL0    Cl 3690   0.304  10.484   1.716 -0.3476  0.1633  0.7008
   28MOL0     C 3691   1.395  10.201   1.883  0.2729 -0.1403 -0.1984
   28MOL0     C 3692   1.510  10.265   1.886 -0.1126 -0.9857 -0.4811
   28MOL0     O 3693   1.534  10.568   1.675 -0.3450 -0.0773  0.4140
   28MOL0     C 3694   1.888  10.569   1.708  0.2639 -0.0281 -0.0385
   28MOL0     C 3695   1.998  10.658   1.721  0.4030 -0.3874 -0.3135
   28MOL0     N 3696   2.501  10.758   1.407 -0.4009  0.1182 -0.3163
   28MOL0     N 3697   2.629  10.748   1.387  0.9347  0.1775  1.0679
   28MOL0     C 3698   3.556  10.566   0.808  0.5431 -0.0602  0.3073
   28MOL0     C 3699   3.650  10.461   0.797 -0.1504 -0.1050  0.1671
   28MOL0     C 3700   4.089  10.327   0.787  0.0522  1.0868  0.2151
   28MOL0     C 3701   4.096  10.210   0.856  0.1185 -0.0201 -0.4511
   28MOL0     C 3702   4.210  10.128   0.857  0.5810 -0.4475  0.2301
   28MOL0     C 3703   4.331  10.173   0.805 -0.3236 -0.4394  0.3478
   28MOL0     O 3704   4.447  10.097   0.824  0.1018  0.4983  0.1207
   28MOL0     C 3705   4.578  10.134   0.781 -0.2776 -0.4871  0.3370
   28MOL0     C 3706   4.676  10.033   0.818  0.1122 -0.0332 -0.5338
   28MOL0     C 3707   4.707   9.925   0.717  0.8355 -0.2489  0.6690
   28MOL0     C 3708   4.809   9.825   0.773 -0.4454 -0.5823 -0.5178
   28MOL0     C 3709   4.948   9.876   0.781  0.8069  0.2494  0.7107
   28MOL0     C 3710   5.053   9.929   0.787  0.2063  0.3165  0.1426
   28MOL0     C 3711   4.327  10.290   0.726 -0.0160 -0.6932 -0.3690
   28MOL0     C 3712   4.212  10.367   0.719  0.2679  1.5271 -0.3057
   28MOL0     H 3713   3.880  10.574   1.011  0.8976 -1.9740 -2.0106
   28MOL0     H 3714   3.708  10.766   1.032 -1.7940 -2.4613  3.7715
   28MOL0     H 3715   3.511  10.902   1.031 -1.4504 -0.2416 -0.0963
   28MOL0     H 3716   3.589  10.933   0.868 -0.0268 -1.1253 -1.8440
   28MOL0     H 3717   3.427  11.101   0.928 -1.1336 -0.2273  0.6050
   28MOL0     H 3718   3.398  11.023   0.769  0.4855  0.0734  0.7595
   28MOL0     H 3719   3.186  11.051   0.894  0.0052  0.4635  2.6597
   28MOL0     H 3720   3.219  10.884   0.850 -0.2503 -0.9411  0.5235
   28MOL0     H 3721   3.293  10.874   1.112  2.1310  1.2470 -1.0908
   28MOL0     H 3722   3.242  11.041   1.121 -1.4429 -1.2087  1.5422
   28MOL0     H 3723   3.028  10.981   1.024  0.2631 -2.6887 -2.7970
   28MOL0     H 3724   3.064  10.812   1.041  3.7667 -0.9308 -0.6383
   28MOL0     H 3725   3.096  10.840   1.285  1.2545 -0.0719 -1.9653
   28MOL0     H 3726   3.066  11.012   1.281 -2.8103  0.3646  0.8244
   28MOL0     H 3727   2.841  10.982   1.182  0.8602  0.4185  0.9165
   28MOL0     H 3728   2.857  10.808   1.195  2.7594 -1.8395  2.2191
   28MOL0     H 3729   2.856  10.994   1.447  0.2715 -0.3862 -0.0389
   28MOL0     H 3730   2.889  10.836   1.452 -0.0038  1.4918 -0.0141
   28MOL0     H 3731   2.586  11.079   1.431  1.3075  0.4885 -0.8847
   28MOL0     H 3732   2.295  11.016   1.409  1.3405 -0.0943 -1.4831
   28MOL0     H 3733   2.279  10.855   1.451 -0.8688  1.4759 -1.1973
   28MOL0     H 3734   2.437  11.029   1.647 -0.3589 -0.3058  1.2646
   28MOL0     H 3735   2.330  10.883   1.679  0.1051 -0.8974 -1.7458
   28MOL0     H 3736   2.213  11.141   1.569 -1.1941 -0.5547 -0.6972
   28MOL0     H 3737   2.249  11.135   1.735  0.8767 -2.6287  2.4041
   28MOL0     H 3738   2.033  11.001   1.571  1.1198  0.4234 -0.8240
   28MOL0     H 3739   2.038  11.072   1.738  0.6164 -0.2329 -0.1505
   28MOL0     H 3740   1.845  10.948   1.696  2.2891 -0.1127  0.1759
   28MOL0     H 3741   1.633  10.940   1.696  3.3421 -0.1670 -2.7335
   28MOL0     H 3742   1.567  10.820   1.589 -0.7692  2.3882  0.4732
   28MOL0     H 3743   1.542  10.798   1.764  0.8235 -1.4783  0.1843
   28MOL0     H 3744   1.556  10.318   1.556  2.1341 -0.8004  0.2969
   28MOL0     H 3745   1.340  10.191   1.550 -0.1673  1.4685 -0.6792
   28MOL0     H 3746   1.139  10.111   1.575  1.4270 -0.4853 -0.8275
   28MOL0     H 3747   1.231   9.974   1.635  2.3719  1.7918  2.5136
   28MOL0     H 3748   0.974   9.954   1.594  0.0447  0.5665  0.5425
   28MOL0     H 3749   1.036   9.879   1.740  0.1503 -1.1789  0.8107
   28MOL0     H 3750   0.952  10.077   1.871 -2.7959 -2.9569  1.2903
   28MOL0     H 3751   0.828  10.014   1.760  0.6607 -1.7149  1.4139
   28MOL0     H 3752   0.995  10.256   1.721  1.2350 -2.4937  0.0054
   28MOL0     H 3753   0.890  10.200   1.596 -2.0889  0.6171  0.6680
   28MOL0     H 3754   0.805  10.410   1.730 -4.6163  0.0784 -0.8214
   28MOL0     H 3755   0.799  10.325   1.869  1.0114  1.1441  0.4902
   28MOL0     H 3756   0.629  10.230   1.628 -1.5977 -0.5743  0.6576
   28MOL0     H 3757   0.637  10.167   1.790 -0.1539  1.2239  2.5116
   28MOL0     H 3758   0.577  10.454   1.770  4.0112 -0.1913  0.1065
   28MOL0     H 3759   0.548  10.338   1.899 -0.4898 -2.1238 -0.5457
   28MOL0     H 3760   0.349  10.255   1.799 -1.5586  0.1890 -0.7986
   28MOL0     H 3761   0.402  10.271   1.642 -0.7737 -1.6210  1.5690
   28MOL0     H 3762   1.350  10.159   1.972 -1.2144 -0.5798 -1.1109
   28MOL0     H 3763   1.559  10.284   1.981 -0.2615  0.6983 -0.7053
   28MOL0     H 3764   1.916  10.465   1.697  4.0053  0.9703 -1.3104
   28MOL0     H 3765   2.101  10.624   1.733  0.3798 -0.4170 -0.2000
   28MOL0     H 3766   3.470  10.562   0.741  0.4823  1.8283  0.2297
   28MOL0     H 3767   3.630  10.379   0.728  0.8167 -0.4888  0.3191
   28MOL0     H 3768   4.020  10.187   0.930  0.7015 -0.3332  0.0597
   28MOL0     H 3769   4.200  10.033   0.909 -1.9958  1.2266  3.1126
   28MOL0     H 3770   4.588  10.166   0.677  0.9779 -0.1894  0.5308
   28MOL0     H 3771   4.606  10.217   0.847  1.4082 -0.6503 -0.1104
   28MOL0     H 3772   4.652   9.980   0.911 -0.1783 -1.4543 -1.3854
   28MOL0     H 3773   4.771  10.084   0.834 -0.6434  0.5140  2.9316
   28MOL0     H 3774   4.731   9.967   0.618 -0.3033 -0.7222  0.1692
   28MOL0     H 3775   4.615   9.866   0.703  2.5450 -2.5460 -2.3692
   28MOL0     H 3776   4.819   9.738   0.708 -0.3673 -0.8657 -0.1269
   28MOL0     H 3777   4.768   9.789   0.867 -2.4016  0.8728 -0.7486
   28MOL0     H 3778   5.147   9.979   0.774  1.2885 -1.5847  0.2572
   28MOL0     H 3779   4.420  10.328   0.685  0.9751  0.9213  2.9743
   28MOL0     H 3780   4.215  10.454   0.654  1.3636  0.6783 -1.4324
   29MOL0     O 3781   2.002   4.156   8.526  0.0011 -0.7773 -0.2449
   29MOL0     C 3782   2.033   4.041   8.508  0.2585 -0.6914 -0.8046
   29MOL0     O 3783   1.963   3.947   8.443 -0.1791 -0.2941  0.7973
   29MOL0     C 3784   1.844   3.966   8.383  0.5033  0.0440 -0.0653
   29MOL0     C 3785   1.839   3.988   8.247  0.2261  0.4935 -0.6274
   29MOL0     C 3786   1.719   4.016   8.177  0.0125 -0.2162  0.0352
   29MOL0     C 3787   1.598   4.027   8.247 -0.3777 -0.2571 -0.3358
   29MOL0     O 3788   1.479   4.055   8.187 -1.1065 -0.3210 -0.5729
   29MOL0     C 3789   1.471   4.038   8.046 -0.3629 -0.4616  0.5139
   29MOL0     C 3790   1.319   4.023   8.008 -0.2654 -0.0058 -0.4889
   29MOL0     C 3791   1.228   4.133   8.050  0.6182 -0.4968  0.0351
   29MOL0     C 3792   1.082   4.081   8.030  0.6013 -0.7239 -0.6151
   29MOL0     C 3793   0.963   4.158   8.099 -0.8337 -0.9769  0.1338
   29MOL0     C 3794   0.840   4.081   8.060 -0.0053 -0.3285 -0.2851
   29MOL0     C 3795   0.724   4.141   8.141  0.0152  0.3804 -0.1395
   29MOL0     C 3796   0.676   4.284   8.104  0.6215 -1.3625  0.4396
   29MOL0     N 3797   0.616   4.305   7.970  0.0244  0.0711  0.5698
   29MOL0     C 3798   0.536   4.208   7.903 -0.1138  0.0067  0.8747
   29MOL0     C 3799   0.485   4.287   7.795  0.3836  0.0548  0.2840
   29MOL0     C 3800   0.412   4.245   7.673 -0.6298  0.3976  0.3625
   29MOL0     C 3801   0.272   4.221   7.720  0.0942 -1.6403 -0.0266
   29MOL0     C 3802   0.176   4.204   7.605 -0.6397 -0.5780  0.0521
   29MOL0     C 3803   0.041   4.159   7.649  0.3882 -1.0105  0.3561
   29MOL0     O 3804   0.038   4.025   7.608 -0.5258  0.3257 -0.1676
   29MOL0     C 3805  -0.085   3.972   7.594  0.4729 -0.0508 -0.8569
   29MOL0     C 3806  -0.104   3.884   7.493 -0.0175  0.0831  0.1359
   29MOL0     C 3807  -0.237   3.825   7.459 -0.9372  0.7271 -0.7189
   29MOL0     C 3808  -0.256   3.745   7.339  0.1165  0.1011  0.7737
   29MOL0     C 3809  -0.341   3.856   7.555  0.3378  0.8780  0.8076
   29MOL0     C 3810  -0.480   3.802   7.537 -0.6640 -0.3916  0.1957
   29MOL0     O 3811  -0.579   3.886   7.591 -0.4684  0.8187  0.4893
   29MOL0     C 3812  -0.697   3.826   7.625  0.5261 -0.3106  0.2204
   29MOL0     C 3813  -0.738   3.688   7.640 -0.0917  0.0786  0.3903
   29MOL0     C 3814  -0.867   3.661   7.690 -0.6100 -0.0915  0.6583
   29MOL0     C 3815  -0.961   3.764   7.705 -0.0689 -0.1309  0.0464
   29MOL0     O 3816  -1.091   3.748   7.739  0.6710 -0.5576  0.1928
   29MOL0     C 3817  -1.138   3.623   7.783  0.2101  0.0638 -0.1835
   29MOL0     C 3818  -1.293   3.636   7.809 -0.1658 -0.3446  0.9709
   29MOL0     C 3819  -1.336   3.510   7.876 -0.5872  0.2691 -0.2684
   29MOL0     C 3820  -1.482   3.493   7.863  0.7675  0.2179  0.3818
   29MOL0     C 3821  -1.560   3.428   7.979 -0.2578  0.5494  0.2267
   29MOL0     C 3822  -1.708   3.441   7.951 -0.1662 -1.0897  0.1052
   29MOL0     C 3823  -1.791   3.380   8.068  0.2042 -0.1055 -0.1003
   29MOL0     C 3824  -1.942   3.388   8.030 -0.6507  0.8538 -0.0270
   29MOL0    Cl 3825  -2.000   3.551   7.999 -0.1032  0.1472  0.1303
   29MOL0     C 3826  -0.927   3.893   7.684 -0.7078  0.0449 -0.5089
   29MOL0     C 3827  -0.792   3.922   7.652 -0.4385 -0.0044 -0.3318
   29MOL0     O 3828  -0.493   3.695   7.482 -0.3551  0.8042  0.1813
   29MOL0     C 3829  -0.323   3.945   7.661 -0.4469  0.2509  0.3181
   29MOL0     C 3830  -0.195   4.002   7.682 -0.3331  0.7558 -0.1234
   29MOL0     N 3831   0.531   4.418   7.804 -0.3207 -0.0270 -0.2738
   29MOL0     N 3832   0.602   4.430   7.918 -0.8009  0.2377  0.0911
   29MOL0     C 3833   1.599   3.990   8.385  0.1689 -0.4397 -1.0932
   29MOL0     C 3834   1.720   3.964   8.449 -0.1490 -1.0035 -0.6335
   29MOL0     C 3835   2.165   3.997   8.556  0.3269 -0.8043  0.0737
   29MOL0     C 3836   2.226   4.074   8.653  0.3361  0.2335  0.2263
   29MOL0     C 3837   2.343   4.032   8.710  0.1286  1.0502  0.1786
   29MOL0     C 3838   2.409   3.918   8.656 -0.8687  0.5438  0.0379
   29MOL0     O 3839   2.532   3.881   8.705 -1.0434  0.7182  0.2405
   29MOL0     C 3840   2.539   3.791   8.822 -0.3599  0.3350  0.0778
   29MOL0     C 3841   2.686   3.748   8.832 -0.2673  0.7783 -0.6806
   29MOL0     C 3842   2.719   3.643   8.740  0.0040  0.4181  1.5730
   29MOL0     C 3843   2.856   3.597   8.764 -0.3245  1.0087  0.5367
   29MOL0     C 3844   2.957   3.695   8.755  0.8507 -0.7034 -0.1393
   29MOL0     C 3845   3.038   3.785   8.752 -0.0642 -0.3258  0.3297
   29MOL0     C 3846   2.348   3.839   8.560 -0.1857 -0.1374  0.1190
   29MOL0     C 3847   2.222   3.877   8.516 -0.6064 -0.4695 -0.3896
   29MOL0     H 3848   1.931   4.002   8.191 -0.7065  0.2714 -2.2971
   29MOL0     H 3849   1.727   4.046   8.073 -0.1259  0.8689  0.3203
   29MOL0     H 3850   1.502   4.121   7.981  0.3062 -1.6582 -0.7477
   29MOL0     H 3851   1.519   3.947   8.009  2.0046  0.9749 -0.1257
   29MOL0     H 3852   1.306   4.000   7.902 -4.9379 -1.1382  0.1140
   29MOL0     H 3853   1.281   3.931   8.054 -0.8567 -0.2347 -1.4109
   29MOL0     H 3854   1.241   4.147   8.158  0.3631  0.5288 -0.0577
   29MOL0     H 3855   1.248   4.227   8.000  2.8143  0.5082  2.5815
   29MOL0     H 3856   1.063   4.070   7.923 -0.5863  1.7402 -0.7483
   29MOL0     H 3857   1.072   3.983   8.076 -2.8226  0.2020  0.9779
   29MOL0     H 3858   0.987   4.159   8.205  0.0163  0.2670 -0.0471
   29MOL0     H 3859   0.959   4.259   8.058  0.7637 -1.3409 -1.0087
   29MOL0     H 3860   0.821   4.091   7.952 -2.0569  0.1288  0.0706
   29MOL0     H 3861   0.840   3.973   8.079 -1.0499 -0.4601 -0.9245
   29MOL0     H 3862   0.639   4.073   8.135 -1.0792  1.8484 -3.5642
   29MOL0     H 3863   0.747   4.136   8.248 -3.6394 -2.3193  0.7260
   29MOL0     H 3864   0.759   4.352   8.128 -1.6609  0.5228  3.8329
   29MOL0     H 3865   0.595   4.321   8.168  0.3967  1.0912 -1.1223
   29MOL0     H 3866   0.519   4.101   7.914  1.1102 -0.1148  1.7648
   29MOL0     H 3867   0.438   4.319   7.597  1.8436 -1.8845 -1.1821
   29MOL0     H 3868   0.450   4.151   7.633  0.3120  1.1708 -0.6112
   29MOL0     H 3869   0.236   4.311   7.771  0.5644 -1.0143 -0.7705
   29MOL0     H 3870   0.267   4.138   7.790 -1.3272 -1.0989  0.5569
   29MOL0     H 3871   0.224   4.137   7.533  0.1274  1.2280 -1.2122
   29MOL0     H 3872   0.175   4.303   7.557  3.6307  0.7679  2.1816
   29MOL0     H 3873  -0.034   4.220   7.597  0.5952  2.2828  3.5117
   29MOL0     H 3874   0.028   4.174   7.757 -4.1640 -1.8698  0.1497
   29MOL0     H 3875  -0.022   3.862   7.425 -0.2436 -1.7000  0.3763
   29MOL0     H 3876  -0.268   3.637   7.348  2.3838 -0.4535 -1.6300
   29MOL0     H 3877  -0.333   3.791   7.275 -0.9149 -1.2159  1.0275
   29MOL0     H 3878  -0.171   3.760   7.272 -0.4501  0.2736  0.0781
   29MOL0     H 3879  -0.671   3.607   7.615 -1.7031 -1.0104 -0.5354
   29MOL0     H 3880  -0.907   3.560   7.694  0.2428 -0.4476  0.4555
   29MOL0     H 3881  -1.123   3.550   7.703 -3.4001 -0.0662 -0.9466
   29MOL0     H 3882  -1.090   3.608   7.880  0.2061 -1.7743 -0.4365
   29MOL0     H 3883  -1.307   3.722   7.874  0.3061  1.0602 -0.7164
   29MOL0     H 3884  -1.349   3.659   7.718 -0.9701 -0.0205  1.5397
   29MOL0     H 3885  -1.313   3.503   7.983 -0.0626 -0.5557 -0.4348
   29MOL0     H 3886  -1.287   3.420   7.839 -0.8250  0.4370 -1.0070
   29MOL0     H 3887  -1.530   3.588   7.838 -1.1913 -1.1540 -1.3749
   29MOL0     H 3888  -1.500   3.422   7.782 -0.5812 -0.1799  1.0129
   29MOL0     H 3889  -1.538   3.482   8.072 -0.3393  0.4883  0.2825
   29MOL0     H 3890  -1.521   3.328   8.002  0.8001  0.6640 -0.9441
   29MOL0     H 3891  -1.743   3.544   7.954  0.3390 -0.9103  3.5138
   29MOL0     H 3892  -1.729   3.382   7.861  1.8705 -1.8677  0.0969
   29MOL0     H 3893  -1.777   3.437   8.159  1.5020 -0.5164 -0.0310
   29MOL0     H 3894  -1.757   3.278   8.091  0.5484 -0.2167 -1.0586
   29MOL0     H 3895  -2.002   3.346   8.111 -0.5404 -4.5508 -2.3667
   29MOL0     H 3896  -1.969   3.316   7.953 -0.8001  0.6580  0.2076
   29MOL0     H 3897  -0.991   3.980   7.690  0.2525  0.7558 -0.4404
   29MOL0     H 3898  -0.775   4.029   7.645  2.0738 -0.3808 -0.7443
   29MOL0     H 3899  -0.401   3.975   7.731 -1.3143  2.0003 -1.3229
   29MOL0     H 3900  -0.173   4.066   7.768  1.3257 -0.1245  0.1328
   29MOL0     H 3901   1.508   3.987   8.444  1.2997  0.6048  0.7976
   29MOL0     H 3902   1.718   3.974   8.557 -0.1892  0.8994 -0.7889
   29MOL0     H 3903   2.184   4.164   8.697  0.6130  1.1527 -1.3036
   29MOL0     H 3904   2.391   4.099   8.779  2.3138 -0.2902  0.0591
   29MOL0     H 3905   2.505   3.843   8.913  0.9586 -1.8136  1.9049
   29MOL0     H 3906   2.481   3.700   8.803  3.6191 -1.9626 -2.3294
   29MOL0     H 3907   2.707   3.709   8.932  0.5599  2.1139 -0.3059
   29MOL0     H 3908   2.744   3.841   8.826  0.8106  0.4280  2.4194
   29MOL0     H 3909   2.705   3.687   8.642  1.5831 -1.8847  0.2137
   29MOL0     H 3910   2.650   3.558   8.746  0.5440 -0.1824 -0.1997
   29MOL0     H 3911   2.882   3.539   8.675  2.5910  1.1627  1.1829
   29MOL0     H 3912   2.873   3.553   8.863 -0.6997  2.0023  1.0492
   29MOL0     H 3913   3.117   3.857   8.757 -0.7388  0.3809  1.3639
   29MOL0     H 3914   2.396   3.746   8.531  2.4000  1.1617  0.0084
   29MOL0     H 3915   2.176   3.812   8.442 -1.1946 -0.6213  0.1084
   30MOL0     O 3916   0.704   1.094   7.613 -0.2809  0.8891  0.0035
   30MOL0     C 3917   0.732   1.070   7.497  0.1531 -0.1594 -0.1109
   30MOL0     O 3918   0.643   1.080   7.389 -1.0056 -0.2997 -0.3196
   30MOL0     C 3919   0.513   1.106   7.420  0.3901 -0.6497 -0.0753
   30MOL0     C 3920   0.417   1.013   7.444 -1.3922 -0.4853  0.1125
   30MOL0     C 3921   0.289   1.051   7.481 -0.2539  0.8854  0.5551
   30MOL0     C 3922   0.251   1.191   7.488 -0.6808  0.0556  0.0140
   30MOL0     O 3923   0.138   1.249   7.525  0.3506 -0.5907  0.5235
   30MOL0     C 3924   0.028   1.173   7.570  0.1579 -0.3588 -0.4376
   30MOL0     C 3925  -0.094   1.263   7.575 -0.0537 -0.6389 -0.4725
   30MOL0     C 3926  -0.219   1.185   7.614  1.1356  0.8901  0.0780
   30MOL0     C 3927  -0.336   1.291   7.617 -0.0487  0.6480 -0.1020
   30MOL0     C 3928  -0.469   1.231   7.660  0.2483 -0.9353  0.4258
   30MOL0     C 3929  -0.528   1.117   7.574 -0.0811 -0.2592 -1.0729
   30MOL0     C 3930  -0.646   1.054   7.647 -0.7460 -0.5402 -0.0179
   30MOL0     C 3931  -0.698   0.929   7.565  0.1505  0.3371  0.0998
   30MOL0     N 3932  -0.816   0.865   7.622 -0.1801 -0.4638 -0.4621
   30MOL0     C 3933  -0.934   0.932   7.630  0.5522  0.8102 -0.3642
   30MOL0     C 3934  -1.022   0.830   7.669  0.4372  1.0441  1.3470
   30MOL0     C 3935  -1.170   0.848   7.683 -0.0678 -0.3610  0.2792
   30MOL0     C 3936  -1.206   0.826   7.833  0.7202 -0.8094  0.2226
   30MOL0     C 3937  -1.366   0.831   7.839  0.5738 -1.1541 -0.4365
   30MOL0     C 3938  -1.419   0.769   7.965 -0.5921 -0.5743  0.7245
   30MOL0     O 3939  -1.565   0.778   7.971 -0.5872 -0.3666  0.0807
   30MOL0     C 3940  -1.626   0.744   8.086  0.5798 -0.6287  0.5433
   30MOL0     C 3941  -1.611   0.614   8.144 -0.5275 -0.1147  0.8633
   30MOL0     C 3942  -1.686   0.565   8.252  0.8397  0.4663  0.1848
   30MOL0     C 3943  -1.677   0.423   8.296 -0.2085  0.4718 -0.0458
   30MOL0     C 3944  -1.758   0.662   8.322 -0.4640  0.8384 -0.1926
   30MOL0     C 3945  -1.833   0.628   8.453 -0.5149  0.5574  1.1617
   30MOL0     O 3946  -1.937   0.717   8.484  0.5537  0.6458 -0.8335
   30MOL0     C 3947  -2.034   0.681   8.577  0.1913 -0.9368 -0.1808
   30MOL0     C 3948  -2.097   0.800   8.634 -0.5380  0.1135 -0.0661
   30MOL0     C 3949  -2.189   0.791   8.737 -0.8190  0.8250  0.0427
   30MOL0     C 3950  -2.221   0.662   8.791 -1.1861  0.0380  0.0839
   30MOL0     O 3951  -2.287   0.651   8.913 -0.2064  0.1563  0.1824
   30MOL0     C 3952  -2.318   0.779   8.979  0.1102  1.2301  0.1423
   30MOL0     C 3953  -2.383   0.734   9.110  0.2628  0.0860  0.8197
   30MOL0     C 3954  -2.398   0.853   9.198  0.3851 -0.6089 -0.3270
   30MOL0     C 3955  -2.505   0.830   9.307 -0.1205 -0.3292 -0.4396
   30MOL0     C 3956  -2.487   0.940   9.420 -0.4725  0.0234 -0.1349
   30MOL0     C 3957  -2.580   0.927   9.540 -0.5596 -0.3918  0.3748
   30MOL0     C 3958  -2.594   1.049   9.618 -0.1815 -0.6523 -0.7669
   30MOL0     C 3959  -2.656   1.031   9.756  0.9315  0.2158 -0.4217
   30MOL0    Cl 3960  -2.789   0.915   9.746  0.2655 -0.0510 -0.1399
   30MOL0     C 3961  -2.172   0.550   8.730  0.0978 -0.4549  0.4315
   30MOL0     C 3962  -2.079   0.563   8.625 -0.2719  0.1871 -0.3222
   30MOL0     O 3963  -1.806   0.535   8.514 -0.9712  0.0103 -0.0382
   30MOL0     C 3964  -1.778   0.792   8.262  0.0268  0.3116  0.1483
   30MOL0     C 3965  -1.716   0.833   8.142  0.3813  0.5466 -0.9293
   30MOL0     N 3966  -0.957   0.709   7.694  0.9473 -0.0935 -0.3973
   30MOL0     N 3967  -0.829   0.735   7.669 -0.1067  0.0042  0.0040
   30MOL0     C 3968   0.349   1.282   7.444  0.6196  0.6284  0.1197
   30MOL0     C 3969   0.476   1.243   7.406  0.0676  0.8584  0.3783
   30MOL0     C 3970   0.877   1.048   7.459  0.4739 -0.1150  0.0033
   30MOL0     C 3971   0.987   1.059   7.546  0.0303 -0.2223 -0.1544
   30MOL0     C 3972   1.119   1.016   7.514 -0.6097 -0.0956 -0.0655
   30MOL0     C 3973   1.136   0.952   7.389 -0.3679 -1.0322 -0.4974
   30MOL0     O 3974   1.261   0.904   7.364  0.0562 -0.2709 -0.0548
   30MOL0     C 3975   1.300   0.912   7.228 -0.4760 -0.2061 -0.3989
   30MOL0     C 3976   1.453   0.924   7.220 -0.8170 -0.2766 -0.2851
   30MOL0     C 3977   1.509   0.787   7.240 -0.0791 -0.5543  0.1635
   30MOL0     C 3978   1.663   0.764   7.220  0.1980 -0.4312 -0.3348
   30MOL0     C 3979   1.749   0.839   7.319  0.9492 -1.2455  0.3208
   30MOL0     C 3980   1.808   0.906   7.407  0.1353  0.2492  0.2159
   30MOL0     C 3981   1.033   0.946   7.300  0.3206 -0.6114  0.1371
   30MOL0     C 3982   0.906   0.996   7.324 -0.0163 -0.2789 -0.0390
   30MOL0     H 3983   0.448   0.910   7.461  0.4132 -0.0218 -0.1601
   30MOL0     H 3984   0.229   0.964   7.506  3.2483 -2.1554 -0.7131
   30MOL0     H 3985   0.012   1.090   7.501  0.2065 -2.1948  1.6483
   30MOL0     H 3986   0.056   1.138   7.670 -2.1336  0.5843  0.6064
   30MOL0     H 3987  -0.074   1.340   7.650  1.0892 -0.5376 -0.8539
   30MOL0     H 3988  -0.103   1.312   7.478  2.2336 -0.1020 -0.4719
   30MOL0     H 3989  -0.242   1.115   7.533  0.3364  4.2443 -2.8313
   30MOL0     H 3990  -0.212   1.129   7.708 -0.6786 -0.1280 -0.3325
   30MOL0     H 3991  -0.299   1.357   7.696  0.1458  0.0999  0.2703
   30MOL0     H 3992  -0.355   1.354   7.529  0.1205  0.5382 -0.2183
   30MOL0     H 3993  -0.456   1.193   7.762 -0.3852  1.5406  1.5099
   30MOL0     H 3994  -0.548   1.306   7.671  0.1411 -1.1056  0.8416
   30MOL0     H 3995  -0.563   1.163   7.481  1.8562  0.8343 -1.3209
   30MOL0     H 3996  -0.454   1.038   7.559  0.9758 -0.1916  2.6041
   30MOL0     H 3997  -0.617   1.024   7.748 -0.1130 -1.2018 -0.3810
   30MOL0     H 3998  -0.731   1.120   7.662 -0.7061 -1.1757  4.2603
   30MOL0     H 3999  -0.619   0.855   7.556 -1.4820 -2.0461  3.2717
   30MOL0     H 4000  -0.721   0.979   7.470  3.7696  1.9607 -0.0834
   30MOL0     H 4001  -0.947   1.036   7.600  1.9448  0.5545 -2.0377
   30MOL0     H 4002  -1.202   0.950   7.656 -1.8949 -0.6347  1.2437
   30MOL0     H 4003  -1.232   0.783   7.621  0.1947  0.2196 -0.6228
   30MOL0     H 4004  -1.171   0.908   7.897 -3.2282  0.8166  0.6085
   30MOL0     H 4005  -1.173   0.727   7.866 -0.6618 -1.4190 -0.1475
   30MOL0     H 4006  -1.403   0.771   7.756 -1.6409  0.8295 -1.0017
   30MOL0     H 4007  -1.413   0.928   7.819  0.6641 -1.0748 -0.2628
   30MOL0     H 4008  -1.376   0.809   8.057 -2.8829 -0.9235  2.0439
   30MOL0     H 4009  -1.385   0.665   7.973 -2.1495 -1.0487  2.0439
   30MOL0     H 4010  -1.549   0.544   8.089 -0.7427 -0.0199  0.4984
   30MOL0     H 4011  -1.646   0.362   8.211 -0.6076  0.4781 -0.1941
   30MOL0     H 4012  -1.596   0.413   8.369 -0.3895 -1.6183 -0.0746
   30MOL0     H 4013  -1.766   0.375   8.337  0.4444 -0.2698  0.5422
   30MOL0     H 4014  -2.075   0.897   8.591  0.5078  0.7005  1.6634
   30MOL0     H 4015  -2.225   0.889   8.766 -0.5170  0.8335  0.3801
   30MOL0     H 4016  -2.230   0.840   9.005  0.4072  1.7650 -1.8990
   30MOL0     H 4017  -2.392   0.840   8.926  1.1216  3.5903  1.2985
   30MOL0     H 4018  -2.473   0.679   9.084  0.6431  0.3122 -1.1057
   30MOL0     H 4019  -2.316   0.666   9.163 -0.0680 -0.3336  0.7005
   30MOL0     H 4020  -2.425   0.942   9.140 -1.8935 -2.5565 -2.4579
   30MOL0     H 4021  -2.302   0.883   9.242 -0.3244  0.6651  0.4271
   30MOL0     H 4022  -2.608   0.809   9.276 -0.8705 -1.5491  2.4696
   30MOL0     H 4023  -2.475   0.734   9.350 -1.4811 -0.1159  1.1098
   30MOL0     H 4024  -2.494   1.039   9.373 -0.2066  0.4716  0.7359
   30MOL0     H 4025  -2.385   0.933   9.459 -0.7639  0.1532  0.6723
   30MOL0     H 4026  -2.678   0.885   9.513 -0.6411  0.2415 -0.3299
   30MOL0     H 4027  -2.534   0.853   9.606  0.7413 -0.8139 -0.9687
   30MOL0     H 4028  -2.654   1.125   9.566 -1.5611 -0.7543  0.5997
   30MOL0     H 4029  -2.491   1.083   9.627 -0.5549  0.5186 -0.7106
   30MOL0     H 4030  -2.694   1.129   9.790  1.9625  0.2431  0.7330
   30MOL0     H 4031  -2.588   0.995   9.833  2.4892 -1.5794 -2.5233
   30MOL0     H 4032  -2.201   0.449   8.753 -3.4286  0.7260  1.8296
   30MOL0     H 4033  -2.043   0.470   8.582  0.3626  0.3992 -0.2642
   30MOL0     H 4034  -1.833   0.870   8.313  0.4376  0.9516 -0.3638
   30MOL0     H 4035  -1.733   0.924   8.084 -2.7251  0.7481  0.1670
   30MOL0     H 4036   0.335   1.389   7.447  1.4755  0.8192 -1.6250
   30MOL0     H 4037   0.548   1.322   7.388 -0.4143  0.8229 -1.9847
   30MOL0     H 4038   0.971   1.096   7.647  0.3671 -0.0708 -0.1545
   30MOL0     H 4039   1.194   1.037   7.590  1.1346  1.1576 -2.0307
   30MOL0     H 4040   1.262   0.823   7.176 -0.6641 -0.3672  0.0055
   30MOL0     H 4041   1.257   1.002   7.184  2.4934  2.1902  1.2254
   30MOL0     H 4042   1.495   0.988   7.298 -1.3801 -0.6814  0.3618
   30MOL0     H 4043   1.490   0.965   7.125  3.1909  2.1410  2.0333
   30MOL0     H 4044   1.459   0.720   7.170  1.3752 -0.0296 -1.4458
   30MOL0     H 4045   1.478   0.758   7.341  2.0728 -0.2185  0.9824
   30MOL0     H 4046   1.693   0.808   7.124 -0.8456 -0.9848 -0.9371
   30MOL0     H 4047   1.677   0.655   7.223  1.1736 -0.3738  4.2981
   30MOL0     H 4048   1.860   0.965   7.480 -1.9851  1.4968  0.8160
   30MOL0     H 4049   1.047   0.892   7.207  0.8017  0.1492 -0.2403
   30MOL0     H 4050   0.830   0.974   7.250  1.6114 -3.6177 -0.8980
   31MOL0     O 4051   2.435   8.305   8.878  0.0661 -0.1682  0.2826
   31MOL0     C 4052   2.524   8.383   8.907  0.1321  0.0184  0.4709
   31MOL0     O 4053   2.506   8.519   8.913  0.0716 -0.5149 -0.4514
   31MOL0     C 4054   2.381   8.570   8.901  0.4954  0.1397  0.8082
   31MOL0     C 4055   2.324   8.593   8.768 -1.1428  0.0876  0.2385
   31MOL0     C 4056   2.202   8.651   8.759 -0.4919 -0.0213  0.0905
   31MOL0     C 4057   2.131   8.685   8.873  0.2744 -0.2130  0.7387
   31MOL0     O 4058   2.003   8.743   8.873  0.1972  0.5727 -0.2491
   31MOL0     C 4059   1.916   8.680   8.782  0.1512  0.0475  0.3153
   31MOL0     C 4060   1.776   8.732   8.810 -0.6006 -0.0405 -0.0284
   31MOL0     C 4061   1.703   8.679   8.934  0.7066 -0.0935  0.2754
   31MOL0     C 4062   1.790   8.679   9.068  0.2461 -0.4207 -0.7305
   31MOL0     C 4063   1.713   8.634   9.185  0.7245  0.1721 -0.4996
   31MOL0     C 4064   1.810   8.629   9.310  0.3207  0.4666 -0.7952
   31MOL0     C 4065   1.767   8.524   9.422 -0.1714 -0.3166  0.9036
   31MOL0     C 4066   1.842   8.535   9.555 -0.0695 -0.0496 -0.4245
   31MOL0     N 4067   1.782   8.435   9.643  0.7551  0.1619 -0.2477
   31MOL0     C 4068   1.671   8.452   9.728  0.9473  0.5994 -0.3653
   31MOL0     C 4069   1.654   8.327   9.769  0.1635 -0.2668  0.2486
   31MOL0     C 4070   1.545   8.277   9.860 -0.4320  0.0886  0.6038
   31MOL0     C 4071   1.461   8.160   9.798  0.6517  0.6039  0.1598
   31MOL0     C 4072   1.315   8.175   9.843  0.7564  0.4259 -0.2359
   31MOL0     C 4073   1.227   8.042   9.832 -0.1637  0.5858 -0.0124
   31MOL0     O 4074   1.093   8.075   9.871  0.0805 -0.0512 -0.7701
   31MOL0     C 4075   0.977   8.010   9.835 -0.0870  0.2533  0.1000
   31MOL0     C 4076   0.860   8.041   9.902  1.1148  0.2841 -0.5708
   31MOL0     C 4077   0.733   7.987   9.871 -0.0119 -0.2710  0.4132
   31MOL0     C 4078   0.606   8.037   9.931  0.1861  0.3764 -0.5336
   31MOL0     C 4079   0.724   7.905   9.757 -0.9255  0.5272 -0.2156
   31MOL0     C 4080   0.599   7.858   9.694 -0.1248  0.0299  0.0367
   31MOL0     O 4081   0.578   7.913   9.576  0.6602  0.3441  0.4074
   31MOL0     C 4082   0.463   7.869   9.517  0.1324  0.2774  0.3990
   31MOL0     C 4083   0.358   7.955   9.536  0.5729 -1.0105 -0.2954
   31MOL0     C 4084   0.234   7.919   9.477  0.2137 -0.7356 -0.9645
   31MOL0     C 4085   0.211   7.797   9.410 -0.2535  0.3528  0.8600
   31MOL0     O 4086   0.101   7.758   9.351 -0.0493 -0.1865 -0.1790
   31MOL0     C 4087  -0.026   7.809   9.387 -0.2804  0.1029 -0.6688
   31MOL0     C 4088  -0.141   7.749   9.306 -0.1688  0.0908 -0.6571
   31MOL0     C 4089  -0.273   7.827   9.316 -0.9272 -0.7546 -0.6696
   31MOL0     C 4090  -0.396   7.764   9.240  0.1318 -0.1671  0.9372
   31MOL0     C 4091  -0.515   7.853   9.268 -0.0364 -1.0979 -0.2791
   31MOL0     C 4092  -0.635   7.814   9.195  0.9383  0.2319 -0.1242
   31MOL0     C 4093  -0.746   7.911   9.237 -0.8246  0.2861  0.5100
   31MOL0     C 4094  -0.730   8.048   9.163  0.1005  0.1189  0.4693
   31MOL0    Cl 4095  -0.760   8.021   8.996 -0.3749 -0.2634  0.0624
   31MOL0     C 4096   0.330   7.721   9.384  0.7428  0.3227  0.0651
   31MOL0     C 4097   0.456   7.753   9.437 -0.2866  0.1741 -0.1209
   31MOL0     O 4098   0.532   7.776   9.758  0.1455 -0.6470  0.5638
   31MOL0     C 4099   0.851   7.873   9.692  0.4073 -0.4117  0.0208
   31MOL0     C 4100   0.974   7.927   9.728 -0.0625 -0.9320 -0.2291
   31MOL0     N 4101   1.752   8.248   9.727  0.4691 -0.1996 -0.8976
   31MOL0     N 4102   1.821   8.306   9.644  0.2081 -0.0685  0.3815
   31MOL0     C 4103   2.188   8.657   8.996 -0.0166 -0.0069 -1.6543
   31MOL0     C 4104   2.307   8.595   9.011 -0.0388 -0.0784  0.3671
   31MOL0     C 4105   2.659   8.328   8.933  0.0263 -0.4078  0.4550
   31MOL0     C 4106   2.771   8.415   8.952  0.1726 -0.5429 -0.5244
   31MOL0     C 4107   2.896   8.364   8.975  0.5334 -1.0828 -0.9480
   31MOL0     C 4108   2.913   8.229   8.989  0.0371  0.2078 -0.6037
   31MOL0     O 4109   3.043   8.185   9.021 -0.2969  0.2635  0.2097
   31MOL0     C 4110   3.063   8.054   9.087  0.0139  0.4179 -0.5900
   31MOL0     C 4111   3.185   8.079   9.172 -0.4660 -0.1008  0.2956
   31MOL0     C 4112   3.235   7.942   9.231 -0.9855  0.0937  0.6652
   31MOL0     C 4113   3.368   7.948   9.296  0.1783  0.2980  0.3414
   31MOL0     C 4114   3.421   7.811   9.316 -0.3945  0.3702 -0.3087
   31MOL0     C 4115   3.470   7.700   9.323 -0.1909  0.4350 -0.7492
   31MOL0     C 4116   2.807   8.141   8.970  0.0245 -0.5778 -0.3740
   31MOL0     C 4117   2.681   8.185   8.935  0.0524  0.3308  0.1231
   31MOL0     H 4118   2.377   8.573   8.676 -0.8595 -1.8099  0.7624
   31MOL0     H 4119   2.157   8.688   8.667 -2.9594  2.1078  2.0059
   31MOL0     H 4120   1.953   8.705   8.683  0.4364  1.9201  0.8561
   31MOL0     H 4121   1.905   8.571   8.793 -2.5091  0.1609 -0.6064
   31MOL0     H 4122   1.774   8.841   8.817 -1.9506  0.2461 -3.1170
   31MOL0     H 4123   1.724   8.709   8.717 -0.8076 -1.8497  0.4958
   31MOL0     H 4124   1.610   8.734   8.947 -0.3508 -1.3957 -1.4016
   31MOL0     H 4125   1.670   8.579   8.906  0.1940 -0.3145  1.5776
   31MOL0     H 4126   1.882   8.621   9.059  0.0636 -1.5771  3.2586
   31MOL0     H 4127   1.812   8.784   9.089 -0.8459 -0.2590 -0.3006
   31MOL0     H 4128   1.630   8.700   9.211 -0.1476 -1.2859  0.5639
   31MOL0     H 4129   1.686   8.530   9.163 -0.2271  1.1936 -5.5938
   31MOL0     H 4130   1.911   8.603   9.275 -0.2983  0.4450 -2.6881
   31MOL0     H 4131   1.827   8.727   9.355 -0.5084  1.3335 -2.2899
   31MOL0     H 4132   1.660   8.547   9.427 -0.4132 -0.7780 -1.3693
   31MOL0     H 4133   1.781   8.423   9.383 -1.4831 -1.5349  3.3612
   31MOL0     H 4134   1.822   8.634   9.596  1.7297  1.3896 -2.7547
   31MOL0     H 4135   1.949   8.523   9.537 -0.3121  0.8180 -2.9291
   31MOL0     H 4136   1.607   8.538   9.744 -1.2253 -0.9028 -0.6197
   31MOL0     H 4137   1.596   8.245   9.951  0.9551 -1.8717 -0.7703
   31MOL0     H 4138   1.478   8.356   9.892 -0.3619 -0.3505  1.8791
   31MOL0     H 4139   1.507   8.065   9.829  2.5424  0.3458 -2.9992
   31MOL0     H 4140   1.462   8.148   9.689 -2.7673 -1.0672  0.1727
   31MOL0     H 4141   1.269   8.242   9.769  2.4824 -0.0330 -1.7952
   31MOL0     H 4142   1.304   8.225   9.939 -0.4761  4.7337 -2.3766
   31MOL0     H 4143   1.268   7.967   9.901 -2.2549  0.1110  0.7910
   31MOL0     H 4144   1.228   8.001   9.731 -1.6781  0.4116  0.0256
   31MOL0     H 4145   0.861   8.110   9.986 -1.6253  1.3299 -1.2749
   31MOL0     H 4146   0.563   8.101   9.854  1.3413 -0.6970 -2.1129
   31MOL0     H 4147   0.532   7.961   9.957  0.1806  0.4292 -0.3926
   31MOL0     H 4148   0.624   8.091  10.025 -0.5461 -1.0360  0.4564
   31MOL0     H 4149   0.378   8.055   9.571 -0.9802 -0.4009 -1.0190
   31MOL0     H 4150   0.151   7.989   9.483 -0.0835 -1.0491 -1.3089
   31MOL0     H 4151  -0.046   7.794   9.493 -3.2684  0.3470 -1.0951
   31MOL0     H 4152  -0.034   7.917   9.368 -2.0438  0.2171  0.4863
   31MOL0     H 4153  -0.101   7.746   9.205 -1.7453  0.5256 -1.3325
   31MOL0     H 4154  -0.153   7.656   9.362  1.7790  0.3377  0.2513
   31MOL0     H 4155  -0.241   7.921   9.270  1.9060 -1.5375 -0.4819
   31MOL0     H 4156  -0.303   7.839   9.420 -2.0515 -1.0729 -0.9435
   31MOL0     H 4157  -0.372   7.745   9.135  0.5281 -0.5276  1.0887
   31MOL0     H 4158  -0.424   7.665   9.277  0.5381 -1.6375 -2.3719
   31MOL0     H 4159  -0.480   7.956   9.257 -0.3881 -0.5589  2.7900
   31MOL0     H 4160  -0.536   7.848   9.376 -3.1762  1.4619 -0.6236
   31MOL0     H 4161  -0.610   7.800   9.090  0.8534  0.5954 -0.1926
   31MOL0     H 4162  -0.662   7.711   9.224 -1.3933  0.4975 -1.1025
   31MOL0     H 4163  -0.738   7.917   9.346  0.3758 -0.2398  0.4640
   31MOL0     H 4164  -0.844   7.876   9.204  0.3296 -1.6465 -1.1209
   31MOL0     H 4165  -0.632   8.096   9.154 -0.8637  1.7704 -2.6115
   31MOL0     H 4166  -0.801   8.117   9.209  0.2012 -0.8920  2.2306
   31MOL0     H 4167   0.315   7.632   9.323 -0.1368  1.7627 -1.9358
   31MOL0     H 4168   0.542   7.688   9.435 -0.0509  0.3504  1.8378
   31MOL0     H 4169   0.842   7.800   9.612 -0.2532  0.4123 -0.6760
   31MOL0     H 4170   1.066   7.895   9.680 -1.1359 -3.0082 -1.0159
   31MOL0     H 4171   2.151   8.683   9.095 -0.0189  0.4206 -1.7663
   31MOL0     H 4172   2.355   8.581   9.107  1.9033  1.4603 -0.3062
   31MOL0     H 4173   2.759   8.523   8.960 -3.5432 -0.9025  0.7989
   31MOL0     H 4174   2.977   8.436   8.977  0.1721 -0.5679 -2.6405
   31MOL0     H 4175   2.979   8.022   9.149 -0.5435  2.1913 -0.3746
   31MOL0     H 4176   3.081   7.969   9.021  1.4931  0.0100  0.2970
   31MOL0     H 4177   3.162   8.141   9.259  1.2675  0.1746  0.5791
   31MOL0     H 4178   3.254   8.112   9.094 -1.7755 -3.4388 -2.5335
   31MOL0     H 4179   3.228   7.860   9.159 -0.1902 -0.4918  1.2334
   31MOL0     H 4180   3.166   7.910   9.309 -2.1056  2.4037  0.7093
   31MOL0     H 4181   3.343   8.001   9.389  0.1243  2.2094 -0.7168
   31MOL0     H 4182   3.438   8.008   9.238 -1.4402 -1.8618 -4.3050
   31MOL0     H 4183   3.502   7.600   9.343 -1.5488 -0.4974 -2.9373
   31MOL0     H 4184   2.814   8.033   8.982  1.9504 -0.6123 -1.3815
   31MOL0     H 4185   2.608   8.104   8.937  0.3085 -0.0231 -2.0365
   32MOL0     O 4186   6.168   7.247   9.040  0.6768  0.7697 -0.2043
   32MOL0     C 4187   6.188   7.123   9.057 -0.5749  0.1973 -0.4300
   32MOL0     O 4188   6.100   7.025   9.024  0.2245  0.4268  0.0964
   32MOL0     C 4189   5.993   7.054   8.945 -0.4238 -0.1390  0.3034
   32MOL0     C 4190   6.022   7.100   8.815  0.2808 -0.2563 -0.1824
   32MOL0     C 4191   5.924   7.127   8.724  0.2360  0.6792 -0.4073
   32MOL0     C 4192   5.791   7.111   8.753 -0.1229 -1.0708  0.5547
   32MOL0     O 4193   5.685   7.142   8.669 -0.1305 -0.3786  0.7584
   32MOL0     C 4194   5.704   7.218   8.545 -0.2597  0.6840  0.4672
   32MOL0     C 4195   5.740   7.114   8.438 -0.0680 -0.7563  0.3161
   32MOL0     C 4196   5.621   7.021   8.416  0.2583  0.3062  0.5614
   32MOL0     C 4197   5.521   7.060   8.307 -0.0929  0.9270  0.3409
   32MOL0     C 4198   5.391   6.972   8.301 -0.2344  0.7058 -1.0101
   32MOL0     C 4199   5.286   7.036   8.398 -0.4298 -0.4799 -0.4777
   32MOL0     C 4200   5.158   6.956   8.399 -0.2621  0.2880  0.5679
   32MOL0     C 4201   5.055   7.025   8.476 -0.2502 -0.3500  0.0842
   32MOL0     N 4202   4.956   6.922   8.508 -0.0840 -0.6917  0.0061
   32MOL0     C 4203   4.886   6.847   8.415 -0.8295  1.7090 -0.7733
   32MOL0     C 4204   4.806   6.766   8.490 -0.3716 -0.0053  0.6543
   32MOL0     C 4205   4.720   6.665   8.423  0.3642  1.2831  0.2100
   32MOL0     C 4206   4.582   6.714   8.405  0.8248  0.4024  0.7230
   32MOL0     C 4207   4.511   6.738   8.543  0.1834 -0.1752 -0.1400
   32MOL0     C 4208   4.367   6.771   8.520  0.7935  0.0121  0.0970
   32MOL0     O 4209   4.358   6.899   8.451  0.1509  0.6536 -0.0261
   32MOL0     C 4210   4.234   6.960   8.452 -0.9589 -0.6990 -0.6908
   32MOL0     C 4211   4.108   6.902   8.470  0.2608  0.0268 -1.0870
   32MOL0     C 4212   3.988   6.972   8.488  0.7908 -0.1180 -0.2884
   32MOL0     C 4213   3.862   6.886   8.498 -1.0813  0.1829 -0.4621
   32MOL0     C 4214   3.989   7.114   8.475 -0.0131 -0.8770 -0.2309
   32MOL0     C 4215   3.871   7.202   8.489 -0.1798 -0.0066  0.3648
   32MOL0     O 4216   3.756   7.149   8.451  0.3869 -0.0791  0.5857
   32MOL0     C 4217   3.646   7.225   8.468 -0.6239 -0.0178 -0.5244
   32MOL0     C 4218   3.582   7.278   8.360  0.4042 -0.4657 -0.5510
   32MOL0     C 4219   3.467   7.361   8.379  0.0127  0.3012  1.1637
   32MOL0     C 4220   3.423   7.388   8.509 -0.1302 -0.5894  0.2872
   32MOL0     O 4221   3.313   7.457   8.542 -0.7406 -0.5252  0.0465
   32MOL0     C 4222   3.217   7.489   8.439  0.2275 -0.3556  0.7015
   32MOL0     C 4223   3.097   7.547   8.508 -0.2854  0.8712  0.0959
   32MOL0     C 4224   2.996   7.608   8.415  0.0333 -0.2152  0.0008
   32MOL0     C 4225   2.863   7.647   8.487  0.6050 -0.2024  0.0442
   32MOL0     C 4226   2.744   7.665   8.391  0.0879 -0.7099  0.6704
   32MOL0     C 4227   2.603   7.701   8.440  0.5026  0.2411 -0.1200
   32MOL0     C 4228   2.513   7.755   8.334 -0.3504 -0.0897  0.0824
   32MOL0     C 4229   2.373   7.767   8.397 -0.3588 -0.4662 -0.0823
   32MOL0    Cl 4230   2.246   7.792   8.275  0.1097 -0.2514 -0.0071
   32MOL0     C 4231   3.491   7.338   8.622 -0.0651  0.6089 -0.1973
   32MOL0     C 4232   3.601   7.256   8.600  0.5897 -0.4757  0.9274
   32MOL0     O 4233   3.886   7.317   8.512  0.2026  0.2738  0.7740
   32MOL0     C 4234   4.114   7.172   8.449 -0.4121 -0.5630 -0.3083
   32MOL0     C 4235   4.233   7.098   8.437  0.1019 -0.6065 -0.7281
   32MOL0     N 4236   4.817   6.800   8.628 -0.6964 -0.4301  0.4158
   32MOL0     N 4237   4.911   6.897   8.632  0.1050 -0.5076 -0.3014
   32MOL0     C 4238   5.761   7.073   8.881 -0.7177 -0.2683 -0.8625
   32MOL0     C 4239   5.854   7.045   8.980 -0.1641  0.7896 -0.6023
   32MOL0     C 4240   6.310   7.082   9.129 -0.2651  0.2433 -0.4327
   32MOL0     C 4241   6.407   7.178   9.147  0.0710  0.2062  0.1677
   32MOL0     C 4242   6.531   7.140   9.194 -0.2888 -0.0131  0.3224
   32MOL0     C 4243   6.562   7.009   9.239 -0.1487 -0.7596  0.4835
   32MOL0     O 4244   6.690   6.975   9.293  0.5159  0.0505 -0.7614
   32MOL0     C 4245   6.804   7.066   9.289  0.5523 -0.3846 -0.4487
   32MOL0     C 4246   6.935   6.991   9.330 -0.0707  0.2829 -0.3083
   32MOL0     C 4247   6.948   7.008   9.473 -0.1036 -0.2372 -0.2661
   32MOL0     C 4248   7.029   7.138   9.510  0.0117  0.4889  0.3297
   32MOL0     C 4249   7.169   7.119   9.481  0.7389  0.2842  0.2558
   32MOL0     C 4250   7.285   7.091   9.459  0.6747  0.0267  0.6960
   32MOL0     C 4251   6.472   6.913   9.213  0.5263 -0.0885 -0.6370
   32MOL0     C 4252   6.341   6.949   9.161 -1.0352  0.2783 -0.4007
   32MOL0     H 4253   6.126   7.122   8.794 -0.2358  0.8061 -1.7082
   32MOL0     H 4254   5.965   7.151   8.626 -1.4795  0.7272 -1.1570
   32MOL0     H 4255   5.609   7.266   8.523  0.3497  1.0608 -1.5479
   32MOL0     H 4256   5.768   7.305   8.560  1.5122 -0.5325  0.3397
   32MOL0     H 4257   5.767   7.156   8.341  1.4000 -0.4115  0.8370
   32MOL0     H 4258   5.829   7.056   8.463  1.5593  1.4736  0.0105
   32MOL0     H 4259   5.671   6.933   8.373 -0.3288  0.1951  0.0892
   32MOL0     H 4260   5.576   6.980   8.507  0.1721 -2.4803 -0.6248
   32MOL0     H 4261   5.503   7.166   8.327  1.1413  1.0387  0.9505
   32MOL0     H 4262   5.561   7.051   8.206 -1.2654  0.3385 -0.0948
   32MOL0     H 4263   5.341   6.981   8.204 -1.9272 -3.7937 -0.8042
   32MOL0     H 4264   5.412   6.865   8.312  2.5926  0.9571 -2.7965
   32MOL0     H 4265   5.323   7.052   8.500  0.6914 -2.5661 -0.5127
   32MOL0     H 4266   5.273   7.135   8.354 -0.5263  0.4203  1.4511
   32MOL0     H 4267   5.127   6.932   8.297 -0.0307  0.4665  0.4527
   32MOL0     H 4268   5.187   6.865   8.452  3.3839 -0.2214 -1.8586
   32MOL0     H 4269   5.023   7.111   8.417  2.8825  0.7234 -0.1885
   32MOL0     H 4270   5.093   7.064   8.571  0.7070  0.7528 -0.7345
   32MOL0     H 4271   4.897   6.851   8.307 -3.6246 -1.9084 -1.3681
   32MOL0     H 4272   4.765   6.626   8.331 -1.2916 -2.9562  0.9493
   32MOL0     H 4273   4.719   6.581   8.494  1.6890  1.9073  1.0119
   32MOL0     H 4274   4.519   6.647   8.345  2.5250  0.2825 -1.0262
   32MOL0     H 4275   4.579   6.802   8.341 -0.4658 -1.1966 -1.5756
   32MOL0     H 4276   4.562   6.811   8.607 -0.0127 -1.3581  1.4082
   32MOL0     H 4277   4.507   6.647   8.602  0.9926  0.1525  0.4372
   32MOL0     H 4278   4.311   6.776   8.614 -0.9402  2.3866 -0.9458
   32MOL0     H 4279   4.323   6.699   8.449  1.2701  0.9352 -1.1649
   32MOL0     H 4280   4.095   6.795   8.481  3.1235 -0.4228 -1.3597
   32MOL0     H 4281   3.813   6.886   8.400 -5.0688 -2.5220  1.2744
   32MOL0     H 4282   3.889   6.782   8.517  0.6321  0.9755  1.8287
   32MOL0     H 4283   3.788   6.916   8.572 -2.7632 -0.7682 -1.6867
   32MOL0     H 4284   3.609   7.259   8.256 -1.0357  1.1240 -1.2703
   32MOL0     H 4285   3.422   7.397   8.287  0.9400 -0.2552  0.4727
   32MOL0     H 4286   3.248   7.572   8.375 -0.9750 -0.2232  0.2577
   32MOL0     H 4287   3.197   7.400   8.379  0.8359  1.2248 -1.9902
   32MOL0     H 4288   3.047   7.458   8.548  0.0141  0.6749  0.0332
   32MOL0     H 4289   3.117   7.627   8.580 -0.8506  3.0400 -2.0290
   32MOL0     H 4290   2.965   7.533   8.342 -0.8771 -0.6957  0.8398
   32MOL0     H 4291   3.036   7.695   8.363 -0.3358 -0.3398 -0.5019
   32MOL0     H 4292   2.827   7.574   8.559 -0.0916 -0.0918 -0.1866
   32MOL0     H 4293   2.873   7.735   8.551 -6.1201 -1.6059  4.0111
   32MOL0     H 4294   2.725   7.574   8.333 -1.9723  0.8208 -1.2114
   32MOL0     H 4295   2.776   7.744   8.323  2.0002 -3.0525 -1.3432
   32MOL0     H 4296   2.553   7.610   8.474 -1.2674  1.3381  0.3289
   32MOL0     H 4297   2.606   7.783   8.512 -0.1125 -1.6985  2.2494
   32MOL0     H 4298   2.515   7.678   8.257 -0.8106 -0.7733  0.7442
   32MOL0     H 4299   2.555   7.849   8.296 -0.4393  0.7653  1.9878
   32MOL0     H 4300   2.366   7.860   8.454  0.5993  0.5688 -1.5718
   32MOL0     H 4301   2.357   7.685   8.468  2.9165  0.1461  1.5890
   32MOL0     H 4302   3.450   7.357   8.721 -1.6390 -0.1433 -0.6804
   32MOL0     H 4303   3.667   7.219   8.678 -2.3972 -2.0923  2.9020
   32MOL0     H 4304   4.125   7.280   8.448  1.3549 -0.6914  0.6985
   32MOL0     H 4305   4.330   7.146   8.421 -0.5103  1.2885  0.7991
   32MOL0     H 4306   5.656   7.056   8.906 -0.2212 -0.9334  0.9237
   32MOL0     H 4307   5.816   7.006   9.074  1.1896 -1.7679 -1.0166
   32MOL0     H 4308   6.400   7.283   9.120 -0.1131  0.5578  1.4824
   32MOL0     H 4309   6.600   7.224   9.203 -1.4306  1.2830 -1.9602
   32MOL0     H 4310   6.806   7.116   9.192 -2.6517 -0.9220 -0.9065
   32MOL0     H 4311   6.790   7.145   9.363 -0.2935 -0.2038 -0.7895
   32MOL0     H 4312   7.021   7.020   9.269 -1.5569  0.9381 -2.1944
   32MOL0     H 4313   6.916   6.885   9.308  0.6718  0.4880 -2.1547
   32MOL0     H 4314   7.010   6.927   9.511  0.2633 -0.6071 -1.5915
   32MOL0     H 4315   6.849   7.001   9.518 -1.3772  1.8519 -2.4567
   32MOL0     H 4316   7.009   7.163   9.614 -0.0331 -0.5256  0.5807
   32MOL0     H 4317   6.994   7.225   9.454 -3.1852  1.6870  3.8145
   32MOL0     H 4318   7.391   7.088   9.444  0.4495 -2.4336 -1.0563
   32MOL0     H 4319   6.491   6.819   9.264  0.6374 -1.3413 -2.8200
   32MOL0     H 4320   6.268   6.871   9.144 -0.3040 -0.3545 -0.6876
   33MOL0     O 4321   8.812   8.854   8.957  0.0755  0.1991  0.3372
   33MOL0     C 4322   8.875   8.808   8.868  0.0400  0.0036 -0.7658
   33MOL0     O 4323   8.823   8.772   8.753 -0.5775  0.2833 -0.4098
   33MOL0     C 4324   8.692   8.795   8.737  0.9700  0.6252  0.7647
   33MOL0     C 4325   8.606   8.688   8.732  0.3379 -1.1058  0.0115
   33MOL0     C 4326   8.472   8.708   8.683 -0.2025  0.8405  0.1370
   33MOL0     C 4327   8.421   8.832   8.647  0.0513  0.7740 -0.0350
   33MOL0     O 4328   8.291   8.839   8.594 -0.0288  0.2518  0.5172
   33MOL0     C 4329   8.221   8.958   8.642 -0.4265 -0.5201  0.4008
   33MOL0     C 4330   8.079   8.955   8.583  0.1096 -0.4975 -0.4511
   33MOL0     C 4331   7.988   8.858   8.652  0.1399 -0.1800 -0.4073
   33MOL0     C 4332   7.837   8.899   8.640 -0.0530 -0.3097 -0.8044
   33MOL0     C 4333   7.748   8.772   8.644 -0.0661 -0.2561  0.5641
   33MOL0     C 4334   7.606   8.784   8.577  0.1468 -0.7363  0.7431
   33MOL0     C 4335   7.499   8.764   8.686  0.3469  0.7281  0.1937
   33MOL0     C 4336   7.362   8.740   8.620  0.4703  0.1739 -0.0510
   33MOL0     N 4337   7.285   8.859   8.580  0.7054  0.5172  0.0370
   33MOL0     C 4338   7.320   8.979   8.519 -0.4338 -1.0190  0.2213
   33MOL0     C 4339   7.201   9.040   8.495 -0.2175 -0.2516  0.3328
   33MOL0     C 4340   7.184   9.161   8.411  0.5505  0.0385  0.2624
   33MOL0     C 4341   7.032   9.176   8.385 -0.5785 -0.3836 -0.2084
   33MOL0     C 4342   6.991   9.081   8.270  0.2492  0.6669 -0.0504
   33MOL0     C 4343   6.845   9.036   8.279  0.4153  0.8971  0.0474
   33MOL0     O 4344   6.765   9.158   8.287  0.1458 -0.0135 -0.1682
   33MOL0     C 4345   6.638   9.155   8.249  0.0106  0.2510  0.1970
   33MOL0     C 4346   6.572   9.266   8.201  0.0547 -0.3521  0.5590
   33MOL0     C 4347   6.426   9.273   8.189  0.2179 -0.1155  0.1063
   33MOL0     C 4348   6.375   9.412   8.149 -0.4551  0.6478 -0.4826
   33MOL0     C 4349   6.349   9.161   8.223  0.3145 -0.2734  0.8892
   33MOL0     C 4350   6.201   9.169   8.228 -0.1125 -0.0680  0.5230
   33MOL0     O 4351   6.136   9.081   8.311  0.6266 -0.2187 -0.1314
   33MOL0     C 4352   5.999   9.105   8.322  0.0497 -0.4391 -0.7905
   33MOL0     C 4353   5.913   8.997   8.342 -0.0250 -0.4367  0.5106
   33MOL0     C 4354   5.778   9.016   8.380  0.3782  0.9487 -0.4247
   33MOL0     C 4355   5.730   9.144   8.403 -0.0672  0.6988  0.0065
   33MOL0     O 4356   5.604   9.167   8.456  0.1612  0.2456  0.2611
   33MOL0     C 4357   5.540   9.289   8.418 -0.3558 -0.4723  0.1574
   33MOL0     C 4358   5.395   9.292   8.479  0.5439 -0.0081 -0.0321
   33MOL0     C 4359   5.305   9.186   8.412 -0.0453  0.4905 -0.3191
   33MOL0     C 4360   5.166   9.182   8.483  0.1300  0.7523  0.5963
   33MOL0     C 4361   5.090   9.059   8.425  0.6408  0.3630  0.0811
   33MOL0     C 4362   5.002   9.103   8.305 -0.5796  0.3976  0.0596
   33MOL0     C 4363   4.868   9.145   8.356  0.1838 -0.5852 -0.2719
   33MOL0     C 4364   4.763   9.143   8.247  0.6898  0.0517 -0.2809
   33MOL0    Cl 4365   4.593   9.115   8.314 -0.2250 -0.0913  0.2633
   33MOL0     C 4366   5.815   9.248   8.374  0.0746 -0.7581 -0.3726
   33MOL0     C 4367   5.939   9.231   8.329 -0.0335 -0.5485 -0.1202
   33MOL0     O 4368   6.157   9.220   8.126 -0.0628  0.0197  0.4460
   33MOL0     C 4369   6.420   9.043   8.256 -0.2507  0.7530  0.2228
   33MOL0     C 4370   6.558   9.042   8.270 -0.3610  0.7106  0.2700
   33MOL0     N 4371   7.102   8.964   8.556 -0.2919  0.2525 -1.0572
   33MOL0     N 4372   7.156   8.854   8.605  0.0316  0.2749 -0.0992
   33MOL0     C 4373   8.512   8.944   8.658  0.7962  0.1852  0.9874
   33MOL0     C 4374   8.642   8.927   8.709 -0.0883 -0.1694  1.1296
   33MOL0     C 4375   9.019   8.777   8.893  0.1355 -0.0642 -1.0885
   33MOL0     C 4376   9.102   8.722   8.790  0.4750  0.6210 -0.3369
   33MOL0     C 4377   9.232   8.699   8.823  0.4077  0.5882  0.8762
   33MOL0     C 4378   9.286   8.739   8.942 -0.5210  0.0199  0.5104
   33MOL0     O 4379   9.420   8.727   8.984  0.7993 -0.0478  0.2459
   33MOL0     C 4380   9.519   8.655   8.910  0.0970 -0.1172  0.6643
   33MOL0     C 4381   9.635   8.608   9.006  0.5174  0.6919  0.2979
   33MOL0     C 4382   9.748   8.560   8.918 -0.3168 -0.6530  1.3906
   33MOL0     C 4383   9.833   8.445   8.967  0.1517  0.0070  0.2580
   33MOL0     C 4384   9.761   8.325   8.945  0.5043 -0.6578 -0.1385
   33MOL0     C 4385   9.699   8.221   8.929  0.1257 -0.1353  0.2559
   33MOL0     C 4386   9.209   8.783   9.042  0.2326  0.0314 -0.8846
   33MOL0     C 4387   9.073   8.803   9.022 -0.2645  0.2440 -0.5201
   33MOL0     H 4388   8.632   8.585   8.751 -0.5687 -1.6025 -1.2409
   33MOL0     H 4389   8.416   8.617   8.665  1.2223  0.1951 -1.3385
   33MOL0     H 4390   8.223   8.950   8.751  1.5143  0.6424  0.5105
   33MOL0     H 4391   8.268   9.051   8.609 -1.3006 -0.0424  0.4790
   33MOL0     H 4392   8.034   9.054   8.595  1.7957  0.0832  1.6707
   33MOL0     H 4393   8.092   8.932   8.477  2.6820 -1.2685 -0.0362
   33MOL0     H 4394   7.991   8.756   8.613 -0.5791 -1.2991  2.2837
   33MOL0     H 4395   8.004   8.846   8.759  0.3345 -1.9345 -0.6035
   33MOL0     H 4396   7.808   8.963   8.724 -3.1970 -0.7146 -1.4618
   33MOL0     H 4397   7.821   8.948   8.544  1.8580 -1.2019 -1.6351
   33MOL0     H 4398   7.792   8.684   8.597 -0.1415 -0.2166  0.4202
   33MOL0     H 4399   7.735   8.734   8.746 -1.1704  1.2408  1.0119
   33MOL0     H 4400   7.597   8.882   8.531  0.2235  0.5076  3.2336
   33MOL0     H 4401   7.605   8.701   8.505  1.1633 -0.1803  0.0651
   33MOL0     H 4402   7.517   8.674   8.746 -0.4966  1.5003  1.6784
   33MOL0     H 4403   7.500   8.853   8.750  0.3777 -0.0432  1.3042
   33MOL0     H 4404   7.301   8.680   8.688  2.6994 -1.0748  0.9438
   33MOL0     H 4405   7.379   8.680   8.530 -2.0659 -1.9693  0.7520
   33MOL0     H 4406   7.423   9.009   8.502  0.1099 -2.7336  0.2959
   33MOL0     H 4407   7.208   9.251   8.467  0.7861  0.3079 -0.2626
   33MOL0     H 4408   7.247   9.162   8.321  1.3263 -0.0495  0.7869
   33MOL0     H 4409   7.022   9.278   8.348  0.1970 -0.6333 -1.1412
   33MOL0     H 4410   6.972   9.160   8.475  2.2154 -0.2705  1.8108
   33MOL0     H 4411   7.049   8.988   8.265  1.1669  0.9910  2.8558
   33MOL0     H 4412   7.014   9.135   8.177 -3.8654 -0.9013 -2.2551
   33MOL0     H 4413   6.835   8.959   8.355  3.6481 -1.8980 -2.0487
   33MOL0     H 4414   6.822   8.989   8.183 -3.1563  1.1624  0.6448
   33MOL0     H 4415   6.629   9.356   8.178  0.6516 -0.5635  1.1827
   33MOL0     H 4416   6.292   9.405   8.079  0.0688 -2.6143 -0.9583
   33MOL0     H 4417   6.350   9.463   8.242 -1.8481  0.1449 -0.5692
   33MOL0     H 4418   6.457   9.475   8.114  0.8276 -0.0069  1.1598
   33MOL0     H 4419   5.967   8.903   8.339  1.1385  0.0434  3.4932
   33MOL0     H 4420   5.721   8.932   8.419 -0.9827  2.4525  0.9868
   33MOL0     H 4421   5.580   9.386   8.451 -1.2134  0.5516 -1.6187
   33MOL0     H 4422   5.541   9.293   8.309 -0.5243  1.4738  0.1917
   33MOL0     H 4423   5.394   9.291   8.588 -0.3644  1.1063 -0.0180
   33MOL0     H 4424   5.347   9.386   8.451  0.5258  0.1428  0.4978
   33MOL0     H 4425   5.350   9.089   8.435 -0.2521  0.4881  0.0882
   33MOL0     H 4426   5.297   9.202   8.304 -1.4104  1.2998 -0.1210
   33MOL0     H 4427   5.174   9.165   8.590 -3.0833 -2.6407  0.4875
   33MOL0     H 4428   5.114   9.277   8.468 -0.7674  0.0371 -1.1476
   33MOL0     H 4429   5.017   9.027   8.500 -0.2291  1.2875 -0.3678
   33MOL0     H 4430   5.163   8.979   8.406 -0.1817 -0.3833 -0.0342
   33MOL0     H 4431   5.049   9.192   8.263  1.8020 -0.9865 -0.3442
   33MOL0     H 4432   4.994   9.021   8.233  0.9228  1.0516 -0.8821
   33MOL0     H 4433   4.866   9.245   8.402  0.0085  0.3252 -2.1764
   33MOL0     H 4434   4.826   9.078   8.432  0.8667 -1.6626 -0.8321
   33MOL0     H 4435   4.780   9.057   8.181  1.8054 -2.7117  3.3033
   33MOL0     H 4436   4.765   9.234   8.186 -3.6678  0.6470  0.1384
   33MOL0     H 4437   5.790   9.351   8.395  3.5303 -0.1109  1.0776
   33MOL0     H 4438   6.006   9.317   8.331 -1.9880  1.0191  1.7072
   33MOL0     H 4439   6.370   8.948   8.274  0.8101  0.2935  0.8646
   33MOL0     H 4440   6.606   8.952   8.308  0.4599  1.5353  1.2632
   33MOL0     H 4441   8.490   9.042   8.616  0.0588  0.1923  1.3774
   33MOL0     H 4442   8.702   9.017   8.717  1.2568 -0.7291 -1.5440
   33MOL0     H 4443   9.069   8.706   8.687  3.8200 -1.7117 -1.2293
   33MOL0     H 4444   9.306   8.664   8.752  0.5657  0.2185  1.2202
   33MOL0     H 4445   9.469   8.570   8.863  2.6684 -2.2743  1.5900
   33MOL0     H 4446   9.555   8.722   8.831 -1.2818  0.4020  0.4327
   33MOL0     H 4447   9.599   8.537   9.081 -0.1117 -2.8672 -3.0595
   33MOL0     H 4448   9.673   8.696   9.058 -1.2904  1.0548  1.0611
   33MOL0     H 4449   9.820   8.641   8.906  2.5204 -3.0776  0.5979
   33MOL0     H 4450   9.714   8.540   8.816  1.1019  2.8991  0.0643
   33MOL0     H 4451   9.862   8.457   9.072  2.2347 -1.0822 -0.1339
   33MOL0     H 4452   9.933   8.441   8.922  0.4663  0.3427  0.9098
   33MOL0     H 4453   9.642   8.132   8.910 -0.0276  0.0606 -0.2166
   33MOL0     H 4454   9.252   8.808   9.138 -1.5543 -2.2159  0.6210
   33MOL0     H 4455   9.016   8.849   9.102  2.8513  1.2822  1.2815
   34MOL0     O 4456   6.856   3.853  10.495  0.1748  0.0121 -0.2948
   34MOL0     C 4457   6.915   3.833  10.600  0.3062 -0.9642 -0.0896
   34MOL0     O 4458   6.887   3.730  10.689 -0.0619 -0.3120 -0.2350
   34MOL0     C 4459   6.785   3.636  10.680  0.7300 -0.2386  0.1715
   34MOL0     C 4460   6.789   3.540  10.777 -0.8504  0.5631 -0.0163
   34MOL0     C 4461   6.701   3.416  10.766  0.1362 -0.2650 -0.3088
   34MOL0     C 4462   6.605   3.409  10.657 -0.0311 -0.1596 -0.5055
   34MOL0     O 4463   6.519   3.310  10.630 -0.0677  0.9000  0.2289
   34MOL0     C 4464   6.448   3.271  10.751  0.9787 -0.3174  0.4099
   34MOL0     C 4465   6.375   3.134  10.727  0.2083 -0.0143  0.5950
   34MOL0     C 4466   6.268   3.109  10.834 -0.9163 -0.6705  0.8913
   34MOL0     C 4467   6.194   2.981  10.806  0.1336  0.0403 -0.2299
   34MOL0     C 4468   6.071   3.000  10.713  0.2084  1.1258 -0.5510
   34MOL0     C 4469   5.983   2.876  10.696 -0.4408  0.7725  0.0512
   34MOL0     C 4470   5.856   2.898  10.609  0.1214 -0.5501 -0.0824
   34MOL0     C 4471   5.742   2.956  10.695  0.1373 -0.3485  0.9392
   34MOL0     N 4472   5.695   2.881  10.808  1.0107 -0.4292  0.0163
   34MOL0     C 4473   5.618   2.761  10.804  0.3916 -0.0582  0.5586
   34MOL0     C 4474   5.621   2.717  10.931  0.5659 -0.1109  0.4679
   34MOL0     C 4475   5.568   2.575  10.966  0.4651 -1.8203 -0.1438
   34MOL0     C 4476   5.474   2.562  11.088  0.0422 -0.8191 -0.2139
   34MOL0     C 4477   5.344   2.647  11.064 -0.1652  0.1221 -0.1254
   34MOL0     C 4478   5.243   2.603  11.164 -0.2099 -0.2655  0.0438
   34MOL0     O 4479   5.175   2.724  11.213 -0.0512 -0.0018 -0.4166
   34MOL0     C 4480   5.047   2.746  11.178  0.2385  0.5922  0.2092
   34MOL0     C 4481   4.976   2.829  11.271 -0.4482  0.4209 -0.1228
   34MOL0     C 4482   4.841   2.871  11.253 -0.5878  0.0804  0.3838
   34MOL0     C 4483   4.776   2.964  11.357  0.2073 -0.3367  1.0013
   34MOL0     C 4484   4.772   2.814  11.135  0.6148  0.0599  0.4819
   34MOL0     C 4485   4.632   2.843  11.100  0.4733  0.1345 -0.7054
   34MOL0     O 4486   4.589   2.975  11.092  0.0178  0.1152 -0.1982
   34MOL0     C 4487   4.459   2.995  11.077  0.4319  0.3098  0.3317
   34MOL0     C 4488   4.418   3.068  10.970  0.6655  0.4217 -0.5790
   34MOL0     C 4489   4.283   3.096  10.956  0.6234 -0.0075  0.2753
   34MOL0     C 4490   4.183   3.054  11.038 -0.3377  0.1910  0.4114
   34MOL0     O 4491   4.065   3.101  11.000  0.3002 -0.1279  0.6889
   34MOL0     C 4492   3.949   3.053  11.076 -0.4569  0.2365 -0.1674
   34MOL0     C 4493   3.815   3.108  11.023 -0.3197  1.0700 -0.1832
   34MOL0     C 4494   3.701   3.050  11.100 -0.0577 -0.3885  0.3698
   34MOL0     C 4495   3.584   3.137  11.063 -0.1309  0.3089  0.3165
   34MOL0     C 4496   3.451   3.093  11.130 -0.3861 -0.5802 -0.5451
   34MOL0     C 4497   3.328   3.185  11.109 -0.6789 -0.1105  0.1286
   34MOL0     C 4498   3.206   3.129  11.170 -0.3594  0.5236  0.1956
   34MOL0     C 4499   3.084   3.201  11.122  0.1809 -0.0444 -0.1247
   34MOL0    Cl 4500   3.050   3.170  10.948 -0.4674  0.1740  0.5145
   34MOL0     C 4501   4.220   2.963  11.137  0.2989 -0.5141 -0.5703
   34MOL0     C 4502   4.358   2.939  11.165  1.0595  1.0461 -0.1753
   34MOL0     O 4503   4.568   2.746  11.061 -0.0821 -0.1509 -0.6934
   34MOL0     C 4504   4.850   2.740  11.040 -0.0547 -1.1396 -0.0288
   34MOL0     C 4505   4.978   2.701  11.060  0.5665 -0.0075  0.2408
   34MOL0     N 4506   5.684   2.809  11.010  0.2968  0.3079 -0.3647
   34MOL0     N 4507   5.712   2.914  10.938  0.1573  0.1567 -0.1157
   34MOL0     C 4508   6.592   3.526  10.575  0.6623  0.4391 -0.6396
   34MOL0     C 4509   6.678   3.629  10.585 -0.1049 -0.5910  0.4674
   34MOL0     C 4510   7.050   3.877  10.615  0.6003  0.0570 -0.2525
   34MOL0     C 4511   7.103   3.905  10.742  1.3383  0.5229 -0.2717
   34MOL0     C 4512   7.231   3.957  10.751  0.4497 -0.2203  0.0247
   34MOL0     C 4513   7.310   3.986  10.635  0.2981  0.9283 -0.2516
   34MOL0     O 4514   7.431   4.052  10.628  0.5089  0.1600  0.4774
   34MOL0     C 4515   7.480   4.130  10.740 -0.6795 -0.2348 -0.6062
   34MOL0     C 4516   7.623   4.196  10.702  0.0842  0.7526 -0.1438
   34MOL0     C 4517   7.611   4.282  10.579 -0.0192  0.2187 -0.8530
   34MOL0     C 4518   7.747   4.350  10.559 -0.3267 -0.1475 -0.2286
   34MOL0     C 4519   7.752   4.422  10.438  0.2620  0.4402 -1.0629
   34MOL0     C 4520   7.745   4.486  10.337  0.5998 -0.1208 -0.1673
   34MOL0     C 4521   7.255   3.950  10.508 -0.0904  0.5801  0.4103
   34MOL0     C 4522   7.131   3.890  10.500  0.4769 -0.0611 -0.1433
   34MOL0     H 4523   6.862   3.542  10.857 -0.3120  0.0098 -0.4861
   34MOL0     H 4524   6.704   3.332  10.835 -1.3161 -1.9835 -2.1997
   34MOL0     H 4525   6.516   3.253  10.835 -0.7040 -3.4014  1.2653
   34MOL0     H 4526   6.373   3.347  10.772 -0.0328 -0.7591 -1.4139
   34MOL0     H 4527   6.338   3.141  10.625 -0.1533  2.1454  0.8245
   34MOL0     H 4528   6.444   3.052  10.746 -0.1185 -0.0963  1.4822
   34MOL0     H 4529   6.328   3.109  10.925 -1.4374 -2.5408  1.2699
   34MOL0     H 4530   6.192   3.187  10.830 -0.7929 -0.5386  1.0996
   34MOL0     H 4531   6.273   2.910  10.780  3.7085  3.2144  0.9747
   34MOL0     H 4532   6.165   2.952  10.908 -3.3574 -3.1914 -1.8699
   34MOL0     H 4533   6.007   3.076  10.758  1.3579 -0.1145  3.5562
   34MOL0     H 4534   6.113   3.035  10.618  3.7055  0.5114  0.6234
   34MOL0     H 4535   6.043   2.803  10.641  0.2170  2.3423 -1.4325
   34MOL0     H 4536   5.950   2.838  10.793 -0.4553  0.0408 -0.2333
   34MOL0     H 4537   5.881   2.959  10.522 -0.2716 -0.8406 -0.4008
   34MOL0     H 4538   5.825   2.798  10.575  1.9439 -0.8520 -0.9876
   34MOL0     H 4539   5.656   2.974  10.631 -1.0682 -1.9360  2.0493
   34MOL0     H 4540   5.775   3.051  10.737 -1.4732  1.2978 -1.3177
   34MOL0     H 4541   5.584   2.710  10.714  1.6587  1.2365 -0.7141
   34MOL0     H 4542   5.520   2.531  10.878 -1.6036  0.5354 -0.2812
   34MOL0     H 4543   5.665   2.525  10.978  1.6373  0.3150 -0.0957
   34MOL0     H 4544   5.523   2.604  11.176 -1.1173  2.1317 -0.8359
   34MOL0     H 4545   5.454   2.456  11.103  0.8701 -1.2147 -1.7088
   34MOL0     H 4546   5.302   2.637  10.964  1.1937  3.3395 -1.1353
   34MOL0     H 4547   5.365   2.751  11.090 -2.6541  0.3173  1.4626
   34MOL0     H 4548   5.297   2.564  11.251  0.2331 -0.0807 -0.1488
   34MOL0     H 4549   5.181   2.527  11.115 -2.4530  1.7907 -0.5092
   34MOL0     H 4550   5.025   2.858  11.364  0.0486  0.1607 -0.3010
   34MOL0     H 4551   4.847   3.007  11.429 -1.5498  3.8057  0.5765
   34MOL0     H 4552   4.746   3.048  11.294  0.6518  0.4863  1.8565
   34MOL0     H 4553   4.687   2.923  11.404 -1.5349  0.6813 -1.2181
   34MOL0     H 4554   4.495   3.099  10.900  3.6536 -1.8020  1.4420
   34MOL0     H 4555   4.259   3.164  10.875 -1.6200 -1.6234 -0.4901
   34MOL0     H 4556   3.950   2.944  11.066 -1.2983 -0.0624  2.2825
   34MOL0     H 4557   3.963   3.080  11.181 -0.1975  0.1520 -0.1788
   34MOL0     H 4558   3.827   3.216  11.030 -0.3177  1.1436 -1.1952
   34MOL0     H 4559   3.805   3.085  10.917 -0.4659 -2.4416  0.4608
   34MOL0     H 4560   3.715   3.066  11.207  0.6290 -2.0016  0.5550
   34MOL0     H 4561   3.698   2.943  11.078 -0.0988 -0.1608 -0.7957
   34MOL0     H 4562   3.606   3.239  11.094 -0.2215  0.4080  0.0614
   34MOL0     H 4563   3.566   3.145  10.955  0.5622  2.8182  0.3129
   34MOL0     H 4564   3.471   3.079  11.236 -1.5145  1.4492 -0.0066
   34MOL0     H 4565   3.425   2.996  11.087 -2.5400 -1.2149  1.9888
   34MOL0     H 4566   3.341   3.281  11.158 -3.1572 -0.0958  0.8864
   34MOL0     H 4567   3.319   3.185  11.000 -1.4479 -3.1808  0.0884
   34MOL0     H 4568   3.204   3.147  11.278  0.2059 -0.2944  0.3441
   34MOL0     H 4569   3.191   3.022  11.156 -0.5924  0.1135  3.0284
   34MOL0     H 4570   3.097   3.306  11.147 -2.0394  0.4990 -1.0091
   34MOL0     H 4571   3.009   3.158  11.188  1.5224 -0.8867  0.9026
   34MOL0     H 4572   4.140   2.922  11.198  0.1170  1.6721  0.7443
   34MOL0     H 4573   4.391   2.879  11.249  0.8517  0.9256 -0.1805
   34MOL0     H 4574   4.797   2.705  10.952 -0.6251 -1.3660  0.4012
   34MOL0     H 4575   5.018   2.632  10.987 -2.5697  0.3494 -1.9906
   34MOL0     H 4576   6.533   3.523  10.484 -1.5179  0.8915  0.6868
   34MOL0     H 4577   6.670   3.702  10.505  2.2076 -1.3377 -0.5361
   34MOL0     H 4578   7.039   3.891  10.829  1.6292  0.6348 -0.0362
   34MOL0     H 4579   7.268   3.975  10.851  2.5012 -0.3830 -0.6456
   34MOL0     H 4580   7.417   4.213  10.773  0.1450 -0.0142  0.4661
   34MOL0     H 4581   7.498   4.063  10.824 -0.1348 -0.7644 -1.1257
   34MOL0     H 4582   7.684   4.111  10.671  0.1462  0.8522 -0.2952
   34MOL0     H 4583   7.662   4.256  10.785  1.6936 -0.3116 -0.0924
   34MOL0     H 4584   7.526   4.350  10.590 -2.4763 -2.2480 -3.0400
   34MOL0     H 4585   7.597   4.208  10.499  2.7821 -0.6098 -0.6595
   34MOL0     H 4586   7.826   4.275  10.562 -0.1848  0.0164  1.5709
   34MOL0     H 4587   7.767   4.418  10.643  0.4198 -0.2488 -0.3187
   34MOL0     H 4588   7.737   4.537  10.243 -1.0647 -0.2638 -0.1314
   34MOL0     H 4589   7.314   3.967  10.419 -0.5018  1.3068  0.2632
   34MOL0     H 4590   7.092   3.860  10.404 -1.0536  1.1662  0.0428
   35MOL0     O 4591   1.671   9.069   6.027  0.5176 -0.8668  0.1590
   35MOL0     C 4592   1.708   8.973   5.961 -0.7844 -0.3919  1.2999
   35MOL0     O 4593   1.645   8.917   5.854  0.4512  0.5391  0.0822
   35MOL0     C 4594   1.547   8.991   5.789 -0.6431 -0.5800 -0.2463
   35MOL0     C 4595   1.559   9.123   5.740 -0.2624 -0.0677 -0.8192
   35MOL0     C 4596   1.458   9.173   5.653 -0.7086  0.0700 -0.0149
   35MOL0     C 4597   1.352   9.093   5.612 -0.3844 -0.0632  0.3629
   35MOL0     O 4598   1.247   9.133   5.535 -0.2148  0.2011  0.4986
   35MOL0     C 4599   1.250   9.256   5.461 -0.3333 -0.2230  1.0382
   35MOL0     C 4600   1.151   9.235   5.347  0.6157  0.4032  0.1379
   35MOL0     C 4601   1.001   9.199   5.381  0.1574  0.4887  0.2978
   35MOL0     C 4602   0.936   9.162   5.249 -0.6333 -0.1989 -0.0630
   35MOL0     C 4603   0.780   9.182   5.246 -0.9997  0.0338 -0.6127
   35MOL0     C 4604   0.722   9.167   5.109  0.9108  0.6214 -0.1143
   35MOL0     C 4605   0.577   9.223   5.100 -0.3964 -0.4527 -0.1361
   35MOL0     C 4606   0.514   9.174   4.970  0.4177  0.7844  0.2500
   35MOL0     N 4607   0.466   9.032   4.986  0.9290 -1.0763  0.2235
   35MOL0     C 4608   0.352   8.998   5.050  0.2486  0.5166  0.9582
   35MOL0     C 4609   0.336   8.862   5.021  0.2782 -0.1461 -0.0974
   35MOL0     C 4610   0.223   8.777   5.068 -0.5173 -0.2810  0.7125
   35MOL0     C 4611   0.104   8.828   5.001 -0.1906  0.7561 -0.4254
   35MOL0     C 4612  -0.010   8.726   5.038  0.3669 -0.4623  0.4023
   35MOL0     C 4613  -0.149   8.796   5.022  0.1890  0.4418 -0.3758
   35MOL0     O 4614  -0.196   8.821   4.891 -0.0640  1.2039  0.2827
   35MOL0     C 4615  -0.324   8.853   4.869  0.0563  0.2961  0.6675
   35MOL0     C 4616  -0.422   8.868   4.961  0.8378 -0.2746  0.2324
   35MOL0     C 4617  -0.564   8.876   4.937 -0.2654 -0.2173  0.4863
   35MOL0     C 4618  -0.664   8.864   5.058 -0.6206  0.2756  0.7494
   35MOL0     C 4619  -0.601   8.881   4.802 -1.5457  0.5436  0.7788
   35MOL0     C 4620  -0.744   8.894   4.763  0.1376  0.5424  0.8964
   35MOL0     O 4621  -0.777   8.819   4.654 -0.2765 -0.5112  0.6291
   35MOL0     C 4622  -0.910   8.800   4.615  0.2117 -0.0489  0.3557
   35MOL0     C 4623  -1.017   8.795   4.696  0.2193  1.1306 -0.2090
   35MOL0     C 4624  -1.146   8.781   4.647 -1.0225  0.0167 -0.3084
   35MOL0     C 4625  -1.173   8.779   4.508  0.0552  0.1212  0.0837
   35MOL0     O 4626  -1.301   8.764   4.465  0.0453  0.5382 -0.3333
   35MOL0     C 4627  -1.343   8.839   4.355 -0.1494  0.1841 -0.0871
   35MOL0     C 4628  -1.492   8.872   4.350 -0.3293  0.0942 -0.2759
   35MOL0     C 4629  -1.521   8.954   4.221 -0.0290  0.2326 -0.0110
   35MOL0     C 4630  -1.667   9.008   4.242  0.7941 -0.0655  0.1415
   35MOL0     C 4631  -1.707   9.095   4.121 -0.1514 -0.6750 -0.3861
   35MOL0     C 4632  -1.848   9.145   4.133 -0.1002 -0.1226 -0.6332
   35MOL0     C 4633  -1.892   9.259   4.036  0.4542 -0.0703  0.3302
   35MOL0     C 4634  -2.043   9.289   4.055 -0.7510  0.4358  0.5475
   35MOL0    Cl 4635  -2.072   9.381   4.205 -0.2432 -0.1615 -0.4508
   35MOL0     C 4636  -1.072   8.775   4.419 -0.7171  0.2360  0.4050
   35MOL0     C 4637  -0.935   8.784   4.478  0.5969  0.7896  0.1595
   35MOL0     O 4638  -0.822   8.968   4.821 -0.0520  0.0251  0.1963
   35MOL0     C 4639  -0.498   8.867   4.705  0.7308 -0.1851  0.2471
   35MOL0     C 4640  -0.368   8.847   4.737 -0.6049 -0.8254  0.3280
   35MOL0     N 4641   0.436   8.827   4.938 -1.0767  0.9169  0.6605
   35MOL0     N 4642   0.517   8.924   4.922 -0.2832 -0.3462 -0.3955
   35MOL0     C 4643   1.345   8.959   5.659  0.5406  0.7713  0.5372
   35MOL0     C 4644   1.445   8.909   5.740 -0.8099  0.9118  0.1302
   35MOL0     C 4645   1.846   8.918   5.993  0.9257  0.6763 -0.2483
   35MOL0     C 4646   1.899   8.795   5.944  0.6012  0.3031 -0.5265
   35MOL0     C 4647   2.017   8.747   5.986  0.2437 -0.2490  0.4019
   35MOL0     C 4648   2.099   8.818   6.073 -0.5235  0.0113 -0.1276
   35MOL0     O 4649   2.216   8.760   6.116  0.0311  0.2266  0.1938
   35MOL0     C 4650   2.304   8.825   6.207 -0.2914  0.1518 -1.4937
   35MOL0     C 4651   2.428   8.745   6.195  0.5624 -0.0469  0.0170
   35MOL0     C 4652   2.410   8.604   6.257  0.2181 -0.2532 -0.0080
   35MOL0     C 4653   2.548   8.550   6.293 -0.5251 -0.3351 -0.9302
   35MOL0     C 4654   2.551   8.407   6.328 -0.2100 -0.0061 -0.0026
   35MOL0     C 4655   2.544   8.286   6.352  0.2580  0.5015  0.0830
   35MOL0     C 4656   2.046   8.939   6.124  0.2198  0.3314  0.9028
   35MOL0     C 4657   1.921   8.978   6.090 -0.8582  0.2449 -0.3182
   35MOL0     H 4658   1.648   9.180   5.763 -0.7194 -0.1541  1.3723
   35MOL0     H 4659   1.469   9.278   5.627 -1.3679  1.0643  3.2664
   35MOL0     H 4660   1.227   9.343   5.522 -0.0214  1.2007 -0.7918
   35MOL0     H 4661   1.350   9.268   5.418 -0.9826 -0.2623 -0.5586
   35MOL0     H 4662   1.149   9.326   5.285 -0.4377  1.2006  1.2773
   35MOL0     H 4663   1.192   9.151   5.291  0.1695  1.0348 -1.1714
   35MOL0     H 4664   1.009   9.112   5.448  1.2241 -0.3676 -0.9076
   35MOL0     H 4665   0.949   9.283   5.427 -3.6662  0.6538 -3.6254
   35MOL0     H 4666   0.974   9.230   5.173 -1.1773 -1.9864 -2.0322
   35MOL0     H 4667   0.958   9.055   5.236 -1.3593 -0.5091  1.0513
   35MOL0     H 4668   0.728   9.112   5.312  0.8195  0.5605  1.5116
   35MOL0     H 4669   0.770   9.287   5.275  3.5586  0.2218  1.2494
   35MOL0     H 4670   0.785   9.231   5.046 -0.9205  0.2754 -2.4218
   35MOL0     H 4671   0.722   9.063   5.075 -3.9339  0.3754 -0.0637
   35MOL0     H 4672   0.510   9.204   5.185 -1.9405  1.2309 -0.9055
   35MOL0     H 4673   0.588   9.332   5.096 -3.5893  0.0330  1.3414
   35MOL0     H 4674   0.599   9.163   4.903  1.6061 -2.7045  2.0757
   35MOL0     H 4675   0.432   9.240   4.939 -0.8606 -0.9927 -0.3566
   35MOL0     H 4676   0.295   9.067   5.111  0.8093  2.1940 -0.3377
   35MOL0     H 4677   0.242   8.672   5.042 -0.3265 -0.6777  2.3896
   35MOL0     H 4678   0.211   8.780   5.176  0.8199  0.5628  0.8629
   35MOL0     H 4679   0.111   8.826   4.892 -0.9866 -0.6164 -0.4660
   35MOL0     H 4680   0.084   8.926   5.045 -1.6010  0.2181  0.1941
   35MOL0     H 4681  -0.004   8.705   5.145 -3.3375 -0.1966  0.7751
   35MOL0     H 4682   0.005   8.641   4.971 -1.2995 -0.2540 -0.2611
   35MOL0     H 4683  -0.149   8.893   5.072 -0.8614  0.4389 -0.3582
   35MOL0     H 4684  -0.213   8.726   5.077  3.8433 -1.6304  1.6134
   35MOL0     H 4685  -0.401   8.855   5.066  1.4231 -1.9907 -0.0691
   35MOL0     H 4686  -0.613   8.799   5.131  0.2615  0.3960  0.2603
   35MOL0     H 4687  -0.693   8.959   5.103  0.3714  1.3609 -0.7889
   35MOL0     H 4688  -0.756   8.814   5.028  0.4391 -1.7060  0.5874
   35MOL0     H 4689  -1.008   8.786   4.804  2.3397 -2.3835 -0.5114
   35MOL0     H 4690  -1.232   8.769   4.713  0.1607  0.6309  1.4029
   35MOL0     H 4691  -1.287   8.933   4.352 -0.8216  0.5716 -0.9375
   35MOL0     H 4692  -1.309   8.782   4.268  0.1931 -0.7419  0.6278
   35MOL0     H 4693  -1.540   8.774   4.348  3.7229 -2.1987 -3.7105
   35MOL0     H 4694  -1.520   8.927   4.440  3.3622  2.2203 -0.2098
   35MOL0     H 4695  -1.524   8.896   4.128  0.0355  0.6823 -0.2995
   35MOL0     H 4696  -1.451   9.038   4.221 -0.2573  0.4533  1.9568
   35MOL0     H 4697  -1.746   8.934   4.262  1.0644 -0.9430 -1.8048
   35MOL0     H 4698  -1.663   9.068   4.334 -1.4961 -0.1987  0.3966
   35MOL0     H 4699  -1.690   9.044   4.026  3.6581  2.9525 -1.9466
   35MOL0     H 4700  -1.641   9.182   4.118 -1.7943  0.6625  0.8307
   35MOL0     H 4701  -1.920   9.067   4.111 -1.3903  0.3404  1.6327
   35MOL0     H 4702  -1.878   9.181   4.232 -2.1355 -3.4483  0.1104
   35MOL0     H 4703  -1.884   9.229   3.931  0.7124  0.0240  0.3228
   35MOL0     H 4704  -1.837   9.353   4.044  1.5762 -0.6340 -0.4784
   35MOL0     H 4705  -2.097   9.195   4.057  1.4846 -0.9879 -1.3245
   35MOL0     H 4706  -2.082   9.347   3.971 -0.2251 -0.9924 -0.7278
   35MOL0     H 4707  -1.077   8.762   4.312  5.4021 -0.5488 -0.1276
   35MOL0     H 4708  -0.853   8.765   4.409 -0.2470  0.0651 -0.6629
   35MOL0     H 4709  -0.516   8.870   4.598  0.0407 -0.2492  0.3557
   35MOL0     H 4710  -0.290   8.828   4.664 -2.2806  0.9114 -2.0536
   35MOL0     H 4711   1.256   8.901   5.636  0.2691  0.5046  2.1309
   35MOL0     H 4712   1.451   8.805   5.770  1.2751  0.8680 -0.3107
   35MOL0     H 4713   1.836   8.740   5.875  0.6631 -1.0117  0.4280
   35MOL0     H 4714   2.056   8.656   5.941 -2.0983 -0.5979 -1.1192
   35MOL0     H 4715   2.325   8.930   6.183 -0.1766  0.9454  1.6953
   35MOL0     H 4716   2.271   8.824   6.311  1.3185  0.6656 -0.9544
   35MOL0     H 4717   2.512   8.799   6.240 -1.6201  0.8760  3.3737
   35MOL0     H 4718   2.445   8.735   6.087 -0.4002  0.9777 -0.2504
   35MOL0     H 4719   2.362   8.534   6.189 -0.4145  0.9663 -0.8600
   35MOL0     H 4720   2.354   8.610   6.351  0.0080  1.6404 -0.2067
   35MOL0     H 4721   2.587   8.605   6.379 -3.0945 -0.0406  0.1308
   35MOL0     H 4722   2.623   8.562   6.214 -0.8287 -3.8187 -1.9189
   35MOL0     H 4723   2.568   8.188   6.388  0.1719  0.3184 -0.3513
   35MOL0     H 4724   2.093   9.006   6.196 -0.7241  3.8111 -1.5116
   35MOL0     H 4725   1.875   9.062   6.141 -2.7470 -0.4696 -0.7472
   36MOL0     O 4726   4.516   9.095   9.705 -0.2127  0.4290 -0.5517
   36MOL0     C 4727   4.621   9.062   9.772  0.7282 -0.8315 -0.4647
   36MOL0     O 4728   4.616   8.987   9.889 -0.1155 -1.1413 -0.4668
   36MOL0     C 4729   4.497   8.942   9.934 -0.4631 -0.0236 -0.7455
   36MOL0     C 4730   4.463   8.973  10.066  0.3335  0.3910 -0.2845
   36MOL0     C 4731   4.347   8.924  10.120  1.3786 -0.5723 -1.0876
   36MOL0     C 4732   4.270   8.826  10.056  0.1783 -0.5177  0.6667
   36MOL0     O 4733   4.154   8.760  10.096 -0.0820 -0.1413  0.1255
   36MOL0     C 4734   4.091   8.795  10.222  0.3112  0.3463  0.0106
   36MOL0     C 4735   3.936   8.797  10.224  0.2182 -0.3931  0.2856
   36MOL0     C 4736   3.876   8.822  10.366  0.0948 -1.0980 -1.0056
   36MOL0     C 4737   3.728   8.808  10.347 -0.1069  0.1895 -0.6372
   36MOL0     C 4738   3.657   8.826  10.482 -1.0321 -0.0446  1.1135
   36MOL0     C 4739   3.508   8.789  10.469 -0.2610 -0.6713  0.0703
   36MOL0     C 4740   3.444   8.805  10.606 -0.1754  0.1635 -0.2026
   36MOL0     C 4741   3.293   8.820  10.591  0.4550  0.1135  0.2860
   36MOL0     N 4742   3.235   8.819  10.724  0.1118  0.5374  0.1148
   36MOL0     C 4743   3.099   8.799  10.749 -0.7030 -0.9762 -0.5913
   36MOL0     C 4744   3.086   8.823  10.886  0.3687  0.2561  0.8847
   36MOL0     C 4745   2.969   8.823  10.966 -0.5585  0.8558  0.0059
   36MOL0     C 4746   2.920   8.966  10.990 -0.3477 -0.1173 -0.5937
   36MOL0     C 4747   2.848   9.014  10.857 -0.3318 -0.3776  0.2132
   36MOL0     C 4748   2.802   9.165  10.867 -0.3425  0.5679 -0.5405
   36MOL0     O 4749   2.709   9.191  10.974  0.9048  0.1180  0.0276
   36MOL0     C 4750   2.576   9.161  10.947 -0.2094 -0.1255 -0.8935
   36MOL0     C 4751   2.517   9.139  10.821  0.9142 -0.0146 -0.0140
   36MOL0     C 4752   2.378   9.133  10.808 -0.5888  0.4880  0.1576
   36MOL0     C 4753   2.323   9.108  10.666 -0.0927 -0.4007  0.7122
   36MOL0     C 4754   2.298   9.148  10.926  0.8934  0.0554  0.4694
   36MOL0     C 4755   2.147   9.131  10.930 -0.0711  1.7904 -0.2776
   36MOL0     O 4756   2.085   9.135  11.050 -0.0187  0.0908  0.3912
   36MOL0     C 4757   1.952   9.096  11.048 -0.1764  0.2256  0.5915
   36MOL0     C 4758   1.859   9.198  11.032  0.3089 -0.0205 -0.4800
   36MOL0     C 4759   1.722   9.166  11.026  0.2097  0.2684  0.2602
   36MOL0     C 4760   1.677   9.031  11.027  0.2353 -0.1855 -0.3160
   36MOL0     O 4761   1.538   9.016  11.017  0.2477  0.2029 -0.8662
   36MOL0     C 4762   1.487   8.896  10.953 -0.2451 -1.2298 -0.0682
   36MOL0     C 4763   1.340   8.904  10.923 -0.1035  0.2239 -0.4831
   36MOL0     C 4764   1.280   9.033  10.860  0.6595  0.3460 -0.1328
   36MOL0     C 4765   1.337   9.068  10.729  0.8222 -0.3327 -0.7072
   36MOL0     C 4766   1.274   9.199  10.678 -0.0773 -0.6191  0.3936
   36MOL0     C 4767   1.134   9.170  10.620  0.1435  0.6365  0.3591
   36MOL0     C 4768   1.061   9.287  10.564  0.3858  0.3546 -0.3475
   36MOL0     C 4769   1.076   9.304  10.414 -0.0715 -0.2647  0.4283
   36MOL0    Cl 4770   0.944   9.208  10.332 -0.0933  0.2894 -0.0590
   36MOL0     C 4771   1.772   8.932  11.046  0.1536 -0.3074  0.8045
   36MOL0     C 4772   1.909   8.965  11.051 -0.1737 -0.5078 -0.6532
   36MOL0     O 4773   2.094   9.096  10.831 -0.6873 -0.0497 -0.1200
   36MOL0     C 4774   2.358   9.175  11.053  0.4349  0.0431  0.0100
   36MOL0     C 4775   2.496   9.162  11.059 -0.8096 -0.5263  1.0832
   36MOL0     N 4776   3.212   8.848  10.938  0.2657 -0.0662 -0.4350
   36MOL0     N 4777   3.298   8.833  10.848  0.1564 -0.1074  0.4370
   36MOL0     C 4778   4.314   8.784   9.926  0.4470 -0.6459  0.2865
   36MOL0     C 4779   4.426   8.841   9.864 -1.2266  0.9369 -0.3316
   36MOL0     C 4780   4.749   9.102   9.720  0.4427 -0.1308  0.3083
   36MOL0     C 4781   4.857   9.133   9.808  0.6054 -0.0574  0.2602
   36MOL0     C 4782   4.977   9.175   9.763 -0.7425  0.2753 -0.6348
   36MOL0     C 4783   4.993   9.196   9.625  0.1208 -0.3611 -0.4908
   36MOL0     O 4784   5.109   9.255   9.568 -0.0055 -0.0470  0.3775
   36MOL0     C 4785   5.206   9.325   9.651 -0.1312 -0.1814  0.6310
   36MOL0     C 4786   5.313   9.380   9.553  0.8260 -0.1897 -0.7417
   36MOL0     C 4787   5.409   9.474   9.622 -0.1367  0.9839 -0.1294
   36MOL0     C 4788   5.509   9.521   9.517 -0.4660  0.0226  0.4350
   36MOL0     C 4789   5.597   9.625   9.556 -0.6310  0.0767  0.0850
   36MOL0     C 4790   5.671   9.708   9.602  0.1200 -0.7163  0.1844
   36MOL0     C 4791   4.892   9.162   9.537 -0.6267 -0.7286  0.3278
   36MOL0     C 4792   4.772   9.117   9.582 -0.5002  0.7296  0.0291
   36MOL0     H 4793   4.526   9.046  10.116 -0.4480  0.3810  0.7367
   36MOL0     H 4794   4.324   8.959  10.220 -0.3591  1.9565 -2.2836
   36MOL0     H 4795   4.116   8.718  10.295 -1.1468  0.5970  0.8092
   36MOL0     H 4796   4.128   8.891  10.259  0.6983 -0.5176  1.9791
   36MOL0     H 4797   3.913   8.876  10.152 -0.0915 -0.1731  0.6208
   36MOL0     H 4798   3.888   8.710  10.180 -0.8804  1.2175 -1.8953
   36MOL0     H 4799   3.919   8.750  10.437 -0.5464  0.8887  1.5409
   36MOL0     H 4800   3.903   8.923  10.400 -0.6901 -1.5939  1.2301
   36MOL0     H 4801   3.695   8.880  10.272 -1.4938  1.2479  0.9196
   36MOL0     H 4802   3.703   8.708  10.309 -2.8082  1.0917 -1.4428
   36MOL0     H 4803   3.704   8.764  10.559 -1.5425 -1.4886  0.2818
   36MOL0     H 4804   3.666   8.934  10.498 -0.5972 -0.0306  0.7736
   36MOL0     H 4805   3.468   8.860  10.396  0.6033  0.6171  0.7996
   36MOL0     H 4806   3.505   8.684  10.440 -0.0523 -1.1697  1.7396
   36MOL0     H 4807   3.477   8.726  10.674 -2.0078  1.3253  2.1889
   36MOL0     H 4808   3.471   8.905  10.643  2.0178  0.2749 -1.9070
   36MOL0     H 4809   3.252   8.745  10.523 -0.3765  2.0338 -1.4217
   36MOL0     H 4810   3.269   8.914  10.542  2.0085 -0.6173 -2.0021
   36MOL0     H 4811   3.021   8.790  10.674 -0.9390  3.1379 -1.0161
   36MOL0     H 4812   2.883   8.767  10.926  0.1893  0.7021 -1.4537
   36MOL0     H 4813   2.993   8.786  11.066 -4.6380 -0.0171  0.8484
   36MOL0     H 4814   3.000   9.035  11.020 -0.7903 -0.7416  2.3055
   36MOL0     H 4815   2.845   8.972  11.070 -0.7220  0.7163 -0.9891
   36MOL0     H 4816   2.755   8.958  10.848 -0.1320 -0.8823  1.1126
   36MOL0     H 4817   2.914   8.997  10.771 -0.6602  1.0879 -0.3591
   36MOL0     H 4818   2.769   9.196  10.768 -2.9857  0.7007  0.2935
   36MOL0     H 4819   2.891   9.220  10.899 -1.4590  0.0691  4.3663
   36MOL0     H 4820   2.572   9.139  10.728 -0.5001 -0.7909 -0.8755
   36MOL0     H 4821   2.396   9.116  10.585 -0.4854  3.3161  0.5242
   36MOL0     H 4822   2.279   9.008  10.659  1.4934 -1.3525  2.8872
   36MOL0     H 4823   2.245   9.181  10.645 -1.4755 -1.3787  2.2211
   36MOL0     H 4824   1.892   9.301  11.043  1.7117 -0.2904 -1.7474
   36MOL0     H 4825   1.646   9.244  11.020  2.2913  2.3953 -0.1382
   36MOL0     H 4826   1.532   8.896  10.853 -3.7526  0.3425 -1.8303
   36MOL0     H 4827   1.517   8.811  11.014 -2.1312  0.0129  2.7921
   36MOL0     H 4828   1.303   8.818  10.867 -1.7497 -0.2365  1.2378
   36MOL0     H 4829   1.288   8.893  11.019  1.3553  2.6669  0.7005
   36MOL0     H 4830   1.296   9.116  10.929 -1.5668  0.6898  0.0331
   36MOL0     H 4831   1.174   9.008  10.851  0.4289  1.6968 -1.7973
   36MOL0     H 4832   1.444   9.091  10.732  0.5540  0.8987  0.2427
   36MOL0     H 4833   1.314   8.988  10.658 -0.3178 -1.9026  1.3295
   36MOL0     H 4834   1.330   9.244  10.596 -1.4605  0.8717  0.2001
   36MOL0     H 4835   1.273   9.275  10.757  0.4259 -1.5473  1.3129
   36MOL0     H 4836   1.163   9.098  10.543  2.4573  1.5360  0.2980
   36MOL0     H 4837   1.070   9.132  10.700 -0.2646 -0.4446 -0.4598
   36MOL0     H 4838   1.090   9.380  10.615 -3.3927  2.6401 -1.9567
   36MOL0     H 4839   0.955   9.275  10.587  1.0237  1.1622  3.7543
   36MOL0     H 4840   1.176   9.287  10.370  0.0018 -1.0916  0.9013
   36MOL0     H 4841   1.050   9.409  10.398  1.0630 -0.1094 -0.6417
   36MOL0     H 4842   1.733   8.833  11.067 -2.3544  0.5109  0.2879
   36MOL0     H 4843   1.986   8.889  11.056  0.8411  0.5753  1.7791
   36MOL0     H 4844   2.304   9.191  11.146 -0.0003 -1.9130  0.1307
   36MOL0     H 4845   2.533   9.177  11.160  1.2313  1.7990  0.1304
   36MOL0     H 4846   4.269   8.704   9.868  4.5617 -3.1455  0.1536
   36MOL0     H 4847   4.462   8.804   9.769 -0.1505  2.0151 -0.3628
   36MOL0     H 4848   4.838   9.132   9.915  2.9859  1.1097  0.7619
   36MOL0     H 4849   5.062   9.199   9.826  0.0078 -1.4659 -0.9286
   36MOL0     H 4850   5.156   9.397   9.717 -0.6715  2.4079 -2.3300
   36MOL0     H 4851   5.251   9.252   9.718 -1.5085 -0.9732  0.7318
   36MOL0     H 4852   5.253   9.434   9.479  1.6446  2.6497  0.5247
   36MOL0     H 4853   5.366   9.294   9.512 -0.2599 -1.9253  1.2552
   36MOL0     H 4854   5.458   9.419   9.702  0.3448  1.6196  0.0263
   36MOL0     H 4855   5.359   9.555   9.676 -5.1870 -2.0770  0.4364
   36MOL0     H 4856   5.452   9.542   9.426 -1.4268 -1.5570  0.6393
   36MOL0     H 4857   5.572   9.435   9.493  0.7828  0.2354  2.6469
   36MOL0     H 4858   5.727   9.786   9.649 -0.6918 -0.3640  0.5725
   36MOL0     H 4859   4.907   9.173   9.430 -1.5131 -3.2495 -0.1367
   36MOL0     H 4860   4.706   9.085   9.503  1.4254  2.6617 -2.5297
   37MOL0     O 4861   7.261   7.614   7.857 -0.8360 -0.2061 -0.0239
   37MOL0     C 4862   7.345   7.693   7.901  0.0103  0.3218  0.3470
   37MOL0     O 4863   7.316   7.784   8.004  0.5850  0.6728  0.2035
   37MOL0     C 4864   7.187   7.804   8.044  0.3692  0.5332  0.4602
   37MOL0     C 4865   7.092   7.887   7.974  0.0909 -1.0740  0.1318
   37MOL0     C 4866   6.956   7.868   7.998 -0.1446  0.5348  0.0205
   37MOL0     C 4867   6.906   7.772   8.089  0.2974  0.1808 -0.8155
   37MOL0     O 4868   6.770   7.760   8.109 -0.7364  0.6785  0.1172
   37MOL0     C 4869   6.707   7.630   8.121  0.5037  0.1048 -0.1321
   37MOL0     C 4870   6.557   7.643   8.146  1.0519 -0.8699  0.6533
   37MOL0     C 4871   6.470   7.645   8.024 -0.6291 -0.4971  0.8047
   37MOL0     C 4872   6.325   7.610   8.047 -0.2486 -0.2029  0.1017
   37MOL0     C 4873   6.225   7.629   7.934  1.2488 -0.2967 -0.4669
   37MOL0     C 4874   6.078   7.608   7.973 -1.4898  0.0669  0.1507
   37MOL0     C 4875   5.995   7.617   7.840  0.0428  0.7767  0.2990
   37MOL0     C 4876   5.964   7.761   7.804 -0.3447 -0.3540 -1.0012
   37MOL0     N 4877   5.846   7.812   7.877  0.5452  0.5273 -0.2401
   37MOL0     C 4878   5.838   7.872   8.005 -0.9209  0.8792 -0.4298
   37MOL0     C 4879   5.708   7.878   8.041  0.7906  0.2262 -0.3017
   37MOL0     C 4880   5.650   7.943   8.168  0.3583 -1.2178  0.0020
   37MOL0     C 4881   5.498   7.933   8.180 -0.6083 -0.2843  0.2527
   37MOL0     C 4882   5.453   7.979   8.323 -0.4157  0.0420  0.3281
   37MOL0     C 4883   5.305   7.993   8.332 -0.0824 -0.0861 -0.0744
   37MOL0     O 4884   5.237   7.869   8.318 -0.6097 -0.1350  0.6080
   37MOL0     C 4885   5.102   7.863   8.325  0.6601 -0.8397  0.1254
   37MOL0     C 4886   5.055   7.748   8.274 -0.2492 -1.1769  0.3624
   37MOL0     C 4887   4.917   7.721   8.268 -0.5506  0.9875  0.3603
   37MOL0     C 4888   4.885   7.580   8.210 -1.7868 -0.7712 -0.0138
   37MOL0     C 4889   4.825   7.822   8.296  0.6518 -0.5547  0.3983
   37MOL0     C 4890   4.677   7.797   8.300 -0.7845  0.9160 -0.4524
   37MOL0     O 4891   4.607   7.889   8.381  0.8007  0.0774  0.4150
   37MOL0     C 4892   4.474   7.913   8.366 -0.3246  0.3673  0.6017
   37MOL0     C 4893   4.406   7.962   8.475  0.8031  0.4719 -0.9959
   37MOL0     C 4894   4.268   7.985   8.463  0.6950  0.2537 -0.3456
   37MOL0     C 4895   4.208   7.989   8.337 -0.0154 -0.0152 -0.1761
   37MOL0     O 4896   4.086   8.036   8.310  0.3554 -0.6651 -0.1411
   37MOL0     C 4897   3.997   8.067   8.415  0.6438  0.8077 -0.0028
   37MOL0     C 4898   3.856   8.080   8.364  1.0040  0.8138  0.0460
   37MOL0     C 4899   3.768   8.120   8.483 -0.9384 -0.3935 -0.3478
   37MOL0     C 4900   3.620   8.127   8.425 -0.9930 -0.1194  0.9911
   37MOL0     C 4901   3.531   8.174   8.537 -1.0925 -0.3255 -0.3135
   37MOL0     C 4902   3.394   8.219   8.492  0.7898  0.0178  0.2551
   37MOL0     C 4903   3.322   8.284   8.609  0.5029 -0.1420 -0.2014
   37MOL0     C 4904   3.186   8.333   8.572  1.3676 -0.1681  0.4253
   37MOL0    Cl 4905   3.202   8.474   8.462  0.2454 -0.0848  0.3472
   37MOL0     C 4906   4.273   7.938   8.228  0.0851 -0.0633 -0.3122
   37MOL0     C 4907   4.409   7.896   8.239 -0.6841 -0.1650  0.5199
   37MOL0     O 4908   4.634   7.702   8.241  0.0199  0.2382  0.1764
   37MOL0     C 4909   4.873   7.940   8.361 -0.5214 -0.3723  0.0148
   37MOL0     C 4910   5.014   7.969   8.363  0.1579  0.4480  0.7143
   37MOL0     N 4911   5.637   7.830   7.933 -0.5374  0.5331  0.0106
   37MOL0     N 4912   5.718   7.793   7.839 -0.0984  0.0750 -0.0894
   37MOL0     C 4913   7.001   7.699   8.158  0.0516  0.0223 -0.1456
   37MOL0     C 4914   7.140   7.711   8.138  0.5886 -0.3332  0.0263
   37MOL0     C 4915   7.480   7.710   7.838 -0.3584  0.9366  0.7419
   37MOL0     C 4916   7.520   7.632   7.727 -0.7323 -0.8261  0.2546
   37MOL0     C 4917   7.655   7.643   7.683  1.1779  0.3037  1.2249
   37MOL0     C 4918   7.746   7.729   7.747  0.7480 -0.1174 -0.2920
   37MOL0     O 4919   7.871   7.739   7.711  0.3927 -0.3016  1.2896
   37MOL0     C 4920   7.909   7.857   7.639  0.4314  0.9065 -0.5748
   37MOL0     C 4921   8.058   7.861   7.607  0.4600 -0.2056  0.3549
   37MOL0     C 4922   8.112   7.763   7.497 -0.5671 -0.4025 -0.6292
   37MOL0     C 4923   8.265   7.770   7.479 -0.0293  0.3378  0.3250
   37MOL0     C 4924   8.307   7.874   7.389  0.2465  0.0455  0.6739
   37MOL0     C 4925   8.341   7.963   7.313 -0.2594 -0.1264 -0.2024
   37MOL0     C 4926   7.692   7.816   7.844  0.5412 -0.2309  0.0131
   37MOL0     C 4927   7.563   7.808   7.888  0.5296  0.5500 -0.3150
   37MOL0     H 4928   7.135   7.953   7.899 -1.3391 -1.1667 -0.7983
   37MOL0     H 4929   6.888   7.928   7.939 -0.2152 -0.2326 -0.6996
   37MOL0     H 4930   6.730   7.571   8.032  0.8417  3.0222 -2.1231
   37MOL0     H 4931   6.742   7.584   8.214  0.7366 -1.2343 -0.8540
   37MOL0     H 4932   6.522   7.571   8.221  2.6743  0.7864  3.1539
   37MOL0     H 4933   6.531   7.733   8.203 -0.2114 -2.3933  2.6373
   37MOL0     H 4934   6.485   7.736   7.966 -0.1315 -2.9800 -3.3295
   37MOL0     H 4935   6.502   7.563   7.959  2.7893 -1.4695  3.4312
   37MOL0     H 4936   6.315   7.502   8.062 -2.8765 -0.1777 -0.9516
   37MOL0     H 4937   6.293   7.655   8.141  2.1573  4.9904 -1.2059
   37MOL0     H 4938   6.223   7.732   7.897 -0.1518 -1.5785 -4.5916
   37MOL0     H 4939   6.257   7.574   7.844  1.6944 -0.5109 -0.1799
   37MOL0     H 4940   6.081   7.509   8.020  0.5792  0.2032  0.4002
   37MOL0     H 4941   6.043   7.678   8.049  0.3354  2.0394 -0.7448
   37MOL0     H 4942   6.046   7.571   7.756 -1.3247 -3.5803  1.5735
   37MOL0     H 4943   5.910   7.554   7.865  1.0086 -0.2683  1.0206
   37MOL0     H 4944   5.940   7.747   7.698 -3.2921 -0.7092 -0.3548
   37MOL0     H 4945   6.043   7.837   7.814 -0.7461  0.0812 -1.0886
   37MOL0     H 4946   5.919   7.909   8.067 -0.4491 -1.1366  0.2374
   37MOL0     H 4947   5.699   7.897   8.254  0.7239  0.3720  0.6786
   37MOL0     H 4948   5.679   8.047   8.184 -1.1842 -0.7888  0.1551
   37MOL0     H 4949   5.455   7.834   8.160 -1.1894 -0.0291  0.1939
   37MOL0     H 4950   5.461   7.996   8.098  0.7498 -0.9258 -0.9001
   37MOL0     H 4951   5.487   8.079   8.351  1.5278 -0.8490  1.3563
   37MOL0     H 4952   5.485   7.917   8.407  0.7814  0.9062  0.5304
   37MOL0     H 4953   5.261   8.069   8.267 -1.5767 -0.9424 -0.1127
   37MOL0     H 4954   5.292   8.037   8.432  1.6912 -0.6178  0.4162
   37MOL0     H 4955   5.133   7.679   8.241 -0.5731 -0.4286 -2.2121
   37MOL0     H 4956   4.818   7.525   8.277 -1.5238 -1.7628 -0.5423
   37MOL0     H 4957   4.842   7.603   8.112 -1.1053  1.9908  0.2616
   37MOL0     H 4958   4.978   7.523   8.199 -1.3776 -0.2147  0.5508
   37MOL0     H 4959   4.459   7.974   8.569 -1.5613 -3.8570  1.2372
   37MOL0     H 4960   4.217   8.029   8.548  1.8521  0.8926  0.0332
   37MOL0     H 4961   3.996   7.991   8.494 -3.0163 -1.2040 -1.6855
   37MOL0     H 4962   4.031   8.157   8.466 -0.7715  0.8019  0.9872
   37MOL0     H 4963   3.847   8.156   8.286 -1.8159  1.5706  0.9992
   37MOL0     H 4964   3.832   7.982   8.320  2.0941 -0.4982  2.1770
   37MOL0     H 4965   3.791   8.219   8.523 -5.1453  0.9097 -0.6110
   37MOL0     H 4966   3.776   8.048   8.565  1.8808  1.4029  1.1131
   37MOL0     H 4967   3.620   8.201   8.345  2.0595 -0.1666  0.8392
   37MOL0     H 4968   3.592   8.032   8.379  3.6157 -1.5132  0.5341
   37MOL0     H 4969   3.575   8.252   8.599  0.6349 -1.7225  0.3251
   37MOL0     H 4970   3.519   8.084   8.598  3.7189 -2.6726 -2.2893
   37MOL0     H 4971   3.394   8.293   8.411 -2.5956  1.4745  1.4312
   37MOL0     H 4972   3.335   8.135   8.454  2.1998 -1.3451  0.9498
   37MOL0     H 4973   3.376   8.369   8.652 -1.8111  1.5061 -0.4038
   37MOL0     H 4974   3.307   8.215   8.693 -2.0609  2.1191  1.3437
   37MOL0     H 4975   3.120   8.359   8.655  0.8854  0.1835 -0.0615
   37MOL0     H 4976   3.126   8.264   8.511 -0.1981  0.8225  0.7847
   37MOL0     H 4977   4.220   7.939   8.133  0.8163 -2.6048 -0.8279
   37MOL0     H 4978   4.468   7.867   8.153 -2.5916 -1.7357 -0.3229
   37MOL0     H 4979   4.805   8.019   8.393  0.6329  0.4590  0.5079
   37MOL0     H 4980   5.050   8.067   8.391 -0.8167  0.9979  0.0865
   37MOL0     H 4981   6.962   7.621   8.224 -1.7185  1.6766  0.8910
   37MOL0     H 4982   7.208   7.662   8.207 -0.3086  2.2851  3.0106
   37MOL0     H 4983   7.456   7.565   7.671 -1.9911  2.0942 -2.0635
   37MOL0     H 4984   7.696   7.585   7.601  2.4914  1.6386  0.8888
   37MOL0     H 4985   7.859   7.864   7.541 -1.4586 -0.3205  0.2320
   37MOL0     H 4986   7.875   7.946   7.694 -0.4102  1.3291 -1.7280
   37MOL0     H 4987   8.101   7.836   7.705  0.5204 -0.5180  0.2485
   37MOL0     H 4988   8.081   7.966   7.587  3.0227 -0.2909  2.2783
   37MOL0     H 4989   8.067   7.788   7.401 -1.1006 -1.3491 -0.6397
   37MOL0     H 4990   8.091   7.659   7.523  2.8258 -1.0052  0.1785
   37MOL0     H 4991   8.280   7.673   7.430 -3.2093  0.6459 -1.5531
   37MOL0     H 4992   8.315   7.770   7.576 -0.8707 -2.6776  0.8725
   37MOL0     H 4993   8.372   8.036   7.241 -1.2796 -0.1226 -0.6545
   37MOL0     H 4994   7.762   7.887   7.888  0.4270 -1.2277  1.8991
   37MOL0     H 4995   7.529   7.877   7.965 -0.9494 -0.0265 -0.4147
   38MOL0     O 4996   1.256   8.111   0.703 -0.4457  0.3571  0.0841
   38MOL0     C 4997   1.333   8.158   0.623  0.3146  0.0819 -0.4249
   38MOL0     O 4998   1.305   8.229   0.510  0.4562  0.4607  0.2377
   38MOL0     C 4999   1.181   8.269   0.464 -0.6686 -0.7194 -0.6388
   38MOL0     C 5000   1.068   8.255   0.530  0.7082  1.1018  0.7467
   38MOL0     C 5001   0.951   8.308   0.482  0.1840  0.4538  0.2343
   38MOL0     C 5002   0.947   8.378   0.354 -0.3734  0.1099  0.2847
   38MOL0     O 5003   0.834   8.430   0.299  0.6268  0.1756  0.3840
   38MOL0     C 5004   0.713   8.416   0.368  0.0343  0.3125 -0.1653
   38MOL0     C 5005   0.604   8.504   0.299  0.1246  0.9890 -0.8491
   38MOL0     C 5006   0.469   8.529   0.374 -0.4916 -0.1638  0.4532
   38MOL0     C 5007   0.421   8.395   0.437 -0.4107  0.1304  0.8578
   38MOL0     C 5008   0.275   8.403   0.472  1.3161  1.0403  0.6970
   38MOL0     C 5009   0.239   8.509   0.584 -0.5944  0.6560  0.2805
   38MOL0     C 5010   0.120   8.465   0.668  0.6969  0.0542  0.0681
   38MOL0     C 5011   0.090   8.553   0.785 -0.0654 -0.4710 -0.5223
   38MOL0     N 5012  -0.018   8.502   0.874  0.4593  0.1643  0.0883
   38MOL0     C 5013  -0.123   8.580   0.917  0.0347 -1.0408 -0.4066
   38MOL0     C 5014  -0.197   8.499   0.999  0.1710 -0.2106  0.3510
   38MOL0     C 5015  -0.328   8.535   1.068  0.1227  0.3558  0.0967
   38MOL0     C 5016  -0.455   8.518   0.982  0.6187 -0.3554 -0.0110
   38MOL0     C 5017  -0.586   8.518   1.064  0.2538  0.7618  0.4852
   38MOL0     C 5018  -0.714   8.493   0.980 -0.2359  0.3724  0.2213
   38MOL0     O 5019  -0.713   8.373   0.904  0.1107  1.0330 -0.3384
   38MOL0     C 5020  -0.836   8.321   0.865 -0.8020  1.1640 -0.4981
   38MOL0     C 5021  -0.948   8.399   0.835 -0.0451  0.2264  0.4468
   38MOL0     C 5022  -1.077   8.348   0.811  0.5601 -0.6814 -1.0037
   38MOL0     C 5023  -1.199   8.445   0.799 -1.0091  0.0149  0.4920
   38MOL0     C 5024  -1.092   8.203   0.824 -0.2227 -0.7697 -0.6566
   38MOL0     C 5025  -1.222   8.143   0.820 -0.4984 -0.4262  1.0522
   38MOL0     O 5026  -1.325   8.197   0.888 -0.1105  0.6563 -0.7362
   38MOL0     C 5027  -1.443   8.135   0.904 -0.0891 -0.5082  0.5003
   38MOL0     C 5028  -1.479   8.088   1.031 -0.7117 -0.2605  0.2624
   38MOL0     C 5029  -1.604   8.030   1.057  0.4176 -0.2891 -0.2850
   38MOL0     C 5030  -1.691   8.004   0.950  0.3207  0.3924 -0.5420
   38MOL0     O 5031  -1.824   7.970   0.971 -0.3608 -0.0472 -0.3743
   38MOL0     C 5032  -1.854   7.837   0.993 -0.3711 -0.3332  0.1082
   38MOL0     C 5033  -1.847   7.766   0.862 -0.1351  0.5278 -0.1126
   38MOL0     C 5034  -1.883   7.616   0.887  0.7898 -0.3257 -1.2525
   38MOL0     C 5035  -1.822   7.539   0.765  1.0370 -0.0601  0.3180
   38MOL0     C 5036  -1.674   7.503   0.779  0.3965 -0.2846  0.1167
   38MOL0     C 5037  -1.665   7.363   0.857  0.4678  0.1547 -0.3631
   38MOL0     C 5038  -1.520   7.304   0.841  0.1861  0.2311  0.6399
   38MOL0     C 5039  -1.483   7.179   0.921 -0.8764  0.0774 -0.1206
   38MOL0    Cl 5040  -1.298   7.162   0.910 -0.3670  0.1202  0.3427
   38MOL0     C 5041  -1.647   8.045   0.821 -0.2037  0.5379  0.1004
   38MOL0     C 5042  -1.530   8.112   0.797 -0.0745  0.0889  0.5604
   38MOL0     O 5043  -1.221   8.036   0.760  0.3173  1.1013 -0.3527
   38MOL0     C 5044  -0.976   8.129   0.854  0.2056  0.3952  0.0086
   38MOL0     C 5045  -0.855   8.185   0.884 -1.0537 -1.2814  0.6609
   38MOL0     N 5046  -0.130   8.384   1.019 -0.1730  0.3287 -0.3512
   38MOL0     N 5047  -0.017   8.390   0.940 -0.4844  0.1904 -0.1281
   38MOL0     C 5048   1.065   8.396   0.291 -0.8522  0.8662  0.6670
   38MOL0     C 5049   1.183   8.336   0.344 -0.2552  0.1772  0.3511
   38MOL0     C 5050   1.484   8.136   0.653  0.6273  0.3151 -0.5229
   38MOL0     C 5051   1.537   8.064   0.762  0.1946 -0.0091 -0.5886
   38MOL0     C 5052   1.669   8.060   0.788 -0.3641  0.1860 -0.3243
   38MOL0     C 5053   1.758   8.136   0.714 -0.0966 -0.3427 -0.2308
   38MOL0     O 5054   1.889   8.132   0.753  0.2315  0.4440 -0.0383
   38MOL0     C 5055   1.975   8.097   0.642 -0.4424 -0.0071  0.3642
   38MOL0     C 5056   2.100   8.050   0.712 -0.0634  0.1360  0.0258
   38MOL0     C 5057   2.225   8.066   0.620  0.9668  0.9819 -0.4375
   38MOL0     C 5058   2.352   8.001   0.689 -0.4226 -0.6100 -0.0917
   38MOL0     C 5059   2.470   8.027   0.601  0.5003 -0.1276  0.0280
   38MOL0     C 5060   2.561   8.034   0.519 -0.0843 -0.4053 -0.5632
   38MOL0     C 5061   1.705   8.203   0.597 -0.4977 -1.0549 -0.7351
   38MOL0     C 5062   1.573   8.194   0.570 -0.6180  0.3448  0.8129
   38MOL0     H 5063   1.052   8.211   0.628  0.0195  0.2931  0.2873
   38MOL0     H 5064   0.866   8.291   0.548 -0.3826  5.5112  1.1940
   38MOL0     H 5065   0.674   8.314   0.358 -2.9962  1.2768  0.6285
   38MOL0     H 5066   0.723   8.446   0.472  3.0400  2.4302 -0.9241
   38MOL0     H 5067   0.648   8.604   0.298  1.9800  0.3459  2.4820
   38MOL0     H 5068   0.578   8.482   0.195 -0.9652  3.2206 -1.1205
   38MOL0     H 5069   0.484   8.605   0.451  1.5855 -0.4668  0.3912
   38MOL0     H 5070   0.409   8.571   0.293 -0.9574 -2.0860 -0.2605
   38MOL0     H 5071   0.443   8.310   0.371 -0.0569  0.3192  0.7335
   38MOL0     H 5072   0.474   8.384   0.532  1.1303  0.2774  0.0574
   38MOL0     H 5073   0.220   8.425   0.380  2.0478 -0.5579 -0.1495
   38MOL0     H 5074   0.252   8.302   0.508  1.0308  0.5286 -0.8331
   38MOL0     H 5075   0.322   8.525   0.654  0.6366  1.8923 -1.3694
   38MOL0     H 5076   0.226   8.612   0.550  1.4291  1.7853  2.6369
   38MOL0     H 5077   0.029   8.471   0.606  0.2535  3.5496  0.8925
   38MOL0     H 5078   0.133   8.361   0.699 -1.3162 -1.1229 -2.5938
   38MOL0     H 5079   0.065   8.654   0.752  0.6148 -0.5778 -1.3866
   38MOL0     H 5080   0.183   8.555   0.843 -0.1040 -1.3064 -0.4199
   38MOL0     H 5081  -0.155   8.676   0.878 -0.9619 -1.4325 -0.5964
   38MOL0     H 5082  -0.346   8.470   1.155  0.9805  0.5275  0.4073
   38MOL0     H 5083  -0.321   8.637   1.106  1.6987  0.3055 -0.0011
   38MOL0     H 5084  -0.439   8.420   0.937  0.3582 -0.0333 -0.8110
   38MOL0     H 5085  -0.469   8.597   0.909  0.2076  2.3173  2.7477
   38MOL0     H 5086  -0.598   8.620   1.102  2.1214  1.8263 -1.5418
   38MOL0     H 5087  -0.585   8.442   1.143  1.5147  0.0809 -0.1530
   38MOL0     H 5088  -0.713   8.581   0.914  3.8163  1.6085  1.6105
   38MOL0     H 5089  -0.805   8.485   1.041 -1.0309  0.5221 -0.9195
   38MOL0     H 5090  -0.939   8.507   0.827  2.7187  0.0805  0.4260
   38MOL0     H 5091  -1.275   8.417   0.725  0.1041  3.0901 -2.0430
   38MOL0     H 5092  -1.238   8.456   0.900 -0.5405  0.4893  0.6235
   38MOL0     H 5093  -1.161   8.543   0.767 -1.4057 -0.8349 -3.1164
   38MOL0     H 5094  -1.407   8.092   1.112  1.6184  1.0459 -1.7174
   38MOL0     H 5095  -1.636   7.992   1.153  2.1048  1.2682  0.9629
   38MOL0     H 5096  -1.773   7.798   1.056 -0.8968  1.4287  1.9648
   38MOL0     H 5097  -1.955   7.843   1.032 -0.5948 -1.1563 -0.3140
   38MOL0     H 5098  -1.926   7.809   0.800  0.4505 -0.4919 -1.6217
   38MOL0     H 5099  -1.757   7.789   0.805  0.8500 -2.3790  0.1051
   38MOL0     H 5100  -1.991   7.613   0.904  0.8679 -0.9160 -0.8376
   38MOL0     H 5101  -1.835   7.577   0.977 -0.4978  1.4573  0.2873
   38MOL0     H 5102  -1.883   7.449   0.758  0.0417  0.5673  0.7601
   38MOL0     H 5103  -1.839   7.589   0.669 -1.8229 -2.3048 -0.4637
   38MOL0     H 5104  -1.621   7.584   0.830 -1.2107  1.0034 -0.1861
   38MOL0     H 5105  -1.632   7.502   0.678 -0.0442  1.6139 -0.1236
   38MOL0     H 5106  -1.693   7.381   0.961 -0.1539  0.4598 -0.5779
   38MOL0     H 5107  -1.726   7.285   0.810  1.5199  1.4907 -4.2434
   38MOL0     H 5108  -1.446   7.383   0.856  1.2317 -0.2038 -1.6851
   38MOL0     H 5109  -1.510   7.268   0.738 -0.0663 -4.0840  1.9373
   38MOL0     H 5110  -1.528   7.090   0.874 -0.5986  0.8408 -1.9364
   38MOL0     H 5111  -1.519   7.185   1.024 -1.5124 -3.5825  0.0184
   38MOL0     H 5112  -1.690   8.018   0.725  3.1800  2.3782 -2.1224
   38MOL0     H 5113  -1.510   8.148   0.697  0.3579 -3.7280 -0.8988
   38MOL0     H 5114  -0.978   8.020   0.851  2.5345  0.3233 -0.2344
   38MOL0     H 5115  -0.770   8.129   0.921  0.0895  1.2588  2.1628
   38MOL0     H 5116   1.072   8.448   0.196 -1.1750 -1.2250 -0.5496
   38MOL0     H 5117   1.281   8.354   0.300  0.1731 -0.7576  0.9014
   38MOL0     H 5118   1.465   8.013   0.825 -0.7549  3.9224  1.8677
   38MOL0     H 5119   1.712   7.995   0.864 -2.7261 -0.7374  0.3099
   38MOL0     H 5120   1.939   8.019   0.575  3.1310  0.4464 -2.4290
   38MOL0     H 5121   1.998   8.186   0.582  1.0027  1.6249  3.1447
   38MOL0     H 5122   2.103   7.943   0.733 -0.0307  0.3535  1.2165
   38MOL0     H 5123   2.125   8.102   0.806  1.1765 -0.6139  0.1331
   38MOL0     H 5124   2.236   8.174   0.608 -0.4478  1.1870 -0.0615
   38MOL0     H 5125   2.190   8.024   0.525 -4.0452 -0.0797  1.5778
   38MOL0     H 5126   2.345   7.894   0.710 -0.3543 -0.5734  0.1306
   38MOL0     H 5127   2.376   8.051   0.783  0.8004 -3.5910  1.3297
   38MOL0     H 5128   2.628   8.035   0.435  0.8147  0.6079  0.1295
   38MOL0     H 5129   1.781   8.249   0.534 -0.0077 -0.0090  0.5670
   38MOL0     H 5130   1.533   8.238   0.480  1.6881 -2.7927 -2.0046
   39MOL0     O 5131   4.001  10.425  10.125  0.5230  0.1320 -0.4541
   39MOL0     C 5132   4.070  10.335  10.100  0.1198  0.3894 -0.2078
   39MOL0     O 5133   4.024  10.213  10.046 -0.6635  0.0672  0.1291
   39MOL0     C 5134   3.895  10.200   9.998 -0.8771  0.5910  0.2153
   39MOL0     C 5135   3.843  10.288   9.903 -0.3636  0.5961 -0.7316
   39MOL0     C 5136   3.724  10.261   9.836  0.0460  0.3150  0.2857
   39MOL0     C 5137   3.654  10.140   9.868 -0.1030 -0.3173 -0.3995
   39MOL0     O 5138   3.544  10.099   9.802 -0.3025 -0.4314  0.1479
   39MOL0     C 5139   3.479  10.210   9.732 -0.8339  0.0816 -0.2369
   39MOL0     C 5140   3.334  10.181   9.694 -0.5396  0.4281  0.5840
   39MOL0     C 5141   3.337  10.042   9.625  0.0663 -0.1346  0.8465
   39MOL0     C 5142   3.226  10.045   9.520 -0.3625  0.7363 -0.8331
   39MOL0     C 5143   3.085  10.020   9.591  0.0362  0.1015  0.1238
   39MOL0     C 5144   2.970  10.042   9.491  0.2119  0.2355  0.0308
   39MOL0     C 5145   2.833  10.011   9.559 -0.5118  0.2574 -0.1480
   39MOL0     C 5146   2.715  10.022   9.467 -0.1540 -0.3580 -0.2336
   39MOL0     N 5147   2.588  10.018   9.538  0.3664  0.4748  0.2366
   39MOL0     C 5148   2.519  10.120   9.587 -0.3566 -1.1421 -0.3958
   39MOL0     C 5149   2.403  10.065   9.623  0.6089 -0.3449 -0.0403
   39MOL0     C 5150   2.296  10.131   9.701  0.6254 -0.8683 -0.2625
   39MOL0     C 5151   2.154  10.146   9.634  0.5891  0.9675  0.1316
   39MOL0     C 5152   2.078  10.015   9.640 -0.9642 -0.0041 -0.7438
   39MOL0     C 5153   1.951  10.034   9.565  0.6432  1.2755  0.1170
   39MOL0     O 5154   1.873   9.915   9.570 -0.4140 -0.3392 -0.2114
   39MOL0     C 5155   1.768   9.907   9.481  1.0687 -0.3743 -0.4158
   39MOL0     C 5156   1.698  10.016   9.436  0.3842 -0.4667  0.6584
   39MOL0     C 5157   1.585  10.005   9.350  0.4605 -0.5156 -0.7456
   39MOL0     C 5158   1.509  10.128   9.317  0.8602 -0.0367  0.2225
   39MOL0     C 5159   1.544   9.882   9.300  0.3520  0.7467 -0.2408
   39MOL0     C 5160   1.430   9.852   9.203 -0.8089 -0.5798  0.0505
   39MOL0     O 5161   1.437   9.732   9.144 -0.0819  0.0009 -0.3427
   39MOL0     C 5162   1.329   9.691   9.063 -0.1808 -0.0610 -0.1337
   39MOL0     C 5163   1.343   9.682   8.927 -0.4764  0.4317  0.4889
   39MOL0     C 5164   1.237   9.636   8.846  0.7590 -0.2758  0.2390
   39MOL0     C 5165   1.112   9.597   8.902 -0.3161 -0.1886 -0.4860
   39MOL0     O 5166   1.016   9.562   8.808  0.5212 -0.2137 -0.0176
   39MOL0     C 5167   0.880   9.566   8.860  0.0853  0.5872  0.7727
   39MOL0     C 5168   0.782   9.539   8.739 -0.5284 -0.4551 -0.0577
   39MOL0     C 5169   0.633   9.586   8.755 -0.4124 -0.0511  0.2355
   39MOL0     C 5170   0.547   9.473   8.705 -0.6150  0.0814  0.0460
   39MOL0     C 5171   0.510   9.369   8.813  0.0158  0.4817 -0.3326
   39MOL0     C 5172   0.394   9.279   8.784  1.0034  0.8805  0.5381
   39MOL0     C 5173   0.261   9.325   8.852  1.0679 -0.1618 -0.1480
   39MOL0     C 5174   0.250   9.302   8.995  0.0481 -0.0030 -0.3175
   39MOL0    Cl 5175   0.277   9.131   9.028  0.0750  0.2044  0.2704
   39MOL0     C 5176   1.101   9.603   9.041 -0.3637  0.4996  0.3857
   39MOL0     C 5177   1.210   9.638   9.121  0.0719 -0.3446 -1.0375
   39MOL0     O 5178   1.356   9.941   9.165 -0.4690  0.3044  0.4348
   39MOL0     C 5179   1.619   9.766   9.349  0.0239  0.4512 -0.7983
   39MOL0     C 5180   1.728   9.778   9.439 -0.6077 -0.9032  0.2785
   39MOL0     N 5181   2.402   9.935   9.580  0.4321  0.2152  0.0649
   39MOL0     N 5182   2.516   9.900   9.531  0.0132  0.0836  0.2784
   39MOL0     C 5183   3.698  10.053   9.970 -0.3369  0.3831  0.9452
   39MOL0     C 5184   3.822  10.078  10.032 -1.4619 -0.2789  0.7537
   39MOL0     C 5185   4.219  10.361  10.087  0.2350 -0.2611 -1.1130
   39MOL0     C 5186   4.298  10.270  10.018  0.0292  0.6584 -0.4172
   39MOL0     C 5187   4.442  10.296  10.009 -1.2379  0.2823 -0.5823
   39MOL0     C 5188   4.505  10.407  10.065  0.3826  0.1413 -0.3374
   39MOL0     O 5189   4.633  10.438  10.072  0.2428  0.7006  0.7407
   39MOL0     C 5190   4.725  10.342  10.014  0.1260 -0.5500  0.4180
   39MOL0     C 5191   4.861  10.397  10.015  0.5788  0.2236  0.9276
   39MOL0     C 5192   4.974  10.296  10.037  0.6703 -0.2902 -0.4475
   39MOL0     C 5193   5.110  10.362  10.017  0.3379 -0.5469  0.2569
   39MOL0     C 5194   5.202  10.255  10.054 -0.2258  0.0854 -0.3164
   39MOL0     C 5195   5.289  10.171  10.060  1.1294 -0.2579 -0.4685
   39MOL0     C 5196   4.412  10.498  10.115  0.1445 -0.2944 -0.0858
   39MOL0     C 5197   4.276  10.481  10.132 -0.5253  0.9000 -0.4744
   39MOL0     H 5198   3.907  10.372   9.877  1.3860  0.3944  2.3884
   39MOL0     H 5199   3.700  10.338   9.764 -3.6308 -0.5815  0.3624
   39MOL0     H 5200   3.470  10.306   9.783 -0.5711  0.3703 -0.7199
   39MOL0     H 5201   3.539  10.226   9.642  0.2525 -1.4056  0.1938
   39MOL0     H 5202   3.260  10.204   9.772 -0.7102 -0.3832  0.6627
   39MOL0     H 5203   3.316  10.254   9.614  0.5936  1.3483  1.1375
   39MOL0     H 5204   3.428  10.043   9.565 -1.0835 -2.1499 -1.0764
   39MOL0     H 5205   3.338   9.960   9.697  0.4605 -1.2696 -0.4216
   39MOL0     H 5206   3.229  10.132   9.454 -0.2048  2.7694  1.7131
   39MOL0     H 5207   3.231   9.959   9.452 -2.1828 -1.2132  1.3171
   39MOL0     H 5208   3.080   9.918   9.631  1.9727  0.3045  0.9932
   39MOL0     H 5209   3.082  10.097   9.667 -0.2167 -1.7435  2.0772
   39MOL0     H 5210   2.973  10.147   9.459  1.6103  0.2558  0.1805
   39MOL0     H 5211   3.002   9.983   9.404  2.8533  0.0681  1.0176
   39MOL0     H 5212   2.832   9.923   9.624  1.5657  1.0955  1.1107
   39MOL0     H 5213   2.814  10.102   9.616 -1.3698  1.4073 -2.1504
   39MOL0     H 5214   2.718   9.936   9.400 -3.5200 -0.2742 -0.6644
   39MOL0     H 5215   2.734  10.116   9.414 -0.7238  0.4895  1.0118
   39MOL0     H 5216   2.544  10.224   9.609  1.5336 -1.7912  0.7708
   39MOL0     H 5217   2.277  10.094   9.802  1.9023 -0.6768  0.0585
   39MOL0     H 5218   2.327  10.235   9.715 -0.8684 -0.3186 -0.7285
   39MOL0     H 5219   2.178  10.167   9.529  2.2955 -1.5658 -0.0930
   39MOL0     H 5220   2.100  10.224   9.687 -1.1952  1.6987 -2.5398
   39MOL0     H 5221   2.063   9.981   9.742  0.6352 -1.7434 -1.0295
   39MOL0     H 5222   2.135   9.934   9.593 -0.6350 -1.6350  2.2517
   39MOL0     H 5223   1.983  10.041   9.461  1.0665 -1.5170 -0.0412
   39MOL0     H 5224   1.892  10.119   9.602 -1.5741 -0.6961  1.4493
   39MOL0     H 5225   1.735  10.117   9.450 -1.3830  0.1192  1.4009
   39MOL0     H 5226   1.542  10.218   9.370 -1.3935 -0.1665  2.0413
   39MOL0     H 5227   1.513  10.148   9.210  1.7846  0.6819  0.3789
   39MOL0     H 5228   1.403  10.121   9.347  1.4560  0.2613  2.6670
   39MOL0     H 5229   1.440   9.706   8.884 -1.6798  2.3058 -1.3802
   39MOL0     H 5230   1.254   9.630   8.739  2.5163  1.0943  0.3987
   39MOL0     H 5231   0.864   9.481   8.927 -0.5324 -1.1269 -1.4276
   39MOL0     H 5232   0.856   9.664   8.902  3.5618  0.9298  2.3623
   39MOL0     H 5233   0.831   9.589   8.655 -3.5157 -0.5889 -2.0291
   39MOL0     H 5234   0.796   9.434   8.712  0.9129 -0.7709  1.6915
   39MOL0     H 5235   0.626   9.667   8.681 -2.3311 -0.1263  0.2865
   39MOL0     H 5236   0.605   9.618   8.856 -1.8919  2.0420 -0.7489
   39MOL0     H 5237   0.459   9.529   8.671 -0.8444  2.3228  3.7764
   39MOL0     H 5238   0.589   9.427   8.615 -1.6724 -1.7076  0.4090
   39MOL0     H 5239   0.497   9.416   8.911 -0.0941 -0.6714  0.2226
   39MOL0     H 5240   0.587   9.292   8.824 -1.8932 -1.4188  0.3838
   39MOL0     H 5241   0.365   9.287   8.679 -0.3246  1.1457  0.9025
   39MOL0     H 5242   0.421   9.178   8.814 -0.3349  0.1741 -0.5667
   39MOL0     H 5243   0.181   9.268   8.803  1.8601 -0.5897 -0.9710
   39MOL0     H 5244   0.240   9.428   8.824 -3.0106 -1.0823 -1.1142
   39MOL0     H 5245   0.151   9.329   9.032  0.1860 -0.8619  0.7599
   39MOL0     H 5246   0.334   9.351   9.045  0.7324  0.4442 -1.8516
   39MOL0     H 5247   1.005   9.569   9.079  0.5009 -0.2921  1.9808
   39MOL0     H 5248   1.202   9.645   9.229 -0.0306  0.3547 -1.0910
   39MOL0     H 5249   1.593   9.664   9.323  0.7597 -0.4217  1.6636
   39MOL0     H 5250   1.785   9.690   9.468  2.2300  1.3886  2.2845
   39MOL0     H 5251   3.654   9.955   9.979 -1.5255  1.0316  2.4549
   39MOL0     H 5252   3.867  10.012  10.106  0.0249 -1.8363 -1.4046
   39MOL0     H 5253   4.259  10.181   9.972  1.1404 -0.3208  0.4485
   39MOL0     H 5254   4.499  10.221   9.955 -3.5657 -1.1015 -1.2973
   39MOL0     H 5255   4.721  10.251  10.075  1.4089 -1.2263 -0.4616
   39MOL0     H 5256   4.698  10.317   9.911  2.4689  2.9700 -1.2385
   39MOL0     H 5257   4.881  10.465  10.098 -0.5079  0.6710  0.8396
   39MOL0     H 5258   4.873  10.450   9.919 -1.2292  0.2750  0.7071
   39MOL0     H 5259   4.964  10.214   9.966 -1.0105 -2.0625  1.6994
   39MOL0     H 5260   4.956  10.259  10.138 -0.2194 -0.8462 -0.7955
   39MOL0     H 5261   5.116  10.439  10.094  0.1491 -1.2533  0.9861
   39MOL0     H 5262   5.123  10.403   9.916 -1.1078  0.6371  0.5218
   39MOL0     H 5263   5.358  10.094  10.088  1.0369 -0.5754 -1.1017
   39MOL0     H 5264   4.446  10.596  10.148 -0.0051 -1.0239  2.4373
   39MOL0     H 5265   4.219  10.556  10.186 -0.3881 -0.0278  1.0143
   40MOL0     O 5266  11.002   6.463   5.896  0.0559  0.2339  0.0052
   40MOL0     C 5267  11.015   6.500   6.011  0.9796  0.6157 -0.7425
   40MOL0     O 5268  10.920   6.563   6.092 -0.5705  0.8293  0.4815
   40MOL0     C 5269  10.789   6.567   6.051 -0.6369  0.7069 -1.3309
   40MOL0     C 5270  10.728   6.690   6.009 -0.3276 -0.0324 -0.6276
   40MOL0     C 5271  10.601   6.687   5.935  0.4118 -0.3904  0.3575
   40MOL0     C 5272  10.520   6.567   5.935 -0.0559 -0.6129  0.1391
   40MOL0     O 5273  10.392   6.548   5.907  0.9961  0.5520 -0.0397
   40MOL0     C 5274  10.310   6.673   5.912 -0.5489  0.4112  0.0671
   40MOL0     C 5275  10.165   6.636   5.954  0.4013  0.4695 -0.3088
   40MOL0     C 5276  10.103   6.512   5.880 -0.0259  0.0843 -0.4619
   40MOL0     C 5277   9.972   6.477   5.945 -0.2390 -0.1228 -1.0339
   40MOL0     C 5278   9.892   6.380   5.853 -0.1566  0.5307 -0.4530
   40MOL0     C 5279   9.780   6.295   5.934 -0.6290  0.6090  0.8291
   40MOL0     C 5280   9.850   6.209   6.036  0.8629 -0.0654 -0.7590
   40MOL0     C 5281   9.769   6.077   6.051 -0.0949  0.1621 -1.1539
   40MOL0     N 5282   9.630   6.095   6.091 -0.7272 -0.0501  0.1634
   40MOL0     C 5283   9.522   6.151   6.018 -0.5502 -0.9358  0.2401
   40MOL0     C 5284   9.426   6.161   6.113  0.4431 -0.1662 -0.8487
   40MOL0     C 5285   9.304   6.246   6.096 -0.5610 -0.8412 -0.3036
   40MOL0     C 5286   9.343   6.396   6.099  0.0941  0.1788  0.3627
   40MOL0     C 5287   9.245   6.486   6.027 -0.1155  0.3605 -0.2784
   40MOL0     C 5288   9.093   6.458   6.063 -0.4342  0.6134 -0.3506
   40MOL0     O 5289   9.037   6.360   5.972  1.0304 -0.4194 -0.0594
   40MOL0     C 5290   8.907   6.323   5.981  0.8513 -0.2595  0.5596
   40MOL0     C 5291   8.851   6.249   5.874  0.0281  0.3082 -1.0837
   40MOL0     C 5292   8.720   6.204   5.871  0.9342  0.5927 -0.2470
   40MOL0     C 5293   8.676   6.128   5.742 -0.9676 -0.1381 -0.0987
   40MOL0     C 5294   8.646   6.226   5.984  0.0163  0.9059 -0.0562
   40MOL0     C 5295   8.504   6.175   6.000 -0.2509 -0.3343 -0.1276
   40MOL0     O 5296   8.442   6.183   6.125  0.0700  0.4812 -0.3175
   40MOL0     C 5297   8.304   6.185   6.115  0.6621  0.9119 -0.5356
   40MOL0     C 5298   8.235   6.285   6.046 -0.0017  0.1252 -0.3605
   40MOL0     C 5299   8.097   6.281   6.040 -0.2345 -0.4197  0.8972
   40MOL0     C 5300   8.024   6.185   6.105 -0.1132  0.8925 -0.7121
   40MOL0     O 5301   7.889   6.190   6.118  0.0586  0.3929 -0.3349
   40MOL0     C 5302   7.804   6.255   6.021  0.8159 -0.2368  0.6146
   40MOL0     C 5303   7.657   6.206   6.032  0.0578  0.3297  0.4344
   40MOL0     C 5304   7.610   6.224   6.180 -0.0834 -0.1187 -0.2882
   40MOL0     C 5305   7.457   6.211   6.193 -0.7256  0.0635 -0.0144
   40MOL0     C 5306   7.402   6.247   6.321 -0.0291 -0.6557  0.2185
   40MOL0     C 5307   7.449   6.394   6.376 -0.0671  1.1316 -0.4634
   40MOL0     C 5308   7.349   6.441   6.483  0.2106 -0.0257 -0.8180
   40MOL0     C 5309   7.400   6.575   6.531 -0.0335 -1.6664  0.1970
   40MOL0    Cl 5310   7.296   6.636   6.656  0.6842 -0.2357 -0.3625
   40MOL0     C 5311   8.087   6.089   6.189  0.2147 -0.6085  0.1832
   40MOL0     C 5312   8.224   6.087   6.179 -0.2103 -0.4334  0.1717
   40MOL0     O 5313   8.445   6.130   5.904 -0.4815 -0.3574  0.0159
   40MOL0     C 5314   8.706   6.292   6.093  0.0700 -0.0684 -0.6045
   40MOL0     C 5315   8.832   6.348   6.087 -0.4137 -0.1337  0.6753
   40MOL0     N 5316   9.464   6.099   6.226  0.4924  0.9556  0.2638
   40MOL0     N 5317   9.586   6.063   6.221 -0.6176 -0.5277 -0.2107
   40MOL0     C 5318  10.588   6.452   5.981  0.4159  0.3242  0.3029
   40MOL0     C 5319  10.717   6.448   6.031 -0.0073  0.9115 -0.3315
   40MOL0     C 5320  11.144   6.470   6.073 -0.1149 -0.5863 -0.0294
   40MOL0     C 5321  11.240   6.390   6.008 -0.4860  0.3349 -0.3370
   40MOL0     C 5322  11.376   6.382   6.063  0.6404  0.2275 -0.4933
   40MOL0     C 5323  11.403   6.435   6.191 -0.2237  0.3753  0.2133
   40MOL0     O 5324  11.522   6.393   6.248 -0.5410 -0.1047 -0.3443
   40MOL0     C 5325  11.552   6.430   6.379  0.6904 -0.3950 -0.0873
   40MOL0     C 5326  11.696   6.385   6.424  0.4848 -0.5367  0.4982
   40MOL0     C 5327  11.809   6.409   6.327 -0.4233  0.2797  0.7960
   40MOL0     C 5328  11.949   6.391   6.393  0.1972  0.4641  0.2272
   40MOL0     C 5329  12.046   6.381   6.289 -0.0205  0.6196  0.3220
   40MOL0     C 5330  12.132   6.369   6.204  0.5357  0.5056 -0.2116
   40MOL0     C 5331  11.301   6.511   6.256  0.3324  0.2801 -0.1535
   40MOL0     C 5332  11.172   6.534   6.200  0.5210  0.8632 -0.3378
   40MOL0     H 5333  10.798   6.773   6.016 -0.5344  0.0380  0.9846
   40MOL0     H 5334  10.553   6.782   5.913  0.2243 -0.8992 -1.6286
   40MOL0     H 5335  10.364   6.738   5.981 -0.0782 -0.4924  0.5528
   40MOL0     H 5336  10.302   6.722   5.814  1.4697 -0.3731 -0.5397
   40MOL0     H 5337  10.160   6.629   6.063  1.5897 -3.1084 -0.3559
   40MOL0     H 5338  10.090   6.714   5.937 -1.5435 -0.5269  2.9580
   40MOL0     H 5339  10.092   6.532   5.773 -2.4920  0.6750 -0.1555
   40MOL0     H 5340  10.165   6.423   5.895  0.0955 -0.2528 -2.5910
   40MOL0     H 5341   9.992   6.430   6.042 -0.8495 -2.1721 -1.8348
   40MOL0     H 5342   9.923   6.572   5.969  2.4579  0.6657  1.9448
   40MOL0     H 5343   9.849   6.432   5.767  0.1281  0.0257 -0.9059
   40MOL0     H 5344   9.962   6.308   5.809 -0.2542 -0.7841  1.4294
   40MOL0     H 5345   9.715   6.373   5.973  1.2302  2.4204  0.5066
   40MOL0     H 5346   9.733   6.243   5.849  1.2428 -3.0226  1.8096
   40MOL0     H 5347   9.954   6.191   6.006  1.1331 -2.2860  1.1782
   40MOL0     H 5348   9.858   6.266   6.129  1.4809  2.6514 -2.3678
   40MOL0     H 5349   9.810   6.006   6.123 -2.2599 -3.4420 -3.2287
   40MOL0     H 5350   9.780   6.017   5.960 -1.9082 -0.7683 -0.8004
   40MOL0     H 5351   9.515   6.188   5.916 -2.9021  1.7674  1.2453
   40MOL0     H 5352   9.272   6.227   5.993  0.6790  2.0338 -1.3506
   40MOL0     H 5353   9.228   6.238   6.173 -1.4358 -0.3223 -1.0827
   40MOL0     H 5354   9.438   6.392   6.044 -0.5895 -0.6641 -0.8048
   40MOL0     H 5355   9.356   6.427   6.203 -0.5034 -1.8966  1.1168
   40MOL0     H 5356   9.252   6.467   5.920 -0.7399  0.0738 -0.2753
   40MOL0     H 5357   9.284   6.586   6.048  0.6579 -0.4222  2.4310
   40MOL0     H 5358   9.040   6.554   6.063 -0.0708  0.8503 -1.9259
   40MOL0     H 5359   9.099   6.416   6.164  2.4846 -0.0252 -0.7097
   40MOL0     H 5360   8.918   6.217   5.795  3.5138 -2.7941  2.6825
   40MOL0     H 5361   8.645   6.025   5.759  2.3957 -0.8065  3.2764
   40MOL0     H 5362   8.592   6.189   5.705 -0.3306  2.4836  2.3973
   40MOL0     H 5363   8.749   6.124   5.662 -1.0592  1.1963 -0.2780
   40MOL0     H 5364   8.286   6.355   5.981  0.4769 -1.5320 -1.8717
   40MOL0     H 5365   8.049   6.359   5.981  2.5108  0.6761 -0.0291
   40MOL0     H 5366   7.803   6.362   6.044  2.8198  0.2783 -1.3094
   40MOL0     H 5367   7.829   6.245   5.915 -0.2297 -0.7069  0.3953
   40MOL0     H 5368   7.594   6.263   5.963 -1.0953  0.3702  1.4875
   40MOL0     H 5369   7.649   6.099   6.008  3.3000 -0.0240  0.5657
   40MOL0     H 5370   7.642   6.323   6.216  0.6992 -0.1988 -0.7218
   40MOL0     H 5371   7.651   6.147   6.246  2.0236  1.8188  0.8419
   40MOL0     H 5372   7.415   6.270   6.111  0.5564 -1.0269 -1.5119
   40MOL0     H 5373   7.435   6.105   6.177 -0.3856 -0.4484  2.4718
   40MOL0     H 5374   7.426   6.170   6.395 -0.2603 -0.5953  0.3582
   40MOL0     H 5375   7.293   6.242   6.311 -0.1350 -0.5432  1.2173
   40MOL0     H 5376   7.550   6.397   6.418 -0.0679 -1.5815 -0.0482
   40MOL0     H 5377   7.441   6.463   6.291 -5.4606 -1.3416 -2.4137
   40MOL0     H 5378   7.332   6.369   6.564 -2.3044  0.7920 -0.5297
   40MOL0     H 5379   7.251   6.463   6.438  0.1924  2.2190  0.1629
   40MOL0     H 5380   7.403   6.650   6.451  0.0246 -0.5476  1.2085
   40MOL0     H 5381   7.499   6.570   6.579  0.0905  0.7880  0.3588
   40MOL0     H 5382   8.034   6.015   6.248  2.0906 -1.5041  0.8487
   40MOL0     H 5383   8.280   6.012   6.235 -1.0446 -0.7369  0.6186
   40MOL0     H 5384   8.643   6.302   6.181 -0.0950  0.4182 -0.7748
   40MOL0     H 5385   8.865   6.401   6.176  0.1006 -1.8566  1.5674
   40MOL0     H 5386  10.531   6.362   5.962 -0.5718  0.8030  0.9488
   40MOL0     H 5387  10.759   6.360   6.077 -1.8305  0.7641  1.1725
   40MOL0     H 5388  11.217   6.341   5.913  1.6391 -0.5089 -0.4698
   40MOL0     H 5389  11.452   6.315   6.026 -1.7695 -3.6189  0.9236
   40MOL0     H 5390  11.541   6.539   6.376 -4.0840 -0.6094  1.5497
   40MOL0     H 5391  11.481   6.393   6.453 -0.0488 -2.7555 -1.8438
   40MOL0     H 5392  11.687   6.280   6.450 -0.7916 -0.3140  1.0341
   40MOL0     H 5393  11.722   6.437   6.517  0.8027  1.5354 -0.6639
   40MOL0     H 5394  11.800   6.510   6.286 -2.0589 -0.8186 -1.7970
   40MOL0     H 5395  11.796   6.334   6.249  1.5233 -0.2466  0.9394
   40MOL0     H 5396  11.960   6.302   6.455 -3.9823 -0.3054  0.1102
   40MOL0     H 5397  11.963   6.479   6.457  0.5818  0.6446 -0.0952
   40MOL0     H 5398  12.205   6.357   6.127  1.8204  2.3611  0.6294
   40MOL0     H 5399  11.329   6.568   6.344  1.2524  0.0056 -0.2535
   40MOL0     H 5400  11.100   6.603   6.242  2.0471  1.9017  0.6387
   41MOL0     O 5401  10.740   7.006   8.798  0.1753 -1.2576 -0.5226
   41MOL0     C 5402  10.673   7.027   8.903 -0.4750  0.0540 -0.2161
   41MOL0     O 5403  10.717   7.004   9.038  0.0392  0.4317 -0.2137
   41MOL0     C 5404  10.831   6.935   9.052 -0.3258  0.5722  0.7303
   41MOL0     C 5405  10.846   6.804   9.005 -0.0548 -0.0636  0.1405
   41MOL0     C 5406  10.965   6.735   9.032  0.4969 -0.2430 -0.6346
   41MOL0     C 5407  11.066   6.792   9.106  0.2752  0.7952 -0.8839
   41MOL0     O 5408  11.174   6.707   9.143 -0.1642  0.1653 -0.4498
   41MOL0     C 5409  11.281   6.765   9.226  0.8001  0.5153  0.0248
   41MOL0     C 5410  11.397   6.666   9.247  1.2010  0.4532 -0.0422
   41MOL0     C 5411  11.444   6.608   9.119 -0.9792  0.1812  1.0563
   41MOL0     C 5412  11.584   6.543   9.121  0.3183 -0.6682 -0.1369
   41MOL0     C 5413  11.636   6.470   8.994  0.2561  0.2195 -0.0005
   41MOL0     C 5414  11.551   6.347   8.956  0.4342 -0.0727  0.2939
   41MOL0     C 5415  11.580   6.283   8.823 -0.4673 -0.3109  0.3142
   41MOL0     C 5416  11.717   6.217   8.825  0.0585  0.2308 -0.3351
   41MOL0     N 5417  11.759   6.168   8.696 -0.3700  0.6751  0.9908
   41MOL0     C 5418  11.671   6.118   8.599  0.2368  0.0983  0.4805
   41MOL0     C 5419  11.733   6.128   8.483  0.2136 -0.4684  0.0720
   41MOL0     C 5420  11.683   6.097   8.347 -0.6330 -0.2153 -0.2866
   41MOL0     C 5421  11.528   6.103   8.347 -0.5278  0.8927  0.0624
   41MOL0     C 5422  11.485   6.248   8.362  0.4519 -0.2501 -0.3177
   41MOL0     C 5423  11.333   6.261   8.330  0.4228  0.1843 -0.0651
   41MOL0     O 5424  11.251   6.184   8.424 -0.0024 -0.0529 -0.1506
   41MOL0     C 5425  11.122   6.224   8.430 -0.2035 -0.8606  1.1804
   41MOL0     C 5426  11.047   6.285   8.327 -0.3219  0.1033 -0.5923
   41MOL0     C 5427  10.912   6.297   8.329 -0.5989  0.8030 -0.6929
   41MOL0     C 5428  10.841   6.335   8.207 -0.7072 -0.2061  0.2470
   41MOL0     C 5429  10.847   6.253   8.453  0.1075 -0.4906  0.0818
   41MOL0     C 5430  10.695   6.265   8.460 -0.4491 -0.6153  0.9632
   41MOL0     O 5431  10.616   6.335   8.376  0.5062  0.1366 -0.0489
   41MOL0     C 5432  10.477   6.357   8.384 -0.3738 -0.0520 -0.1258
   41MOL0     C 5433  10.405   6.353   8.511 -0.3634 -0.2877  0.5807
   41MOL0     C 5434  10.265   6.368   8.514 -0.1040 -0.0682  0.0802
   41MOL0     C 5435  10.202   6.408   8.386  0.1044  0.3222  0.6584
   41MOL0     O 5436  10.071   6.447   8.362  0.1305  0.0228 -0.2266
   41MOL0     C 5437   9.981   6.469   8.473  0.7712  0.4312  0.8431
   41MOL0     C 5438   9.862   6.549   8.425 -0.1909  0.9801 -0.2959
   41MOL0     C 5439   9.909   6.692   8.395 -0.6914 -0.3572 -0.6035
   41MOL0     C 5440   9.789   6.778   8.355  0.0828 -0.0186  0.5473
   41MOL0     C 5441   9.830   6.917   8.350 -0.2410  0.0842  0.1191
   41MOL0     C 5442   9.721   7.021   8.342  0.2244  0.2937 -0.1079
   41MOL0     C 5443   9.778   7.162   8.362  0.2503 -0.3571  0.3095
   41MOL0     C 5444   9.680   7.276   8.311  0.1309  0.3243  0.3138
   41MOL0    Cl 5445   9.572   7.309   8.460  0.2034 -0.5660  0.6918
   41MOL0     C 5446  10.273   6.416   8.269 -0.0847  0.2442 -0.2955
   41MOL0     C 5447  10.408   6.387   8.261  1.0416 -0.7926 -0.0882
   41MOL0     O 5448  10.654   6.206   8.558 -0.4171 -0.6010  0.1736
   41MOL0     C 5449  10.921   6.192   8.560  0.4669 -1.1051  1.0054
   41MOL0     C 5450  11.056   6.174   8.535  0.6198  0.0528 -0.5730
   41MOL0     N 5451  11.864   6.171   8.508 -0.1079 -0.2698 -0.9393
   41MOL0     N 5452  11.881   6.186   8.638  0.2302 -1.1884  0.4252
   41MOL0     C 5453  11.058   6.931   9.121 -0.0853 -0.1020 -0.3986
   41MOL0     C 5454  10.934   6.992   9.113 -0.8626 -0.0033  0.6647
   41MOL0     C 5455  10.534   7.075   8.871  0.1361 -0.0673  0.4573
   41MOL0     C 5456  10.504   7.139   8.748 -0.5871 -0.6564 -0.1882
   41MOL0     C 5457  10.372   7.179   8.710  0.5167  0.3225  0.4913
   41MOL0     C 5458  10.262   7.160   8.804 -0.1893 -0.1512  0.0771
   41MOL0     O 5459  10.135   7.204   8.784  0.1715 -0.6911 -0.1899
   41MOL0     C 5460  10.084   7.230   8.654  0.0179 -0.1091  0.4180
   41MOL0     C 5461  10.124   7.377   8.612  0.1776  0.5116  0.7136
   41MOL0     C 5462  10.096   7.403   8.457 -0.6255  0.5215  0.3547
   41MOL0     C 5463  10.167   7.527   8.398  0.3773 -0.1407  0.3006
   41MOL0     C 5464  10.094   7.655   8.447  0.8489  0.3134 -1.1649
   41MOL0     C 5465  10.035   7.754   8.494  0.0258  0.3767 -0.0100
   41MOL0     C 5466  10.295   7.111   8.929 -0.5251 -0.7782 -0.0077
   41MOL0     C 5467  10.431   7.063   8.965 -0.2315 -0.5350 -0.1330
   41MOL0     H 5468  10.759   6.763   8.954  1.7944 -0.3952 -3.0082
   41MOL0     H 5469  10.979   6.631   9.005  0.6279 -1.1018  2.3274
   41MOL0     H 5470  11.323   6.854   9.179  0.4772  0.8533  0.3786
   41MOL0     H 5471  11.246   6.790   9.326 -0.2100 -1.3966  0.2080
   41MOL0     H 5472  11.486   6.709   9.295  0.1337  0.4587  2.0342
   41MOL0     H 5473  11.366   6.583   9.310  1.9814  0.6806  0.6723
   41MOL0     H 5474  11.377   6.531   9.082  0.8832 -1.2822  0.5637
   41MOL0     H 5475  11.451   6.690   9.046  0.0565  0.1257  1.0680
   41MOL0     H 5476  11.657   6.622   9.139 -1.2221  0.2426  2.8538
   41MOL0     H 5477  11.587   6.472   9.205  4.0626 -0.7794 -0.2301
   41MOL0     H 5478  11.647   6.550   8.919  0.1842  0.8998  0.7024
   41MOL0     H 5479  11.739   6.436   9.005 -0.2037 -2.3765 -2.4373
   41MOL0     H 5480  11.566   6.273   9.035  2.3308 -2.4754 -2.1340
   41MOL0     H 5481  11.445   6.375   8.955  0.4668  0.0583 -0.8458
   41MOL0     H 5482  11.500   6.214   8.796 -3.1838  1.8382  2.3302
   41MOL0     H 5483  11.578   6.363   8.748 -1.5343 -0.6000  0.0189
   41MOL0     H 5484  11.705   6.129   8.889  0.4138 -0.8538 -1.7014
   41MOL0     H 5485  11.803   6.274   8.861  0.4873 -0.4742 -0.2288
   41MOL0     H 5486  11.571   6.087   8.625  0.1559  2.1976  3.0826
   41MOL0     H 5487  11.725   6.173   8.280 -2.8057  0.1762 -1.3009
   41MOL0     H 5488  11.701   5.992   8.323  0.2614  0.1065 -1.1324
   41MOL0     H 5489  11.501   6.036   8.429 -0.2580  0.9763  0.2195
   41MOL0     H 5490  11.489   6.055   8.256  1.5700 -3.7855  1.2868
   41MOL0     H 5491  11.533   6.320   8.295 -3.1008  2.4765 -0.2043
   41MOL0     H 5492  11.508   6.286   8.462  2.8567 -0.5237 -0.6901
   41MOL0     H 5493  11.307   6.238   8.226 -2.3986  0.4275  0.5022
   41MOL0     H 5494  11.301   6.365   8.343 -0.8376 -0.3354  1.2713
   41MOL0     H 5495  11.086   6.319   8.232 -3.5498  1.1956 -1.6447
   41MOL0     H 5496  10.894   6.318   8.112 -2.0047 -1.5509 -0.2714
   41MOL0     H 5497  10.752   6.273   8.198 -0.1988 -1.5763  3.2592
   41MOL0     H 5498  10.825   6.443   8.201 -1.6130 -0.3473  0.0539
   41MOL0     H 5499  10.472   6.345   8.596  1.5842  0.7186 -0.7692
   41MOL0     H 5500  10.218   6.376   8.611  1.9224 -2.2420  1.3232
   41MOL0     H 5501   9.949   6.373   8.516 -1.4258 -0.4457 -2.3395
   41MOL0     H 5502  10.025   6.523   8.557  2.1674  0.5861  0.0471
   41MOL0     H 5503   9.815   6.508   8.335  0.2812  3.7283 -1.9171
   41MOL0     H 5504   9.789   6.544   8.505  0.9219 -3.0893  0.6633
   41MOL0     H 5505   9.994   6.685   8.326  0.1312 -2.7426  0.5387
   41MOL0     H 5506   9.965   6.725   8.482  3.4642  0.2853 -3.2359
   41MOL0     H 5507   9.739   6.742   8.264 -2.1948 -0.0152  1.7124
   41MOL0     H 5508   9.711   6.773   8.432  1.0015 -1.1196  1.4469
   41MOL0     H 5509   9.901   6.930   8.267  0.9766 -3.0149  0.5515
   41MOL0     H 5510   9.892   6.927   8.440 -1.9860 -0.3119  1.4157
   41MOL0     H 5511   9.673   7.021   8.244 -0.2175  2.2396  0.0710
   41MOL0     H 5512   9.642   6.996   8.414  1.7422  0.8283  1.8179
   41MOL0     H 5513   9.868   7.177   8.302  0.8772 -1.1382  1.0326
   41MOL0     H 5514   9.805   7.183   8.466  1.3720 -3.6912  0.7975
   41MOL0     H 5515   9.613   7.257   8.226 -0.3718 -0.0533  0.7808
   41MOL0     H 5516   9.738   7.364   8.283 -3.0425  2.4257 -0.2125
   41MOL0     H 5517  10.226   6.440   8.174 -1.5052  0.9609  0.5513
   41MOL0     H 5518  10.461   6.400   8.167 -0.2533 -1.5730 -0.9432
   41MOL0     H 5519  10.876   6.153   8.650 -2.4937 -0.5758 -0.1304
   41MOL0     H 5520  11.116   6.122   8.610 -0.7847  1.7678  1.8983
   41MOL0     H 5521  11.141   6.978   9.173 -0.2727 -1.2533  1.0308
   41MOL0     H 5522  10.921   7.097   9.140 -1.7098 -0.3824  1.7841
   41MOL0     H 5523  10.585   7.171   8.684 -1.1553  3.0686  0.6924
   41MOL0     H 5524  10.351   7.218   8.611  2.2903  0.7808  0.2712
   41MOL0     H 5525  10.133   7.162   8.584  0.7661  2.9443 -2.3010
   41MOL0     H 5526   9.978   7.205   8.656 -0.0051  0.0073  1.6083
   41MOL0     H 5527  10.229   7.390   8.637  0.2326 -0.0545  0.7876
   41MOL0     H 5528  10.072   7.446   8.679 -1.7732 -0.2541  0.0514
   41MOL0     H 5529   9.987   7.412   8.446 -0.7846 -1.6212 -0.2643
   41MOL0     H 5530  10.126   7.311   8.406 -1.7616  0.2184  0.1974
   41MOL0     H 5531  10.166   7.528   8.289 -3.4322  0.9942  0.2120
   41MOL0     H 5532  10.272   7.535   8.426  0.1354 -1.9425  1.9811
   41MOL0     H 5533  10.006   7.841   8.551  3.0475  0.8461  1.0378
   41MOL0     H 5534  10.220   7.104   9.008 -0.2963  2.5759  0.6422
   41MOL0     H 5535  10.454   7.029   9.066  1.8653 -2.1693 -1.0642
   42MOL0     O 5536   3.904   4.225   5.645  0.1184  0.1433  0.0167
   42MOL0     C 5537   3.967   4.140   5.707  0.3723 -0.6214 -0.0103
   42MOL0     O 5538   3.925   4.016   5.745  0.0922 -0.3562 -0.1132
   42MOL0     C 5539   3.804   3.962   5.708 -0.4507  0.1817  0.3110
   42MOL0     C 5540   3.692   4.033   5.696  1.0988  0.1726 -0.8841
   42MOL0     C 5541   3.570   3.968   5.661 -0.3110 -0.5082  0.2262
   42MOL0     C 5542   3.567   3.831   5.638 -0.4111 -0.9175  0.1430
   42MOL0     O 5543   3.451   3.774   5.584  0.0991  0.0157 -0.1855
   42MOL0     C 5544   3.451   3.639   5.534 -0.6990 -0.9280  0.0850
   42MOL0     C 5545   3.306   3.604   5.484  0.1167  0.9360 -0.7368
   42MOL0     C 5546   3.198   3.605   5.609 -0.1953  0.7408  0.4936
   42MOL0     C 5547   3.071   3.544   5.566 -0.0733  0.1749  0.6071
   42MOL0     C 5548   2.994   3.514   5.703 -0.6982 -0.0123 -0.4384
   42MOL0     C 5549   2.853   3.451   5.684  0.1599  0.1034 -0.4289
   42MOL0     C 5550   2.809   3.407   5.827 -0.1843  0.4756  0.6220
   42MOL0     C 5551   2.714   3.510   5.893 -0.0471 -0.3258 -0.0458
   42MOL0     N 5552   2.594   3.535   5.811  0.2424 -0.2759 -0.0757
   42MOL0     C 5553   2.486   3.454   5.808 -0.2393  0.2478 -0.6607
   42MOL0     C 5554   2.379   3.526   5.757  0.6694 -0.6143  0.1888
   42MOL0     C 5555   2.238   3.485   5.716  0.7620  0.1628  0.2858
   42MOL0     C 5556   2.143   3.594   5.743  0.1194 -1.0064  0.0240
   42MOL0     C 5557   2.008   3.575   5.677  0.2090  0.0429  0.0316
   42MOL0     C 5558   1.910   3.689   5.698  0.5205 -0.2661  0.3593
   42MOL0     O 5559   1.784   3.649   5.647 -0.1262 -0.6764  1.1395
   42MOL0     C 5560   1.684   3.744   5.636 -0.2236 -0.4981 -0.3467
   42MOL0     C 5561   1.555   3.703   5.610 -0.0220  0.0968  0.0625
   42MOL0     C 5562   1.450   3.785   5.596 -0.4594 -0.4222 -0.1513
   42MOL0     C 5563   1.312   3.719   5.581 -0.4128 -0.0290  0.0114
   42MOL0     C 5564   1.472   3.926   5.583 -0.0124 -0.4657 -0.6852
   42MOL0     C 5565   1.368   4.032   5.581  0.2583 -0.7983  0.3871
   42MOL0     O 5566   1.240   3.979   5.604 -0.7568  0.1709  0.3671
   42MOL0     C 5567   1.120   4.047   5.618 -0.6308 -0.5411  0.3786
   42MOL0     C 5568   1.108   4.187   5.624  0.6701  0.8294 -0.1455
   42MOL0     C 5569   0.986   4.242   5.628  0.2763  0.7028 -0.1275
   42MOL0     C 5570   0.876   4.164   5.654  1.2183  0.3126  0.6019
   42MOL0     O 5571   0.744   4.207   5.658  0.5440 -0.4089  0.1745
   42MOL0     C 5572   0.724   4.335   5.707  0.6062  0.4174 -0.2500
   42MOL0     C 5573   0.577   4.364   5.748  0.5677 -0.5193  0.7259
   42MOL0     C 5574   0.476   4.404   5.631  0.3953  0.8456  0.2647
   42MOL0     C 5575   0.333   4.418   5.698  0.4057  0.2328  0.1698
   42MOL0     C 5576   0.215   4.419   5.602  0.5438  0.4279  0.1011
   42MOL0     C 5577   0.068   4.401   5.657 -0.1772 -0.1983 -0.2428
   42MOL0     C 5578   0.039   4.503   5.780 -0.7406  0.1770  0.5024
   42MOL0     C 5579  -0.100   4.480   5.820  0.4220  0.0286 -0.1828
   42MOL0    Cl 5580  -0.144   4.628   5.924 -0.0233  0.2099 -0.2302
   42MOL0     C 5581   0.884   4.027   5.651  0.2227  0.5300 -0.0853
   42MOL0     C 5582   1.015   3.969   5.643  0.0719  0.2006  0.2495
   42MOL0     O 5583   1.392   4.147   5.560  0.2742 -0.5105 -0.3042
   42MOL0     C 5584   1.607   3.976   5.615  0.8682 -0.2910  0.9674
   42MOL0     C 5585   1.707   3.888   5.641  0.4230  0.7310 -0.7922
   42MOL0     N 5586   2.436   3.654   5.727  0.2498 -0.6433 -0.5989
   42MOL0     N 5587   2.561   3.656   5.748 -1.0637 -0.4957 -0.0038
   42MOL0     C 5588   3.690   3.767   5.635  0.0241  0.5455  0.1900
   42MOL0     C 5589   3.806   3.829   5.684 -0.1538  0.4158 -0.4639
   42MOL0     C 5590   4.112   4.175   5.750  0.5937 -0.4365  0.3375
   42MOL0     C 5591   4.201   4.074   5.801 -0.4228 -0.1642 -0.0304
   42MOL0     C 5592   4.334   4.103   5.831 -0.1462  0.4914  0.6642
   42MOL0     C 5593   4.391   4.232   5.816  1.4733  0.0485 -0.6130
   42MOL0     O 5594   4.522   4.261   5.851  0.3949  0.1683  0.2647
   42MOL0     C 5595   4.626   4.182   5.798  0.6609  0.5492 -0.2979
   42MOL0     C 5596   4.762   4.250   5.797  0.0915  0.4956  0.7553
   42MOL0     C 5597   4.810   4.278   5.943  0.8386  0.2398 -0.2416
   42MOL0     C 5598   4.940   4.354   5.939  0.4128  0.5050 -0.2991
   42MOL0     C 5599   4.966   4.434   6.054  0.0955  0.0773  0.3336
   42MOL0     C 5600   4.988   4.500   6.147 -0.0773 -1.2603 -0.9508
   42MOL0     C 5601   4.307   4.330   5.756  0.2235  0.3882  0.2874
   42MOL0     C 5602   4.173   4.309   5.727  0.0495  0.2730 -0.1449
   42MOL0     H 5603   3.692   4.141   5.691  0.3849  0.1331 -3.3254
   42MOL0     H 5604   3.482   4.031   5.645  0.5990  1.1566  1.5185
   42MOL0     H 5605   3.525   3.621   5.455  0.1477  0.3750  0.5484
   42MOL0     H 5606   3.483   3.569   5.611  1.4841 -1.6977 -1.4263
   42MOL0     H 5607   3.273   3.679   5.410  0.1988  0.8083 -0.9032
   42MOL0     H 5608   3.302   3.512   5.426  3.0783  0.5442 -0.4667
   42MOL0     H 5609   3.239   3.541   5.687 -2.3918 -3.0972 -1.2421
   42MOL0     H 5610   3.187   3.709   5.642 -0.0415  0.9406 -0.0634
   42MOL0     H 5611   3.003   3.601   5.502 -3.0482 -2.1203  1.4850
   42MOL0     H 5612   3.091   3.443   5.529  1.7122  0.8980 -0.5634
   42MOL0     H 5613   3.066   3.446   5.749 -1.1628 -1.0108 -1.1413
   42MOL0     H 5614   2.978   3.599   5.770  1.5866 -0.3913  0.6687
   42MOL0     H 5615   2.783   3.517   5.632 -2.1212 -1.9545 -0.1414
   42MOL0     H 5616   2.865   3.366   5.616 -1.3315  1.2297 -2.1821
   42MOL0     H 5617   2.753   3.313   5.821  0.8695 -0.1108 -2.6890
   42MOL0     H 5618   2.897   3.391   5.889  0.1823  0.6033  0.1426
   42MOL0     H 5619   2.773   3.601   5.910 -1.3784  0.4376  0.7010
   42MOL0     H 5620   2.690   3.473   5.993  2.0825 -0.0619  0.6173
   42MOL0     H 5621   2.496   3.353   5.846  0.5803  1.2237  1.9770
   42MOL0     H 5622   2.246   3.467   5.608  0.9574  1.5044  0.0616
   42MOL0     H 5623   2.204   3.398   5.773 -0.8858  0.6634  0.1345
   42MOL0     H 5624   2.182   3.683   5.692 -2.2194 -0.6435 -1.2978
   42MOL0     H 5625   2.127   3.611   5.850 -0.9123 -4.0495  0.4413
   42MOL0     H 5626   1.967   3.484   5.721  2.2486 -1.1140 -0.3517
   42MOL0     H 5627   2.038   3.555   5.573  4.8137  2.7158  0.5733
   42MOL0     H 5628   1.950   3.779   5.651  0.7021 -1.0010 -0.9233
   42MOL0     H 5629   1.909   3.697   5.808  0.4366  0.7408  0.2933
   42MOL0     H 5630   1.536   3.596   5.606 -0.1327  0.1427 -2.8493
   42MOL0     H 5631   1.246   3.731   5.667  2.8677 -0.7177  2.8280
   42MOL0     H 5632   1.257   3.744   5.489 -1.3058 -1.6667  0.0670
   42MOL0     H 5633   1.322   3.611   5.576 -1.2195 -0.0953 -0.4269
   42MOL0     H 5634   1.190   4.257   5.611  2.1172 -0.0213  3.2970
   42MOL0     H 5635   0.961   4.346   5.612  0.2051  1.0410  1.8642
   42MOL0     H 5636   0.790   4.351   5.792 -0.6738 -0.4479  0.9652
   42MOL0     H 5637   0.749   4.396   5.620 -0.5030  1.1689 -0.0713
   42MOL0     H 5638   0.539   4.278   5.804  0.8195 -1.5764 -0.6728
   42MOL0     H 5639   0.582   4.446   5.820  0.0106 -2.6219  3.3354
   42MOL0     H 5640   0.463   4.323   5.558 -3.4080  1.1311  0.4489
   42MOL0     H 5641   0.509   4.490   5.573  0.2348 -1.1507 -3.0553
   42MOL0     H 5642   0.317   4.339   5.772  0.5166  1.0980  1.1504
   42MOL0     H 5643   0.341   4.510   5.757  2.2837  1.2785 -1.6099
   42MOL0     H 5644   0.225   4.340   5.527 -1.0102 -0.4283  0.7394
   42MOL0     H 5645   0.214   4.511   5.543 -1.5439  0.8436  0.7049
   42MOL0     H 5646   0.005   4.427   5.571  0.8103  0.5247 -0.7604
   42MOL0     H 5647   0.056   4.295   5.684  2.0948 -0.3614  0.2956
   42MOL0     H 5648   0.062   4.604   5.744  0.5078 -1.1351 -2.7654
   42MOL0     H 5649   0.104   4.494   5.867  1.2868 -0.2897 -0.9975
   42MOL0     H 5650  -0.116   4.383   5.867  1.1293  0.4773  1.0647
   42MOL0     H 5651  -0.156   4.488   5.727 -0.7909  2.4221  0.6696
   42MOL0     H 5652   0.797   3.964   5.669  1.6424 -1.5762 -0.2097
   42MOL0     H 5653   1.023   3.861   5.647 -0.9846  0.1386  2.8130
   42MOL0     H 5654   1.636   4.080   5.622  4.1966 -0.9317 -1.2049
   42MOL0     H 5655   1.809   3.920   5.660  0.1807  2.0401 -1.5777
   42MOL0     H 5656   3.698   3.659   5.623  0.3730  0.4816  0.9404
   42MOL0     H 5657   3.904   3.783   5.682  0.0959  0.9516 -0.5862
   42MOL0     H 5658   4.164   3.973   5.818  0.9469 -0.3754  2.0439
   42MOL0     H 5659   4.402   4.022   5.857 -0.1056 -0.0052 -0.8911
   42MOL0     H 5660   4.634   4.086   5.849 -0.7516  0.5524 -0.0314
   42MOL0     H 5661   4.605   4.162   5.692  2.6424 -2.0330 -0.2901
   42MOL0     H 5662   4.753   4.337   5.732  0.9635  0.1695  0.1794
   42MOL0     H 5663   4.831   4.182   5.746 -2.7832 -1.4785 -0.7604
   42MOL0     H 5664   4.819   4.180   5.992  1.1666  0.3926  0.0083
   42MOL0     H 5665   4.734   4.337   5.995 -1.0581 -0.9915 -1.5047
   42MOL0     H 5666   4.929   4.431   5.862 -0.2157  3.1467  2.2561
   42MOL0     H 5667   5.024   4.291   5.908 -1.0277  0.0826 -3.8965
   42MOL0     H 5668   5.018   4.562   6.230 -0.8901 -1.6620 -0.3476
   42MOL0     H 5669   4.343   4.432   5.739  2.5165 -0.8744 -4.0616
   42MOL0     H 5670   4.098   4.381   5.695  0.2125  2.0400  3.0456
   43MOL0     O 5671   2.680   2.597  10.181  0.3616 -0.5833 -0.6316
   43MOL0     C 5672   2.804   2.595  10.207  0.5220 -0.2188 -0.2104
   43MOL0     O 5673   2.857   2.579  10.331 -0.3714  0.0156 -0.4523
   43MOL0     C 5674   2.774   2.553  10.436 -0.1955  0.4597 -0.0895
   43MOL0     C 5675   2.751   2.660  10.524  0.8404  0.2723  0.6551
   43MOL0     C 5676   2.655   2.638  10.628  0.1581  0.4236 -0.4059
   43MOL0     C 5677   2.588   2.521  10.638 -0.1138 -0.2070  0.3170
   43MOL0     O 5678   2.497   2.529  10.740 -0.4522  0.5113 -0.1615
   43MOL0     C 5679   2.431   2.404  10.762  0.3122 -0.3233 -0.4264
   43MOL0     C 5680   2.352   2.411  10.896 -0.5173 -0.5658 -0.1369
   43MOL0     C 5681   2.244   2.520  10.904 -0.1365  0.4395  0.7814
   43MOL0     C 5682   2.175   2.515  11.037  0.2928 -0.3394 -0.4380
   43MOL0     C 5683   2.087   2.646  11.051  0.2603 -0.0143  0.0104
   43MOL0     C 5684   1.951   2.647  10.988  0.7653  0.1192  0.7872
   43MOL0     C 5685   1.845   2.533  11.032 -0.6354  0.6912 -0.7418
   43MOL0     C 5686   1.697   2.570  10.995 -0.2589 -0.2514  0.1581
   43MOL0     N 5687   1.594   2.469  11.033  0.7750  0.1709 -0.3640
   43MOL0     C 5688   1.555   2.438  11.161 -0.6210 -0.3056 -0.0259
   43MOL0     C 5689   1.467   2.342  11.150  0.2524 -0.2215 -0.6150
   43MOL0     C 5690   1.398   2.256  11.257  0.0676 -1.3804  0.3325
   43MOL0     C 5691   1.275   2.330  11.315 -0.0851 -0.2632  0.2124
   43MOL0     C 5692   1.155   2.360  11.220  0.2790 -0.4315 -0.4221
   43MOL0     C 5693   1.116   2.253  11.121  0.5656 -0.9058  0.0742
   43MOL0     O 5694   0.983   2.281  11.071 -0.3548  0.1494  0.7374
   43MOL0     C 5695   0.872   2.247  11.140  0.1961 -0.0220 -1.2414
   43MOL0     C 5696   0.861   2.174  11.263  0.9270  0.9139 -0.5972
   43MOL0     C 5697   0.732   2.135  11.316 -0.7090  0.3044 -1.6890
   43MOL0     C 5698   0.745   2.042  11.442  0.2568  0.2945  0.8402
   43MOL0     C 5699   0.612   2.168  11.246 -0.2925  0.3224 -0.5920
   43MOL0     C 5700   0.476   2.132  11.299 -0.2926  1.4173 -0.2072
   43MOL0     O 5701   0.374   2.166  11.218 -0.3229  0.5484  0.3735
   43MOL0     C 5702   0.245   2.118  11.246 -0.2381 -0.6429  0.3341
   43MOL0     C 5703   0.150   2.218  11.267 -0.1619 -0.0802 -0.2483
   43MOL0     C 5704   0.020   2.178  11.313  0.0464  0.2042 -0.0643
   43MOL0     C 5705  -0.009   2.041  11.326 -0.6451 -0.4513 -0.4690
   43MOL0     O 5706  -0.129   2.014  11.379  0.5787 -0.0987 -0.3424
   43MOL0     C 5707  -0.202   1.898  11.351 -0.2137 -0.0480  0.3366
   43MOL0     C 5708  -0.345   1.906  11.389 -0.0410 -0.5922 -0.4826
   43MOL0     C 5709  -0.358   1.940  11.537 -0.7540  1.1979  0.1384
   43MOL0     C 5710  -0.504   1.959  11.576  0.0651  0.4707 -0.1094
   43MOL0     C 5711  -0.506   2.075  11.676 -0.1324  0.3697  0.4691
   43MOL0     C 5712  -0.643   2.105  11.735  0.2116 -0.0665 -0.2669
   43MOL0     C 5713  -0.703   1.993  11.826  1.0515 -0.6286  0.1222
   43MOL0     C 5714  -0.860   2.007  11.835 -0.5743  0.1373 -0.1393
   43MOL0    Cl 5715  -0.945   1.882  11.919 -0.2622  0.4397  0.0403
   43MOL0     C 5716   0.090   1.943  11.300  1.3752 -0.1323 -0.0106
   43MOL0     C 5717   0.217   1.988  11.265  0.2438 -0.3584  0.7127
   43MOL0     O 5718   0.460   2.096  11.414 -0.7996  0.4567 -0.4670
   43MOL0     C 5719   0.618   2.255  11.133 -0.6805  1.1839 -0.2946
   43MOL0     C 5720   0.753   2.281  11.085 -0.1522 -0.2542  0.2174
   43MOL0     N 5721   1.448   2.315  11.016  1.3531 -0.2370 -0.4607
   43MOL0     N 5722   1.538   2.380  10.946  0.8486  0.8896  1.2229
   43MOL0     C 5723   2.607   2.423  10.542  0.0387 -0.4307 -1.0912
   43MOL0     C 5724   2.694   2.437  10.445 -0.1096 -0.2165  0.4552
   43MOL0     C 5725   2.898   2.636  10.098 -0.6313  0.1752 -0.1663
   43MOL0     C 5726   2.870   2.667   9.961 -0.7374 -0.3309 -0.2919
   43MOL0     C 5727   2.963   2.724   9.876 -0.3860  0.2519  0.6511
   43MOL0     C 5728   3.090   2.735   9.914  0.0088 -0.9514  0.2708
   43MOL0     O 5729   3.180   2.784   9.818 -0.3560  1.2126 -0.0791
   43MOL0     C 5730   3.316   2.799   9.844 -1.2595  0.0905  0.5244
   43MOL0     C 5731   3.391   2.872   9.741  0.4805  0.0742 -0.9027
   43MOL0     C 5732   3.364   3.021   9.774  0.2431  0.2053 -0.8319
   43MOL0     C 5733   3.432   3.101   9.659  0.4941  0.2961 -0.4237
   43MOL0     C 5734   3.579   3.084   9.659 -0.2921 -0.6896  0.1058
   43MOL0     C 5735   3.696   3.061   9.673  0.4431  0.2574  0.3997
   43MOL0     C 5736   3.127   2.694  10.046  0.0821 -0.5291 -0.6616
   43MOL0     C 5737   3.035   2.649  10.132 -0.4861  0.0659  0.1695
   43MOL0     H 5738   2.796   2.758  10.533 -2.6602  2.1679 -0.4733
   43MOL0     H 5739   2.630   2.724  10.690  3.3249  1.3055 -0.2084
   43MOL0     H 5740   2.362   2.380  10.681  2.1825 -2.3290 -1.5314
   43MOL0     H 5741   2.504   2.323  10.755 -0.0547 -0.7532  0.5781
   43MOL0     H 5742   2.304   2.313  10.905  0.1436 -0.8176  0.8145
   43MOL0     H 5743   2.428   2.403  10.975 -1.1858 -1.7351  0.4067
   43MOL0     H 5744   2.293   2.618  10.896 -0.0337  0.2294 -3.1490
   43MOL0     H 5745   2.177   2.508  10.818  0.0183 -3.0693  1.0346
   43MOL0     H 5746   2.115   2.425  11.053 -1.5464  1.1614  1.7594
   43MOL0     H 5747   2.246   2.528  11.119  0.4881  0.6409 -0.7532
   43MOL0     H 5748   2.054   2.662  11.154 -0.5359 -1.5434  0.0142
   43MOL0     H 5749   2.145   2.731  11.013 -1.8043  1.4929  0.0972
   43MOL0     H 5750   1.903   2.745  10.993 -0.8621 -0.5750 -0.4048
   43MOL0     H 5751   1.975   2.633  10.883 -0.0846  2.7155  0.1789
   43MOL0     H 5752   1.874   2.434  10.996 -0.5429  0.1308  0.7758
   43MOL0     H 5753   1.850   2.525  11.141  0.0743  0.3830 -0.7907
   43MOL0     H 5754   1.697   2.592  10.888  1.3930  2.0512  0.5466
   43MOL0     H 5755   1.666   2.661  11.047 -2.3906 -1.0224  0.3037
   43MOL0     H 5756   1.593   2.483  11.252 -2.0772 -1.4953  1.2363
   43MOL0     H 5757   1.362   2.157  11.228 -3.4672 -0.8943  2.4282
   43MOL0     H 5758   1.469   2.244  11.339  0.9805  0.4023 -0.1494
   43MOL0     H 5759   1.301   2.424  11.364 -0.5476  0.5826 -1.1065
   43MOL0     H 5760   1.234   2.263  11.392 -1.7313  1.2455  0.7032
   43MOL0     H 5761   1.179   2.447  11.158 -0.9478  1.3029  1.3719
   43MOL0     H 5762   1.073   2.389  11.288 -0.7272 -0.4518 -1.5890
   43MOL0     H 5763   1.125   2.151  11.161 -1.1984 -1.1407 -0.0639
   43MOL0     H 5764   1.187   2.255  11.038  1.5866  0.4838  0.9338
   43MOL0     H 5765   0.943   2.117  11.304 -0.7711 -2.7805 -1.8681
   43MOL0     H 5766   0.669   1.963  11.442  2.1367 -1.6116  2.3084
   43MOL0     H 5767   0.842   1.996  11.462 -0.0297 -0.9933 -0.5527
   43MOL0     H 5768   0.717   2.108  11.525  0.2107 -0.7642  1.6861
   43MOL0     H 5769   0.155   2.322  11.239 -0.4347 -0.6569 -2.6971
   43MOL0     H 5770  -0.052   2.254  11.341  1.3751  1.1616  0.8617
   43MOL0     H 5771  -0.185   1.887  11.244  1.8083 -2.3348  0.8091
   43MOL0     H 5772  -0.149   1.819  11.404 -0.9600 -0.3369  0.6608
   43MOL0     H 5773  -0.387   1.987  11.329  0.7541 -0.8964 -1.4795
   43MOL0     H 5774  -0.400   1.814  11.368  4.8181 -3.5693 -1.7870
   43MOL0     H 5775  -0.299   2.028  11.565 -0.7822  1.2206  0.1254
   43MOL0     H 5776  -0.316   1.853  11.590  0.3647  2.0158  0.6307
   43MOL0     H 5777  -0.567   1.968  11.486  0.7431 -2.1715 -0.9192
   43MOL0     H 5778  -0.545   1.863  11.608  0.3802 -0.5044 -2.4262
   43MOL0     H 5779  -0.483   2.168  11.622 -2.4574  2.1814  2.4050
   43MOL0     H 5780  -0.428   2.058  11.751 -0.1484  0.5853  0.5338
   43MOL0     H 5781  -0.642   2.195  11.799 -1.4953 -1.5014  1.9351
   43MOL0     H 5782  -0.716   2.126  11.657  2.4330  1.7464 -2.0270
   43MOL0     H 5783  -0.653   1.989  11.923 -1.3332  1.2827  1.5271
   43MOL0     H 5784  -0.676   1.898  11.778  6.3805  0.4110  0.4360
   43MOL0     H 5785  -0.906   2.017  11.736  2.3461 -0.7853 -1.7130
   43MOL0     H 5786  -0.865   2.103  11.888 -0.0212  0.0841  0.0120
   43MOL0     H 5787   0.090   1.837  11.324 -0.1237  0.0390  0.8593
   43MOL0     H 5788   0.299   1.917  11.267  0.5449  0.0031  1.3507
   43MOL0     H 5789   0.531   2.297  11.084 -0.9404  0.6064 -0.3425
   43MOL0     H 5790   0.771   2.349  11.002  0.7791  0.4158  0.9419
   43MOL0     H 5791   2.560   2.325  10.541  1.9059 -1.4863  1.8811
   43MOL0     H 5792   2.699   2.364  10.364  0.4136 -0.5991  0.8241
   43MOL0     H 5793   2.767   2.653   9.929 -0.7101 -0.7102 -0.2171
   43MOL0     H 5794   2.941   2.746   9.772 -0.3280 -2.6315 -0.0588
   43MOL0     H 5795   3.320   2.847   9.942 -1.3964  1.2196 -0.0014
   43MOL0     H 5796   3.366   2.702   9.856 -0.4938  0.7164  2.9391
   43MOL0     H 5797   3.371   2.845   9.637 -0.9495 -0.5948 -0.4832
   43MOL0     H 5798   3.499   2.857   9.744  1.1423  3.8297 -0.6619
   43MOL0     H 5799   3.411   3.047   9.870  0.5609 -2.9006 -0.0356
   43MOL0     H 5800   3.257   3.025   9.795  0.5042 -2.9958  1.9756
   43MOL0     H 5801   3.409   3.207   9.677  2.0148  0.2008  2.9269
   43MOL0     H 5802   3.381   3.068   9.568 -0.8415 -0.4777  0.5651
   43MOL0     H 5803   3.801   3.041   9.682  0.5063  0.1700 -0.4978
   43MOL0     H 5804   3.230   2.679  10.076  0.3566  0.6308 -0.9653
   43MOL0     H 5805   3.057   2.611  10.231  0.2977  1.0624  0.3934
   44MOL0     O 5806   1.498   9.898   0.062  0.1530  0.6185 -0.6096
   44MOL0     C 5807   1.573   9.944   0.147 -0.8473 -0.8835 -0.3923
   44MOL0     O 5808   1.534  10.000   0.268  0.4020  0.2833  0.3976
   44MOL0     C 5809   1.396  10.018   0.284  0.3139 -0.9529 -1.0386
   44MOL0     C 5810   1.323  10.121   0.218  0.3037  0.3410  0.0710
   44MOL0     C 5811   1.187  10.142   0.244  0.7322 -0.2646 -0.1460
   44MOL0     C 5812   1.115  10.054   0.333 -0.4240 -1.1363  0.0594
   44MOL0     O 5813   0.982  10.055   0.366  0.8552 -0.1170  0.6372
   44MOL0     C 5814   0.903  10.177   0.337 -0.4034 -0.5179  0.4575
   44MOL0     C 5815   0.759  10.146   0.364  0.1155 -0.2408  0.3794
   44MOL0     C 5816   0.650  10.260   0.351 -0.1368 -0.9490 -0.2627
   44MOL0     C 5817   0.505  10.213   0.373 -0.1175  1.1511 -0.0502
   44MOL0     C 5818   0.402  10.310   0.321  0.4295  0.5598  0.5372
   44MOL0     C 5819   0.262  10.276   0.348  0.4948 -0.1242  0.0068
   44MOL0     C 5820   0.158  10.370   0.278 -0.4073 -0.4519 -0.4234
   44MOL0     C 5821   0.008  10.352   0.289  0.6986 -0.8277  0.2305
   44MOL0     N 5822  -0.065  10.462   0.224 -0.2348  0.0888 -0.0244
   44MOL0     C 5823  -0.146  10.447   0.110 -0.0743 -0.3423  0.3104
   44MOL0     C 5824  -0.207  10.564   0.096 -0.1370  0.5206  0.1157
   44MOL0     C 5825  -0.284  10.600  -0.026  1.3584  0.2727  0.6687
   44MOL0     C 5826  -0.361  10.729  -0.005  0.2696  0.2984 -0.2068
   44MOL0     C 5827  -0.455  10.778  -0.113 -0.5707 -0.1849 -0.1107
   44MOL0     C 5828  -0.488  10.930  -0.102  0.0760  0.5305 -0.1357
   44MOL0     O 5829  -0.547  10.956   0.031 -0.1838 -0.1670  0.3385
   44MOL0     C 5830  -0.680  10.980   0.065  0.1709 -0.8547 -0.0625
   44MOL0     C 5831  -0.785  10.935  -0.015  0.0238  0.4758 -0.3456
   44MOL0     C 5832  -0.916  10.965   0.016 -0.1891  0.2417  0.0258
   44MOL0     C 5833  -1.018  10.900  -0.071  0.3888 -0.2629 -0.5208
   44MOL0     C 5834  -0.950  11.035   0.134  0.4836  0.6435  0.5951
   44MOL0     C 5835  -1.090  11.056   0.186 -0.0964 -0.3327  0.3546
   44MOL0     O 5836  -1.188  11.053   0.097 -0.2220 -0.2429 -0.0348
   44MOL0     C 5837  -1.316  11.087   0.133 -0.6728 -0.9235 -0.2422
   44MOL0     C 5838  -1.371  11.194   0.063 -1.5120 -0.9876  0.4943
   44MOL0     C 5839  -1.497  11.247   0.085 -0.2731  0.5221 -0.2645
   44MOL0     C 5840  -1.574  11.194   0.185 -0.5533 -0.6013  1.2696
   44MOL0     O 5841  -1.701  11.241   0.205 -0.4266 -0.2950  0.1731
   44MOL0     C 5842  -1.760  11.351   0.129 -0.6571  0.4521  0.2944
   44MOL0     C 5843  -1.908  11.372   0.159 -0.3561 -0.3163 -0.3065
   44MOL0     C 5844  -1.988  11.245   0.173  0.3688 -0.0972 -0.1672
   44MOL0     C 5845  -2.132  11.279   0.224  0.2376  0.4132 -0.5189
   44MOL0     C 5846  -2.244  11.292   0.128 -0.6656  0.3876 -0.3861
   44MOL0     C 5847  -2.365  11.346   0.205  0.2306 -0.0278 -1.0068
   44MOL0     C 5848  -2.474  11.376   0.111  0.4534 -0.0425  0.2292
   44MOL0     C 5849  -2.581  11.451   0.182  0.1990 -0.0502 -0.4226
   44MOL0    Cl 5850  -2.702  11.479   0.046  0.2739 -0.6848  0.3480
   44MOL0     C 5851  -1.515  11.088   0.255  0.5565  0.2190 -0.3748
   44MOL0     C 5852  -1.388  11.035   0.238 -0.4046  0.0486  0.4040
   44MOL0     O 5853  -1.106  11.065   0.305  0.3126 -0.5063 -0.1325
   44MOL0     C 5854  -0.840  11.074   0.214 -0.5962  0.0111 -0.7297
   44MOL0     C 5855  -0.705  11.055   0.183 -0.4299  0.7844 -0.2205
   44MOL0     N 5856  -0.176  10.644   0.205  0.1891  0.0143 -0.0839
   44MOL0     N 5857  -0.095  10.584   0.285  0.2349  0.1374 -0.9812
   44MOL0     C 5858   1.191   9.950   0.393 -0.0598  0.3901 -0.0299
   44MOL0     C 5859   1.325   9.931   0.361  0.5289  0.5962 -0.2968
   44MOL0     C 5860   1.714   9.944   0.114 -0.3423  0.2326  0.3827
   44MOL0     C 5861   1.759   9.877  -0.003  0.3583  0.2236 -0.7247
   44MOL0     C 5862   1.892   9.880  -0.033  0.5853  0.8492  0.3297
   44MOL0     C 5863   1.985   9.938   0.046 -0.3358  0.2341  0.2582
   44MOL0     O 5864   2.120   9.949   0.016 -0.0195  0.2779  0.4178
   44MOL0     C 5865   2.174   9.863  -0.079  0.0135 -0.1369  0.5596
   44MOL0     C 5866   2.327   9.839  -0.058  0.2539 -0.3794 -0.4914
   44MOL0     C 5867   2.387   9.783  -0.179 -0.3345  0.3850 -1.0264
   44MOL0     C 5868   2.534   9.762  -0.168 -0.3659  0.0532  0.0796
   44MOL0     C 5869   2.579   9.684  -0.293 -0.1944  0.4511 -0.6728
   44MOL0     C 5870   2.614   9.608  -0.383  0.1041 -0.5849 -1.0640
   44MOL0     C 5871   1.945  10.009   0.167 -0.4732 -0.3856  0.4841
   44MOL0     C 5872   1.802  10.008   0.198  0.2992  0.2860  0.0500
   44MOL0     H 5873   1.387  10.191   0.165  1.0450 -0.2336  0.1839
   44MOL0     H 5874   1.135  10.223   0.192 -0.0288 -1.4720 -1.3340
   44MOL0     H 5875   0.937  10.260   0.400 -1.2597  0.0193  0.2271
   44MOL0     H 5876   0.923  10.207   0.234  1.0665  3.7262  1.7677
   44MOL0     H 5877   0.723  10.064   0.302 -2.3441  0.4230  0.8165
   44MOL0     H 5878   0.764  10.108   0.466  0.2289 -0.2260  0.3805
   44MOL0     H 5879   0.678  10.342   0.417  0.6837 -2.2155  1.0335
   44MOL0     H 5880   0.660  10.303   0.251 -1.1338  0.8333  0.3572
   44MOL0     H 5881   0.496  10.138   0.294 -1.2222 -0.8267  1.8783
   44MOL0     H 5882   0.479  10.179   0.473 -1.9427  2.6005  0.0239
   44MOL0     H 5883   0.414  10.404   0.375  1.3863 -1.2195  3.6640
   44MOL0     H 5884   0.411  10.332   0.214  0.1808  0.8221  0.5696
   44MOL0     H 5885   0.241  10.174   0.312  0.0238 -0.8280  2.1173
   44MOL0     H 5886   0.233  10.276   0.454  0.7067  1.3511  0.0812
   44MOL0     H 5887   0.166  10.472   0.317 -1.2702 -0.2512 -0.7522
   44MOL0     H 5888   0.182  10.376   0.172  2.3062 -0.9248  0.1009
   44MOL0     H 5889  -0.023  10.347   0.393 -0.2215 -0.1981 -0.0060
   44MOL0     H 5890  -0.019  10.255   0.246  2.0677 -1.3976  0.6074
   44MOL0     H 5891  -0.155  10.366   0.038 -0.9377  0.0071  0.0170
   44MOL0     H 5892  -0.219  10.613  -0.113  0.1885 -0.1627 -0.3020
   44MOL0     H 5893  -0.348  10.512  -0.041  0.8988  0.4770  1.3654
   44MOL0     H 5894  -0.277  10.800  -0.006  2.7170 -2.4152 -1.0712
   44MOL0     H 5895  -0.409  10.736   0.093 -2.3796 -0.4412 -1.3844
   44MOL0     H 5896  -0.553  10.732  -0.098 -0.5386 -0.0851  0.4287
   44MOL0     H 5897  -0.421  10.758  -0.215 -3.8451 -1.1146 -1.1315
   44MOL0     H 5898  -0.552  10.959  -0.186  0.3150  0.6987 -0.2635
   44MOL0     H 5899  -0.396  10.989  -0.116 -0.2386  0.7599 -1.3978
   44MOL0     H 5900  -0.747  10.873  -0.096  1.0406  1.8916 -1.0017
   44MOL0     H 5901  -1.080  10.969  -0.129 -1.8899 -2.5820 -1.0247
   44MOL0     H 5902  -0.960  10.830  -0.132 -0.7488 -1.9227  0.2300
   44MOL0     H 5903  -1.092  10.840  -0.018 -0.6490  1.7136  0.3916
   44MOL0     H 5904  -1.317  11.237  -0.021  0.0170  0.8782  2.3159
   44MOL0     H 5905  -1.530  11.331   0.025 -0.4353  1.2563  0.8173
   44MOL0     H 5906  -1.692  11.435   0.148 -0.0864  0.1834 -0.5417
   44MOL0     H 5907  -1.768  11.330   0.022 -1.1817  1.4395  0.1295
   44MOL0     H 5908  -1.917  11.431   0.251 -1.2457 -1.1511  0.1621
   44MOL0     H 5909  -1.960  11.429   0.081 -2.0914  0.3360  1.2397
   44MOL0     H 5910  -1.939  11.183   0.250 -0.6534 -1.0546 -0.2652
   44MOL0     H 5911  -1.984  11.190   0.079  0.9869 -2.4928  1.1647
   44MOL0     H 5912  -2.156  11.193   0.288  1.1752  2.7676  3.3372
   44MOL0     H 5913  -2.136  11.364   0.292 -1.6268  0.4496 -0.6021
   44MOL0     H 5914  -2.268  11.191   0.093  0.9458  0.0295 -0.5469
   44MOL0     H 5915  -2.217  11.363   0.049  0.7278  1.8715  1.3206
   44MOL0     H 5916  -2.390  11.274   0.282  0.2808  1.0098  0.0071
   44MOL0     H 5917  -2.333  11.443   0.245 -0.9540  0.1406 -0.4311
   44MOL0     H 5918  -2.511  11.283   0.064  2.2479 -0.6830  0.0167
   44MOL0     H 5919  -2.441  11.438   0.027  1.2580 -1.2069 -0.3495
   44MOL0     H 5920  -2.550  11.549   0.221 -1.2038  0.8519 -1.4761
   44MOL0     H 5921  -2.619  11.398   0.269  1.1818  0.7129  0.5025
   44MOL0     H 5922  -1.580  11.053   0.335 -1.1615  3.5674 -0.1213
   44MOL0     H 5923  -1.357  10.957   0.307  2.9074 -1.4857 -2.5416
   44MOL0     H 5924  -0.853  11.113   0.315  3.8565 -1.6892  0.7447
   44MOL0     H 5925  -0.619  11.079   0.245  0.1235 -0.8080 -0.3055
   44MOL0     H 5926   1.131   9.876   0.444  2.1590 -0.4135  1.5850
   44MOL0     H 5927   1.368   9.840   0.401 -6.0766 -2.8474  0.3022
   44MOL0     H 5928   1.693   9.822  -0.068  1.3230 -0.2268 -1.3464
   44MOL0     H 5929   1.917   9.826  -0.124 -2.2722 -0.4839  0.2297
   44MOL0     H 5930   2.129   9.764  -0.088  0.8567 -0.7932  2.8808
   44MOL0     H 5931   2.160   9.928  -0.166  0.6323  1.2367  1.4452
   44MOL0     H 5932   2.348   9.779   0.030  0.7583  0.0558 -0.3120
   44MOL0     H 5933   2.365   9.941  -0.042 -3.3915  0.6988  2.9043
   44MOL0     H 5934   2.364   9.851  -0.262 -1.3869  0.8807 -0.3518
   44MOL0     H 5935   2.337   9.688  -0.195 -0.1753 -0.0581  0.8404
   44MOL0     H 5936   2.559   9.709  -0.076  0.1295 -1.5564 -0.9432
   44MOL0     H 5937   2.586   9.858  -0.159 -1.3068  0.4993  0.9143
   44MOL0     H 5938   2.634   9.549  -0.470 -0.6928  0.7296 -2.1826
   44MOL0     H 5939   2.014  10.063   0.230 -0.4149 -3.6040  3.4748
   44MOL0     H 5940   1.748  10.054   0.280 -1.8335 -1.7269 -0.1216
   45MOL0     O 5941   6.222   2.093   5.825  0.4214 -0.2488  0.2254
   45MOL0     C 5942   6.184   2.124   5.712 -0.9295 -0.6787  0.5117
   45MOL0     O 5943   6.267   2.136   5.602 -0.9389  0.0520 -0.0068
   45MOL0     C 5944   6.406   2.136   5.608  0.3236  0.5916 -0.4420
   45MOL0     C 5945   6.475   2.230   5.533  0.2083  0.2865  0.6157
   45MOL0     C 5946   6.617   2.235   5.545  0.3082 -0.3590  0.0529
   45MOL0     C 5947   6.687   2.133   5.617 -0.5914 -0.1602  0.0270
   45MOL0     O 5948   6.821   2.119   5.610 -0.4759  0.4535  0.1380
   45MOL0     C 5949   6.887   2.159   5.487  0.3296 -0.4088 -0.5387
   45MOL0     C 5950   6.999   2.068   5.474 -0.7213  0.6902  0.6435
   45MOL0     C 5951   7.105   2.076   5.583  0.2121 -0.3300 -1.5751
   45MOL0     C 5952   7.194   1.953   5.579  0.7147  0.9093  0.7104
   45MOL0     C 5953   7.247   1.918   5.718  0.4520 -0.1101 -0.0167
   45MOL0     C 5954   7.171   1.806   5.799 -0.2909 -0.1863  0.7187
   45MOL0     C 5955   7.048   1.868   5.864  0.2898  0.0895 -0.3425
   45MOL0     C 5956   7.080   1.988   5.951 -0.3954 -0.1641 -0.1093
   45MOL0     N 5957   6.971   2.017   6.042 -0.0004  0.3325 -0.5659
   45MOL0     C 5958   6.835   2.012   6.015 -0.8123  0.0467 -0.2596
   45MOL0     C 5959   6.779   2.057   6.125 -0.5213  0.9812 -1.6647
   45MOL0     C 5960   6.630   2.082   6.148 -0.2575 -0.3110 -0.1724
   45MOL0     C 5961   6.597   2.169   6.270 -0.5723 -0.3513  0.6461
   45MOL0     C 5962   6.445   2.205   6.273  0.0794  0.3743  0.1920
   45MOL0     C 5963   6.354   2.106   6.343 -0.0628 -0.4979  0.3935
   45MOL0     O 5964   6.223   2.139   6.336  0.3434  0.8869  0.5633
   45MOL0     C 5965   6.173   2.221   6.433 -0.2242  0.0653 -0.3498
   45MOL0     C 5966   6.234   2.260   6.552 -0.3821 -0.4932  0.1696
   45MOL0     C 5967   6.160   2.351   6.635 -0.4363 -0.4693  1.7686
   45MOL0     C 5968   6.234   2.371   6.763  0.5744  0.3256  0.3139
   45MOL0     C 5969   6.035   2.410   6.596  0.6350  0.2697  0.1174
   45MOL0     C 5970   5.973   2.519   6.681  0.9946 -0.5102 -0.9038
   45MOL0     O 5971   5.840   2.550   6.658 -0.3934 -0.0764  0.1703
   45MOL0     C 5972   5.776   2.656   6.714  0.5119 -0.2838 -0.4117
   45MOL0     C 5973   5.839   2.781   6.729  0.3995  0.5030 -0.2610
   45MOL0     C 5974   5.770   2.883   6.802  0.8329 -0.9314  0.2590
   45MOL0     C 5975   5.639   2.864   6.848  0.4070 -0.2099  0.2838
   45MOL0     O 5976   5.570   2.956   6.929  0.0725 -0.0547  0.7103
   45MOL0     C 5977   5.644   3.041   7.010 -0.3271 -0.9300 -0.4295
   45MOL0     C 5978   5.546   3.143   7.069  0.1418  0.2548  0.8645
   45MOL0     C 5979   5.427   3.088   7.150 -0.4119  0.0589  0.0730
   45MOL0     C 5980   5.332   3.203   7.188  0.0220  0.2822  0.5373
   45MOL0     C 5981   5.205   3.163   7.264 -0.8510  0.2580  0.5990
   45MOL0     C 5982   5.103   3.085   7.176  0.0345 -0.0774 -0.6315
   45MOL0     C 5983   4.981   3.045   7.254  0.5955 -0.5302  0.0616
   45MOL0     C 5984   4.878   2.966   7.177  0.9877 -0.0761  0.5469
   45MOL0    Cl 5985   4.956   2.808   7.115  0.2140 -0.0084 -0.0913
   45MOL0     C 5986   5.579   2.754   6.795  0.2632 -0.5053  0.6180
   45MOL0     C 5987   5.637   2.657   6.719  0.2846 -0.4797 -0.1225
   45MOL0     O 5988   6.044   2.583   6.761 -0.5445 -0.2982 -0.1585
   45MOL0     C 5989   5.973   2.361   6.475 -0.4809 -0.2734 -0.4977
   45MOL0     C 5990   6.044   2.269   6.399 -0.3615  0.3951 -0.2668
   45MOL0     N 5991   6.881   2.079   6.220  1.2048 -0.6615 -0.6615
   45MOL0     N 5992   6.992   2.049   6.174 -0.6748  0.8308  0.5292
   45MOL0     C 5993   6.613   2.033   5.684  0.4513  1.2478  0.0951
   45MOL0     C 5994   6.473   2.030   5.678  0.1253 -0.2422  0.6717
   45MOL0     C 5995   6.036   2.152   5.698  0.4092 -0.5430 -0.6153
   45MOL0     C 5996   5.946   2.121   5.802  0.4457 -0.6497  0.3643
   45MOL0     C 5997   5.809   2.146   5.787  0.2872 -0.5464  0.1384
   45MOL0     C 5998   5.754   2.198   5.665  0.7609 -0.1887 -1.0289
   45MOL0     O 5999   5.620   2.227   5.653 -0.4740 -0.0982 -0.3439
   45MOL0     C 6000   5.531   2.115   5.680  0.0679  0.3110 -0.1213
   45MOL0     C 6001   5.396   2.137   5.615  0.2308 -0.4872 -0.0076
   45MOL0     C 6002   5.299   2.033   5.674 -0.1223 -0.2529  0.4777
   45MOL0     C 6003   5.159   2.063   5.613 -0.7336 -0.7317  0.7317
   45MOL0     C 6004   5.067   1.955   5.632 -0.3864  0.8544  0.7244
   45MOL0     C 6005   4.992   1.863   5.669 -0.5106  0.5147 -0.0326
   45MOL0     C 6006   5.843   2.215   5.558  0.1110  0.6249 -0.0653
   45MOL0     C 6007   5.988   2.205   5.575  0.7895  0.2675  0.2103
   45MOL0     H 6008   6.422   2.297   5.466 -3.0509 -1.4031  1.2513
   45MOL0     H 6009   6.668   2.314   5.491  0.4751 -2.4666 -3.1328
   45MOL0     H 6010   6.815   2.157   5.405  1.5436  1.8563 -1.7483
   45MOL0     H 6011   6.915   2.264   5.491 -5.1255  1.3825 -0.6876
   45MOL0     H 6012   6.953   1.969   5.474 -1.9431  1.2389  0.6825
   45MOL0     H 6013   7.049   2.091   5.380  1.0326 -0.4603  1.2585
   45MOL0     H 6014   7.152   2.174   5.572 -1.4555  0.5698 -1.2007
   45MOL0     H 6015   7.072   2.077   5.688  0.1700  0.1788 -1.5901
   45MOL0     H 6016   7.128   1.868   5.559  0.7890  1.3595 -1.8550
   45MOL0     H 6017   7.266   1.957   5.496 -1.0284 -2.8931 -1.2619
   45MOL0     H 6018   7.346   1.872   5.703 -0.4891 -2.1064 -0.4030
   45MOL0     H 6019   7.269   2.008   5.777 -1.7787 -0.3267  1.2415
   45MOL0     H 6020   7.137   1.729   5.730  2.0143  1.2479 -2.2495
   45MOL0     H 6021   7.236   1.764   5.877 -0.0170 -1.4924 -0.1824
   45MOL0     H 6022   6.971   1.903   5.795 -1.4396  0.9025  1.8857
   45MOL0     H 6023   7.004   1.787   5.923  2.8191 -1.0642  0.1167
   45MOL0     H 6024   7.115   2.075   5.895  0.9878  0.8787  2.2356
   45MOL0     H 6025   7.159   1.958   6.020  1.9706  2.3908 -1.5155
   45MOL0     H 6026   6.787   1.990   5.920  1.8805 -0.2282 -1.6616
   45MOL0     H 6027   6.582   2.135   6.065  0.1861 -0.2479 -0.3881
   45MOL0     H 6028   6.589   1.983   6.171  0.2831 -0.3055  0.8836
   45MOL0     H 6029   6.656   2.259   6.253 -0.9845 -0.3873 -1.1046
   45MOL0     H 6030   6.633   2.131   6.367 -3.0185 -1.7303  1.1095
   45MOL0     H 6031   6.409   2.229   6.172  0.3437 -2.7290 -0.7372
   45MOL0     H 6032   6.425   2.300   6.324 -1.1252  2.3389 -3.5046
   45MOL0     H 6033   6.397   2.073   6.438  0.1592 -1.9790 -0.1975
   45MOL0     H 6034   6.366   2.013   6.288 -0.5261  0.3256 -1.1710
   45MOL0     H 6035   6.332   2.219   6.575 -1.4743 -2.5165  1.5556
   45MOL0     H 6036   6.275   2.272   6.786  3.7718  1.0754 -1.6234
   45MOL0     H 6037   6.318   2.440   6.775 -0.8675  1.8896  2.1462
   45MOL0     H 6038   6.175   2.390   6.854 -0.0514 -1.4365  0.3248
   45MOL0     H 6039   5.939   2.792   6.688  0.8301  0.0840  0.6415
   45MOL0     H 6040   5.825   2.975   6.818 -0.0175 -0.5664  1.1726
   45MOL0     H 6041   5.701   2.988   7.087 -0.5048  0.6295  0.8468
   45MOL0     H 6042   5.715   3.101   6.953 -0.6104  3.1259  2.9411
   45MOL0     H 6043   5.595   3.206   7.144  2.1360 -0.3195  0.1279
   45MOL0     H 6044   5.514   3.216   6.995 -1.2308 -0.3421  0.8379
   45MOL0     H 6045   5.461   3.028   7.236 -1.6374 -0.0973  0.4640
   45MOL0     H 6046   5.372   3.014   7.091 -1.4479  1.5679 -0.8891
   45MOL0     H 6047   5.393   3.270   7.250  0.1493 -1.7937  2.7668
   45MOL0     H 6048   5.301   3.245   7.091 -1.7574 -2.5551 -0.2293
   45MOL0     H 6049   5.162   3.255   7.305 -0.1986  1.6369 -1.6023
   45MOL0     H 6050   5.232   3.103   7.351  0.6025  0.3430  0.2276
   45MOL0     H 6051   5.072   3.149   7.094 -1.5911 -0.4717 -0.3596
   45MOL0     H 6052   5.161   2.997   7.143 -0.1484 -1.7577  3.0154
   45MOL0     H 6053   4.935   3.136   7.292  0.8923 -0.0747 -0.6340
   45MOL0     H 6054   5.020   2.990   7.339  3.6057 -2.0437 -2.1024
   45MOL0     H 6055   4.842   3.018   7.088 -1.2196 -1.6554  0.4430
   45MOL0     H 6056   4.794   2.952   7.245 -0.2520  0.0559 -0.9210
   45MOL0     H 6057   5.472   2.738   6.805 -0.1739  1.9790  0.4451
   45MOL0     H 6058   5.567   2.577   6.696 -0.2397 -0.1154  0.1802
   45MOL0     H 6059   5.871   2.391   6.457 -0.5489  0.0974  0.4513
   45MOL0     H 6060   5.995   2.229   6.311  1.5143 -1.0841 -0.7106
   45MOL0     H 6061   6.674   1.952   5.723  2.5028  1.7804 -1.8004
   45MOL0     H 6062   6.405   1.957   5.720 -2.7475  1.1962 -1.2193
   45MOL0     H 6063   5.990   2.072   5.889  2.8455 -1.6825 -1.3379
   45MOL0     H 6064   5.751   2.148   5.879  2.3181  0.8816  1.4782
   45MOL0     H 6065   5.574   2.021   5.645  1.1985  0.6030  0.4429
   45MOL0     H 6066   5.523   2.119   5.789 -1.0722 -0.5453 -0.1559
   45MOL0     H 6067   5.402   2.132   5.505 -0.8013  0.8232 -0.1597
   45MOL0     H 6068   5.368   2.240   5.639  1.6416 -0.4179  1.4731
   45MOL0     H 6069   5.293   2.052   5.781  0.7463 -0.5768  0.5931
   45MOL0     H 6070   5.336   1.932   5.657  2.2372  0.6331  0.0128
   45MOL0     H 6071   5.169   2.073   5.504 -0.4839  0.8855  0.8869
   45MOL0     H 6072   5.117   2.151   5.660  0.8559 -0.9688  2.7292
   45MOL0     H 6073   4.930   1.789   5.715  0.6185  0.6221  1.7557
   45MOL0     H 6074   5.799   2.248   5.464 -0.8790 -1.7106 -0.4793
   45MOL0     H 6075   6.055   2.228   5.493  0.3944 -1.4729 -0.6481
   46MOL0     O 6076  10.015   6.882   2.042 -0.1863 -0.5161  0.5623
   46MOL0     C 6077  10.077   6.778   2.050  0.6254 -0.6161 -0.4076
   46MOL0     O 6078  10.030   6.659   2.084  0.9702  0.6515 -0.4390
   46MOL0     C 6079   9.893   6.643   2.099  0.2937 -0.0783  1.1761
   46MOL0     C 6080   9.849   6.514   2.103  0.0879  0.0320 -0.1612
   46MOL0     C 6081   9.718   6.476   2.118 -0.3407  0.3721  0.4764
   46MOL0     C 6082   9.616   6.567   2.130 -0.1174  1.0338 -0.1223
   46MOL0     O 6083   9.490   6.523   2.149  0.2509  0.1570 -0.2357
   46MOL0     C 6084   9.376   6.613   2.159  0.2628  0.1991 -0.4752
   46MOL0     C 6085   9.252   6.542   2.109 -1.4891 -0.0294 -0.3538
   46MOL0     C 6086   9.150   6.646   2.071  1.1118 -0.5504 -0.2536
   46MOL0     C 6087   9.015   6.586   2.036  0.8689  0.1167  0.1124
   46MOL0     C 6088   8.914   6.684   1.974 -0.2857  0.1094  0.1502
   46MOL0     C 6089   8.791   6.607   1.912  0.2312  0.4206 -0.0535
   46MOL0     C 6090   8.666   6.694   1.902 -0.0531  0.9204  1.1250
   46MOL0     C 6091   8.553   6.638   1.819  0.0020  0.2264  0.2682
   46MOL0     N 6092   8.577   6.636   1.670 -0.2909  0.9154  0.0469
   46MOL0     C 6093   8.650   6.545   1.603 -0.2111 -0.6355  0.5902
   46MOL0     C 6094   8.646   6.595   1.477 -0.3281 -0.1684 -0.0249
   46MOL0     C 6095   8.710   6.530   1.366  0.8979  0.3792  0.3013
   46MOL0     C 6096   8.864   6.534   1.374  0.0064  0.8748  0.0971
   46MOL0     C 6097   8.921   6.475   1.245  0.0962  0.4607 -0.8486
   46MOL0     C 6098   9.077   6.444   1.267 -0.5048 -0.7033  0.1633
   46MOL0     O 6099   9.129   6.414   1.141  0.0002 -0.3788  0.0434
   46MOL0     C 6100   9.266   6.421   1.131 -1.0493  0.1799 -1.0259
   46MOL0     C 6101   9.321   6.370   1.017 -0.2560 -0.0172  0.6758
   46MOL0     C 6102   9.460   6.373   0.989 -0.3295  0.7030  0.2608
   46MOL0     C 6103   9.499   6.322   0.854 -0.3808  0.0896 -0.4599
   46MOL0     C 6104   9.549   6.424   1.078  0.3149  0.2737  0.0939
   46MOL0     C 6105   9.694   6.443   1.054  0.1337  0.2394 -0.1022
   46MOL0     O 6106   9.759   6.544   1.112  0.4544  0.0592 -0.9740
   46MOL0     C 6107   9.894   6.538   1.135  0.7922 -0.2923  0.0668
   46MOL0     C 6108   9.985   6.588   1.037 -0.2454  0.6933 -0.0288
   46MOL0     C 6109  10.124   6.583   1.056  0.1867  0.4583 -0.7871
   46MOL0     C 6110  10.169   6.547   1.184  0.3399 -0.7547 -0.4207
   46MOL0     O 6111  10.297   6.549   1.223 -0.7974  0.0637  0.8458
   46MOL0     C 6112  10.406   6.549   1.122 -0.1806  0.0673 -0.1471
   46MOL0     C 6113  10.437   6.406   1.085 -0.2629 -0.7571 -0.2566
   46MOL0     C 6114  10.583   6.379   1.019  0.3266 -0.3686 -0.6884
   46MOL0     C 6115  10.689   6.403   1.123  0.1356 -0.2225 -0.5487
   46MOL0     C 6116  10.825   6.336   1.094  0.0286 -0.9668  0.4444
   46MOL0     C 6117  10.877   6.420   0.987  0.4358  0.5017 -0.1463
   46MOL0     C 6118  11.034   6.416   0.977  0.0312  0.2093  0.0653
   46MOL0     C 6119  11.087   6.526   0.888 -0.2959 -0.5014  0.0991
   46MOL0    Cl 6120  11.036   6.522   0.717  0.2114 -0.5599 -0.0325
   46MOL0     C 6121  10.081   6.496   1.278 -0.2092  0.3098 -0.2040
   46MOL0     C 6122   9.941   6.495   1.255  0.1587 -0.1611  0.0445
   46MOL0     O 6123   9.753   6.364   0.979  0.4422  0.4725  0.1653
   46MOL0     C 6124   9.492   6.480   1.195  0.0138 -0.7545  0.6273
   46MOL0     C 6125   9.352   6.476   1.222 -0.3509 -0.1329 -0.6926
   46MOL0     N 6126   8.572   6.710   1.471  0.5919  0.0700 -0.3094
   46MOL0     N 6127   8.536   6.739   1.596  0.8113  0.4252  0.4371
   46MOL0     C 6128   9.655   6.707   2.135  0.1202 -0.1383  0.1681
   46MOL0     C 6129   9.792   6.738   2.121 -0.8137  0.3159 -0.3203
   46MOL0     C 6130  10.224   6.791   2.026  0.2265  0.0421 -0.3947
   46MOL0     C 6131  10.301   6.706   2.101 -0.0360  0.2676 -0.0164
   46MOL0     C 6132  10.438   6.695   2.075 -0.2193  0.2984  0.8451
   46MOL0     C 6133  10.500   6.765   1.966 -0.2156  0.5107  0.2534
   46MOL0     O 6134  10.631   6.759   1.927 -0.8888  0.1181  0.1108
   46MOL0     C 6135  10.733   6.690   1.994  0.3178 -1.1294  0.3730
   46MOL0     C 6136  10.864   6.773   1.988 -0.2969  0.2372 -0.2111
   46MOL0     C 6137  10.915   6.804   1.850 -0.3023 -0.1739  0.1856
   46MOL0     C 6138  11.069   6.840   1.843 -0.7641 -0.1731 -0.1776
   46MOL0     C 6139  11.087   6.966   1.913  0.3658 -0.0553 -0.7601
   46MOL0     C 6140  11.100   7.066   1.978 -0.3989 -0.7299  0.1697
   46MOL0     C 6141  10.414   6.848   1.894 -0.0479  0.4657 -0.7619
   46MOL0     C 6142  10.282   6.866   1.924  0.3645 -0.0805  0.2516
   46MOL0     H 6143   9.928   6.438   2.097  0.5418  0.5654 -1.3751
   46MOL0     H 6144   9.705   6.372   2.143 -2.2112  0.7455  1.2436
   46MOL0     H 6145   9.364   6.647   2.263  0.5622  0.7714 -0.6291
   46MOL0     H 6146   9.385   6.698   2.091 -0.5855  1.1405  0.5475
   46MOL0     H 6147   9.277   6.481   2.021  2.0427 -0.4037  0.7392
   46MOL0     H 6148   9.224   6.484   2.197 -0.1689 -0.2800 -0.0725
   46MOL0     H 6149   9.135   6.723   2.148  1.9931  2.5404 -2.9160
   46MOL0     H 6150   9.189   6.704   1.987  0.5926  0.7100  0.3415
   46MOL0     H 6151   9.018   6.499   1.971 -0.4063  0.2780 -0.1961
   46MOL0     H 6152   8.966   6.555   2.129 -0.7182  1.8864 -0.0718
   46MOL0     H 6153   8.878   6.745   2.057 -0.2793  1.0273 -0.5063
   46MOL0     H 6154   8.965   6.745   1.899  0.4792  0.6268  1.0786
   46MOL0     H 6155   8.809   6.567   1.812 -0.7363  0.4619 -0.2485
   46MOL0     H 6156   8.760   6.516   1.963  0.0760  0.3900 -0.1997
   46MOL0     H 6157   8.626   6.707   2.003  1.9278 -0.7894  2.2068
   46MOL0     H 6158   8.693   6.790   1.856  1.3778 -0.7541 -1.7996
   46MOL0     H 6159   8.470   6.708   1.834 -1.1249 -1.4512  2.5747
   46MOL0     H 6160   8.520   6.539   1.853  1.0055  0.2883  1.4640
   46MOL0     H 6161   8.711   6.467   1.648  0.3584 -0.0733  0.8137
   46MOL0     H 6162   8.682   6.425   1.357  0.5969  0.4128  0.8389
   46MOL0     H 6163   8.680   6.581   1.274  0.3592 -1.7024 -0.7304
   46MOL0     H 6164   8.902   6.485   1.464  1.0776 -1.8947 -1.7065
   46MOL0     H 6165   8.902   6.636   1.380  0.8481  0.5411  0.4823
   46MOL0     H 6166   8.911   6.533   1.152  1.7653 -0.8856 -1.9445
   46MOL0     H 6167   8.872   6.378   1.229 -2.5174  1.8370 -1.8322
   46MOL0     H 6168   9.103   6.364   1.336 -1.7878 -1.3873 -0.1085
   46MOL0     H 6169   9.112   6.536   1.315 -1.4760 -0.4272  0.3685
   46MOL0     H 6170   9.253   6.324   0.945 -2.3032  2.8437  0.6136
   46MOL0     H 6171   9.547   6.395   0.788 -0.9422 -0.2414 -1.2409
   46MOL0     H 6172   9.571   6.240   0.853  0.5630  0.8965 -0.4614
   46MOL0     H 6173   9.412   6.283   0.800 -1.8341  2.5818 -0.1015
   46MOL0     H 6174   9.944   6.638   0.950 -0.9063  1.1362  0.5202
   46MOL0     H 6175  10.199   6.613   0.984  0.4039  0.3933 -0.5878
   46MOL0     H 6176  10.394   6.604   1.028  2.1311 -0.4090 -0.8033
   46MOL0     H 6177  10.494   6.599   1.165 -1.0421  0.8895  0.7066
   46MOL0     H 6178  10.422   6.349   1.177 -0.2168 -0.3003  0.0312
   46MOL0     H 6179  10.357   6.372   1.018  0.8818 -1.2139 -1.4634
   46MOL0     H 6180  10.604   6.445   0.934  0.6729 -0.2304 -0.4965
   46MOL0     H 6181  10.593   6.280   0.974  4.6589 -0.1970 -0.5190
   46MOL0     H 6182  10.708   6.509   1.142  0.2164 -0.0674 -1.4483
   46MOL0     H 6183  10.653   6.373   1.222  0.1772  1.3676 -0.0321
   46MOL0     H 6184  10.808   6.232   1.063  1.4142 -1.8892  2.5486
   46MOL0     H 6185  10.895   6.331   1.178  2.3396 -1.8225 -1.4096
   46MOL0     H 6186  10.824   6.402   0.893  0.1487  2.3224 -0.3823
   46MOL0     H 6187  10.866   6.525   1.017  1.0339  0.8687 -1.1463
   46MOL0     H 6188  11.061   6.322   0.927 -1.9041 -1.2788  1.6465
   46MOL0     H 6189  11.095   6.423   1.068  1.3521 -1.1346 -0.6685
   46MOL0     H 6190  11.196   6.526   0.880 -0.2568 -0.6461  0.5808
   46MOL0     H 6191  11.065   6.626   0.928  2.8802  0.6317 -0.6955
   46MOL0     H 6192  10.127   6.461   1.370  0.2920  2.5182  0.4387
   46MOL0     H 6193   9.867   6.474   1.332 -0.0350  2.2163  0.6007
   46MOL0     H 6194   9.554   6.523   1.274  1.5524 -0.8887 -0.4566
   46MOL0     H 6195   9.317   6.520   1.315 -0.7858  3.5782 -2.4381
   46MOL0     H 6196   9.584   6.788   2.147  4.1569  4.0447 -1.4662
   46MOL0     H 6197   9.811   6.845   2.125 -2.2983  0.6042 -0.2199
   46MOL0     H 6198  10.262   6.639   2.177  2.3401 -3.8915 -2.0686
   46MOL0     H 6199  10.500   6.622   2.126 -1.3633 -0.6220  0.9577
   46MOL0     H 6200  10.705   6.672   2.098 -1.8440 -2.2571 -0.3502
   46MOL0     H 6201  10.730   6.594   1.941  0.9528 -1.2143  0.4880
   46MOL0     H 6202  10.933   6.713   2.048 -0.2483 -0.7418 -1.2169
   46MOL0     H 6203  10.845   6.865   2.045 -1.2034 -0.5615  0.8331
   46MOL0     H 6204  10.855   6.884   1.805  1.1513 -0.4857 -2.5356
   46MOL0     H 6205  10.892   6.715   1.791  0.4689 -0.3917  0.1970
   46MOL0     H 6206  11.115   6.844   1.744  2.8143  0.7029  1.3488
   46MOL0     H 6207  11.129   6.765   1.895  2.3362  1.2490 -1.4652
   46MOL0     H 6208  11.105   7.156   2.036 -0.1746 -1.1632  0.8387
   46MOL0     H 6209  10.449   6.900   1.805 -1.6967  0.3341 -1.5373
   46MOL0     H 6210  10.214   6.941   1.883 -2.8211 -2.3121  1.0517
   47MOL0     O 6211   5.885   3.743   3.622 -0.6070 -0.7721  0.1007
   47MOL0     C 6212   5.920   3.678   3.721  0.4193 -0.0580 -0.3166
   47MOL0     O 6213   5.848   3.585   3.786  0.0535  1.1754  0.2683
   47MOL0     C 6214   5.719   3.552   3.745 -0.3037  0.7568 -0.2083
   47MOL0     C 6215   5.675   3.536   3.613 -0.2639  0.1514 -0.2580
   47MOL0     C 6216   5.558   3.460   3.593  0.8572 -0.3909 -0.1926
   47MOL0     C 6217   5.472   3.415   3.692 -1.0297  0.1726  0.0823
   47MOL0     O 6218   5.350   3.357   3.660 -0.5354 -0.5163 -0.1407
   47MOL0     C 6219   5.256   3.361   3.758 -0.1962 -0.2343 -0.4393
   47MOL0     C 6220   5.125   3.284   3.707 -0.2813 -0.8425 -0.5616
   47MOL0     C 6221   5.071   3.344   3.574  0.0661 -0.5543  0.7071
   47MOL0     C 6222   4.959   3.258   3.539 -0.1569  0.3926 -0.2128
   47MOL0     C 6223   4.898   3.299   3.404 -0.4492  0.4369 -0.0879
   47MOL0     C 6224   4.809   3.183   3.336  0.2433 -0.5617 -0.0218
   47MOL0     C 6225   4.671   3.170   3.405 -0.0240 -0.5999 -0.2929
   47MOL0     C 6226   4.588   3.080   3.323  0.0662 -0.8132 -0.3969
   47MOL0     N 6227   4.552   3.154   3.203  0.1884 -0.3178 -0.9885
   47MOL0     C 6228   4.474   3.267   3.194  0.2687  0.2761 -0.1137
   47MOL0     C 6229   4.464   3.297   3.064  0.8342  0.4706  0.0048
   47MOL0     C 6230   4.384   3.406   3.008  0.0655 -0.7553  0.7552
   47MOL0     C 6231   4.269   3.363   2.919  0.8670  0.6827  0.0592
   47MOL0     C 6232   4.183   3.477   2.867 -0.2924 -0.1134  0.3669
   47MOL0     C 6233   4.041   3.427   2.849  1.0448 -0.2214 -0.3287
   47MOL0     O 6234   3.956   3.539   2.815  0.3359  0.2703  0.1348
   47MOL0     C 6235   3.827   3.534   2.766 -0.6978 -0.5970 -0.6685
   47MOL0     C 6236   3.777   3.658   2.758 -0.0759  0.1271  0.2794
   47MOL0     C 6237   3.653   3.677   2.713  0.0245  0.0409 -0.7894
   47MOL0     C 6238   3.609   3.823   2.716  0.1382 -0.2074  0.1167
   47MOL0     C 6239   3.572   3.575   2.669  0.2459  0.1866  0.0763
   47MOL0     C 6240   3.432   3.587   2.619  0.8313  0.4498 -1.0770
   47MOL0     O 6241   3.375   3.711   2.612 -0.4890 -0.9591 -0.1474
   47MOL0     C 6242   3.243   3.719   2.584 -1.1444 -0.0033  0.1012
   47MOL0     C 6243   3.150   3.661   2.661 -0.3653  0.1240 -0.3774
   47MOL0     C 6244   3.014   3.665   2.623 -0.1679  0.7973 -1.2519
   47MOL0     C 6245   2.978   3.735   2.511 -0.2579  0.7601  0.8330
   47MOL0     O 6246   2.842   3.735   2.477 -0.1734  0.0761 -0.1785
   47MOL0     C 6247   2.806   3.686   2.349 -0.1858 -0.0667 -0.1098
   47MOL0     C 6248   2.658   3.732   2.328 -0.5008 -0.2485  0.0293
   47MOL0     C 6249   2.625   3.725   2.179  0.3479 -0.0814 -0.1518
   47MOL0     C 6250   2.478   3.769   2.151  1.0382  0.8242  0.3705
   47MOL0     C 6251   2.492   3.891   2.063  0.1034 -0.0905 -0.1742
   47MOL0     C 6252   2.363   3.964   2.035  0.0052 -0.1441  0.4091
   47MOL0     C 6253   2.389   4.059   1.912  0.0265 -1.1817  0.0751
   47MOL0     C 6254   2.285   4.178   1.900 -0.7693  0.5590 -0.5521
   47MOL0    Cl 6255   2.115   4.120   1.908  0.1429 -0.4946  0.2993
   47MOL0     C 6256   3.076   3.800   2.440  0.4445  0.3704  0.4901
   47MOL0     C 6257   3.211   3.796   2.467  0.4413  0.6702 -0.4222
   47MOL0     O 6258   3.374   3.480   2.588  0.6566 -0.3708  0.5554
   47MOL0     C 6259   3.624   3.439   2.686  0.2933  0.0562  0.2441
   47MOL0     C 6260   3.752   3.419   2.734  1.2421 -0.5774  0.3381
   47MOL0     N 6261   4.550   3.209   2.997 -0.1299 -0.0741 -0.2261
   47MOL0     N 6262   4.601   3.125   3.082 -0.0043 -0.5827  0.7260
   47MOL0     C 6263   5.524   3.449   3.830  0.3995 -0.5319 -0.4366
   47MOL0     C 6264   5.650   3.503   3.850  0.3750 -0.5852  0.0557
   47MOL0     C 6265   6.062   3.710   3.780  0.5995 -0.8644  0.8576
   47MOL0     C 6266   6.130   3.821   3.742 -0.5281 -0.0252 -0.1033
   47MOL0     C 6267   6.255   3.856   3.810  0.5350 -0.2638 -0.3195
   47MOL0     C 6268   6.306   3.786   3.917 -0.1928 -0.3263  0.2725
   47MOL0     O 6269   6.416   3.827   3.988  0.2781 -0.0722 -0.0578
   47MOL0     C 6270   6.400   3.951   4.059  0.0214  0.0917 -0.7217
   47MOL0     C 6271   6.513   3.970   4.155  0.4938  0.1519 -0.0613
   47MOL0     C 6272   6.526   3.852   4.253  0.2980  0.7961  0.6606
   47MOL0     C 6273   6.640   3.852   4.354  0.0112  0.0691 -0.1228
   47MOL0     C 6274   6.634   3.973   4.448  0.1091  0.9914 -0.0431
   47MOL0     C 6275   6.636   4.075   4.513 -1.1081 -0.1884 -0.5090
   47MOL0     C 6276   6.240   3.656   3.946 -0.2634 -0.8861 -1.0982
   47MOL0     C 6277   6.120   3.628   3.878 -0.0238  0.6759  0.2123
   47MOL0     H 6278   5.735   3.554   3.524  2.4146 -5.5222 -0.1090
   47MOL0     H 6279   5.544   3.449   3.486 -0.1103 -0.8598 -0.0308
   47MOL0     H 6280   5.292   3.303   3.844 -2.2567 -0.2606  0.4669
   47MOL0     H 6281   5.240   3.461   3.798  0.4567 -0.9043  1.6307
   47MOL0     H 6282   5.155   3.180   3.698 -0.4938 -1.2094  2.2619
   47MOL0     H 6283   5.047   3.292   3.783 -1.0016  0.4347 -1.3987
   47MOL0     H 6284   5.047   3.449   3.593 -0.3100 -0.4764 -0.1645
   47MOL0     H 6285   5.143   3.346   3.492  0.4352 -0.1843  1.0363
   47MOL0     H 6286   4.986   3.152   3.541  0.6761  0.6034  1.4034
   47MOL0     H 6287   4.883   3.264   3.618 -0.5720  2.4260 -0.7224
   47MOL0     H 6288   4.837   3.390   3.407 -1.6344 -0.2690 -1.2820
   47MOL0     H 6289   4.984   3.316   3.339  2.3317 -1.8254  2.7196
   47MOL0     H 6290   4.806   3.205   3.229 -0.7008 -1.0004 -0.0967
   47MOL0     H 6291   4.866   3.090   3.347 -0.5886 -0.9215  1.6142
   47MOL0     H 6292   4.688   3.131   3.505 -0.2093  2.0644  0.8681
   47MOL0     H 6293   4.632   3.272   3.403  1.1347 -0.1512 -2.1759
   47MOL0     H 6294   4.499   3.067   3.386  0.1218  0.8691  0.0643
   47MOL0     H 6295   4.643   2.987   3.305  0.8207 -0.4143 -0.2046
   47MOL0     H 6296   4.434   3.328   3.274  1.9880  1.6904 -0.2544
   47MOL0     H 6297   4.348   3.476   3.084 -2.2794  0.1225 -1.0802
   47MOL0     H 6298   4.450   3.466   2.945 -0.9352 -1.0146 -0.5687
   47MOL0     H 6299   4.205   3.300   2.982  3.3168 -0.9369  1.0861
   47MOL0     H 6300   4.314   3.308   2.836  1.4801  1.9601 -0.4781
   47MOL0     H 6301   4.218   3.509   2.768  2.6869  0.6722  1.5475
   47MOL0     H 6302   4.190   3.564   2.932  3.0512  0.0831 -0.0878
   47MOL0     H 6303   3.996   3.378   2.936  3.0428 -1.8582 -0.1447
   47MOL0     H 6304   4.041   3.358   2.765  2.9408  0.2541 -0.7515
   47MOL0     H 6305   3.841   3.741   2.785  1.0490 -0.1026 -1.5319
   47MOL0     H 6306   3.512   3.833   2.768  0.2776 -2.3768  0.8947
   47MOL0     H 6307   3.683   3.884   2.769 -1.1226  0.7124  0.9142
   47MOL0     H 6308   3.594   3.853   2.612  0.0640  0.2226  0.2458
   47MOL0     H 6309   3.178   3.614   2.755  0.8917  1.4848 -0.0368
   47MOL0     H 6310   2.942   3.613   2.685  0.2423  0.1814 -1.2772
   47MOL0     H 6311   2.873   3.731   2.275 -0.2722  3.8505  1.9512
   47MOL0     H 6312   2.818   3.577   2.350 -0.7351 -0.1581 -1.5957
   47MOL0     H 6313   2.594   3.660   2.379  0.1823  0.2044  1.6027
   47MOL0     H 6314   2.643   3.831   2.372  0.9011 -0.1289  0.2927
   47MOL0     H 6315   2.635   3.620   2.149 -0.5898 -0.7658  1.7785
   47MOL0     H 6316   2.704   3.776   2.122  0.2648 -0.1141 -0.2973
   47MOL0     H 6317   2.417   3.702   2.088  1.1563 -0.4747  1.5980
   47MOL0     H 6318   2.416   3.790   2.239 -0.7817 -1.1101 -0.3455
   47MOL0     H 6319   2.529   3.853   1.968 -0.3964 -2.6747  0.5686
   47MOL0     H 6320   2.557   3.967   2.108 -1.3013  0.4508  1.0190
   47MOL0     H 6321   2.275   3.905   2.010  0.8907 -0.3386 -2.7252
   47MOL0     H 6322   2.337   4.034   2.115 -2.0028  1.4625 -1.5480
   47MOL0     H 6323   2.373   3.997   1.824  3.5494 -4.5870  1.5231
   47MOL0     H 6324   2.490   4.100   1.915 -0.3797 -0.1860  1.9131
   47MOL0     H 6325   2.314   4.230   1.808  3.4529  0.1056  0.3032
   47MOL0     H 6326   2.304   4.256   1.975 -3.1529  1.6316 -0.9829
   47MOL0     H 6327   3.039   3.856   2.354 -0.7605 -0.3149  0.5317
   47MOL0     H 6328   3.288   3.851   2.414 -0.2499  0.6201 -1.5072
   47MOL0     H 6329   3.568   3.356   2.643 -0.7660  1.8279 -1.9995
   47MOL0     H 6330   3.795   3.320   2.741  4.4957  0.2597 -3.7283
   47MOL0     H 6331   5.460   3.432   3.916 -1.0128  1.3414 -1.0551
   47MOL0     H 6332   5.676   3.533   3.951 -2.7719  1.0264  0.5130
   47MOL0     H 6333   6.081   3.887   3.670  0.5384 -0.7446 -1.5453
   47MOL0     H 6334   6.312   3.946   3.792  0.9016  0.2218  2.7485
   47MOL0     H 6335   6.395   4.030   3.984 -1.9670 -1.2247 -2.0516
   47MOL0     H 6336   6.302   3.953   4.108  0.1186  0.8213 -0.5390
   47MOL0     H 6337   6.504   4.069   4.202 -0.0463 -0.0429  0.2580
   47MOL0     H 6338   6.606   3.966   4.098  0.7746 -1.3434  0.4633
   47MOL0     H 6339   6.539   3.755   4.205 -0.6748 -0.5157  2.9139
   47MOL0     H 6340   6.435   3.846   4.313 -0.7093  1.3231 -0.7437
   47MOL0     H 6341   6.735   3.846   4.302  0.8407 -2.5712  1.5216
   47MOL0     H 6342   6.638   3.760   4.413  1.0824  0.0529 -0.0974
   47MOL0     H 6343   6.654   4.163   4.570  0.8522 -0.1923 -1.0374
   47MOL0     H 6344   6.255   3.590   4.031 -3.7441  0.5487  0.8237
   47MOL0     H 6345   6.065   3.538   3.903  0.2673  0.4374  0.0032
   48MOL0     O 6346   5.175   5.106  10.702 -0.0199  0.8591 -0.7331
   48MOL0     C 6347   5.173   4.986  10.679 -0.1707 -0.4344 -0.2682
   48MOL0     O 6348   5.284   4.916  10.666  0.2327  0.5761 -0.7753
   48MOL0     C 6349   5.403   4.977  10.646  0.3012 -0.1954  0.2660
   48MOL0     C 6350   5.421   5.064  10.539  0.8452  0.3966  0.1162
   48MOL0     C 6351   5.542   5.112  10.509 -0.9305 -0.1585  0.8391
   48MOL0     C 6352   5.659   5.079  10.585  0.2119  0.9671  0.1003
   48MOL0     O 6353   5.780   5.134  10.557 -0.0310 -0.4759 -0.3984
   48MOL0     C 6354   5.818   5.195  10.434  1.0902  0.4322 -0.3149
   48MOL0     C 6355   5.832   5.084  10.319 -0.3269 -0.9759 -0.1167
   48MOL0     C 6356   5.936   5.120  10.225 -0.0278  0.2268  0.4001
   48MOL0     C 6357   5.965   4.996  10.137 -0.0802 -0.4259 -0.0389
   48MOL0     C 6358   6.062   5.028  10.027  0.3273  0.6781  1.0115
   48MOL0     C 6359   6.029   5.140   9.922 -0.0605  0.6526 -0.1254
   48MOL0     C 6360   6.151   5.180   9.838  0.1761  0.6364  0.3909
   48MOL0     C 6361   6.110   5.249   9.710  0.0001  0.0666 -0.8368
   48MOL0     N 6362   6.035   5.368   9.742  0.7056 -0.0667  0.0734
   48MOL0     C 6363   5.909   5.397   9.689 -0.0987 -0.2842 -0.1658
   48MOL0     C 6364   5.872   5.515   9.744  0.4528 -0.1311 -0.0245
   48MOL0     C 6365   5.742   5.585   9.731  0.1100  0.3068 -0.0136
   48MOL0     C 6366   5.643   5.550   9.844 -0.5946 -0.2227  0.0458
   48MOL0     C 6367   5.509   5.616   9.821  0.5716  0.7753  0.2248
   48MOL0     C 6368   5.408   5.564   9.919  1.1861 -0.4175 -0.1272
   48MOL0     O 6369   5.315   5.673   9.948 -0.1239  0.7162 -0.5264
   48MOL0     C 6370   5.192   5.632   9.996 -0.8704 -0.5798 -0.6383
   48MOL0     C 6371   5.172   5.505  10.057  0.0437  0.3448 -0.5837
   48MOL0     C 6372   5.043   5.459  10.089 -0.0512  0.4618 -0.5348
   48MOL0     C 6373   5.025   5.319  10.131  0.8399 -0.2953 -0.3190
   48MOL0     C 6374   4.937   5.558  10.068  0.1642  0.3439  0.3037
   48MOL0     C 6375   4.792   5.541  10.085  1.1574  0.5797 -0.2695
   48MOL0     O 6376   4.737   5.418  10.051 -0.4730 -0.0233 -0.2024
   48MOL0     C 6377   4.604   5.392  10.070  0.7524  0.0739  0.0008
   48MOL0     C 6378   4.509   5.486  10.034  0.0738  0.1732  0.6470
   48MOL0     C 6379   4.381   5.471  10.068  0.6706 -0.1380 -0.4877
   48MOL0     C 6380   4.336   5.352  10.131  0.1757  0.8983  0.9933
   48MOL0     O 6381   4.203   5.327  10.169 -0.3271 -0.0173  0.4706
   48MOL0     C 6382   4.106   5.423  10.132 -0.1800  0.3519  0.3721
   48MOL0     C 6383   3.976   5.374  10.194  0.5425 -0.1793 -0.0807
   48MOL0     C 6384   3.872   5.489  10.181 -0.3117 -0.5978  0.6989
   48MOL0     C 6385   3.734   5.445  10.219 -1.0940 -0.2071 -0.8780
   48MOL0     C 6386   3.635   5.564  10.195  0.0369 -0.1687  0.6761
   48MOL0     C 6387   3.505   5.549  10.256 -0.2907  0.0428  0.2078
   48MOL0     C 6388   3.412   5.666  10.229  0.4915  1.0312 -0.5492
   48MOL0     C 6389   3.284   5.645  10.318  0.3558 -0.6999 -0.3704
   48MOL0    Cl 6390   3.172   5.770  10.279 -0.6420 -0.3974 -0.1691
   48MOL0     C 6391   4.428   5.247  10.160 -0.1246 -0.2869 -0.4603
   48MOL0     C 6392   4.562   5.265  10.126  0.3425  0.2346 -0.3260
   48MOL0     O 6393   4.733   5.628  10.144  0.5372 -0.5402 -0.1446
   48MOL0     C 6394   4.966   5.683  10.016  0.2756 -0.3593 -0.4789
   48MOL0     C 6395   5.090   5.723   9.983  0.1978  0.3024  0.0530
   48MOL0     N 6396   5.977   5.554   9.829  0.1855 -0.0887  0.7206
   48MOL0     N 6397   6.076   5.471   9.823 -0.5254 -1.5225  0.1686
   48MOL0     C 6398   5.641   4.990  10.690  0.0616  0.6695  0.5177
   48MOL0     C 6399   5.509   4.945  10.726 -0.9898 -0.0646  0.5679
   48MOL0     C 6400   5.046   4.911  10.690 -0.9258 -0.5109  0.2241
   48MOL0     C 6401   4.931   4.971  10.739 -0.4162 -0.3682  0.8124
   48MOL0     C 6402   4.815   4.896  10.741 -0.1565  0.7117  0.1682
   48MOL0     C 6403   4.803   4.759  10.720  0.0037 -0.4427  0.3238
   48MOL0     O 6404   4.687   4.689  10.749 -0.3232  0.6503 -0.4918
   48MOL0     C 6405   4.596   4.741  10.846 -0.3017 -0.7429  0.4505
   48MOL0     C 6406   4.471   4.668  10.859 -0.1077 -0.1211  0.2074
   48MOL0     C 6407   4.354   4.754  10.921 -0.0399 -0.2325  0.5440
   48MOL0     C 6408   4.238   4.665  10.969  0.5005 -0.2634  0.5725
   48MOL0     C 6409   4.109   4.746  10.978  0.1862  0.4753  0.6407
   48MOL0     C 6410   4.004   4.802  10.977  0.3810 -0.1166 -0.1396
   48MOL0     C 6411   4.922   4.701  10.676 -1.4146 -0.1835 -0.6974
   48MOL0     C 6412   5.037   4.772  10.653  0.2530 -0.9297  0.5575
   48MOL0     H 6413   5.340   5.080  10.468  0.0927  0.3098  0.9253
   48MOL0     H 6414   5.555   5.177  10.423  0.3253 -3.5304 -1.7486
   48MOL0     H 6415   5.771   5.288  10.402 -1.9043 -1.5883 -2.3188
   48MOL0     H 6416   5.918   5.231  10.460  2.2119  0.2347 -3.8826
   48MOL0     H 6417   5.849   4.987  10.366  0.8459 -1.1608 -0.8861
   48MOL0     H 6418   5.743   5.079  10.255  0.5100  2.0926 -1.6991
   48MOL0     H 6419   5.903   5.199  10.158 -1.2264 -0.3221  0.3187
   48MOL0     H 6420   6.026   5.149  10.281 -0.2276 -0.7834  1.2899
   48MOL0     H 6421   6.013   4.915  10.194  1.6377  0.9989  0.6155
   48MOL0     H 6422   5.872   4.965  10.087 -0.5244 -1.1804  1.1942
   48MOL0     H 6423   6.152   5.060  10.080  2.1681 -2.3284 -0.0302
   48MOL0     H 6424   6.094   4.941   9.967 -1.5590 -0.2773  1.3328
   48MOL0     H 6425   5.962   5.101   9.844  0.2021  1.2779 -0.6725
   48MOL0     H 6426   5.975   5.215   9.980 -0.6096 -0.8671  1.4202
   48MOL0     H 6427   6.221   5.241   9.896 -2.0116  1.4761  2.3406
   48MOL0     H 6428   6.194   5.086   9.803 -2.5504 -0.5151 -0.1194
   48MOL0     H 6429   6.043   5.186   9.651 -0.5673  0.8743 -1.0710
   48MOL0     H 6430   6.190   5.265   9.637  1.7103 -1.8305  0.4969
   48MOL0     H 6431   5.849   5.336   9.622  0.5111  0.1115 -1.0880
   48MOL0     H 6432   5.758   5.692   9.719 -1.7528  0.7027  0.7333
   48MOL0     H 6433   5.698   5.539   9.642  0.8396  0.2944 -0.3763
   48MOL0     H 6434   5.680   5.590   9.939  0.1760 -1.4049  0.2648
   48MOL0     H 6435   5.638   5.441   9.854  1.1479 -0.5887 -2.1272
   48MOL0     H 6436   5.471   5.593   9.721  1.4616 -0.4728  0.1494
   48MOL0     H 6437   5.525   5.724   9.823  1.2540  0.8333 -2.9101
   48MOL0     H 6438   5.446   5.539  10.019 -0.5173  0.9223  0.9087
   48MOL0     H 6439   5.373   5.469   9.877  1.4551 -0.6655  0.2039
   48MOL0     H 6440   5.249   5.429  10.069 -1.0064 -0.5675  0.6467
   48MOL0     H 6441   5.019   5.329  10.240  0.4208  0.2932 -0.3884
   48MOL0     H 6442   4.928   5.283  10.095  0.0167  2.1788 -0.7527
   48MOL0     H 6443   5.108   5.255  10.099  0.2793 -0.3029 -1.8095
   48MOL0     H 6444   4.525   5.582   9.986 -0.5700  1.9765  3.6894
   48MOL0     H 6445   4.312   5.548  10.035  2.5467  0.6059 -2.9722
   48MOL0     H 6446   4.127   5.518  10.182  2.5225  0.5341 -0.9327
   48MOL0     H 6447   4.094   5.431  10.024  2.5578 -0.5896 -0.0663
   48MOL0     H 6448   3.926   5.288  10.149  0.5166 -2.0528  3.1693
   48MOL0     H 6449   3.991   5.346  10.299 -0.2494 -1.6515 -0.3398
   48MOL0     H 6450   3.863   5.518  10.075  0.2589 -2.0137  0.2391
   48MOL0     H 6451   3.918   5.569  10.239 -2.6937 -0.2537  2.2261
   48MOL0     H 6452   3.705   5.349  10.175 -1.2713  0.7828 -3.0122
   48MOL0     H 6453   3.749   5.422  10.326  1.5592 -2.3506 -1.5827
   48MOL0     H 6454   3.619   5.567  10.086 -0.0383 -1.1849  0.6487
   48MOL0     H 6455   3.683   5.660  10.217 -0.8568  1.0423 -2.1906
   48MOL0     H 6456   3.460   5.455  10.222  0.1052  0.3797 -1.3294
   48MOL0     H 6457   3.515   5.535  10.364 -3.1240 -2.8571  0.2464
   48MOL0     H 6458   3.381   5.666  10.124  0.6526 -3.0640 -0.7775
   48MOL0     H 6459   3.461   5.762  10.250 -2.8659  3.7723 -3.8580
   48MOL0     H 6460   3.299   5.661  10.425 -2.4139  3.7851 -0.3928
   48MOL0     H 6461   3.236   5.549  10.296  0.2151 -0.5968 -0.5199
   48MOL0     H 6462   4.399   5.150  10.200  0.3785  0.5722  2.1924
   48MOL0     H 6463   4.634   5.188  10.153 -1.6193 -0.7657  2.4495
   48MOL0     H 6464   4.897   5.756   9.975  2.3253  0.5413 -2.5631
   48MOL0     H 6465   5.107   5.820   9.938  1.6775  0.4827  0.9503
   48MOL0     H 6466   5.719   4.950  10.754  0.7658  0.4427 -0.4657
   48MOL0     H 6467   5.500   4.879  10.812 -1.9764  0.1549  0.6435
   48MOL0     H 6468   4.930   5.079  10.746 -1.5737 -0.4563  2.3385
   48MOL0     H 6469   4.725   4.950  10.770  0.7319  1.7256  1.1002
   48MOL0     H 6470   4.643   4.765  10.942 -3.0278  0.0248  1.7073
   48MOL0     H 6471   4.560   4.833  10.799  0.8661 -0.2364  0.5145
   48MOL0     H 6472   4.495   4.583  10.923  0.6266 -0.8744 -1.0314
   48MOL0     H 6473   4.433   4.631  10.764  1.5717  0.2657 -0.6605
   48MOL0     H 6474   4.312   4.829  10.854  1.8677  0.8904  0.5328
   48MOL0     H 6475   4.400   4.812  11.002 -3.1201  3.6633 -0.2003
   48MOL0     H 6476   4.262   4.630  11.070 -0.5085  1.5360  1.4754
   48MOL0     H 6477   4.229   4.577  10.905 -0.0914 -0.4799  0.9441
   48MOL0     H 6478   3.911   4.855  10.978  0.3243 -0.1931  1.4819
   48MOL0     H 6479   4.917   4.601  10.635 -1.4186  0.5148 -2.5014
   48MOL0     H 6480   5.131   4.736  10.613 -0.0004  0.8534 -1.8309
   49MOL0     O 6481   8.543   2.212   1.028  0.0573 -0.4351 -0.1220
   49MOL0     C 6482   8.623   2.224   0.935  0.8569  0.0449 -0.0696
   49MOL0     O 6483   8.751   2.182   0.929 -0.3496  0.7680 -0.4746
   49MOL0     C 6484   8.806   2.096   1.032  0.3985  0.0797  0.6091
   49MOL0     C 6485   8.888   1.989   0.991 -0.0675 -0.3497  0.0864
   49MOL0     C 6486   8.974   1.930   1.086  0.2018 -0.3908  0.5761
   49MOL0     C 6487   8.963   1.970   1.219  0.1095 -0.3190  0.5053
   49MOL0     O 6488   9.035   1.920   1.320  0.0248  0.8794  0.5833
   49MOL0     C 6489   9.094   1.787   1.305  0.1679  0.0836 -0.2808
   49MOL0     C 6490   9.122   1.741   1.448 -0.1893  0.7070 -0.3518
   49MOL0     C 6491   9.000   1.689   1.525 -0.3927 -0.5912  0.3830
   49MOL0     C 6492   8.903   1.795   1.571  0.1805 -0.2722 -0.4265
   49MOL0     C 6493   8.781   1.732   1.644 -0.1222  0.1717 -0.2422
   49MOL0     C 6494   8.704   1.857   1.697  1.0183  0.8814 -0.2585
   49MOL0     C 6495   8.567   1.809   1.746 -0.2907  0.3294 -0.6646
   49MOL0     C 6496   8.458   1.760   1.644 -0.9328  0.8495 -0.4178
   49MOL0     N 6497   8.325   1.771   1.697  0.0821  0.2960  0.6435
   49MOL0     C 6498   8.266   1.711   1.807  0.6912 -0.2102 -0.2193
   49MOL0     C 6499   8.138   1.753   1.807  0.4741  0.8236  0.7997
   49MOL0     C 6500   8.027   1.701   1.890 -0.2436  0.1817  0.2824
   49MOL0     C 6501   7.908   1.798   1.907 -0.3915 -0.1052 -0.5570
   49MOL0     C 6502   7.800   1.732   1.987 -0.1197  0.3023  0.0746
   49MOL0     C 6503   7.666   1.811   1.974 -0.2764 -0.6915 -0.8121
   49MOL0     O 6504   7.557   1.735   2.031 -0.1092 -0.1149 -0.0690
   49MOL0     C 6505   7.446   1.814   2.048 -1.7789 -0.4647  1.1537
   49MOL0     C 6506   7.421   1.936   1.983 -0.0723 -0.4342  0.1130
   49MOL0     C 6507   7.306   2.014   1.993  0.1739  0.0579  0.6959
   49MOL0     C 6508   7.311   2.145   1.917  0.0191  0.4939 -0.2371
   49MOL0     C 6509   7.209   1.961   2.080 -0.2759 -0.2909 -0.5979
   49MOL0     C 6510   7.088   2.049   2.097 -0.0415  0.5601  0.5967
   49MOL0     O 6511   7.043   2.127   1.997  0.8386  0.5722 -0.3548
   49MOL0     C 6512   6.924   2.199   2.016  0.9884 -0.7928  0.2375
   49MOL0     C 6513   6.923   2.339   2.012  0.1219 -0.2008 -0.1627
   49MOL0     C 6514   6.811   2.412   2.049  0.8665  0.4959 -0.7536
   49MOL0     C 6515   6.686   2.355   2.079 -0.0089 -0.2140  0.1228
   49MOL0     O 6516   6.567   2.424   2.107 -0.6125 -0.1648 -0.6115
   49MOL0     C 6517   6.533   2.535   2.013  0.4604 -0.0259  0.3913
   49MOL0     C 6518   6.394   2.520   1.948  0.8878  0.1685 -0.2097
   49MOL0     C 6519   6.279   2.490   2.042 -0.2970 -0.7439  0.2209
   49MOL0     C 6520   6.139   2.487   1.975 -0.9677 -0.5770  0.0542
   49MOL0     C 6521   6.032   2.441   2.079  0.4671  0.5169 -0.1797
   49MOL0     C 6522   5.890   2.472   2.025 -0.4585  0.1881 -0.4286
   49MOL0     C 6523   5.788   2.378   2.093  0.7063 -0.0375  0.4947
   49MOL0     C 6524   5.652   2.392   2.017 -0.5476 -0.9982 -0.0723
   49MOL0    Cl 6525   5.592   2.556   2.053  0.3639 -0.1101  0.6945
   49MOL0     C 6526   6.687   2.216   2.094  0.6146 -0.8081 -0.7823
   49MOL0     C 6527   6.802   2.134   2.063  0.6558  0.3079  0.8083
   49MOL0     O 6528   7.036   2.041   2.204  0.1900  0.7377  0.0587
   49MOL0     C 6529   7.232   1.846   2.154 -0.2433 -0.5327  0.9211
   49MOL0     C 6530   7.350   1.771   2.135  0.0100  1.0583  0.1506
   49MOL0     N 6531   8.122   1.826   1.687  0.3104 -0.1960 -1.2706
   49MOL0     N 6532   8.231   1.843   1.627 -0.6761  0.0603  0.1358
   49MOL0     C 6533   8.869   2.065   1.261  0.1630 -0.4606 -0.1336
   49MOL0     C 6534   8.795   2.134   1.167  0.4426 -0.2477  0.3352
   49MOL0     C 6535   8.593   2.307   0.812 -0.6056 -0.0804  0.5524
   49MOL0     C 6536   8.467   2.367   0.789 -0.3684  0.8444  0.2695
   49MOL0     C 6537   8.452   2.447   0.677 -0.3427  0.2674  0.2146
   49MOL0     C 6538   8.553   2.477   0.588 -0.6476  0.3892 -0.5077
   49MOL0     O 6539   8.536   2.547   0.467 -0.1129  0.7944  0.6949
   49MOL0     C 6540   8.406   2.609   0.447  0.3078 -0.5062  0.5423
   49MOL0     C 6541   8.419   2.697   0.321  0.2048  0.4711  0.6576
   49MOL0     C 6542   8.376   2.634   0.190 -0.5335  0.3134 -0.3092
   49MOL0     C 6543   8.225   2.662   0.156 -0.4067  0.0791 -0.3238
   49MOL0     C 6544   8.128   2.607   0.253  0.6506  0.2323 -0.8016
   49MOL0     C 6545   8.049   2.558   0.336  0.5119 -0.6864  0.6280
   49MOL0     C 6546   8.678   2.433   0.617 -1.1665  0.7413  0.1304
   49MOL0     C 6547   8.698   2.344   0.724 -0.4758 -1.0465  0.4259
   49MOL0     H 6548   8.899   1.959   0.887  2.5072 -3.8184  1.1627
   49MOL0     H 6549   9.055   1.867   1.050 -1.1341 -0.3301 -2.9432
   49MOL0     H 6550   9.029   1.712   1.258 -1.8821  2.1708 -0.9861
   49MOL0     H 6551   9.186   1.785   1.247  1.9612  0.0157  2.4176
   49MOL0     H 6552   9.202   1.666   1.441  2.6612  3.5903 -1.4242
   49MOL0     H 6553   9.153   1.830   1.504 -1.6805  1.5416 -0.7863
   49MOL0     H 6554   8.946   1.606   1.479 -1.4815 -0.2191  0.9664
   49MOL0     H 6555   9.042   1.648   1.617  2.6103  2.1541  0.4311
   49MOL0     H 6556   8.954   1.871   1.630 -0.3739  1.9619 -2.6831
   49MOL0     H 6557   8.859   1.850   1.487  2.2952  1.1450 -0.6889
   49MOL0     H 6558   8.718   1.671   1.578 -1.2337 -1.2240  1.9630
   49MOL0     H 6559   8.819   1.666   1.723  2.5337  1.2598 -0.5077
   49MOL0     H 6560   8.755   1.902   1.783 -1.3164  0.9098  1.1798
   49MOL0     H 6561   8.694   1.927   1.614 -3.5847 -1.6136 -2.1586
   49MOL0     H 6562   8.591   1.727   1.814 -1.9382  1.1917  1.0634
   49MOL0     H 6563   8.519   1.889   1.803 -1.6894 -0.2439 -0.9972
   49MOL0     H 6564   8.476   1.654   1.623 -3.7337  0.3672 -0.8002
   49MOL0     H 6565   8.465   1.818   1.552  0.3951  1.7968  0.2504
   49MOL0     H 6566   8.306   1.645   1.883 -0.4025 -0.8271 -0.1660
   49MOL0     H 6567   7.992   1.612   1.837  2.2956 -1.1192  0.6254
   49MOL0     H 6568   8.068   1.668   1.986 -1.4274 -0.5011  0.5804
   49MOL0     H 6569   7.865   1.826   1.811 -0.7276 -0.1611 -0.4250
   49MOL0     H 6570   7.938   1.890   1.959  0.6679 -1.2020  0.8669
   49MOL0     H 6571   7.844   1.722   2.087  2.6287  0.4353 -1.0402
   49MOL0     H 6572   7.787   1.629   1.953  0.3598 -0.5990  2.4249
   49MOL0     H 6573   7.647   1.849   1.874 -1.6730  1.4462  0.1968
   49MOL0     H 6574   7.671   1.896   2.042  1.7702 -1.6863  0.3978
   49MOL0     H 6575   7.481   1.970   1.900 -0.1840 -0.4284  0.0344
   49MOL0     H 6576   7.280   2.222   1.989  0.1944  2.4807 -2.2068
   49MOL0     H 6577   7.413   2.167   1.886 -0.4424  1.9191 -0.8457
   49MOL0     H 6578   7.239   2.148   1.835 -1.8981 -0.5540  1.3052
   49MOL0     H 6579   7.012   2.396   1.987 -1.8326  3.1853  0.1371
   49MOL0     H 6580   6.833   2.518   2.054 -1.6482  1.0610 -0.0260
   49MOL0     H 6581   6.519   2.624   2.074 -0.9591 -0.3562  0.5771
   49MOL0     H 6582   6.611   2.546   1.937 -0.9192  0.3513 -1.0326
   49MOL0     H 6583   6.368   2.611   1.893  1.4760  0.2359 -0.3862
   49MOL0     H 6584   6.409   2.446   1.869  0.4753 -2.3137  1.8803
   49MOL0     H 6585   6.282   2.564   2.122 -0.6193  0.8898 -1.2155
   49MOL0     H 6586   6.296   2.386   2.070 -0.7361 -0.8683  0.0159
   49MOL0     H 6587   6.109   2.590   1.952  2.3476 -0.0547 -2.8613
   49MOL0     H 6588   6.142   2.437   1.878  3.2591 -1.8376  0.6294
   49MOL0     H 6589   6.049   2.493   2.175  2.0132  1.1522 -0.7691
   49MOL0     H 6590   6.047   2.335   2.100 -3.9082  0.2079  2.7135
   49MOL0     H 6591   5.871   2.577   2.049 -0.0962 -0.5203  3.7904
   49MOL0     H 6592   5.893   2.433   1.923 -2.9000  0.3919 -0.6360
   49MOL0     H 6593   5.772   2.399   2.199  2.4805 -0.7531  0.9503
   49MOL0     H 6594   5.830   2.278   2.105  2.6499  0.9857  3.3519
   49MOL0     H 6595   5.597   2.316   2.074 -0.7374 -0.0614  1.0205
   49MOL0     H 6596   5.669   2.352   1.916  0.2665 -3.2436  0.8971
   49MOL0     H 6597   6.593   2.180   2.134  0.9318  0.3708  1.1805
   49MOL0     H 6598   6.808   2.026   2.076  1.8896  0.4836  1.8512
   49MOL0     H 6599   7.143   1.819   2.210 -2.3021  1.4802 -1.1861
   49MOL0     H 6600   7.373   1.675   2.179  2.2394  1.9593  1.0878
   49MOL0     H 6601   8.875   2.103   1.362  2.8248 -1.0362  0.0083
   49MOL0     H 6602   8.745   2.223   1.205  1.4543  0.0472  1.0262
   49MOL0     H 6603   8.388   2.347   0.861 -2.3376 -1.7559 -2.3645
   49MOL0     H 6604   8.357   2.493   0.655 -0.1491 -0.4844 -2.5437
   49MOL0     H 6605   8.333   2.529   0.431 -1.0644  0.6248  0.9377
   49MOL0     H 6606   8.381   2.668   0.535  0.6005 -1.8275  1.5497
   49MOL0     H 6607   8.524   2.728   0.321  0.7804 -1.3094 -0.0507
   49MOL0     H 6608   8.350   2.780   0.335 -3.9365 -2.8172  1.6158
   49MOL0     H 6609   8.380   2.525   0.189 -0.6189  0.3151 -0.7618
   49MOL0     H 6610   8.446   2.671   0.115 -1.3682  0.6192 -0.9437
   49MOL0     H 6611   8.187   2.611   0.067 -0.6586 -2.7335  1.2677
   49MOL0     H 6612   8.203   2.768   0.138 -0.6094 -0.0866 -1.0972
   49MOL0     H 6613   7.994   2.524   0.421 -1.6844  2.0657  0.4787
   49MOL0     H 6614   8.759   2.464   0.552  0.8368 -0.1158  2.0845
   49MOL0     H 6615   8.802   2.315   0.739 -1.1273 -2.3236  3.1754
   50MOL0     O 6616   9.904   9.449   3.555 -0.4371 -0.1502  0.4812
   50MOL0     C 6617   9.918   9.524   3.652 -0.1505 -0.6720 -0.4803
   50MOL0     O 6618   9.814   9.551   3.739  0.2144  0.1549 -0.0672
   50MOL0     C 6619   9.692   9.485   3.708 -0.3591 -0.4541 -0.0391
   50MOL0     C 6620   9.668   9.345   3.709 -0.2177 -0.2081 -0.2437
   50MOL0     C 6621   9.538   9.308   3.663  0.0318  0.5460  0.4623
   50MOL0     C 6622   9.432   9.397   3.637  0.7017  1.3221 -0.0953
   50MOL0     O 6623   9.300   9.356   3.602  0.0475 -0.1264 -0.0577
   50MOL0     C 6624   9.244   9.229   3.646  0.3313  0.2279  0.0318
   50MOL0     C 6625   9.093   9.226   3.621  0.2212  0.4870  0.5195
   50MOL0     C 6626   9.057   9.215   3.465 -0.5665 -0.7890 -0.2229
   50MOL0     C 6627   8.908   9.188   3.436  0.4038 -0.2129 -0.1170
   50MOL0     C 6628   8.880   9.197   3.282 -0.6795  0.6459 -0.4911
   50MOL0     C 6629   8.732   9.186   3.257 -0.1791 -0.4673  0.7738
   50MOL0     C 6630   8.697   9.123   3.117  0.2570  0.5218  1.2023
   50MOL0     C 6631   8.556   9.162   3.070  0.0038  0.3378 -0.6721
   50MOL0     N 6632   8.449   9.095   3.147 -0.2924  0.5927 -0.4414
   50MOL0     C 6633   8.330   9.051   3.086 -0.8310  0.5258 -0.1697
   50MOL0     C 6634   8.272   8.973   3.179  0.0120  0.0754  0.2406
   50MOL0     C 6635   8.150   8.896   3.148 -0.9810  0.8235  0.6139
   50MOL0     C 6636   8.022   8.929   3.224 -0.7703  0.2862 -0.0217
   50MOL0     C 6637   7.918   8.820   3.202  0.2824  0.6396 -0.4256
   50MOL0     C 6638   7.784   8.847   3.276 -0.5692  0.0488 -0.8328
   50MOL0     O 6639   7.701   8.941   3.210 -0.0525 -0.1857  0.0905
   50MOL0     C 6640   7.627   8.889   3.108  0.4487  0.4658 -1.6956
   50MOL0     C 6641   7.568   8.987   3.033 -0.2099  0.3055  0.6818
   50MOL0     C 6642   7.486   8.969   2.919  0.2493  0.7701 -0.1540
   50MOL0     C 6643   7.439   9.088   2.851 -0.4331 -0.1225  0.1762
   50MOL0     C 6644   7.449   8.840   2.886  0.3612 -0.1304  0.7466
   50MOL0     C 6645   7.356   8.800   2.771  0.1570 -0.0445 -0.1357
   50MOL0     O 6646   7.316   8.661   2.780  0.0176 -0.3842  0.4008
   50MOL0     C 6647   7.218   8.630   2.691  0.1845 -0.5858  0.4825
   50MOL0     C 6648   7.257   8.549   2.576 -0.1259 -0.1421 -0.2305
   50MOL0     C 6649   7.149   8.495   2.496  0.9463  0.0144 -0.2009
   50MOL0     C 6650   7.020   8.541   2.511  0.6769 -0.2769 -0.7651
   50MOL0     O 6651   6.919   8.494   2.427 -0.0917  0.0293 -0.1420
   50MOL0     C 6652   6.911   8.573   2.305  0.8772 -0.2329  0.2937
   50MOL0     C 6653   6.813   8.494   2.213  0.5279 -0.0297  0.2400
   50MOL0     C 6654   6.794   8.569   2.077 -0.5952  0.3183 -0.2805
   50MOL0     C 6655   6.749   8.476   1.976  0.0752 -0.0678  0.1265
   50MOL0     C 6656   6.595   8.478   1.960  0.1685 -0.2307  0.5899
   50MOL0     C 6657   6.532   8.602   1.897  0.1066 -0.2085  0.1902
   50MOL0     C 6658   6.378   8.587   1.875  0.8356  0.3766 -0.1284
   50MOL0     C 6659   6.298   8.560   2.001 -0.3108 -0.2139 -0.2419
   50MOL0    Cl 6660   6.131   8.574   1.958  0.0436  0.0467 -0.1170
   50MOL0     C 6661   6.986   8.624   2.622  0.2232  0.6676  0.4466
   50MOL0     C 6662   7.085   8.668   2.709 -0.1973  0.1608 -0.3282
   50MOL0     O 6663   7.342   8.871   2.668 -0.1460 -0.0081 -0.6761
   50MOL0     C 6664   7.506   8.739   2.961  0.5629  0.2575  0.2159
   50MOL0     C 6665   7.599   8.756   3.069  1.0278  0.4458 -1.1963
   50MOL0     N 6666   8.340   8.977   3.301 -0.9201 -0.5200 -0.2675
   50MOL0     N 6667   8.453   9.040   3.278  1.1750  0.2646  0.0479
   50MOL0     C 6668   9.458   9.530   3.651  0.3145 -0.0024  1.9978
   50MOL0     C 6669   9.588   9.580   3.679  0.7045  0.2793 -0.1110
   50MOL0     C 6670  10.051   9.588   3.686 -0.4761  0.3148 -0.5090
   50MOL0     C 6671  10.169   9.528   3.647 -0.5241 -1.1008 -0.2221
   50MOL0     C 6672  10.290   9.600   3.670  0.0780 -0.1839  0.0513
   50MOL0     C 6673  10.297   9.713   3.739 -0.5914 -0.8643  0.1954
   50MOL0     O 6674  10.424   9.749   3.756  0.0381 -0.2799 -0.1020
   50MOL0     C 6675  10.479   9.711   3.883 -0.0271  0.5617 -0.6011
   50MOL0     C 6676  10.555   9.831   3.920  0.4811  0.3202 -0.0136
   50MOL0     C 6677  10.476   9.958   3.927 -0.4697  0.2054  0.1712
   50MOL0     C 6678  10.361   9.953   4.028  0.5525  1.0921  0.2002
   50MOL0     C 6679  10.416   9.942   4.163  0.4402 -0.5612 -0.1203
   50MOL0     C 6680  10.450   9.943   4.279  0.5343  0.7780  0.4164
   50MOL0     C 6681  10.182   9.779   3.778  1.0184  0.0367 -0.4195
   50MOL0     C 6682  10.055   9.715   3.760  0.4306  0.3457  0.3214
   50MOL0     H 6683   9.733   9.263   3.737 -0.9706 -1.0717 -0.9731
   50MOL0     H 6684   9.511   9.203   3.659  2.6084 -0.2812  2.4425
   50MOL0     H 6685   9.288   9.143   3.594  2.4987 -1.9284  4.8098
   50MOL0     H 6686   9.272   9.207   3.749  1.9962 -0.4443 -0.5175
   50MOL0     H 6687   9.051   9.138   3.669  1.9301 -0.2050  0.8379
   50MOL0     H 6688   9.050   9.315   3.667 -0.1388 -0.6005  2.3908
   50MOL0     H 6689   9.099   9.304   3.418  0.4056 -1.2963 -0.3324
   50MOL0     H 6690   9.113   9.132   3.422 -0.7567 -0.5354 -0.9723
   50MOL0     H 6691   8.889   9.088   3.477 -0.3402  0.5442  1.4861
   50MOL0     H 6692   8.852   9.266   3.490  0.7905 -0.1233  0.1612
   50MOL0     H 6693   8.918   9.288   3.237  1.1579  0.0576 -0.2128
   50MOL0     H 6694   8.933   9.117   3.229  1.2613  2.2645 -1.0982
   50MOL0     H 6695   8.689   9.132   3.341  3.3483 -3.0915  1.1102
   50MOL0     H 6696   8.701   9.291   3.262  0.0804 -0.3823  0.6215
   50MOL0     H 6697   8.771   9.154   3.042 -1.3603  1.1733 -0.1845
   50MOL0     H 6698   8.699   9.015   3.134  2.3124  0.1326 -0.8827
   50MOL0     H 6699   8.544   9.133   2.965 -0.1248 -0.6322 -0.3966
   50MOL0     H 6700   8.546   9.271   3.078  0.6407  0.4460 -1.2535
   50MOL0     H 6701   8.314   9.065   2.980 -0.3115 -1.5488 -0.5619
   50MOL0     H 6702   8.125   8.889   3.042  2.1385 -3.1510 -0.0954
   50MOL0     H 6703   8.182   8.793   3.167  0.6621  1.0301 -0.7652
   50MOL0     H 6704   7.974   9.025   3.200 -0.0317  1.3057  2.3602
   50MOL0     H 6705   8.041   8.957   3.328 -0.4905  1.7776 -0.4485
   50MOL0     H 6706   7.960   8.732   3.252 -2.6160  0.8449  2.6492
   50MOL0     H 6707   7.901   8.794   3.096 -0.5078  1.7867 -0.5934
   50MOL0     H 6708   7.800   8.880   3.380 -1.0320 -1.3727 -0.2806
   50MOL0     H 6709   7.745   8.746   3.288  1.0091 -0.4235  0.7178
   50MOL0     H 6710   7.582   9.093   3.049  1.3966  0.8726 -3.3610
   50MOL0     H 6711   7.493   9.089   2.756 -1.7112  0.0827 -0.5712
   50MOL0     H 6712   7.332   9.078   2.829 -0.1518  0.2353 -1.5010
   50MOL0     H 6713   7.470   9.176   2.908  1.9016 -2.1968  2.3641
   50MOL0     H 6714   7.359   8.516   2.561  0.1555  0.1724  0.8469
   50MOL0     H 6715   7.161   8.427   2.412 -1.5012 -0.2889 -0.3877
   50MOL0     H 6716   6.880   8.675   2.332  0.7913 -0.3654  0.7003
   50MOL0     H 6717   7.007   8.583   2.253 -0.4265 -1.5333 -2.5938
   50MOL0     H 6718   6.856   8.396   2.189 -1.6022 -1.2716  1.1388
   50MOL0     H 6719   6.712   8.481   2.253 -0.0019  0.4884 -0.8933
   50MOL0     H 6720   6.885   8.623   2.050 -3.0281  4.8264 -0.3338
   50MOL0     H 6721   6.715   8.643   2.095 -1.6280 -1.0079  0.8368
   50MOL0     H 6722   6.792   8.490   1.877 -2.1284  3.0582 -0.5270
   50MOL0     H 6723   6.769   8.373   2.008  0.8343  0.3711  1.1220
   50MOL0     H 6724   6.537   8.463   2.052 -0.5469 -1.2120 -0.0033
   50MOL0     H 6725   6.571   8.397   1.891  1.0536  0.2421 -0.2916
   50MOL0     H 6726   6.556   8.688   1.960  0.0188 -1.0956  1.4728
   50MOL0     H 6727   6.585   8.618   1.803  2.6024 -1.9449  1.1803
   50MOL0     H 6728   6.361   8.507   1.802  0.4957  0.0170  0.3308
   50MOL0     H 6729   6.342   8.683   1.837  2.8164  0.4215 -2.1003
   50MOL0     H 6730   6.310   8.634   2.080 -1.4814 -0.5836  0.3032
   50MOL0     H 6731   6.324   8.462   2.041 -2.6001 -0.0232  1.9635
   50MOL0     H 6732   6.884   8.658   2.639  0.5066  0.9748  1.6372
   50MOL0     H 6733   7.062   8.719   2.802  1.5635 -1.6809  1.2126
   50MOL0     H 6734   7.499   8.635   2.928  1.0338  0.1498  0.4480
   50MOL0     H 6735   7.654   8.674   3.111  0.6738  1.0907  0.6010
   50MOL0     H 6736   9.371   9.590   3.628  1.4241  1.1613  0.6101
   50MOL0     H 6737   9.605   9.687   3.675 -3.4327  1.1370  0.7045
   50MOL0     H 6738  10.177   9.440   3.584  1.3823  1.3853 -3.7517
   50MOL0     H 6739  10.387   9.558   3.643 -0.0341 -0.1989 -0.3234
   50MOL0     H 6740  10.401   9.676   3.951  0.1550  1.0383 -0.1423
   50MOL0     H 6741  10.549   9.627   3.875  0.4746  0.8676  0.3733
   50MOL0     H 6742  10.631   9.846   3.843  1.4357 -1.5194  0.5133
   50MOL0     H 6743  10.611   9.811   4.012  3.0040 -0.4509 -1.5965
   50MOL0     H 6744  10.432   9.983   3.830  0.5256  0.4554 -0.2358
   50MOL0     H 6745  10.541  10.040   3.959  1.5495 -1.4236  0.4468
   50MOL0     H 6746  10.289   9.871   4.021  2.7626 -1.0546  0.9578
   50MOL0     H 6747  10.297  10.039   4.006 -1.3202 -0.8405 -2.5501
   50MOL0     H 6748  10.482   9.933   4.381  0.7839  0.5416  0.3162
   50MOL0     H 6749  10.185   9.880   3.816  0.9490  0.3654 -1.2605
   50MOL0     H 6750   9.957   9.754   3.788 -0.3143 -1.7689  0.8966
   51MOL0     O 6751   1.759   4.537   8.297  0.1902  0.0710 -0.5802
   51MOL0     C 6752   1.807   4.517   8.410 -0.4396  0.0717 -0.0646
   51MOL0     O 6753   1.753   4.455   8.517 -0.2813 -0.0189  0.5202
   51MOL0     C 6754   1.620   4.420   8.526  0.3583  0.4272 -0.4326
   51MOL0     C 6755   1.567   4.328   8.438  0.0198  0.7374  0.0118
   51MOL0     C 6756   1.437   4.282   8.466  0.4211 -0.1638 -0.7435
   51MOL0     C 6757   1.359   4.342   8.566  0.4830  0.5714  0.5731
   51MOL0     O 6758   1.223   4.314   8.584 -0.4155  0.3669  0.8629
   51MOL0     C 6759   1.170   4.199   8.514 -0.2104 -0.4579  0.0088
   51MOL0     C 6760   1.045   4.145   8.580 -0.5746 -0.0417  0.3993
   51MOL0     C 6761   0.980   4.033   8.500  0.5750 -0.5964  0.1280
   51MOL0     C 6762   0.833   4.021   8.563  0.1528 -0.2426  0.6048
   51MOL0     C 6763   0.752   3.916   8.478  0.3500 -0.6045 -1.1528
   51MOL0     C 6764   0.617   3.893   8.541  0.9776 -1.6568 -0.7085
   51MOL0     C 6765   0.539   3.803   8.450 -0.5366  0.3996 -0.1236
   51MOL0     C 6766   0.445   3.704   8.526  0.2618 -0.5941  0.3747
   51MOL0     N 6767   0.384   3.605   8.428 -1.5365  0.0296 -0.0822
   51MOL0     C 6768   0.364   3.473   8.448 -0.1369 -0.3808  0.0539
   51MOL0     C 6769   0.291   3.438   8.336  0.6779  0.3858 -0.4310
   51MOL0     C 6770   0.253   3.294   8.306 -0.1443  0.0817 -0.2531
   51MOL0     C 6771   0.099   3.269   8.275  1.5171 -0.4539  0.3937
   51MOL0     C 6772   0.049   3.135   8.333 -0.7080  1.3385 -0.1892
   51MOL0     C 6773  -0.083   3.139   8.385  0.3160 -0.7529 -0.1712
   51MOL0     O 6774  -0.130   3.003   8.381 -0.3093 -0.3754 -0.0870
   51MOL0     C 6775  -0.260   2.991   8.426 -0.0283  0.7214 -0.2997
   51MOL0     C 6776  -0.308   2.857   8.431 -0.0177 -0.2634 -0.2389
   51MOL0     C 6777  -0.429   2.830   8.486  0.1643 -0.2405  0.2031
   51MOL0     C 6778  -0.472   2.687   8.497  0.5310 -0.0347  0.3833
   51MOL0     C 6779  -0.511   2.938   8.538 -0.1440  0.6599  0.7613
   51MOL0     C 6780  -0.640   2.909   8.598  0.6040  0.4435  0.5602
   51MOL0     O 6781  -0.639   2.868   8.725  0.2670  0.0196 -0.7626
   51MOL0     C 6782  -0.750   2.824   8.790  0.8032 -0.5162 -1.0524
   51MOL0     C 6783  -0.802   2.692   8.783  0.0906 -0.4789 -0.3198
   51MOL0     C 6784  -0.909   2.646   8.859  0.4273 -0.3769  0.4263
   51MOL0     C 6785  -0.990   2.739   8.935  0.2184 -0.3884  0.3542
   51MOL0     O 6786  -1.101   2.691   9.000 -0.2505 -0.2520 -0.2185
   51MOL0     C 6787  -1.213   2.783   9.021  0.6044  0.3967  0.3445
   51MOL0     C 6788  -1.342   2.723   9.025  0.5571  0.4866  0.0463
   51MOL0     C 6789  -1.359   2.629   9.139  0.3409 -0.0917 -0.0442
   51MOL0     C 6790  -1.506   2.568   9.141  0.7022 -1.4338 -0.5814
   51MOL0     C 6791  -1.621   2.669   9.177 -0.0099  0.2325  0.6345
   51MOL0     C 6792  -1.758   2.619   9.194  0.0188  0.6262  0.4987
   51MOL0     C 6793  -1.782   2.527   9.311 -0.4701 -0.0087  0.6425
   51MOL0     C 6794  -1.930   2.490   9.317  0.0066  0.5327 -0.6047
   51MOL0    Cl 6795  -1.978   2.376   9.193  0.2283  0.2954 -0.0026
   51MOL0     C 6796  -0.941   2.875   8.941  0.3721 -0.0175  0.5384
   51MOL0     C 6797  -0.820   2.912   8.878  0.2003  0.0813 -0.2601
   51MOL0     O 6798  -0.743   2.944   8.541  0.1026 -0.2178  0.6012
   51MOL0     C 6799  -0.466   3.065   8.520  0.1678 -0.2768  0.5660
   51MOL0     C 6800  -0.343   3.098   8.462 -0.2310  0.0673  0.8049
   51MOL0     N 6801   0.273   3.549   8.256 -0.2123 -0.1147  0.2064
   51MOL0     N 6802   0.329   3.647   8.313 -0.2473 -0.4805 -0.6057
   51MOL0     C 6803   1.412   4.445   8.642 -0.2071 -0.2271  0.7124
   51MOL0     C 6804   1.546   4.479   8.627 -0.8381  0.6757 -0.1491
   51MOL0     C 6805   1.932   4.589   8.440 -0.2554 -0.2982 -0.6044
   51MOL0     C 6806   1.991   4.665   8.342  0.3144  0.8543 -0.0786
   51MOL0     C 6807   2.112   4.726   8.366 -0.8741 -0.2300 -0.3198
   51MOL0     C 6808   2.189   4.716   8.487  0.5825  0.4999  0.6890
   51MOL0     O 6809   2.316   4.766   8.495 -0.0728 -0.2055 -0.4912
   51MOL0     C 6810   2.328   4.845   8.614 -0.0943  0.4497  0.5719
   51MOL0     C 6811   2.477   4.877   8.647  0.5442  0.5431 -0.0825
   51MOL0     C 6812   2.561   4.932   8.530 -1.1521 -0.0860  1.0760
   51MOL0     C 6813   2.506   5.041   8.433 -0.0908 -0.3418  0.5996
   51MOL0     C 6814   2.487   5.171   8.504 -0.1891  0.1992  0.1787
   51MOL0     C 6815   2.461   5.276   8.567 -0.9940  0.4127 -0.1211
   51MOL0     C 6816   2.117   4.642   8.594 -1.2564 -0.2934  0.3305
   51MOL0     C 6817   1.989   4.583   8.572 -0.7843 -0.4096  0.3874
   51MOL0     H 6818   1.628   4.293   8.356 -0.3781 -0.2232  0.1152
   51MOL0     H 6819   1.394   4.199   8.410 -1.7509  1.1046 -1.0603
   51MOL0     H 6820   1.158   4.233   8.411  2.0022  0.5876  0.0396
   51MOL0     H 6821   1.253   4.127   8.515  1.5456  1.3088 -2.9765
   51MOL0     H 6822   1.070   4.118   8.683  1.2149  2.3894  0.6801
   51MOL0     H 6823   0.970   4.224   8.588 -0.9754 -0.3670 -0.0627
   51MOL0     H 6824   0.957   4.077   8.402  0.8341  2.6337  1.3876
   51MOL0     H 6825   1.025   3.934   8.502 -1.6128 -1.6769 -0.8062
   51MOL0     H 6826   0.841   3.994   8.668  0.9080 -0.3061  0.5358
   51MOL0     H 6827   0.785   4.119   8.559  1.0500  0.2017  0.5515
   51MOL0     H 6828   0.748   3.943   8.372 -2.1105 -1.2082 -1.2607
   51MOL0     H 6829   0.805   3.820   8.480 -1.0012 -1.3859  0.5990
   51MOL0     H 6830   0.629   3.848   8.640  1.5831  0.2716  0.1438
   51MOL0     H 6831   0.562   3.986   8.560  3.3905 -0.2491 -0.1162
   51MOL0     H 6832   0.485   3.873   8.385  1.7581  2.0197 -0.3962
   51MOL0     H 6833   0.604   3.742   8.388 -2.0573 -0.5059 -0.8937
   51MOL0     H 6834   0.364   3.762   8.570  0.0694 -0.4128 -0.2122
   51MOL0     H 6835   0.487   3.657   8.615  0.6271 -1.1187 -0.0662
   51MOL0     H 6836   0.407   3.418   8.532  0.3227 -2.0053 -1.1881
   51MOL0     H 6837   0.312   3.257   8.222  0.3223  1.2758 -0.4780
   51MOL0     H 6838   0.273   3.236   8.396 -0.5429  2.4393  1.4428
   51MOL0     H 6839   0.083   3.276   8.167  0.1680 -0.4970  0.5781
   51MOL0     H 6840   0.040   3.347   8.324  0.1066 -1.0507 -0.3084
   51MOL0     H 6841   0.099   3.110   8.427 -1.9887  1.4194  0.5313
   51MOL0     H 6842   0.069   3.057   8.259  1.0458  1.0880  0.4900
   51MOL0     H 6843  -0.144   3.205   8.323 -1.2916 -2.0140  0.0159
   51MOL0     H 6844  -0.086   3.174   8.489 -1.8305 -1.1184 -0.0652
   51MOL0     H 6845  -0.256   2.765   8.405 -1.5122 -0.8198 -1.3590
   51MOL0     H 6846  -0.493   2.656   8.600  2.7175 -2.5222  0.1865
   51MOL0     H 6847  -0.566   2.690   8.440  1.3472  3.3385 -1.0241
   51MOL0     H 6848  -0.407   2.617   8.444  0.0858 -0.7792  0.8088
   51MOL0     H 6849  -0.742   2.614   8.737  0.5093 -0.9544  0.9907
   51MOL0     H 6850  -0.945   2.544   8.851 -0.1966 -0.1806  0.5844
   51MOL0     H 6851  -1.188   2.859   9.096 -1.9327  1.8365 -0.1651
   51MOL0     H 6852  -1.218   2.838   8.927  1.7148  1.2700  0.7698
   51MOL0     H 6853  -1.405   2.813   9.029 -0.6332 -0.2939 -0.4437
   51MOL0     H 6854  -1.364   2.662   8.937  1.5491 -0.1672  0.2394
   51MOL0     H 6855  -1.334   2.680   9.232  1.9827 -0.5095 -0.2253
   51MOL0     H 6856  -1.290   2.545   9.122 -0.2475 -0.2292 -2.1025
   51MOL0     H 6857  -1.528   2.530   9.041 -1.0879 -0.3576 -0.6267
   51MOL0     H 6858  -1.499   2.487   9.214 -0.6828 -1.7138 -0.7405
   51MOL0     H 6859  -1.630   2.738   9.093 -0.2995 -1.4905 -0.8035
   51MOL0     H 6860  -1.582   2.725   9.263 -0.0538 -0.0199  0.8234
   51MOL0     H 6861  -1.817   2.710   9.200  1.1497  1.4945 -0.8762
   51MOL0     H 6862  -1.790   2.568   9.103 -0.4872  1.9653 -0.0872
   51MOL0     H 6863  -1.772   2.581   9.405 -1.6010 -0.1219  0.8316
   51MOL0     H 6864  -1.723   2.435   9.305 -1.6143 -0.6865 -1.5221
   51MOL0     H 6865  -1.992   2.579   9.314  1.4881  1.6257  0.2170
   51MOL0     H 6866  -1.958   2.445   9.413  0.0190 -1.3055 -1.4236
   51MOL0     H 6867  -0.996   2.949   8.998  1.7944  0.8741  0.8055
   51MOL0     H 6868  -0.802   3.018   8.888 -0.0928  0.1818 -0.7612
   51MOL0     H 6869  -0.536   3.140   8.557  0.9881  1.7279 -1.6989
   51MOL0     H 6870  -0.318   3.201   8.438  2.9909 -0.9743 -0.9650
   51MOL0     H 6871   1.361   4.500   8.721  1.4429  0.2428  1.5084
   51MOL0     H 6872   1.601   4.556   8.680  1.0029 -0.9557  0.4293
   51MOL0     H 6873   1.957   4.664   8.239  0.3963  0.0622 -0.1020
   51MOL0     H 6874   2.167   4.776   8.287 -1.2301 -1.0459 -1.0930
   51MOL0     H 6875   2.278   4.942   8.605 -3.0507 -1.0521 -0.7405
   51MOL0     H 6876   2.276   4.805   8.701 -2.2243 -0.7828 -1.1514
   51MOL0     H 6877   2.520   4.785   8.688 -2.4183 -0.6962  0.5673
   51MOL0     H 6878   2.471   4.957   8.721  0.8582  2.6477 -2.2262
   51MOL0     H 6879   2.593   4.845   8.472  0.0587  1.7308 -1.2054
   51MOL0     H 6880   2.646   4.980   8.579 -2.5114  0.3121  3.1500
   51MOL0     H 6881   2.408   5.006   8.398 -0.8525  1.6386  0.6552
   51MOL0     H 6882   2.574   5.054   8.349 -0.5761  1.7721  0.4788
   51MOL0     H 6883   2.437   5.374   8.601 -0.3990  0.8619 -0.9404
   51MOL0     H 6884   2.174   4.626   8.685  1.1483  0.6431 -0.9049
   51MOL0     H 6885   1.955   4.526   8.657  0.1309 -1.1360  0.2889
   52MOL0     O 6886   6.929   3.056   3.196  0.2936  0.6239 -0.8510
   52MOL0     C 6887   6.949   3.177   3.183 -0.0700  0.6967  0.1373
   52MOL0     O 6888   6.847   3.275   3.186  0.1751 -0.6086  0.3597
   52MOL0     C 6889   6.720   3.235   3.231 -0.7311  0.6431  0.2949
   52MOL0     C 6890   6.610   3.275   3.155  0.0638 -0.0439  0.1143
   52MOL0     C 6891   6.479   3.255   3.191 -0.4584  0.0084 -0.2773
   52MOL0     C 6892   6.450   3.195   3.313 -0.1848  0.5264 -0.5238
   52MOL0     O 6893   6.318   3.180   3.353  0.1813  0.4172  0.8653
   52MOL0     C 6894   6.210   3.153   3.264  0.9379 -0.7505 -0.1485
   52MOL0     C 6895   6.092   3.116   3.345  1.0582 -0.1488 -0.1654
   52MOL0     C 6896   5.965   3.098   3.249  0.1335 -0.0384  0.2588
   52MOL0     C 6897   5.842   3.167   3.315  0.5630 -0.4949 -0.4499
   52MOL0     C 6898   5.707   3.137   3.255 -0.3010 -0.5647  0.6494
   52MOL0     C 6899   5.586   3.224   3.311 -0.4740 -0.1970 -0.3910
   52MOL0     C 6900   5.464   3.197   3.231  0.7441 -0.0193  0.4519
   52MOL0     C 6901   5.385   3.079   3.291 -0.2570 -0.4950 -0.4791
   52MOL0     N 6902   5.275   3.053   3.202 -0.6131 -0.2610 -0.7703
   52MOL0     C 6903   5.278   3.002   3.078 -0.1529 -0.2934  0.3458
   52MOL0     C 6904   5.154   3.014   3.036  0.0895 -0.2655  0.0655
   52MOL0     C 6905   5.108   2.978   2.903 -0.6903 -0.6078  0.7965
   52MOL0     C 6906   4.962   2.960   2.889  0.6438  0.3032  0.4709
   52MOL0     C 6907   4.904   2.974   2.748 -0.6230  0.4797  0.8108
   52MOL0     C 6908   4.755   2.994   2.762  0.9741  0.2453  0.7055
   52MOL0     O 6909   4.708   3.010   2.629 -0.0530  0.0714 -0.1220
   52MOL0     C 6910   4.572   3.017   2.613  0.0142 -0.1688  0.2463
   52MOL0     C 6911   4.535   3.003   2.480 -0.0217  0.6671  0.4327
   52MOL0     C 6912   4.398   2.986   2.446 -0.1826  0.6365 -0.2707
   52MOL0     C 6913   4.373   2.972   2.295  0.0746 -0.0052  1.1909
   52MOL0     C 6914   4.296   3.001   2.552 -0.2231 -0.4816  0.2269
   52MOL0     C 6915   4.149   2.995   2.529  0.7039 -0.1034 -0.0596
   52MOL0     O 6916   4.065   3.017   2.632 -0.6215  0.0583  0.4149
   52MOL0     C 6917   3.932   2.986   2.613 -0.1130 -0.2368 -0.1643
   52MOL0     C 6918   3.872   2.860   2.641 -0.4303  0.1522 -0.2925
   52MOL0     C 6919   3.756   2.827   2.575  0.0516  0.4395  0.4496
   52MOL0     C 6920   3.687   2.921   2.504  0.1439 -0.3700  0.0861
   52MOL0     O 6921   3.551   2.890   2.473 -0.3259 -0.6944 -0.3066
   52MOL0     C 6922   3.532   2.765   2.405 -0.0196  0.5135 -0.5123
   52MOL0     C 6923   3.388   2.767   2.353  0.5324 -0.2414  0.0278
   52MOL0     C 6924   3.291   2.759   2.469 -0.0786  0.1434  0.0515
   52MOL0     C 6925   3.143   2.754   2.414  0.0888 -0.1505  0.2686
   52MOL0     C 6926   3.040   2.740   2.519  0.5426 -0.1980  0.1514
   52MOL0     C 6927   3.040   2.842   2.627  0.0467 -0.7781 -0.0905
   52MOL0     C 6928   2.927   2.833   2.724 -0.2127  0.5041 -0.1757
   52MOL0     C 6929   2.936   2.928   2.835 -0.1672  0.4630 -0.5193
   52MOL0    Cl 6930   2.794   2.912   2.945  0.1149  0.2691 -0.0625
   52MOL0     C 6931   3.735   3.046   2.492 -0.1398 -0.7951 -0.8620
   52MOL0     C 6932   3.858   3.083   2.549 -0.4750 -0.3964 -0.5677
   52MOL0     O 6933   4.113   2.958   2.418 -0.3106  0.1646 -0.1737
   52MOL0     C 6934   4.337   3.025   2.686  1.0613  1.1134  0.2370
   52MOL0     C 6935   4.471   3.025   2.714 -0.3117 -0.0417  1.3006
   52MOL0     N 6936   5.079   3.069   3.141  0.0822 -0.0130 -0.2581
   52MOL0     N 6937   5.151   3.087   3.239  0.4818 -0.4907  0.7084
   52MOL0     C 6938   6.562   3.155   3.393  0.7003  0.9650  0.5054
   52MOL0     C 6939   6.693   3.177   3.356 -0.2797  0.3408 -0.0376
   52MOL0     C 6940   7.079   3.230   3.140 -0.0772  0.1441 -0.8561
   52MOL0     C 6941   7.191   3.147   3.132  0.1826  1.0778 -0.7339
   52MOL0     C 6942   7.316   3.193   3.105 -0.2520  0.3332  0.4220
   52MOL0     C 6943   7.344   3.335   3.076 -1.2731  0.9791 -0.5626
   52MOL0     O 6944   7.462   3.402   3.036 -0.3714 -0.1457 -0.6120
   52MOL0     C 6945   7.574   3.315   3.031  0.1917 -0.0200  0.0807
   52MOL0     C 6946   7.689   3.414   3.010  0.9219  0.8911 -0.2566
   52MOL0     C 6947   7.822   3.356   3.001 -0.7403  0.7301  0.5151
   52MOL0     C 6948   7.871   3.297   3.130 -0.3903 -0.3998 -0.0147
   52MOL0     C 6949   8.008   3.249   3.115 -0.9763 -0.1260  0.6300
   52MOL0     C 6950   8.112   3.222   3.063 -0.0928 -0.5610  0.1645
   52MOL0     C 6951   7.238   3.419   3.098 -0.1704 -0.6664 -0.2065
   52MOL0     C 6952   7.105   3.370   3.131 -0.2984  0.2268  1.4233
   52MOL0     H 6953   6.633   3.340   3.071  3.0224  1.3449  1.8306
   52MOL0     H 6954   6.413   3.294   3.115 -1.9914  0.5620  1.2713
   52MOL0     H 6955   6.196   3.243   3.204  0.9605  0.2206  1.2421
   52MOL0     H 6956   6.252   3.077   3.198  2.1760  0.0231 -0.2813
   52MOL0     H 6957   6.120   3.017   3.383  0.0688 -0.3522  0.0419
   52MOL0     H 6958   6.083   3.177   3.435  2.4412 -1.7380  1.1212
   52MOL0     H 6959   5.984   3.139   3.149  0.5512  0.2772  0.4642
   52MOL0     H 6960   5.942   2.992   3.233 -2.0397  0.4502 -0.1318
   52MOL0     H 6961   5.838   3.146   3.422 -2.0752  0.1845 -0.3546
   52MOL0     H 6962   5.858   3.273   3.289  0.2491 -0.4449 -0.4382
   52MOL0     H 6963   5.713   3.141   3.145 -0.8758  2.7609  0.6304
   52MOL0     H 6964   5.693   3.029   3.268 -0.8540 -0.9502 -2.2828
   52MOL0     H 6965   5.566   3.203   3.417 -2.0755  1.9478 -0.2118
   52MOL0     H 6966   5.612   3.330   3.301 -0.8421 -0.0471  0.1734
   52MOL0     H 6967   5.396   3.282   3.218 -0.7712 -1.3026 -0.3232
   52MOL0     H 6968   5.490   3.164   3.131  2.3800 -0.8987  1.1298
   52MOL0     H 6969   5.341   3.120   3.382  0.3981 -2.3622  0.7274
   52MOL0     H 6970   5.451   2.995   3.316  3.1395  2.0261 -0.1782
   52MOL0     H 6971   5.355   2.958   3.016  0.8768  1.6132  0.1926
   52MOL0     H 6972   5.145   3.063   2.843 -0.6420  1.5132  3.6176
   52MOL0     H 6973   5.156   2.884   2.875 -0.3879  0.0499 -1.1096
   52MOL0     H 6974   4.912   3.041   2.942 -2.5508 -0.0366 -1.7515
   52MOL0     H 6975   4.936   2.864   2.934  0.7226 -0.0699 -0.2652
   52MOL0     H 6976   4.923   2.893   2.677  0.1309  0.9566  0.4555
   52MOL0     H 6977   4.950   3.061   2.701 -2.7348  1.1585 -0.1458
   52MOL0     H 6978   4.734   3.078   2.828  0.9268  1.4678 -0.7933
   52MOL0     H 6979   4.710   2.904   2.805 -0.7541  1.4117  1.4239
   52MOL0     H 6980   4.607   2.981   2.402  0.8531 -1.7330  1.7845
   52MOL0     H 6981   4.459   2.962   2.228 -1.0646 -1.4319 -0.1171
   52MOL0     H 6982   4.321   2.879   2.271  0.6197  0.7657 -4.3182
   52MOL0     H 6983   4.316   3.054   2.250  1.9177  2.5673  3.1797
   52MOL0     H 6984   3.943   2.797   2.693 -0.7694  2.2721  3.0535
   52MOL0     H 6985   3.730   2.722   2.576 -0.5402  0.5837  0.3696
   52MOL0     H 6986   3.616   2.744   2.338  0.7989 -3.2003  1.3893
   52MOL0     H 6987   3.552   2.687   2.480  3.2931  0.6486 -1.1376
   52MOL0     H 6988   3.371   2.852   2.287 -0.2136 -2.4572 -2.8485
   52MOL0     H 6989   3.387   2.674   2.294 -1.1423 -1.1907  1.4520
   52MOL0     H 6990   3.298   2.855   2.522  0.6765 -0.4418  1.0570
   52MOL0     H 6991   3.299   2.679   2.543 -4.0545 -0.6843 -0.2072
   52MOL0     H 6992   3.124   2.843   2.354 -1.1921 -1.2340 -1.0234
   52MOL0     H 6993   3.135   2.669   2.344  1.9701  0.5626 -0.8888
   52MOL0     H 6994   3.037   2.637   2.554  1.8097 -1.3856 -2.8831
   52MOL0     H 6995   2.944   2.759   2.470  1.0748  2.3856 -0.0817
   52MOL0     H 6996   3.126   2.837   2.694 -1.1762  1.8479  1.8590
   52MOL0     H 6997   3.040   2.939   2.577  0.9110 -1.2237 -0.9845
   52MOL0     H 6998   2.920   2.732   2.766 -1.3117  0.8980  0.6412
   52MOL0     H 6999   2.829   2.846   2.677 -0.0811  0.1033 -0.5637
   52MOL0     H 7000   2.956   3.026   2.791 -0.2185  1.7292  2.1146
   52MOL0     H 7001   3.025   2.909   2.895 -0.2935  1.0641 -0.1345
   52MOL0     H 7002   3.679   3.128   2.448 -0.4038  0.0483  0.9573
   52MOL0     H 7003   3.893   3.185   2.546  0.0754 -0.4730  1.5120
   52MOL0     H 7004   4.283   3.040   2.779  1.3678  1.8703  0.2957
   52MOL0     H 7005   4.508   3.036   2.815  1.9452  2.8369  0.3139
   52MOL0     H 7006   6.534   3.123   3.493  0.0471  3.5975  1.2477
   52MOL0     H 7007   6.768   3.142   3.426  0.4196  1.2531 -0.3043
   52MOL0     H 7008   7.176   3.042   3.154 -4.4071  1.4385 -1.2915
   52MOL0     H 7009   7.402   3.125   3.104 -0.3379  0.1945  1.3613
   52MOL0     H 7010   7.598   3.250   3.116  1.8253  0.9609  0.4301
   52MOL0     H 7011   7.564   3.246   2.947  0.6932  0.9816 -0.8265
   52MOL0     H 7012   7.688   3.488   3.091 -1.7195 -1.7267  2.3203
   52MOL0     H 7013   7.670   3.462   2.913 -0.4464 -0.3706 -0.6449
   52MOL0     H 7014   7.897   3.431   2.974 -1.1971  1.9303  2.3666
   52MOL0     H 7015   7.822   3.283   2.919 -1.8981  3.5529 -2.1980
   52MOL0     H 7016   7.800   3.218   3.155 -0.4812 -0.1446  0.5525
   52MOL0     H 7017   7.877   3.375   3.206  0.9561  2.7824 -3.1185
   52MOL0     H 7018   8.195   3.188   3.004  2.5573  1.5436  2.3965
   52MOL0     H 7019   7.251   3.524   3.074 -2.1103 -0.9137 -2.7291
   52MOL0     H 7020   7.027   3.445   3.140 -1.5218 -0.7961 -0.1175
   53MOL0     O 7021   9.663   1.939   3.260  0.0472  0.2722 -0.8522
   53MOL0     C 7022   9.768   1.904   3.318  0.6538  0.5062  0.4272
   53MOL0     O 7023   9.779   1.874   3.447  0.2389  0.1517  0.3878
   53MOL0     C 7024   9.674   1.805   3.514 -0.0911  0.2600  0.3960
   53MOL0     C 7025   9.656   1.671   3.491 -0.1238 -0.3830  0.5467
   53MOL0     C 7026   9.580   1.591   3.568  0.5742  0.5920  0.0265
   53MOL0     C 7027   9.528   1.637   3.691 -0.8993  0.9043  0.3237
   53MOL0     O 7028   9.458   1.551   3.770 -0.1660 -0.0858 -0.1801
   53MOL0     C 7029   9.330   1.597   3.816  0.5062 -1.1500 -0.4155
   53MOL0     C 7030   9.237   1.615   3.700 -0.0300 -0.3835  0.1986
   53MOL0     C 7031   9.096   1.654   3.736  0.2365 -0.2182  0.4905
   53MOL0     C 7032   9.023   1.592   3.855 -0.4163 -0.4125  0.0774
   53MOL0     C 7033   8.873   1.625   3.852 -0.1468 -0.0321 -0.7367
   53MOL0     C 7034   8.802   1.550   3.967 -0.2083 -0.2366  0.1109
   53MOL0     C 7035   8.652   1.596   3.980 -0.6023  0.0831  0.0446
   53MOL0     C 7036   8.567   1.573   3.855  0.0172 -0.0961  0.3198
   53MOL0     N 7037   8.422   1.604   3.875  0.4438  0.4693 -0.1466
   53MOL0     C 7038   8.314   1.523   3.845 -0.0104 -0.3627  0.1510
   53MOL0     C 7039   8.204   1.603   3.857 -0.2505  0.6260  0.6539
   53MOL0     C 7040   8.065   1.566   3.842 -0.6642 -0.3996 -0.3978
   53MOL0     C 7041   8.004   1.608   3.713  0.1909 -0.7777  0.6832
   53MOL0     C 7042   7.860   1.564   3.703 -0.7431  0.1978 -0.2458
   53MOL0     C 7043   7.798   1.586   3.558  0.6871 -0.7658 -0.0897
   53MOL0     O 7044   7.775   1.725   3.547 -0.0938 -0.5104  0.3850
   53MOL0     C 7045   7.642   1.773   3.542  0.5014 -0.0802 -0.5237
   53MOL0     C 7046   7.614   1.879   3.624  0.6409 -0.6984 -0.1018
   53MOL0     C 7047   7.476   1.919   3.652  0.0499  0.1436  0.6183
   53MOL0     C 7048   7.463   2.034   3.741  1.3136  0.5603  0.3901
   53MOL0     C 7049   7.373   1.853   3.578  0.0212  0.2046  0.4347
   53MOL0     C 7050   7.233   1.874   3.608  0.4643 -0.8857 -0.2472
   53MOL0     O 7051   7.135   1.816   3.531 -0.0116  0.1212 -0.4677
   53MOL0     C 7052   7.002   1.850   3.551  0.4308  0.3333 -0.8055
   53MOL0     C 7053   6.914   1.745   3.520 -0.0096 -0.6879  0.3966
   53MOL0     C 7054   6.774   1.750   3.520  0.2049 -0.3068  0.3112
   53MOL0     C 7055   6.717   1.878   3.572  0.4936 -0.7482  0.2922
   53MOL0     O 7056   6.579   1.910   3.579  0.3165  0.7399  0.4159
   53MOL0     C 7057   6.476   1.830   3.511 -0.5202  0.1041 -0.2350
   53MOL0     C 7058   6.480   1.875   3.370 -0.3261  0.0967 -0.5555
   53MOL0     C 7059   6.368   1.802   3.288  0.3247 -0.6531  0.5038
   53MOL0     C 7060   6.407   1.654   3.261 -0.3367 -0.8278  1.4639
   53MOL0     C 7061   6.317   1.573   3.162 -0.8791  0.6515 -0.1439
   53MOL0     C 7062   6.211   1.490   3.241  0.5902  0.4136  0.4892
   53MOL0     C 7063   6.131   1.396   3.144  0.2407 -0.2868 -0.4232
   53MOL0     C 7064   6.008   1.331   3.204  0.5085 -0.1799 -0.1651
   53MOL0    Cl 7065   5.870   1.430   3.256  0.4553  0.3990 -0.1714
   53MOL0     C 7066   6.804   1.981   3.610  0.5318 -0.5406  0.8048
   53MOL0     C 7067   6.948   1.973   3.601  0.4760  0.9301  0.2294
   53MOL0     O 7068   7.221   1.918   3.727 -0.2109 -1.1786 -0.1254
   53MOL0     C 7069   7.415   1.748   3.496  0.4936 -0.4836 -0.3426
   53MOL0     C 7070   7.546   1.706   3.469 -0.9528  0.1187  0.0221
   53MOL0     N 7071   8.252   1.726   3.886  0.0272  1.2781 -0.9050
   53MOL0     N 7072   8.378   1.724   3.894 -0.6532  0.5833 -0.2889
   53MOL0     C 7073   9.536   1.775   3.714 -1.0140  0.4875  0.0290
   53MOL0     C 7074   9.608   1.855   3.624 -1.0148 -0.4933 -0.0357
   53MOL0     C 7075   9.886   1.909   3.225  0.4704  0.8011 -0.4706
   53MOL0     C 7076   9.888   1.958   3.091  0.3959  0.1276 -0.3024
   53MOL0     C 7077  10.006   1.965   3.009 -0.1047 -0.1699 -1.0240
   53MOL0     C 7078  10.126   1.905   3.057 -0.6861 -1.0817  0.1889
   53MOL0     O 7079  10.244   1.902   2.982  0.4188  0.3224 -0.2115
   53MOL0     C 7080  10.230   1.942   2.841 -0.7076 -0.4329 -0.1979
   53MOL0     C 7081  10.371   1.929   2.776  0.2270  0.5010 -0.8095
   53MOL0     C 7082  10.388   1.957   2.625  0.7612  1.0713 -0.1282
   53MOL0     C 7083  10.526   1.929   2.570  0.8545 -0.4154  0.2429
   53MOL0     C 7084  10.543   1.998   2.445  0.3057 -0.7553 -0.7247
   53MOL0     C 7085  10.565   2.066   2.349  0.3665  0.1204  0.3382
   53MOL0     C 7086  10.126   1.864   3.192 -0.2078 -0.1393  0.8283
   53MOL0     C 7087  10.012   1.854   3.274  0.2073 -0.2752 -0.4030
   53MOL0     H 7088   9.718   1.625   3.414  0.5867  1.8575 -0.2860
   53MOL0     H 7089   9.563   1.486   3.551 -0.4845 -0.0517  3.9481
   53MOL0     H 7090   9.275   1.529   3.882 -1.6134 -2.1337 -3.0016
   53MOL0     H 7091   9.350   1.692   3.866 -0.3617 -1.3564  0.3595
   53MOL0     H 7092   9.278   1.691   3.633 -1.1289 -0.1565 -0.2344
   53MOL0     H 7093   9.232   1.523   3.642 -4.7335  0.0522 -0.4801
   53MOL0     H 7094   9.103   1.763   3.740  0.4942 -0.2491  0.9002
   53MOL0     H 7095   9.032   1.629   3.651  0.2294 -3.6224  1.3661
   53MOL0     H 7096   9.038   1.485   3.868  2.6925 -0.1464 -0.4458
   53MOL0     H 7097   9.068   1.646   3.940 -1.0328  1.8191 -0.9296
   53MOL0     H 7098   8.858   1.732   3.869  1.1908 -0.0973  1.1974
   53MOL0     H 7099   8.830   1.585   3.760  1.2072 -0.4821 -1.1946
   53MOL0     H 7100   8.794   1.442   3.954 -0.4325 -0.5296  2.3324
   53MOL0     H 7101   8.847   1.582   4.062 -2.0911  1.4618  0.5057
   53MOL0     H 7102   8.603   1.550   4.066 -1.1972  0.1078 -0.2768
   53MOL0     H 7103   8.648   1.702   4.009 -0.9491 -0.0374  0.4516
   53MOL0     H 7104   8.571   1.466   3.831 -0.3018  0.3580 -2.0696
   53MOL0     H 7105   8.602   1.631   3.769  2.9455 -0.2071  1.3384
   53MOL0     H 7106   8.317   1.415   3.833  1.2869 -0.1720 -1.5755
   53MOL0     H 7107   8.061   1.457   3.849 -0.3781 -0.4201 -0.5556
   53MOL0     H 7108   8.010   1.609   3.927 -2.4025 -2.1731 -0.5451
   53MOL0     H 7109   8.077   1.564   3.644  2.3262  2.1148  0.9233
   53MOL0     H 7110   8.014   1.717   3.703  0.1516 -0.8601 -0.3779
   53MOL0     H 7111   7.803   1.617   3.780  0.6206  1.1997  0.1199
   53MOL0     H 7112   7.850   1.458   3.730 -0.6994  0.7111  1.9930
   53MOL0     H 7113   7.704   1.531   3.550  0.4653 -0.1965 -1.7087
   53MOL0     H 7114   7.874   1.551   3.488  0.8862  2.0526 -1.4128
   53MOL0     H 7115   7.703   1.924   3.666  0.4557  0.5184 -0.9528
   53MOL0     H 7116   7.411   1.989   3.827 -1.4149  0.0058 -1.4010
   53MOL0     H 7117   7.563   2.070   3.765  1.6902  1.8598 -2.7017
   53MOL0     H 7118   7.402   2.114   3.699  2.5318  0.4117 -1.7815
   53MOL0     H 7119   6.964   1.665   3.467 -1.4019 -0.1507 -1.8565
   53MOL0     H 7120   6.714   1.670   3.478  1.3345 -0.3027 -1.3965
   53MOL0     H 7121   6.495   1.723   3.512 -3.5864 -0.5233 -0.6467
   53MOL0     H 7122   6.384   1.848   3.569 -0.8131  1.1975 -0.9995
   53MOL0     H 7123   6.465   1.984   3.372 -0.9180  0.0089  1.5554
   53MOL0     H 7124   6.577   1.858   3.322 -0.1708 -2.4633  0.5147
   53MOL0     H 7125   6.338   1.854   3.197  0.7281  0.2262  0.8598
   53MOL0     H 7126   6.286   1.794   3.360  0.5097  1.8996  1.0858
   53MOL0     H 7127   6.506   1.660   3.214  0.2270  1.1073  2.7903
   53MOL0     H 7128   6.410   1.605   3.359 -0.3917 -2.9378  0.4700
   53MOL0     H 7129   6.378   1.494   3.117  1.7815  1.1012  2.3433
   53MOL0     H 7130   6.263   1.627   3.084 -2.2069 -1.3076 -0.6494
   53MOL0     H 7131   6.261   1.427   3.314 -0.8798 -1.5357 -0.1165
   53MOL0     H 7132   6.155   1.564   3.299 -0.3954  0.6745 -0.7527
   53MOL0     H 7133   6.198   1.317   3.110 -0.2620 -0.7345 -0.3772
   53MOL0     H 7134   6.096   1.462   3.064 -0.5736 -0.7125 -0.4328
   53MOL0     H 7135   6.044   1.275   3.291  4.7750 -2.2326 -2.8645
   53MOL0     H 7136   5.967   1.254   3.138  1.1717 -1.5429  0.9373
   53MOL0     H 7137   6.747   2.066   3.645  3.8379  0.8171  3.5056
   53MOL0     H 7138   7.015   2.054   3.629 -0.0514  1.4358  0.0517
   53MOL0     H 7139   7.348   1.704   3.423  2.6007  0.8102 -3.2558
   53MOL0     H 7140   7.579   1.618   3.415 -1.0673  1.2116 -1.9235
   53MOL0     H 7141   9.512   1.810   3.814 -0.8183  2.5944 -0.6095
   53MOL0     H 7142   9.624   1.961   3.645  1.7289 -0.8005 -0.1341
   53MOL0     H 7143   9.800   1.984   3.033  1.0597 -1.2752 -2.0745
   53MOL0     H 7144   9.997   2.000   2.907 -0.6662 -0.7829 -1.1977
   53MOL0     H 7145  10.154   1.880   2.792 -0.1746 -1.0514 -0.2480
   53MOL0     H 7146  10.210   2.049   2.843  2.5369  0.2624 -0.3357
   53MOL0     H 7147  10.405   1.829   2.803 -0.5960  0.8368  1.8167
   53MOL0     H 7148  10.440   2.001   2.821  1.4160 -0.7212 -0.5953
   53MOL0     H 7149  10.355   2.058   2.600 -1.0203  0.2128 -1.4501
   53MOL0     H 7150  10.330   1.883   2.570 -0.4301  1.3946  0.6437
   53MOL0     H 7151  10.537   1.821   2.558 -1.4269 -0.5861 -0.7824
   53MOL0     H 7152  10.597   1.969   2.643  1.6464  1.1711 -1.3215
   53MOL0     H 7153  10.588   2.130   2.266  0.6431  0.0327  0.3459
   53MOL0     H 7154  10.225   1.841   3.230 -0.3038 -3.8530 -0.7491
   53MOL0     H 7155  10.023   1.814   3.375 -0.3273 -1.8556 -0.9310
   54MOL0     O 7156   8.667   2.645   4.983  0.0155 -0.0498 -0.2628
   54MOL0     C 7157   8.733   2.587   4.898  1.0804 -0.4294 -0.4560
   54MOL0     O 7158   8.686   2.493   4.808  0.0077  0.1058  0.6623
   54MOL0     C 7159   8.546   2.483   4.800 -0.3254  0.3001 -1.2650
   54MOL0     C 7160   8.467   2.448   4.909  0.0613  0.5367  0.5318
   54MOL0     C 7161   8.330   2.454   4.899 -0.1281 -0.1886  0.2056
   54MOL0     C 7162   8.268   2.498   4.784  0.0086  0.1173 -0.8330
   54MOL0     O 7163   8.131   2.497   4.768 -0.9498  0.5185 -0.1961
   54MOL0     C 7164   8.060   2.596   4.844 -1.2600 -0.3778 -0.5401
   54MOL0     C 7165   7.926   2.538   4.875  0.4829 -0.4825 -0.7185
   54MOL0     C 7166   7.829   2.592   4.774 -0.2161 -0.1494 -1.1866
   54MOL0     C 7167   7.692   2.631   4.834 -0.6303 -1.3524 -0.3082
   54MOL0     C 7168   7.592   2.681   4.724 -0.0165 -0.1360 -0.1326
   54MOL0     C 7169   7.470   2.748   4.787  0.4894  0.5399  0.5256
   54MOL0     C 7170   7.407   2.659   4.895 -0.1630  0.2051 -0.0052
   54MOL0     C 7171   7.260   2.692   4.924 -0.8803 -0.4508  0.6036
   54MOL0     N 7172   7.263   2.842   4.956  0.5662  0.4043  0.1467
   54MOL0     C 7173   7.219   2.948   4.879  0.0520  0.1077 -0.5920
   54MOL0     C 7174   7.213   3.062   4.961 -0.3919  0.1249  0.0279
   54MOL0     C 7175   7.191   3.204   4.918 -0.0894  0.2719  0.1281
   54MOL0     C 7176   7.058   3.204   4.836 -0.9206  0.0107  0.5348
   54MOL0     C 7177   7.048   3.343   4.770  0.0923 -0.7877 -0.9149
   54MOL0     C 7178   6.920   3.366   4.684  0.2401 -0.1090  0.5697
   54MOL0     O 7179   6.799   3.306   4.746 -0.4248  0.0231  0.1033
   54MOL0     C 7180   6.692   3.309   4.664 -0.1001 -0.4417  0.7696
   54MOL0     C 7181   6.621   3.428   4.655  0.3863 -0.4958  0.4612
   54MOL0     C 7182   6.509   3.440   4.575 -1.2154 -0.0446  0.6599
   54MOL0     C 7183   6.451   3.576   4.550  0.2133  0.3991  0.5658
   54MOL0     C 7184   6.456   3.320   4.514  0.1652 -0.0551  0.1425
   54MOL0     C 7185   6.324   3.306   4.436 -0.8880 -0.3829 -0.5403
   54MOL0     O 7186   6.247   3.423   4.433 -0.1439 -0.0459 -0.2786
   54MOL0     C 7187   6.119   3.423   4.386  0.0424  0.3493  0.2482
   54MOL0     C 7188   6.092   3.401   4.252  1.5916 -0.2417 -0.5096
   54MOL0     C 7189   5.966   3.423   4.209 -0.3955 -0.5450 -0.0243
   54MOL0     C 7190   5.856   3.454   4.288 -0.6042  0.3350  0.3827
   54MOL0     O 7191   5.729   3.474   4.236  0.0337  0.1988 -0.1180
   54MOL0     C 7192   5.625   3.509   4.327 -0.0731 -0.1125  0.2809
   54MOL0     C 7193   5.503   3.502   4.232  0.3019  0.1917 -0.3911
   54MOL0     C 7194   5.395   3.565   4.310 -0.1384 -0.7816 -0.8206
   54MOL0     C 7195   5.260   3.523   4.248 -0.0146 -0.1233  0.3464
   54MOL0     C 7196   5.156   3.639   4.263 -0.1191 -0.0790  0.3242
   54MOL0     C 7197   5.087   3.660   4.399 -0.3195  0.2876  0.0205
   54MOL0     C 7198   5.183   3.704   4.504  0.3158 -0.6761  0.1583
   54MOL0     C 7199   5.114   3.778   4.622 -0.0482 -0.2576 -0.4020
   54MOL0    Cl 7200   4.981   3.683   4.692 -0.1443  0.2510 -0.3815
   54MOL0     C 7201   5.890   3.471   4.426  0.4662 -0.6228  0.3298
   54MOL0     C 7202   6.016   3.465   4.471  0.3023  0.8354 -0.6688
   54MOL0     O 7203   6.288   3.192   4.407  0.0469 -0.1228 -0.2081
   54MOL0     C 7204   6.530   3.196   4.527  0.4725  0.8268 -1.6358
   54MOL0     C 7205   6.653   3.199   4.594  1.3607 -1.3023 -0.3290
   54MOL0     N 7206   7.273   3.020   5.082  0.0564 -0.1751  0.3769
   54MOL0     N 7207   7.305   2.896   5.074  0.3561  0.6295  0.3374
   54MOL0     C 7208   8.343   2.539   4.671 -0.0391  0.0535  0.7213
   54MOL0     C 7209   8.484   2.528   4.684  0.1728 -0.0593  0.1036
   54MOL0     C 7210   8.876   2.622   4.895  0.4895  0.7864 -0.0295
   54MOL0     C 7211   8.973   2.536   4.840 -0.4063 -0.0536  0.4435
   54MOL0     C 7212   9.103   2.562   4.854 -0.3549 -0.0629 -0.0085
   54MOL0     C 7213   9.148   2.672   4.924 -0.5487 -0.2720 -1.0297
   54MOL0     O 7214   9.280   2.685   4.940  0.3299  0.5327  0.3710
   54MOL0     C 7215   9.356   2.581   5.003 -0.0568  0.6524 -0.3749
   54MOL0     C 7216   9.498   2.637   5.039  0.2661 -0.9089  0.1339
   54MOL0     C 7217   9.569   2.708   4.920 -1.0523  0.4017  0.0270
   54MOL0     C 7218   9.702   2.769   4.966  0.4803  0.6827  0.5064
   54MOL0     C 7219   9.773   2.855   4.875  0.8354 -1.1206  0.2299
   54MOL0     C 7220   9.835   2.936   4.805  0.4689  0.1749 -0.6538
   54MOL0     C 7221   9.053   2.759   4.980 -0.2822  0.3314 -0.1571
   54MOL0     C 7222   8.917   2.742   4.965 -0.0298 -0.3623 -0.4917
   54MOL0     H 7223   8.516   2.415   5.001 -0.9834  2.3368  1.8010
   54MOL0     H 7224   8.268   2.414   4.979  0.4550 -0.9343  0.2990
   54MOL0     H 7225   8.122   2.621   4.931  2.0991 -1.5259 -2.4352
   54MOL0     H 7226   8.065   2.692   4.792  1.8804  0.7756  1.6051
   54MOL0     H 7227   7.917   2.431   4.894 -1.0342 -0.4689 -1.2740
   54MOL0     H 7228   7.909   2.586   4.972  0.7056 -2.1335  0.1751
   54MOL0     H 7229   7.864   2.682   4.724  0.0746  0.6246  0.3328
   54MOL0     H 7230   7.818   2.519   4.693 -2.2758 -1.1643 -0.0902
   54MOL0     H 7231   7.657   2.538   4.878  0.5910 -1.7046 -0.0391
   54MOL0     H 7232   7.705   2.707   4.912  3.2701 -0.0154 -1.9947
   54MOL0     H 7233   7.646   2.736   4.645  0.6015 -1.1074 -0.4047
   54MOL0     H 7234   7.550   2.596   4.669 -1.9354  0.6227  0.0884
   54MOL0     H 7235   7.493   2.843   4.838 -3.1345  0.5125  2.5123
   54MOL0     H 7236   7.401   2.771   4.706  2.3215  1.5925 -0.8012
   54MOL0     H 7237   7.410   2.558   4.852  0.3355 -0.4417  1.4864
   54MOL0     H 7238   7.467   2.657   4.986 -1.5548  1.1111  0.9710
   54MOL0     H 7239   7.209   2.624   4.994 -0.2781 -0.8069  0.7043
   54MOL0     H 7240   7.200   2.689   4.833 -1.2609 -1.2401  0.8679
   54MOL0     H 7241   7.193   2.937   4.774 -0.4085  2.0875 -0.7184
   54MOL0     H 7242   7.195   3.267   5.008 -1.1093  1.6461 -0.7483
   54MOL0     H 7243   7.275   3.231   4.853 -1.6445 -0.0879 -2.1255
   54MOL0     H 7244   6.978   3.181   4.906 -3.3160 -2.6170 -2.7105
   54MOL0     H 7245   7.060   3.131   4.754  1.0890 -2.3308  2.4855
   54MOL0     H 7246   7.134   3.358   4.704  1.9725  0.9187  1.7024
   54MOL0     H 7247   7.038   3.419   4.848 -1.9492 -0.0989 -1.7907
   54MOL0     H 7248   6.938   3.314   4.589 -0.4471 -0.5864  0.6883
   54MOL0     H 7249   6.904   3.472   4.664 -2.7780 -0.5650  0.1782
   54MOL0     H 7250   6.648   3.510   4.720  1.0269 -0.3559  0.0296
   54MOL0     H 7251   6.463   3.600   4.444 -0.7437 -0.6912  0.1917
   54MOL0     H 7252   6.347   3.578   4.584 -0.6272  4.2292 -1.6363
   54MOL0     H 7253   6.492   3.660   4.607 -1.1941  1.4089  0.1342
   54MOL0     H 7254   6.172   3.385   4.181  1.8197  0.0916 -0.3299
   54MOL0     H 7255   5.933   3.397   4.109  0.3978 -1.2706 -0.1179
   54MOL0     H 7256   5.618   3.446   4.416 -0.4899  0.5750  0.7436
   54MOL0     H 7257   5.638   3.611   4.365  2.4635 -0.5301  0.7304
   54MOL0     H 7258   5.519   3.559   4.140 -1.4305  2.6363  0.6976
   54MOL0     H 7259   5.480   3.398   4.207 -1.1107  0.6157 -0.9985
   54MOL0     H 7260   5.405   3.674   4.313 -3.1191 -0.4170  2.2007
   54MOL0     H 7261   5.396   3.541   4.417  0.1675  1.6230 -0.2236
   54MOL0     H 7262   5.278   3.511   4.140 -0.4998 -0.0713  0.2579
   54MOL0     H 7263   5.228   3.426   4.287 -1.4107  0.6225  1.1118
   54MOL0     H 7264   5.074   3.616   4.194 -0.2486 -0.9669  0.7578
   54MOL0     H 7265   5.193   3.732   4.219  0.3769 -0.2420  0.3832
   54MOL0     H 7266   5.010   3.737   4.386 -0.8180  0.1535  1.8614
   54MOL0     H 7267   5.040   3.570   4.440  0.9559  1.3192  4.2819
   54MOL0     H 7268   5.245   3.779   4.454 -2.4881  0.8444 -1.2548
   54MOL0     H 7269   5.248   3.623   4.541 -0.9234 -0.8497  2.0984
   54MOL0     H 7270   5.067   3.873   4.594  1.0610  1.1855  2.3735
   54MOL0     H 7271   5.193   3.813   4.689 -1.7508 -1.2917  2.3184
   54MOL0     H 7272   5.808   3.481   4.497 -1.7862 -2.1290 -1.8946
   54MOL0     H 7273   6.019   3.497   4.574 -3.3430  3.3962 -1.1842
   54MOL0     H 7274   6.503   3.096   4.494  2.0861 -0.5586  0.9351
   54MOL0     H 7275   6.701   3.101   4.596 -1.3535 -2.7813 -1.2227
   54MOL0     H 7276   8.308   2.566   4.572 -1.1009 -0.8497  0.8406
   54MOL0     H 7277   8.544   2.570   4.605  0.2462  2.4701  1.4160
   54MOL0     H 7278   8.931   2.450   4.789  1.4819 -1.8830  1.8087
   54MOL0     H 7279   9.173   2.488   4.816  1.3933  2.3927 -1.9125
   54MOL0     H 7280   9.302   2.538   5.088  1.4418  0.0690  0.3234
   54MOL0     H 7281   9.360   2.492   4.940  0.0661 -0.4031  1.0763
   54MOL0     H 7282   9.560   2.557   5.081 -0.2560 -0.6303  1.4854
   54MOL0     H 7283   9.480   2.719   5.110  0.9499  1.4011 -2.2187
   54MOL0     H 7284   9.501   2.787   4.887 -3.2497 -1.5875 -0.4564
   54MOL0     H 7285   9.583   2.643   4.833  0.9913  1.8561 -0.8190
   54MOL0     H 7286   9.775   2.690   4.980 -1.3110 -0.8911  1.4771
   54MOL0     H 7287   9.694   2.823   5.060  0.3961 -0.7835  1.3695
   54MOL0     H 7288   9.892   2.995   4.737 -2.0295  1.9102 -1.4140
   54MOL0     H 7289   9.091   2.846   5.032 -0.6300 -0.5608  1.6612
   54MOL0     H 7290   8.848   2.819   4.998 -0.4174 -0.9672  0.1430
   55MOL0     O 7291   9.534   4.077   6.641  0.4167 -1.0861 -0.3801
   55MOL0     C 7292   9.471   4.135   6.729  0.9403  0.7046 -0.7142
   55MOL0     O 7293   9.333   4.134   6.741  0.4924 -0.3259  0.4725
   55MOL0     C 7294   9.260   4.095   6.632 -0.3719 -0.6972 -0.2573
   55MOL0     C 7295   9.168   3.994   6.661  0.1543  0.7049  0.1845
   55MOL0     C 7296   9.076   3.947   6.567 -1.0510 -0.0648  0.6838
   55MOL0     C 7297   9.075   4.001   6.437  0.0858 -0.0643  0.5767
   55MOL0     O 7298   8.982   3.957   6.342  0.6410 -0.3592 -0.2440
   55MOL0     C 7299   9.032   3.910   6.220  0.3356 -0.4736  0.4893
   55MOL0     C 7300   8.919   3.859   6.129  0.1389  0.2490  0.4629
   55MOL0     C 7301   8.825   3.753   6.192 -0.3154  0.1041 -0.7646
   55MOL0     C 7302   8.895   3.621   6.231  0.4496 -0.1964  0.3520
   55MOL0     C 7303   8.808   3.504   6.279 -0.1545 -0.9202 -0.7804
   55MOL0     C 7304   8.698   3.526   6.383 -0.3484 -0.0592 -0.6167
   55MOL0     C 7305   8.635   3.393   6.425 -0.0087 -0.0881 -0.1837
   55MOL0     C 7306   8.586   3.400   6.562  0.1839 -0.3613  0.5168
   55MOL0     N 7307   8.445   3.448   6.581 -0.9852  0.2152  0.1514
   55MOL0     C 7308   8.331   3.417   6.515  0.2205 -0.1266  0.3064
   55MOL0     C 7309   8.233   3.469   6.593  0.7486 -0.6504 -0.2488
   55MOL0     C 7310   8.082   3.469   6.553  1.0622  0.4905  0.2144
   55MOL0     C 7311   8.060   3.603   6.480  0.3334  0.4626 -0.9176
   55MOL0     C 7312   7.922   3.668   6.495 -0.1403  0.2700  0.3990
   55MOL0     C 7313   7.906   3.778   6.389  0.2475 -0.0078 -0.5289
   55MOL0     O 7314   7.853   3.738   6.265 -0.1851 -0.3433  0.0710
   55MOL0     C 7315   7.871   3.817   6.155  0.0158  0.8300 -0.5276
   55MOL0     C 7316   7.927   3.943   6.154 -0.1625 -0.4828 -1.0477
   55MOL0     C 7317   7.932   4.024   6.039  0.7450 -0.5085 -0.5260
   55MOL0     C 7318   8.000   4.155   6.034  0.1230 -0.2311 -0.4234
   55MOL0     C 7319   7.873   3.976   5.920 -0.7789 -0.5472 -0.4108
   55MOL0     C 7320   7.865   4.050   5.787  0.8434  0.0210  0.1288
   55MOL0     O 7321   7.852   4.185   5.795 -0.6025  0.1543 -0.3127
   55MOL0     C 7322   7.832   4.258   5.676  0.7782 -0.2105  0.3318
   55MOL0     C 7323   7.871   4.393   5.683 -0.2375 -0.0953  0.2226
   55MOL0     C 7324   7.856   4.485   5.574  0.1261  0.3936 -0.1864
   55MOL0     C 7325   7.801   4.447   5.448 -0.0534  0.5321 -0.7846
   55MOL0     O 7326   7.775   4.531   5.339 -0.1526  0.7203  0.4471
   55MOL0     C 7327   7.759   4.668   5.367  0.9172 -0.1259 -0.1564
   55MOL0     C 7328   7.882   4.739   5.322  0.9735  0.3855 -0.3306
   55MOL0     C 7329   7.858   4.887   5.268  0.3808 -0.4437 -0.6156
   55MOL0     C 7330   7.809   4.893   5.126 -0.1510  0.7686 -0.1200
   55MOL0     C 7331   7.821   5.038   5.079  0.0984 -0.0063  0.3513
   55MOL0     C 7332   7.773   5.049   4.929 -0.1030 -0.6497 -0.2853
   55MOL0     C 7333   7.775   5.199   4.890  0.4226  0.4867  0.3354
   55MOL0     C 7334   7.722   5.220   4.750  0.3910 -0.1919 -0.3285
   55MOL0    Cl 7335   7.552   5.203   4.767 -0.2516  0.5323 -0.0999
   55MOL0     C 7336   7.772   4.307   5.435  0.2079 -0.6207 -1.0163
   55MOL0     C 7337   7.789   4.219   5.548  0.3422  0.1432  0.7136
   55MOL0     O 7338   7.899   3.988   5.689 -0.3718  0.5093  0.1199
   55MOL0     C 7339   7.818   3.848   5.922 -0.2668 -0.0540 -0.1869
   55MOL0     C 7340   7.815   3.771   6.038  0.4064 -0.0260  0.5234
   55MOL0     N 7341   8.291   3.544   6.691  0.3016  0.1038 -0.5753
   55MOL0     N 7342   8.415   3.522   6.693  0.1027  0.4518  0.4127
   55MOL0     C 7343   9.164   4.112   6.406  1.1800  0.0479 -0.7555
   55MOL0     C 7344   9.256   4.150   6.506 -0.0571 -0.3818 -0.8115
   55MOL0     C 7345   9.541   4.201   6.838  0.3376 -0.6142 -0.4747
   55MOL0     C 7346   9.676   4.177   6.860 -0.3463 -0.0523  0.3900
   55MOL0     C 7347   9.748   4.220   6.970 -0.2913 -0.6207 -0.5315
   55MOL0     C 7348   9.684   4.310   7.059 -0.0578  0.1696  0.3431
   55MOL0     O 7349   9.759   4.345   7.165  0.4263  0.9787 -0.3175
   55MOL0     C 7350   9.724   4.424   7.279 -0.0620  0.4989 -0.7538
   55MOL0     C 7351   9.841   4.437   7.376 -0.2854  0.4244  0.3361
   55MOL0     C 7352   9.955   4.506   7.291 -0.6235 -1.3254 -0.2904
   55MOL0     C 7353  10.077   4.530   7.376 -0.4333  0.6978 -0.0182
   55MOL0     C 7354  10.040   4.614   7.493  0.4332 -0.5739  0.7026
   55MOL0     C 7355  10.022   4.687   7.590  0.0753  1.1201  0.5641
   55MOL0     C 7356   9.552   4.355   7.033  0.4305  0.6460 -0.7051
   55MOL0     C 7357   9.484   4.302   6.920  0.1937  0.0724  1.0688
   55MOL0     H 7358   9.170   3.956   6.763 -1.2928  2.2375  0.8415
   55MOL0     H 7359   9.005   3.865   6.574 -3.2168  1.5021 -1.1026
   55MOL0     H 7360   9.089   3.989   6.170 -0.2207 -0.6901 -0.5177
   55MOL0     H 7361   9.095   3.821   6.230  0.4731 -0.6191 -1.3242
   55MOL0     H 7362   8.859   3.942   6.091  2.0041  2.6268  2.3611
   55MOL0     H 7363   8.969   3.820   6.040 -1.1802 -1.6637  0.4933
   55MOL0     H 7364   8.768   3.791   6.277 -0.6884 -2.6804  0.3380
   55MOL0     H 7365   8.755   3.725   6.112 -1.5572  1.6570 -0.2806
   55MOL0     H 7366   8.961   3.598   6.147 -0.4180  1.2917 -0.8024
   55MOL0     H 7367   8.963   3.642   6.314  1.3335  2.6307 -0.9778
   55MOL0     H 7368   8.751   3.485   6.188  0.2446  2.0397 -1.7311
   55MOL0     H 7369   8.863   3.412   6.303 -2.2556 -1.7618  1.1891
   55MOL0     H 7370   8.753   3.573   6.465  0.2204 -1.1290 -0.3664
   55MOL0     H 7371   8.621   3.593   6.342 -0.0790 -1.5903 -3.9354
   55MOL0     H 7372   8.564   3.352   6.353  0.9329  1.1811 -1.9033
   55MOL0     H 7373   8.712   3.320   6.449 -0.0217  0.4976  1.8066
   55MOL0     H 7374   8.654   3.456   6.628  0.4173  1.8729 -1.4920
   55MOL0     H 7375   8.585   3.296   6.596 -0.1201 -1.7223 -3.1917
   55MOL0     H 7376   8.339   3.363   6.422  3.1324 -0.8600  0.8605
   55MOL0     H 7377   8.070   3.379   6.492  1.1044 -0.4901  1.6074
   55MOL0     H 7378   8.015   3.454   6.639  0.9056  0.1135  0.0284
   55MOL0     H 7379   8.088   3.589   6.376 -0.8941  0.1849 -1.2198
   55MOL0     H 7380   8.129   3.680   6.517 -1.3868  1.1152  1.1413
   55MOL0     H 7381   7.909   3.703   6.598 -0.4701  1.2027  0.0532
   55MOL0     H 7382   7.842   3.597   6.475 -0.4841  1.4229 -2.8087
   55MOL0     H 7383   7.997   3.840   6.380 -0.8000  2.1966  2.4782
   55MOL0     H 7384   7.833   3.850   6.428  2.2167  1.4984  0.5788
   55MOL0     H 7385   7.951   3.987   6.250 -0.3442  0.6356 -1.5013
   55MOL0     H 7386   7.933   4.236   6.065  2.1534  1.4834 -0.2492
   55MOL0     H 7387   8.082   4.160   6.107 -0.5419 -2.9716  0.6139
   55MOL0     H 7388   8.055   4.174   5.941 -1.4205  0.2475 -1.2596
   55MOL0     H 7389   7.914   4.422   5.779 -2.2895 -1.8495  1.7769
   55MOL0     H 7390   7.894   4.583   5.599  0.9572  0.7553 -2.6232
   55MOL0     H 7391   7.673   4.705   5.310 -1.1143 -0.3919  2.5724
   55MOL0     H 7392   7.745   4.698   5.471 -1.6041 -0.5052 -0.3305
   55MOL0     H 7393   7.945   4.735   5.412  0.3682 -0.5225  0.0708
   55MOL0     H 7394   7.913   4.674   5.241  1.3161 -2.0775  1.6464
   55MOL0     H 7395   7.954   4.938   5.279  1.1317 -1.6666 -1.2206
   55MOL0     H 7396   7.782   4.935   5.330 -0.0640  1.8581 -2.7574
   55MOL0     H 7397   7.866   4.821   5.067 -1.2673 -0.6674  0.4965
   55MOL0     H 7398   7.702   4.867   5.126  0.7752 -3.8546  0.0500
   55MOL0     H 7399   7.921   5.081   5.093  0.4923 -1.7913  4.4557
   55MOL0     H 7400   7.758   5.109   5.133 -0.1283 -0.5744  0.8440
   55MOL0     H 7401   7.841   4.992   4.865  0.5247 -0.8794  0.5636
   55MOL0     H 7402   7.673   5.009   4.910 -0.3385 -0.9344  1.3792
   55MOL0     H 7403   7.882   5.221   4.883  0.5500 -0.5011 -1.5826
   55MOL0     H 7404   7.720   5.252   4.969 -0.1339  0.5448 -0.0831
   55MOL0     H 7405   7.760   5.152   4.673 -1.8385 -1.9293 -0.0137
   55MOL0     H 7406   7.749   5.320   4.716  1.8601 -0.9090 -1.3846
   55MOL0     H 7407   7.733   4.268   5.341 -0.3255  0.1649 -1.1364
   55MOL0     H 7408   7.752   4.120   5.524 -2.6292  0.9526  1.4794
   55MOL0     H 7409   7.760   3.808   5.840 -2.4587 -2.7417  2.4630
   55MOL0     H 7410   7.776   3.671   6.024  1.3811 -0.2012 -1.1667
   55MOL0     H 7411   9.158   4.164   6.311  1.1700  0.1161 -0.7177
   55MOL0     H 7412   9.326   4.231   6.486  0.0280 -0.1339  0.4076
   55MOL0     H 7413   9.722   4.113   6.786  1.3686  1.3225  0.1887
   55MOL0     H 7414   9.848   4.186   6.997 -0.3373  0.2898  0.8975
   55MOL0     H 7415   9.693   4.524   7.246  0.4588  1.0899  0.4523
   55MOL0     H 7416   9.643   4.376   7.335  1.5345 -0.4375  0.8546
   55MOL0     H 7417   9.864   4.340   7.421 -5.8109 -0.9899  0.9021
   55MOL0     H 7418   9.811   4.496   7.463  0.2754  1.7514 -0.3335
   55MOL0     H 7419   9.922   4.599   7.245  2.0725  1.8347  3.5301
   55MOL0     H 7420   9.995   4.441   7.212  1.5334 -0.4921  0.0460
   55MOL0     H 7421  10.150   4.582   7.313 -0.4480 -1.4781 -1.9279
   55MOL0     H 7422  10.127   4.439   7.409 -1.7962 -0.4665 -1.0834
   55MOL0     H 7423  10.012   4.740   7.682  1.2742  1.5763  0.4502
   55MOL0     H 7424   9.500   4.427   7.094  0.3823  1.0112 -1.1667
   55MOL0     H 7425   9.380   4.331   6.919  0.9049  2.8959 -0.0124
   56MOL0     O 7426   5.506   2.920  10.375  0.4941 -1.0109 -0.2969
   56MOL0     C 7427   5.558   3.028  10.344 -0.1132  0.2650  0.0683
   56MOL0     O 7428   5.493   3.159  10.358 -0.6122  0.2426 -0.1620
   56MOL0     C 7429   5.359   3.165  10.365  0.9732 -0.1726 -0.2330
   56MOL0     C 7430   5.274   3.068  10.300  1.1799  0.6895  0.4601
   56MOL0     C 7431   5.139   3.073  10.306  0.8691 -0.5348 -0.3529
   56MOL0     C 7432   5.075   3.176  10.372  0.4600 -0.3516  0.0622
   56MOL0     O 7433   4.941   3.185  10.382  0.0544 -0.4397 -0.3917
   56MOL0     C 7434   4.854   3.094  10.327  1.1912 -0.5460  0.0513
   56MOL0     C 7435   4.711   3.131  10.373  0.8363  1.0974 -0.0401
   56MOL0     C 7436   4.601   3.059  10.296 -0.6727  0.1076 -0.0906
   56MOL0     C 7437   4.465   3.125  10.300  0.8390 -0.1088  0.4161
   56MOL0     C 7438   4.415   3.135  10.448 -0.1624  0.5028  0.3354
   56MOL0     C 7439   4.291   3.232  10.451 -0.2659 -0.0118  0.5220
   56MOL0     C 7440   4.231   3.221  10.589 -0.0135  0.1169 -0.1183
   56MOL0     C 7441   4.144   3.344  10.613 -0.0186 -0.7854 -0.0254
   56MOL0     N 7442   4.018   3.343  10.535 -0.5585 -0.7873  0.1066
   56MOL0     C 7443   3.903   3.281  10.579  0.0795 -0.0469  0.2940
   56MOL0     C 7444   3.812   3.301  10.480 -0.0371 -0.1182  0.0471
   56MOL0     C 7445   3.668   3.270  10.486 -0.7831 -0.3011  0.4031
   56MOL0     C 7446   3.592   3.410  10.509  0.5190  0.1151  0.0743
   56MOL0     C 7447   3.501   3.440  10.391  0.2668 -0.0043 -0.3762
   56MOL0     C 7448   3.427   3.580  10.398 -0.5462  0.4869 -0.0282
   56MOL0     O 7449   3.311   3.564  10.316  0.3193 -0.4964 -0.5276
   56MOL0     C 7450   3.190   3.547  10.380 -0.0886 -0.2589 -0.2632
   56MOL0     C 7451   3.164   3.527  10.514 -0.4163 -0.0727 -0.3215
   56MOL0     C 7452   3.032   3.516  10.578 -0.8077  0.0348 -0.2553
   56MOL0     C 7453   3.037   3.512  10.726 -0.7146 -0.4345 -0.9883
   56MOL0     C 7454   2.922   3.530  10.489 -0.2052 -0.1358  0.0070
   56MOL0     C 7455   2.782   3.521  10.545  0.8684  0.0991 -0.1191
   56MOL0     O 7456   2.683   3.491  10.448  0.0820  0.2270 -0.0046
   56MOL0     C 7457   2.549   3.472  10.484  0.2602 -0.2192 -0.6508
   56MOL0     C 7458   2.473   3.537  10.583  0.1260  0.5618  0.1267
   56MOL0     C 7459   2.340   3.506  10.609 -0.2801 -0.4883 -0.4531
   56MOL0     C 7460   2.279   3.405  10.535  0.6473 -0.2772  0.4115
   56MOL0     O 7461   2.145   3.376  10.571 -0.4272 -0.1117  0.5007
   56MOL0     C 7462   2.064   3.294  10.491  0.0457 -0.0701 -0.2878
   56MOL0     C 7463   1.918   3.300  10.529  0.4762  0.4301 -0.7538
   56MOL0     C 7464   1.841   3.409  10.471  0.5431  0.1883 -0.8674
   56MOL0     C 7465   1.699   3.401  10.523 -0.7347  0.1155  0.6394
   56MOL0     C 7466   1.624   3.535  10.504  0.6290  0.3818  0.2972
   56MOL0     C 7467   1.471   3.522  10.523 -0.0540 -0.1248 -0.8662
   56MOL0     C 7468   1.387   3.456  10.414 -0.0999  0.5647  0.3485
   56MOL0     C 7469   1.401   3.519  10.276  0.2077  0.3072 -0.3878
   56MOL0    Cl 7470   1.376   3.686  10.287  0.1678 -0.1033  0.6070
   56MOL0     C 7471   2.347   3.343  10.436 -0.0823 -0.1109 -0.0301
   56MOL0     C 7472   2.476   3.382  10.402 -0.5271 -0.1600 -1.0850
   56MOL0     O 7473   2.760   3.527  10.670  0.1614  0.3457  0.5857
   56MOL0     C 7474   2.949   3.526  10.351 -0.2969 -0.4923  0.6779
   56MOL0     C 7475   3.081   3.536  10.302  0.3639  0.0960 -0.2600
   56MOL0     N 7476   3.868   3.379  10.377  0.6049 -0.4101  0.4632
   56MOL0     N 7477   3.991   3.401  10.408 -0.4676 -0.2735  0.5618
   56MOL0     C 7478   5.154   3.277  10.421 -0.4945 -0.3506 -0.1389
   56MOL0     C 7479   5.295   3.273  10.421  0.3204 -0.9351 -1.2083
   56MOL0     C 7480   5.703   3.026  10.304  0.1376 -0.1991  0.3931
   56MOL0     C 7481   5.783   3.140  10.284  0.2397 -0.6824  0.1932
   56MOL0     C 7482   5.922   3.139  10.226  0.0915 -0.9446 -0.0139
   56MOL0     C 7483   5.974   3.015  10.195 -0.6073  0.8829 -0.3047
   56MOL0     O 7484   6.092   2.985  10.137 -0.0204 -0.0875 -0.3273
   56MOL0     C 7485   6.189   3.092  10.134 -0.5257  0.3098 -0.6354
   56MOL0     C 7486   6.250   3.093  10.277  0.1198 -0.8538  0.0287
   56MOL0     C 7487   6.334   3.219  10.294 -0.2530  0.2707  0.5924
   56MOL0     C 7488   6.255   3.355  10.328 -0.5629  1.1044  0.6786
   56MOL0     C 7489   6.155   3.336  10.429  0.0803  0.0148 -0.0717
   56MOL0     C 7490   6.072   3.334  10.513 -0.1831 -1.1067 -0.1304
   56MOL0     C 7491   5.898   2.904  10.236 -0.6271 -0.0521  0.3388
   56MOL0     C 7492   5.771   2.910  10.281 -0.1983  0.1925 -0.2143
   56MOL0     H 7493   5.312   2.974  10.261  0.6855  0.9740 -0.7689
   56MOL0     H 7494   5.088   2.988  10.263 -0.4934 -1.1899  2.3128
   56MOL0     H 7495   4.860   3.114  10.220 -1.6491  0.3873 -0.0095
   56MOL0     H 7496   4.877   2.995  10.368  1.3514 -0.0129  1.2991
   56MOL0     H 7497   4.705   3.094  10.476 -2.3035 -1.5261 -0.9863
   56MOL0     H 7498   4.698   3.240  10.377  2.5250  1.2854  2.0148
   56MOL0     H 7499   4.631   3.055  10.191  0.3113 -2.8750  0.2131
   56MOL0     H 7500   4.592   2.958  10.337 -0.5912 -0.6222 -1.7785
   56MOL0     H 7501   4.470   3.226  10.260 -2.8395 -0.0346 -0.1978
   56MOL0     H 7502   4.395   3.073  10.234 -0.9351  2.7239 -0.0658
   56MOL0     H 7503   4.407   3.034  10.488  3.1332 -1.1807 -2.6959
   56MOL0     H 7504   4.495   3.185  10.504 -1.1843  2.3696  0.2232
   56MOL0     H 7505   4.328   3.332  10.430  0.6936 -0.3557  0.5294
   56MOL0     H 7506   4.228   3.196  10.369  1.3424  0.5095 -0.9979
   56MOL0     H 7507   4.167   3.132  10.598 -0.2006  0.1904 -0.6885
   56MOL0     H 7508   4.310   3.223  10.665  1.2822 -1.6572 -1.3244
   56MOL0     H 7509   4.190   3.441  10.591 -1.6526  0.6657  2.4545
   56MOL0     H 7510   4.120   3.353  10.719 -1.5355  1.1626 -0.4828
   56MOL0     H 7511   3.891   3.241  10.679  0.1835 -4.4388 -1.2334
   56MOL0     H 7512   3.638   3.224  10.392 -2.1655  0.9312  0.2033
   56MOL0     H 7513   3.658   3.201  10.571 -0.7207  1.7491  2.1615
   56MOL0     H 7514   3.660   3.493  10.528 -1.6502  2.4277 -1.5850
   56MOL0     H 7515   3.548   3.391  10.608  0.1740 -1.5511 -0.3594
   56MOL0     H 7516   3.422   3.365  10.379  1.0797 -0.8132 -0.7952
   56MOL0     H 7517   3.562   3.439  10.300 -1.7221  1.3503 -1.8033
   56MOL0     H 7518   3.493   3.650  10.346  0.4411 -0.3651  0.0400
   56MOL0     H 7519   3.409   3.621  10.497  0.1006  2.4040 -0.6510
   56MOL0     H 7520   3.246   3.530  10.585 -2.9567 -0.4876  2.8665
   56MOL0     H 7521   2.951   3.454  10.764 -2.7094  2.1790 -1.2340
   56MOL0     H 7522   3.130   3.457  10.742 -0.4469 -0.6143 -2.9699
   56MOL0     H 7523   3.036   3.610  10.774 -0.0184 -1.7150  1.9129
   56MOL0     H 7524   2.507   3.614  10.653 -2.6909 -0.4653  2.8910
   56MOL0     H 7525   2.280   3.563  10.679 -0.9459  0.2290 -1.5665
   56MOL0     H 7526   2.074   3.337  10.390 -1.1709 -0.2829 -0.5127
   56MOL0     H 7527   2.093   3.189  10.489 -0.2472 -0.1743  0.6674
   56MOL0     H 7528   1.871   3.203  10.513  1.6598 -0.6497  1.7365
   56MOL0     H 7529   1.906   3.311  10.638  0.9442  0.3219 -0.6861
   56MOL0     H 7530   1.832   3.391  10.363  1.1719  1.9293 -1.2412
   56MOL0     H 7531   1.875   3.510  10.494 -0.9219  0.0644  2.3540
   56MOL0     H 7532   1.644   3.312  10.491  1.0631 -1.0015  0.5400
   56MOL0     H 7533   1.700   3.392  10.632 -1.6216  0.8902  0.7248
   56MOL0     H 7534   1.640   3.581  10.407  1.2587  2.8129  1.4738
   56MOL0     H 7535   1.668   3.609  10.572 -0.7237  0.3996  1.1964
   56MOL0     H 7536   1.460   3.475  10.621  0.9635 -1.2332 -1.2534
   56MOL0     H 7537   1.433   3.623  10.540  0.4295 -0.2078  0.8099
   56MOL0     H 7538   1.285   3.449  10.453 -0.7492 -0.1557 -1.3833
   56MOL0     H 7539   1.415   3.353  10.386 -0.7479  0.8871 -1.6546
   56MOL0     H 7540   1.335   3.473  10.201  1.1153  0.9836 -1.6380
   56MOL0     H 7541   1.506   3.515  10.245 -0.2204 -0.7539 -1.7960
   56MOL0     H 7542   2.311   3.266  10.369 -0.1520  0.5622 -0.7995
   56MOL0     H 7543   2.535   3.327  10.330  1.5372 -0.3103  0.6390
   56MOL0     H 7544   2.865   3.521  10.283 -0.9243  0.1987  1.3827
   56MOL0     H 7545   3.092   3.534  10.194 -2.5112  0.1410 -0.6248
   56MOL0     H 7546   5.102   3.356  10.475 -2.3890 -2.8766  2.0425
   56MOL0     H 7547   5.349   3.360  10.458 -0.0395 -0.5752 -1.5101
   56MOL0     H 7548   5.748   3.241  10.302 -2.5008 -1.5700  0.3379
   56MOL0     H 7549   5.970   3.234  10.206 -0.5854 -0.7216 -0.6160
   56MOL0     H 7550   6.263   3.064  10.059  2.4891  2.3660  1.3708
   56MOL0     H 7551   6.142   3.189  10.114  1.2284  2.0181  2.7209
   56MOL0     H 7552   6.323   3.011  10.276  0.4680 -0.6274  1.9309
   56MOL0     H 7553   6.181   3.077  10.360  0.9801 -0.8046  0.7806
   56MOL0     H 7554   6.388   3.230  10.199  1.2338 -0.7968  1.2749
   56MOL0     H 7555   6.406   3.208  10.375  0.2029  0.3534  0.2051
   56MOL0     H 7556   6.203   3.384  10.236 -0.5103 -2.4522 -0.6287
   56MOL0     H 7557   6.326   3.430  10.363  2.8137 -1.7584  0.4850
   56MOL0     H 7558   5.993   3.332  10.586 -0.2265 -0.4373 -0.1560
   56MOL0     H 7559   5.951   2.809  10.229  0.3431  0.1849  3.2576
   56MOL0     H 7560   5.722   2.816  10.301  1.3803 -0.8816 -1.1520
   57MOL0     O 7561   3.246   4.067   4.342  0.1397 -0.2835 -0.2930
   57MOL0     C 7562   3.275   4.061   4.223  0.4093  0.2162 -0.3944
   57MOL0     O 7563   3.183   4.059   4.124 -0.0852 -0.1337 -0.3972
   57MOL0     C 7564   3.042   4.049   4.139 -0.6103  0.0236  0.1001
   57MOL0     C 7565   2.978   3.968   4.240  0.3065  0.1549 -0.1750
   57MOL0     C 7566   2.838   3.954   4.225 -0.4704  0.3047 -0.4725
   57MOL0     C 7567   2.767   4.010   4.110  0.4490  0.1426 -0.7140
   57MOL0     O 7568   2.632   3.987   4.110 -1.0716  0.4079  0.2459
   57MOL0     C 7569   2.554   4.089   4.050 -0.3492 -0.5635  0.4626
   57MOL0     C 7570   2.400   4.061   4.057 -0.1616  0.3574  0.3543
   57MOL0     C 7571   2.317   4.149   3.965 -0.5653 -0.3382 -0.4105
   57MOL0     C 7572   2.186   4.147   4.040 -0.7381 -0.3850 -0.2503
   57MOL0     C 7573   2.085   4.219   3.958  0.7141  0.3263  0.1502
   57MOL0     C 7574   1.939   4.218   4.014  0.5789 -0.0920 -0.0300
   57MOL0     C 7575   1.873   4.075   4.021  0.1504  0.7550  1.2496
   57MOL0     C 7576   1.883   3.995   3.885  0.2781 -0.2282 -0.0913
   57MOL0     N 7577   1.777   3.892   3.867  0.3028  0.7117 -0.0684
   57MOL0     C 7578   1.642   3.927   3.843  0.8116 -0.5011  0.8074
   57MOL0     C 7579   1.580   3.811   3.817 -0.2809 -0.2952 -0.1756
   57MOL0     C 7580   1.433   3.777   3.815  0.1861 -0.8097 -0.5492
   57MOL0     C 7581   1.384   3.770   3.675 -0.9345  0.0976 -0.1635
   57MOL0     C 7582   1.408   3.897   3.599 -0.4131 -0.5631 -0.0224
   57MOL0     C 7583   1.353   3.883   3.458  0.5645  0.3011  0.4315
   57MOL0     O 7584   1.440   3.789   3.383 -0.1452 -0.0695 -0.3955
   57MOL0     C 7585   1.383   3.712   3.286 -0.0994 -0.6001  0.0591
   57MOL0     C 7586   1.483   3.631   3.240  0.2410  0.0398  0.9831
   57MOL0     C 7587   1.457   3.548   3.130 -0.2513  0.4400 -0.2619
   57MOL0     C 7588   1.582   3.470   3.088  0.8222 -0.2213  0.5798
   57MOL0     C 7589   1.328   3.540   3.066  0.1565 -0.1072 -0.5775
   57MOL0     C 7590   1.291   3.458   2.948  1.0970  0.7737 -0.3404
   57MOL0     O 7591   1.159   3.455   2.928  0.4329  0.3279 -0.9448
   57MOL0     C 7592   1.114   3.366   2.838  1.0267  0.2859 -0.2343
   57MOL0     C 7593   1.091   3.401   2.705 -0.0529  0.9874  0.8006
   57MOL0     C 7594   1.064   3.315   2.604  1.4864 -0.1118  0.1811
   57MOL0     C 7595   1.044   3.181   2.628  0.0494 -0.6476 -0.1891
   57MOL0     O 7596   0.993   3.115   2.520 -0.0864 -0.9253 -0.0441
   57MOL0     C 7597   0.914   2.996   2.555 -0.6923 -0.0926  0.2149
   57MOL0     C 7598   0.788   2.996   2.462 -0.0772 -0.3534 -0.3216
   57MOL0     C 7599   0.680   2.894   2.498 -0.3082 -0.2067 -0.3530
   57MOL0     C 7600   0.566   2.899   2.392  0.4473  0.7147 -0.2592
   57MOL0     C 7601   0.455   2.800   2.431 -0.2606 -0.3057  0.0461
   57MOL0     C 7602   0.323   2.820   2.347 -0.0904 -0.4196  0.1773
   57MOL0     C 7603   0.209   2.725   2.397 -0.3563 -0.5463 -0.3343
   57MOL0     C 7604   0.090   2.691   2.302  0.4497 -0.7061 -0.4093
   57MOL0    Cl 7605   0.031   2.522   2.338  0.1833  0.1680 -0.0888
   57MOL0     C 7606   1.063   3.140   2.763 -0.0620 -0.2127  0.4413
   57MOL0     C 7607   1.106   3.227   2.864  0.3661 -0.4627 -0.0558
   57MOL0     O 7608   1.376   3.377   2.897  0.1519 -0.7379 -0.0906
   57MOL0     C 7609   1.227   3.624   3.130 -0.1743 -0.5643  0.4474
   57MOL0     C 7610   1.256   3.712   3.238 -0.6256 -0.6449 -0.3401
   57MOL0     N 7611   1.664   3.708   3.844  0.3851 -0.3607 -0.2033
   57MOL0     N 7612   1.779   3.760   3.874  0.0108  0.3680  0.7938
   57MOL0     C 7613   2.833   4.092   4.019  0.1039  0.1137  0.3335
   57MOL0     C 7614   2.972   4.107   4.037  0.8583  0.4622 -1.1386
   57MOL0     C 7615   3.419   4.066   4.197 -0.0504  0.5092 -0.4089
   57MOL0     C 7616   3.470   4.072   4.069 -0.3528 -0.2818 -0.2847
   57MOL0     C 7617   3.610   4.074   4.043  0.2949  0.0710 -0.8151
   57MOL0     C 7618   3.705   4.077   4.154  0.1132  0.0887  0.0477
   57MOL0     O 7619   3.844   4.077   4.150 -0.4469 -0.3266 -0.2526
   57MOL0     C 7620   3.912   4.033   4.026  0.7584 -0.3184  0.1817
   57MOL0     C 7621   4.061   4.049   4.052  0.2789  0.3995 -0.4701
   57MOL0     C 7622   4.124   3.931   4.131  0.1335 -0.3106 -0.6974
   57MOL0     C 7623   4.270   3.921   4.121 -0.2481  1.2692  0.0429
   57MOL0     C 7624   4.306   3.856   3.993  0.0423 -0.1841  0.8580
   57MOL0     C 7625   4.355   3.831   3.889  0.1679 -0.2816 -0.6428
   57MOL0     C 7626   3.648   4.072   4.285 -0.5427  0.0709  0.1060
   57MOL0     C 7627   3.509   4.074   4.303 -0.0406 -0.6666 -0.5313
   57MOL0     H 7628   3.023   3.892   4.303  1.9066 -0.9860 -2.5306
   57MOL0     H 7629   2.796   3.890   4.301 -0.6256  1.0029  0.0459
   57MOL0     H 7630   2.576   4.190   4.086 -0.7240 -0.1706 -0.3807
   57MOL0     H 7631   2.584   4.084   3.944  2.7184 -0.9347  1.2486
   57MOL0     H 7632   2.391   3.963   4.009  1.4556 -0.6735  2.0201
   57MOL0     H 7633   2.379   4.067   4.164  0.9431  0.2897  0.5905
   57MOL0     H 7634   2.363   4.248   3.963  2.5719 -1.6310  0.9457
   57MOL0     H 7635   2.324   4.101   3.867 -2.5235  0.1519 -0.8393
   57MOL0     H 7636   2.160   4.041   4.043  2.2193 -1.1790  1.1631
   57MOL0     H 7637   2.187   4.194   4.138 -1.6912  0.5933 -0.6872
   57MOL0     H 7638   2.119   4.322   3.942  1.3211  0.2354  0.8039
   57MOL0     H 7639   2.082   4.161   3.866 -1.3317 -4.2115  2.7606
   57MOL0     H 7640   1.931   4.270   4.110  1.4841  1.0232 -0.5342
   57MOL0     H 7641   1.881   4.281   3.946  2.3843  4.4104  2.2068
   57MOL0     H 7642   1.929   4.014   4.093  0.3303  0.5320  0.9214
   57MOL0     H 7643   1.769   4.089   4.055  0.2436 -0.2113  1.9908
   57MOL0     H 7644   1.978   3.941   3.886  0.5063  0.0670 -2.2598
   57MOL0     H 7645   1.874   4.062   3.799 -2.4074  0.1255  0.3760
   57MOL0     H 7646   1.602   4.027   3.838 -1.9706 -1.5763 -0.2507
   57MOL0     H 7647   1.419   3.680   3.864 -0.3067  0.6413  2.4696
   57MOL0     H 7648   1.386   3.858   3.873  2.0653 -0.4823  0.5980
   57MOL0     H 7649   1.278   3.748   3.689 -0.8558 -0.2855 -0.1538
   57MOL0     H 7650   1.428   3.687   3.619 -0.4132 -0.5542  1.1526
   57MOL0     H 7651   1.515   3.920   3.598 -0.3744 -0.7081  0.4163
   57MOL0     H 7652   1.375   3.993   3.641  1.9052  0.4944 -0.4550
   57MOL0     H 7653   1.352   3.981   3.409  0.0023  0.8139  1.4390
   57MOL0     H 7654   1.249   3.849   3.459  0.3284 -0.0255 -4.7027
   57MOL0     H 7655   1.581   3.649   3.284 -0.0164  3.3803  0.5122
   57MOL0     H 7656   1.617   3.515   2.995 -2.2925  1.9747  0.2989
   57MOL0     H 7657   1.656   3.461   3.167 -0.2019 -1.2516  1.4669
   57MOL0     H 7658   1.556   3.365   3.069  0.5935 -0.1062  0.2344
   57MOL0     H 7659   1.129   3.499   2.678  0.4243  0.8641  1.0085
   57MOL0     H 7660   1.054   3.348   2.501 -0.8908  0.9005  0.6690
   57MOL0     H 7661   0.979   2.908   2.549 -0.5999 -0.1359  1.6082
   57MOL0     H 7662   0.881   2.985   2.658  0.7257 -0.8435  0.6144
   57MOL0     H 7663   0.750   3.097   2.476 -0.0450 -0.6751  2.8385
   57MOL0     H 7664   0.832   2.969   2.365 -1.7486 -2.3755 -0.5771
   57MOL0     H 7665   0.634   2.907   2.596 -3.4723  1.6194 -1.9150
   57MOL0     H 7666   0.725   2.794   2.493  2.3954  0.8846  0.3020
   57MOL0     H 7667   0.530   3.003   2.398  3.8289  2.1427 -1.9992
   57MOL0     H 7668   0.601   2.882   2.290  0.9595 -0.7465  0.1326
   57MOL0     H 7669   0.440   2.801   2.539  2.1795  0.7685  0.4308
   57MOL0     H 7670   0.499   2.704   2.403 -1.1134 -0.4098 -1.0256
   57MOL0     H 7671   0.289   2.923   2.359  2.3230  0.8249 -2.5100
   57MOL0     H 7672   0.342   2.810   2.240  1.0491 -0.2126  0.3506
   57MOL0     H 7673   0.164   2.770   2.486  1.4348 -0.6688  0.6738
   57MOL0     H 7674   0.256   2.630   2.424 -1.2520 -1.2211 -1.0721
   57MOL0     H 7675   0.121   2.685   2.198  1.3086 -1.0248 -0.1476
   57MOL0     H 7676   0.014   2.769   2.314  1.1390 -0.3578  2.4844
   57MOL0     H 7677   1.046   3.040   2.802  0.1562 -1.0299 -1.4167
   57MOL0     H 7678   1.105   3.202   2.970  0.7488  2.4881  0.7431
   57MOL0     H 7679   1.125   3.629   3.096 -1.2295 -2.6731  2.9410
   57MOL0     H 7680   1.190   3.791   3.274 -0.6703 -0.3934 -0.9663
   57MOL0     H 7681   2.777   4.147   3.944 -1.1328  1.5912  2.2403
   57MOL0     H 7682   3.028   4.172   3.971  2.3100 -0.0451 -0.4325
   57MOL0     H 7683   3.389   4.069   3.997 -0.2974 -3.5282 -0.3389
   57MOL0     H 7684   3.642   4.062   3.940 -1.4304 -0.4311 -1.3112
   57MOL0     H 7685   3.882   3.929   4.008 -4.2208  0.6356  1.3669
   57MOL0     H 7686   3.879   4.103   3.949 -2.3868  1.2865  2.7147
   57MOL0     H 7687   4.088   4.142   4.103 -0.8478 -0.4781  1.8995
   57MOL0     H 7688   4.095   4.034   3.950 -0.1154  4.8402 -1.4549
   57MOL0     H 7689   4.078   3.845   4.080 -2.6688  2.3551 -3.0743
   57MOL0     H 7690   4.098   3.927   4.237  6.0671 -2.8134  1.0682
   57MOL0     H 7691   4.293   3.841   4.192 -2.3262 -1.6890 -2.3335
   57MOL0     H 7692   4.331   4.010   4.138  1.8332 -0.0054 -0.3706
   57MOL0     H 7693   4.390   3.825   3.788 -1.8627 -2.7483 -1.2943
   57MOL0     H 7694   3.717   4.077   4.369 -0.6642 -2.6737  0.4478
   57MOL0     H 7695   3.470   4.055   4.403  1.4559 -0.2131  0.1626
   58MOL0     O 7696  11.196  10.481   2.858  0.3378  0.2669 -0.5055
   58MOL0     C 7697  11.172  10.457   2.974  0.9231  0.9739  0.6941
   58MOL0     O 7698  11.054  10.414   3.023  0.0643  0.8997 -0.2367
   58MOL0     C 7699  10.956  10.389   2.929 -0.4233  0.2005 -0.9361
   58MOL0     C 7700  10.856  10.479   2.919 -0.1641  0.0238 -0.2153
   58MOL0     C 7701  10.746  10.460   2.831  0.0045 -0.2659  0.1252
   58MOL0     C 7702  10.746  10.355   2.748 -0.5360 -0.1735  0.5625
   58MOL0     O 7703  10.650  10.325   2.653  0.7895 -0.2435 -0.1580
   58MOL0     C 7704  10.531  10.405   2.656  0.3686  0.4000 -0.3760
   58MOL0     C 7705  10.407  10.350   2.582 -0.0969  0.1190 -0.4497
   58MOL0     C 7706  10.272  10.392   2.644  0.1534  1.0020  0.0827
   58MOL0     C 7707  10.152  10.348   2.556  0.4631 -0.4379 -0.1623
   58MOL0     C 7708  10.013  10.362   2.639  0.3587 -0.2994 -0.0094
   58MOL0     C 7709   9.898  10.282   2.569 -0.5439 -0.4340  0.3748
   58MOL0     C 7710   9.771  10.298   2.646  0.2453  0.0309  0.3504
   58MOL0     C 7711   9.664  10.221   2.573  0.0894 -0.4171  0.1738
   58MOL0     N 7712   9.554  10.181   2.665  0.7709  0.0678  0.2704
   58MOL0     C 7713   9.466  10.259   2.732 -0.5208 -0.1038  0.7902
   58MOL0     C 7714   9.400  10.170   2.810  0.4700  0.1354 -0.6008
   58MOL0     C 7715   9.288  10.188   2.917 -0.5240 -0.4692  0.6197
   58MOL0     C 7716   9.333  10.134   3.053 -1.0254 -0.5107  0.5374
   58MOL0     C 7717   9.442  10.227   3.100  0.2571  0.5695  0.3283
   58MOL0     C 7718   9.503  10.181   3.232 -0.2246  0.1025 -0.1390
   58MOL0     O 7719   9.529  10.292   3.313 -0.2478 -0.1996  0.3908
   58MOL0     C 7720   9.457  10.298   3.430 -0.5295 -0.1075  0.4947
   58MOL0     C 7721   9.526  10.283   3.553 -0.5540  0.7356 -0.1394
   58MOL0     C 7722   9.460  10.299   3.671  0.3582 -0.1345 -0.2807
   58MOL0     C 7723   9.537  10.301   3.799 -0.6301  0.0278  0.1849
   58MOL0     C 7724   9.322  10.331   3.665 -0.6067  0.9762  1.1331
   58MOL0     C 7725   9.239  10.356   3.783  0.3468  0.4333  0.0357
   58MOL0     O 7726   9.132  10.445   3.762 -0.3609 -0.2914  0.5252
   58MOL0     C 7727   9.042  10.468   3.856 -0.3099 -0.9963  0.1336
   58MOL0     C 7728   8.912  10.447   3.811  0.1081  0.4394 -0.7871
   58MOL0     C 7729   8.805  10.489   3.899 -0.1092  0.4350  0.3707
   58MOL0     C 7730   8.831  10.537   4.028  0.2953  0.1298 -0.0384
   58MOL0     O 7731   8.734  10.583   4.116  0.0529  0.3107 -0.3396
   58MOL0     C 7732   8.608  10.630   4.064 -0.5696  0.6816 -0.0523
   58MOL0     C 7733   8.511  10.511   4.059 -0.0300 -0.4355  0.2628
   58MOL0     C 7734   8.388  10.549   3.974 -0.1370 -0.4059  0.5712
   58MOL0     C 7735   8.317  10.676   4.018  0.5564 -0.7390  0.2708
   58MOL0     C 7736   8.182  10.680   3.945  0.0342  0.9626 -0.1638
   58MOL0     C 7737   8.114  10.817   3.969  0.0760  0.9277  0.9217
   58MOL0     C 7738   7.997  10.832   3.867 -0.1210 -0.0664 -0.4092
   58MOL0     C 7739   8.050  10.881   3.733 -0.1832  0.6023  0.0729
   58MOL0    Cl 7740   8.043  11.058   3.746 -0.1918 -0.3378 -0.0754
   58MOL0     C 7741   8.961  10.552   4.077  0.0389  1.1545  0.1318
   58MOL0     C 7742   9.065  10.514   3.989 -0.1020 -0.4136 -0.3480
   58MOL0     O 7743   9.253  10.273   3.870 -0.3081  0.3985  0.3042
   58MOL0     C 7744   9.256  10.324   3.540  0.2992 -0.4908  0.3334
   58MOL0     C 7745   9.324  10.315   3.425 -0.1133  0.7463 -0.8617
   58MOL0     N 7746   9.464  10.052   2.805  1.2949 -0.0840 -0.7057
   58MOL0     N 7747   9.550  10.050   2.716 -0.0755 -0.5818  0.9484
   58MOL0     C 7748  10.858  10.271   2.744 -0.1369 -0.4884  0.4228
   58MOL0     C 7749  10.965  10.290   2.832 -0.2650 -0.2109  0.6777
   58MOL0     C 7750  11.283  10.481   3.070  0.5062 -0.0945 -0.4484
   58MOL0     C 7751  11.256  10.507   3.200 -0.1648  0.2355 -0.3712
   58MOL0     C 7752  11.360  10.529   3.286 -0.3148 -0.1537  0.0789
   58MOL0     C 7753  11.488  10.535   3.242  0.0841  0.2667  0.6879
   58MOL0     O 7754  11.584  10.594   3.329 -0.1039  1.0396  0.3715
   58MOL0     C 7755  11.716  10.616   3.274 -0.1067  0.4523  0.8902
   58MOL0     C 7756  11.814  10.648   3.392 -0.3038 -0.0321  0.2525
   58MOL0     C 7757  11.937  10.727   3.335  0.4265  0.9785  0.8650
   58MOL0     C 7758  12.012  10.666   3.210 -0.8278 -0.3916 -0.3915
   58MOL0     C 7759  12.053  10.532   3.234 -0.0858 -0.6727 -0.2698
   58MOL0     C 7760  12.108  10.429   3.269 -0.3934  0.1360 -0.2865
   58MOL0     C 7761  11.514  10.502   3.106  0.3712 -0.1745 -0.6120
   58MOL0     C 7762  11.411  10.478   3.015  0.7714 -0.6442 -0.9581
   58MOL0     H 7763  10.844  10.566   2.982  0.7364  0.7837 -1.0569
   58MOL0     H 7764  10.664  10.530   2.834  0.7563  0.6332  0.2034
   58MOL0     H 7765  10.501  10.411   2.760  1.5509  2.2657 -0.0953
   58MOL0     H 7766  10.547  10.509   2.624  0.8572  0.2656 -0.5725
   58MOL0     H 7767  10.416  10.379   2.477 -2.0700  1.5864 -0.2699
   58MOL0     H 7768  10.407  10.240   2.583 -1.8715  0.0569  2.1671
   58MOL0     H 7769  10.258  10.350   2.743 -1.2585  2.1391  0.4066
   58MOL0     H 7770  10.266  10.501   2.655  1.2936  0.8388  3.6532
   58MOL0     H 7771  10.136  10.412   2.468 -1.3563 -1.3084 -0.5161
   58MOL0     H 7772  10.164  10.244   2.523  0.3931 -0.7525  0.7704
   58MOL0     H 7773  10.026  10.324   2.740  3.7354  1.5892  0.4484
   58MOL0     H 7774   9.989  10.468   2.653  1.0391 -0.0573 -0.5834
   58MOL0     H 7775   9.886  10.305   2.463  0.7301  0.2154  0.3476
   58MOL0     H 7776   9.927  10.176   2.564  0.2248 -0.1858 -2.8929
   58MOL0     H 7777   9.784  10.267   2.750 -0.9952  3.1640  1.5712
   58MOL0     H 7778   9.730  10.400   2.646 -0.9848 -0.4486 -0.2025
   58MOL0     H 7779   9.705  10.125   2.542 -1.6348 -0.8315 -0.9627
   58MOL0     H 7780   9.632  10.272   2.482 -0.6621 -3.4547 -1.3681
   58MOL0     H 7781   9.462  10.367   2.720  0.2106 -0.0485  1.0081
   58MOL0     H 7782   9.263  10.295   2.919 -3.2494 -0.9528 -1.2504
   58MOL0     H 7783   9.203  10.128   2.884  0.9158 -2.1710 -0.1603
   58MOL0     H 7784   9.374  10.033   3.040 -2.3088 -1.2759  2.0420
   58MOL0     H 7785   9.255  10.127   3.129  0.2160  0.1015  1.9075
   58MOL0     H 7786   9.396  10.325   3.117 -3.0190 -0.7195 -0.4092
   58MOL0     H 7787   9.517  10.242   3.022 -0.9582 -0.2200 -1.0293
   58MOL0     H 7788   9.592  10.120   3.217 -1.6860 -3.2854  3.3209
   58MOL0     H 7789   9.419  10.131   3.281 -0.5511  1.9731  1.3205
   58MOL0     H 7790   9.634  10.273   3.552 -0.6116 -3.2261  3.6278
   58MOL0     H 7791   9.525  10.203   3.846 -0.5133  1.4210  3.4184
   58MOL0     H 7792   9.641  10.313   3.768 -0.6055 -0.2458  0.1591
   58MOL0     H 7793   9.502  10.374   3.873 -1.9554 -1.5889  1.2214
   58MOL0     H 7794   8.891  10.407   3.712  1.3903 -3.0074  0.1982
   58MOL0     H 7795   8.706  10.469   3.859 -0.2814  1.6642  0.1403
   58MOL0     H 7796   8.563  10.714   4.117 -0.7547 -0.1217  1.0938
   58MOL0     H 7797   8.615  10.676   3.964 -2.3933  0.2623 -0.4150
   58MOL0     H 7798   8.552  10.417   4.020  2.8383  1.5429 -1.8625
   58MOL0     H 7799   8.479  10.501   4.163  0.9139  0.1983  0.6189
   58MOL0     H 7800   8.315  10.468   3.981  0.8544 -1.3803 -0.1241
   58MOL0     H 7801   8.413  10.550   3.868  3.6439 -2.3116  1.2288
   58MOL0     H 7802   8.289  10.671   4.123 -0.2874 -0.3776  0.0644
   58MOL0     H 7803   8.373  10.769   4.000 -1.1641  0.6169  1.6232
   58MOL0     H 7804   8.124  10.595   3.981  3.5330 -1.1702  1.0244
   58MOL0     H 7805   8.203  10.667   3.839 -1.5744 -0.8385 -0.3120
   58MOL0     H 7806   8.083  10.814   4.073  1.1052 -1.1555  1.2213
   58MOL0     H 7807   8.186  10.899   3.966 -0.5821  1.5019  0.7036
   58MOL0     H 7808   7.923  10.899   3.912  0.7752 -0.9487  2.6288
   58MOL0     H 7809   7.941  10.739   3.854 -1.5897  0.6829  0.4193
   58MOL0     H 7810   7.991  10.843   3.649  2.8053 -0.8885 -1.5004
   58MOL0     H 7811   8.151  10.847   3.712  0.1174  2.3200 -1.6330
   58MOL0     H 7812   8.991  10.578   4.178 -1.4603 -1.9007  1.4897
   58MOL0     H 7813   9.160  10.515   4.042 -1.1210  2.2197  1.6671
   58MOL0     H 7814   9.149  10.329   3.557  0.6107 -0.5389  2.5048
   58MOL0     H 7815   9.275  10.320   3.328  2.9652  1.2814 -2.5199
   58MOL0     H 7816  10.857  10.189   2.672  1.7549 -0.3320  0.1794
   58MOL0     H 7817  11.051  10.225   2.813  0.3443  0.6308  0.4998
   58MOL0     H 7818  11.152  10.500   3.230 -0.8850 -0.6179 -2.8359
   58MOL0     H 7819  11.330  10.545   3.389 -0.5960  2.6070 -0.3537
   58MOL0     H 7820  11.753  10.529   3.220  0.4102 -0.7208  3.0343
   58MOL0     H 7821  11.699  10.706   3.214 -4.5789 -0.4719  0.3901
   58MOL0     H 7822  11.834  10.556   3.447 -1.2450 -0.8512 -0.7187
   58MOL0     H 7823  11.753  10.711   3.457 -0.3178 -1.2085  1.4103
   58MOL0     H 7824  12.018  10.734   3.407  3.3728 -0.4288 -2.0661
   58MOL0     H 7825  11.900  10.826   3.308  0.3126  0.4272 -1.2057
   58MOL0     H 7826  12.090  10.735   3.177  2.5876 -3.4012  0.7731
   58MOL0     H 7827  11.947  10.671   3.122 -0.9242  1.9022 -0.2474
   58MOL0     H 7828  12.164  10.341   3.290 -1.8279 -0.6177  0.5751
   58MOL0     H 7829  11.610  10.496   3.054 -0.2979 -2.3656 -1.7142
   58MOL0     H 7830  11.435  10.464   2.910 -1.4935 -0.6021 -1.5388
   59MOL0     O 7831   2.096   2.277   0.320 -0.2476  0.1612 -0.5943
   59MOL0     C 7832   2.094   2.268   0.198  0.0076  0.5189 -0.0020
   59MOL0     O 7833   1.987   2.301   0.117  0.4833  0.2408 -0.5119
   59MOL0     C 7834   1.864   2.324   0.178 -0.0417  0.6997  0.0866
   59MOL0     C 7835   1.808   2.237   0.266 -0.0359 -0.7443  0.1285
   59MOL0     C 7836   1.683   2.253   0.319 -0.2534  0.2438  0.5375
   59MOL0     C 7837   1.601   2.361   0.285 -0.3059 -0.3141  0.7222
   59MOL0     O 7838   1.480   2.381   0.340 -0.9031 -0.0185 -0.1040
   59MOL0     C 7839   1.442   2.327   0.460  0.4578 -0.4216  0.9039
   59MOL0     C 7840   1.307   2.362   0.499 -0.2042 -0.3290 -0.2123
   59MOL0     C 7841   1.207   2.352   0.381 -0.2052 -0.0905 -0.3535
   59MOL0     C 7842   1.062   2.364   0.435 -0.0613 -0.3022 -0.1565
   59MOL0     C 7843   0.955   2.313   0.331 -0.7343  0.7646 -0.2778
   59MOL0     C 7844   0.820   2.380   0.343 -0.2049 -0.2961  0.4160
   59MOL0     C 7845   0.773   2.405   0.496  0.1180 -0.2922 -0.1557
   59MOL0     C 7846   0.737   2.277   0.562  0.3697  0.3553  0.5609
   59MOL0     N 7847   0.626   2.216   0.494  0.3026 -0.3920 -0.1555
   59MOL0     C 7848   0.502   2.261   0.469  0.4200 -0.4517 -0.8049
   59MOL0     C 7849   0.430   2.161   0.423 -0.1400  0.6244 -0.2199
   59MOL0     C 7850   0.296   2.150   0.357  0.4350 -0.3065 -0.0114
   59MOL0     C 7851   0.175   2.186   0.451  0.3247  0.0892 -0.0260
   59MOL0     C 7852   0.052   2.152   0.369  0.1510  0.7298 -0.0080
   59MOL0     C 7853  -0.079   2.194   0.427 -0.1970  0.1690 -0.2422
   59MOL0     O 7854  -0.087   2.166   0.574  0.3357 -0.2207  0.1109
   59MOL0     C 7855  -0.214   2.182   0.634  1.1319  0.5077 -0.6270
   59MOL0     C 7856  -0.241   2.093   0.737 -0.2787 -0.4174 -1.0358
   59MOL0     C 7857  -0.364   2.083   0.807 -0.3364 -0.1101  0.7287
   59MOL0     C 7858  -0.370   1.989   0.928 -0.1265 -0.3489 -0.2038
   59MOL0     C 7859  -0.471   2.169   0.778  0.4265  0.1246  0.3404
   59MOL0     C 7860  -0.599   2.182   0.840  0.4116 -0.3677 -0.5799
   59MOL0     O 7861  -0.609   2.125   0.967 -0.0850  0.2512 -0.1275
   59MOL0     C 7862  -0.741   2.103   1.015 -0.3960 -0.4306  0.1396
   59MOL0     C 7863  -0.778   2.162   1.129 -0.6913  0.0218 -1.0539
   59MOL0     C 7864  -0.906   2.158   1.168  0.3574 -0.1517 -0.3046
   59MOL0     C 7865  -1.012   2.086   1.101  0.6091  0.6773 -0.3903
   59MOL0     O 7866  -1.141   2.086   1.153  0.0979 -0.4164 -0.5822
   59MOL0     C 7867  -1.255   2.043   1.072 -1.3012 -0.2746 -0.3831
   59MOL0     C 7868  -1.388   2.026   1.147  0.3683  0.2843 -0.5807
   59MOL0     C 7869  -1.452   2.165   1.186  0.3512  0.4577 -0.6495
   59MOL0     C 7870  -1.544   2.214   1.065 -0.0971 -1.0654  1.2375
   59MOL0     C 7871  -1.606   2.352   1.085 -0.8174  0.2973 -0.2939
   59MOL0     C 7872  -1.697   2.392   0.965  0.4184  0.4412  0.5914
   59MOL0     C 7873  -1.763   2.527   0.990 -0.3987  0.3774  0.5873
   59MOL0     C 7874  -1.921   2.517   1.002 -0.3129  0.7074  0.4830
   59MOL0    Cl 7875  -1.996   2.674   1.017  0.1361 -0.5350  0.2086
   59MOL0     C 7876  -0.973   2.031   0.976 -0.1964  0.3136 -0.0274
   59MOL0     C 7877  -0.839   2.034   0.938  0.2195  0.1719  0.5045
   59MOL0     O 7878  -0.688   2.253   0.787 -0.4823  0.7051 -0.3533
   59MOL0     C 7879  -0.442   2.255   0.665 -0.3281  0.4514 -0.1726
   59MOL0     C 7880  -0.319   2.272   0.604 -0.3277  0.5579  1.0031
   59MOL0     N 7881   0.519   2.054   0.428 -0.0196  0.4054  0.4846
   59MOL0     N 7882   0.640   2.089   0.469  0.0296  0.1984  0.4007
   59MOL0     C 7883   1.655   2.443   0.183  0.5207 -0.0731 -1.2822
   59MOL0     C 7884   1.784   2.430   0.134  0.8837  0.4349 -1.9095
   59MOL0     C 7885   2.221   2.232   0.137  0.1102  0.0670  0.2788
   59MOL0     C 7886   2.327   2.186   0.214 -0.5393 -0.0820 -0.6171
   59MOL0     C 7887   2.445   2.145   0.153 -0.4900  0.5556 -0.2396
   59MOL0     C 7888   2.460   2.139   0.016 -0.2167 -0.1014 -0.0854
   59MOL0     O 7889   2.571   2.094  -0.053  0.3889  0.3871  0.2127
   59MOL0     C 7890   2.682   2.047   0.034 -0.8699 -0.2641 -0.2999
   59MOL0     C 7891   2.797   2.015  -0.060  0.3983  0.5667 -0.5554
   59MOL0     C 7892   2.909   1.934   0.010  0.6305 -0.8389  0.0819
   59MOL0     C 7893   3.035   1.937  -0.071  0.3238  0.0569 -0.5347
   59MOL0     C 7894   3.017   1.920  -0.216  0.4836  0.1619 -0.0483
   59MOL0     C 7895   2.971   1.904  -0.328 -0.3798 -0.8086  0.1730
   59MOL0     C 7896   2.354   2.185  -0.066  0.3497 -0.2967  0.1170
   59MOL0     C 7897   2.233   2.236  -0.009 -0.0884 -0.0499 -0.7454
   59MOL0     H 7898   1.853   2.143   0.295 -1.1885 -1.3263  0.0648
   59MOL0     H 7899   1.655   2.186   0.400  1.3454  0.6316  1.4584
   59MOL0     H 7900   1.435   2.220   0.437 -2.3481 -0.0087 -0.5935
   59MOL0     H 7901   1.506   2.336   0.548 -0.0603 -3.6309  1.7400
   59MOL0     H 7902   1.273   2.285   0.569  1.0606  1.8943  3.0774
   59MOL0     H 7903   1.307   2.456   0.554  2.6317 -1.2600  1.6237
   59MOL0     H 7904   1.230   2.431   0.308 -0.9954 -0.6681 -1.2478
   59MOL0     H 7905   1.211   2.254   0.333 -1.1146 -0.2964 -0.0247
   59MOL0     H 7906   1.058   2.305   0.528 -3.7815 -0.2570 -0.1260
   59MOL0     H 7907   1.052   2.471   0.456  0.2061 -0.3755  0.3769
   59MOL0     H 7908   0.992   2.331   0.229  2.0067 -1.8978  0.0985
   59MOL0     H 7909   0.944   2.206   0.352  0.0200  1.2708  3.2707
   59MOL0     H 7910   0.811   2.475   0.289 -3.8412 -1.7376 -1.9121
   59MOL0     H 7911   0.751   2.309   0.297  1.3374 -3.0557  2.0857
   59MOL0     H 7912   0.850   2.469   0.541 -1.2897  2.2572 -1.1577
   59MOL0     H 7913   0.679   2.460   0.494 -0.3764 -1.1127  0.1311
   59MOL0     H 7914   0.719   2.292   0.669 -1.3175 -4.0884  1.0916
   59MOL0     H 7915   0.824   2.211   0.559  1.2294  1.4893 -0.5092
   59MOL0     H 7916   0.450   2.353   0.493 -0.7423 -1.4316  0.6061
   59MOL0     H 7917   0.307   2.222   0.276 -2.7294  0.8825  0.4840
   59MOL0     H 7918   0.289   2.046   0.326  0.9740 -0.6644  0.9903
   59MOL0     H 7919   0.169   2.293   0.470  1.2632  0.0421  0.5997
   59MOL0     H 7920   0.177   2.130   0.545  0.2538  1.4129  0.7738
   59MOL0     H 7921   0.056   2.044   0.354  1.1713  0.8251 -0.4559
   59MOL0     H 7922   0.061   2.199   0.271 -2.3187  1.4820  0.0586
   59MOL0     H 7923  -0.157   2.135   0.377  0.5379  0.0331 -1.2383
   59MOL0     H 7924  -0.098   2.300   0.410 -2.9070  0.0357  1.3100
   59MOL0     H 7925  -0.159   2.028   0.766  0.0369  0.2891 -0.3057
   59MOL0     H 7926  -0.351   2.033   1.027 -0.4080 -1.7679  0.4990
   59MOL0     H 7927  -0.463   1.933   0.934  0.7480 -1.6911  2.7677
   59MOL0     H 7928  -0.295   1.911   0.914 -2.4218 -2.8380  0.6672
   59MOL0     H 7929  -0.704   2.214   1.190 -2.1830 -0.1387  1.0211
   59MOL0     H 7930  -0.925   2.213   1.259  0.7029 -1.8466  0.8388
   59MOL0     H 7931  -1.270   2.115   0.991  1.8782  3.0177  1.6677
   59MOL0     H 7932  -1.227   1.949   1.023 -1.9245 -2.0061  2.3720
   59MOL0     H 7933  -1.456   1.972   1.080 -1.8638 -1.0254  2.5410
   59MOL0     H 7934  -1.378   1.980   1.245  0.4828 -0.6783 -1.0300
   59MOL0     H 7935  -1.370   2.236   1.202  1.6149 -0.9843 -0.5438
   59MOL0     H 7936  -1.519   2.152   1.272  1.2324 -0.5597 -0.0976
   59MOL0     H 7937  -1.477   2.222   0.979 -3.4372  2.5322 -1.3886
   59MOL0     H 7938  -1.625   2.145   1.040 -2.2873  2.0659 -1.1911
   59MOL0     H 7939  -1.531   2.430   1.095  1.1362 -1.4663 -0.5250
   59MOL0     H 7940  -1.663   2.344   1.178  1.4133  0.8474  1.1844
   59MOL0     H 7941  -1.639   2.394   0.873 -0.3498  1.1175  0.1113
   59MOL0     H 7942  -1.774   2.317   0.945 -1.3461  2.2215  0.3300
   59MOL0     H 7943  -1.746   2.575   0.893  1.3433 -0.6650  0.3411
   59MOL0     H 7944  -1.708   2.586   1.064  1.6224  0.5773 -0.9665
   59MOL0     H 7945  -1.941   2.440   1.077  1.3569  0.8201  1.0656
   59MOL0     H 7946  -1.949   2.481   0.902  2.5246  2.7179 -1.1756
   59MOL0     H 7947  -1.038   1.968   0.916  2.8505 -1.9284 -1.2007
   59MOL0     H 7948  -0.819   1.987   0.843 -1.2097 -2.1474  1.2642
   59MOL0     H 7949  -0.512   2.316   0.608 -2.8030 -0.7374  1.3996
   59MOL0     H 7950  -0.288   2.338   0.524 -2.1975  0.5527  0.2350
   59MOL0     H 7951   1.594   2.524   0.144 -1.0044  0.8919  2.7164
   59MOL0     H 7952   1.824   2.501   0.062  0.9716  1.0420 -1.2781
   59MOL0     H 7953   2.324   2.193   0.323 -0.8496 -1.0384 -0.5474
   59MOL0     H 7954   2.525   2.099   0.210 -1.7317  1.2745  2.2131
   59MOL0     H 7955   2.726   2.118   0.104 -1.5703 -1.0471  0.9653
   59MOL0     H 7956   2.650   1.957   0.087  2.8985 -0.6966  1.5882
   59MOL0     H 7957   2.830   2.110  -0.103  1.7012  1.2738  1.7856
   59MOL0     H 7958   2.759   1.959  -0.146 -1.1501  0.3505  0.2373
   59MOL0     H 7959   2.876   1.830   0.025  0.1655 -0.5029  1.5600
   59MOL0     H 7960   2.925   1.968   0.112 -1.5216 -1.6744  0.7690
   59MOL0     H 7961   3.108   1.859  -0.045 -2.3434 -3.5586 -2.9898
   59MOL0     H 7962   3.073   2.038  -0.051 -1.0800  0.2391  1.5372
   59MOL0     H 7963   2.959   1.901  -0.435 -1.4406 -0.1937  0.2576
   59MOL0     H 7964   2.362   2.170  -0.173  1.8979 -0.6883  0.2508
   59MOL0     H 7965   2.147   2.269  -0.067  0.4543  0.8929 -1.0398
   60MOL0     O 7966   5.632   5.727   3.368  0.1796 -0.2476  0.3504
   60MOL0     C 7967   5.640   5.727   3.494 -0.1675 -0.8426 -0.0711
   60MOL0     O 7968   5.755   5.746   3.565  0.0376 -0.0551 -0.2679
   60MOL0     C 7969   5.876   5.740   3.500  0.6835 -0.3936 -0.0995
   60MOL0     C 7970   5.985   5.813   3.552 -0.5468  0.2183 -0.1022
   60MOL0     C 7971   6.117   5.798   3.505  0.5263  0.4478 -0.2224
   60MOL0     C 7972   6.142   5.706   3.406  0.1640 -0.3209 -0.0375
   60MOL0     O 7973   6.267   5.708   3.360  0.4835 -0.4217  0.6972
   60MOL0     C 7974   6.310   5.614   3.265  0.1627 -0.4436 -0.0038
   60MOL0     C 7975   6.465   5.619   3.246 -1.0828  0.5530  0.0680
   60MOL0     C 7976   6.520   5.758   3.221  0.0994 -0.1335 -0.6859
   60MOL0     C 7977   6.445   5.839   3.121 -0.3616  0.5539  0.4447
   60MOL0     C 7978   6.471   5.782   2.973 -0.2205  0.5340 -0.6024
   60MOL0     C 7979   6.404   5.870   2.866  1.0281  0.2703 -0.8948
   60MOL0     C 7980   6.251   5.844   2.869 -0.8993  0.8066  0.3852
   60MOL0     C 7981   6.173   5.948   2.949 -1.0817 -0.5045  0.3248
   60MOL0     N 7982   6.030   5.930   2.931  0.8615 -0.6820 -0.8766
   60MOL0     C 7983   5.966   5.812   2.959 -0.6254  0.2657 -0.0333
   60MOL0     C 7984   5.844   5.824   2.902  0.2299  0.2075  0.2795
   60MOL0     C 7985   5.719   5.736   2.908  0.3909  1.0290  0.3252
   60MOL0     C 7986   5.596   5.818   2.950  0.1825  0.1621 -0.2364
   60MOL0     C 7987   5.602   5.883   3.086  0.5730  0.1131  0.0533
   60MOL0     C 7988   5.467   5.889   3.164 -0.1564  0.3381 -0.3600
   60MOL0     O 7989   5.382   5.979   3.096  0.0295 -0.1062 -0.0544
   60MOL0     C 7990   5.259   6.004   3.153  0.3912  0.0785  0.1001
   60MOL0     C 7991   5.170   6.083   3.080 -0.5231  0.0073  0.2647
   60MOL0     C 7992   5.045   6.109   3.132 -0.3355 -0.1986  0.3058
   60MOL0     C 7993   4.969   6.221   3.064  0.2170  0.5731 -0.3302
   60MOL0     C 7994   4.989   6.046   3.247 -0.8071  0.5953 -0.1962
   60MOL0     C 7995   4.851   6.057   3.302 -0.6731  0.7137 -0.2802
   60MOL0     O 7996   4.818   5.967   3.397 -0.0291  0.2644 -0.2493
   60MOL0     C 7997   4.688   5.944   3.432  0.0990  0.1462 -0.0973
   60MOL0     C 7998   4.605   6.052   3.476  0.8158  0.3835  0.7633
   60MOL0     C 7999   4.470   6.029   3.492  0.5659 -0.1087  0.2286
   60MOL0     C 8000   4.408   5.901   3.474  0.5866 -0.3185  0.3338
   60MOL0     O 8001   4.273   5.868   3.490 -0.6993  0.1168 -0.6301
   60MOL0     C 8002   4.201   5.936   3.591 -0.0288 -0.4678  0.6452
   60MOL0     C 8003   4.116   5.843   3.672 -0.1922 -0.7849  0.4486
   60MOL0     C 8004   4.207   5.751   3.745 -0.0885  0.0188  0.4072
   60MOL0     C 8005   4.273   5.825   3.865 -0.0804  0.3722  0.7918
   60MOL0     C 8006   4.330   5.723   3.968  0.3026  1.3979 -0.4788
   60MOL0     C 8007   4.211   5.646   4.039  0.1412 -0.7803 -0.3914
   60MOL0     C 8008   4.280   5.561   4.154  0.4834  0.4406  0.4639
   60MOL0     C 8009   4.172   5.508   4.253  0.1168 -0.3272  0.4239
   60MOL0    Cl 8010   4.259   5.407   4.371  0.7782  0.1957 -0.0843
   60MOL0     C 8011   4.490   5.801   3.447 -0.4627  0.0935  0.0115
   60MOL0     C 8012   4.628   5.824   3.421  0.2141  0.0634  0.1083
   60MOL0     O 8013   4.790   6.157   3.279  0.5334 -0.6610  0.6939
   60MOL0     C 8014   5.075   5.959   3.311 -0.5805  0.4258 -0.6847
   60MOL0     C 8015   5.204   5.931   3.258 -0.1021  0.8651  0.1825
   60MOL0     N 8016   5.837   5.937   2.825  0.4600  0.4555  0.2010
   60MOL0     N 8017   5.941   6.001   2.857  0.7304  0.5786 -0.1872
   60MOL0     C 8018   6.034   5.627   3.355 -1.0269 -0.0427 -0.4150
   60MOL0     C 8019   5.906   5.647   3.403 -0.4382  0.8123 -0.1655
   60MOL0     C 8020   5.509   5.711   3.567 -0.0986  0.8126 -0.6346
   60MOL0     C 8021   5.498   5.692   3.707  0.5694 -0.5252  0.1606
   60MOL0     C 8022   5.379   5.661   3.774  0.3241  0.1729  0.2607
   60MOL0     C 8023   5.262   5.660   3.700 -0.5835 -0.2613  0.3961
   60MOL0     O 8024   5.145   5.650   3.781 -0.4202  0.1566  0.2276
   60MOL0     C 8025   5.019   5.681   3.722  0.4831  0.6761  0.8928
   60MOL0     C 8026   4.917   5.709   3.828  0.2088 -0.7528 -0.0939
   60MOL0     C 8027   4.784   5.742   3.755  0.0870 -0.9004  0.7024
   60MOL0     C 8028   4.662   5.767   3.850 -0.9910  0.1572 -0.7848
   60MOL0     C 8029   4.678   5.877   3.953  0.7360 -0.1659  0.9477
   60MOL0     C 8030   4.712   5.963   4.025  0.1430 -0.3825 -0.3444
   60MOL0     C 8031   5.262   5.669   3.560 -0.0003  0.8918 -0.6834
   60MOL0     C 8032   5.389   5.695   3.499  0.4845  0.3078 -0.6247
   60MOL0     H 8033   5.953   5.882   3.629 -2.3441  1.3725 -1.7877
   60MOL0     H 8034   6.197   5.866   3.532 -0.0864  1.6050 -1.2302
   60MOL0     H 8035   6.277   5.517   3.304  1.1489 -0.8213 -0.0943
   60MOL0     H 8036   6.263   5.631   3.168 -0.9178 -3.8107 -0.1796
   60MOL0     H 8037   6.506   5.579   3.339 -0.6264  0.1763 -0.2950
   60MOL0     H 8038   6.496   5.546   3.172  2.2360  2.5679 -0.7535
   60MOL0     H 8039   6.513   5.810   3.317  0.7435  0.7759 -1.1212
   60MOL0     H 8040   6.624   5.754   3.187  0.1519 -1.0206 -0.4600
   60MOL0     H 8041   6.337   5.832   3.130 -0.5959  0.0221 -1.9801
   60MOL0     H 8042   6.488   5.939   3.130  3.3355 -0.7868 -0.4346
   60MOL0     H 8043   6.578   5.784   2.954 -0.0113 -0.4785  0.3338
   60MOL0     H 8044   6.453   5.674   2.965  0.6046  0.4993 -2.2868
   60MOL0     H 8045   6.430   5.976   2.877 -4.2898  1.9599 -1.6827
   60MOL0     H 8046   6.432   5.834   2.767  0.4166 -2.2193 -0.2423
   60MOL0     H 8047   6.217   5.836   2.766 -0.0570 -0.8158  0.2085
   60MOL0     H 8048   6.232   5.743   2.908  0.8945  1.1076  2.1847
   60MOL0     H 8049   6.212   6.043   2.911 -2.9667 -0.7851 -2.5618
   60MOL0     H 8050   6.202   5.942   3.055  0.5866  0.6158 -0.0179
   60MOL0     H 8051   5.999   5.727   3.018 -1.7807  0.2379  0.5982
   60MOL0     H 8052   5.694   5.681   2.816  0.0673  2.8972 -0.7615
   60MOL0     H 8053   5.738   5.663   2.986 -1.5028 -0.9886 -0.9709
   60MOL0     H 8054   5.515   5.745   2.959 -0.6498  0.4429 -3.8020
   60MOL0     H 8055   5.571   5.892   2.874  0.0405 -1.0416 -1.3944
   60MOL0     H 8056   5.655   5.978   3.096  0.0208  0.1524  4.8164
   60MOL0     H 8057   5.669   5.831   3.156  0.0442 -1.1838 -0.3710
   60MOL0     H 8058   5.472   5.922   3.268  0.6831  0.5154 -0.4419
   60MOL0     H 8059   5.424   5.788   3.165  3.2589 -1.2751 -0.3782
   60MOL0     H 8060   5.207   6.134   2.991  0.7778 -2.4368 -0.7051
   60MOL0     H 8061   5.012   6.247   2.967 -1.4144  0.8176 -1.0281
   60MOL0     H 8062   4.867   6.190   3.042  1.1086 -1.2113 -2.2495
   60MOL0     H 8063   4.970   6.317   3.117 -1.8990  0.8793 -0.7744
   60MOL0     H 8064   4.649   6.147   3.503  1.5853 -0.5314  3.0049
   60MOL0     H 8065   4.416   6.118   3.523  0.9311  0.2758 -0.2167
   60MOL0     H 8066   4.268   5.986   3.661 -0.5580  2.3778 -0.7043
   60MOL0     H 8067   4.143   6.016   3.542 -0.5528 -1.4614 -0.4004
   60MOL0     H 8068   4.054   5.895   3.745  1.5006  0.4451  1.0655
   60MOL0     H 8069   4.057   5.777   3.606  0.3582 -1.1870  0.3540
   60MOL0     H 8070   4.288   5.705   3.686  1.7383 -0.1058  2.8389
   60MOL0     H 8071   4.149   5.671   3.792  1.2952 -0.6328  1.0603
   60MOL0     H 8072   4.355   5.893   3.843  0.2931 -0.6419 -1.1261
   60MOL0     H 8073   4.196   5.878   3.922 -1.1923 -0.0673 -0.2667
   60MOL0     H 8074   4.392   5.777   4.041  0.2949  0.6889  0.0606
   60MOL0     H 8075   4.400   5.653   3.922 -0.9375 -2.2586  2.6840
   60MOL0     H 8076   4.139   5.715   4.084 -2.3177 -2.3106 -1.7616
   60MOL0     H 8077   4.157   5.581   3.970 -0.1510 -1.8353  0.7922
   60MOL0     H 8078   4.351   5.625   4.208  0.6397 -0.9019  1.9047
   60MOL0     H 8079   4.333   5.475   4.112 -0.7818  0.5953 -1.6061
   60MOL0     H 8080   4.093   5.450   4.205  1.3254 -0.5501 -1.3993
   60MOL0     H 8081   4.133   5.599   4.301  0.3760 -0.0810  0.1714
   60MOL0     H 8082   4.441   5.704   3.443 -1.4011  0.5530  0.1699
   60MOL0     H 8083   4.686   5.737   3.391  1.5086  0.9347 -0.0220
   60MOL0     H 8084   5.045   5.906   3.401  3.1494  1.1310  1.1794
   60MOL0     H 8085   5.253   5.851   3.311 -1.6266 -0.8422 -0.8703
   60MOL0     H 8086   6.056   5.553   3.277 -0.7925 -0.8153  0.3684
   60MOL0     H 8087   5.827   5.583   3.364  0.6267 -0.8061  0.2349
   60MOL0     H 8088   5.584   5.702   3.773  0.5937  2.2114 -0.1677
   60MOL0     H 8089   5.390   5.646   3.880 -3.8840  2.1431  1.1861
   60MOL0     H 8090   5.021   5.762   3.649  0.8742  0.6869  0.9163
   60MOL0     H 8091   4.970   5.600   3.667 -1.1162  2.6561 -0.7767
   60MOL0     H 8092   4.928   5.800   3.887 -2.8076 -0.0885 -0.3555
   60MOL0     H 8093   4.911   5.616   3.885  2.3715 -1.1846 -0.4935
   60MOL0     H 8094   4.760   5.661   3.686  2.2684 -0.0145 -1.2427
   60MOL0     H 8095   4.805   5.832   3.695 -0.6045  0.8536  2.9313
   60MOL0     H 8096   4.654   5.674   3.907  2.9166  1.3348  2.1692
   60MOL0     H 8097   4.583   5.784   3.776 -0.3033  0.4237 -1.4751
   60MOL0     H 8098   4.728   6.048   4.089  1.6461 -1.3121  0.5820
   60MOL0     H 8099   5.170   5.652   3.505  0.4500 -0.4156 -1.0614
   60MOL0     H 8100   5.390   5.693   3.390  0.1895  0.1185 -0.6245
   61MOL0     O 8101   4.052   8.775  11.139 -0.0579 -0.0858 -0.2779
   61MOL0     C 8102   4.110   8.721  11.237  0.0587  0.5289  0.0758
   61MOL0     O 8103   4.062   8.700  11.361 -0.4996 -0.2970  0.3480
   61MOL0     C 8104   3.932   8.725  11.392  0.7839  0.2727  0.0273
   61MOL0     C 8105   3.909   8.777  11.515 -0.0070  1.3320 -0.1516
   61MOL0     C 8106   3.779   8.797  11.555  0.5586  0.4231 -0.0213
   61MOL0     C 8107   3.669   8.779  11.472 -0.2925 -0.5048  0.4656
   61MOL0     O 8108   3.546   8.803  11.519 -0.2437 -0.8110 -0.3805
   61MOL0     C 8109   3.453   8.701  11.507 -0.8408  0.0479  1.0723
   61MOL0     C 8110   3.310   8.748  11.537  0.4371 -0.2439  0.3259
   61MOL0     C 8111   3.227   8.636  11.600 -0.6734  0.7430 -1.0855
   61MOL0     C 8112   3.080   8.666  11.604  0.0808 -0.2101 -0.6623
   61MOL0     C 8113   3.028   8.688  11.469 -0.2610  0.0653 -0.4146
   61MOL0     C 8114   2.883   8.714  11.458 -0.9046  0.1982 -0.0759
   61MOL0     C 8115   2.853   8.867  11.484  0.3932 -0.4707  0.9597
   61MOL0     C 8116   2.706   8.897  11.481 -0.2118 -0.1819 -0.6821
   61MOL0     N 8117   2.640   8.836  11.368  0.2706 -0.4386 -0.2377
   61MOL0     C 8118   2.639   8.874  11.231  1.2001 -0.0221 -0.9199
   61MOL0     C 8119   2.567   8.770  11.175 -0.7137 -0.3918 -0.1030
   61MOL0     C 8120   2.549   8.771  11.021 -0.3919 -0.3757  0.9726
   61MOL0     C 8121   2.398   8.771  10.989  0.1686 -0.3513 -0.3780
   61MOL0     C 8122   2.372   8.739  10.845  0.4558  0.2262  0.2781
   61MOL0     C 8123   2.221   8.724  10.798 -0.0271 -0.0387  0.1127
   61MOL0     O 8124   2.149   8.682  10.914  0.3461  0.0354 -0.1499
   61MOL0     C 8125   2.018   8.645  10.906 -0.4681  0.2869 -0.5888
   61MOL0     C 8126   1.946   8.604  11.016  0.0610 -1.2457  0.2802
   61MOL0     C 8127   1.814   8.560  10.998 -0.2138  0.5876 -0.5578
   61MOL0     C 8128   1.748   8.495  11.118 -0.9201  0.7522  0.5068
   61MOL0     C 8129   1.746   8.558  10.870 -0.4190  0.3725 -0.0545
   61MOL0     C 8130   1.601   8.530  10.835  1.0464  0.4913 -0.8591
   61MOL0     O 8131   1.517   8.492  10.932  0.6285 -0.8733  0.8667
   61MOL0     C 8132   1.380   8.492  10.907 -0.2899 -0.1394  0.7012
   61MOL0     C 8133   1.310   8.555  11.001  0.6188 -0.2163 -0.1209
   61MOL0     C 8134   1.171   8.566  10.984  0.0740 -0.7942  0.8496
   61MOL0     C 8135   1.106   8.485  10.883  0.3753  0.2188  0.0489
   61MOL0     O 8136   0.970   8.497  10.880 -0.1472  0.7322  0.3740
   61MOL0     C 8137   0.904   8.380  10.826 -1.4426 -1.2385  1.3296
   61MOL0     C 8138   0.770   8.368  10.883 -0.1618 -0.2574  0.5843
   61MOL0     C 8139   0.698   8.256  10.812 -0.4681  0.8729  0.3566
   61MOL0     C 8140   0.549   8.231  10.859 -0.5264 -0.2051  1.2645
   61MOL0     C 8141   0.502   8.101  10.796  0.1781 -0.7444 -0.3071
   61MOL0     C 8142   0.361   8.066  10.835 -0.1516  0.6226 -0.1702
   61MOL0     C 8143   0.347   7.943  10.933  0.0756  0.0441  0.1169
   61MOL0     C 8144   0.216   7.864  10.936  0.2273 -0.6078 -0.9396
   61MOL0    Cl 8145   0.094   7.978  11.002 -0.1750 -0.0900  0.1838
   61MOL0     C 8146   1.187   8.399  10.810  0.6213  0.3250  0.1214
   61MOL0     C 8147   1.322   8.410  10.822 -0.0249  0.4254 -0.6419
   61MOL0     O 8148   1.571   8.528  10.716 -0.0415  0.2173 -0.0680
   61MOL0     C 8149   1.818   8.607  10.761 -0.4821  0.2924 -0.0488
   61MOL0     C 8150   1.954   8.642  10.781 -0.3143 -0.0467 -0.2083
   61MOL0     N 8151   2.521   8.678  11.265  0.3178  0.1069 -0.3062
   61MOL0     N 8152   2.566   8.719  11.384  0.1550  0.3152  0.8204
   61MOL0     C 8153   3.693   8.712  11.346  0.4682 -0.1012  0.3894
   61MOL0     C 8154   3.825   8.692  11.299 -0.0139  0.0593 -0.1605
   61MOL0     C 8155   4.256   8.694  11.217 -0.4185 -0.6028 -0.8766
   61MOL0     C 8156   4.322   8.745  11.101  0.3141  0.0008  0.1013
   61MOL0     C 8157   4.449   8.720  11.064  0.0218 -0.8365  0.5525
   61MOL0     C 8158   4.527   8.647  11.158  0.9628 -0.5225 -0.7214
   61MOL0     O 8159   4.654   8.613  11.141 -0.5360 -1.0403 -0.9102
   61MOL0     C 8160   4.729   8.649  11.027  0.1612 -0.6377  0.2888
   61MOL0     C 8161   4.875   8.620  11.039 -0.0620 -0.1942 -0.7065
   61MOL0     C 8162   4.933   8.631  10.899  0.2734  1.0186 -1.0385
   61MOL0     C 8163   5.077   8.592  10.895  0.4292  0.8015  0.9787
   61MOL0     C 8164   5.122   8.589  10.752 -0.2957  1.2829 -0.4609
   61MOL0     C 8165   5.172   8.583  10.644  1.0068 -0.2097 -0.0804
   61MOL0     C 8166   4.467   8.597  11.279 -0.3072  0.2502  0.7610
   61MOL0     C 8167   4.332   8.614  11.310 -0.5163 -1.1096  0.3171
   61MOL0     H 8168   3.991   8.811  11.578  1.7495 -1.7124 -0.5857
   61MOL0     H 8169   3.748   8.859  11.638 -1.8352  1.5391 -1.6213
   61MOL0     H 8170   3.458   8.667  11.403  1.8897  1.6023  0.5994
   61MOL0     H 8171   3.482   8.617  11.571 -0.6226  0.0445  0.9706
   61MOL0     H 8172   3.314   8.842  11.593  1.0335  0.2957 -0.5906
   61MOL0     H 8173   3.267   8.773  11.440  0.0851 -2.4224 -0.1298
   61MOL0     H 8174   3.248   8.541  11.550  3.7265  0.0694  1.4657
   61MOL0     H 8175   3.267   8.624  11.702 -1.0223  2.0195 -0.7896
   61MOL0     H 8176   3.021   8.587  11.651 -0.4620  0.4664 -0.1965
   61MOL0     H 8177   3.065   8.760  11.658 -0.4202 -0.6885  0.0425
   61MOL0     H 8178   3.069   8.775  11.417 -1.8072  0.1962 -1.4931
   61MOL0     H 8179   3.054   8.595  11.417 -3.7123 -1.6895  0.6985
   61MOL0     H 8180   2.856   8.695  11.354 -0.2999 -2.5829  0.2030
   61MOL0     H 8181   2.839   8.649  11.535  1.8630 -0.4425  1.0756
   61MOL0     H 8182   2.881   8.895  11.586 -0.5952  2.1498  0.6020
   61MOL0     H 8183   2.904   8.938  11.419  2.6337 -0.3317  2.7656
   61MOL0     H 8184   2.697   9.005  11.488  0.4248 -0.1910  0.7382
   61MOL0     H 8185   2.686   8.849  11.578  2.3303 -0.1039 -0.0461
   61MOL0     H 8186   2.684   8.954  11.174  0.9013  0.9747  0.1914
   61MOL0     H 8187   2.596   8.864  10.986 -0.5551 -0.1576  1.3334
   61MOL0     H 8188   2.610   8.698  10.967 -0.7392  0.5516 -0.7647
   61MOL0     H 8189   2.359   8.868  11.020 -0.3708 -0.6915  0.0163
   61MOL0     H 8190   2.350   8.695  11.051  0.7901 -1.1625 -0.8592
   61MOL0     H 8191   2.418   8.642  10.822 -1.8350 -0.3394 -2.4494
   61MOL0     H 8192   2.423   8.827  10.803  1.8688 -0.2917  0.8309
   61MOL0     H 8193   2.220   8.637  10.732  0.0270  0.5199 -0.6331
   61MOL0     H 8194   2.182   8.814  10.750 -0.0847  0.7758  1.6362
   61MOL0     H 8195   2.001   8.600  11.109  1.1493 -1.6724 -0.3597
   61MOL0     H 8196   1.824   8.458  11.187 -2.0710 -1.2034  0.8145
   61MOL0     H 8197   1.682   8.569  11.164 -2.1392  0.0085  0.0138
   61MOL0     H 8198   1.681   8.413  11.090 -0.1456  0.2924 -0.0318
   61MOL0     H 8199   1.356   8.616  11.078 -1.9857 -0.6270  1.9061
   61MOL0     H 8200   1.117   8.633  11.051  3.5730  1.9154  1.2626
   61MOL0     H 8201   0.890   8.399  10.719 -0.5134 -0.2512  1.3663
   61MOL0     H 8202   0.960   8.288  10.845  2.8234 -0.0937 -3.4736
   61MOL0     H 8203   0.780   8.332  10.986 -2.0970 -1.3574  0.4381
   61MOL0     H 8204   0.715   8.460  10.862  1.5189  0.3554 -1.3263
   61MOL0     H 8205   0.757   8.168  10.840  2.1631  2.1246 -0.9361
   61MOL0     H 8206   0.687   8.270  10.704 -0.0503  0.3386  0.2399
   61MOL0     H 8207   0.549   8.231  10.968  2.3392  0.6707  1.3604
   61MOL0     H 8208   0.484   8.313  10.826 -2.9535 -2.2248  0.7011
   61MOL0     H 8209   0.579   8.026  10.816 -0.0306 -0.4137  2.1047
   61MOL0     H 8210   0.492   8.122  10.689 -1.3374 -3.4096 -0.7791
   61MOL0     H 8211   0.314   8.156  10.876 -1.8441 -0.0322 -0.6148
   61MOL0     H 8212   0.303   8.033  10.749 -2.1521  0.2962  1.2339
   61MOL0     H 8213   0.363   7.971  11.038 -1.1684  1.4057 -0.0313
   61MOL0     H 8214   0.418   7.867  10.899 -1.2326 -1.9368  1.6191
   61MOL0     H 8215   0.221   7.779  11.005  2.1702  0.0705 -0.1576
   61MOL0     H 8216   0.183   7.840  10.835 -1.1957  0.8345 -0.8526
   61MOL0     H 8217   1.141   8.323  10.748  3.1007 -1.7385  0.6169
   61MOL0     H 8218   1.386   8.342  10.764 -0.1274  1.3717 -1.9142
   61MOL0     H 8219   1.780   8.604  10.660  1.4431 -1.5894 -0.8064
   61MOL0     H 8220   1.993   8.692  10.693  0.4844  3.7972  2.0948
   61MOL0     H 8221   3.611   8.682  11.281 -0.0200 -4.3625  2.6302
   61MOL0     H 8222   3.840   8.638  11.207 -2.9623 -1.7862  0.3215
   61MOL0     H 8223   4.270   8.804  11.027  0.5153 -1.2540 -1.0813
   61MOL0     H 8224   4.476   8.761  10.967 -0.2721  2.2384  1.6455
   61MOL0     H 8225   4.684   8.596  10.942 -0.6619 -0.0671  0.3648
   61MOL0     H 8226   4.723   8.757  11.015 -0.9798 -0.5269  1.7191
   61MOL0     H 8227   4.889   8.517  11.074 -0.0468 -0.5525 -1.7551
   61MOL0     H 8228   4.915   8.698  11.105  1.3435 -0.9829 -0.5774
   61MOL0     H 8229   4.912   8.728  10.853 -5.2588  1.8847  2.4333
   61MOL0     H 8230   4.883   8.561  10.832 -1.5715  1.3567 -0.0774
   61MOL0     H 8231   5.090   8.490  10.932  1.9205 -1.5331 -4.7918
   61MOL0     H 8232   5.140   8.664  10.947  1.4057 -0.9269  2.2980
   61MOL0     H 8233   5.222   8.581  10.549  2.5751 -1.1949  0.7099
   61MOL0     H 8234   4.533   8.545  11.349  2.8896  2.9531  0.0001
   61MOL0     H 8235   4.278   8.575  11.395 -1.9637 -0.5751 -0.3032
   62MOL0     O 8236   4.171   3.553   8.780 -0.9778 -0.2482 -0.0088
   62MOL0     C 8237   4.245   3.629   8.722  0.3907  0.1128  0.3228
   62MOL0     O 8238   4.201   3.747   8.659  0.3991 -0.9090 -0.0433
   62MOL0     C 8239   4.077   3.793   8.671 -0.2616  0.2372  0.1547
   62MOL0     C 8240   4.066   3.932   8.695 -0.5600 -0.0481  0.5706
   62MOL0     C 8241   3.939   3.993   8.686  0.2657 -0.0590 -1.1169
   62MOL0     C 8242   3.821   3.930   8.661 -0.0259  0.0784  0.0754
   62MOL0     O 8243   3.701   4.002   8.661 -0.2014  0.4596  1.0436
   62MOL0     C 8244   3.581   3.939   8.597 -0.2071  0.2469 -0.4047
   62MOL0     C 8245   3.460   4.038   8.595 -0.2293 -0.3162  0.5419
   62MOL0     C 8246   3.344   3.998   8.509 -0.0898  0.3033 -0.2212
   62MOL0     C 8247   3.221   4.090   8.545  0.3520 -0.0906  0.0199
   62MOL0     C 8248   3.104   4.065   8.452  0.1641  0.7891  1.1763
   62MOL0     C 8249   2.979   4.143   8.492  0.7024  0.9497 -0.1898
   62MOL0     C 8250   2.861   4.110   8.398 -0.2489 -0.1909 -0.1780
   62MOL0     C 8251   2.790   3.977   8.421 -0.3846 -0.4315 -0.6341
   62MOL0     N 8252   2.671   3.980   8.341 -0.4186 -0.3159  0.2018
   62MOL0     C 8253   2.565   4.057   8.362 -0.0538 -0.4852 -0.5428
   62MOL0     C 8254   2.505   4.065   8.250  0.0936 -0.5065  1.1321
   62MOL0     C 8255   2.396   4.169   8.219 -0.6468  0.1635  0.1217
   62MOL0     C 8256   2.247   4.129   8.247  0.8413 -0.7845 -0.1166
   62MOL0     C 8257   2.152   4.239   8.190  0.8422  0.0037  0.6096
   62MOL0     C 8258   2.139   4.365   8.269  0.0736 -0.5817  0.1141
   62MOL0     O 8259   2.249   4.457   8.223 -0.2372  0.3048 -0.2517
   62MOL0     C 8260   2.245   4.521   8.097  0.7654  0.4716  0.5249
   62MOL0     C 8261   2.115   4.547   8.047  0.0976 -0.1992 -0.3794
   62MOL0     C 8262   2.102   4.619   7.926 -0.5259  0.2930  0.4398
   62MOL0     C 8263   1.969   4.638   7.850 -0.4722 -0.2364 -0.4299
   62MOL0     C 8264   2.214   4.659   7.856  0.2866 -0.6974  0.0205
   62MOL0     C 8265   2.219   4.742   7.730  0.4781  0.0939  0.1879
   62MOL0     O 8266   2.304   4.698   7.628  0.3446  0.2002 -0.2384
   62MOL0     C 8267   2.339   4.780   7.525 -0.8173  0.3392  0.6319
   62MOL0     C 8268   2.260   4.815   7.416  0.8056  0.3092 -0.1563
   62MOL0     C 8269   2.303   4.909   7.327 -0.2335  0.1098  0.2127
   62MOL0     C 8270   2.427   4.973   7.336 -0.1652 -0.2736 -0.2643
   62MOL0     O 8271   2.444   5.074   7.252 -0.1825 -0.1054  0.2782
   62MOL0     C 8272   2.579   5.129   7.244  0.3941  0.2586 -0.7168
   62MOL0     C 8273   2.573   5.244   7.151 -0.1852  0.2796  0.1069
   62MOL0     C 8274   2.712   5.298   7.099  0.2924  0.4446 -0.1151
   62MOL0     C 8275   2.779   5.209   6.996 -0.7465 -0.1944 -0.0529
   62MOL0     C 8276   2.916   5.271   6.959 -0.0594 -0.0996 -0.0625
   62MOL0     C 8277   2.994   5.172   6.862  0.2326 -0.4088  0.9894
   62MOL0     C 8278   3.108   5.235   6.791 -0.8752  0.6643  0.3153
   62MOL0     C 8279   3.172   5.133   6.703 -0.3502 -0.2893  0.2957
   62MOL0    Cl 8280   3.300   5.202   6.612 -0.0154  0.4270 -0.3252
   62MOL0     C 8281   2.511   4.933   7.437  0.9390 -0.2845 -0.5045
   62MOL0     C 8282   2.465   4.841   7.535  0.5300  0.1573  0.2933
   62MOL0     O 8283   2.151   4.842   7.724 -0.7845  0.0078 -0.6171
   62MOL0     C 8284   2.342   4.644   7.913 -0.2843  0.7800  0.1276
   62MOL0     C 8285   2.356   4.574   8.034 -0.4944 -0.2634  0.1519
   62MOL0     N 8286   2.563   3.984   8.152 -0.9057  0.7323 -0.4581
   62MOL0     N 8287   2.670   3.939   8.209  0.6367  0.7061  0.3144
   62MOL0     C 8288   3.831   3.789   8.653 -0.1318 -0.9171 -0.1014
   62MOL0     C 8289   3.955   3.723   8.655 -1.0462 -0.7449  1.1251
   62MOL0     C 8290   4.393   3.611   8.732  0.4491 -0.8604 -0.7614
   62MOL0     C 8291   4.453   3.520   8.811  0.2693  0.1643 -0.7484
   62MOL0     C 8292   4.589   3.498   8.813 -0.4233  0.2688  0.3298
   62MOL0     C 8293   4.683   3.577   8.736 -0.5970  0.1380 -1.0891
   62MOL0     O 8294   4.812   3.541   8.738 -0.4868  0.8252 -0.2601
   62MOL0     C 8295   4.918   3.630   8.704 -0.1084  0.7112 -0.4241
   62MOL0     C 8296   5.062   3.577   8.730  0.3423  0.4537  1.0345
   62MOL0     C 8297   5.084   3.559   8.879 -0.5040  0.1880  0.1328
   62MOL0     C 8298   5.226   3.572   8.927  0.1400  0.2450  0.0377
   62MOL0     C 8299   5.299   3.450   8.895 -0.5493  0.5822  0.4455
   62MOL0     C 8300   5.362   3.352   8.868  0.4964  0.7887 -0.1672
   62MOL0     C 8301   4.624   3.684   8.666  0.6105  0.1553  0.0205
   62MOL0     C 8302   4.486   3.697   8.666  0.2669  0.4777 -0.4824
   62MOL0     H 8303   4.161   3.984   8.703 -0.3875 -0.2222 -0.3247
   62MOL0     H 8304   3.920   4.099   8.691 -0.6287 -0.1707 -1.9936
   62MOL0     H 8305   3.602   3.899   8.497 -1.1410  0.1125 -0.5544
   62MOL0     H 8306   3.556   3.853   8.659 -3.3039  0.8124 -0.6848
   62MOL0     H 8307   3.427   4.042   8.699 -0.7443  0.2578  0.3647
   62MOL0     H 8308   3.499   4.127   8.546  0.2959 -1.9863 -2.2789
   62MOL0     H 8309   3.365   4.021   8.404 -1.4403  0.1172 -0.5614
   62MOL0     H 8310   3.309   3.895   8.522  0.3402 -0.0762 -1.8155
   62MOL0     H 8311   3.187   4.074   8.648 -0.9868 -0.4772 -0.4659
   62MOL0     H 8312   3.249   4.196   8.540 -2.0597  0.6500  1.0198
   62MOL0     H 8313   3.122   4.078   8.345 -0.6398 -2.8475  0.4645
   62MOL0     H 8314   3.078   3.958   8.455 -2.9277  1.3627 -0.6081
   62MOL0     H 8315   2.947   4.113   8.592 -0.8013 -0.9232 -1.1672
   62MOL0     H 8316   3.003   4.249   8.482  0.5287  0.8380 -2.3436
   62MOL0     H 8317   2.793   4.195   8.404  1.2070  1.3212 -3.1269
   62MOL0     H 8318   2.893   4.123   8.294 -0.2316 -0.0837 -0.1607
   62MOL0     H 8319   2.766   3.956   8.525 -0.7232  1.2078 -0.3591
   62MOL0     H 8320   2.851   3.896   8.380  1.0889  1.5659 -2.6776
   62MOL0     H 8321   2.540   4.124   8.443  0.5866 -3.0131  1.8682
   62MOL0     H 8322   2.422   4.265   8.263 -1.6099 -0.0003  1.0792
   62MOL0     H 8323   2.408   4.176   8.110 -1.5534 -1.8206 -0.1645
   62MOL0     H 8324   2.242   4.112   8.355 -0.3891 -0.5690 -0.1246
   62MOL0     H 8325   2.241   4.036   8.191  5.0062  0.2245 -2.7277
   62MOL0     H 8326   2.048   4.211   8.176  0.5350  0.0166  2.5823
   62MOL0     H 8327   2.193   4.260   8.091  0.7840  3.1896  1.1735
   62MOL0     H 8328   2.156   4.342   8.375 -1.8020 -0.3901  0.4986
   62MOL0     H 8329   2.038   4.406   8.279  0.2521 -0.2021  0.4521
   62MOL0     H 8330   2.028   4.501   8.093 -1.0900  0.3586 -2.0075
   62MOL0     H 8331   1.955   4.735   7.801 -0.5766  0.3534  0.7101
   62MOL0     H 8332   1.950   4.553   7.784 -5.2651  0.1595  0.1074
   62MOL0     H 8333   1.898   4.624   7.932  1.2950 -0.4867  1.1221
   62MOL0     H 8334   2.156   4.784   7.411  1.1742 -1.1493  0.5935
   62MOL0     H 8335   2.228   4.928   7.251 -1.8054 -0.4321  1.5717
   62MOL0     H 8336   2.617   5.144   7.345 -1.1954  1.2932 -0.2473
   62MOL0     H 8337   2.639   5.054   7.190  0.9441  1.0284 -1.1923
   62MOL0     H 8338   2.509   5.217   7.066  1.4638  0.1280 -1.1278
   62MOL0     H 8339   2.531   5.324   7.213  0.0111  0.2718  0.2490
   62MOL0     H 8340   2.769   5.315   7.190 -1.2471  1.2932  0.7216
   62MOL0     H 8341   2.697   5.395   7.050 -1.1508  0.4554  0.3113
   62MOL0     H 8342   2.796   5.110   7.037  4.1046  0.6105  0.5178
   62MOL0     H 8343   2.716   5.192   6.908 -2.4289 -0.1198  1.0933
   62MOL0     H 8344   2.994   5.284   7.034  2.2391  0.8933 -2.4344
   62MOL0     H 8345   2.897   5.368   6.913  0.2962  0.6710  1.3635
   62MOL0     H 8346   3.023   5.089   6.928 -0.3009 -1.5604 -0.1873
   62MOL0     H 8347   2.929   5.132   6.784  0.0351  0.7850  0.5285
   62MOL0     H 8348   3.182   5.263   6.867 -0.6605 -1.1305  0.8120
   62MOL0     H 8349   3.074   5.317   6.728 -2.9558 -0.3247  0.0704
   62MOL0     H 8350   3.098   5.087   6.637  0.0743 -1.4261  0.5809
   62MOL0     H 8351   3.217   5.060   6.770  2.8440  1.6896  0.4969
   62MOL0     H 8352   2.613   4.965   7.454  0.3655  0.6856  1.3798
   62MOL0     H 8353   2.528   4.820   7.622  0.2428  1.0857  0.7345
   62MOL0     H 8354   2.436   4.674   7.869  1.0432  0.7865  2.8032
   62MOL0     H 8355   2.454   4.563   8.081 -1.3395  4.6016  3.8888
   62MOL0     H 8356   3.748   3.729   8.619 -0.7597  0.2031 -0.6243
   62MOL0     H 8357   3.973   3.618   8.635 -0.0435 -0.6009  1.2078
   62MOL0     H 8358   4.394   3.463   8.881 -0.9703  0.4947 -1.4957
   62MOL0     H 8359   4.633   3.424   8.879  0.3107  0.5338  0.1496
   62MOL0     H 8360   4.898   3.648   8.598 -2.7170  0.2650 -0.0722
   62MOL0     H 8361   4.919   3.729   8.750  0.5850 -0.4264  2.1414
   62MOL0     H 8362   5.131   3.649   8.684 -0.2056  1.1635  1.3158
   62MOL0     H 8363   5.070   3.479   8.683  1.6129  2.1481 -2.6385
   62MOL0     H 8364   5.047   3.462   8.912 -2.5793  0.3115 -1.5785
   62MOL0     H 8365   5.032   3.637   8.935 -2.4349 -1.2554  0.4537
   62MOL0     H 8366   5.231   3.574   9.036  0.7836  0.3256  0.0138
   62MOL0     H 8367   5.278   3.657   8.881  0.7065 -0.5939 -0.9226
   62MOL0     H 8368   5.411   3.264   8.831  0.0018  0.9607 -1.2715
   62MOL0     H 8369   4.690   3.755   8.617  1.0875 -0.2269  0.1055
   62MOL0     H 8370   4.457   3.791   8.620  1.6435  1.0709 -0.1857
   63MOL0     O 8371   0.461   4.668  10.042 -0.2345 -0.2507 -0.0809
   63MOL0     C 8372   0.511   4.620   9.942  1.4295  0.0516  0.0805
   63MOL0     O 8373   0.437   4.570   9.834  0.4607 -0.5088  0.4001
   63MOL0     C 8374   0.301   4.594   9.832 -0.0029 -0.5222  0.2370
   63MOL0     C 8375   0.201   4.493   9.851  0.0977 -0.6187 -1.1397
   63MOL0     C 8376   0.060   4.522   9.863  1.0611 -0.0188  0.1981
   63MOL0     C 8377   0.021   4.655   9.847 -1.0930 -0.0579  0.1110
   63MOL0     O 8378  -0.107   4.688   9.855  0.1307 -0.3786  1.2010
   63MOL0     C 8379  -0.192   4.600   9.776  0.1095  0.0204  0.2710
   63MOL0     C 8380  -0.321   4.676   9.764 -0.3112  0.2788  0.5124
   63MOL0     C 8381  -0.417   4.617   9.656  0.2625 -0.0505  0.4568
   63MOL0     C 8382  -0.556   4.679   9.655  0.4323  0.4543  0.8406
   63MOL0     C 8383  -0.642   4.657   9.525 -0.2439  0.4920 -0.2811
   63MOL0     C 8384  -0.784   4.688   9.562 -0.0180 -0.3823  0.9161
   63MOL0     C 8385  -0.876   4.638   9.456 -0.6504  0.6860  0.2913
   63MOL0     C 8386  -0.864   4.733   9.329  0.0378 -0.0217 -0.1713
   63MOL0     N 8387  -0.972   4.726   9.234 -0.0528  0.5370 -0.3713
   63MOL0     C 8388  -1.020   4.614   9.175 -0.3201  0.3691  0.0419
   63MOL0     C 8389  -1.138   4.653   9.116 -0.2930 -0.4431 -0.9078
   63MOL0     C 8390  -1.240   4.560   9.035  0.1618  0.0036 -0.3945
   63MOL0     C 8391  -1.327   4.476   9.129  0.1660  0.3707  1.0672
   63MOL0     C 8392  -1.391   4.348   9.065 -0.7858 -0.5892  0.6993
   63MOL0     C 8393  -1.440   4.369   8.921  0.8153 -0.1365 -0.1817
   63MOL0     O 8394  -1.478   4.237   8.872 -0.1142 -0.0244 -0.1007
   63MOL0     C 8395  -1.596   4.178   8.898  0.1522 -0.0159 -0.8173
   63MOL0     C 8396  -1.620   4.061   8.839  0.7060  0.3520  1.4366
   63MOL0     C 8397  -1.734   3.978   8.870 -0.2820 -0.8860 -0.2307
   63MOL0     C 8398  -1.765   3.866   8.782  0.0159 -0.0413  0.3378
   63MOL0     C 8399  -1.830   4.021   8.953  0.0054  0.4944 -0.6178
   63MOL0     C 8400  -1.960   3.952   8.993 -0.4138  0.6503  0.5453
   63MOL0     O 8401  -2.068   4.033   9.012  0.1092 -0.6023 -0.1771
   63MOL0     C 8402  -2.182   3.990   9.077  0.5791  1.2407  0.6276
   63MOL0     C 8403  -2.220   4.056   9.196 -0.1492  0.2144  0.3246
   63MOL0     C 8404  -2.313   3.996   9.280  0.5559  0.2318  0.3406
   63MOL0     C 8405  -2.378   3.874   9.254 -0.4018 -0.0587  0.8880
   63MOL0     O 8406  -2.456   3.824   9.353  0.3004  0.8782  0.1303
   63MOL0     C 8407  -2.503   3.685   9.344  0.7776  0.0152  0.3011
   63MOL0     C 8408  -2.614   3.641   9.447  0.1689 -0.5899 -0.0544
   63MOL0     C 8409  -2.607   3.498   9.495  0.3342  0.1306 -0.5884
   63MOL0     C 8410  -2.732   3.463   9.577  0.0826  0.2464 -0.0534
   63MOL0     C 8411  -2.728   3.326   9.645  0.0408 -0.3750  0.1346
   63MOL0     C 8412  -2.869   3.257   9.652 -0.4551  0.0947 -0.1799
   63MOL0     C 8413  -2.857   3.134   9.729  0.6586  0.0098 -0.2782
   63MOL0     C 8414  -2.998   3.080   9.759 -0.4406  0.1436  0.5659
   63MOL0    Cl 8415  -3.043   3.155   9.904 -0.2740  0.0122 -0.0387
   63MOL0     C 8416  -2.336   3.801   9.134  0.4052 -0.3028 -0.1487
   63MOL0     C 8417  -2.237   3.866   9.051 -0.5149 -0.2679  0.3478
   63MOL0     O 8418  -1.952   3.840   9.042 -0.5794  0.8701  1.5420
   63MOL0     C 8419  -1.811   4.151   9.009  0.4477 -0.4496  0.4819
   63MOL0     C 8420  -1.692   4.224   8.985  1.0937  0.2479  0.5172
   63MOL0     N 8421  -1.147   4.788   9.129  0.1230  0.1942  0.5307
   63MOL0     N 8422  -1.052   4.830   9.197  0.3852 -0.1320 -0.2031
   63MOL0     C 8423   0.123   4.746   9.822  0.3301 -0.2682 -0.0957
   63MOL0     C 8424   0.257   4.721   9.813  0.1832 -0.1215 -0.6265
   63MOL0     C 8425   0.663   4.627   9.943  0.1227  0.1858 -0.8057
   63MOL0     C 8426   0.734   4.695  10.047  0.4441  0.1075 -0.0545
   63MOL0     C 8427   0.871   4.700  10.043 -0.2788 -0.0008 -0.7983
   63MOL0     C 8428   0.938   4.641   9.936 -1.0979 -0.3081  0.0191
   63MOL0     O 8429   1.078   4.640   9.923 -0.4515 -0.7170 -0.3900
   63MOL0     C 8430   1.153   4.709  10.034  0.0445 -0.3888  0.0577
   63MOL0     C 8431   1.305   4.708   9.995 -0.5917 -0.0871  0.0107
   63MOL0     C 8432   1.339   4.786   9.869 -1.0053 -0.5196 -0.2987
   63MOL0     C 8433   1.330   4.944   9.883  0.1214  0.7067 -0.8222
   63MOL0     C 8434   1.417   4.989   9.994  0.0801  0.3412 -0.2346
   63MOL0     C 8435   1.495   5.027  10.081  0.6674 -0.0371  0.3490
   63MOL0     C 8436   0.870   4.582   9.822  0.0581  0.0564 -0.2658
   63MOL0     C 8437   0.734   4.572   9.834  0.5393  0.0303  0.0492
   63MOL0     H 8438   0.249   4.396   9.859 -0.9817 -1.0525  0.5614
   63MOL0     H 8439  -0.007   4.440   9.884  1.1905 -0.2778 -0.3944
   63MOL0     H 8440  -0.146   4.585   9.677  0.4390  0.6598  0.3260
   63MOL0     H 8441  -0.208   4.500   9.819  3.3495  0.4432  2.8397
   63MOL0     H 8442  -0.375   4.670   9.859 -3.4318 -2.2572 -1.2275
   63MOL0     H 8443  -0.301   4.778   9.729  1.2843 -1.0044 -2.7938
   63MOL0     H 8444  -0.369   4.630   9.559  0.0728 -3.1812 -0.1598
   63MOL0     H 8445  -0.427   4.509   9.669  3.2035 -0.4329  0.2009
   63MOL0     H 8446  -0.604   4.634   9.742 -1.4257 -2.3339 -1.4447
   63MOL0     H 8447  -0.549   4.786   9.675  2.4567  1.3063 -3.3374
   63MOL0     H 8448  -0.605   4.719   9.444  1.7138  2.1055  1.7317
   63MOL0     H 8449  -0.642   4.553   9.491 -4.3963  0.0874  0.3949
   63MOL0     H 8450  -0.823   4.644   9.655 -3.8903  0.2552 -0.2502
   63MOL0     H 8451  -0.793   4.796   9.578 -1.3267 -0.7699  3.3311
   63MOL0     H 8452  -0.851   4.537   9.424  0.6703  1.0633  0.0880
   63MOL0     H 8453  -0.978   4.651   9.493 -0.0316  0.8782  2.0247
   63MOL0     H 8454  -0.776   4.692   9.278 -0.9728 -3.1091  0.3772
   63MOL0     H 8455  -0.846   4.837   9.358  4.2377 -1.0964  1.9817
   63MOL0     H 8456  -0.981   4.514   9.191  3.3839  1.8018  0.8923
   63MOL0     H 8457  -1.296   4.626   8.968  3.9513  0.3150 -3.6739
   63MOL0     H 8458  -1.195   4.501   8.954 -1.1803  0.6301 -1.6358
   63MOL0     H 8459  -1.402   4.543   9.172  0.6085 -0.1280  2.6943
   63MOL0     H 8460  -1.273   4.439   9.217  1.4531 -0.5763 -0.0671
   63MOL0     H 8461  -1.478   4.326   9.127 -1.4953  0.8128  0.2312
   63MOL0     H 8462  -1.316   4.269   9.055  1.0728  1.3410 -2.8983
   63MOL0     H 8463  -1.363   4.417   8.860  2.0490  1.2316  2.2885
   63MOL0     H 8464  -1.522   4.440   8.934  1.8207  0.8843  0.8463
   63MOL0     H 8465  -1.556   4.035   8.755  0.5933  0.2400  1.3861
   63MOL0     H 8466  -1.847   3.903   8.720  0.2842 -0.5108 -0.3000
   63MOL0     H 8467  -1.678   3.839   8.722 -2.5317 -3.3916 -2.2454
   63MOL0     H 8468  -1.806   3.782   8.839 -0.5623  0.2723  0.3994
   63MOL0     H 8469  -2.193   4.160   9.209  1.7838  0.0252 -1.6022
   63MOL0     H 8470  -2.321   4.054   9.372  0.3491 -1.2615  1.2940
   63MOL0     H 8471  -2.538   3.657   9.245 -0.1665 -2.6114  1.2857
   63MOL0     H 8472  -2.414   3.622   9.346  0.2368 -0.8403 -1.0448
   63MOL0     H 8473  -2.604   3.706   9.535 -1.7287  1.1692 -1.0680
   63MOL0     H 8474  -2.715   3.659   9.410  0.3088 -3.1569 -1.9879
   63MOL0     H 8475  -2.514   3.494   9.553  1.3671  2.4100 -1.9088
   63MOL0     H 8476  -2.592   3.431   9.410 -1.0907 -1.1375  0.1290
   63MOL0     H 8477  -2.741   3.542   9.653  1.7084  1.7061 -1.3020
   63MOL0     H 8478  -2.822   3.472   9.517 -0.1771  0.3246  0.3437
   63MOL0     H 8479  -2.678   3.344   9.740  0.5060  3.2524 -0.6413
   63MOL0     H 8480  -2.673   3.255   9.582 -1.4839  0.1740 -1.9218
   63MOL0     H 8481  -2.947   3.320   9.696 -2.1647 -1.5557 -0.7006
   63MOL0     H 8482  -2.896   3.238   9.548  2.8008  0.0983 -1.1462
   63MOL0     H 8483  -2.793   3.152   9.817 -0.8976  2.1287  0.4956
   63MOL0     H 8484  -2.812   3.059   9.662 -0.4489  0.7693 -1.9168
   63MOL0     H 8485  -3.008   2.971   9.763  1.0802 -0.0947 -0.8830
   63MOL0     H 8486  -3.064   3.108   9.676  2.5429 -0.6156 -2.2798
   63MOL0     H 8487  -2.376   3.703   9.113  0.5569 -0.1192 -1.3713
   63MOL0     H 8488  -2.200   3.807   8.967  0.9209 -0.9521  1.4088
   63MOL0     H 8489  -1.886   4.194   9.076 -0.4606 -2.4525  0.8269
   63MOL0     H 8490  -1.697   4.325   9.023 -0.6502  0.6013 -0.5256
   63MOL0     H 8491   0.088   4.845   9.794  0.2941 -0.6805 -1.5973
   63MOL0     H 8492   0.332   4.798   9.796  1.1993 -0.6131  1.3526
   63MOL0     H 8493   0.683   4.740  10.131  0.7533 -0.3752  0.3978
   63MOL0     H 8494   0.924   4.750  10.124 -1.4917 -1.3961  0.9361
   63MOL0     H 8495   1.126   4.814  10.040 -0.3362 -0.5446  1.5252
   63MOL0     H 8496   1.132   4.675  10.136  1.1034 -1.3124 -0.0006
   63MOL0     H 8497   1.335   4.602   9.993  2.0326  0.4333  3.0571
   63MOL0     H 8498   1.367   4.749  10.075  0.4846 -0.5487 -0.5630
   63MOL0     H 8499   1.277   4.752   9.786 -0.1433  0.1101 -1.2194
   63MOL0     H 8500   1.441   4.755   9.846 -1.2099 -0.7350 -0.9419
   63MOL0     H 8501   1.227   4.971   9.908  0.1951 -0.6186  1.1510
   63MOL0     H 8502   1.360   4.989   9.788  0.5181  2.9865  0.3126
   63MOL0     H 8503   1.553   5.055  10.167  0.4946  4.2227 -0.6948
   63MOL0     H 8504   0.927   4.540   9.740  4.2171  0.9315  1.8933
   63MOL0     H 8505   0.677   4.507   9.769 -1.4881 -1.3250  2.9444
   64MOL0     O 8506   3.482   8.035   8.907  1.3970 -0.1327 -0.1501
   64MOL0     C 8507   3.507   7.919   8.874 -0.3469  0.7760 -0.4205
   64MOL0     O 8508   3.448   7.851   8.772  0.7332 -0.6942  0.8475
   64MOL0     C 8509   3.338   7.895   8.700  0.0237 -0.1282 -0.3107
   64MOL0     C 8510   3.318   7.876   8.561  0.4599  0.8563 -1.2044
   64MOL0     C 8511   3.200   7.918   8.495 -0.3405  0.1211  0.0255
   64MOL0     C 8512   3.104   7.991   8.563 -0.9481 -0.2487 -0.4749
   64MOL0     O 8513   2.993   8.040   8.504 -1.3953  0.4678  0.8733
   64MOL0     C 8514   2.870   8.092   8.578 -0.1966 -0.3631 -0.3404
   64MOL0     C 8515   2.761   8.127   8.484 -0.3877  0.6937 -0.2598
   64MOL0     C 8516   2.635   8.177   8.565 -0.3422  0.0152  1.5881
   64MOL0     C 8517   2.524   8.187   8.463 -0.3267  0.0006  1.0205
   64MOL0     C 8518   2.404   8.246   8.537 -0.3206  0.0090  0.0456
   64MOL0     C 8519   2.295   8.290   8.441  0.0165 -0.3998  0.1177
   64MOL0     C 8520   2.165   8.346   8.503  0.0182  0.0405 -0.2309
   64MOL0     C 8521   2.079   8.423   8.399  0.2766 -0.2564 -1.0584
   64MOL0     N 8522   1.936   8.456   8.449 -0.4337 -0.0981  0.3621
   64MOL0     C 8523   1.842   8.373   8.500  0.1244 -0.2441 -0.0054
   64MOL0     C 8524   1.730   8.451   8.501  0.5793  0.9869  0.5704
   64MOL0     C 8525   1.604   8.412   8.561  0.3776 -0.1905 -0.0899
   64MOL0     C 8526   1.502   8.378   8.455 -0.1512 -0.4406  0.6799
   64MOL0     C 8527   1.424   8.506   8.391  0.3067  0.5617  0.0942
   64MOL0     C 8528   1.337   8.486   8.265 -1.0360 -0.0040 -0.1012
   64MOL0     O 8529   1.291   8.613   8.224  0.1638 -0.4616 -0.0135
   64MOL0     C 8530   1.183   8.618   8.142 -0.2631 -0.0899 -0.5112
   64MOL0     C 8531   1.125   8.745   8.132 -0.0561  0.0140  0.7140
   64MOL0     C 8532   1.004   8.773   8.066 -0.6104 -0.1225 -0.4992
   64MOL0     C 8533   0.967   8.918   8.047 -0.0618 -0.7113 -0.0966
   64MOL0     C 8534   0.939   8.655   8.015 -0.1723  0.2840  0.2081
   64MOL0     C 8535   0.801   8.670   7.949  0.5298  0.6980 -0.1170
   64MOL0     O 8536   0.737   8.549   7.937 -0.9024 -0.1051  0.2415
   64MOL0     C 8537   0.608   8.552   7.887 -0.2856 -0.3268  0.5447
   64MOL0     C 8538   0.580   8.472   7.775 -0.0918 -0.3293 -0.5359
   64MOL0     C 8539   0.452   8.472   7.720 -0.1470  0.4885  0.0971
   64MOL0     C 8540   0.351   8.546   7.783  0.3145 -0.6991 -0.0116
   64MOL0     O 8541   0.228   8.553   7.728  0.2002 -0.4707 -0.2459
   64MOL0     C 8542   0.121   8.508   7.818  0.4756 -0.2346  0.1404
   64MOL0     C 8543  -0.002   8.479   7.732  0.5159  0.2830  0.5323
   64MOL0     C 8544  -0.046   8.591   7.634  0.4681  0.1424 -0.4956
   64MOL0     C 8545  -0.195   8.568   7.591  0.4345 -1.0826  0.1847
   64MOL0     C 8546  -0.223   8.461   7.496 -0.0174  0.3543  0.6354
   64MOL0     C 8547  -0.364   8.413   7.469  0.3193  0.1844 -0.1880
   64MOL0     C 8548  -0.370   8.308   7.363  0.2935  0.6067 -0.3222
   64MOL0     C 8549  -0.488   8.296   7.272  0.2530 -0.3247  0.1513
   64MOL0    Cl 8550  -0.629   8.240   7.371 -0.2593 -0.0238  0.6247
   64MOL0     C 8551   0.376   8.629   7.893 -1.2335  0.4379 -0.1191
   64MOL0     C 8552   0.510   8.634   7.941  0.5126  0.5457 -0.9064
   64MOL0     O 8553   0.762   8.775   7.904 -0.1083 -0.4964 -0.2515
   64MOL0     C 8554   0.996   8.523   8.027  0.3000 -0.5027 -0.2579
   64MOL0     C 8555   1.120   8.509   8.093 -0.8732 -0.6490  0.6131
   64MOL0     N 8556   1.758   8.573   8.453 -0.6446 -0.0781 -0.1054
   64MOL0     N 8557   1.886   8.579   8.438 -0.0937  0.2914  1.0308
   64MOL0     C 8558   3.122   8.005   8.698  0.0154  0.2016  0.4363
   64MOL0     C 8559   3.237   7.967   8.770  0.3818  0.6603  0.1903
   64MOL0     C 8560   3.600   7.846   8.962  0.3722  0.1568 -0.0705
   64MOL0     C 8561   3.652   7.725   8.920  0.1863 -1.1598  0.2788
   64MOL0     C 8562   3.758   7.668   8.994 -1.1887 -0.0694  0.0497
   64MOL0     C 8563   3.812   7.721   9.108 -0.3464  0.4266 -0.4140
   64MOL0     O 8564   3.905   7.645   9.166  0.5936  0.5074  0.8634
   64MOL0     C 8565   3.998   7.712   9.254 -0.1864 -1.2264 -0.0033
   64MOL0     C 8566   4.095   7.615   9.323  0.0989  0.4531  0.4958
   64MOL0     C 8567   4.222   7.610   9.249 -1.0346  0.3291  0.0949
   64MOL0     C 8568   4.216   7.531   9.114 -0.1951 -0.1661 -0.3010
   64MOL0     C 8569   4.345   7.540   9.039 -0.0968 -0.5444 -0.0572
   64MOL0     C 8570   4.456   7.560   8.978  0.0048  0.2021 -0.0963
   64MOL0     C 8571   3.769   7.848   9.144  0.3713  0.0388  0.1635
   64MOL0     C 8572   3.662   7.906   9.077  0.5922 -0.3299 -0.3146
   64MOL0     H 8573   3.385   7.807   8.511  2.5144  0.2825  2.0427
   64MOL0     H 8574   3.187   7.903   8.389 -2.3801  1.4859  0.0350
   64MOL0     H 8575   2.822   8.030   8.655  1.8751  0.1822  1.5118
   64MOL0     H 8576   2.888   8.187   8.629 -3.3159  1.4245 -2.3113
   64MOL0     H 8577   2.780   8.196   8.401  1.5152 -0.2935 -0.6911
   64MOL0     H 8578   2.727   8.033   8.439 -0.6642  1.1936 -1.1154
   64MOL0     H 8579   2.614   8.104   8.643 -1.4167 -2.2089 -0.6533
   64MOL0     H 8580   2.661   8.273   8.610  0.1137  1.5630 -1.6728
   64MOL0     H 8581   2.561   8.239   8.374  0.7579 -1.2325  0.7097
   64MOL0     H 8582   2.495   8.090   8.422 -0.8458  1.3284 -2.0612
   64MOL0     H 8583   2.364   8.166   8.600  0.3723 -0.6908 -0.3834
   64MOL0     H 8584   2.429   8.329   8.603 -1.8409  0.7219 -0.2353
   64MOL0     H 8585   2.344   8.368   8.382  1.3490 -0.4297  1.1264
   64MOL0     H 8586   2.270   8.200   8.383  0.2425 -2.0754  2.4525
   64MOL0     H 8587   2.102   8.265   8.539  0.9988 -0.1034  1.2468
   64MOL0     H 8588   2.185   8.407   8.592 -2.0558 -0.9495  0.9997
   64MOL0     H 8589   2.090   8.373   8.303  1.2416 -0.6696 -0.7492
   64MOL0     H 8590   2.125   8.521   8.382 -0.0350  0.6739  2.4792
   64MOL0     H 8591   1.862   8.272   8.534 -1.4185 -0.0737  1.5567
   64MOL0     H 8592   1.607   8.327   8.630 -3.0094 -1.7988 -1.6612
   64MOL0     H 8593   1.576   8.500   8.619 -1.3424 -0.0448 -1.0520
   64MOL0     H 8594   1.436   8.306   8.504  0.4857 -2.6594 -1.5100
   64MOL0     H 8595   1.549   8.315   8.379  0.3206 -0.0271  0.6178
   64MOL0     H 8596   1.497   8.585   8.370 -0.0860  1.3227  1.4113
   64MOL0     H 8597   1.362   8.548   8.472 -2.3909  2.0087 -2.5144
   64MOL0     H 8598   1.260   8.412   8.289 -0.9340  0.2112  0.9071
   64MOL0     H 8599   1.406   8.444   8.190  0.9906  0.3939  1.4630
   64MOL0     H 8600   1.164   8.831   8.186  1.4533  0.2369 -0.6739
   64MOL0     H 8601   0.862   8.919   8.080 -0.5694 -0.6530 -1.6425
   64MOL0     H 8602   1.033   8.987   8.099  1.7867  1.4400 -4.7786
   64MOL0     H 8603   0.969   8.944   7.941 -0.9748 -1.2571 -0.2662
   64MOL0     H 8604   0.667   8.420   7.734  2.4399  1.4394  2.2125
   64MOL0     H 8605   0.426   8.425   7.625  1.1443 -0.8693  0.3698
   64MOL0     H 8606   0.156   8.424   7.878  0.7894  0.6479  1.2239
   64MOL0     H 8607   0.094   8.591   7.884 -2.8137 -2.7113  2.2437
   64MOL0     H 8608   0.020   8.383   7.684 -1.5126 -0.2213  0.5168
   64MOL0     H 8609  -0.087   8.463   7.799 -3.4020 -0.1722 -3.9966
   64MOL0     H 8610   0.031   8.601   7.557  0.0039 -1.1816 -1.1702
   64MOL0     H 8611  -0.052   8.687   7.686  1.5232  0.2119 -0.4709
   64MOL0     H 8612  -0.256   8.558   7.681 -1.1427  1.6774 -0.4785
   64MOL0     H 8613  -0.231   8.664   7.552  0.2042 -1.0596  0.4461
   64MOL0     H 8614  -0.158   8.375   7.516 -1.1786 -0.5593  0.5597
   64MOL0     H 8615  -0.189   8.502   7.400  1.6069 -1.1797  0.5024
   64MOL0     H 8616  -0.409   8.376   7.562  0.2458  1.4453  0.3139
   64MOL0     H 8617  -0.424   8.500   7.438  0.7563  0.9800  1.0841
   64MOL0     H 8618  -0.352   8.219   7.425 -1.2844  2.1235  2.5209
   64MOL0     H 8619  -0.282   8.320   7.300  1.7125  3.1061  1.9439
   64MOL0     H 8620  -0.480   8.224   7.191  1.3027 -0.2352  0.1622
   64MOL0     H 8621  -0.512   8.394   7.230 -1.3332 -1.3436 -1.4413
   64MOL0     H 8622   0.299   8.686   7.944 -0.8928  0.7076  0.0927
   64MOL0     H 8623   0.524   8.702   8.025 -0.0535 -1.0023  0.4901
   64MOL0     H 8624   0.931   8.442   7.997  0.9642 -1.4854  0.8573
   64MOL0     H 8625   1.160   8.408   8.098  0.0904 -0.2589  1.0401
   64MOL0     H 8626   3.040   8.054   8.751  1.7489  3.4429  0.4142
   64MOL0     H 8627   3.244   7.986   8.877  2.7256 -0.5623  0.3299
   64MOL0     H 8628   3.601   7.669   8.841 -1.2402 -0.2575  0.5239
   64MOL0     H 8629   3.799   7.568   8.976  0.2913  0.0417  2.3006
   64MOL0     H 8630   4.041   7.789   9.189 -2.5117 -0.6818 -0.9745
   64MOL0     H 8631   3.947   7.761   9.337  2.8839 -0.6763  1.7066
   64MOL0     H 8632   4.046   7.518   9.338 -2.0639  0.7558 -3.2937
   64MOL0     H 8633   4.114   7.652   9.424  0.7800 -3.8873  2.1873
   64MOL0     H 8634   4.293   7.553   9.308 -0.0161 -0.6455 -1.9836
   64MOL0     H 8635   4.255   7.715   9.248 -2.5797  0.8565  0.5928
   64MOL0     H 8636   4.143   7.575   9.045 -0.6880  1.0755  0.9801
   64MOL0     H 8637   4.193   7.425   9.133  0.8771 -0.1427  1.2684
   64MOL0     H 8638   4.557   7.578   8.947  0.1373  0.7139  0.5973
   64MOL0     H 8639   3.811   7.904   9.227  4.6968 -3.5246  0.7773
   64MOL0     H 8640   3.620   8.003   9.105  0.1913 -1.3620  3.1601
   65MOL0     O 8641   6.706   6.617   2.212 -0.7019 -0.2694 -0.4575
   65MOL0     C 8642   6.710   6.493   2.233  0.6602 -0.1980 -0.4794
   65MOL0     O 8643   6.606   6.424   2.290 -0.0225  0.0208  0.3471
   65MOL0     C 8644   6.492   6.494   2.311 -0.6909 -0.0751 -0.5611
   65MOL0     C 8645   6.372   6.456   2.249 -0.0185 -0.0060  0.1835
   65MOL0     C 8646   6.254   6.526   2.276  0.2514  0.2641 -0.1291
   65MOL0     C 8647   6.259   6.629   2.373 -0.4776  0.6392  0.2611
   65MOL0     O 8648   6.148   6.701   2.408 -0.0922 -0.5840 -0.7609
   65MOL0     C 8649   6.019   6.636   2.410 -0.4411  0.0665 -0.1226
   65MOL0     C 8650   5.919   6.724   2.492 -0.2746  0.0331 -0.4203
   65MOL0     C 8651   5.789   6.700   2.422 -0.1029  0.1665  0.2729
   65MOL0     C 8652   5.671   6.762   2.502  0.0485  0.1817  0.2447
   65MOL0     C 8653   5.534   6.749   2.435 -0.4601 -0.2807  0.1386
   65MOL0     C 8654   5.430   6.847   2.497  0.2988 -0.3903 -0.1105
   65MOL0     C 8655   5.304   6.852   2.409  0.7645 -0.0172 -0.0108
   65MOL0     C 8656   5.180   6.892   2.494  1.0844 -1.1027 -0.1490
   65MOL0     N 8657   5.055   6.865   2.425 -0.3228 -0.8081  0.1384
   65MOL0     C 8658   4.931   6.859   2.490  0.1259  0.3508  0.8493
   65MOL0     C 8659   4.847   6.850   2.383  0.3685  0.2827  0.4042
   65MOL0     C 8660   4.693   6.836   2.386  0.2875  0.3875 -0.3333
   65MOL0     C 8661   4.626   6.921   2.280  0.3166  0.7173  0.4817
   65MOL0     C 8662   4.468   6.914   2.278 -0.6934 -1.3728  0.6341
   65MOL0     C 8663   4.422   6.775   2.266  0.5948  0.1755 -0.0646
   65MOL0     O 8664   4.281   6.781   2.261 -0.0191 -0.8965 -0.1789
   65MOL0     C 8665   4.210   6.680   2.203 -0.9287  0.1761  0.0176
   65MOL0     C 8666   4.265   6.551   2.182 -0.7828 -0.0965 -0.2218
   65MOL0     C 8667   4.186   6.449   2.114 -1.0944 -0.1915  0.2491
   65MOL0     C 8668   4.254   6.318   2.093 -0.1357 -0.1370  0.3213
   65MOL0     C 8669   4.050   6.477   2.081  0.8502  0.3106 -0.3439
   65MOL0     C 8670   3.953   6.389   2.023  0.1220  0.4706 -0.4656
   65MOL0     O 8671   3.861   6.451   1.943  0.5056  0.2657  0.0746
   65MOL0     C 8672   3.772   6.362   1.878 -0.1645  0.7677  0.1941
   65MOL0     C 8673   3.806   6.296   1.760 -0.4961 -0.2336 -0.7322
   65MOL0     C 8674   3.717   6.215   1.702  1.0825  0.0360 -0.0823
   65MOL0     C 8675   3.593   6.192   1.757 -0.4357  0.0854  0.4770
   65MOL0     O 8676   3.522   6.114   1.683 -0.3506  0.1836  0.4275
   65MOL0     C 8677   3.379   6.109   1.697 -0.5229  0.9337 -0.6679
   65MOL0     C 8678   3.324   6.029   1.576  0.5903  0.0593 -0.1349
   65MOL0     C 8679   3.210   5.944   1.639  0.0717 -0.4941  0.1142
   65MOL0     C 8680   3.158   5.846   1.520 -0.1024 -0.6612 -0.0721
   65MOL0     C 8681   3.042   5.777   1.585  0.0227 -0.5736 -0.4278
   65MOL0     C 8682   3.013   5.648   1.505 -0.1643  0.0775  0.4224
   65MOL0     C 8683   2.878   5.580   1.541 -0.0219  0.0263 -0.1306
   65MOL0     C 8684   2.882   5.483   1.666  0.6646  1.0010 -0.8040
   65MOL0    Cl 8685   2.721   5.400   1.679 -0.0368 -0.2009 -0.5691
   65MOL0     C 8686   3.562   6.245   1.880  0.3507 -0.0957 -0.3297
   65MOL0     C 8687   3.652   6.334   1.944 -0.4180 -0.9854 -0.2056
   65MOL0     O 8688   3.962   6.270   2.046  0.5399 -0.0785  0.1855
   65MOL0     C 8689   4.004   6.605   2.102  0.1271 -0.4568 -0.1803
   65MOL0     C 8690   4.083   6.699   2.172  0.2890 -0.9082  0.5887
   65MOL0     N 8691   4.915   6.848   2.264  0.0451 -0.0379  0.5808
   65MOL0     N 8692   5.041   6.860   2.285  1.2239 -0.5626 -0.4950
   65MOL0     C 8693   6.373   6.664   2.441 -0.1324  0.1071 -0.4479
   65MOL0     C 8694   6.487   6.594   2.416  1.6990 -0.4561  0.8853
   65MOL0     C 8695   6.829   6.420   2.177  0.6762 -0.0833  0.6341
   65MOL0     C 8696   6.822   6.282   2.142 -0.3821 -0.6170  0.5378
   65MOL0     C 8697   6.930   6.213   2.098 -0.3135 -0.2381  0.7286
   65MOL0     C 8698   7.051   6.276   2.064 -1.5533  1.6820 -0.2987
   65MOL0     O 8699   7.156   6.222   1.990 -0.3782  0.4508 -0.6116
   65MOL0     C 8700   7.139   6.094   1.924 -0.6053  0.4860 -0.2572
   65MOL0     C 8701   7.264   6.065   1.851 -0.1627  0.0100 -0.3348
   65MOL0     C 8702   7.379   6.051   1.947 -0.0411 -0.2083  0.6526
   65MOL0     C 8703   7.513   6.003   1.889  0.3590 -0.8166 -0.4728
   65MOL0     C 8704   7.493   5.885   1.807  0.6443  0.1326  0.3557
   65MOL0     C 8705   7.455   5.793   1.734 -0.3167 -0.1912  0.4905
   65MOL0     C 8706   7.056   6.416   2.099 -0.5541 -0.0044  1.0940
   65MOL0     C 8707   6.944   6.489   2.155  0.5739 -0.3603  0.0497
   65MOL0     H 8708   6.376   6.375   2.177  4.6101  1.3414 -1.4240
   65MOL0     H 8709   6.158   6.511   2.229  0.0073 -1.2376  0.7959
   65MOL0     H 8710   5.993   6.637   2.303  1.8342  1.1793 -0.7334
   65MOL0     H 8711   6.031   6.540   2.461 -0.1758  0.9933  1.6441
   65MOL0     H 8712   5.899   6.698   2.597 -2.2025 -1.5572 -1.1093
   65MOL0     H 8713   5.946   6.828   2.473  1.8857 -0.7781 -2.0868
   65MOL0     H 8714   5.791   6.732   2.317 -1.7676 -1.5653 -0.3534
   65MOL0     H 8715   5.772   6.592   2.421  0.6392 -0.0443 -3.2204
   65MOL0     H 8716   5.649   6.701   2.590  2.6284 -1.4205 -0.1225
   65MOL0     H 8717   5.689   6.863   2.539 -0.3452 -0.0145  0.9876
   65MOL0     H 8718   5.539   6.762   2.327  0.2717 -1.7316 -0.0181
   65MOL0     H 8719   5.500   6.646   2.453  1.5710 -1.2144 -1.0716
   65MOL0     H 8720   5.402   6.821   2.600 -2.6918 -0.3286 -0.8340
   65MOL0     H 8721   5.469   6.949   2.487  1.7985 -0.6912  1.9809
   65MOL0     H 8722   5.317   6.930   2.334 -2.1676 -0.0616 -0.6944
   65MOL0     H 8723   5.285   6.757   2.357  1.1916 -0.8447  1.3032
   65MOL0     H 8724   5.186   6.998   2.520  1.3112 -1.3744  0.9430
   65MOL0     H 8725   5.188   6.836   2.588  2.6265 -1.2611 -0.3513
   65MOL0     H 8726   4.902   6.856   2.595 -2.1078  0.0002  0.2835
   65MOL0     H 8727   4.670   6.731   2.363 -1.0262  0.3035  1.2207
   65MOL0     H 8728   4.658   6.858   2.487  0.5109 -3.2103  0.6687
   65MOL0     H 8729   4.648   6.892   2.176 -1.7891  0.1663  0.1401
   65MOL0     H 8730   4.661   7.024   2.297  1.3417  0.3212  0.8272
   65MOL0     H 8731   4.434   6.968   2.189  3.2211  0.4500  0.0703
   65MOL0     H 8732   4.417   6.966   2.360 -2.8403  0.7370 -1.8477
   65MOL0     H 8733   4.449   6.713   2.352  1.4053  0.9942  0.2853
   65MOL0     H 8734   4.468   6.743   2.172  0.9176  1.1287 -0.2379
   65MOL0     H 8735   4.359   6.529   2.231 -1.1371 -0.8214  0.1500
   65MOL0     H 8736   4.348   6.323   2.038 -1.4917 -2.0162 -2.4367
   65MOL0     H 8737   4.259   6.268   2.190 -1.2398 -1.0056 -0.0398
   65MOL0     H 8738   4.198   6.243   2.035  0.4145 -2.3466  2.5006
   65MOL0     H 8739   3.892   6.301   1.693  0.1295 -2.3733 -0.1562
   65MOL0     H 8740   3.750   6.161   1.614  4.4493 -1.0651  1.6499
   65MOL0     H 8741   3.347   6.057   1.788  0.1510  0.7152 -0.5524
   65MOL0     H 8742   3.354   6.216   1.701  1.6376  1.4676  0.4371
   65MOL0     H 8743   3.287   6.088   1.490  2.1357 -0.7318 -1.3926
   65MOL0     H 8744   3.403   5.961   1.543 -0.1766 -1.4012  0.9240
   65MOL0     H 8745   3.128   6.014   1.658 -0.3351  0.0573 -3.1371
   65MOL0     H 8746   3.235   5.893   1.733  0.2990 -2.9107 -1.1932
   65MOL0     H 8747   3.135   5.917   1.440  0.9922 -0.6217 -0.3663
   65MOL0     H 8748   3.223   5.769   1.480 -1.2820 -1.6058 -0.2069
   65MOL0     H 8749   2.953   5.839   1.600 -1.0680 -2.2250  0.3096
   65MOL0     H 8750   3.065   5.753   1.690  0.9188  2.1737  0.0865
   65MOL0     H 8751   3.005   5.682   1.402 -0.4509  1.0697  0.7561
   65MOL0     H 8752   3.097   5.578   1.504  0.9276  1.2880 -2.2375
   65MOL0     H 8753   2.833   5.528   1.456 -1.1639 -1.5916  1.4088
   65MOL0     H 8754   2.813   5.663   1.571  2.0305  0.7894  2.6018
   65MOL0     H 8755   2.900   5.533   1.762 -1.5963 -1.9220  1.2957
   65MOL0     H 8756   2.953   5.408   1.630 -0.5396  1.1426 -3.7838
   65MOL0     H 8757   3.467   6.203   1.912  0.5434 -1.8157 -1.8239
   65MOL0     H 8758   3.627   6.382   2.038 -1.1590 -0.7131 -0.5304
   65MOL0     H 8759   3.905   6.638   2.070  0.6926  0.2477 -1.3065
   65MOL0     H 8760   4.047   6.798   2.200  1.1220 -0.0553 -1.1954
   65MOL0     H 8761   6.397   6.754   2.498  0.1797 -0.8694  1.0241
   65MOL0     H 8762   6.573   6.627   2.473  2.4912 -2.7723  1.1531
   65MOL0     H 8763   6.720   6.245   2.151  0.4967 -3.2815  0.3421
   65MOL0     H 8764   6.911   6.108   2.077  2.4032 -0.8894  1.1084
   65MOL0     H 8765   7.122   6.012   1.994 -1.3334 -1.6841 -2.8155
   65MOL0     H 8766   7.057   6.103   1.853  0.0450  0.8880 -0.9738
   65MOL0     H 8767   7.290   6.131   1.767 -1.0516  2.4825  1.2336
   65MOL0     H 8768   7.240   5.973   1.797 -1.0971  0.3908 -0.5881
   65MOL0     H 8769   7.351   5.978   2.024 -0.4082 -1.7874 -0.9189
   65MOL0     H 8770   7.407   6.150   1.986 -0.1115  0.9652 -2.0929
   65MOL0     H 8771   7.570   5.968   1.976 -3.5083  1.0443  3.1553
   65MOL0     H 8772   7.569   6.091   1.855 -0.5038 -0.3504 -0.7109
   65MOL0     H 8773   7.412   5.736   1.654 -0.6426  0.8368 -0.0886
   65MOL0     H 8774   7.131   6.483   2.058  0.3962 -1.9193 -0.4759
   65MOL0     H 8775   6.945   6.596   2.171  0.2528 -0.6182  2.0131
   66MOL0     O 8776   9.738   5.993   2.232 -0.2800 -1.0645  0.3798
   66MOL0     C 8777   9.746   6.058   2.130  0.0540  0.5473 -0.3132
   66MOL0     O 8778   9.642   6.093   2.055  0.0591 -0.0673 -0.0302
   66MOL0     C 8779   9.517   6.042   2.092 -0.3845 -0.1851 -0.5891
   66MOL0     C 8780   9.428   6.123   2.160  0.3752  0.6751 -0.0113
   66MOL0     C 8781   9.301   6.076   2.208 -0.7392 -0.5665 -0.1505
   66MOL0     C 8782   9.272   5.947   2.183  0.1687 -0.3346  0.3104
   66MOL0     O 8783   9.153   5.902   2.244  0.0580  0.3303  0.6632
   66MOL0     C 8784   9.096   5.769   2.213 -0.0657 -0.0328  0.2091
   66MOL0     C 8785   8.948   5.767   2.251 -0.3948 -1.1358  0.0013
   66MOL0     C 8786   8.869   5.823   2.129 -0.7808 -0.6475 -1.2405
   66MOL0     C 8787   8.723   5.838   2.162 -1.0310 -0.0786  0.0037
   66MOL0     C 8788   8.637   5.844   2.039  0.3818  0.2857  0.3739
   66MOL0     C 8789   8.611   5.717   1.964 -0.6536 -0.8372  0.1692
   66MOL0     C 8790   8.504   5.735   1.857 -1.1800 -0.4468  0.0053
   66MOL0     C 8791   8.453   5.601   1.800  0.1554 -0.4799  0.0608
   66MOL0     N 8792   8.405   5.614   1.660  0.1746 -0.3921  0.0634
   66MOL0     C 8793   8.477   5.678   1.564 -0.2517 -0.4687  0.8361
   66MOL0     C 8794   8.406   5.664   1.451 -0.1434  0.2958  0.5596
   66MOL0     C 8795   8.455   5.724   1.320  0.3951 -0.2475 -0.1142
   66MOL0     C 8796   8.345   5.826   1.276 -0.2838 -0.4272  0.0642
   66MOL0     C 8797   8.349   5.862   1.119  0.8880  0.5452 -0.0047
   66MOL0     C 8798   8.247   5.962   1.078 -0.1129  1.0398 -0.0468
   66MOL0     O 8799   8.110   5.901   1.076  0.3738  0.0357  0.5633
   66MOL0     C 8800   8.074   5.807   0.992  1.4433  0.5928  0.9482
   66MOL0     C 8801   8.138   5.789   0.870 -0.1745  0.7868  0.6541
   66MOL0     C 8802   8.108   5.682   0.788  0.1446  0.2455  0.5092
   66MOL0     C 8803   8.180   5.658   0.665 -0.3085 -0.1976 -0.4742
   66MOL0     C 8804   8.003   5.593   0.828  0.4743  0.2419 -0.1778
   66MOL0     C 8805   7.963   5.478   0.736  0.6034  0.4904  1.2269
   66MOL0     O 8806   8.028   5.362   0.755  0.2097  0.4689 -0.1786
   66MOL0     C 8807   7.986   5.239   0.696 -0.2553  0.2153  0.5032
   66MOL0     C 8808   7.857   5.215   0.654 -0.2567  0.4246 -0.6244
   66MOL0     C 8809   7.821   5.095   0.590 -0.3532  0.0407  0.3360
   66MOL0     C 8810   7.910   4.989   0.579 -0.1771  0.1547  0.5053
   66MOL0     O 8811   7.873   4.876   0.515  0.1679  0.6304 -0.3377
   66MOL0     C 8812   7.955   4.755   0.541 -0.6711 -0.1499  0.2938
   66MOL0     C 8813   7.904   4.637   0.451 -1.0915 -0.5243 -0.8595
   66MOL0     C 8814   7.906   4.666   0.294 -0.1816  0.0782  0.2589
   66MOL0     C 8815   7.789   4.588   0.232 -1.2164  0.2166 -0.2357
   66MOL0     C 8816   7.787   4.594   0.080 -0.1530 -0.4683 -0.0487
   66MOL0     C 8817   7.891   4.494   0.017  0.0963 -0.0816 -0.0852
   66MOL0     C 8818   7.912   4.524  -0.128 -0.4302  0.0299 -0.4151
   66MOL0     C 8819   7.984   4.399  -0.198  0.4363  0.0551  0.1970
   66MOL0    Cl 8820   7.916   4.363  -0.351 -0.0685 -0.0198 -0.2437
   66MOL0     C 8821   8.039   5.012   0.631 -0.0003  0.2732  1.0117
   66MOL0     C 8822   8.075   5.133   0.695  0.1702 -0.1840  0.3477
   66MOL0     O 8823   7.893   5.506   0.631 -0.3917  0.4559 -0.1529
   66MOL0     C 8824   7.920   5.634   0.931 -0.1115  0.2922 -0.1941
   66MOL0     C 8825   7.957   5.733   1.012 -0.7832 -0.2952 -0.0126
   66MOL0     N 8826   8.300   5.583   1.470 -0.3158  0.3797 -0.3010
   66MOL0     N 8827   8.301   5.547   1.594 -0.6819 -0.8674 -0.6384
   66MOL0     C 8828   9.363   5.858   2.114 -0.3050 -0.0012 -0.1606
   66MOL0     C 8829   9.486   5.905   2.067 -0.1869 -0.0040 -0.4389
   66MOL0     C 8830   9.884   6.086   2.096 -0.1085 -0.1386 -0.3277
   66MOL0     C 8831   9.996   6.036   2.169  0.0203 -1.2598 -0.1302
   66MOL0     C 8832  10.127   6.074   2.141 -0.2710 -0.8236 -0.3616
   66MOL0     C 8833  10.143   6.159   2.027  0.4375  0.6042 -0.0423
   66MOL0     O 8834  10.271   6.209   2.017  0.3183 -0.2563  0.9351
   66MOL0     C 8835  10.304   6.319   1.913  0.0376  0.3646 -0.4258
   66MOL0     C 8836  10.458   6.305   1.879  0.4607 -0.0002 -0.3118
   66MOL0     C 8837  10.498   6.190   1.786 -0.6848  0.6153  0.2843
   66MOL0     C 8838  10.650   6.162   1.780  0.6954  0.4821  0.1278
   66MOL0     C 8839  10.724   6.273   1.727  0.2482  0.1142  0.3138
   66MOL0     C 8840  10.785   6.374   1.704  0.3739  0.6140 -0.8905
   66MOL0     C 8841  10.038   6.186   1.939  0.5855  0.4429 -0.6698
   66MOL0     C 8842   9.913   6.150   1.978  0.2871 -1.0493  0.6768
   66MOL0     H 8843   9.445   6.228   2.182  2.7155  0.0329  1.5921
   66MOL0     H 8844   9.229   6.123   2.275 -0.2049  0.6077 -0.3864
   66MOL0     H 8845   9.107   5.749   2.106 -2.4539  0.9616 -0.2945
   66MOL0     H 8846   9.152   5.696   2.272  0.8812  0.1529 -0.4435
   66MOL0     H 8847   8.926   5.662   2.272 -0.3453 -0.9734  0.9248
   66MOL0     H 8848   8.936   5.831   2.339  3.4065 -0.2564  0.0254
   66MOL0     H 8849   8.904   5.920   2.092  0.5385  0.0145  1.4556
   66MOL0     H 8850   8.887   5.756   2.045  0.9805  1.1513 -2.3794
   66MOL0     H 8851   8.692   5.753   2.224 -0.4828 -0.2944 -0.0121
   66MOL0     H 8852   8.712   5.925   2.228 -0.8784  1.4126 -1.8564
   66MOL0     H 8853   8.537   5.868   2.077 -0.2372 -1.1665 -0.2620
   66MOL0     H 8854   8.669   5.919   1.967 -1.5559  0.8191 -0.0064
   66MOL0     H 8855   8.706   5.686   1.920  0.4860  0.3433  1.6770
   66MOL0     H 8856   8.581   5.644   2.039  0.3850  0.5849  2.0634
   66MOL0     H 8857   8.423   5.799   1.892  1.9869  2.9801  1.7070
   66MOL0     H 8858   8.550   5.795   1.779  1.9887 -1.2903  1.0833
   66MOL0     H 8859   8.366   5.562   1.854 -2.3502  1.0969 -2.5650
   66MOL0     H 8860   8.544   5.540   1.801  0.9148  0.5833  2.4499
   66MOL0     H 8861   8.572   5.725   1.588 -0.6612  1.5134 -1.1006
   66MOL0     H 8862   8.549   5.778   1.332 -0.8997  1.7298  1.7626
   66MOL0     H 8863   8.474   5.652   1.239  2.3586  1.5927 -1.3891
   66MOL0     H 8864   8.358   5.922   1.327 -1.9675  0.7736 -1.6318
   66MOL0     H 8865   8.247   5.781   1.291  0.4813 -2.3382 -0.3843
   66MOL0     H 8866   8.337   5.777   1.052 -0.0862  1.9269 -1.6667
   66MOL0     H 8867   8.447   5.908   1.108 -0.0276  2.9506  1.2102
   66MOL0     H 8868   8.265   6.001   0.977 -2.4914  1.9966 -0.1607
   66MOL0     H 8869   8.259   6.050   1.142 -1.2850  2.0373 -1.1468
   66MOL0     H 8870   8.221   5.854   0.843 -0.4037  1.2840  1.1120
   66MOL0     H 8871   8.112   5.668   0.579 -0.3035  2.7543 -0.2368
   66MOL0     H 8872   8.260   5.731   0.649 -1.8296  0.9889 -3.6701
   66MOL0     H 8873   8.221   5.557   0.671  1.7315  0.6604  2.1930
   66MOL0     H 8874   7.784   5.287   0.687 -0.5624 -0.3819  0.5478
   66MOL0     H 8875   7.716   5.086   0.564 -0.0338 -2.0026 -0.4086
   66MOL0     H 8876   8.059   4.775   0.515 -0.6102  0.3755  0.9133
   66MOL0     H 8877   7.952   4.733   0.648  0.5814  2.0569  0.8365
   66MOL0     H 8878   7.954   4.546   0.485  1.7710 -0.1407 -3.6159
   66MOL0     H 8879   7.800   4.618   0.478 -1.1674  1.1408  0.1517
   66MOL0     H 8880   8.005   4.639   0.257 -0.4090  1.2248 -1.3505
   66MOL0     H 8881   7.889   4.771   0.267  0.9580  0.6482  1.6221
   66MOL0     H 8882   7.796   4.485   0.267  0.0595  0.0587 -0.8640
   66MOL0     H 8883   7.692   4.613   0.274 -1.9726  0.1488 -1.8532
   66MOL0     H 8884   7.800   4.701   0.058  1.0322 -0.4072  0.8106
   66MOL0     H 8885   7.688   4.573   0.038 -0.8804  2.1198  0.1804
   66MOL0     H 8886   7.986   4.487   0.070  0.4367 -1.4516 -0.8313
   66MOL0     H 8887   7.844   4.396   0.032 -0.4036  0.0958 -0.4792
   66MOL0     H 8888   7.976   4.612  -0.125  1.6425 -1.3641 -1.6730
   66MOL0     H 8889   7.819   4.547  -0.180 -0.3934  0.4557 -0.2973
   66MOL0     H 8890   7.978   4.309  -0.136  2.7414 -0.2091  0.1354
   66MOL0     H 8891   8.093   4.411  -0.200  0.4064  0.2918 -0.2777
   66MOL0     H 8892   8.121   4.941   0.630  1.6514  1.8799 -3.4363
   66MOL0     H 8893   8.174   5.161   0.730 -0.6546  0.3767  2.3651
   66MOL0     H 8894   7.823   5.586   0.938 -0.6124  0.8009 -2.7616
   66MOL0     H 8895   7.903   5.750   1.104  1.4912 -2.3798  1.8489
   66MOL0     H 8896   9.347   5.754   2.089  1.2172  0.3233 -2.8396
   66MOL0     H 8897   9.549   5.830   2.021  0.5822  0.0367  0.5284
   66MOL0     H 8898   9.983   5.969   2.253  1.7472  1.5356  2.5775
   66MOL0     H 8899  10.211   6.033   2.195  0.8033  2.0497  0.3496
   66MOL0     H 8900  10.259   6.304   1.814 -0.8500 -2.3852  0.3089
   66MOL0     H 8901  10.276   6.416   1.954 -0.5359  0.0478 -0.0523
   66MOL0     H 8902  10.507   6.291   1.976 -0.2551  0.6035  0.1473
   66MOL0     H 8903  10.487   6.402   1.837 -2.2723  1.4654  0.9014
   66MOL0     H 8904  10.458   6.226   1.691 -0.1367  1.3454  0.3154
   66MOL0     H 8905  10.448   6.099   1.820  2.1207 -1.2008 -0.1108
   66MOL0     H 8906  10.674   6.066   1.733  0.1501 -0.8044  2.3538
   66MOL0     H 8907  10.673   6.147   1.886  0.4391  0.1950  0.1429
   66MOL0     H 8908  10.833   6.468   1.684  1.7642 -0.2617 -1.8081
   66MOL0     H 8909  10.044   6.243   1.847 -1.5140 -2.0542 -2.5019
   66MOL0     H 8910   9.836   6.195   1.916  1.8932  2.6612  1.0831
   67MOL0     O 8911   7.488   3.902   2.032 -0.2313 -1.0652 -0.3527
   67MOL0     C 8912   7.519   3.911   2.153  0.0633  0.2261  0.3164
   67MOL0     O 8913   7.430   3.888   2.255  0.2512 -0.3078  0.1607
   67MOL0     C 8914   7.300   3.903   2.221 -0.1701 -0.2377 -0.4655
   67MOL0     C 8915   7.242   3.815   2.136 -0.0907 -0.0732  1.0092
   67MOL0     C 8916   7.110   3.830   2.089  0.5859 -1.0744 -0.0276
   67MOL0     C 8917   7.027   3.933   2.147  0.3104  0.1227 -1.0330
   67MOL0     O 8918   6.898   3.933   2.101 -0.6187  0.6529 -0.0595
   67MOL0     C 8919   6.812   4.031   2.166 -0.6345 -0.0720 -0.2128
   67MOL0     C 8920   6.677   4.026   2.105  0.0509 -0.1064  0.9498
   67MOL0     C 8921   6.595   3.913   2.163 -0.5964  0.7003 -0.4759
   67MOL0     C 8922   6.451   3.906   2.110  0.6269 -0.5382 -0.7103
   67MOL0     C 8923   6.348   4.019   2.142 -0.1660 -0.0154 -0.3633
   67MOL0     C 8924   6.253   4.065   2.030 -0.0817 -0.2087  0.4204
   67MOL0     C 8925   6.153   3.958   1.991  0.3215  0.1843  0.3128
   67MOL0     C 8926   6.050   4.004   1.893 -0.2095 -0.2770 -0.0440
   67MOL0     N 8927   5.947   4.100   1.950  0.4057  0.8008 -0.0480
   67MOL0     C 8928   5.951   4.232   2.001 -0.3869 -0.1621 -0.3326
   67MOL0     C 8929   5.825   4.252   2.053  0.1934 -0.0055 -0.2788
   67MOL0     C 8930   5.770   4.365   2.119 -0.5732  0.8677 -0.1475
   67MOL0     C 8931   5.843   4.495   2.070  0.1544  0.0066  0.4366
   67MOL0     C 8932   5.768   4.608   2.143  0.5353 -0.1171 -0.5977
   67MOL0     C 8933   5.840   4.736   2.151 -0.0277 -0.2087  1.6748
   67MOL0     O 8934   5.972   4.718   2.217  0.7145 -0.0669  0.5448
   67MOL0     C 8935   6.059   4.822   2.220 -1.0544 -0.8266  0.1518
   67MOL0     C 8936   6.024   4.956   2.230  0.0163 -0.0470  0.2926
   67MOL0     C 8937   6.111   5.058   2.249  0.5044  0.6101  0.0638
   67MOL0     C 8938   6.049   5.199   2.238 -0.0449  0.2602  0.6786
   67MOL0     C 8939   6.254   5.029   2.248 -0.0332 -0.3479 -0.3974
   67MOL0     C 8940   6.357   5.130   2.275  0.0966  0.3469 -0.7278
   67MOL0     O 8941   6.471   5.083   2.331  0.0857 -0.5347  0.0484
   67MOL0     C 8942   6.582   5.163   2.342  0.4032 -0.7138 -0.5372
   67MOL0     C 8943   6.612   5.256   2.239 -0.4818 -0.3530  0.2743
   67MOL0     C 8944   6.742   5.319   2.232  0.0970 -0.0106 -0.4110
   67MOL0     C 8945   6.836   5.287   2.321  0.4751  0.6195 -0.6080
   67MOL0     O 8946   6.958   5.352   2.331  0.7680 -0.7125 -0.1222
   67MOL0     C 8947   7.016   5.392   2.207 -0.1232  0.7261 -0.1817
   67MOL0     C 8948   7.166   5.418   2.228 -0.4515  0.1329  0.1234
   67MOL0     C 8949   7.229   5.438   2.088  0.7455  0.2938  0.6172
   67MOL0     C 8950   7.364   5.505   2.093  1.1709  0.2336  0.1321
   67MOL0     C 8951   7.423   5.527   1.952 -0.7633 -0.8731 -0.5264
   67MOL0     C 8952   7.449   5.389   1.879 -0.1772 -0.8535  0.2347
   67MOL0     C 8953   7.513   5.424   1.738  0.4180  0.0280 -0.3166
   67MOL0     C 8954   7.653   5.491   1.736  0.5457  0.8469  0.6381
   67MOL0    Cl 8955   7.797   5.373   1.734 -0.0561 -0.5153 -0.8328
   67MOL0     C 8956   6.807   5.192   2.423 -0.5367  0.0598  0.3242
   67MOL0     C 8957   6.682   5.133   2.432 -0.5743  0.1778  0.5116
   67MOL0     O 8958   6.332   5.247   2.263  0.2076  0.1673  0.7058
   67MOL0     C 8959   6.294   4.894   2.235 -0.2255 -0.3931 -0.4711
   67MOL0     C 8960   6.196   4.795   2.224 -0.3295 -0.9130 -0.1315
   67MOL0     N 8961   5.761   4.131   2.033  0.4813  0.0058  0.0565
   67MOL0     N 8962   5.825   4.039   1.972  0.1141  0.0192 -0.0803
   67MOL0     C 8963   7.087   4.013   2.246  0.7663  0.4098  0.3362
   67MOL0     C 8964   7.219   3.993   2.282  0.2421 -0.2166  0.4509
   67MOL0     C 8965   7.655   3.930   2.188  0.2962  0.7787 -0.1856
   67MOL0     C 8966   7.703   3.891   2.311 -0.9147 -0.2789 -1.2477
   67MOL0     C 8967   7.839   3.913   2.349  0.4485 -0.0412  0.0194
   67MOL0     C 8968   7.920   3.989   2.270  0.1752  0.2180 -0.6138
   67MOL0     O 8969   8.044   4.028   2.315 -0.0980  0.4889  0.5720
   67MOL0     C 8970   8.117   4.129   2.250 -0.4107  0.0768  0.3694
   67MOL0     C 8971   8.234   4.177   2.343  0.7996 -0.4932  0.2476
   67MOL0     C 8972   8.359   4.092   2.321 -0.3902 -0.1541  0.1502
   67MOL0     C 8973   8.449   4.075   2.445 -0.2122  1.0410 -0.2295
   67MOL0     C 8974   8.474   4.199   2.515 -0.5522 -0.5091  0.1889
   67MOL0     C 8975   8.507   4.308   2.552  0.3782  0.0138 -0.2553
   67MOL0     C 8976   7.876   4.014   2.142  1.1202 -0.4453  0.2326
   67MOL0     C 8977   7.746   3.981   2.099  0.4384 -0.3173 -0.3222
   67MOL0     H 8978   7.304   3.737   2.090  0.6301  1.2085 -0.2823
   67MOL0     H 8979   7.076   3.762   2.011  2.2813  0.6729 -2.4233
   67MOL0     H 8980   6.810   4.007   2.273 -1.5262  0.2974 -0.1436
   67MOL0     H 8981   6.850   4.134   2.157 -0.1571 -0.3943 -2.6694
   67MOL0     H 8982   6.628   4.117   2.141 -1.3337 -0.9036  1.1648
   67MOL0     H 8983   6.671   4.029   1.996 -2.8524  0.3354  1.0571
   67MOL0     H 8984   6.652   3.821   2.144 -0.1334  0.7412  0.6332
   67MOL0     H 8985   6.596   3.922   2.272 -1.1643  1.4907 -0.5325
   67MOL0     H 8986   6.470   3.898   2.003  2.6181  0.0468 -0.4479
   67MOL0     H 8987   6.410   3.809   2.139  0.3877 -0.6454 -1.4058
   67MOL0     H 8988   6.299   4.000   2.238  0.7394 -3.6014 -0.4725
   67MOL0     H 8989   6.405   4.111   2.158 -1.3302  0.3138  2.5998
   67MOL0     H 8990   6.203   4.153   2.073  0.3860 -0.3689  1.3248
   67MOL0     H 8991   6.304   4.099   1.940 -0.0032 -1.2189  0.0761
   67MOL0     H 8992   6.202   3.873   1.944  0.5556  2.0311 -3.1230
   67MOL0     H 8993   6.103   3.915   2.078 -2.0371  0.0385 -1.0367
   67MOL0     H 8994   5.986   3.920   1.868  0.9039 -1.2168  0.1754
   67MOL0     H 8995   6.095   4.056   1.808 -0.6693  1.6260  0.8206
   67MOL0     H 8996   6.033   4.301   2.015 -1.3469  0.3585  3.9772
   67MOL0     H 8997   5.662   4.372   2.103 -0.5799 -0.6876 -0.9731
   67MOL0     H 8998   5.786   4.356   2.227  1.2899 -2.9874 -0.5634
   67MOL0     H 8999   5.823   4.494   1.963  2.5259 -1.9660 -0.0827
   67MOL0     H 9000   5.950   4.490   2.096  0.5279 -0.8112 -1.1131
   67MOL0     H 9001   5.763   4.586   2.250  3.2787  0.6956 -0.2038
   67MOL0     H 9002   5.667   4.624   2.105  0.1504 -0.6908  0.1650
   67MOL0     H 9003   5.793   4.817   2.208  0.2297  2.4321 -1.5776
   67MOL0     H 9004   5.859   4.763   2.047  0.0115 -3.2748  0.8074
   67MOL0     H 9005   5.920   4.983   2.215 -0.2961 -1.9818 -1.4483
   67MOL0     H 9006   6.110   5.266   2.177 -4.4329  1.9532 -2.3710
   67MOL0     H 9007   5.960   5.197   2.175 -1.2064 -2.1434  2.2356
   67MOL0     H 9008   6.023   5.241   2.335 -0.5764 -1.9895  1.5675
   67MOL0     H 9009   6.539   5.264   2.159 -2.7593  1.5257  2.3979
   67MOL0     H 9010   6.762   5.393   2.155 -0.1951  1.5046  0.9301
   67MOL0     H 9011   7.014   5.301   2.145  1.8418 -1.1968  2.3608
   67MOL0     H 9012   6.969   5.479   2.160  1.6023  0.5630 -2.3657
   67MOL0     H 9013   7.180   5.513   2.279  2.3097 -0.9724  1.6026
   67MOL0     H 9014   7.221   5.341   2.282 -1.3613 -0.1001  0.7542
   67MOL0     H 9015   7.158   5.508   2.043 -1.3031 -1.2943  1.2496
   67MOL0     H 9016   7.222   5.353   2.020 -3.1244  2.5088 -2.1908
   67MOL0     H 9017   7.343   5.604   2.134 -0.8393 -0.0633 -0.1100
   67MOL0     H 9018   7.426   5.442   2.157 -1.5336 -1.4515  1.2566
   67MOL0     H 9019   7.515   5.584   1.966 -2.7928  2.6941 -0.2894
   67MOL0     H 9020   7.345   5.593   1.913  0.7769  4.0076  3.4276
   67MOL0     H 9021   7.523   5.337   1.940  0.1371 -0.7248 -0.0322
   67MOL0     H 9022   7.358   5.328   1.877 -0.0666 -1.0331 -1.9313
   67MOL0     H 9023   7.449   5.492   1.681 -0.2902  0.3219  0.7950
   67MOL0     H 9024   7.518   5.330   1.683 -1.4642  0.1268 -0.6994
   67MOL0     H 9025   7.656   5.564   1.817 -1.8446  1.1216  0.5583
   67MOL0     H 9026   7.663   5.541   1.639  2.4735 -0.4750  0.1135
   67MOL0     H 9027   6.894   5.168   2.484 -1.3523 -1.5863  0.9199
   67MOL0     H 9028   6.651   5.065   2.511 -0.5447  1.4093  1.6245
   67MOL0     H 9029   6.394   4.853   2.250 -0.6459 -0.9331  1.0434
   67MOL0     H 9030   6.211   4.690   2.203 -2.4242 -1.5120  1.0858
   67MOL0     H 9031   7.031   4.088   2.301  1.8963  2.3208 -0.9884
   67MOL0     H 9032   7.252   4.066   2.355 -4.1125  0.5445  1.9509
   67MOL0     H 9033   7.630   3.846   2.378 -1.9973  3.9715  0.7638
   67MOL0     H 9034   7.877   3.885   2.447  3.3266  2.0592 -0.3751
   67MOL0     H 9035   8.149   4.087   2.155 -5.2464  0.5624 -1.7519
   67MOL0     H 9036   8.043   4.209   2.237 -3.5551 -2.8417 -1.2920
   67MOL0     H 9037   8.199   4.165   2.446  1.3523 -2.9643  0.2086
   67MOL0     H 9038   8.258   4.278   2.310  0.3857 -0.4200  0.1619
   67MOL0     H 9039   8.417   4.126   2.234  1.8040 -1.1990  1.1196
   67MOL0     H 9040   8.332   3.991   2.292 -0.2902 -0.5756  1.4722
   67MOL0     H 9041   8.538   4.014   2.431 -0.7140  0.8318 -3.1688
   67MOL0     H 9042   8.378   4.026   2.513 -0.3453 -0.8897 -1.6979
   67MOL0     H 9043   8.539   4.406   2.581 -0.3433 -0.4253  2.2428
   67MOL0     H 9044   7.940   4.074   2.077  1.4163  0.7462  1.5758
   67MOL0     H 9045   7.716   4.007   1.998 -0.1206 -0.3058 -0.1554
   68MOL0     O 9046   7.338   9.199  10.663  0.4283  0.7080 -0.0701
   68MOL0     C 9047   7.368   9.290  10.587  1.3380  0.3525  0.0891
   68MOL0     O 9048   7.277   9.383  10.541  0.1254  0.5443  0.5585
   68MOL0     C 9049   7.150   9.394  10.601 -0.9433 -0.1631  0.0419
   68MOL0     C 9050   7.036   9.408  10.528 -0.3095 -0.0334 -0.7198
   68MOL0     C 9051   6.915   9.432  10.596 -1.0008  0.2844  0.4876
   68MOL0     C 9052   6.907   9.443  10.738  0.5914  0.5833 -0.7143
   68MOL0     O 9053   6.788   9.468  10.801  0.8338 -0.0621 -0.2050
   68MOL0     C 9054   6.666   9.460  10.729  0.2356  1.1913 -0.0900
   68MOL0     C 9055   6.553   9.520  10.817 -0.4357  0.3774  0.5052
   68MOL0     C 9056   6.412   9.523  10.763 -0.7790 -0.1356 -0.2638
   68MOL0     C 9057   6.309   9.530  10.881 -0.6625 -0.1437 -0.0637
   68MOL0     C 9058   6.168   9.547  10.823 -0.5275  0.2252  0.2707
   68MOL0     C 9059   6.048   9.532  10.925  1.0580  0.3608 -0.4388
   68MOL0     C 9060   5.908   9.538  10.867 -0.1329 -0.5623  0.2708
   68MOL0     C 9061   5.799   9.601  10.957  0.0254 -0.4372 -0.9767
   68MOL0     N 9062   5.672   9.612  10.887  0.5153 -0.1300 -0.1758
   68MOL0     C 9063   5.638   9.584  10.756 -0.0056  0.3599 -0.5623
   68MOL0     C 9064   5.508   9.610  10.739 -0.2908  0.2851 -1.3315
   68MOL0     C 9065   5.420   9.573  10.623  0.1465  0.3895 -0.6037
   68MOL0     C 9066   5.439   9.666  10.508  0.0398 -0.0585  0.0409
   68MOL0     C 9067   5.392   9.611  10.370  0.1853 -0.5581 -0.3763
   68MOL0     C 9068   5.259   9.532  10.360  0.0134  0.3511  0.6018
   68MOL0     O 9069   5.132   9.604  10.363 -0.0431  0.4196  0.1365
   68MOL0     C 9070   5.021   9.530  10.337  0.2474  0.1388 -0.1885
   68MOL0     C 9071   5.013   9.394  10.303  0.6675 -0.4218  0.0924
   68MOL0     C 9072   4.885   9.328  10.290 -0.3387  0.1792 -0.1275
   68MOL0     C 9073   4.892   9.181  10.241  0.5844 -0.6863  0.4613
   68MOL0     C 9074   4.764   9.395  10.314  0.0521 -0.5602  0.3752
   68MOL0     C 9075   4.618   9.330  10.311  0.5563  1.1480  0.0848
   68MOL0     O 9076   4.520   9.420  10.301 -0.0818  0.6423 -0.2280
   68MOL0     C 9077   4.389   9.377  10.342 -0.5734 -0.8555 -0.0490
   68MOL0     C 9078   4.296   9.334  10.245 -0.1203  0.3957  0.2788
   68MOL0     C 9079   4.173   9.298  10.282  0.2128  0.8185 -0.2271
   68MOL0     C 9080   4.132   9.312  10.409  0.5807 -0.6263 -0.1396
   68MOL0     O 9081   4.002   9.269  10.444 -0.4102 -0.0724 -0.3811
   68MOL0     C 9082   3.968   9.328  10.567  0.4558 -0.3684  0.5458
   68MOL0     C 9083   3.816   9.308  10.575 -0.5618 -0.2898  0.4726
   68MOL0     C 9084   3.766   9.331  10.713  0.1070  0.7235 -0.2768
   68MOL0     C 9085   3.627   9.269  10.738  0.2736  0.1317  0.0499
   68MOL0     C 9086   3.511   9.358  10.689  0.1751  0.1372  0.7110
   68MOL0     C 9087   3.380   9.339  10.766 -0.1496 -0.0899  0.0721
   68MOL0     C 9088   3.319   9.210  10.729 -0.3458  0.1970 -1.0957
   68MOL0     C 9089   3.169   9.190  10.780 -1.0610  0.3544 -0.0257
   68MOL0    Cl 9090   3.075   9.325  10.702  0.0525 -0.0034  0.0196
   68MOL0     C 9091   4.221   9.355  10.504  0.5186  0.4847  0.3445
   68MOL0     C 9092   4.352   9.386  10.474  0.4876  0.2653 -0.7750
   68MOL0     O 9093   4.604   9.207  10.324 -0.6080  0.2085 -0.9198
   68MOL0     C 9094   4.771   9.540  10.336 -0.1235 -0.1035 -0.0217
   68MOL0     C 9095   4.896   9.600  10.351 -0.8145 -1.0416 -0.5893
   68MOL0     N 9096   5.461   9.659  10.859  0.4789  0.3023  0.0754
   68MOL0     N 9097   5.557   9.659  10.947 -0.1112  0.5527  0.6961
   68MOL0     C 9098   7.020   9.425  10.809  0.4713  0.1284 -0.5335
   68MOL0     C 9099   7.148   9.414  10.747 -0.7422  0.1871  0.4153
   68MOL0     C 9100   7.508   9.326  10.581  0.2513  0.3803 -0.0896
   68MOL0     C 9101   7.556   9.454  10.538 -1.0531 -0.2083 -0.4664
   68MOL0     C 9102   7.699   9.480  10.548  0.1619  0.3524  0.6024
   68MOL0     C 9103   7.795   9.387  10.594 -0.1230  1.1367 -0.2004
   68MOL0     O 9104   7.934   9.425  10.601  0.3659  0.4374 -0.5244
   68MOL0     C 9105   8.025   9.339  10.671 -0.1261  0.4676  0.5114
   68MOL0     C 9106   8.003   9.335  10.824  0.8511 -0.0303 -0.7016
   68MOL0     C 9107   8.124   9.252  10.882 -0.1949 -0.1187  0.8716
   68MOL0     C 9108   8.139   9.249  11.033  0.7380 -0.2299 -0.5390
   68MOL0     C 9109   8.145   9.381  11.094 -0.9784  0.5375  0.5566
   68MOL0     C 9110   8.123   9.484  11.154 -0.3174 -0.1390  0.5144
   68MOL0     C 9111   7.744   9.260  10.636  0.1680  0.2614 -0.3011
   68MOL0     C 9112   7.608   9.231  10.619 -1.0380 -0.4007 -0.5504
   68MOL0     H 9113   7.044   9.412  10.420  0.5422  1.7819 -0.6424
   68MOL0     H 9114   6.837   9.452  10.524 -1.3740 -1.4014  0.3931
   68MOL0     H 9115   6.671   9.533  10.647 -1.7420 -0.3664 -1.7061
   68MOL0     H 9116   6.639   9.362  10.688  1.5585 -0.3339  2.4298
   68MOL0     H 9117   6.551   9.456  10.906  3.1383  2.6444  2.4373
   68MOL0     H 9118   6.587   9.616  10.856  2.3242 -1.5492  3.3380
   68MOL0     H 9119   6.405   9.593  10.680 -2.6945 -1.3327 -1.1789
   68MOL0     H 9120   6.391   9.428  10.713 -2.2904  1.3867 -2.6866
   68MOL0     H 9121   6.317   9.444  10.948  4.6019  0.5215  0.5266
   68MOL0     H 9122   6.328   9.612  10.951 -3.6945  0.0064  0.7365
   68MOL0     H 9123   6.171   9.652  10.792 -0.9452  0.4089  0.8316
   68MOL0     H 9124   6.142   9.478  10.742 -0.4912 -0.9773  1.2381
   68MOL0     H 9125   6.065   9.439  10.979  0.5095  1.6297  2.0618
   68MOL0     H 9126   6.071   9.619  10.987  1.8024 -0.5149  0.5423
   68MOL0     H 9127   5.916   9.577  10.766 -2.6469  0.8330  0.5208
   68MOL0     H 9128   5.881   9.432  10.859  0.8315 -0.7977  0.0716
   68MOL0     H 9129   5.833   9.691  11.010  0.2074  0.4492 -2.5450
   68MOL0     H 9130   5.791   9.534  11.043 -1.1936 -0.2131 -0.8910
   68MOL0     H 9131   5.695   9.528  10.683  4.2314 -0.2719  2.8288
   68MOL0     H 9132   5.442   9.471  10.590 -1.7825 -0.1283 -0.4150
   68MOL0     H 9133   5.313   9.579  10.644 -0.2415 -1.6705 -1.7432
   68MOL0     H 9134   5.544   9.695  10.497 -0.2245  1.7693  1.6043
   68MOL0     H 9135   5.375   9.753  10.528 -2.3165 -1.1856 -1.9759
   68MOL0     H 9136   5.469   9.540  10.341 -0.2211 -1.7266  1.2682
   68MOL0     H 9137   5.389   9.694  10.298  1.9405 -0.4676 -0.3746
   68MOL0     H 9138   5.259   9.451  10.433  0.4964 -0.5713 -0.4057
   68MOL0     H 9139   5.268   9.487  10.261 -0.1970  1.6256 -0.0165
   68MOL0     H 9140   5.095   9.327  10.279  0.7122 -0.4294  0.2643
   68MOL0     H 9141   4.802   9.127  10.212 -0.4755  1.2523 -0.0416
   68MOL0     H 9142   4.957   9.192  10.153  0.8472  2.2290  0.9246
   68MOL0     H 9143   4.947   9.118  10.311  2.1033 -1.2242 -1.1336
   68MOL0     H 9144   4.335   9.339  10.144  0.7616  0.7671  0.6344
   68MOL0     H 9145   4.101   9.259  10.211 -1.5508  1.2168  1.2732
   68MOL0     H 9146   4.023   9.271  10.642  0.0045  2.1053  2.9118
   68MOL0     H 9147   3.997   9.433  10.572 -0.8347  0.1364 -1.4201
   68MOL0     H 9148   3.766   9.376  10.505 -1.9146 -3.9443 -2.4807
   68MOL0     H 9149   3.790   9.207  10.541 -0.7153  0.2136 -0.9804
   68MOL0     H 9150   3.770   9.436  10.743  0.9951  0.3527  0.9900
   68MOL0     H 9151   3.841   9.286  10.779 -1.1134 -0.5249  0.3068
   68MOL0     H 9152   3.605   9.173  10.689  1.1943  0.2517 -0.6278
   68MOL0     H 9153   3.606   9.257  10.845 -1.3331 -1.4622 -0.3886
   68MOL0     H 9154   3.489   9.338  10.584  1.0126  0.9711  0.3626
   68MOL0     H 9155   3.538   9.463  10.697 -2.2336  0.6757  4.6251
   68MOL0     H 9156   3.378   9.335  10.876 -2.1833 -2.5170  0.0577
   68MOL0     H 9157   3.311   9.422  10.748 -1.2666 -1.3411 -1.7891
   68MOL0     H 9158   3.377   9.133  10.779  2.4744  1.5112 -2.1392
   68MOL0     H 9159   3.320   9.186  10.622 -0.4138 -1.7426 -0.6883
   68MOL0     H 9160   3.163   9.187  10.889 -0.8381 -0.4234 -0.0287
   68MOL0     H 9161   3.126   9.099  10.736 -2.0816  1.0328 -0.4805
   68MOL0     H 9162   4.205   9.369  10.611 -0.8932 -0.9293  0.3580
   68MOL0     H 9163   4.432   9.424  10.536  1.3584  1.1184 -2.3744
   68MOL0     H 9164   4.684   9.604  10.329 -0.1940 -0.3721 -2.0893
   68MOL0     H 9165   4.909   9.705  10.373  1.5935 -1.8728  2.7877
   68MOL0     H 9166   7.018   9.408  10.916 -1.6791  1.6925 -0.2543
   68MOL0     H 9167   7.237   9.397  10.806 -0.9833  3.3158  1.8838
   68MOL0     H 9168   7.481   9.526  10.508  1.0353  1.8088 -1.0534
   68MOL0     H 9169   7.729   9.576  10.506 -1.9390  0.3258 -1.1562
   68MOL0     H 9170   8.016   9.240  10.626 -1.5160  1.2113 -0.9727
   68MOL0     H 9171   8.125   9.375  10.644 -0.1121 -0.0885 -0.2184
   68MOL0     H 9172   7.905   9.297  10.853 -0.4416  3.3359 -0.1225
   68MOL0     H 9173   8.007   9.437  10.865 -1.2516 -0.1083 -0.2022
   68MOL0     H 9174   8.208   9.309  10.842 -0.5122 -0.1048  0.2130
   68MOL0     H 9175   8.130   9.151  10.842  2.7215 -0.1449  1.1910
   68MOL0     H 9176   8.228   9.188  11.055  0.7174  0.4237  1.5445
   68MOL0     H 9177   8.059   9.192  11.080 -0.3932  0.7364 -1.2425
   68MOL0     H 9178   8.091   9.578  11.195 -3.2273 -0.6125 -0.4474
   68MOL0     H 9179   7.816   9.188  10.673  2.3220  2.2092 -0.4428
   68MOL0     H 9180   7.567   9.133  10.642  0.2924 -0.9424 -0.4111
   69MOL0     O 9181   6.377   2.509   3.986  0.3013 -0.0267 -0.3460
   69MOL0     C 9182   6.444   2.505   4.091 -0.6126  0.8109  0.0287
   69MOL0     O 9183   6.394   2.449   4.210  0.0051  0.0252 -0.0546
   69MOL0     C 9184   6.273   2.392   4.200 -0.0672 -0.0613 -0.2581
   69MOL0     C 9185   6.166   2.478   4.228  0.9793 -0.2959 -0.7881
   69MOL0     C 9186   6.035   2.424   4.250  0.3812  0.5155  0.1163
   69MOL0     C 9187   6.004   2.288   4.222 -0.2887 -0.4706 -0.0721
   69MOL0     O 9188   5.879   2.240   4.230 -0.3282  0.4215  0.3167
   69MOL0     C 9189   5.770   2.316   4.176  0.2768  0.0518 -0.1759
   69MOL0     C 9190   5.643   2.226   4.180 -0.8095 -1.0659  0.3667
   69MOL0     C 9191   5.660   2.093   4.102 -0.4108 -0.0556  0.3619
   69MOL0     C 9192   5.524   2.025   4.111 -0.1237 -0.0746 -0.5636
   69MOL0     C 9193   5.509   1.895   4.037  0.9357  0.8144  0.4228
   69MOL0     C 9194   5.372   1.900   3.958 -0.1309  0.5098  0.3418
   69MOL0     C 9195   5.256   1.873   4.052  0.3579 -0.5431  1.1984
   69MOL0     C 9196   5.122   1.925   3.985 -0.4872  0.3725 -0.3848
   69MOL0     N 9197   5.023   1.908   4.089 -0.4673 -0.1504  0.5586
   69MOL0     C 9198   5.003   1.994   4.191 -0.3733 -0.6545 -0.2757
   69MOL0     C 9199   4.886   1.950   4.247  0.5543 -1.0024  0.1159
   69MOL0     C 9200   4.817   2.021   4.362 -0.4864  0.4123  0.2899
   69MOL0     C 9201   4.749   2.147   4.300  0.3758  0.0673  0.5209
   69MOL0     C 9202   4.693   2.240   4.406 -0.2218  0.7149 -0.0070
   69MOL0     C 9203   4.565   2.192   4.465  0.4498 -0.3108  0.0268
   69MOL0     O 9204   4.529   2.284   4.567  0.7727 -0.2220  0.0468
   69MOL0     C 9205   4.392   2.285   4.605 -0.1349  0.0417  0.5871
   69MOL0     C 9206   4.317   2.167   4.595  0.9498  0.0216 -0.1060
   69MOL0     C 9207   4.180   2.168   4.619 -0.2695 -0.1620 -0.6958
   69MOL0     C 9208   4.095   2.053   4.590 -0.4816 -0.0302 -0.1625
   69MOL0     C 9209   4.125   2.293   4.671  0.5848  0.6280 -0.4762
   69MOL0     C 9210   3.981   2.301   4.713 -0.3234 -0.0178 -0.5295
   69MOL0     O 9211   3.954   2.356   4.836  0.2166  0.1930 -0.4619
   69MOL0     C 9212   3.823   2.390   4.876 -0.0222  0.4688 -0.4618
   69MOL0     C 9213   3.811   2.399   5.013 -0.1745  0.0332  0.3076
   69MOL0     C 9214   3.689   2.419   5.075 -0.2078  0.1382  0.0192
   69MOL0     C 9215   3.576   2.436   4.993 -0.6626  0.1621 -0.3935
   69MOL0     O 9216   3.461   2.444   5.067  0.1743 -0.4702 -0.3685
   69MOL0     C 9217   3.344   2.372   5.020 -0.6146 -0.7415 -0.1800
   69MOL0     C 9218   3.224   2.429   5.095  0.1494  0.3007 -0.3100
   69MOL0     C 9219   3.088   2.410   5.016 -0.2503  0.6208 -0.5541
   69MOL0     C 9220   3.044   2.264   4.999 -0.3982  0.1964 -0.5008
   69MOL0     C 9221   2.937   2.243   4.889  0.4154  0.9579  0.3126
   69MOL0     C 9222   2.802   2.305   4.919 -0.1472 -0.3601 -0.5448
   69MOL0     C 9223   2.694   2.288   4.807  0.1026  0.2373  0.6078
   69MOL0     C 9224   2.573   2.387   4.829 -0.6810 -0.4583 -0.2286
   69MOL0    Cl 9225   2.440   2.324   4.938  0.3336  0.5775 -0.3948
   69MOL0     C 9226   3.588   2.448   4.854 -0.5251 -0.2452 -0.2933
   69MOL0     C 9227   3.714   2.419   4.797 -0.5548  0.0708  0.3835
   69MOL0     O 9228   3.897   2.269   4.632 -0.0107 -0.2742 -0.5501
   69MOL0     C 9229   4.208   2.408   4.688 -0.2269  0.6007  0.1531
   69MOL0     C 9230   4.339   2.409   4.657  0.1064 -0.4751 -0.2183
   69MOL0     N 9231   4.841   1.839   4.179  0.0046 -0.4087  0.0108
   69MOL0     N 9232   4.921   1.821   4.075 -0.0696  0.4230 -0.5652
   69MOL0     C 9233   6.106   2.204   4.187  1.0179  0.4872 -0.1921
   69MOL0     C 9234   6.245   2.250   4.178  0.3620 -0.4597  0.6532
   69MOL0     C 9235   6.585   2.565   4.087  0.8086  0.1634 -0.1426
   69MOL0     C 9236   6.658   2.569   4.197 -0.2169  0.0988 -0.4080
   69MOL0     C 9237   6.789   2.627   4.191 -0.0316 -0.5395 -0.9507
   69MOL0     C 9238   6.838   2.681   4.071  0.0462 -1.2727  0.7702
   69MOL0     O 9239   6.961   2.736   4.070 -0.2056  0.2160 -0.6094
   69MOL0     C 9240   7.025   2.759   3.938  0.1455 -0.8017 -0.4312
   69MOL0     C 9241   7.174   2.754   3.961 -0.5654  0.6786 -0.9248
   69MOL0     C 9242   7.249   2.748   3.825 -0.4280  0.4152 -0.0748
   69MOL0     C 9243   7.398   2.778   3.813 -0.6198  0.0567  0.3556
   69MOL0     C 9244   7.422   2.922   3.834 -0.3657  0.6864 -0.4044
   69MOL0     C 9245   7.473   3.027   3.832  0.4544  0.4906  0.1880
   69MOL0     C 9246   6.760   2.680   3.961 -0.4361 -1.2981  0.2018
   69MOL0     C 9247   6.631   2.618   3.968 -0.1111  1.0688  0.1952
   69MOL0     H 9248   6.194   2.581   4.244  0.3759 -0.2722  0.1477
   69MOL0     H 9249   5.955   2.493   4.278  1.9310  2.3426  0.2826
   69MOL0     H 9250   5.751   2.396   4.248 -0.2112 -0.3902  0.1880
   69MOL0     H 9251   5.790   2.359   4.077 -1.8419 -1.7033 -1.4557
   69MOL0     H 9252   5.620   2.201   4.284 -2.6255  1.6518  0.7029
   69MOL0     H 9253   5.566   2.288   4.135  0.3208 -0.4127 -0.7346
   69MOL0     H 9254   5.684   2.099   3.996 -0.6399  2.6121  0.3757
   69MOL0     H 9255   5.733   2.035   4.159  1.2476  0.6271 -0.9754
   69MOL0     H 9256   5.506   2.006   4.217  2.1527  0.3826 -0.0338
   69MOL0     H 9257   5.455   2.098   4.070  1.0504  1.0555 -0.5822
   69MOL0     H 9258   5.593   1.885   3.968  2.3339  2.3960  1.8042
   69MOL0     H 9259   5.515   1.809   4.104  1.2683  0.3849 -0.1501
   69MOL0     H 9260   5.360   1.998   3.911  1.9528  0.1645 -1.0818
   69MOL0     H 9261   5.360   1.826   3.878  1.1601 -1.0130  1.4612
   69MOL0     H 9262   5.247   1.764   4.063 -2.0495 -0.2041  3.6539
   69MOL0     H 9263   5.270   1.921   4.149 -1.1863 -0.4867  1.4107
   69MOL0     H 9264   5.111   1.862   3.897  4.3745  1.1678 -1.8783
   69MOL0     H 9265   5.122   2.024   3.940 -0.7029  1.3626  1.6473
   69MOL0     H 9266   5.067   2.077   4.220  0.3914 -0.4607 -2.3619
   69MOL0     H 9267   4.744   1.948   4.398 -0.2624  0.4024  0.7326
   69MOL0     H 9268   4.890   2.061   4.432 -0.8076  0.3625  0.6573
   69MOL0     H 9269   4.665   2.111   4.239  0.6929  0.8161 -0.3862
   69MOL0     H 9270   4.815   2.201   4.231 -1.2964  2.3738  0.5942
   69MOL0     H 9271   4.664   2.335   4.361 -0.5870  0.4627 -0.3095
   69MOL0     H 9272   4.766   2.252   4.486  0.1658  2.3011 -0.5723
   69MOL0     H 9273   4.587   2.106   4.529 -1.1358 -0.4598  0.4126
   69MOL0     H 9274   4.489   2.179   4.389  2.5644  0.2539 -2.3234
   69MOL0     H 9275   4.365   2.075   4.564 -1.5140 -1.2207 -0.4347
   69MOL0     H 9276   4.037   2.025   4.678 -0.5105 -1.6802 -0.6635
   69MOL0     H 9277   4.025   2.081   4.512  0.5179  0.6606 -0.8301
   69MOL0     H 9278   4.143   1.963   4.549  0.5589  1.3527 -2.1073
   69MOL0     H 9279   3.900   2.392   5.076 -1.5243 -0.8596  2.2221
   69MOL0     H 9280   3.657   2.408   5.178 -1.6537  2.6879 -0.0794
   69MOL0     H 9281   3.325   2.385   4.913  1.5354 -1.6158 -0.7254
   69MOL0     H 9282   3.373   2.269   5.038  2.1194 -0.2662 -1.4509
   69MOL0     H 9283   3.218   2.371   5.188 -0.3437  2.3098  0.9757
   69MOL0     H 9284   3.249   2.533   5.117  0.7006 -0.3703  2.7518
   69MOL0     H 9285   3.100   2.453   4.917  1.6378  1.2451 -0.0957
   69MOL0     H 9286   3.015   2.466   5.076 -0.9226 -1.0205  0.2254
   69MOL0     H 9287   3.130   2.201   4.972  0.4247  0.3237  1.6180
   69MOL0     H 9288   3.012   2.230   5.098  2.7685  0.0098  0.5807
   69MOL0     H 9289   2.924   2.136   4.870  3.2876  0.4036  0.9582
   69MOL0     H 9290   2.976   2.273   4.791  1.6785 -2.4680 -0.3631
   69MOL0     H 9291   2.776   2.258   5.015 -0.8111 -1.7549 -1.3772
   69MOL0     H 9292   2.820   2.411   4.938 -4.8532  0.1416  2.9787
   69MOL0     H 9293   2.660   2.184   4.804 -0.2792  0.3634 -1.8855
   69MOL0     H 9294   2.744   2.304   4.710 -0.5623  1.5080  0.4538
   69MOL0     H 9295   2.536   2.413   4.729  1.4823 -1.7141 -1.4310
   69MOL0     H 9296   2.624   2.474   4.872  0.3440 -1.7707  1.3185
   69MOL0     H 9297   3.500   2.470   4.795  1.2958 -0.8734 -3.4906
   69MOL0     H 9298   3.717   2.423   4.689 -2.2327 -0.5512  0.2783
   69MOL0     H 9299   4.151   2.495   4.719 -1.1386 -0.4327  1.5256
   69MOL0     H 9300   4.396   2.501   4.666 -0.8931  0.1277  0.1231
   69MOL0     H 9301   6.072   2.103   4.168  1.9676  0.3993 -1.5335
   69MOL0     H 9302   6.329   2.191   4.142  2.1193  2.9293 -1.4239
   69MOL0     H 9303   6.614   2.508   4.275 -1.4874 -0.6961 -1.7022
   69MOL0     H 9304   6.841   2.623   4.286 -2.0956  2.3910  0.4736
   69MOL0     H 9305   6.990   2.684   3.866  0.7993 -1.0297 -0.5153
   69MOL0     H 9306   6.997   2.858   3.902  1.8556  0.2997  1.0892
   69MOL0     H 9307   7.191   2.662   4.018  0.1594  0.7603 -1.0000
   69MOL0     H 9308   7.212   2.840   4.017  1.0723 -0.1748 -0.6639
   69MOL0     H 9309   7.196   2.814   3.756  1.7151 -0.8224 -3.1159
   69MOL0     H 9310   7.246   2.647   3.783 -0.9069  0.6711 -0.6627
   69MOL0     H 9311   7.427   2.731   3.718 -0.4104 -0.4321  0.6565
   69MOL0     H 9312   7.457   2.719   3.883  1.2978 -0.5365 -1.6523
   69MOL0     H 9313   7.527   3.119   3.830  2.4236 -0.6129  0.5340
   69MOL0     H 9314   6.788   2.741   3.876  1.5248 -2.0216  0.2648
   69MOL0     H 9315   6.561   2.626   3.886  0.7797  2.1248 -0.5085
   70MOL0     O 9316   8.766   4.451   0.711 -0.3210  0.1292  0.4985
   70MOL0     C 9317   8.880   4.443   0.755  0.1995 -0.2683 -0.9249
   70MOL0     O 9318   8.905   4.411   0.888 -0.4348  0.3976 -1.0851
   70MOL0     C 9319   8.790   4.386   0.971 -0.3036 -0.9950 -0.5064
   70MOL0     C 9320   8.745   4.264   0.977  0.2176 -0.0089  0.7446
   70MOL0     C 9321   8.631   4.229   1.044 -0.2455 -0.8042  1.4050
   70MOL0     C 9322   8.569   4.329   1.117 -0.4733 -0.7838 -0.0092
   70MOL0     O 9323   8.455   4.311   1.196 -0.2405  0.4045 -0.0657
   70MOL0     C 9324   8.405   4.171   1.196 -1.0029 -0.5220 -0.9128
   70MOL0     C 9325   8.285   4.149   1.291  0.5329  0.4715 -0.6875
   70MOL0     C 9326   8.273   3.997   1.337 -1.5406  0.4287  0.1460
   70MOL0     C 9327   8.152   3.957   1.421  0.1779  0.0387 -0.0145
   70MOL0     C 9328   8.013   3.977   1.353 -0.0781  0.1971  0.0424
   70MOL0     C 9329   7.901   3.997   1.458  0.1144 -0.2965 -0.6868
   70MOL0     C 9330   7.773   4.025   1.384  0.3104  0.2449 -0.1110
   70MOL0     C 9331   7.645   3.989   1.464 -0.0176 -0.7493 -0.3310
   70MOL0     N 9332   7.531   4.046   1.399  0.2369  0.0298 -0.0145
   70MOL0     C 9333   7.488   4.024   1.270  0.4898 -0.1880 -0.4184
   70MOL0     C 9334   7.365   4.088   1.265 -0.6046 -0.0897 -0.0626
   70MOL0     C 9335   7.277   4.077   1.146 -0.0516  0.1225  0.8047
   70MOL0     C 9336   7.127   4.116   1.177 -0.1530  0.1855  0.7566
   70MOL0     C 9337   7.065   4.047   1.300 -0.5076 -0.0006  0.1641
   70MOL0     C 9338   6.910   4.053   1.281  0.1339  0.4172  0.1703
   70MOL0     O 9339   6.854   4.182   1.307  0.0747 -0.1725  0.2297
   70MOL0     C 9340   6.719   4.207   1.303 -0.4124  0.0850 -0.0168
   70MOL0     C 9341   6.677   4.340   1.304  0.6349  0.3554 -0.8000
   70MOL0     C 9342   6.540   4.378   1.334  0.1613  0.5789 -1.1244
   70MOL0     C 9343   6.520   4.527   1.362  0.8378  0.7836  0.9771
   70MOL0     C 9344   6.440   4.277   1.354 -0.1703 -0.0776  0.6062
   70MOL0     C 9345   6.296   4.305   1.379 -0.1899 -0.3670 -0.8256
   70MOL0     O 9346   6.215   4.200   1.382  0.2417 -0.3596 -0.1555
   70MOL0     C 9347   6.075   4.218   1.390  0.3284 -0.6736 -0.8671
   70MOL0     C 9348   6.012   4.280   1.284 -0.1066  0.0491  0.1462
   70MOL0     C 9349   5.880   4.327   1.298 -0.3127 -0.0963 -0.4252
   70MOL0     C 9350   5.816   4.330   1.430 -0.5894 -0.1958  0.3274
   70MOL0     O 9351   5.680   4.357   1.437  0.0771  0.1592 -0.4249
   70MOL0     C 9352   5.603   4.243   1.434  1.4964  0.1818  0.1347
   70MOL0     C 9353   5.469   4.276   1.498 -0.3674  0.0536  0.8198
   70MOL0     C 9354   5.368   4.182   1.443 -0.4138  0.6391 -0.1139
   70MOL0     C 9355   5.227   4.255   1.440 -0.1630  0.3747 -0.3331
   70MOL0     C 9356   5.125   4.185   1.359  0.3983  0.1803 -0.5453
   70MOL0     C 9357   5.002   4.272   1.335  0.2117 -0.3797 -0.2723
   70MOL0     C 9358   4.900   4.205   1.239 -0.3983 -1.3344  1.5119
   70MOL0     C 9359   4.845   4.075   1.275  0.5375  0.5628  0.1565
   70MOL0    Cl 9360   4.799   4.083   1.450  0.3290  0.1245 -0.3545
   70MOL0     C 9361   5.885   4.268   1.537  0.5696 -0.5339  0.7582
   70MOL0     C 9362   6.019   4.212   1.515  0.4022  0.0218 -0.0615
   70MOL0     O 9363   6.264   4.426   1.383  0.1313 -0.4201  0.6588
   70MOL0     C 9364   6.484   4.144   1.343  0.0232  0.2445 -0.4043
   70MOL0     C 9365   6.619   4.111   1.321 -0.4513 -0.0757  0.1238
   70MOL0     N 9366   7.339   4.157   1.381 -0.2157  0.2466 -0.6483
   70MOL0     N 9367   7.442   4.133   1.463  0.2371  0.0612  0.1679
   70MOL0     C 9368   8.618   4.462   1.117  0.3497 -0.5316  0.9754
   70MOL0     C 9369   8.740   4.492   1.048 -0.4127 -0.3078  0.4041
   70MOL0     C 9370   8.988   4.447   0.658 -0.3788  0.6022 -0.0831
   70MOL0     C 9371   9.111   4.399   0.696 -0.3507  0.3383  0.1783
   70MOL0     C 9372   9.217   4.411   0.614 -0.7088 -0.5600  0.6495
   70MOL0     C 9373   9.201   4.479   0.497  0.9271  0.7329  1.0504
   70MOL0     O 9374   9.318   4.503   0.418  0.4788  0.1342 -0.3062
   70MOL0     C 9375   9.362   4.646   0.394  0.0578  0.4221 -0.1658
   70MOL0     C 9376   9.469   4.681   0.491  0.5007 -0.3284 -0.1899
   70MOL0     C 9377   9.597   4.620   0.445 -0.2322  0.0977  0.2822
   70MOL0     C 9378   9.721   4.653   0.532 -0.2938  0.6596 -0.5955
   70MOL0     C 9379   9.747   4.794   0.520 -0.2093 -0.3800  0.6326
   70MOL0     C 9380   9.764   4.912   0.499 -0.0437  0.1905 -0.2820
   70MOL0     C 9381   9.073   4.533   0.456  0.6583 -0.4895 -0.0075
   70MOL0     C 9382   8.966   4.513   0.537 -0.3828  0.6862 -0.2192
   70MOL0     H 9383   8.796   4.188   0.919 -0.5329  2.7875 -4.0825
   70MOL0     H 9384   8.597   4.127   1.035  0.5641 -0.8618 -4.8710
   70MOL0     H 9385   8.378   4.143   1.093 -1.9051  1.5606 -1.2932
   70MOL0     H 9386   8.480   4.097   1.224 -0.3768  0.1722 -0.7039
   70MOL0     H 9387   8.306   4.217   1.375 -0.1496 -2.0411  1.6391
   70MOL0     H 9388   8.193   4.179   1.239  1.0270  2.8283 -0.3313
   70MOL0     H 9389   8.267   3.933   1.249  4.0095  0.4427 -0.5594
   70MOL0     H 9390   8.365   3.974   1.391 -2.1881  0.7752  1.4618
   70MOL0     H 9391   8.164   3.856   1.461  1.0152  0.8451  1.8369
   70MOL0     H 9392   8.155   4.023   1.508  0.1585 -0.2565  0.2077
   70MOL0     H 9393   8.020   4.063   1.285 -0.0326  0.3164  0.1948
   70MOL0     H 9394   7.991   3.882   1.305  0.1585 -0.9237  2.0454
   70MOL0     H 9395   7.891   3.904   1.515 -2.0397  0.4906  0.3438
   70MOL0     H 9396   7.929   4.082   1.521  0.6314  1.1753 -2.7994
   70MOL0     H 9397   7.776   4.125   1.339  1.8727  0.4711  0.4403
   70MOL0     H 9398   7.763   3.957   1.299 -0.7406  0.2876 -0.0395
   70MOL0     H 9399   7.654   4.038   1.561  1.6693 -1.1833 -0.2337
   70MOL0     H 9400   7.652   3.882   1.489  1.5299  0.1116  3.4678
   70MOL0     H 9401   7.520   3.963   1.187  2.0445  2.9959 -2.3625
   70MOL0     H 9402   7.313   4.149   1.072 -1.0520  3.0006  2.9035
   70MOL0     H 9403   7.290   3.977   1.104 -0.3741  0.8054 -1.0026
   70MOL0     H 9404   7.067   4.102   1.087  1.2821  1.0937 -0.3927
   70MOL0     H 9405   7.119   4.225   1.185 -0.9721  0.2496 -0.6034
   70MOL0     H 9406   7.087   4.096   1.396 -1.7812 -1.6174  1.3527
   70MOL0     H 9407   7.109   3.948   1.307 -0.6820 -0.1437 -0.6748
   70MOL0     H 9408   6.862   3.983   1.349 -0.5017 -0.7460 -1.4041
   70MOL0     H 9409   6.889   4.012   1.182 -2.9130  0.4375  0.7137
   70MOL0     H 9410   6.757   4.414   1.308  0.5316  0.4472  2.1367
   70MOL0     H 9411   6.448   4.558   1.286 -0.2247 -2.7088  0.3659
   70MOL0     H 9412   6.475   4.546   1.459 -3.0444  2.1460 -0.8779
   70MOL0     H 9413   6.612   4.584   1.349  1.4623 -0.3964 -0.0064
   70MOL0     H 9414   6.065   4.292   1.190  2.0579  0.7405  1.3839
   70MOL0     H 9415   5.818   4.361   1.215 -0.3419 -2.8145 -1.6227
   70MOL0     H 9416   5.588   4.221   1.328 -1.3042  0.6912  0.3271
   70MOL0     H 9417   5.644   4.152   1.478  1.0002 -1.7148 -3.0429
   70MOL0     H 9418   5.492   4.274   1.605  2.4506  2.9332  0.4238
   70MOL0     H 9419   5.440   4.380   1.479  1.4188  0.2134 -1.5009
   70MOL0     H 9420   5.356   4.091   1.503  2.1242  0.4830  0.2640
   70MOL0     H 9421   5.388   4.148   1.341  0.5372 -0.0631  0.2941
   70MOL0     H 9422   5.201   4.266   1.546  2.2644 -1.3359  0.5580
   70MOL0     H 9423   5.242   4.357   1.404  1.7815  0.8109  1.4802
   70MOL0     H 9424   5.087   4.103   1.421 -0.5505  0.9962 -0.0129
   70MOL0     H 9425   5.168   4.160   1.262 -0.5116  1.3748 -1.2819
   70MOL0     H 9426   4.945   4.307   1.421  2.1075 -0.2603  0.9929
   70MOL0     H 9427   5.032   4.366   1.288 -0.4356 -0.3034 -0.5358
   70MOL0     H 9428   4.947   4.203   1.140 -0.2049 -2.6558  1.6107
   70MOL0     H 9429   4.816   4.274   1.227 -0.9123 -2.3591 -1.7255
   70MOL0     H 9430   4.916   3.994   1.256  0.2288  1.0487 -3.9536
   70MOL0     H 9431   4.752   4.060   1.220  0.5947  2.2787 -0.4750
   70MOL0     H 9432   5.843   4.276   1.637 -0.1961 -0.5675  0.4456
   70MOL0     H 9433   6.079   4.175   1.598  1.2112  0.5281 -0.4125
   70MOL0     H 9434   6.415   4.064   1.364  1.5730 -1.5478 -1.7731
   70MOL0     H 9435   6.645   4.006   1.318 -1.1116 -0.2552  0.5425
   70MOL0     H 9436   8.567   4.546   1.163 -2.9446 -2.1593  0.6016
   70MOL0     H 9437   8.804   4.579   1.058 -0.1755 -0.4542  0.1667
   70MOL0     H 9438   9.128   4.351   0.792  2.2013 -0.3888 -0.5699
   70MOL0     H 9439   9.305   4.358   0.648  1.3265 -1.5460 -5.1691
   70MOL0     H 9440   9.393   4.666   0.291 -1.7464  4.1009 -0.1828
   70MOL0     H 9441   9.273   4.710   0.405  0.2860  0.6180  0.6441
   70MOL0     H 9442   9.449   4.649   0.594  2.0541  0.0832  0.2621
   70MOL0     H 9443   9.478   4.790   0.502  1.3629 -0.5381  1.4887
   70MOL0     H 9444   9.612   4.638   0.338  2.7421 -2.5005  0.1094
   70MOL0     H 9445   9.590   4.511   0.447  0.8056 -0.0981 -2.3687
   70MOL0     H 9446   9.809   4.601   0.495  0.1704  0.9003  0.1523
   70MOL0     H 9447   9.706   4.611   0.632 -1.4887 -1.6027 -1.6761
   70MOL0     H 9448   9.772   5.019   0.494  0.2996  0.3152  1.9601
   70MOL0     H 9449   9.078   4.575   0.356  2.2992  0.7578  0.5566
   70MOL0     H 9450   8.864   4.548   0.523 -0.8314 -0.1598  0.7618
   71MOL0     O 9451   3.748  11.166   6.662  0.6236  0.2373 -0.1310
   71MOL0     C 9452   3.809  11.193   6.768  0.8216 -0.1432  0.2953
   71MOL0     O 9453   3.768  11.282   6.861  0.3968  0.0051 -0.0763
   71MOL0     C 9454   3.635  11.330   6.854  0.7452  1.1975 -0.2798
   71MOL0     C 9455   3.628  11.466   6.878 -0.5300 -0.1016 -1.2324
   71MOL0     C 9456   3.506  11.528   6.872  0.1145  0.7519 -0.0219
   71MOL0     C 9457   3.385  11.453   6.857 -0.4042 -0.6164 -0.3800
   71MOL0     O 9458   3.264  11.513   6.847 -0.2242 -0.5871 -0.3621
   71MOL0     C 9459   3.239  11.645   6.884  0.4476 -0.5906 -0.4860
   71MOL0     C 9460   3.258  11.673   7.033 -0.5726  0.3178 -0.8105
   71MOL0     C 9461   3.149  11.598   7.114 -0.0492 -1.2357 -0.6344
   71MOL0     C 9462   3.020  11.682   7.129  0.5717 -0.6649 -0.0108
   71MOL0     C 9463   2.938  11.638   7.256 -0.7419 -0.5071  0.1386
   71MOL0     C 9464   2.819  11.715   7.275  0.3018 -0.2605  0.4400
   71MOL0     C 9465   2.701  11.693   7.178 -1.1228  0.3000  0.9034
   71MOL0     C 9466   2.596  11.795   7.221 -0.6046  0.2427 -1.3607
   71MOL0     N 9467   2.464  11.764   7.166 -0.2726 -0.2725  1.0501
   71MOL0     C 9468   2.418  11.773   7.036  0.3091 -1.0221  0.9216
   71MOL0     C 9469   2.291  11.725   7.031 -0.4619  0.6833 -0.0211
   71MOL0     C 9470   2.192  11.720   6.917  0.5290  0.1210  0.0419
   71MOL0     C 9471   2.037  11.738   6.955  0.0326  0.0163  0.5997
   71MOL0     C 9472   1.951  11.723   6.830  0.2947 -0.8834  0.0472
   71MOL0     C 9473   1.810  11.789   6.850  0.1851 -0.0083  0.1550
   71MOL0     O 9474   1.818  11.930   6.812 -0.9747  0.5796  0.1959
   71MOL0     C 9475   1.707  12.004   6.829  0.9781  0.2251 -0.4969
   71MOL0     C 9476   1.716  12.142   6.792 -0.3482  0.3272 -0.9438
   71MOL0     C 9477   1.612  12.237   6.804 -0.5092 -0.6003 -0.1762
   71MOL0     C 9478   1.644  12.383   6.766  0.1302  0.1939 -0.2820
   71MOL0     C 9479   1.486  12.182   6.833 -0.2171  0.2404  0.9636
   71MOL0     C 9480   1.355  12.266   6.829 -0.0362 -0.1995  0.8063
   71MOL0     O 9481   1.247  12.200   6.864  0.2024  0.3334 -0.1484
   71MOL0     C 9482   1.119  12.260   6.882  0.1509 -1.0399  0.2492
   71MOL0     C 9483   1.012  12.171   6.870 -0.3602 -0.0150  0.1000
   71MOL0     C 9484   0.881  12.219   6.869 -0.9032  0.6007  1.0294
   71MOL0     C 9485   0.852  12.352   6.896 -0.1009  0.3537  0.7371
   71MOL0     O 9486   0.718  12.382   6.885  0.9088 -0.6321 -0.7935
   71MOL0     C 9487   0.679  12.504   6.954  0.4999 -0.3570  0.2209
   71MOL0     C 9488   0.528  12.524   6.929 -0.1592 -0.5335  0.8156
   71MOL0     C 9489   0.453  12.599   7.038 -0.7052  0.2967  0.1744
   71MOL0     C 9490   0.299  12.597   7.002 -0.8285  0.4700  0.1436
   71MOL0     C 9491   0.221  12.629   7.126 -0.5492  0.0349  0.3560
   71MOL0     C 9492   0.078  12.649   7.086 -0.5925  0.2983 -0.3654
   71MOL0     C 9493  -0.003  12.663   7.212 -0.6234  0.9053  1.1648
   71MOL0     C 9494  -0.139  12.723   7.191  0.2885 -0.4835  1.0023
   71MOL0    Cl 9495  -0.239  12.611   7.084 -0.4320 -0.3317  0.0017
   71MOL0     C 9496   0.958  12.441   6.925 -0.4970 -0.0778 -0.0353
   71MOL0     C 9497   1.091  12.394   6.917 -0.3633  0.7508 -0.9186
   71MOL0     O 9498   1.363  12.384   6.801 -0.8679 -0.1339 -0.3380
   71MOL0     C 9499   1.474  12.045   6.877 -0.0138  0.2784 -0.4347
   71MOL0     C 9500   1.581  11.954   6.871  0.4373  0.7089  0.5092
   71MOL0     N 9501   2.264  11.687   7.166 -0.2923  0.2149 -0.5699
   71MOL0     N 9502   2.369  11.714   7.238  0.8909  0.7420  0.1741
   71MOL0     C 9503   3.390  11.320   6.831 -0.1112  0.4732 -0.4542
   71MOL0     C 9504   3.516  11.254   6.831  0.8496  0.2483  0.8386
   71MOL0     C 9505   3.940  11.131   6.797  0.1459 -0.3085 -0.0626
   71MOL0     C 9506   4.013  11.178   6.910  0.1414 -0.1102 -0.0519
   71MOL0     C 9507   4.143  11.124   6.940  0.5162 -0.3640 -0.3733
   71MOL0     C 9508   4.200  11.029   6.853  0.4902  0.0517 -0.2712
   71MOL0     O 9509   4.328  10.992   6.868 -0.0943 -0.1520  0.3501
   71MOL0     C 9510   4.426  11.063   6.790 -0.6242 -0.3262 -0.2500
   71MOL0     C 9511   4.562  11.070   6.857  0.4210 -0.6138  0.4994
   71MOL0     C 9512   4.627  10.927   6.849  0.3671 -0.1264  0.3957
   71MOL0     C 9513   4.728  10.899   6.965 -0.2763  0.3281  0.0672
   71MOL0     C 9514   4.847  10.977   6.946 -0.6602 -0.1911 -0.3558
   71MOL0     C 9515   4.948  11.042   6.941 -0.3269 -0.1144  0.6148
   71MOL0     C 9516   4.121  10.977   6.749 -0.9812  0.0252  0.3265
   71MOL0     C 9517   3.992  11.027   6.719  0.2444 -0.5083  0.9304
   71MOL0     H 9518   3.722  11.520   6.871  0.7827 -1.9197  1.1195
   71MOL0     H 9519   3.507  11.636   6.884  2.6329  0.7259  0.4992
   71MOL0     H 9520   3.303  11.718   6.834 -1.3956  2.5034  1.3347
   71MOL0     H 9521   3.134  11.660   6.858 -0.0653 -2.2615  0.4987
   71MOL0     H 9522   3.354  11.633   7.066 -0.9309 -3.2391 -3.4659
   71MOL0     H 9523   3.246  11.779   7.058 -1.0446 -0.0883  0.7626
   71MOL0     H 9524   3.129  11.498   7.073  1.6948 -1.4107 -1.1233
   71MOL0     H 9525   3.184  11.594   7.218  1.3808 -1.2609 -1.1069
   71MOL0     H 9526   3.044  11.789   7.136 -0.5688 -0.4962  1.7325
   71MOL0     H 9527   2.960  11.674   7.038  0.8277 -2.1670 -0.0659
   71MOL0     H 9528   2.908  11.533   7.244  0.5881 -0.9992  0.8995
   71MOL0     H 9529   3.005  11.640   7.343 -0.2449 -0.3179 -0.2456
   71MOL0     H 9530   2.787  11.697   7.378  0.5427 -0.7919  0.4256
   71MOL0     H 9531   2.848  11.821   7.275 -0.7835  0.0488 -0.6436
   71MOL0     H 9532   2.734  11.707   7.075 -2.6242 -1.4275  0.1467
   71MOL0     H 9533   2.648  11.598   7.183  1.0331 -0.9664  0.9635
   71MOL0     H 9534   2.629  11.899   7.223 -2.7726  1.0966  2.7200
   71MOL0     H 9535   2.573  11.786   7.328  0.9080 -4.2601 -1.1774
   71MOL0     H 9536   2.484  11.805   6.955 -0.0884 -0.3930  0.8414
   71MOL0     H 9537   2.225  11.799   6.848  0.9997  2.2820  2.5781
   71MOL0     H 9538   2.196  11.623   6.866  0.2293  0.1033  0.0501
   71MOL0     H 9539   2.032  11.844   6.980 -1.1959  0.3858 -1.0618
   71MOL0     H 9540   1.989  11.674   7.029 -0.9579 -1.9000 -1.5810
   71MOL0     H 9541   1.933  11.616   6.816 -0.1413 -0.9062  0.7487
   71MOL0     H 9542   2.002  11.774   6.748 -2.0366  0.6703 -0.5257
   71MOL0     H 9543   1.789  11.771   6.956 -0.2875  0.4213  0.1374
   71MOL0     H 9544   1.733  11.733   6.797  0.9055  0.4055 -1.3858
   71MOL0     H 9545   1.813  12.174   6.754  1.6185 -1.4758  2.1473
   71MOL0     H 9546   1.614  12.422   6.668  0.5668  1.7410  0.1696
   71MOL0     H 9547   1.597  12.449   6.840 -2.2397 -2.8032  1.0846
   71MOL0     H 9548   1.752  12.395   6.762  0.1685 -0.1005 -0.0869
   71MOL0     H 9549   1.030  12.070   6.836 -0.9780 -0.7099  1.7264
   71MOL0     H 9550   0.796  12.159   6.840  0.3601 -0.1094 -1.4572
   71MOL0     H 9551   0.698  12.495   7.061  2.5848 -2.0869 -0.2339
   71MOL0     H 9552   0.729  12.593   6.913  0.3213 -0.4809 -0.2737
   71MOL0     H 9553   0.513  12.578   6.835  1.6228 -0.8490  0.3168
   71MOL0     H 9554   0.483  12.425   6.920 -0.5909 -0.3662  1.0782
   71MOL0     H 9555   0.487  12.703   7.046 -1.1277  0.3099  5.6021
   71MOL0     H 9556   0.484  12.565   7.137  3.0556  0.2468 -0.8473
   71MOL0     H 9557   0.282  12.670   6.922 -1.3048  0.2463  0.0370
   71MOL0     H 9558   0.275  12.497   6.966 -0.7237  0.5924 -0.2705
   71MOL0     H 9559   0.258  12.726   7.160 -1.3207  0.6932 -0.6318
   71MOL0     H 9560   0.223  12.551   7.203  0.7437 -1.7619 -1.3773
   71MOL0     H 9561   0.063  12.737   7.023 -0.1518 -0.1569 -1.1103
   71MOL0     H 9562   0.045  12.559   7.034  2.4828 -1.1363 -0.0380
   71MOL0     H 9563   0.052  12.724   7.285  0.5379  1.2002  0.0826
   71MOL0     H 9564  -0.016  12.565   7.257  4.0431 -0.2818  0.5318
   71MOL0     H 9565  -0.135  12.820   7.142  1.4578 -0.7209  0.5869
   71MOL0     H 9566  -0.184  12.731   7.291  0.9469  0.6916  1.2340
   71MOL0     H 9567   0.943  12.541   6.963  0.3032 -0.6101  1.7902
   71MOL0     H 9568   1.172  12.466   6.933 -0.5999  0.9312 -0.5081
   71MOL0     H 9569   1.376  12.006   6.904  0.0789 -0.0759 -0.5987
   71MOL0     H 9570   1.573  11.847   6.888 -1.9739  0.3823 -1.9651
   71MOL0     H 9571   3.298  11.262   6.828 -0.1986  0.5837 -0.0389
   71MOL0     H 9572   3.521  11.146   6.834 -1.2027  0.1410  1.9558
   71MOL0     H 9573   3.971  11.248   6.982  0.0720  0.9709 -1.1230
   71MOL0     H 9574   4.201  11.170   7.019  0.5314 -2.7561  1.1227
   71MOL0     H 9575   4.440  11.021   6.690 -2.0683 -1.2835 -0.0844
   71MOL0     H 9576   4.403  11.167   6.766 -0.2546 -1.1484 -4.9361
   71MOL0     H 9577   4.543  11.110   6.958 -0.4972  2.8774 -0.9146
   71MOL0     H 9578   4.635  11.141   6.818 -0.7004  0.6054  0.5574
   71MOL0     H 9579   4.681  10.913   6.755  1.6316 -2.0196  1.3631
   71MOL0     H 9580   4.546  10.855   6.864  0.8800 -0.8633 -0.3343
   71MOL0     H 9581   4.760  10.795   6.963 -1.4185 -0.0781 -2.9732
   71MOL0     H 9582   4.685  10.920   7.063  0.1103  0.0982  0.2866
   71MOL0     H 9583   5.030  11.110   6.930  0.9792 -1.5364  1.0246
   71MOL0     H 9584   4.164  10.901   6.685  0.2443  1.4096 -0.5355
   71MOL0     H 9585   3.930  10.994   6.636 -0.8144  1.3259  0.9231
   72MOL0     O 9586   1.897   8.837   3.581  0.1506 -0.4913  0.0873
   72MOL0     C 9587   1.884   8.788   3.470 -1.3940  0.3021  0.0030
   72MOL0     O 9588   1.986   8.759   3.389  0.4690  0.0395  0.0355
   72MOL0     C 9589   2.114   8.768   3.440  0.3864  0.6508  0.0033
   72MOL0     C 9590   2.191   8.658   3.462 -0.7823  0.2535 -0.3082
   72MOL0     C 9591   2.327   8.672   3.509 -0.1707  0.4272 -0.4023
   72MOL0     C 9592   2.384   8.794   3.535  0.2191 -0.0733 -0.2241
   72MOL0     O 9593   2.505   8.792   3.598  0.4619 -0.0765  0.1344
   72MOL0     C 9594   2.549   8.916   3.656 -0.3492  0.3115 -0.1234
   72MOL0     C 9595   2.678   8.892   3.733  0.4047  0.4650  0.0042
   72MOL0     C 9596   2.728   9.008   3.826 -0.1733 -0.4275  1.0608
   72MOL0     C 9597   2.753   9.140   3.744  0.3373  0.5631  0.0016
   72MOL0     C 9598   2.759   9.263   3.839 -0.4437  0.2613 -0.7917
   72MOL0     C 9599   2.786   9.391   3.753 -1.0892 -0.0801  0.3061
   72MOL0     C 9600   2.644   9.453   3.718 -0.9884 -0.7919 -1.2021
   72MOL0     C 9601   2.605   9.558   3.824 -0.1752  0.3449 -0.8894
   72MOL0     N 9602   2.468   9.601   3.819  0.4348  0.8432 -0.5815
   72MOL0     C 9603   2.395   9.682   3.907 -0.3634  0.3732 -1.2574
   72MOL0     C 9604   2.285   9.709   3.837  0.3245 -0.1221  0.5064
   72MOL0     C 9605   2.165   9.790   3.890 -0.2514  0.8356 -0.2443
   72MOL0     C 9606   2.189   9.880   4.009 -0.4565  0.0539  0.4823
   72MOL0     C 9607   2.102  10.003   4.012  0.5292 -0.7407 -0.7100
   72MOL0     C 9608   2.137  10.096   4.129 -0.4655 -0.3892  0.5846
   72MOL0     O 9609   2.035  10.200   4.149  0.0764  0.2276 -0.6170
   72MOL0     C 9610   1.908  10.164   4.180  0.1968  0.3059 -0.5018
   72MOL0     C 9611   1.807  10.248   4.145  0.3943 -0.8000  0.0787
   72MOL0     C 9612   1.670  10.220   4.178  0.3614  0.3735 -0.8687
   72MOL0     C 9613   1.570  10.320   4.117  0.3928 -0.2244  0.2022
   72MOL0     C 9614   1.635  10.113   4.265  0.1158 -0.2644 -0.3631
   72MOL0     C 9615   1.493  10.079   4.293  0.3577  0.6981 -1.0432
   72MOL0     O 9616   1.484   9.990   4.396 -0.6713 -0.5085  0.0711
   72MOL0     C 9617   1.371   9.951   4.453 -0.5131  0.0251 -0.4388
   72MOL0     C 9618   1.255  10.028   4.450 -0.3412  0.3631 -0.2282
   72MOL0     C 9619   1.143   9.979   4.501 -0.5208 -0.1118  0.0104
   72MOL0     C 9620   1.138   9.863   4.578 -0.2574 -0.1248 -0.1197
   72MOL0     O 9621   1.036   9.825   4.656 -0.4751  0.5592  0.2990
   72MOL0     C 9622   0.932   9.913   4.692  0.6975 -0.2174  0.2989
   72MOL0     C 9623   0.813   9.903   4.590 -0.2148 -0.0266 -0.1630
   72MOL0     C 9624   0.681   9.953   4.640  0.9311 -0.1792 -0.7536
   72MOL0     C 9625   0.568   9.983   4.536 -0.0944 -0.4610  1.1435
   72MOL0     C 9626   0.434   9.999   4.611  0.2766  0.4840 -0.1240
   72MOL0     C 9627   0.311   9.970   4.540  0.0937 -0.8248 -0.3631
   72MOL0     C 9628   0.186  10.024   4.613 -0.0716 -1.0431  0.8902
   72MOL0     C 9629   0.148   9.936   4.741  0.5002 -0.0984 -0.2419
   72MOL0    Cl 9630   0.081   9.760   4.699  0.1918 -0.3144 -0.0567
   72MOL0     C 9631   1.265   9.798   4.607  0.4911  0.4133 -0.0420
   72MOL0     C 9632   1.380   9.828   4.526 -0.0595 -0.2822 -0.0350
   72MOL0     O 9633   1.398  10.116   4.224 -0.0307  0.4162 -0.4072
   72MOL0     C 9634   1.741  10.039   4.309 -0.4387  0.8414 -0.5654
   72MOL0     C 9635   1.873  10.057   4.270 -0.2927  0.1668 -0.1911
   72MOL0     N 9636   2.296   9.664   3.702 -0.5521  0.9612  1.0717
   72MOL0     N 9637   2.407   9.604   3.698 -0.1483  0.0352 -0.3305
   72MOL0     C 9638   2.313   8.904   3.501  0.1006 -0.4137 -0.4253
   72MOL0     C 9639   2.182   8.891   3.445  0.7935 -0.8775 -0.3966
   72MOL0     C 9640   1.751   8.748   3.425 -0.7952  0.7849 -0.1909
   72MOL0     C 9641   1.636   8.784   3.494  0.5953 -0.3250 -0.0737
   72MOL0     C 9642   1.513   8.735   3.455  0.0589  0.2416 -1.2097
   72MOL0     C 9643   1.494   8.673   3.336 -0.2372  0.8976 -0.5747
   72MOL0     O 9644   1.374   8.664   3.276  0.2165  0.1283 -0.0707
   72MOL0     C 9645   1.256   8.708   3.345  0.5144  0.4586 -0.4568
   72MOL0     C 9646   1.128   8.677   3.268 -0.0590  0.0594 -0.0984
   72MOL0     C 9647   1.130   8.754   3.129  1.1624  1.1727  0.0489
   72MOL0     C 9648   0.985   8.741   3.072 -0.4454 -0.1040  0.1121
   72MOL0     C 9649   0.906   8.838   3.135  0.1183 -0.5292 -1.0990
   72MOL0     C 9650   0.842   8.931   3.187  0.4697 -0.0425 -0.1117
   72MOL0     C 9651   1.605   8.642   3.262  0.3235  0.0871  0.2674
   72MOL0     C 9652   1.734   8.676   3.306  0.0436  0.1475  0.3984
   72MOL0     H 9653   2.149   8.558   3.454 -2.8259  1.1522 -1.3710
   72MOL0     H 9654   2.383   8.583   3.537  0.0424  0.5348 -0.4863
   72MOL0     H 9655   2.576   8.981   3.572 -1.3229 -0.4534 -1.0482
   72MOL0     H 9656   2.468   8.965   3.710 -0.4582 -1.1011  1.0402
   72MOL0     H 9657   2.659   8.804   3.796 -0.6391  2.0092  1.9579
   72MOL0     H 9658   2.761   8.867   3.667  2.0032 -0.4368  2.2089
   72MOL0     H 9659   2.662   9.018   3.913 -1.5151 -1.0958  0.1394
   72MOL0     H 9660   2.826   8.993   3.873  1.1413  0.3247 -1.2696
   72MOL0     H 9661   2.851   9.130   3.696  1.9746  1.1349  2.9519
   72MOL0     H 9662   2.672   9.161   3.673 -4.7365 -0.1455  4.9101
   72MOL0     H 9663   2.669   9.255   3.901  1.5241 -3.4580  2.0121
   72MOL0     H 9664   2.840   9.226   3.903 -1.8647  1.6040  1.9882
   72MOL0     H 9665   2.850   9.449   3.819  0.9429 -0.8711 -0.8630
   72MOL0     H 9666   2.858   9.380   3.671  1.2530  2.1926  1.9228
   72MOL0     H 9667   2.656   9.499   3.619 -0.6954  0.0160 -0.7964
   72MOL0     H 9668   2.562   9.381   3.722  0.7090 -2.7373  0.9496
   72MOL0     H 9669   2.662   9.646   3.793 -0.4750  0.9459  0.1989
   72MOL0     H 9670   2.638   9.527   3.923 -1.3645  1.8274  0.0175
   72MOL0     H 9671   2.417   9.717   4.007 -0.0988 -0.5087 -0.9967
   72MOL0     H 9672   2.133   9.848   3.804 -3.9340 -0.1193  0.3217
   72MOL0     H 9673   2.091   9.711   3.909  0.5592  0.0404 -0.3176
   72MOL0     H 9674   2.289   9.922   3.998 -1.8398  3.0856 -2.0850
   72MOL0     H 9675   2.157   9.826   4.099 -3.2662  0.8904  0.0825
   72MOL0     H 9676   1.998   9.973   4.027  0.0264  1.5507  0.9803
   72MOL0     H 9677   2.109  10.052   3.914 -1.6439 -3.7178 -2.5214
   72MOL0     H 9678   2.233  10.145   4.111 -0.7643  1.2559  3.0258
   72MOL0     H 9679   2.157  10.036   4.218  0.1295 -0.0103  0.7123
   72MOL0     H 9680   1.846  10.336   4.094  0.8471 -0.5511  0.8310
   72MOL0     H 9681   1.599  10.425   4.130 -1.3945  0.9272 -3.6648
   72MOL0     H 9682   1.567  10.303   4.009  0.1434  1.7989 -0.1541
   72MOL0     H 9683   1.464  10.314   4.146  0.3441 -2.3723 -0.2527
   72MOL0     H 9684   1.248  10.123   4.399 -1.3171 -0.6778 -2.1657
   72MOL0     H 9685   1.054  10.038   4.483 -1.4164 -1.2606  0.5098
   72MOL0     H 9686   0.901   9.876   4.790 -0.1210 -1.6202 -0.4692
   72MOL0     H 9687   0.971  10.014   4.709  0.3786 -0.3814  2.1528
   72MOL0     H 9688   0.847   9.960   4.503 -1.9386 -3.0211 -3.0123
   72MOL0     H 9689   0.794   9.804   4.548 -3.3478  0.6848 -0.6908
   72MOL0     H 9690   0.700  10.032   4.713 -4.1337 -0.1457  0.9126
   72MOL0     H 9691   0.637   9.872   4.697 -1.8725  1.7540  0.0489
   72MOL0     H 9692   0.590  10.075   4.480 -0.1796 -1.7772 -1.1883
   72MOL0     H 9693   0.584   9.903   4.463  0.2158 -0.5360  1.2948
   72MOL0     H 9694   0.414  10.100   4.646 -1.6376 -0.9359  3.3929
   72MOL0     H 9695   0.436   9.929   4.696 -0.5296 -1.6006 -1.7349
   72MOL0     H 9696   0.306   9.999   4.435  1.1551 -1.0547 -0.4917
   72MOL0     H 9697   0.302   9.861   4.532 -1.0423 -0.7661 -0.0654
   72MOL0     H 9698   0.101  10.017   4.544  2.0938  1.2263 -2.3081
   72MOL0     H 9699   0.192  10.130   4.640  0.7109 -0.2793 -1.9404
   72MOL0     H 9700   0.069   9.984   4.799  0.0362 -0.9298 -0.1555
   72MOL0     H 9701   0.240   9.933   4.799  0.6775 -1.6185 -0.5555
   72MOL0     H 9702   1.262   9.718   4.681 -2.1678  0.5494  0.1000
   72MOL0     H 9703   1.470   9.770   4.540 -1.0258 -1.9884 -0.5096
   72MOL0     H 9704   1.724   9.948   4.364 -1.0931  1.8021  0.8749
   72MOL0     H 9705   1.951  10.000   4.319 -0.5854  0.0895  0.1933
   72MOL0     H 9706   2.369   8.997   3.505  2.0661 -1.3925 -2.5666
   72MOL0     H 9707   2.129   8.977   3.406 -0.5360 -1.0527  0.9634
   72MOL0     H 9708   1.647   8.858   3.573  6.6993  0.6644 -1.3801
   72MOL0     H 9709   1.431   8.766   3.519 -0.7148 -1.3565 -1.3816
   72MOL0     H 9710   1.248   8.658   3.442  0.4018 -3.4607 -2.2990
   72MOL0     H 9711   1.251   8.816   3.362  0.2128  0.9182 -3.0796
   72MOL0     H 9712   1.043   8.703   3.333 -2.0156  0.3059 -2.5909
   72MOL0     H 9713   1.126   8.568   3.257  2.8518 -0.1540  0.6886
   72MOL0     H 9714   1.195   8.702   3.058  1.4564 -0.0159  1.1587
   72MOL0     H 9715   1.165   8.858   3.132  0.7707  1.3829 -1.5939
   72MOL0     H 9716   0.936   8.644   3.080 -2.2037  0.7113 -0.2820
   72MOL0     H 9717   0.988   8.772   2.967  2.5076  1.2731  0.4764
   72MOL0     H 9718   0.777   9.005   3.229  1.4334  0.2359  0.9197
   72MOL0     H 9719   1.603   8.600   3.162  2.1043  1.0692 -0.2339
   72MOL0     H 9720   1.818   8.648   3.244  0.5150  1.9444  0.1706
   73MOL0     O 9721   2.189   8.525   0.897 -0.2964  0.3366 -0.1749
   73MOL0     C 9722   2.263   8.447   0.839  0.1376 -0.0422 -1.2463
   73MOL0     O 9723   2.237   8.395   0.712 -0.3336  0.1859  0.5162
   73MOL0     C 9724   2.118   8.419   0.651 -0.1166 -0.0481 -0.1129
   73MOL0     C 9725   1.996   8.439   0.716  0.4912 -0.2298  0.3004
   73MOL0     C 9726   1.888   8.483   0.638  0.0701  0.7327  0.2857
   73MOL0     C 9727   1.897   8.492   0.492 -0.1431  1.1491  0.0340
   73MOL0     O 9728   1.798   8.542   0.407 -0.3676  0.5676  0.2000
   73MOL0     C 9729   1.688   8.621   0.456 -0.5447 -0.2620 -0.0232
   73MOL0     C 9730   1.578   8.540   0.533 -0.6289  0.1696  0.9075
   73MOL0     C 9731   1.465   8.628   0.591 -1.1765 -0.1303  0.3156
   73MOL0     C 9732   1.383   8.563   0.694 -0.2007  1.2327  0.2050
   73MOL0     C 9733   1.300   8.667   0.775  0.0110  0.0783  0.2738
   73MOL0     C 9734   1.181   8.608   0.860  0.3436  0.4736 -0.6431
   73MOL0     C 9735   1.079   8.520   0.784 -0.2768 -0.0612 -0.1783
   73MOL0     C 9736   0.960   8.492   0.877 -0.4504 -0.4254 -0.3629
   73MOL0     N 9737   0.862   8.396   0.824 -0.7527  0.0277 -0.3844
   73MOL0     C 9738   0.832   8.267   0.869  0.7136  0.5867 -0.2978
   73MOL0     C 9739   0.708   8.243   0.815 -0.7756 -0.5065  0.7067
   73MOL0     C 9740   0.623   8.129   0.842 -0.4023  0.6568 -0.3031
   73MOL0     C 9741   0.481   8.166   0.885 -0.1382  0.0524 -0.2031
   73MOL0     C 9742   0.483   8.221   1.032 -0.2941  0.5640  0.1355
   73MOL0     C 9743   0.344   8.236   1.088  0.7305 -0.5400  0.4256
   73MOL0     O 9744   0.358   8.273   1.231  0.3385 -0.8161  0.0775
   73MOL0     C 9745   0.237   8.299   1.294  0.5484 -0.6834  0.0314
   73MOL0     C 9746   0.256   8.329   1.427 -0.1862  0.1775 -1.0123
   73MOL0     C 9747   0.139   8.339   1.505 -0.1553  0.4925 -0.8927
   73MOL0     C 9748   0.160   8.350   1.661  0.0078 -0.1415 -0.1778
   73MOL0     C 9749   0.004   8.334   1.448  1.3558 -1.0189  0.1914
   73MOL0     C 9750  -0.128   8.371   1.517  0.0811  0.1822 -0.6240
   73MOL0     O 9751  -0.236   8.381   1.437  0.2467 -0.7614  0.2988
   73MOL0     C 9752  -0.353   8.355   1.499  0.1495  0.2586  0.3828
   73MOL0     C 9753  -0.403   8.226   1.485 -0.2145 -0.1233  0.4380
   73MOL0     C 9754  -0.529   8.200   1.550  0.5282  1.0623  0.0697
   73MOL0     C 9755  -0.589   8.305   1.624  0.0122 -0.0557  0.0745
   73MOL0     O 9756  -0.704   8.290   1.689 -0.6525 -0.8899  1.0229
   73MOL0     C 9757  -0.825   8.284   1.614 -0.3817 -0.0916  0.5379
   73MOL0     C 9758  -0.922   8.172   1.667 -0.3747 -0.2652  0.7205
   73MOL0     C 9759  -1.064   8.198   1.629  0.8569  0.2949  0.4030
   73MOL0     C 9760  -1.162   8.088   1.656 -0.3155  0.6122  0.5776
   73MOL0     C 9761  -1.285   8.088   1.559  0.1615 -0.1153  0.9310
   73MOL0     C 9762  -1.382   7.988   1.628  0.4431 -0.1773  0.3665
   73MOL0     C 9763  -1.507   7.971   1.544  0.1254 -0.2678 -0.3885
   73MOL0     C 9764  -1.491   7.873   1.426  0.3983 -0.0153 -0.2961
   73MOL0    Cl 9765  -1.640   7.825   1.340  0.0610  0.3941  0.0940
   73MOL0     C 9766  -0.529   8.430   1.635  0.1098  0.5836 -1.2720
   73MOL0     C 9767  -0.420   8.460   1.560 -0.1122  0.5005 -0.1528
   73MOL0     O 9768  -0.134   8.372   1.638 -0.7091  0.3980 -0.2262
   73MOL0     C 9769   0.002   8.307   1.313  0.1031 -0.7780  0.9324
   73MOL0     C 9770   0.114   8.288   1.233 -0.2609 -0.6213 -0.1124
   73MOL0     N 9771   0.679   8.351   0.737 -0.8413  0.6779  0.0446
   73MOL0     N 9772   0.772   8.435   0.736  0.2656  0.1046  0.9502
   73MOL0     C 9773   2.023   8.465   0.434  0.2591 -0.1200  0.1391
   73MOL0     C 9774   2.132   8.430   0.508  0.1528  0.3817 -0.3886
   73MOL0     C 9775   2.393   8.422   0.915 -0.1140 -0.2525  0.1129
   73MOL0     C 9776   2.511   8.362   0.860  1.2081  0.5862  0.5708
   73MOL0     C 9777   2.624   8.335   0.942  0.2628 -0.6858  0.4900
   73MOL0     C 9778   2.626   8.380   1.076 -0.5612 -0.3116  0.2063
   73MOL0     O 9779   2.730   8.349   1.159  0.3827  0.1720 -0.4313
   73MOL0     C 9780   2.858   8.321   1.106 -0.6894 -0.1341 -0.6587
   73MOL0     C 9781   2.881   8.174   1.095  0.0830 -0.1959  0.7089
   73MOL0     C 9782   2.999   8.125   1.010  0.7289  0.8913 -0.8028
   73MOL0     C 9783   3.120   8.127   1.098  0.6001 -0.1368 -0.0946
   73MOL0     C 9784   3.227   8.073   1.007  0.1296 -0.1826 -0.3029
   73MOL0     C 9785   3.324   8.041   0.950 -0.0727  0.1520 -0.1552
   73MOL0     C 9786   2.510   8.442   1.137  0.1198 -0.3434  0.0236
   73MOL0     C 9787   2.398   8.462   1.056  0.5121  0.4507  0.4440
   73MOL0     H 9788   1.991   8.430   0.824  0.7705 -1.3497  0.2327
   73MOL0     H 9789   1.801   8.512   0.696 -0.3208  0.5739 -0.2101
   73MOL0     H 9790   1.717   8.706   0.519 -0.7850 -0.1630 -0.0474
   73MOL0     H 9791   1.645   8.663   0.365 -0.5074 -2.5796 -1.1742
   73MOL0     H 9792   1.545   8.468   0.457 -0.2069  0.3617  0.5328
   73MOL0     H 9793   1.617   8.477   0.613 -2.8088 -1.4112  0.7979
   73MOL0     H 9794   1.501   8.720   0.637 -0.0573  0.2731 -1.2769
   73MOL0     H 9795   1.405   8.643   0.500 -2.9043 -0.3962  1.3649
   73MOL0     H 9796   1.313   8.505   0.632  0.6765  1.2704 -0.8539
   73MOL0     H 9797   1.433   8.494   0.761 -0.7236  1.3613  0.7367
   73MOL0     H 9798   1.371   8.726   0.834  0.5880  2.2737 -2.4100
   73MOL0     H 9799   1.255   8.733   0.700  0.4935 -1.8628 -1.8321
   73MOL0     H 9800   1.233   8.540   0.928 -1.0286 -0.9131 -0.9268
   73MOL0     H 9801   1.126   8.682   0.918  0.3120 -0.4848  0.5758
   73MOL0     H 9802   1.041   8.554   0.687  0.2806 -1.8089 -1.0669
   73MOL0     H 9803   1.126   8.421   0.775  0.6759  0.2805  0.8957
   73MOL0     H 9804   0.920   8.588   0.910  2.1961  0.1786  1.3499
   73MOL0     H 9805   0.988   8.451   0.974  0.5073 -1.4352 -1.0436
   73MOL0     H 9806   0.888   8.213   0.944  1.5500  3.1632  1.0862
   73MOL0     H 9807   0.628   8.065   0.753  0.8484 -0.9573  0.8455
   73MOL0     H 9808   0.669   8.066   0.919 -0.0926  0.7951 -0.3748
   73MOL0     H 9809   0.423   8.074   0.887 -1.0255  0.6033  0.0466
   73MOL0     H 9810   0.431   8.230   0.811  0.9002 -0.6898 -1.5974
   73MOL0     H 9811   0.555   8.303   1.041 -0.9580  1.0000  2.0742
   73MOL0     H 9812   0.534   8.150   1.098 -1.1854  1.1814  1.5399
   73MOL0     H 9813   0.289   8.142   1.079 -0.0576 -0.1873  1.4531
   73MOL0     H 9814   0.290   8.311   1.029  1.1070  0.9174  1.8522
   73MOL0     H 9815   0.353   8.336   1.475 -1.4672  0.5973  1.6393
   73MOL0     H 9816   0.267   8.359   1.682 -0.3602  1.0010  1.4088
   73MOL0     H 9817   0.110   8.435   1.708  0.2797  1.1202 -2.0288
   73MOL0     H 9818   0.125   8.259   1.709  0.4567 -1.5425 -2.3662
   73MOL0     H 9819  -0.359   8.161   1.410 -4.1079  0.8257 -3.0721
   73MOL0     H 9820  -0.568   8.099   1.548  2.4577  0.2628 -2.2864
   73MOL0     H 9821  -0.874   8.380   1.633  1.0837  0.4811  1.5632
   73MOL0     H 9822  -0.811   8.259   1.508 -0.0118 -1.3856  0.8680
   73MOL0     H 9823  -0.883   8.082   1.618 -0.2952 -0.2921  0.8330
   73MOL0     H 9824  -0.915   8.155   1.775  0.4848  0.7379  0.8380
   73MOL0     H 9825  -1.081   8.226   1.525 -1.0103 -0.9680  0.3058
   73MOL0     H 9826  -1.097   8.283   1.690 -4.7418  0.2963 -2.0743
   73MOL0     H 9827  -1.104   7.996   1.641  0.2794  1.0933 -0.1364
   73MOL0     H 9828  -1.192   8.085   1.761 -1.1169  1.8874  0.4091
   73MOL0     H 9829  -1.257   8.056   1.458  0.6360  0.2874  0.9359
   73MOL0     H 9830  -1.320   8.191   1.549 -0.8414 -0.4657  0.7355
   73MOL0     H 9831  -1.330   7.893   1.641 -0.4034 -1.1833 -2.7676
   73MOL0     H 9832  -1.415   8.025   1.726  0.6110  0.8418  0.0596
   73MOL0     H 9833  -1.530   8.069   1.502  0.8799 -0.1159 -0.4698
   73MOL0     H 9834  -1.596   7.935   1.597  1.0264  0.2986  1.5946
   73MOL0     H 9835  -1.446   7.781   1.465  1.0113 -0.6493 -2.3752
   73MOL0     H 9836  -1.414   7.912   1.358 -0.3122  1.0665 -0.4895
   73MOL0     H 9837  -0.597   8.503   1.676 -1.3304 -0.8560 -0.9764
   73MOL0     H 9838  -0.378   8.561   1.556  1.3019 -0.0496  0.1044
   73MOL0     H 9839  -0.096   8.297   1.267 -0.2379 -2.1329  1.9002
   73MOL0     H 9840   0.107   8.274   1.125  0.0901  2.4576 -0.6328
   73MOL0     H 9841   2.031   8.451   0.327  1.2148 -4.1999  0.6042
   73MOL0     H 9842   2.224   8.406   0.456 -0.8743 -0.2537 -1.9822
   73MOL0     H 9843   2.509   8.335   0.755  0.7018 -2.3118  1.2366
   73MOL0     H 9844   2.710   8.281   0.904  0.8094  0.1645  0.4917
   73MOL0     H 9845   2.870   8.368   1.008  1.9982 -0.2519 -0.4540
   73MOL0     H 9846   2.932   8.357   1.178 -1.5599  0.7352 -0.1695
   73MOL0     H 9847   2.791   8.136   1.047  0.0836 -2.4259  2.3350
   73MOL0     H 9848   2.885   8.125   1.193  0.8960 -0.8583  0.3617
   73MOL0     H 9849   3.011   8.188   0.922  0.2749 -1.8952 -3.0248
   73MOL0     H 9850   2.974   8.022   0.981  0.5533  1.1157 -1.4626
   73MOL0     H 9851   3.118   8.063   1.187  2.1751 -0.2095 -0.0729
   73MOL0     H 9852   3.149   8.231   1.116 -0.6873  0.6522 -2.2090
   73MOL0     H 9853   3.419   8.009   0.912 -0.3873 -2.0713  0.7506
   73MOL0     H 9854   2.505   8.466   1.243 -0.9629 -2.9847  0.6562
   73MOL0     H 9855   2.304   8.501   1.092 -1.8563  0.0784 -4.4590
   74MOL0     O 9856   0.614   1.652  10.754 -0.0110 -0.5241  0.3248
   74MOL0     C 9857   0.632   1.728  10.657  0.1444 -0.2763 -0.4911
   74MOL0     O 9858   0.530   1.779  10.574  0.1501  0.0636  0.2190
   74MOL0     C 9859   0.400   1.740  10.598 -0.4182  0.0349 -0.8345
   74MOL0     C 9860   0.299   1.829  10.614  0.8945 -0.4687  0.5323
   74MOL0     C 9861   0.156   1.787  10.620  0.7168 -0.2027 -0.8023
   74MOL0     C 9862   0.128   1.649  10.598  0.7111  0.2499  0.5394
   74MOL0     O 9863  -0.000   1.584  10.595  0.1671 -0.7875 -0.4016
   74MOL0     C 9864  -0.113   1.671  10.572  0.6553 -0.7979  0.2699
   74MOL0     C 9865  -0.239   1.584  10.544 -0.2830  0.4923 -0.2728
   74MOL0     C 9866  -0.276   1.492  10.660  0.6441  0.6879  1.2862
   74MOL0     C 9867  -0.392   1.396  10.611 -0.5631 -0.5908 -0.7402
   74MOL0     C 9868  -0.529   1.448  10.628  0.4125  0.3264 -0.1218
   74MOL0     C 9869  -0.627   1.330  10.603  0.1633 -0.1065  0.4458
   74MOL0     C 9870  -0.775   1.362  10.636  0.7741  0.2590  0.0803
   74MOL0     C 9871  -0.846   1.444  10.518  0.1620 -0.1491  0.2039
   74MOL0     N 9872  -0.996   1.449  10.525 -0.0353  0.4299  0.3204
   74MOL0     C 9873  -1.076   1.463  10.633  0.4491  0.3650 -0.9384
   74MOL0     C 9874  -1.196   1.448  10.588  0.2783 -0.0021 -0.0773
   74MOL0     C 9875  -1.326   1.474  10.679  0.6563  0.6433  1.1166
   74MOL0     C 9876  -1.346   1.337  10.743  0.7921 -0.1539  0.7221
   74MOL0     C 9877  -1.464   1.344  10.848 -0.7119  0.2174 -0.4481
   74MOL0     C 9878  -1.598   1.283  10.818  0.1585  0.1057 -0.3084
   74MOL0     O 9879  -1.658   1.358  10.705 -0.5788 -0.2094 -0.3830
   74MOL0     C 9880  -1.792   1.361  10.706  0.0629  0.3762 -0.4585
   74MOL0     C 9881  -1.850   1.446  10.611 -0.7037 -0.1219  0.0656
   74MOL0     C 9882  -1.991   1.443  10.589  0.5853  0.8838  0.3236
   74MOL0     C 9883  -2.042   1.530  10.487 -0.3184  0.8187 -0.4773
   74MOL0     C 9884  -2.073   1.366  10.673  0.2233  0.3589  0.1550
   74MOL0     C 9885  -2.223   1.357  10.667  0.6070  0.2773 -0.2585
   74MOL0     O 9886  -2.289   1.276  10.764  0.0578 -0.8429 -0.7692
   74MOL0     C 9887  -2.429   1.276  10.780 -0.8652  0.7414  0.6639
   74MOL0     C 9888  -2.490   1.152  10.825  0.3137 -0.0671  0.1970
   74MOL0     C 9889  -2.627   1.151  10.842 -0.1199  0.0155  0.1748
   74MOL0     C 9890  -2.708   1.262  10.808  0.2502 -0.1932 -0.0617
   74MOL0     O 9891  -2.845   1.245  10.805 -0.0533  0.4939  0.1918
   74MOL0     C 9892  -2.919   1.174  10.909 -1.3141 -0.2296  0.6855
   74MOL0     C 9893  -3.075   1.196  10.907 -1.2941 -0.6804 -0.3724
   74MOL0     C 9894  -3.140   1.104  11.014  0.0413 -0.1541  0.5074
   74MOL0     C 9895  -3.278   1.166  11.055 -0.3123  0.5756 -0.7521
   74MOL0     C 9896  -3.350   1.069  11.147  1.0040  0.7578 -0.6249
   74MOL0     C 9897  -3.455   1.151  11.228  0.1049  0.5956 -1.5203
   74MOL0     C 9898  -3.541   1.069  11.321 -0.4555 -0.1904  0.4386
   74MOL0     C 9899  -3.663   1.002  11.261 -0.0397 -0.1980  0.2739
   74MOL0    Cl 9900  -3.789   1.115  11.209 -0.1424  0.0262  0.1883
   74MOL0     C 9901  -2.653   1.384  10.766 -0.6298  0.8413 -0.6373
   74MOL0     C 9902  -2.509   1.389  10.758  0.5237  0.2443 -0.4574
   74MOL0     O 9903  -2.285   1.422  10.584  0.3922 -0.2674  0.0684
   74MOL0     C 9904  -2.011   1.294  10.774  0.3137 -0.0550 -0.4651
   74MOL0     C 9905  -1.877   1.283  10.790 -0.0035  0.2922 -0.5364
   74MOL0     N 9906  -1.203   1.412  10.459  0.1405 -0.2678  0.3625
   74MOL0     N 9907  -1.080   1.423  10.421  0.1751 -0.3677  0.1343
   74MOL0     C 9908   0.231   1.561  10.585 -0.8725  0.2769  0.1313
   74MOL0     C 9909   0.368   1.600  10.590  0.7559 -0.1633 -0.1000
   74MOL0     C 9910   0.779   1.748  10.629  0.5190  0.3088  0.7558
   74MOL0     C 9911   0.800   1.881  10.587 -0.3733  0.1905 -0.3043
   74MOL0     C 9912   0.931   1.922  10.567  0.8745 -1.0237  0.1115
   74MOL0     C 9913   1.039   1.841  10.596  0.0079  0.3970  0.0705
   74MOL0     O 9914   1.163   1.891  10.565 -0.0260  0.5456 -0.5463
   74MOL0     C 9915   1.267   1.796  10.554 -0.5619 -0.3342 -0.2517
   74MOL0     C 9916   1.398   1.877  10.525 -1.0576 -0.2868 -0.4332
   74MOL0     C 9917   1.461   1.940  10.656  1.0256  0.4276 -0.6192
   74MOL0     C 9918   1.587   2.032  10.629 -1.1846  0.8042 -0.2543
   74MOL0     C 9919   1.710   1.952  10.600  0.3871  0.5492 -0.2406
   74MOL0     C 9920   1.808   1.879  10.586 -0.2389  0.0375  0.3596
   74MOL0     C 9921   1.013   1.711  10.649 -1.0927 -0.6884 -0.5653
   74MOL0     C 9922   0.881   1.662  10.659  0.3742  0.6174 -0.6880
   74MOL0     H 9923   0.320   1.936  10.607  0.0215 -0.3977 -1.8991
   74MOL0     H 9924   0.074   1.858  10.630  0.4754 -0.6461  0.5648
   74MOL0     H 9925  -0.118   1.724  10.668  0.9954  0.7163 -0.5074
   74MOL0     H 9926  -0.101   1.740  10.487 -1.6087  0.7789  1.1167
   74MOL0     H 9927  -0.325   1.646  10.517 -1.3319  1.1071  3.7943
   74MOL0     H 9928  -0.202   1.522  10.462  4.6383  0.4213  1.6132
   74MOL0     H 9929  -0.192   1.424  10.677 -1.3594 -2.1255  0.6300
   74MOL0     H 9930  -0.320   1.553  10.738 -0.5316  2.1818 -0.4615
   74MOL0     H 9931  -0.367   1.365  10.510 -1.2298 -2.1654 -0.4640
   74MOL0     H 9932  -0.381   1.303  10.668  0.4403 -0.3685 -0.5606
   74MOL0     H 9933  -0.537   1.484  10.731  3.8730 -0.0311  0.3984
   74MOL0     H 9934  -0.545   1.533  10.561  0.9946  1.3279  0.9785
   74MOL0     H 9935  -0.624   1.292  10.501 -0.4118  1.0319 -0.0118
   74MOL0     H 9936  -0.581   1.250  10.662  3.8678  1.7863  0.4364
   74MOL0     H 9937  -0.833   1.270  10.650  0.4033 -0.1581 -3.2940
   74MOL0     H 9938  -0.773   1.423  10.726  1.2054  0.6900 -0.2130
   74MOL0     H 9939  -0.814   1.391  10.428 -1.3501  0.1336 -0.5344
   74MOL0     H 9940  -0.801   1.544  10.518 -1.3430  0.5691 -1.4000
   74MOL0     H 9941  -1.052   1.493  10.734  0.4479  3.1844 -1.6837
   74MOL0     H 9942  -1.286   1.552  10.745  2.2784  1.6845 -0.9426
   74MOL0     H 9943  -1.423   1.503  10.637 -1.1101 -1.2386  3.6015
   74MOL0     H 9944  -1.252   1.305  10.789 -0.1662 -0.8558  2.2518
   74MOL0     H 9945  -1.371   1.262  10.667  2.8853 -0.8546  0.6369
   74MOL0     H 9946  -1.491   1.448  10.869 -0.2900  0.2873 -0.2422
   74MOL0     H 9947  -1.422   1.309  10.943  2.5153  4.4726  0.0383
   74MOL0     H 9948  -1.654   1.292  10.911  0.7600  0.2083  0.0487
   74MOL0     H 9949  -1.573   1.179  10.796 -0.6252  0.1721 -1.6499
   74MOL0     H 9950  -1.773   1.509  10.567  0.5466 -1.5105  0.1912
   74MOL0     H 9951  -2.107   1.477  10.417  0.5303  2.1904 -2.4105
   74MOL0     H 9952  -2.100   1.613  10.531 -1.4331 -0.4170  0.4541
   74MOL0     H 9953  -1.956   1.559  10.426 -0.5396  2.0653 -0.2427
   74MOL0     H 9954  -2.434   1.061  10.842 -3.5394 -2.8621 -0.6899
   74MOL0     H 9955  -2.661   1.051  10.863 -0.6608 -0.3919 -2.2925
   74MOL0     H 9956  -2.901   1.067  10.901 -5.4529 -1.0441  0.1873
   74MOL0     H 9957  -2.882   1.212  11.005  0.7181 -1.2378  0.3402
   74MOL0     H 9958  -3.093   1.302  10.931 -0.4867 -0.6606  0.1696
   74MOL0     H 9959  -3.123   1.173  10.811 -0.3480  1.8424 -1.5314
   74MOL0     H 9960  -3.083   1.089  11.106  0.0473  0.7954  0.6738
   74MOL0     H 9961  -3.138   1.002  10.976  3.9116  0.3967 -1.2161
   74MOL0     H 9962  -3.260   1.254  11.117 -1.6493  1.8329 -2.0669
   74MOL0     H 9963  -3.332   1.194  10.964  1.2168  3.6315 -0.8452
   74MOL0     H 9964  -3.281   1.018  11.215  0.5206  1.2645  0.2629
   74MOL0     H 9965  -3.406   1.003  11.080  0.7091 -0.4369  0.7573
   74MOL0     H 9966  -3.389   1.214  11.288  0.7049 -0.5198 -0.9997
   74MOL0     H 9967  -3.515   1.221  11.169 -1.8402 -1.4166 -2.0661
   74MOL0     H 9968  -3.569   1.144  11.396  0.0348  0.1544  0.2809
   74MOL0     H 9969  -3.477   0.991  11.363  1.0702  2.4411  3.3875
   74MOL0     H 9970  -3.699   0.936  11.341  0.7023 -0.5813  0.2998
   74MOL0     H 9971  -3.640   0.953  11.166 -2.0504 -2.0634  0.6655
   74MOL0     H 9972  -2.714   1.472  10.749 -1.1100  0.3378 -1.5900
   74MOL0     H 9973  -2.468   1.481  10.717 -1.1507 -0.4935 -4.2090
   74MOL0     H 9974  -2.060   1.221  10.838 -0.2141 -1.4826 -2.4079
   74MOL0     H 9975  -1.847   1.208  10.862 -1.3755 -0.6982 -0.9581
   74MOL0     H 9976   0.206   1.458  10.562 -2.2058  0.8179 -0.9480
   74MOL0     H 9977   0.454   1.536  10.569  0.7442 -0.2632  0.1478
   74MOL0     H 9978   0.718   1.949  10.565 -1.4473 -0.9544  0.0641
   74MOL0     H 9979   0.927   2.023  10.527 -2.8297 -0.9505  0.3640
   74MOL0     H 9980   1.283   1.755  10.654 -0.1761 -0.9304 -0.5461
   74MOL0     H 9981   1.259   1.720  10.476  2.8786  1.2998 -2.4876
   74MOL0     H 9982   1.390   1.955  10.449  3.5615  2.2573  1.3090
   74MOL0     H 9983   1.467   1.805  10.480 -0.2060  1.7465 -2.5679
   74MOL0     H 9984   1.486   1.858  10.723 -2.5230 -1.3722 -1.2797
   74MOL0     H 9985   1.396   2.010  10.710  3.5288  3.7800 -1.5670
   74MOL0     H 9986   1.601   2.102  10.712 -0.1505  2.2122 -1.5697
   74MOL0     H 9987   1.570   2.097  10.543  2.6679  0.3698 -1.5123
   74MOL0     H 9988   1.879   1.800  10.577 -1.1651 -0.6746 -1.1714
   74MOL0     H 9989   1.100   1.653  10.678  0.0571  1.3544  0.3315
   74MOL0     H 9990   0.867   1.563  10.701 -0.4534  0.7174 -0.7122
   75MOL0     O 9991   8.861   5.014   1.639  0.3870  0.5851 -0.2118
   75MOL0     C 9992   8.888   4.964   1.751 -0.4971  0.8951 -0.1293
   75MOL0     O 9993   8.795   4.939   1.851  0.0716 -0.1288  0.2973
   75MOL0     C 9994   8.670   5.004   1.823  1.0079  0.7680 -0.3396
   75MOL0     C 9995   8.558   4.954   1.886  1.2491  1.0903  0.4073
   75MOL0     C 9996   8.431   4.997   1.852  0.0449  0.2603  0.4611
   75MOL0     C 9997   8.412   5.112   1.783 -0.1465 -0.2331  0.0118
   75MOL0     O 9998   8.286   5.158   1.758  0.3307  0.2807 -0.2952
   75MOL0     C 9999   8.209   5.091   1.651 -0.3800 -0.3767 -0.5503
   75MOL0     C10000   8.073   5.159   1.635 -0.1207  0.2011 -0.0476
   75MOL0     C10001   7.988   5.082   1.536  0.9986  0.1291 -0.4874
   75MOL0     C10002   7.853   5.150   1.515 -0.6595  0.4279  0.3772
   75MOL0     C10003   7.763   5.061   1.430 -0.5723 -0.6826  0.1028
   75MOL0     C10004   7.613   5.097   1.415  0.1709  0.2630 -0.0379
   75MOL0     C10005   7.599   5.242   1.372  0.3477 -0.1159 -0.2694
   75MOL0     C10006   7.452   5.297   1.352  0.6785 -0.2800 -0.0600
   75MOL0     N10007   7.443   5.438   1.341  0.6858 -0.4110 -0.2574
   75MOL0     C10008   7.502   5.513   1.237  0.0339 -0.2845  0.4579
   75MOL0     C10009   7.485   5.641   1.279 -0.5178 -0.1009  0.5794
   75MOL0     C10010   7.546   5.753   1.193 -0.2101 -0.2117  0.3133
   75MOL0     C10011   7.590   5.882   1.266 -1.0020 -0.2867  0.4361
   75MOL0     C10012   7.485   5.991   1.264  0.3930 -0.1612 -0.8628
   75MOL0     C10013   7.372   5.949   1.364  0.0802  0.7989 -0.6403
   75MOL0     O10014   7.274   6.046   1.357 -0.1197  0.0839  0.1669
   75MOL0     C10015   7.163   6.043   1.432 -0.0056  0.1453  0.0125
   75MOL0     C10016   7.121   5.931   1.512  0.8304  0.0152  0.2082
   75MOL0     C10017   7.012   5.944   1.597  0.3813 -0.5482 -0.7598
   75MOL0     C10018   6.977   5.823   1.673  0.2684 -0.0192 -0.5468
   75MOL0     C10019   6.949   6.066   1.621 -0.2580  0.2400 -0.2251
   75MOL0     C10020   6.840   6.100   1.718  0.5857  1.4728  0.0345
   75MOL0     O10021   6.782   6.227   1.705 -0.6257  0.8821 -0.4060
   75MOL0     C10022   6.656   6.245   1.760  0.1391 -0.0120 -0.1729
   75MOL0     C10023   6.546   6.166   1.714  0.1451  0.8227 -0.5074
   75MOL0     C10024   6.424   6.191   1.773  0.1119 -0.0542  0.3882
   75MOL0     C10025   6.407   6.291   1.874  0.2017  0.0129  0.3614
   75MOL0     O10026   6.289   6.324   1.924  1.2531  0.5911  0.0096
   75MOL0     C10027   6.190   6.223   1.955  0.3752  0.3109  0.5438
   75MOL0     C10028   6.059   6.281   2.017 -0.3133  0.9073 -0.0680
   75MOL0     C10029   6.000   6.387   1.929  0.5253 -0.2017 -0.8178
   75MOL0     C10030   5.855   6.417   1.944  0.0625 -0.6937  0.1611
   75MOL0     C10031   5.829   6.511   2.067  0.0285 -0.5786 -0.0433
   75MOL0     C10032   5.677   6.536   2.082  0.4097  0.1055 -0.6830
   75MOL0     C10033   5.622   6.650   2.011 -0.5444 -1.2289  0.1303
   75MOL0     C10034   5.474   6.668   1.981 -0.5044 -0.5718 -0.4283
   75MOL0    Cl10035   5.356   6.641   2.118 -0.0333  0.0992 -0.2206
   75MOL0     C10036   6.517   6.370   1.903  0.0548 -0.3598 -1.2471
   75MOL0     C10037   6.638   6.352   1.846 -0.1287 -0.6152 -0.2908
   75MOL0     O10038   6.811   6.013   1.796  0.8926  0.3672 -0.7413
   75MOL0     C10039   6.994   6.180   1.547  0.7374  0.2054 -0.5889
   75MOL0     C10040   7.092   6.166   1.457  0.3830 -0.1330 -0.2288
   75MOL0     N10041   7.416   5.647   1.400  0.6667  1.0720  1.1912
   75MOL0     N10042   7.387   5.529   1.436 -0.0003 -0.1437 -0.0003
   75MOL0     C10043   8.521   5.178   1.741 -0.2008 -0.3144  0.3407
   75MOL0     C10044   8.651   5.130   1.769  0.1371 -0.7269  0.0924
   75MOL0     C10045   9.028   4.958   1.791 -0.9505  0.2657 -0.4456
   75MOL0     C10046   9.140   5.000   1.707  0.0074 -0.0096  0.2527
   75MOL0     C10047   9.268   5.011   1.745 -0.6811 -0.0527 -0.0325
   75MOL0     C10048   9.307   4.943   1.861  0.2289 -0.0403 -0.4276
   75MOL0     O10049   9.443   4.930   1.874 -1.0137 -0.1542 -0.4743
   75MOL0     C10050   9.488   4.851   1.985 -0.4190 -0.4086  0.4575
   75MOL0     C10051   9.639   4.813   1.960  0.3439 -0.4520  0.1290
   75MOL0     C10052   9.686   4.728   2.081 -0.4460  0.8590  0.1204
   75MOL0     C10053   9.838   4.690   2.061  0.4310  0.0811  0.6353
   75MOL0     C10054   9.923   4.808   2.081  0.0163  0.6727  0.2111
   75MOL0     C10055  10.010   4.889   2.089 -0.8883  0.1740 -0.0351
   75MOL0     C10056   9.208   4.892   1.946 -0.4865  0.7114  0.2086
   75MOL0     C10057   9.073   4.898   1.908  0.3011 -0.6893 -0.1732
   75MOL0     H10058   8.564   4.860   1.940  1.5734 -0.0259 -1.4948
   75MOL0     H10059   8.343   4.942   1.884  1.4213 -0.9965  2.3170
   75MOL0     H10060   8.277   5.088   1.566  1.2827 -0.7736  0.7233
   75MOL0     H10061   8.183   4.988   1.678 -0.1282  0.1946  2.2372
   75MOL0     H10062   8.026   5.165   1.733  1.1027  0.4002  0.5410
   75MOL0     H10063   8.087   5.261   1.597 -2.8746  0.9924  0.8283
   75MOL0     H10064   8.031   5.086   1.435  2.0888  0.0348 -0.0410
   75MOL0     H10065   7.981   4.978   1.571 -1.2374  0.9388  1.7047
   75MOL0     H10066   7.811   5.152   1.616 -1.8479 -1.5790 -0.0227
   75MOL0     H10067   7.861   5.252   1.478  1.0314 -0.1947 -1.1808
   75MOL0     H10068   7.803   5.068   1.329  3.6040 -1.4893  1.4978
   75MOL0     H10069   7.775   4.957   1.461  0.4811 -0.9683 -1.1737
   75MOL0     H10070   7.571   5.034   1.336 -1.2722  0.5590  0.4795
   75MOL0     H10071   7.559   5.068   1.505  0.8809  0.1413  0.3551
   75MOL0     H10072   7.651   5.294   1.452 -1.1376 -0.4688  0.9875
   75MOL0     H10073   7.659   5.249   1.281  3.5341 -0.1486  1.7120
   75MOL0     H10074   7.385   5.273   1.436 -0.9129 -3.1056 -1.9594
   75MOL0     H10075   7.415   5.253   1.259  1.1971  1.7206 -1.2770
   75MOL0     H10076   7.554   5.489   1.145 -2.5643  0.0733 -1.2286
   75MOL0     H10077   7.636   5.718   1.142 -1.4620 -1.0297 -1.4527
   75MOL0     H10078   7.477   5.769   1.110  1.8991 -0.6322 -1.6140
   75MOL0     H10079   7.685   5.917   1.225 -1.3301  1.2135  0.8873
   75MOL0     H10080   7.619   5.867   1.370 -1.3256  0.4213  0.6375
   75MOL0     H10081   7.441   6.000   1.165  0.0418  0.6966 -0.6450
   75MOL0     H10082   7.525   6.091   1.285 -0.9821  0.1835  0.3171
   75MOL0     H10083   7.413   5.945   1.465 -0.4270 -3.4307 -0.4369
   75MOL0     H10084   7.322   5.857   1.333 -0.4571  1.2892 -1.2653
   75MOL0     H10085   7.164   5.833   1.491 -0.4072 -0.8845  1.6441
   75MOL0     H10086   6.872   5.797   1.655  0.9308 -2.9685 -0.6719
   75MOL0     H10087   7.023   5.734   1.630  0.4474 -0.9161  1.3929
   75MOL0     H10088   6.993   5.829   1.781  3.2608 -3.1301 -0.6172
   75MOL0     H10089   6.569   6.094   1.636  1.1911  0.1463  0.3806
   75MOL0     H10090   6.339   6.129   1.747 -0.1011  0.4298 -0.0711
   75MOL0     H10091   6.162   6.166   1.865 -1.8765 -0.3989  1.6396
   75MOL0     H10092   6.221   6.153   2.033 -2.5505 -2.3311 -0.4186
   75MOL0     H10093   5.992   6.194   2.022  0.1803  0.5359  0.1912
   75MOL0     H10094   6.082   6.327   2.114  1.4886  1.3683 -0.6763
   75MOL0     H10095   6.015   6.356   1.826 -0.4439 -1.5295 -0.5805
   75MOL0     H10096   6.044   6.485   1.951 -0.6712  0.0307  0.7391
   75MOL0     H10097   5.820   6.476   1.859  0.2918 -1.5147 -0.5263
   75MOL0     H10098   5.788   6.331   1.954 -0.2539 -0.4953 -0.2213
   75MOL0     H10099   5.869   6.611   2.049 -2.0043  0.5925  1.5651
   75MOL0     H10100   5.882   6.472   2.154 -0.6399  0.3714  0.8029
   75MOL0     H10101   5.616   6.453   2.044  0.6925 -0.3293 -0.2091
   75MOL0     H10102   5.647   6.529   2.187  0.0044 -1.1370 -0.8624
   75MOL0     H10103   5.663   6.669   1.911 -1.1606 -2.1528 -0.3108
   75MOL0     H10104   5.653   6.739   2.067  0.8242  1.2197 -4.0702
   75MOL0     H10105   5.445   6.593   1.907 -0.6803 -0.1483 -0.7994
   75MOL0     H10106   5.458   6.770   1.943  0.4259 -0.1967  0.1560
   75MOL0     H10107   6.512   6.454   1.971  0.5782 -1.6983  0.5161
   75MOL0     H10108   6.731   6.397   1.877  1.5721 -2.7167 -1.9713
   75MOL0     H10109   6.958   6.281   1.565 -0.1795  0.0064 -1.2338
   75MOL0     H10110   7.123   6.262   1.416 -1.4471  0.2045 -0.8828
   75MOL0     H10111   8.501   5.273   1.692 -4.8121 -1.1352  0.2046
   75MOL0     H10112   8.726   5.189   1.718  0.2060 -1.5892 -0.8242
   75MOL0     H10113   9.108   5.017   1.605  0.9507 -0.4241 -0.1208
   75MOL0     H10114   9.343   5.049   1.676 -2.3895 -0.9175 -2.4926
   75MOL0     H10115   9.473   4.896   2.083  3.6918  1.4994  0.4284
   75MOL0     H10116   9.432   4.758   1.992  1.0000 -1.1730  2.5090
   75MOL0     H10117   9.701   4.903   1.952 -2.3420  1.5091 -0.2377
   75MOL0     H10118   9.629   4.752   1.871 -2.1209  1.5541 -1.0976
   75MOL0     H10119   9.617   4.643   2.079 -1.6833  1.8285  0.5051
   75MOL0     H10120   9.664   4.775   2.177  0.1089  2.7280 -0.6109
   75MOL0     H10121   9.854   4.650   1.961 -0.9047  0.6295  0.1772
   75MOL0     H10122   9.859   4.622   2.144  0.6146 -1.6814 -0.8044
   75MOL0     H10123  10.085   4.964   2.105  0.4795 -0.7838 -1.5983
   75MOL0     H10124   9.232   4.838   2.037 -0.9536  3.2088  1.9364
   75MOL0     H10125   8.996   4.876   1.981  0.1936  0.5797  0.1148
   76MOL0     O10126   2.395   8.518   5.036 -0.3683  0.0020 -0.3088
   76MOL0     C10127   2.449   8.434   4.959  0.7171  0.1184  0.2827
   76MOL0     O10128   2.393   8.316   4.907  0.2641  0.2748 -0.1342
   76MOL0     C10129   2.263   8.302   4.938  0.0875 -0.5396  0.0428
   76MOL0     C10130   2.218   8.261   5.059  0.3795 -0.7300 -0.7220
   76MOL0     C10131   2.082   8.241   5.083  0.1269  0.8756  0.0377
   76MOL0     C10132   1.993   8.237   4.977  0.5599 -0.2553  0.0486
   76MOL0     O10133   1.865   8.203   5.007  0.0000 -1.3108 -0.1869
   76MOL0     C10134   1.830   8.067   4.981  0.3731 -0.5485 -0.0310
   76MOL0     C10135   1.731   8.009   5.074 -0.0435  0.0868  0.1821
   76MOL0     C10136   1.593   8.071   5.051  0.7090  0.2495  0.6619
   76MOL0     C10137   1.486   7.981   5.118 -0.8079  0.0063  0.6679
   76MOL0     C10138   1.352   8.014   5.059 -0.0267  0.5023  0.4213
   76MOL0     C10139   1.277   8.133   5.126 -0.5934  0.8461 -0.5285
   76MOL0     C10140   1.155   8.181   5.052  0.8073 -0.0983 -0.3004
   76MOL0     C10141   1.048   8.071   5.012 -0.2155  0.4907  0.5128
   76MOL0     N10142   0.920   8.148   4.987  0.0985  0.3281  0.0602
   76MOL0     C10143   0.836   8.199   5.078  0.9598  0.7242 -1.4223
   76MOL0     C10144   0.717   8.232   5.017  0.0298  0.3332 -0.2929
   76MOL0     C10145   0.588   8.265   5.080 -0.3409  0.5630 -1.0669
   76MOL0     C10146   0.543   8.408   5.073  0.1660  0.5951  0.7184
   76MOL0     C10147   0.556   8.467   4.935  0.0347 -0.2700 -0.7001
   76MOL0     C10148   0.480   8.389   4.830  0.1059 -0.4130  0.4630
   76MOL0     O10149   0.339   8.389   4.833  0.3671  0.2545  0.0115
   76MOL0     C10150   0.272   8.495   4.772 -0.7720  0.1419 -0.3186
   76MOL0     C10151   0.136   8.477   4.767  0.2804 -0.7990  0.8156
   76MOL0     C10152   0.045   8.575   4.709 -0.4046  0.2624  0.6360
   76MOL0     C10153  -0.102   8.546   4.689  0.4236 -0.9961  0.0151
   76MOL0     C10154   0.102   8.694   4.654 -0.0906  0.7236 -0.2272
   76MOL0     C10155   0.026   8.802   4.598 -0.0573  0.6254  0.3405
   76MOL0     O10156   0.031   8.918   4.658  0.0298 -1.1219 -0.1748
   76MOL0     C10157  -0.031   9.029   4.601  0.2074  0.4636 -0.6689
   76MOL0     C10158  -0.103   9.114   4.680 -0.0262 -0.3058  0.4692
   76MOL0     C10159  -0.146   9.232   4.622  0.2311 -0.7427 -0.6633
   76MOL0     C10160  -0.124   9.272   4.491  0.2793  0.5157  0.3904
   76MOL0     O10161  -0.177   9.391   4.454  0.0933  0.8250 -0.1843
   76MOL0     C10162  -0.261   9.385   4.336 -0.8444  0.2324 -0.2824
   76MOL0     C10163  -0.410   9.436   4.328 -1.6058  0.4205 -0.4913
   76MOL0     C10164  -0.471   9.386   4.202  0.6137 -0.1367  1.2898
   76MOL0     C10165  -0.608   9.450   4.197 -0.0238  0.6240  0.3779
   76MOL0     C10166  -0.714   9.364   4.118 -0.1448 -0.6330 -0.5863
   76MOL0     C10167  -0.865   9.405   4.138 -0.2697 -0.3430 -0.2228
   76MOL0     C10168  -0.969   9.326   4.044  0.2098 -0.2676 -0.0247
   76MOL0     C10169  -1.107   9.335   4.105 -0.4876  0.9663  0.8032
   76MOL0    Cl10170  -1.196   9.188   4.055 -0.1803 -0.0202  0.0850
   76MOL0     C10171  -0.058   9.173   4.407 -0.3152  0.7078 -0.9023
   76MOL0     C10172  -0.008   9.055   4.469 -0.2030 -0.0906  0.1092
   76MOL0     O10173  -0.042   8.775   4.502 -0.7131 -0.1495 -0.3758
   76MOL0     C10174   0.240   8.718   4.658 -0.3027 -0.5096 -0.4802
   76MOL0     C10175   0.329   8.620   4.720  1.1985 -0.7557 -0.9306
   76MOL0     N10176   0.739   8.212   4.883 -0.7706  0.4007  0.1020
   76MOL0     N10177   0.854   8.151   4.864 -0.5216  0.0730 -0.1122
   76MOL0     C10178   2.034   8.262   4.854 -0.1354  0.3510 -0.1634
   76MOL0     C10179   2.166   8.306   4.836 -0.2385 -0.3366 -0.3198
   76MOL0     C10180   2.592   8.445   4.946  0.1227 -0.3936 -0.1915
   76MOL0     C10181   2.659   8.566   4.970  0.1797 -0.3363 -0.0752
   76MOL0     C10182   2.793   8.592   4.957 -0.1031  0.4174 -0.5879
   76MOL0     C10183   2.878   8.488   4.919 -0.1097  0.5115 -0.1657
   76MOL0     O10184   3.013   8.519   4.909 -0.4357  0.3100 -0.8666
   76MOL0     C10185   3.099   8.433   4.840 -0.5353 -0.5466 -0.0358
   76MOL0     C10186   3.240   8.496   4.827 -0.4606 -0.7841 -0.1063
   76MOL0     C10187   3.344   8.430   4.730  0.0979 -0.1027 -0.6111
   76MOL0     C10188   3.483   8.502   4.721 -0.2268  0.3869  0.4872
   76MOL0     C10189   3.550   8.527   4.853  0.0184 -0.8049 -0.6024
   76MOL0     C10190   3.605   8.543   4.960  0.6177  0.1360 -0.1440
   76MOL0     C10191   2.820   8.364   4.897  0.0360  0.4085 -0.2307
   76MOL0     C10192   2.678   8.341   4.906 -1.1723  0.5201 -0.3428
   76MOL0     H10193   2.295   8.263   5.136  1.4152 -1.6926 -1.7108
   76MOL0     H10194   2.052   8.233   5.187  3.5965  0.1873  1.1350
   76MOL0     H10195   1.790   8.057   4.880 -1.3565  0.1023  0.5524
   76MOL0     H10196   1.921   8.007   4.980  0.0770 -1.0166 -2.4338
   76MOL0     H10197   1.726   7.902   5.050  1.3022 -0.0454  0.4268
   76MOL0     H10198   1.768   8.013   5.176  0.5533 -0.4283 -0.0092
   76MOL0     H10199   1.593   8.174   5.088  1.4972  0.4278  0.1901
   76MOL0     H10200   1.574   8.077   4.943  0.3388  1.5344  0.7851
   76MOL0     H10201   1.506   7.876   5.098 -1.0359  0.0307  0.3007
   76MOL0     H10202   1.487   7.998   5.226 -2.0268 -1.4612  0.9371
   76MOL0     H10203   1.363   8.034   4.952 -1.4134 -0.5070  0.0648
   76MOL0     H10204   1.290   7.925   5.070  3.1006 -1.9613 -0.4936
   76MOL0     H10205   1.257   8.120   5.233 -0.0412  3.2569 -0.0686
   76MOL0     H10206   1.348   8.216   5.120 -0.3783  0.8782  1.5951
   76MOL0     H10207   1.102   8.241   5.127 -2.2569 -1.5065 -1.1809
   76MOL0     H10208   1.183   8.244   4.968 -1.6243  0.1430 -1.0081
   76MOL0     H10209   1.041   7.999   5.093  4.1156 -0.8811 -0.0924
   76MOL0     H10210   1.067   8.018   4.918 -1.6449 -2.0163  1.5705
   76MOL0     H10211   0.842   8.168   5.182  2.4442 -1.7635 -2.1700
   76MOL0     H10212   0.512   8.206   5.028 -0.8817 -0.9545  1.2910
   76MOL0     H10213   0.579   8.237   5.186 -1.7190  1.8943 -0.7972
   76MOL0     H10214   0.601   8.458   5.150  0.6482 -1.5661  1.8454
   76MOL0     H10215   0.440   8.401   5.110  0.7373 -0.5578  2.2066
   76MOL0     H10216   0.659   8.461   4.899  0.4315 -1.1052  0.5064
   76MOL0     H10217   0.512   8.567   4.923 -1.2387 -0.7262 -0.1255
   76MOL0     H10218   0.513   8.285   4.835 -0.3903 -0.5894  0.1892
   76MOL0     H10219   0.513   8.422   4.731 -3.1944  2.2507  0.0541
   76MOL0     H10220   0.099   8.378   4.792 -0.6668 -1.2995 -2.1260
   76MOL0     H10221  -0.163   8.627   4.730  1.5766 -0.2461  0.2797
   76MOL0     H10222  -0.127   8.549   4.582  2.5696  0.0230 -0.5163
   76MOL0     H10223  -0.132   8.454   4.740 -4.7409  0.2377 -0.2654
   76MOL0     H10224  -0.119   9.105   4.787  0.5202  2.8941  0.9251
   76MOL0     H10225  -0.188   9.310   4.685 -0.0581 -0.9957 -0.5343
   76MOL0     H10226  -0.200   9.441   4.265 -0.1459 -0.3835 -0.1776
   76MOL0     H10227  -0.260   9.283   4.298  0.7412  0.1139 -0.0145
   76MOL0     H10228  -0.462   9.388   4.412  0.7746  0.6308  1.2265
   76MOL0     H10229  -0.423   9.545   4.338  1.5537  1.2572 -3.4126
   76MOL0     H10230  -0.479   9.278   4.212  2.7009 -0.6626 -1.5145
   76MOL0     H10231  -0.410   9.409   4.114 -1.7398 -1.4713 -0.7930
   76MOL0     H10232  -0.657   9.470   4.292 -0.6975 -1.6099  0.5425
   76MOL0     H10233  -0.610   9.552   4.156 -0.5665  1.2094  1.7931
   76MOL0     H10234  -0.712   9.256   4.135 -1.6877 -0.6869 -0.6098
   76MOL0     H10235  -0.698   9.384   4.012 -0.1402 -0.8397 -0.6255
   76MOL0     H10236  -0.888   9.369   4.239 -0.4227  0.2368 -0.0501
   76MOL0     H10237  -0.876   9.514   4.134 -0.0014 -0.3083 -0.0318
   76MOL0     H10238  -0.935   9.222   4.041  3.3640  0.6455  0.2846
   76MOL0     H10239  -0.970   9.377   3.948 -2.6945  1.1917  0.6578
   76MOL0     H10240  -1.154   9.424   4.061  0.0459 -0.4734 -3.0627
   76MOL0     H10241  -1.106   9.349   4.213  1.1566  0.9891  0.8102
   76MOL0     H10242  -0.042   9.191   4.301  0.0176 -0.8857 -1.1583
   76MOL0     H10243   0.062   8.993   4.415 -1.1639 -1.6065  0.5385
   76MOL0     H10244   0.285   8.812   4.627 -0.5435  0.2751  1.4463
   76MOL0     H10245   0.435   8.639   4.729  0.8292  0.7593  0.7744
   76MOL0     H10246   1.961   8.246   4.776  0.9386 -0.3783 -1.0403
   76MOL0     H10247   2.197   8.332   4.735  1.9844  1.0145  0.6378
   76MOL0     H10248   2.602   8.648   5.014 -0.4041 -1.0176  0.4584
   76MOL0     H10249   2.829   8.694   4.966  1.2924 -0.1569  0.8121
   76MOL0     H10250   3.106   8.341   4.899 -2.1228 -0.4742  0.3075
   76MOL0     H10251   3.056   8.406   4.743 -1.5540  0.3830  0.1361
   76MOL0     H10252   3.275   8.498   4.931  2.7021 -2.4633 -0.9983
   76MOL0     H10253   3.247   8.594   4.780  2.8600 -2.1383 -2.8004
   76MOL0     H10254   3.292   8.413   4.635  1.3837 -0.6833 -1.2395
   76MOL0     H10255   3.370   8.334   4.775 -1.0825  0.3458  1.1254
   76MOL0     H10256   3.466   8.597   4.669 -1.9201 -0.2937 -0.2490
   76MOL0     H10257   3.542   8.431   4.662 -3.1748 -1.9653  0.1693
   76MOL0     H10258   3.652   8.570   5.053 -2.7320  1.8745  1.2022
   76MOL0     H10259   2.879   8.277   4.868 -3.5311 -1.8060 -1.5349
   76MOL0     H10260   2.627   8.247   4.888  0.7108 -1.5539  3.8547
   77MOL0     O10261   0.474   9.057   6.441  0.1649  0.1617 -0.4285
   77MOL0     C10262   0.516   9.055   6.328  0.1094  0.3415  0.5908
   77MOL0     O10263   0.449   9.095   6.214  0.8580 -0.3347  0.0726
   77MOL0     C10264   0.322   9.149   6.232 -0.1734  0.3116 -0.1789
   77MOL0     C10265   0.222   9.076   6.171 -0.1094 -0.0912  0.0981
   77MOL0     C10266   0.087   9.119   6.181  0.1366  0.1303  0.1980
   77MOL0     C10267   0.058   9.238   6.253  0.8235  1.1390  0.3229
   77MOL0     O10268  -0.064   9.298   6.243 -0.4737  0.3921 -0.2328
   77MOL0     C10269  -0.176   9.241   6.190 -0.2549 -0.4449 -0.5041
   77MOL0     C10270  -0.288   9.346   6.165 -0.3996  0.3844  0.0859
   77MOL0     C10271  -0.405   9.275   6.105 -1.2355 -0.0193  0.2222
   77MOL0     C10272  -0.531   9.359   6.062  0.0595  0.7113 -0.0131
   77MOL0     C10273  -0.650   9.280   6.014  0.2761  0.0974  0.2207
   77MOL0     C10274  -0.771   9.373   5.993  0.7794  0.4669 -0.8859
   77MOL0     C10275  -0.907   9.303   5.974  0.4284  0.3448 -0.7341
   77MOL0     C10276  -1.019   9.403   5.935 -0.8755  0.7777  0.0734
   77MOL0     N10277  -1.147   9.332   5.974 -0.1823  0.4087  0.0172
   77MOL0     C10278  -1.219   9.240   5.897 -0.1934 -0.5823  0.1110
   77MOL0     C10279  -1.332   9.218   5.969  0.1496  0.0118 -0.5109
   77MOL0     C10280  -1.450   9.130   5.937 -0.5684  0.6731 -0.2491
   77MOL0     C10281  -1.534   9.188   5.826  1.1170 -0.0270  0.8305
   77MOL0     C10282  -1.599   9.316   5.885  0.3763 -0.4065  0.2942
   77MOL0     C10283  -1.625   9.415   5.770  0.1710  0.3813  0.6577
   77MOL0     O10284  -1.712   9.527   5.806 -0.3226 -0.2983 -0.7559
   77MOL0     C10285  -1.842   9.496   5.849  0.3968 -0.0096  1.0608
   77MOL0     C10286  -1.910   9.596   5.907  0.6200  0.6935 -0.3980
   77MOL0     C10287  -2.050   9.592   5.931  0.1036 -0.6220  0.3463
   77MOL0     C10288  -2.103   9.699   6.024  0.2229 -0.0765 -0.3502
   77MOL0     C10289  -2.124   9.483   5.885 -0.1494 -0.3947  0.9342
   77MOL0     C10290  -2.272   9.468   5.876 -0.5420  0.3617  0.4713
   77MOL0     O10291  -2.331   9.385   5.785  0.3380 -0.8170 -0.3191
   77MOL0     C10292  -2.466   9.388   5.789  0.3842  0.0402  0.3034
   77MOL0     C10293  -2.536   9.278   5.840 -0.5845  0.5085  0.5785
   77MOL0     C10294  -2.677   9.278   5.834  0.4357 -0.0208 -0.1034
   77MOL0     C10295  -2.751   9.395   5.791  0.0581  0.8212 -0.0615
   77MOL0     O10296  -2.886   9.400   5.773  0.3634 -0.5953 -0.3708
   77MOL0     C10297  -2.960   9.278   5.750 -0.5495 -0.1475  0.7865
   77MOL0     C10298  -3.108   9.306   5.781 -0.4080  0.2863  0.5977
   77MOL0     C10299  -3.159   9.426   5.696 -0.1613  0.3050 -0.0918
   77MOL0     C10300  -3.306   9.436   5.708 -0.7089 -0.6193 -0.5157
   77MOL0     C10301  -3.354   9.561   5.636 -0.5664 -0.3886  0.3412
   77MOL0     C10302  -3.509   9.585   5.633  0.7633 -0.4520 -0.4895
   77MOL0     C10303  -3.578   9.474   5.566  0.0116  0.9254 -0.1617
   77MOL0     C10304  -3.730   9.511   5.551  0.3355 -0.1325  0.1183
   77MOL0    Cl10305  -3.792   9.378   5.451  0.4076  0.3675  0.0298
   77MOL0     C10306  -2.684   9.507   5.746 -0.9166  0.4868 -0.4712
   77MOL0     C10307  -2.543   9.502   5.752  0.1340 -0.1131 -0.2879
   77MOL0     O10308  -2.332   9.523   5.966 -0.3895 -0.4590  0.6033
   77MOL0     C10309  -2.053   9.374   5.828  0.2428  0.1801 -0.2755
   77MOL0     C10310  -1.915   9.384   5.806 -0.3932  1.3529  0.2562
   77MOL0     N10311  -1.322   9.277   6.094 -0.6528 -0.1561  0.7762
   77MOL0     N10312  -1.213   9.354   6.092 -0.3221  0.0072  0.0880
   77MOL0     C10313   0.163   9.304   6.314 -0.9569 -0.5976 -0.0294
   77MOL0     C10314   0.296   9.263   6.301  1.2684 -0.8081 -0.9353
   77MOL0     C10315   0.657   9.018   6.312  0.4089  0.4912 -0.8407
   77MOL0     C10316   0.739   8.986   6.427 -0.3814 -0.3364 -0.5604
   77MOL0     C10317   0.870   8.953   6.405 -0.9677  0.0695 -0.1351
   77MOL0     C10318   0.926   8.951   6.278  0.0407  1.0422  0.3396
   77MOL0     O10319   1.063   8.920   6.270 -0.0876 -0.6409 -0.2287
   77MOL0     C10320   1.145   8.911   6.147 -0.0404  0.3202  0.0183
   77MOL0     C10321   1.191   9.045   6.103 -0.5644 -0.8032 -0.2874
   77MOL0     C10322   1.256   9.144   6.198  0.0513 -0.1100 -0.6640
   77MOL0     C10323   1.314   9.273   6.141  0.0601 -0.0705 -0.8513
   77MOL0     C10324   1.348   9.370   6.242  0.2970  0.4792  0.0824
   77MOL0     C10325   1.391   9.458   6.321  0.5332  0.3430 -0.0203
   77MOL0     C10326   0.848   8.988   6.168  0.3458 -0.4841  0.1941
   77MOL0     C10327   0.709   9.018   6.183 -0.2916  0.7291 -0.2553
   77MOL0     H10328   0.249   8.985   6.120 -0.3352  0.5588 -1.2319
   77MOL0     H10329   0.008   9.065   6.129 -1.4853 -0.2277  2.8391
   77MOL0     H10330  -0.149   9.200   6.092 -0.5698  2.6823 -2.0464
   77MOL0     H10331  -0.202   9.151   6.246  1.6869 -0.4559  0.4313
   77MOL0     H10332  -0.315   9.375   6.267 -1.3738  1.6318 -0.5030
   77MOL0     H10333  -0.246   9.429   6.108  4.2202 -0.9072  1.1896
   77MOL0     H10334  -0.364   9.230   6.015  1.5337  0.9497  0.8880
   77MOL0     H10335  -0.440   9.198   6.174  1.1738  0.2447  1.8314
   77MOL0     H10336  -0.547   9.421   6.150  1.4063  0.8463  0.1653
   77MOL0     H10337  -0.506   9.430   5.982  4.0285  1.0303  1.2725
   77MOL0     H10338  -0.625   9.229   5.920  2.6731 -0.0335  0.8632
   77MOL0     H10339  -0.667   9.209   6.096  2.2311  0.4792  1.0148
   77MOL0     H10340  -0.778   9.448   6.073 -1.0751 -0.5738 -0.0161
   77MOL0     H10341  -0.760   9.429   5.900 -0.6761  3.2032  0.4465
   77MOL0     H10342  -0.888   9.219   5.906 -1.1076 -0.0387 -0.7256
   77MOL0     H10343  -0.933   9.273   6.076 -0.8227  1.2665 -0.7714
   77MOL0     H10344  -1.001   9.419   5.828  0.6938 -0.3420  0.1325
   77MOL0     H10345  -1.008   9.498   5.987 -0.2064  1.3238 -1.0279
   77MOL0     H10346  -1.186   9.187   5.808  0.5529 -0.4123  0.2809
   77MOL0     H10347  -1.409   9.039   5.892 -1.8219  0.9467 -2.0924
   77MOL0     H10348  -1.506   9.107   6.027  1.5560 -1.7249  0.5733
   77MOL0     H10349  -1.619   9.121   5.807 -1.1813  2.3081  2.2227
   77MOL0     H10350  -1.471   9.209   5.739  1.1024 -2.5771  0.1253
   77MOL0     H10351  -1.544   9.369   5.963  0.4613  3.1955 -1.9382
   77MOL0     H10352  -1.700   9.290   5.919  0.1052 -1.6141 -1.2905
   77MOL0     H10353  -1.668   9.355   5.689 -0.2650  3.2539 -1.3762
   77MOL0     H10354  -1.528   9.449   5.733  0.4824  1.3972  2.3048
   77MOL0     H10355  -1.860   9.688   5.937 -0.2792  0.2662  2.8231
   77MOL0     H10356  -2.103   9.657   6.125  1.7129  2.3169  0.7570
   77MOL0     H10357  -2.039   9.787   6.037 -1.9703  1.2478  2.7029
   77MOL0     H10358  -2.206   9.722   5.997 -0.3080 -0.6768  1.0858
   77MOL0     H10359  -2.491   9.185   5.872 -0.3046  0.6434  0.5844
   77MOL0     H10360  -2.735   9.203   5.887 -0.0807  0.6055  0.2312
   77MOL0     H10361  -2.952   9.237   5.649  0.3773  1.2409  0.2673
   77MOL0     H10362  -2.926   9.207   5.826  0.4417  1.0886  1.5399
   77MOL0     H10363  -3.174   9.224   5.751 -0.2823 -0.5901  2.6091
   77MOL0     H10364  -3.122   9.326   5.887  1.0775  0.2618  0.8193
   77MOL0     H10365  -3.128   9.415   5.591 -2.7498 -1.2492 -0.7788
   77MOL0     H10366  -3.112   9.511   5.747  2.3247 -1.5704  0.9273
   77MOL0     H10367  -3.345   9.343   5.665 -0.1067 -1.1411  0.0556
   77MOL0     H10368  -3.342   9.457   5.809 -1.5655 -3.8558 -0.0332
   77MOL0     H10369  -3.331   9.549   5.530 -0.9549 -1.2802  0.3507
   77MOL0     H10370  -3.292   9.644   5.672  1.7320 -2.6613  2.0237
   77MOL0     H10371  -3.548   9.601   5.734 -0.8036 -1.6887 -0.8633
   77MOL0     H10372  -3.526   9.680   5.582  0.1039 -0.7714 -0.8757
   77MOL0     H10373  -3.564   9.377   5.613  2.7315  1.2792 -0.0746
   77MOL0     H10374  -3.526   9.483   5.470  0.7412  2.2061  0.3110
   77MOL0     H10375  -3.751   9.605   5.500  0.5362 -1.1350 -1.9163
   77MOL0     H10376  -3.770   9.515   5.653 -1.3181 -0.6800 -0.4848
   77MOL0     H10377  -2.735   9.595   5.707  0.9766  1.8159 -0.1194
   77MOL0     H10378  -2.477   9.584   5.726  0.7389  0.5334  2.9018
   77MOL0     H10379  -2.107   9.287   5.791  1.7282 -0.4222 -1.1476
   77MOL0     H10380  -1.856   9.299   5.774 -2.9331 -0.4207 -0.0417
   77MOL0     H10381   0.125   9.390   6.368  1.9691  0.6523  0.1955
   77MOL0     H10382   0.375   9.320   6.348 -1.2670  2.1868  0.0845
   77MOL0     H10383   0.697   8.976   6.526  0.2205  2.3781  0.0488
   77MOL0     H10384   0.934   8.914   6.484 -3.7039 -4.8916  0.0894
   77MOL0     H10385   1.235   8.850   6.155 -0.3914 -0.2804 -0.5008
   77MOL0     H10386   1.088   8.864   6.067  2.1572 -1.3245 -0.6800
   77MOL0     H10387   1.097   9.085   6.064  0.6121 -1.5983 -4.4308
   77MOL0     H10388   1.265   9.024   6.025 -0.0625 -1.2717  0.3015
   77MOL0     H10389   1.337   9.091   6.250  0.2011 -0.1035 -0.8909
   77MOL0     H10390   1.179   9.164   6.273  0.2775 -1.1086 -0.1372
   77MOL0     H10391   1.241   9.309   6.068 -0.2736  0.4004 -0.2910
   77MOL0     H10392   1.402   9.251   6.080 -1.2938 -1.4751 -2.4159
   77MOL0     H10393   1.411   9.527   6.400 -0.5532  2.9993 -1.9301
   77MOL0     H10394   0.884   8.985   6.066 -1.0688 -1.4110 -0.3086
   77MOL0     H10395   0.657   9.051   6.095 -1.9415 -0.7247  0.1257
   78MOL0     O10396  10.644   9.022   2.879  0.3108 -0.1213 -0.0280
   78MOL0     C10397  10.671   9.014   2.760  0.0193 -0.4891 -0.0924
   78MOL0     O10398  10.583   9.019   2.663  0.8572  0.2300  0.2279
   78MOL0     C10399  10.450   8.973   2.680  0.0236 -0.4068  0.7087
   78MOL0     C10400  10.416   8.869   2.761 -0.1865 -0.6316  0.2117
   78MOL0     C10401  10.287   8.838   2.772  0.2272 -0.6070 -0.3219
   78MOL0     C10402  10.184   8.893   2.704 -0.8395  0.0072  0.2561
   78MOL0     O10403  10.055   8.848   2.718 -0.7892 -0.3636  0.5273
   78MOL0     C10404   9.943   8.917   2.667  0.2227  0.3401 -0.6041
   78MOL0     C10405   9.823   8.837   2.723 -0.8325 -0.2257  0.2515
   78MOL0     C10406   9.691   8.877   2.651  0.1600 -0.2097 -0.6951
   78MOL0     C10407   9.574   8.822   2.729 -0.6146 -0.2720 -0.0055
   78MOL0     C10408   9.436   8.862   2.669 -0.1837  0.5186  0.2119
   78MOL0     C10409   9.362   8.743   2.602  0.5092  0.0122 -0.3970
   78MOL0     C10410   9.265   8.783   2.490  0.1372  0.4539 -0.3369
   78MOL0     C10411   9.172   8.896   2.527  0.2921 -0.1423 -0.4946
   78MOL0     N10412   9.033   8.861   2.483 -0.3199 -0.2111 -0.0749
   78MOL0     C10413   8.953   8.750   2.483  0.3971  0.4814 -0.3991
   78MOL0     C10414   8.826   8.782   2.443  0.8517  0.3370  0.0040
   78MOL0     C10415   8.699   8.694   2.420  0.5219  0.4781  0.0459
   78MOL0     C10416   8.568   8.752   2.460 -0.6077  0.2873  0.0193
   78MOL0     C10417   8.452   8.670   2.402  0.2593 -0.9070  0.2706
   78MOL0     C10418   8.320   8.754   2.395  0.0086 -0.4697  0.0316
   78MOL0     O10419   8.212   8.661   2.365 -0.2097 -0.2404  0.0809
   78MOL0     C10420   8.088   8.697   2.336  0.2024 -0.0767  0.5545
   78MOL0     C10421   7.976   8.645   2.402  0.4418  0.0401  0.5437
   78MOL0     C10422   7.849   8.689   2.374  0.6460 -0.0749  0.1855
   78MOL0     C10423   7.735   8.617   2.430  0.2136  0.1831 -0.5126
   78MOL0     C10424   7.829   8.798   2.284 -0.3715  0.3082  0.3091
   78MOL0     C10425   7.697   8.852   2.257 -0.2751 -0.8860 -0.1157
   78MOL0     O10426   7.590   8.769   2.259  0.1998  0.2871 -0.1107
   78MOL0     C10427   7.464   8.822   2.257  1.0212 -1.3522 -0.8463
   78MOL0     C10428   7.365   8.785   2.352 -0.7248  0.2811  0.5932
   78MOL0     C10429   7.239   8.835   2.341 -0.2712 -1.0171 -0.1423
   78MOL0     C10430   7.211   8.924   2.238  0.3213 -0.1502 -0.8558
   78MOL0     O10431   7.078   8.962   2.244 -0.0794  0.4865  0.9674
   78MOL0     C10432   7.006   8.978   2.113 -0.3458 -0.0028 -0.1900
   78MOL0     C10433   6.854   8.958   2.135  0.9734  0.4578  0.2672
   78MOL0     C10434   6.759   8.993   2.016  0.9726 -0.5257  0.3566
   78MOL0     C10435   6.756   9.143   1.983  0.5129 -0.1277  0.7072
   78MOL0     C10436   6.622   9.184   1.904 -1.6011 -0.4290  0.1424
   78MOL0     C10437   6.627   9.335   1.880 -0.2356  0.3758 -0.0028
   78MOL0     C10438   6.502   9.391   1.809 -0.4553 -0.5103 -0.7744
   78MOL0     C10439   6.387   9.438   1.896 -0.3782 -0.4287  0.6074
   78MOL0    Cl10440   6.316   9.295   1.964 -0.1082  0.1594  0.1107
   78MOL0     C10441   7.300   8.955   2.136  0.3611 -0.6489 -0.3339
   78MOL0     C10442   7.430   8.904   2.150  0.6198 -1.0484  0.1354
   78MOL0     O10443   7.694   8.971   2.225 -0.7022  0.5727  0.8535
   78MOL0     C10444   7.944   8.857   2.228 -0.3101  0.5834  0.0619
   78MOL0     C10445   8.068   8.805   2.250  0.2990  0.5045 -0.0326
   78MOL0     N10446   8.830   8.920   2.420 -0.4809  0.2738 -0.1265
   78MOL0     N10447   8.950   8.963   2.446  0.1885  0.6293 -0.4054
   78MOL0     C10448  10.220   8.992   2.610 -0.0224  0.7804 -0.3445
   78MOL0     C10449  10.355   9.027   2.600 -0.0846  0.3367  0.6633
   78MOL0     C10450  10.809   9.044   2.728 -1.2175  0.4013 -1.0676
   78MOL0     C10451  10.902   9.058   2.831  0.6014  0.1740 -0.3242
   78MOL0     C10452  11.036   9.094   2.800  0.1692  0.4103  0.2457
   78MOL0     C10453  11.074   9.113   2.671  0.0751  0.7123 -0.0385
   78MOL0     O10454  11.205   9.151   2.643  0.5920  0.4581  0.4409
   78MOL0     C10455  11.273   9.051   2.576  0.1045  1.0142 -0.0628
   78MOL0     C10456  11.426   9.043   2.623  0.6274 -0.0478  0.1402
   78MOL0     C10457  11.491   9.171   2.587 -0.5213  0.3798 -0.3160
   78MOL0     C10458  11.641   9.182   2.635  0.4872  0.0978 -0.0601
   78MOL0     C10459  11.737   9.069   2.599 -0.1057  0.0726  0.2195
   78MOL0     C10460  11.809   8.979   2.560  0.6475 -0.3324  0.0037
   78MOL0     C10461  10.981   9.089   2.566 -0.6051 -0.4180  0.3175
   78MOL0     C10462  10.851   9.057   2.590 -0.2736  1.1785 -0.2230
   78MOL0     H10463  10.487   8.822   2.828 -0.2803 -0.3182  0.5375
   78MOL0     H10464  10.262   8.779   2.859 -2.2432 -0.7595 -1.0487
   78MOL0     H10465   9.941   9.011   2.723  1.1886 -0.3411  0.6179
   78MOL0     H10466   9.937   8.934   2.559  0.6676 -0.5652 -0.7822
   78MOL0     H10467   9.839   8.729   2.712  0.0885 -0.1922  1.0208
   78MOL0     H10468   9.814   8.865   2.828  0.8617 -0.6311  0.5375
   78MOL0     H10469   9.691   8.986   2.660 -1.0786 -0.0393 -2.2659
   78MOL0     H10470   9.682   8.842   2.547  0.6998  2.0965 -1.5790
   78MOL0     H10471   9.593   8.715   2.731  1.1193  0.0154  0.0131
   78MOL0     H10472   9.578   8.849   2.835  1.4530  0.0792 -0.1360
   78MOL0     H10473   9.367   8.898   2.746 -0.1251 -3.3929  2.3378
   78MOL0     H10474   9.435   8.946   2.599 -1.0023  1.4316  1.2757
   78MOL0     H10475   9.413   8.657   2.558 -0.7846 -0.8326 -0.2843
   78MOL0     H10476   9.312   8.698   2.688  0.1588 -1.0969 -1.1561
   78MOL0     H10477   9.325   8.811   2.403  0.0535 -0.0857 -0.5737
   78MOL0     H10478   9.197   8.700   2.467 -0.7264  0.6254  1.4358
   78MOL0     H10479   9.204   8.984   2.470 -0.7486  1.1606  0.8552
   78MOL0     H10480   9.169   8.924   2.632 -0.2381  0.2777 -0.6156
   78MOL0     H10481   8.979   8.653   2.525  0.4377  0.0056 -1.4693
   78MOL0     H10482   8.691   8.682   2.311  2.5347  0.4923 -0.1448
   78MOL0     H10483   8.721   8.596   2.463 -0.6614 -0.6693 -1.8307
   78MOL0     H10484   8.545   8.845   2.406  0.3421  0.3299 -0.3354
   78MOL0     H10485   8.558   8.753   2.569  1.4304  3.5377  0.3068
   78MOL0     H10486   8.433   8.583   2.465 -3.1769 -0.0269  0.6323
   78MOL0     H10487   8.469   8.647   2.297  0.2003 -0.4096  0.1478
   78MOL0     H10488   8.325   8.827   2.314  0.5203 -1.0671 -0.4892
   78MOL0     H10489   8.299   8.798   2.493 -2.5816 -0.5021 -0.4641
   78MOL0     H10490   7.989   8.572   2.482  0.3351  2.3801  2.8094
   78MOL0     H10491   7.666   8.689   2.473 -0.5545 -1.4670  1.1321
   78MOL0     H10492   7.685   8.559   2.351 -0.8026 -1.7813  1.4724
   78MOL0     H10493   7.770   8.545   2.504  0.6548  0.6371 -0.2765
   78MOL0     H10494   7.391   8.722   2.437 -1.5213 -0.1326  0.5394
   78MOL0     H10495   7.163   8.802   2.412  0.7233 -0.6903  1.1275
   78MOL0     H10496   7.029   9.076   2.071 -0.5958  0.4464  0.7082
   78MOL0     H10497   7.035   8.902   2.039 -0.6927  2.2896 -2.8375
   78MOL0     H10498   6.828   8.854   2.159  0.8683  0.7241  1.3735
   78MOL0     H10499   6.833   9.013   2.227  2.1535  1.7534 -0.2144
   78MOL0     H10500   6.655   8.961   2.030 -0.6081  3.2360 -1.2576
   78MOL0     H10501   6.786   8.936   1.927  4.3604  2.2619 -0.6390
   78MOL0     H10502   6.772   9.208   2.069  2.9186  0.2528  0.0594
   78MOL0     H10503   6.841   9.156   1.915 -0.3077 -1.9940 -0.7755
   78MOL0     H10504   6.538   9.166   1.972 -2.9130 -0.1653 -1.3536
   78MOL0     H10505   6.615   9.129   1.810  2.5504  1.3354 -1.4049
   78MOL0     H10506   6.652   9.390   1.971 -1.1432 -0.5270  0.8291
   78MOL0     H10507   6.709   9.355   1.811  0.4623 -0.5352  0.5295
   78MOL0     H10508   6.462   9.325   1.732 -0.2995 -0.6739 -0.7148
   78MOL0     H10509   6.532   9.474   1.744 -3.5223  0.4805 -1.0463
   78MOL0     H10510   6.309   9.469   1.826  0.2473 -0.6990 -0.2244
   78MOL0     H10511   6.404   9.513   1.974  0.6613  0.3983 -0.3880
   78MOL0     H10512   7.272   9.030   2.063  0.0029 -1.5982 -1.2060
   78MOL0     H10513   7.507   8.927   2.078 -2.1615 -0.8203 -3.0246
   78MOL0     H10514   7.932   8.939   2.157 -0.6666 -0.7785 -1.5330
   78MOL0     H10515   8.152   8.847   2.197 -0.7096  2.2799 -0.3141
   78MOL0     H10516  10.151   9.049   2.549 -1.6756 -2.1704 -1.4339
   78MOL0     H10517  10.362   9.104   2.525 -4.1973  3.0800  2.7211
   78MOL0     H10518  10.871   9.054   2.935 -3.0795  0.1611 -1.3020
   78MOL0     H10519  11.113   9.108   2.875 -0.4306  1.2173  0.7261
   78MOL0     H10520  11.225   8.956   2.602  2.2312 -0.0205  0.2869
   78MOL0     H10521  11.271   9.070   2.468 -0.7107  0.1543 -0.2175
   78MOL0     H10522  11.474   8.962   2.569 -1.2940  0.0799 -1.9110
   78MOL0     H10523  11.420   9.039   2.732 -0.1838  1.2548  0.1700
   78MOL0     H10524  11.432   9.252   2.632  0.1596  0.4805  0.4148
   78MOL0     H10525  11.465   9.173   2.481 -0.2213  1.6674 -0.3924
   78MOL0     H10526  11.634   9.172   2.744 -2.3111  1.2353 -0.0529
   78MOL0     H10527  11.685   9.277   2.603  0.4313  0.1710  0.0798
   78MOL0     H10528  11.860   8.893   2.522  1.7226  1.0818 -1.9479
   78MOL0     H10529  11.012   9.092   2.462  3.1107 -1.1263  1.2506
   78MOL0     H10530  10.778   9.037   2.513  0.2170  1.8032 -0.8702
   79MOL0     O10531   6.902   2.704   0.698  0.4791  0.5457  0.3147
   79MOL0     C10532   6.996   2.776   0.679  0.5076  0.3810 -0.8203
   79MOL0     O10533   6.984   2.913   0.705  0.3847 -0.4573  0.4270
   79MOL0     C10534   6.866   2.952   0.751  0.2459  0.2962 -0.3035
   79MOL0     C10535   6.857   2.972   0.886  0.4519  0.4710 -0.6116
   79MOL0     C10536   6.725   2.982   0.942 -0.2216 -0.2725 -0.4204
   79MOL0     C10537   6.610   2.978   0.865 -0.3451 -0.2617  0.5590
   79MOL0     O10538   6.499   2.998   0.940 -0.0009 -1.1382  0.3592
   79MOL0     C10539   6.368   3.042   0.873 -0.3219  0.8327 -0.0935
   79MOL0     C10540   6.294   2.914   0.814 -0.1725  0.2786 -1.1193
   79MOL0     C10541   6.255   2.830   0.935  0.2235  1.3034  0.4187
   79MOL0     C10542   6.190   2.697   0.884  0.0473 -0.4649  0.5733
   79MOL0     C10543   6.187   2.583   0.985 -0.3710 -0.4196 -0.2952
   79MOL0     C10544   6.109   2.465   0.928 -0.1486  0.6217  0.1345
   79MOL0     C10545   6.129   2.340   1.019 -0.4780  0.7667  0.2797
   79MOL0     C10546   6.083   2.208   0.957 -0.5802 -0.1330 -0.3944
   79MOL0     N10547   5.943   2.195   0.944 -0.2361 -0.1850 -0.5611
   79MOL0     C10548   5.848   2.176   1.044 -0.6328  0.3580 -0.0885
   79MOL0     C10549   5.732   2.184   0.980  0.0698  0.4185  0.7176
   79MOL0     C10550   5.591   2.155   1.022  0.2145  0.0823 -0.7017
   79MOL0     C10551   5.493   2.246   0.955 -0.7469  0.6405  0.4335
   79MOL0     C10552   5.351   2.211   1.008 -0.2785 -0.5886 -0.0212
   79MOL0     C10553   5.246   2.285   0.923  0.1212 -0.1597  0.9398
   79MOL0     O10554   5.244   2.229   0.782  0.7679 -0.9454  0.1773
   79MOL0     C10555   5.123   2.233   0.725 -0.6244  0.7107 -0.2197
   79MOL0     C10556   5.084   2.144   0.635 -0.0406  0.7265  0.1181
   79MOL0     C10557   4.956   2.147   0.568  0.7739  0.3601 -0.3494
   79MOL0     C10558   4.927   2.046   0.455  0.5911  0.1539  0.2523
   79MOL0     C10559   4.868   2.263   0.604 -1.3539  0.3081 -0.1386
   79MOL0     C10560   4.742   2.279   0.531 -0.6598 -0.3688 -0.2493
   79MOL0     O10561   4.678   2.174   0.464  0.3221  0.8312 -0.9653
   79MOL0     C10562   4.550   2.198   0.421  0.1329 -0.7492 -0.0476
   79MOL0     C10563   4.530   2.247   0.293 -1.4228  0.1717 -0.3414
   79MOL0     C10564   4.414   2.226   0.225  0.4581 -0.5477  0.5877
   79MOL0     C10565   4.298   2.174   0.294 -0.2459  0.2478  0.4401
   79MOL0     O10566   4.177   2.158   0.247 -0.1978  0.5465  0.1723
   79MOL0     C10567   4.149   2.231   0.122  0.2612  0.2391  0.7675
   79MOL0     C10568   4.020   2.188   0.051 -0.8009 -0.1296 -0.8336
   79MOL0     C10569   3.906   2.154   0.143 -0.4326 -0.6796 -0.7894
   79MOL0     C10570   3.775   2.120   0.081  0.4083 -0.1150  0.0599
   79MOL0     C10571   3.669   2.124   0.192 -0.9524  0.1986 -0.2950
   79MOL0     C10572   3.545   2.070   0.133  0.0694  0.1430  0.4752
   79MOL0     C10573   3.430   2.088   0.226  0.6186 -0.6155  0.2872
   79MOL0     C10574   3.431   2.010   0.354 -0.1057  0.1524 -0.3220
   79MOL0    Cl10575   3.405   1.835   0.312  0.2295  0.0787  0.2102
   79MOL0     C10576   4.321   2.130   0.428  0.4370 -1.0542  0.1429
   79MOL0     C10577   4.443   2.135   0.487  0.8435  0.8089 -0.0071
   79MOL0     O10578   4.707   2.400   0.527 -0.4467  0.1234  0.1313
   79MOL0     C10579   4.915   2.352   0.699  0.5751 -0.0863  0.2741
   79MOL0     C10580   5.036   2.345   0.755 -0.0138  0.0612  0.0436
   79MOL0     N10581   5.753   2.209   0.845 -0.0795  0.3364  0.2654
   79MOL0     N10582   5.878   2.224   0.827 -0.4350 -0.8455  0.0544
   79MOL0     C10583   6.624   2.974   0.722 -0.3616 -1.3688  0.0878
   79MOL0     C10584   6.755   2.966   0.666  0.0673 -0.2155 -0.0097
   79MOL0     C10585   7.109   2.715   0.612 -0.6275  0.3088 -0.7801
   79MOL0     C10586   7.111   2.589   0.562 -0.1391  0.5794  0.1692
   79MOL0     C10587   7.223   2.535   0.497 -0.5878  0.1800  0.0577
   79MOL0     C10588   7.345   2.609   0.489  0.3669 -0.1544  0.0147
   79MOL0     O10589   7.443   2.556   0.415  0.4586  0.1752 -0.0328
   79MOL0     C10590   7.575   2.617   0.392  0.8574  0.3807  0.2096
   79MOL0     C10591   7.653   2.536   0.278 -1.0211  0.3677 -0.2486
   79MOL0     C10592   7.630   2.385   0.309  0.1032 -0.1605  0.0555
   79MOL0     C10593   7.713   2.295   0.210  0.6840 -0.1877  0.2487
   79MOL0     C10594   7.675   2.317   0.068 -0.3793 -0.4390  0.2024
   79MOL0     C10595   7.653   2.338  -0.047  0.0165 -0.3393  0.0018
   79MOL0     C10596   7.347   2.734   0.550  0.1590 -0.5202 -0.3616
   79MOL0     C10597   7.229   2.790   0.603 -0.8143 -0.0595  0.1662
   79MOL0     H10598   6.949   2.969   0.945  1.0629 -0.9319 -1.5890
   79MOL0     H10599   6.704   3.018   1.042 -2.9775  0.9623 -1.3445
   79MOL0     H10600   6.300   3.089   0.944  0.1776  0.6171  0.5351
   79MOL0     H10601   6.385   3.118   0.796 -0.3096  0.9583  0.0334
   79MOL0     H10602   6.199   2.951   0.775 -1.1995 -2.0597 -1.0122
   79MOL0     H10603   6.349   2.866   0.733  0.7389 -0.0494 -0.3147
   79MOL0     H10604   6.343   2.809   0.996 -2.2195  1.6799  4.4278
   79MOL0     H10605   6.188   2.890   0.997 -2.8053 -2.7841  1.5361
   79MOL0     H10606   6.089   2.723   0.850  0.7348  1.4335 -0.1765
   79MOL0     H10607   6.242   2.658   0.797 -0.1586 -0.0210  0.2447
   79MOL0     H10608   6.289   2.561   1.017  0.6414 -0.1951 -3.1351
   79MOL0     H10609   6.131   2.602   1.077 -0.6381 -1.4800 -0.2262
   79MOL0     H10610   6.005   2.496   0.921 -0.8407 -1.3438  1.0299
   79MOL0     H10611   6.150   2.438   0.830  2.6442 -1.2664  1.6607
   79MOL0     H10612   6.237   2.322   1.025 -0.9634 -4.2799 -1.1106
   79MOL0     H10613   6.088   2.359   1.118  0.6041  0.9392  0.7041
   79MOL0     H10614   6.117   2.129   1.023 -2.2727  0.5026  1.3261
   79MOL0     H10615   6.120   2.202   0.854 -3.1955 -2.4134 -1.3258
   79MOL0     H10616   5.872   2.157   1.148  1.5137 -0.1080 -0.6153
   79MOL0     H10617   5.574   2.049   1.003  1.9082  0.0248 -2.1810
   79MOL0     H10618   5.590   2.179   1.129  0.7955 -3.9091  0.3668
   79MOL0     H10619   5.505   2.224   0.849  2.7609  1.6214  0.4961
   79MOL0     H10620   5.523   2.350   0.968  2.3427 -0.1146  0.3888
   79MOL0     H10621   5.340   2.251   1.110 -2.2200  0.3768 -0.5538
   79MOL0     H10622   5.319   2.107   1.004 -2.4039  0.0609 -2.0748
   79MOL0     H10623   5.276   2.390   0.918  0.4769 -0.2023  1.9079
   79MOL0     H10624   5.146   2.282   0.967 -0.3476  1.0667 -0.0143
   79MOL0     H10625   5.167   2.079   0.612  1.6443  1.9456  2.2997
   79MOL0     H10626   4.836   1.989   0.477 -1.5717  2.1737 -2.6349
   79MOL0     H10627   4.912   2.091   0.356 -0.1429 -0.9296 -0.1551
   79MOL0     H10628   5.003   1.967   0.453 -0.7240 -1.1602 -1.2281
   79MOL0     H10629   4.621   2.286   0.250 -0.6989 -0.6992  0.3584
   79MOL0     H10630   4.410   2.241   0.117 -4.2493 -1.1257  0.4815
   79MOL0     H10631   4.150   2.340   0.133  1.8353  0.1767  1.6881
   79MOL0     H10632   4.225   2.208   0.046 -1.0840 -0.4401 -0.4231
   79MOL0     H10633   3.991   2.269  -0.016  0.8757  0.9851 -0.2481
   79MOL0     H10634   4.046   2.102  -0.011 -2.5581 -1.3336  0.0001
   79MOL0     H10635   3.900   2.244   0.205  1.1746 -1.9034  1.2603
   79MOL0     H10636   3.929   2.076   0.215  0.9158  1.9075  1.8231
   79MOL0     H10637   3.747   2.187  -0.001  0.0381  0.1239  0.3761
   79MOL0     H10638   3.778   2.020   0.038 -1.4997 -0.6391  1.0536
   79MOL0     H10639   3.651   2.226   0.227  1.7680 -0.1756  2.5846
   79MOL0     H10640   3.707   2.075   0.282 -1.4755  0.1309 -0.1063
   79MOL0     H10641   3.532   2.120   0.036  0.1226  0.5509  0.6770
   79MOL0     H10642   3.562   1.963   0.116 -0.3331 -0.0084  0.9749
   79MOL0     H10643   3.335   2.070   0.173  0.6114  0.4734 -0.0906
   79MOL0     H10644   3.420   2.196   0.243 -1.2961 -0.6768 -0.1517
   79MOL0     H10645   3.356   2.051   0.422 -0.3817  1.4252 -1.3584
   79MOL0     H10646   3.532   2.031   0.393  0.4298 -0.7590 -1.1662
   79MOL0     H10647   4.242   2.089   0.490  0.0639  0.7563  0.9170
   79MOL0     H10648   4.467   2.098   0.587 -0.6184  1.1579  0.4942
   79MOL0     H10649   4.848   2.434   0.727 -1.6077 -1.3832 -0.8651
   79MOL0     H10650   5.061   2.432   0.813 -1.0324  0.0928  0.4449
   79MOL0     H10651   6.529   2.977   0.670 -0.1512 -1.5395 -0.3130
   79MOL0     H10652   6.770   2.952   0.559 -0.4385 -0.0218 -0.1080
   79MOL0     H10653   7.020   2.530   0.570 -0.1973  0.1760 -2.5106
   79MOL0     H10654   7.221   2.437   0.450 -2.0445 -0.8294  2.0831
   79MOL0     H10655   7.561   2.724   0.373  0.3165  0.7482  2.4833
   79MOL0     H10656   7.629   2.629   0.486 -3.8207 -1.0057  3.4060
   79MOL0     H10657   7.757   2.566   0.292 -1.3042  0.1139  3.1466
   79MOL0     H10658   7.617   2.567   0.179  0.7999  0.2582 -0.9849
   79MOL0     H10659   7.525   2.359   0.292  0.5846 -0.3252 -3.3031
   79MOL0     H10660   7.660   2.363   0.412 -0.3767  2.6253  0.8713
   79MOL0     H10661   7.699   2.190   0.238 -0.8019 -0.0956 -0.0325
   79MOL0     H10662   7.819   2.309   0.233  1.0087 -0.4575 -1.0469
   79MOL0     H10663   7.638   2.338  -0.153  0.4250 -0.7240 -0.0573
   79MOL0     H10664   7.443   2.783   0.561  0.8593 -1.9217 -0.1535
   79MOL0     H10665   7.241   2.892   0.638  3.4793  0.8318 -3.0752
   80MOL0     O10666   1.225   2.371   7.029 -0.5548  0.0608  0.6002
   80MOL0     C10667   1.267   2.331   7.142 -0.1208 -0.4121  0.5204
   80MOL0     O10668   1.194   2.329   7.252 -0.6785  0.0717 -0.6351
   80MOL0     C10669   1.064   2.378   7.262  0.1990  0.1648  0.7727
   80MOL0     C10670   1.043   2.491   7.333  0.1696 -0.9952 -1.1917
   80MOL0     C10671   0.918   2.540   7.340  0.4874  0.5729 -0.2571
   80MOL0     C10672   0.807   2.477   7.283 -0.8520  0.0987  0.0110
   80MOL0     O10673   0.691   2.537   7.311 -0.1871 -0.2532  0.3042
   80MOL0     C10674   0.567   2.484   7.260  1.0319  0.5087  0.0475
   80MOL0     C10675   0.550   2.517   7.104 -1.1361  0.0680 -1.1001
   80MOL0     C10676   0.471   2.638   7.084 -0.3025 -0.2381  0.6076
   80MOL0     C10677   0.312   2.614   7.114 -0.1500  0.0931  0.2522
   80MOL0     C10678   0.229   2.742   7.077  0.1809  0.6278 -0.5369
   80MOL0     C10679   0.095   2.712   7.005  0.5006  0.2982 -0.1859
   80MOL0     C10680   0.010   2.845   6.979 -0.1516 -0.8867  0.2397
   80MOL0     C10681  -0.122   2.826   6.905 -0.8442 -0.1774  0.1995
   80MOL0     N10682  -0.233   2.784   6.998 -0.4203  0.6350 -0.1271
   80MOL0     C10683  -0.356   2.736   6.960  0.3260 -0.8537 -0.3346
   80MOL0     C10684  -0.429   2.730   7.072  0.0376  1.7608  0.2295
   80MOL0     C10685  -0.569   2.694   7.081 -0.0563 -0.0932  0.3547
   80MOL0     C10686  -0.663   2.809   7.124 -0.7836 -0.4045  0.3629
   80MOL0     C10687  -0.795   2.744   7.153  0.1470  0.2978  0.8247
   80MOL0     C10688  -0.898   2.837   7.217 -0.6415  0.1803  0.0607
   80MOL0     O10689  -0.982   2.885   7.117 -0.1050 -0.0495  0.7741
   80MOL0     C10690  -1.113   2.870   7.154  0.0465 -0.6654 -0.7692
   80MOL0     C10691  -1.183   2.955   7.245  0.7518  0.1233 -1.0583
   80MOL0     C10692  -1.326   2.946   7.265  0.7658 -0.4142  0.4798
   80MOL0     C10693  -1.384   3.043   7.361 -0.9726  0.0589 -0.3206
   80MOL0     C10694  -1.399   2.843   7.199  0.7653 -0.7918  0.9811
   80MOL0     C10695  -1.549   2.819   7.221  0.0554  0.0509  0.1385
   80MOL0     O10696  -1.618   2.910   7.291  0.1944 -0.2401 -0.0591
   80MOL0     C10697  -1.747   2.872   7.329 -0.0464 -0.0712 -0.9503
   80MOL0     C10698  -1.854   2.930   7.261  0.0627  0.1852 -0.4696
   80MOL0     C10699  -1.979   2.920   7.314  0.2691  0.8446  0.1928
   80MOL0     C10700  -2.012   2.835   7.422 -0.4881 -1.3736 -0.0454
   80MOL0     O10701  -2.140   2.818   7.466  0.1194  0.3039  0.4774
   80MOL0     C10702  -2.204   2.945   7.489  0.5723 -0.1135  0.4782
   80MOL0     C10703  -2.354   2.926   7.516 -0.2683 -0.2346  0.5529
   80MOL0     C10704  -2.397   2.890   7.658 -0.2402  0.3023  0.1705
   80MOL0     C10705  -2.544   2.850   7.647  0.0575  0.2306  0.0084
   80MOL0     C10706  -2.604   2.845   7.782 -0.8739  0.7764 -0.9093
   80MOL0     C10707  -2.757   2.794   7.788 -0.7577  0.5699 -0.7824
   80MOL0     C10708  -2.857   2.894   7.750  0.0424 -0.6115 -0.3595
   80MOL0     C10709  -2.889   2.998   7.863  0.7790 -0.9042  0.5390
   80MOL0    Cl10710  -3.068   3.050   7.868 -0.4871  0.4913  0.1133
   80MOL0     C10711  -1.914   2.774   7.488 -0.6287  0.0378 -0.2102
   80MOL0     C10712  -1.782   2.796   7.443  0.4417  0.5691 -0.4111
   80MOL0     O10713  -1.601   2.716   7.171  0.5671  0.2276  0.0893
   80MOL0     C10714  -1.329   2.765   7.108  0.2697 -0.0129  0.0183
   80MOL0     C10715  -1.188   2.778   7.088  0.5548 -0.7654  0.3919
   80MOL0     N10716  -0.346   2.747   7.176  0.6472 -0.6336 -0.0017
   80MOL0     N10717  -0.230   2.790   7.132 -0.0616  0.5630  0.5065
   80MOL0     C10718   0.826   2.356   7.207  0.2900 -0.5381 -0.9069
   80MOL0     C10719   0.954   2.307   7.200  0.1913 -0.3662  0.1022
   80MOL0     C10720   1.405   2.275   7.137  0.5374  0.4776  0.1245
   80MOL0     C10721   1.438   2.177   7.235  0.5027  0.1420  0.7780
   80MOL0     C10722   1.559   2.097   7.220 -0.2344 -0.5622 -0.9542
   80MOL0     C10723   1.652   2.134   7.117 -0.0422  0.0730  0.4421
   80MOL0     O10724   1.772   2.071   7.127  0.0284 -0.1222  0.3262
   80MOL0     C10725   1.875   2.118   7.039 -1.0087  0.0023  0.2144
   80MOL0     C10726   2.005   2.052   7.082 -0.6388  0.0839  0.0531
   80MOL0     C10727   2.119   2.095   6.989  0.2653  0.4136  0.5584
   80MOL0     C10728   2.261   2.104   7.060 -0.0775  0.1399  0.8463
   80MOL0     C10729   2.374   2.121   6.964 -1.1798  0.5847  0.8239
   80MOL0     C10730   2.475   2.151   6.900  0.7220 -0.4497  0.3013
   80MOL0     C10731   1.619   2.239   7.030 -0.0967 -0.1930  0.2766
   80MOL0     C10732   1.496   2.308   7.034 -0.3677 -0.3031 -0.0861
   80MOL0     H10733   1.127   2.543   7.378 -2.5443  1.3926  1.4899
   80MOL0     H10734   0.895   2.633   7.391 -0.1620  0.1584  0.2218
   80MOL0     H10735   0.540   2.379   7.273  0.2568  0.4697 -1.5724
   80MOL0     H10736   0.486   2.537   7.311 -1.0552  0.4430 -2.9120
   80MOL0     H10737   0.649   2.534   7.062 -1.0310  0.8991 -0.5506
   80MOL0     H10738   0.485   2.451   7.046 -0.7400 -1.1901 -0.1393
   80MOL0     H10739   0.517   2.711   7.152  2.0876 -0.2223 -0.9183
   80MOL0     H10740   0.488   2.674   6.982  0.3398  0.1874  0.8604
   80MOL0     H10741   0.273   2.534   7.051 -0.4312  0.1657  0.3312
   80MOL0     H10742   0.296   2.599   7.221  1.1852  1.8702  0.7659
   80MOL0     H10743   0.199   2.808   7.159 -2.1785 -0.4225 -0.4579
   80MOL0     H10744   0.278   2.810   7.007 -1.1967  0.4284 -1.7469
   80MOL0     H10745   0.100   2.656   6.911 -0.4430  0.2653 -0.2311
   80MOL0     H10746   0.032   2.655   7.074 -0.1658  0.8674 -0.3139
   80MOL0     H10747   0.002   2.903   7.072 -2.3661 -0.3241 -0.2454
   80MOL0     H10748   0.080   2.899   6.915  0.3668 -1.9994 -0.1616
   80MOL0     H10749  -0.103   2.745   6.834  0.1751  0.3005 -0.0782
   80MOL0     H10750  -0.144   2.924   6.864  0.2341 -0.4788 -1.1592
   80MOL0     H10751  -0.389   2.727   6.857  0.2066  0.1831 -0.4024
   80MOL0     H10752  -0.599   2.634   6.994  4.3229 -2.3489  0.1393
   80MOL0     H10753  -0.569   2.627   7.168 -2.6068  0.4869  0.8848
   80MOL0     H10754  -0.680   2.882   7.044  0.7498  0.3981  0.7212
   80MOL0     H10755  -0.618   2.857   7.211  0.0355  0.5722 -0.5598
   80MOL0     H10756  -0.780   2.659   7.221 -1.5667 -1.2798 -0.6718
   80MOL0     H10757  -0.835   2.708   7.058 -0.4646  0.8750  0.8588
   80MOL0     H10758  -0.842   2.920   7.260  1.0872 -1.4452  1.0709
   80MOL0     H10759  -0.938   2.767   7.291  1.1099 -0.1782  0.7074
   80MOL0     H10760  -1.117   3.020   7.302 -0.8713 -0.5823  1.7767
   80MOL0     H10761  -1.450   3.119   7.320 -3.0743 -1.3816  0.2334
   80MOL0     H10762  -1.438   2.978   7.430  1.8844 -1.1314  0.9797
   80MOL0     H10763  -1.298   3.085   7.416 -1.1127  1.1585 -0.9163
   80MOL0     H10764  -1.852   2.998   7.177 -0.6147  2.2155  1.0744
   80MOL0     H10765  -2.067   2.954   7.259 -1.0978  0.1272  1.8595
   80MOL0     H10766  -2.159   2.989   7.578  0.1117 -0.6176  0.9669
   80MOL0     H10767  -2.203   3.019   7.408  0.9405 -1.8706 -1.1761
   80MOL0     H10768  -2.402   3.023   7.499 -2.1087 -1.7204 -5.4973
   80MOL0     H10769  -2.388   2.853   7.441 -2.6397  2.7164 -1.4679
   80MOL0     H10770  -2.384   2.976   7.725  1.3756  1.5105 -1.5993
   80MOL0     H10771  -2.342   2.802   7.695 -1.5772 -0.3874  0.5949
   80MOL0     H10772  -2.598   2.913   7.575 -0.4338 -2.3322 -2.0221
   80MOL0     H10773  -2.548   2.754   7.596 -1.0946  0.6348 -0.7170
   80MOL0     H10774  -2.599   2.944   7.828  1.0868  0.6278 -0.7327
   80MOL0     H10775  -2.543   2.777   7.843  0.0825  0.0968 -2.5601
   80MOL0     H10776  -2.757   2.708   7.721  2.5277 -0.4057  0.3256
   80MOL0     H10777  -2.785   2.749   7.883 -0.5365 -1.0689 -1.4617
   80MOL0     H10778  -2.951   2.850   7.715 -0.5318  0.8877 -0.7409
   80MOL0     H10779  -2.812   2.946   7.665  0.2134  1.6343  1.0490
   80MOL0     H10780  -2.823   3.085   7.855  5.1145 -3.8542  0.7051
   80MOL0     H10781  -2.886   2.947   7.960 -3.1747 -0.4629  1.0537
   80MOL0     H10782  -1.933   2.716   7.578  1.2487  2.9726  2.3005
   80MOL0     H10783  -1.704   2.753   7.505  1.1159 -0.9106 -2.1670
   80MOL0     H10784  -1.389   2.691   7.057 -0.3003 -1.4697  2.6206
   80MOL0     H10785  -1.135   2.724   7.011  1.0622  1.5618 -1.0111
   80MOL0     H10786   0.737   2.316   7.159 -2.5252  4.4933 -0.5884
   80MOL0     H10787   0.966   2.218   7.139  2.2649  1.6008 -2.6843
   80MOL0     H10788   1.368   2.143   7.310  2.2409 -2.9340  1.1797
   80MOL0     H10789   1.595   2.035   7.301 -0.9292  0.0996 -0.1169
   80MOL0     H10790   1.859   2.110   6.931 -0.0675  0.1863  0.0529
   80MOL0     H10791   1.899   2.222   7.062  0.7981 -0.4987  0.7037
   80MOL0     H10792   1.991   1.944   7.073 -1.8581  0.1561  0.8912
   80MOL0     H10793   2.042   2.067   7.183 -0.4578  1.6607 -0.2186
   80MOL0     H10794   2.088   2.191   6.945 -2.6715 -0.3461  0.7468
   80MOL0     H10795   2.117   2.028   6.903 -1.1850  0.4194  0.5572
   80MOL0     H10796   2.278   2.012   7.117  2.3780  0.8492  1.3823
   80MOL0     H10797   2.260   2.188   7.130 -0.8828  1.3470 -0.5561
   80MOL0     H10798   2.555   2.178   6.834  0.5613 -0.4605  0.1030
   80MOL0     H10799   1.681   2.272   6.947  1.3100  1.7160  1.9771
   80MOL0     H10800   1.472   2.383   6.959  4.6051  2.1272  0.3462
   81MOL0     O10801   7.035   6.810   4.826  0.8818  0.1008 -0.2639
   81MOL0     C10802   7.130   6.742   4.807 -0.0533  0.2945  0.8155
   81MOL0     O10803   7.135   6.624   4.735  0.3048  0.1305 -0.5824
   81MOL0     C10804   7.032   6.586   4.653  0.1747  0.0003  0.2654
   81MOL0     C10805   6.957   6.674   4.568 -0.8081 -0.3179  0.0320
   81MOL0     C10806   6.857   6.625   4.484  0.5092 -0.3728  0.3969
   81MOL0     C10807   6.839   6.494   4.474  0.1120  1.2884 -0.8873
   81MOL0     O10808   6.744   6.431   4.391  0.2198 -0.0322 -0.6925
   81MOL0     C10809   6.696   6.500   4.278 -0.2468 -0.4058  0.1421
   81MOL0     C10810   6.556   6.564   4.290  0.1967  0.1812 -0.8150
   81MOL0     C10811   6.455   6.455   4.297  0.6262 -0.4556  0.1703
   81MOL0     C10812   6.326   6.507   4.353 -0.3631  0.0759  0.2729
   81MOL0     C10813   6.241   6.380   4.370  0.1887  0.3829 -0.3404
   81MOL0     C10814   6.101   6.424   4.423  0.0176  0.1852  0.6464
   81MOL0     C10815   6.020   6.284   4.439 -0.3380  0.5891  0.2465
   81MOL0     C10816   5.973   6.221   4.310  0.0928 -1.1968  0.2747
   81MOL0     N10817   5.902   6.314   4.213  1.0540 -0.1079 -0.4479
   81MOL0     C10818   5.950   6.368   4.092 -0.0975 -0.4557 -0.2476
   81MOL0     C10819   5.839   6.403   4.019 -0.2909 -0.3496  0.3632
   81MOL0     C10820   5.837   6.429   3.874  0.0118  0.5457  0.3811
   81MOL0     C10821   5.694   6.431   3.812  0.1624  0.3311 -0.5222
   81MOL0     C10822   5.609   6.547   3.863 -0.3344 -0.1035 -0.0909
   81MOL0     C10823   5.514   6.610   3.754  0.9517  0.7573 -0.2554
   81MOL0     O10824   5.448   6.729   3.802 -0.8849  0.0580  0.4846
   81MOL0     C10825   5.315   6.725   3.798 -0.1844  0.2254  0.4234
   81MOL0     C10826   5.261   6.798   3.901 -0.0622  0.5097  0.0585
   81MOL0     C10827   5.120   6.803   3.927  0.5342  0.2362  0.9499
   81MOL0     C10828   5.068   6.900   4.029  0.3368  0.2985  0.0281
   81MOL0     C10829   5.034   6.714   3.845 -0.1474  1.0453  0.0790
   81MOL0     C10830   4.888   6.692   3.874 -0.3806  1.5413 -0.2720
   81MOL0     O10831   4.823   6.618   3.783  0.0146  0.1700  0.8817
   81MOL0     C10832   4.698   6.561   3.808 -0.0534 -0.5368  0.1972
   81MOL0     C10833   4.583   6.649   3.836 -0.3665 -0.4860 -0.2762
   81MOL0     C10834   4.455   6.600   3.866 -0.2633  0.3752 -0.4536
   81MOL0     C10835   4.434   6.461   3.868 -0.1188 -0.7245  0.4932
   81MOL0     O10836   4.318   6.410   3.913  0.1642 -0.2813  0.1129
   81MOL0     C10837   4.238   6.353   3.809 -0.7400 -0.9950  0.8027
   81MOL0     C10838   4.112   6.282   3.868 -1.1523 -0.8857  0.2167
   81MOL0     C10839   3.989   6.274   3.779 -0.4279  0.5936 -0.5085
   81MOL0     C10840   3.884   6.182   3.847  0.4896  0.0360  0.4035
   81MOL0     C10841   3.765   6.157   3.754  0.0770 -0.7491  0.0525
   81MOL0     C10842   3.672   6.054   3.801  0.4479  0.0778 -0.7437
   81MOL0     C10843   3.537   6.053   3.726  0.6683  0.5295 -0.1007
   81MOL0     C10844   3.422   5.989   3.817  0.1308 -0.0383 -0.0047
   81MOL0    Cl10845   3.259   5.996   3.719  0.3076 -0.0383  0.3372
   81MOL0     C10846   4.535   6.385   3.835 -0.6405  0.9645 -0.9154
   81MOL0     C10847   4.670   6.425   3.802 -0.1507 -0.1010  0.1640
   81MOL0     O10848   4.833   6.735   3.980 -0.6281  1.0048  0.1752
   81MOL0     C10849   5.091   6.649   3.738 -0.1904 -0.3085 -0.2060
   81MOL0     C10850   5.227   6.652   3.710  0.7553  0.1368 -0.0933
   81MOL0     N10851   5.736   6.359   4.088 -0.8702 -0.1455 -0.1912
   81MOL0     N10852   5.766   6.324   4.208  0.3168 -0.0082 -0.3199
   81MOL0     C10853   6.909   6.406   4.558 -0.4137 -0.0979 -0.4788
   81MOL0     C10854   7.003   6.449   4.644  0.0031  0.0106  0.8829
   81MOL0     C10855   7.266   6.794   4.841 -0.3882  0.3869  0.2952
   81MOL0     C10856   7.383   6.710   4.821 -0.5520 -0.0237  0.8510
   81MOL0     C10857   7.509   6.769   4.839  0.9223  0.0486  0.2997
   81MOL0     C10858   7.526   6.906   4.863  0.5261  0.8408 -0.0141
   81MOL0     O10859   7.648   6.968   4.873 -0.1794 -0.0473 -0.4054
   81MOL0     C10860   7.764   6.878   4.876 -0.1407  0.6590  0.3247
   81MOL0     C10861   7.881   6.943   4.960  0.6007 -0.4411 -0.4114
   81MOL0     C10862   7.847   6.935   5.109  0.0705  0.6247 -1.2262
   81MOL0     C10863   7.962   6.950   5.198  0.6401  0.4051  0.3887
   81MOL0     C10864   8.033   7.078   5.170 -0.4539  0.5064 -0.3227
   81MOL0     C10865   8.095   7.183   5.143  0.4051  0.1161  0.0990
   81MOL0     C10866   7.411   6.984   4.871  0.1555 -0.4507  0.4330
   81MOL0     C10867   7.290   6.934   4.847 -0.1311  0.2316  0.8961
   81MOL0     H10868   6.972   6.782   4.568 -1.5837 -0.0757 -3.8765
   81MOL0     H10869   6.792   6.689   4.424  2.4001  1.3605  0.0746
   81MOL0     H10870   6.764   6.571   4.230  0.7741 -0.4205  1.5001
   81MOL0     H10871   6.679   6.438   4.189 -2.8669  1.4178 -0.7494
   81MOL0     H10872   6.554   6.628   4.379  0.5808  0.0758 -0.7270
   81MOL0     H10873   6.528   6.629   4.207  0.5982  0.3466 -0.8258
   81MOL0     H10874   6.439   6.413   4.197 -0.6066 -0.2567  0.2674
   81MOL0     H10875   6.495   6.377   4.363  2.2066 -2.2311 -2.6558
   81MOL0     H10876   6.342   6.550   4.452 -0.9649  0.0816  0.3718
   81MOL0     H10877   6.285   6.588   4.292  1.7195  0.4195 -0.7501
   81MOL0     H10878   6.227   6.331   4.274  0.3479 -2.0526  0.8045
   81MOL0     H10879   6.294   6.311   4.436  0.7719 -1.5576 -2.7352
   81MOL0     H10880   6.111   6.477   4.518  0.3781 -0.5827  1.0442
   81MOL0     H10881   6.049   6.497   4.360 -0.7445  1.8489  3.0448
   81MOL0     H10882   6.075   6.201   4.485  1.2344  0.6120 -1.4798
   81MOL0     H10883   5.924   6.301   4.489  0.9703  2.1707  2.3806
   81MOL0     H10884   5.894   6.149   4.331 -2.6686  0.7294 -2.6645
   81MOL0     H10885   6.050   6.169   4.251 -0.9967  0.8404 -3.2557
   81MOL0     H10886   6.051   6.360   4.053  1.0552  2.1739  1.8748
   81MOL0     H10887   5.894   6.520   3.851  1.6452 -1.2076 -3.2184
   81MOL0     H10888   5.895   6.350   3.826 -0.0355  0.4395  0.5015
   81MOL0     H10889   5.638   6.340   3.834  0.4043  0.9097  3.0205
   81MOL0     H10890   5.720   6.444   3.706  2.0355 -2.9835 -0.6053
   81MOL0     H10891   5.684   6.623   3.887 -0.1164 -0.8067  1.6045
   81MOL0     H10892   5.550   6.510   3.948 -0.4757 -0.6269 -0.4155
   81MOL0     H10893   5.443   6.532   3.727  2.2445 -1.5940  2.5182
   81MOL0     H10894   5.578   6.644   3.673  1.5352  1.3007  0.4176
   81MOL0     H10895   5.323   6.861   3.964  1.1261 -0.7320  0.1922
   81MOL0     H10896   4.965   6.926   4.005  0.0248 -1.9201 -1.4183
   81MOL0     H10897   5.085   6.858   4.128 -0.4593  4.0249  1.9056
   81MOL0     H10898   5.125   6.993   4.033  0.3648  0.2822  0.0186
   81MOL0     H10899   4.604   6.756   3.841  2.1402 -0.9740  3.2475
   81MOL0     H10900   4.378   6.670   3.897  0.1151  1.0869 -1.0915
   81MOL0     H10901   4.184   6.432   3.756 -1.5101  0.5841  3.7070
   81MOL0     H10902   4.295   6.287   3.743  0.6780  0.9290 -0.0196
   81MOL0     H10903   4.142   6.196   3.928  0.1654  0.7554  2.0789
   81MOL0     H10904   4.077   6.354   3.943  0.2866 -2.2254  2.2883
   81MOL0     H10905   4.013   6.231   3.681  1.7053 -0.5845  0.4454
   81MOL0     H10906   3.953   6.378   3.780  1.8716  1.4454  0.0578
   81MOL0     H10907   3.926   6.084   3.870 -0.0295 -0.3001 -0.0855
   81MOL0     H10908   3.840   6.212   3.942 -0.5288 -2.9012  0.9505
   81MOL0     H10909   3.806   6.140   3.654  0.0095  0.0909 -0.1288
   81MOL0     H10910   3.704   6.245   3.732 -0.9212 -2.1604 -3.7331
   81MOL0     H10911   3.713   5.953   3.796  0.4355  0.0748 -0.7943
   81MOL0     H10912   3.650   6.084   3.904 -2.7734  0.6561 -1.4830
   81MOL0     H10913   3.547   5.997   3.633 -1.4751 -2.0195  1.0759
   81MOL0     H10914   3.517   6.158   3.702 -0.9066  0.0295 -1.1320
   81MOL0     H10915   3.422   6.066   3.895  0.3688 -1.1464  1.1267
   81MOL0     H10916   3.443   5.889   3.857 -0.6520 -0.2839 -0.1849
   81MOL0     H10917   4.535   6.276   3.843  1.0836  0.7460 -2.9077
   81MOL0     H10918   4.747   6.354   3.773 -0.0046 -0.0673  0.4685
   81MOL0     H10919   5.028   6.579   3.685 -1.7946  1.9147 -1.4167
   81MOL0     H10920   5.265   6.605   3.620  1.1672  2.5671 -1.2553
   81MOL0     H10921   6.892   6.300   4.543  0.9352 -0.0867 -2.5556
   81MOL0     H10922   7.067   6.379   4.696 -0.2327 -0.2349  0.8404
   81MOL0     H10923   7.368   6.603   4.823 -1.3385  0.0833  2.1476
   81MOL0     H10924   7.586   6.694   4.830  0.4409 -0.2158 -2.2204
   81MOL0     H10925   7.743   6.780   4.919 -3.3336  0.3232 -1.6452
   81MOL0     H10926   7.800   6.871   4.772 -0.1468  1.6212  0.2480
   81MOL0     H10927   7.898   7.048   4.938  2.2639 -0.5488  0.2369
   81MOL0     H10928   7.972   6.890   4.928 -0.8160 -2.0694 -1.9946
   81MOL0     H10929   7.804   6.837   5.133  3.2806 -0.5971  0.1350
   81MOL0     H10930   7.769   7.009   5.132 -1.3204 -1.0284 -0.3846
   81MOL0     H10931   8.029   6.865   5.179 -0.0525 -0.3380  1.1947
   81MOL0     H10932   7.925   6.953   5.301 -1.7048 -0.6879 -0.3490
   81MOL0     H10933   8.147   7.273   5.122 -1.1139  1.9100  3.2627
   81MOL0     H10934   7.415   7.091   4.889 -1.6465 -0.3004  0.1078
   81MOL0     H10935   7.206   7.001   4.862  1.3483  2.0272  1.6727
   82MOL0     O10936   8.349   1.011   8.094  0.4502 -0.3426 -0.1462
   82MOL0     C10937   8.390   1.111   8.148  0.1195 -0.5225  0.4125
   82MOL0     O10938   8.332   1.181   8.249  0.2414 -0.5286  0.0592
   82MOL0     C10939   8.211   1.136   8.296  0.3585  0.5604 -0.2058
   82MOL0     C10940   8.101   1.222   8.272 -0.8444  0.1054  1.4436
   82MOL0     C10941   7.967   1.192   8.295 -0.1173 -1.0642 -0.3229
   82MOL0     C10942   7.931   1.078   8.357  0.6716 -1.1583 -0.0611
   82MOL0     O10943   7.803   1.035   8.384 -0.4345 -0.4407  0.1106
   82MOL0     C10944   7.688   1.111   8.347  0.5791 -0.3815 -0.2354
   82MOL0     C10945   7.650   1.094   8.199  0.4704 -0.5559 -0.3579
   82MOL0     C10946   7.525   1.177   8.154  0.8891 -0.7268 -0.6146
   82MOL0     C10947   7.405   1.139   8.238 -0.4477 -0.3690  0.7543
   82MOL0     C10948   7.278   1.226   8.206 -0.5303  1.1496 -0.3996
   82MOL0     C10949   7.166   1.189   8.301  0.0938  0.6320  0.5541
   82MOL0     C10950   7.036   1.270   8.281 -0.1075 -0.6667  0.3640
   82MOL0     C10951   6.915   1.183   8.310  0.7871  0.1734  0.0118
   82MOL0     N10952   6.788   1.248   8.279 -0.2752  1.2364  1.2712
   82MOL0     C10953   6.745   1.283   8.154 -0.0549  0.4043  0.1323
   82MOL0     C10954   6.632   1.360   8.179 -0.7490 -0.9190  0.4454
   82MOL0     C10955   6.541   1.408   8.074  0.2925 -0.1962 -0.0858
   82MOL0     C10956   6.389   1.377   8.100 -0.0155 -0.2562  1.0951
   82MOL0     C10957   6.311   1.471   8.002 -0.1731 -0.8419  0.6267
   82MOL0     C10958   6.166   1.463   8.031  0.0528  0.0143  0.1075
   82MOL0     O10959   6.130   1.526   8.152  0.4479 -0.4229 -0.5665
   82MOL0     C10960   5.997   1.518   8.192  0.3192 -0.3520 -0.2710
   82MOL0     C10961   5.971   1.579   8.318 -0.3424  0.2771  0.6347
   82MOL0     C10962   5.842   1.595   8.365  0.5259 -0.2495  0.8944
   82MOL0     C10963   5.822   1.671   8.495  0.6651  0.4852  0.5262
   82MOL0     C10964   5.735   1.547   8.287  0.2724 -0.6064  0.0686
   82MOL0     C10965   5.589   1.571   8.330 -0.2973  0.2236  0.0876
   82MOL0     O10966   5.547   1.546   8.460 -0.5219 -0.0055  0.1550
   82MOL0     C10967   5.417   1.578   8.485 -0.6484 -0.1173  0.5361
   82MOL0     C10968   5.339   1.495   8.565  0.0119  0.5930  0.4067
   82MOL0     C10969   5.206   1.530   8.593  0.2927 -0.4212 -1.3042
   82MOL0     C10970   5.154   1.647   8.541  0.4731 -0.1957  0.6224
   82MOL0     O10971   5.017   1.666   8.562 -0.5034  0.4080  0.0198
   82MOL0     C10972   4.949   1.744   8.470 -0.0846 -0.5167 -0.6191
   82MOL0     C10973   4.940   1.689   8.325  0.5022 -0.0503 -0.0200
   82MOL0     C10974   4.794   1.683   8.275  0.5523 -1.1152 -0.3805
   82MOL0     C10975   4.793   1.604   8.142 -0.4861 -0.9105 -0.1141
   82MOL0     C10976   4.658   1.611   8.056  0.4326  1.2807 -0.3100
   82MOL0     C10977   4.546   1.515   8.118  0.4188  0.7157  0.3359
   82MOL0     C10978   4.459   1.449   8.016 -0.3404  0.1777 -0.3700
   82MOL0     C10979   4.404   1.524   7.886 -0.1917 -0.5091 -0.5127
   82MOL0    Cl10980   4.294   1.638   7.959 -0.0241 -0.1298  0.3325
   82MOL0     C10981   5.237   1.741   8.475 -0.2215 -0.0036  0.2580
   82MOL0     C10982   5.368   1.709   8.456  0.7384  0.6461  0.9649
   82MOL0     O10983   5.520   1.592   8.233 -0.2841  0.7358 -0.0439
   82MOL0     C10984   5.767   1.490   8.155  0.0045  0.3779 -0.6545
   82MOL0     C10985   5.893   1.483   8.106 -0.2035  0.3010  0.2221
   82MOL0     N10986   6.619   1.374   8.316  0.8916 -1.2178  0.0243
   82MOL0     N10987   6.720   1.313   8.370  0.1465 -0.5309  0.0982
   82MOL0     C10988   8.034   0.982   8.381  0.9052 -1.0146  0.1945
   82MOL0     C10989   8.170   1.011   8.358 -0.4035 -0.7893 -0.2657
   82MOL0     C10990   8.519   1.155   8.095 -0.2172  0.0915 -0.2550
   82MOL0     C10991   8.594   1.254   8.172 -0.4818  0.3187 -0.0354
   82MOL0     C10992   8.722   1.295   8.125 -0.3752  0.1143  1.0022
   82MOL0     C10993   8.772   1.253   7.996 -0.7416 -0.5377  1.1055
   82MOL0     O10994   8.892   1.287   7.948 -0.1574 -1.5411 -0.1391
   82MOL0     C10995   8.940   1.425   7.944  0.1511 -0.2264 -0.0949
   82MOL0     C10996   9.040   1.432   7.831  0.0455 -1.0241 -0.3509
   82MOL0     C10997   9.158   1.330   7.849 -0.1970 -0.0918 -0.5192
   82MOL0     C10998   9.272   1.385   7.766 -0.8735  0.2108 -0.2614
   82MOL0     C10999   9.394   1.308   7.767  0.0127  0.1296  0.3113
   82MOL0     C11000   9.482   1.228   7.766  0.4983  0.3946  0.7499
   82MOL0     C11001   8.698   1.164   7.919  0.3364  0.1029 -0.2875
   82MOL0     C11002   8.574   1.116   7.973  0.3198  0.9572  0.3140
   82MOL0     H11003   8.137   1.314   8.226  1.4349 -1.3725  0.0726
   82MOL0     H11004   7.891   1.263   8.263 -2.3572 -3.4762 -0.7042
   82MOL0     H11005   7.617   1.073   8.422  0.7150  0.9222  0.5839
   82MOL0     H11006   7.715   1.214   8.370  0.6607 -0.4434 -0.0510
   82MOL0     H11007   7.735   1.122   8.136  0.4837 -1.4325 -0.7364
   82MOL0     H11008   7.629   0.988   8.187  0.7385 -0.7150  0.4545
   82MOL0     H11009   7.539   1.285   8.159 -0.6579 -0.5686  2.2840
   82MOL0     H11010   7.514   1.149   8.048 -0.0099 -1.4971 -0.3313
   82MOL0     H11011   7.391   1.031   8.240 -1.0351 -0.2956  1.0360
   82MOL0     H11012   7.426   1.174   8.340  0.4578  0.3874  0.3176
   82MOL0     H11013   7.296   1.333   8.218  0.5909  0.6840  3.8037
   82MOL0     H11014   7.243   1.211   8.104 -1.9701  1.9131 -0.0472
   82MOL0     H11015   7.156   1.084   8.273  0.8226  0.8410 -0.5455
   82MOL0     H11016   7.198   1.203   8.404 -1.1229 -1.8390  1.3548
   82MOL0     H11017   7.036   1.359   8.344  1.5737 -1.3194  1.3699
   82MOL0     H11018   7.037   1.309   8.179  5.1190 -2.6638 -0.6684
   82MOL0     H11019   6.933   1.164   8.416  3.8503  1.8671 -0.0688
   82MOL0     H11020   6.927   1.095   8.246  0.9971  0.7025 -0.6910
   82MOL0     H11021   6.789   1.248   8.061  2.5023 -0.7270  1.6500
   82MOL0     H11022   6.558   1.516   8.078 -0.9158  0.0797 -1.4398
   82MOL0     H11023   6.581   1.370   7.979  0.8121 -2.9521  1.1266
   82MOL0     H11024   6.365   1.400   8.205 -3.0062  0.2446  0.3900
   82MOL0     H11025   6.364   1.272   8.086 -0.5193  0.0676 -0.6915
   82MOL0     H11026   6.337   1.455   7.897 -0.3391 -1.5938  0.6958
   82MOL0     H11027   6.339   1.573   8.032  1.6086 -1.5883  1.6789
   82MOL0     H11028   6.133   1.359   8.024 -1.4839  0.5480 -1.1163
   82MOL0     H11029   6.113   1.511   7.949 -2.4045 -1.1376  0.9234
   82MOL0     H11030   6.051   1.611   8.384 -0.3454  0.5479  0.5055
   82MOL0     H11031   5.797   1.596   8.569  0.9939  0.7071  0.8657
   82MOL0     H11032   5.910   1.732   8.515  1.4294  2.0348 -5.5391
   82MOL0     H11033   5.736   1.738   8.480 -1.0068 -1.5699  0.4385
   82MOL0     H11034   5.370   1.402   8.612  1.0997 -0.2696 -1.8805
   82MOL0     H11035   5.136   1.470   8.650 -0.7297  0.0282 -2.0636
   82MOL0     H11036   4.844   1.755   8.500 -0.2600 -0.1137 -1.3478
   82MOL0     H11037   4.997   1.842   8.467  3.0848 -1.9839 -2.6865
   82MOL0     H11038   5.000   1.746   8.254  0.1171 -1.2629 -1.3824
   82MOL0     H11039   4.969   1.584   8.316 -0.3718 -0.3031 -0.0442
   82MOL0     H11040   4.766   1.787   8.255  0.7556 -1.1940 -1.0836
   82MOL0     H11041   4.722   1.652   8.351 -1.5889 -0.2119 -1.9327
   82MOL0     H11042   4.867   1.654   8.078 -1.5840  0.6657 -0.2128
   82MOL0     H11043   4.826   1.501   8.158  1.8817 -0.1244  0.4756
   82MOL0     H11044   4.673   1.592   7.949 -1.6533 -3.3650 -0.0155
   82MOL0     H11045   4.623   1.714   8.065 -1.5791  0.5460  1.0381
   82MOL0     H11046   4.605   1.443   8.176 -0.7492 -0.8346 -0.3293
   82MOL0     H11047   4.483   1.567   8.190  0.2694  0.6757  0.2358
   82MOL0     H11048   4.373   1.395   8.055 -1.4593 -0.9336 -3.9693
   82MOL0     H11049   4.512   1.362   7.977 -1.4732 -0.1636 -1.2142
   82MOL0     H11050   4.348   1.454   7.822 -0.1467 -1.8090  0.8016
   82MOL0     H11051   4.483   1.581   7.836 -0.6832 -0.1060 -0.8436
   82MOL0     H11052   5.192   1.831   8.435  0.5155 -0.1094 -0.8425
   82MOL0     H11053   5.427   1.789   8.411  0.5116  0.1442 -0.2616
   82MOL0     H11054   5.691   1.454   8.087 -1.0304  0.3523  0.4741
   82MOL0     H11055   5.911   1.438   8.009  1.3507  1.2445  0.0331
   82MOL0     H11056   8.011   0.878   8.402  1.3747 -1.1877 -0.1484
   82MOL0     H11057   8.244   0.936   8.384  2.0656  2.4288  3.1355
   82MOL0     H11058   8.569   1.290   8.271  4.1875  2.3900  0.6775
   82MOL0     H11059   8.787   1.345   8.195  0.9196 -0.5378  0.3080
   82MOL0     H11060   8.856   1.494   7.935 -1.6749 -2.3454 -0.0069
   82MOL0     H11061   8.983   1.463   8.038  0.2205  0.5214 -0.4263
   82MOL0     H11062   9.064   1.536   7.808  0.5483 -0.8826  0.7443
   82MOL0     H11063   8.992   1.395   7.740  2.1491 -0.9803 -1.5299
   82MOL0     H11064   9.123   1.232   7.817 -0.0468  0.6075 -3.0583
   82MOL0     H11065   9.192   1.316   7.952 -1.5800  0.0426 -0.0195
   82MOL0     H11066   9.296   1.486   7.803  0.1608  0.0308 -0.4104
   82MOL0     H11067   9.232   1.385   7.665 -1.9908  1.2372  0.1560
   82MOL0     H11068   9.574   1.172   7.767  0.2044 -0.3622 -2.7498
   82MOL0     H11069   8.744   1.134   7.826 -0.6406  0.2499 -0.8214
   82MOL0     H11070   8.523   1.045   7.909 -0.5422 -0.5260  2.5222
   83MOL0     O11071   0.428   3.049   9.033  0.4929 -0.7788  0.2125
   83MOL0     C11072   0.444   3.163   9.082  0.0888  0.2008  0.3000
   83MOL0     O11073   0.345   3.242   9.136 -0.2745 -0.1396 -1.0021
   83MOL0     C11074   0.225   3.193   9.153  0.1010 -0.1950 -0.0807
   83MOL0     C11075   0.195   3.061   9.202 -0.5535 -0.3221  0.0793
   83MOL0     C11076   0.063   3.024   9.213  0.2755 -0.5628  0.1857
   83MOL0     C11077  -0.046   3.108   9.189 -0.2294  0.0430 -0.2815
   83MOL0     O11078  -0.177   3.079   9.211  0.5190  0.1866 -0.1037
   83MOL0     C11079  -0.210   2.943   9.253 -0.2326  0.2316  0.3273
   83MOL0     C11080  -0.359   2.948   9.283  0.6121 -0.1510  0.5468
   83MOL0     C11081  -0.421   2.819   9.228 -1.1056  0.4805 -0.8656
   83MOL0     C11082  -0.568   2.809   9.264  0.1358  0.5273  0.9641
   83MOL0     C11083  -0.614   2.671   9.215  1.0705  0.2952 -0.1087
   83MOL0     C11084  -0.756   2.621   9.268 -0.0025  0.0986 -0.1224
   83MOL0     C11085  -0.797   2.484   9.220 -0.5803 -0.3912  1.0336
   83MOL0     C11086  -0.939   2.438   9.274  0.8534 -0.6264 -0.0860
   83MOL0     N11087  -0.981   2.323   9.208 -0.0764  0.8546  0.4007
   83MOL0     C11088  -1.018   2.304   9.076  0.4083 -0.2317 -0.0096
   83MOL0     C11089  -1.019   2.175   9.047 -0.2306 -0.2037  0.6300
   83MOL0     C11090  -1.075   2.111   8.925  1.0869  0.2085 -0.0126
   83MOL0     C11091  -1.180   1.998   8.953  0.0317  0.3778  0.3052
   83MOL0     C11092  -1.169   1.879   8.851  0.8012 -1.2374 -0.1999
   83MOL0     C11093  -1.295   1.787   8.842  0.1836 -0.0954 -0.1612
   83MOL0     O11094  -1.319   1.713   8.960  0.2119  0.7279 -0.5216
   83MOL0     C11095  -1.443   1.692   9.003  0.2241  0.0971 -0.2761
   83MOL0     C11096  -1.566   1.736   8.941 -0.3374  0.7953 -0.1381
   83MOL0     C11097  -1.692   1.709   9.001  0.1921  0.9524 -0.3320
   83MOL0     C11098  -1.813   1.776   8.933  0.4025  0.9051  0.0256
   83MOL0     C11099  -1.711   1.635   9.122 -0.3580  0.4638 -0.2786
   83MOL0     C11100  -1.840   1.618   9.197 -0.2829 -0.2472 -0.3184
   83MOL0     O11101  -1.829   1.542   9.310  0.1320 -0.5122  0.5188
   83MOL0     C11102  -1.946   1.515   9.372 -0.1172 -0.0451  0.3398
   83MOL0     C11103  -1.987   1.597   9.477 -0.0519 -1.3279 -0.4666
   83MOL0     C11104  -2.109   1.591   9.537  1.1354 -0.6603 -0.0749
   83MOL0     C11105  -2.197   1.482   9.507  0.1499 -0.1160  0.7080
   83MOL0     O11106  -2.324   1.475   9.556 -0.0742  0.1882 -0.4750
   83MOL0     C11107  -2.319   1.469   9.701 -0.0668 -0.3582  0.5586
   83MOL0     C11108  -2.221   1.360   9.753 -0.4705 -0.3293  0.4938
   83MOL0     C11109  -2.274   1.226   9.730 -0.0854  0.3535  0.1769
   83MOL0     C11110  -2.180   1.114   9.783  0.0342  0.5294 -0.3108
   83MOL0     C11111  -2.259   0.981   9.774  0.3244  0.8066  0.7923
   83MOL0     C11112  -2.169   0.874   9.809 -0.2112 -0.0206  0.8285
   83MOL0     C11113  -2.226   0.729   9.789 -0.7907 -0.6363 -0.0540
   83MOL0     C11114  -2.375   0.703   9.845 -0.3304 -0.5416  1.3359
   83MOL0    Cl11115  -2.405   0.527   9.865 -0.0671 -0.0012  0.1621
   83MOL0     C11116  -2.158   1.400   9.404 -0.0094  0.0239  0.1733
   83MOL0     C11117  -2.039   1.419   9.335  0.6088 -0.8602 -0.2429
   83MOL0     O11118  -1.937   1.687   9.171  0.3478 -0.0882  0.2471
   83MOL0     C11119  -1.589   1.581   9.165 -0.2119 -0.3617 -0.4701
   83MOL0     C11120  -1.463   1.610   9.109  1.0419  0.2349  0.3384
   83MOL0     N11121  -0.976   2.116   9.167  0.3634  0.0443 -0.4127
   83MOL0     N11122  -0.958   2.203   9.263  0.3326 -0.0566  0.6652
   83MOL0     C11123  -0.010   3.240   9.153  0.6037 -0.5345  0.1374
   83MOL0     C11124   0.115   3.276   9.133  0.5265 -0.3938 -0.7700
   83MOL0     C11125   0.572   3.218   9.078 -0.6485  0.3723  0.8033
   83MOL0     C11126   0.599   3.336   9.154  0.1244  0.7978 -0.6104
   83MOL0     C11127   0.735   3.383   9.171  0.4699 -0.4721 -0.5029
   83MOL0     C11128   0.833   3.320   9.106 -0.2734 -0.3936  0.9437
   83MOL0     O11129   0.966   3.356   9.100  0.1770  0.2166  0.1754
   83MOL0     C11130   1.021   3.440   9.200  0.0291  0.1855  0.3804
   83MOL0     C11131   1.172   3.452   9.157  0.5627 -0.0138 -0.1176
   83MOL0     C11132   1.262   3.524   9.265 -0.0710  0.2964 -0.3006
   83MOL0     C11133   1.407   3.518   9.218 -0.6557  0.1503  0.8466
   83MOL0     C11134   1.507   3.559   9.312  0.4345  0.2883  0.3830
   83MOL0     C11135   1.590   3.596   9.396  0.0417 -0.3566 -0.6473
   83MOL0     C11136   0.805   3.209   9.034  0.5632 -0.2130  0.1124
   83MOL0     C11137   0.684   3.155   9.018  0.2305 -0.0348 -0.1337
   83MOL0     H11138   0.281   2.999   9.227 -1.2328 -0.4113  2.4695
   83MOL0     H11139   0.046   2.920   9.239  0.6312 -0.5883  0.3248
   83MOL0     H11140  -0.194   2.875   9.169  0.3624  0.4748  0.2388
   83MOL0     H11141  -0.158   2.914   9.344 -1.2757 -1.1112  0.5303
   83MOL0     H11142  -0.372   2.969   9.390 -2.2804  2.3053 -0.1742
   83MOL0     H11143  -0.399   3.034   9.230 -0.2298  1.3725  3.4298
   83MOL0     H11144  -0.413   2.810   9.120  3.8039 -0.1708 -0.6710
   83MOL0     H11145  -0.366   2.737   9.276 -1.9969  0.5251  0.2768
   83MOL0     H11146  -0.578   2.825   9.372 -0.6130  1.1488  0.8033
   83MOL0     H11147  -0.625   2.890   9.219  1.7504  0.0595 -2.2454
   83MOL0     H11148  -0.615   2.681   9.106  1.7406 -1.8841 -0.3659
   83MOL0     H11149  -0.543   2.590   9.233 -1.8573 -3.7388 -4.2177
   83MOL0     H11150  -0.744   2.614   9.377  4.3298  0.4983 -0.3661
   83MOL0     H11151  -0.832   2.694   9.240 -0.1869 -0.0050  0.1097
   83MOL0     H11152  -0.794   2.496   9.112  2.8657 -0.6271  1.0068
   83MOL0     H11153  -0.723   2.404   9.232  0.0334 -0.0848 -0.4757
   83MOL0     H11154  -1.014   2.509   9.239  0.0779 -2.1579 -1.6769
   83MOL0     H11155  -0.950   2.427   9.382  0.1745 -1.8769 -0.2649
   83MOL0     H11156  -1.050   2.378   9.002  2.7709 -0.3709 -1.2485
   83MOL0     H11157  -1.113   2.175   8.844  0.9391  0.1319 -0.0030
   83MOL0     H11158  -0.994   2.057   8.876  2.3868  0.9224  1.2878
   83MOL0     H11159  -1.278   2.047   8.947 -1.0490 -1.6285  0.6483
   83MOL0     H11160  -1.162   1.962   9.054 -0.7677  3.9602  1.8942
   83MOL0     H11161  -1.085   1.819   8.887  1.4188  0.6582  1.7908
   83MOL0     H11162  -1.133   1.910   8.753  0.3664 -1.3684 -0.4034
   83MOL0     H11163  -1.284   1.710   8.764  0.7734  0.3025 -0.4813
   83MOL0     H11164  -1.377   1.855   8.818  0.5601 -0.0814 -1.5355
   83MOL0     H11165  -1.562   1.778   8.841  2.2572  1.1980  0.0689
   83MOL0     H11166  -1.855   1.851   9.001 -1.5850  0.2596 -0.4404
   83MOL0     H11167  -1.779   1.817   8.838  4.2369  1.9668  1.6526
   83MOL0     H11168  -1.898   1.710   8.913  1.7083 -1.5497  2.0010
   83MOL0     H11169  -1.921   1.678   9.508 -0.8499 -1.4553  1.7502
   83MOL0     H11170  -2.138   1.671   9.604 -0.2228  0.4434 -1.8800
   83MOL0     H11171  -2.303   1.572   9.734 -1.6082 -0.2140  0.9497
   83MOL0     H11172  -2.422   1.440   9.727 -0.0706  0.7525  1.8755
   83MOL0     H11173  -2.117   1.367   9.720 -0.4323 -2.7583 -0.1391
   83MOL0     H11174  -2.204   1.366   9.861  2.0857 -2.3487  0.3192
   83MOL0     H11175  -2.297   1.209   9.625  4.3304  1.6372 -1.1889
   83MOL0     H11176  -2.369   1.221   9.784  1.0742  0.0514  2.3282
   83MOL0     H11177  -2.090   1.110   9.721  0.1231 -0.7011 -0.1114
   83MOL0     H11178  -2.152   1.135   9.887 -2.4960  0.7817  0.3900
   83MOL0     H11179  -2.290   0.970   9.670  0.5523  0.1446  0.7898
   83MOL0     H11180  -2.349   0.976   9.836 -1.6370  0.7826 -1.9064
   83MOL0     H11181  -2.077   0.882   9.751  0.4518 -0.9812  1.7105
   83MOL0     H11182  -2.142   0.889   9.914 -0.8169  0.0972  0.9690
   83MOL0     H11183  -2.160   0.660   9.842  0.5946 -0.0268 -0.9415
   83MOL0     H11184  -2.225   0.691   9.686 -3.2835  0.1967 -0.4492
   83MOL0     H11185  -2.446   0.764   9.788  1.2786  2.5389  2.4004
   83MOL0     H11186  -2.389   0.752   9.942 -2.7267  0.5317  0.5476
   83MOL0     H11187  -2.234   1.329   9.373  0.6564 -0.0331 -1.4231
   83MOL0     H11188  -2.020   1.357   9.248  1.5397  3.1094 -3.1626
   83MOL0     H11189  -1.587   1.530   9.261  1.0079  2.8858  1.4048
   83MOL0     H11190  -1.383   1.554   9.156  1.3446 -0.9954 -1.5320
   83MOL0     H11191  -0.085   3.315   9.131  0.4599 -1.1262 -1.5151
   83MOL0     H11192   0.131   3.377   9.095  0.7647 -0.8529 -1.9264
   83MOL0     H11193   0.507   3.377   9.195 -0.9325 -1.8993 -0.0781
   83MOL0     H11194   0.761   3.464   9.239 -3.9286  0.0257  0.9095
   83MOL0     H11195   0.961   3.531   9.214 -0.4212 -0.0266 -0.1586
   83MOL0     H11196   1.038   3.393   9.298  2.4152  4.1730  2.1489
   83MOL0     H11197   1.184   3.504   9.061  1.3205  1.0399  0.5248
   83MOL0     H11198   1.203   3.351   9.130  1.1576 -1.5614  5.1648
   83MOL0     H11199   1.257   3.473   9.361  1.7315  1.7377  0.6348
   83MOL0     H11200   1.220   3.622   9.289 -0.8893 -0.3660  1.0706
   83MOL0     H11201   1.435   3.573   9.127 -0.5129 -4.0797 -2.0040
   83MOL0     H11202   1.428   3.413   9.193  0.7578 -0.0384  2.5959
   83MOL0     H11203   1.662   3.634   9.466 -0.8033  1.1835 -0.5646
   83MOL0     H11204   0.885   3.157   8.983 -1.0322  0.1472 -2.9680
   83MOL0     H11205   0.674   3.062   8.963 -0.7415  0.4142 -0.7494
   84MOL0     O11206   6.141   2.189   0.315 -0.5184 -0.2218  0.3401
   84MOL0     C11207   6.157   2.190   0.437 -0.1498 -0.2342 -0.5575
   84MOL0     O11208   6.080   2.126   0.535  0.2120 -0.1001 -0.2460
   84MOL0     C11209   5.965   2.082   0.491  1.0995 -0.3833 -0.5128
   84MOL0     C11210   5.851   2.146   0.526  1.2024  0.0989 -0.4481
   84MOL0     C11211   5.722   2.087   0.491 -0.1520 -1.0502 -0.0825
   84MOL0     C11212   5.712   1.975   0.423  0.2064  0.9270 -0.6018
   84MOL0     O11213   5.584   1.923   0.399 -0.2417 -0.0525  0.1124
   84MOL0     C11214   5.578   1.787   0.364 -0.9727 -0.1727  0.2160
   84MOL0     C11215   5.425   1.735   0.368 -0.6998 -1.1798  0.0250
   84MOL0     C11216   5.327   1.819   0.282 -0.2517 -0.1057 -0.0074
   84MOL0     C11217   5.204   1.734   0.267  0.5401  0.6854 -0.4556
   84MOL0     C11218   5.090   1.823   0.220  0.1812 -0.1952  0.2775
   84MOL0     C11219   4.954   1.762   0.228 -0.9774 -1.2638 -0.4058
   84MOL0     C11220   4.944   1.622   0.169  0.2560 -0.1618 -0.2199
   84MOL0     C11221   4.801   1.565   0.192  0.3619 -0.7903 -0.1571
   84MOL0     N11222   4.690   1.630   0.125  1.0601 -0.8054  0.6082
   84MOL0     C11223   4.612   1.734   0.184 -0.5581 -0.3557  0.4217
   84MOL0     C11224   4.531   1.781   0.087 -0.6506  0.8753  0.0001
   84MOL0     C11225   4.429   1.894   0.093  0.1827 -0.6731  0.2946
   84MOL0     C11226   4.282   1.854   0.109 -0.0589  1.7508  0.4034
   84MOL0     C11227   4.231   1.774  -0.013 -0.4079 -0.7956 -0.1056
   84MOL0     C11228   4.077   1.785  -0.013 -0.0704  0.4646  0.0498
   84MOL0     O11229   4.019   1.723   0.104 -0.0306 -0.7101 -0.0864
   84MOL0     C11230   3.884   1.706   0.110 -0.3957  1.0836  0.3766
   84MOL0     C11231   3.837   1.633   0.215 -0.4226  0.2804 -0.4000
   84MOL0     C11232   3.702   1.586   0.223 -0.6588 -0.6553 -0.1107
   84MOL0     C11233   3.655   1.512   0.348  0.5750 -0.0054 -0.9392
   84MOL0     C11234   3.613   1.611   0.113  0.6558 -0.3722 -0.7245
   84MOL0     C11235   3.470   1.569   0.108  0.7899 -0.1279 -0.1584
   84MOL0     O11236   3.392   1.640   0.020 -0.4522  0.0092 -0.2766
   84MOL0     C11237   3.256   1.616   0.018 -0.9947 -1.1818 -0.1258
   84MOL0     C11238   3.176   1.590   0.129  0.3405  0.5916 -0.7486
   84MOL0     C11239   3.037   1.575   0.119  1.0446 -0.4207 -0.6639
   84MOL0     C11240   2.976   1.576  -0.007 -0.1727  0.2273 -0.2793
   84MOL0     O11241   2.840   1.546  -0.012 -0.0835  0.0911 -0.0562
   84MOL0     C11242   2.784   1.509  -0.135 -0.3547  0.0596 -0.3267
   84MOL0     C11243   2.640   1.457  -0.129 -0.6348 -0.0646  0.2129
   84MOL0     C11244   2.648   1.316  -0.065 -1.2011 -0.5519  0.0495
   84MOL0     C11245   2.512   1.259  -0.034 -0.2175  0.2252  0.3353
   84MOL0     C11246   2.434   1.321   0.082 -0.7042  0.4073 -0.3080
   84MOL0     C11247   2.297   1.257   0.083  0.7971 -0.7632  0.5931
   84MOL0     C11248   2.208   1.307   0.187  0.1130 -0.4403  0.3757
   84MOL0     C11249   2.073   1.221   0.195  0.5571 -0.3056  0.4779
   84MOL0    Cl11250   1.973   1.269   0.334  0.5099 -0.1264 -0.1051
   84MOL0     C11251   3.056   1.595  -0.130  0.0260 -0.0123 -1.2333
   84MOL0     C11252   3.195   1.620  -0.115  0.3943  0.4744 -0.4102
   84MOL0     O11253   3.436   1.477   0.178 -0.1053  0.6405 -0.5298
   84MOL0     C11254   3.662   1.689   0.004 -1.0929 -0.1735 -0.3064
   84MOL0     C11255   3.795   1.728   0.003  0.1703  0.3322  0.5587
   84MOL0     N11256   4.552   1.706  -0.024 -0.2514 -0.3314  0.4267
   84MOL0     N11257   4.641   1.616  -0.000 -0.4488  0.0123  0.4129
   84MOL0     C11258   5.835   1.909   0.387 -0.1793 -0.5443 -0.4119
   84MOL0     C11259   5.963   1.962   0.424 -0.8439 -0.5577  0.6529
   84MOL0     C11260   6.278   2.256   0.489 -0.2828  0.5958 -0.1934
   84MOL0     C11261   6.299   2.266   0.626 -0.0923 -0.5183  0.6592
   84MOL0     C11262   6.415   2.328   0.676 -0.3952 -0.5112  0.1277
   84MOL0     C11263   6.521   2.374   0.594 -0.0875 -0.1978  0.0690
   84MOL0     O11264   6.636   2.432   0.637 -0.5060 -0.0733 -0.3407
   84MOL0     C11265   6.661   2.451   0.775 -0.3783  0.4368 -0.5312
   84MOL0     C11266   6.588   2.573   0.828 -0.1272 -1.8189  0.1575
   84MOL0     C11267   6.652   2.639   0.953  0.1345 -0.0535  0.1871
   84MOL0     C11268   6.697   2.552   1.068 -1.1067  0.5942  0.2781
   84MOL0     C11269   6.589   2.470   1.113 -1.0741  0.2859 -0.4114
   84MOL0     C11270   6.488   2.414   1.154 -0.6910 -0.1355  0.1358
   84MOL0     C11271   6.504   2.358   0.457 -0.3414  0.1215 -0.7295
   84MOL0     C11272   6.382   2.300   0.405 -0.7825  0.6064 -0.1056
   84MOL0     H11273   5.864   2.240   0.578  3.2305 -0.1465 -0.4214
   84MOL0     H11274   5.633   2.139   0.526 -0.8899 -1.7261 -0.9308
   84MOL0     H11275   5.615   1.779   0.261  0.4498  5.0801  0.0306
   84MOL0     H11276   5.643   1.735   0.435 -0.2121  2.0402  1.2461
   84MOL0     H11277   5.424   1.630   0.338  1.0993 -2.0284  2.6133
   84MOL0     H11278   5.394   1.741   0.473  2.0797  1.9412  0.8267
   84MOL0     H11279   5.308   1.918   0.324 -0.4200 -0.2071  0.1575
   84MOL0     H11280   5.370   1.840   0.183 -2.3521 -0.2040 -0.9973
   84MOL0     H11281   5.235   1.653   0.200  3.3047  0.6497  0.7147
   84MOL0     H11282   5.177   1.699   0.367  1.0817  2.6663  0.4500
   84MOL0     H11283   5.092   1.919   0.272 -0.8658 -0.8694  1.6075
   84MOL0     H11284   5.103   1.842   0.113  0.6634 -0.2718  0.3190
   84MOL0     H11285   4.927   1.754   0.334 -0.6970  0.1460 -0.2038
   84MOL0     H11286   4.888   1.836   0.181 -1.3222 -0.7641  0.8237
   84MOL0     H11287   4.959   1.642   0.063 -1.8981  0.7191 -0.4044
   84MOL0     H11288   5.017   1.554   0.214 -0.6329 -0.2121  1.1909
   84MOL0     H11289   4.790   1.570   0.301  1.4005  2.8526 -0.0790
   84MOL0     H11290   4.802   1.458   0.168 -2.7468 -1.0046  0.2345
   84MOL0     H11291   4.623   1.761   0.289  0.5331  0.1422  0.2028
   84MOL0     H11292   4.453   1.948   0.185  0.0936  0.8070 -0.5122
   84MOL0     H11293   4.446   1.958   0.007  0.7802 -1.4242 -0.1537
   84MOL0     H11294   4.218   1.943   0.119  0.0865  1.7071  1.9817
   84MOL0     H11295   4.271   1.789   0.196 -1.1243 -0.7059 -1.4540
   84MOL0     H11296   4.275   1.677   0.011 -1.3239 -0.8740  1.3920
   84MOL0     H11297   4.259   1.824  -0.106 -3.2778  1.5059  0.1122
   84MOL0     H11298   4.044   1.735  -0.104  2.4240  0.0020 -0.6884
   84MOL0     H11299   4.034   1.885  -0.021 -3.3962 -0.9939 -2.0022
   84MOL0     H11300   3.892   1.603   0.303 -3.0734  1.5643  1.8583
   84MOL0     H11301   3.732   1.505   0.425 -1.0310 -0.7051  0.6735
   84MOL0     H11302   3.571   1.568   0.391  1.1712  0.2953 -0.1350
   84MOL0     H11303   3.618   1.411   0.325 -0.2763  0.5467 -2.1515
   84MOL0     H11304   3.212   1.603   0.231  1.4082  0.2795 -1.0680
   84MOL0     H11305   2.983   1.558   0.212  1.0540  4.8030  0.5996
   84MOL0     H11306   2.780   1.598  -0.198  0.1024  0.8329  0.7048
   84MOL0     H11307   2.858   1.443  -0.181  0.5292 -0.2717  1.5060
   84MOL0     H11308   2.571   1.528  -0.082 -1.8026 -2.0792  1.6785
   84MOL0     H11309   2.615   1.445  -0.235  0.7902 -0.4085 -0.1024
   84MOL0     H11310   2.701   1.332   0.029  3.7080 -1.1253 -2.2786
   84MOL0     H11311   2.709   1.246  -0.124  0.5698  0.7304  0.2808
   84MOL0     H11312   2.441   1.276  -0.116 -0.2979 -0.3448  0.2817
   84MOL0     H11313   2.525   1.151  -0.024 -1.2020 -0.2665 -2.6143
   84MOL0     H11314   2.423   1.430   0.079 -2.2700  0.2719 -3.3443
   84MOL0     H11315   2.495   1.286   0.166 -1.7381 -1.4055 -0.2792
   84MOL0     H11316   2.240   1.249  -0.010 -1.5214 -1.6980  1.9932
   84MOL0     H11317   2.314   1.153   0.114  0.1738 -0.7566  0.9899
   84MOL0     H11318   2.180   1.408   0.157 -1.6159 -0.9913 -0.0008
   84MOL0     H11319   2.262   1.298   0.282  2.6543 -0.2096 -0.9687
   84MOL0     H11320   2.082   1.112   0.190 -0.5140 -0.4489  1.2981
   84MOL0     H11321   2.019   1.249   0.104  1.6728 -0.9501 -0.4093
   84MOL0     H11322   3.002   1.591  -0.224 -0.8136 -1.5904 -0.7336
   84MOL0     H11323   3.259   1.640  -0.200 -0.6424  0.6521 -1.1526
   84MOL0     H11324   3.617   1.739  -0.082  3.2360  3.5332 -0.7805
   84MOL0     H11325   3.813   1.783  -0.089 -4.9644 -1.6238 -2.0259
   84MOL0     H11326   5.838   1.814   0.334 -1.8882 -1.2603  0.6815
   84MOL0     H11327   6.054   1.906   0.402  0.9429  1.1267  3.1820
   84MOL0     H11328   6.220   2.241   0.696  0.8317  2.3130  2.9116
   84MOL0     H11329   6.421   2.357   0.781  1.1203  0.6569 -0.2499
   84MOL0     H11330   6.639   2.357   0.827 -1.0601 -2.1697 -5.0161
   84MOL0     H11331   6.769   2.467   0.775 -0.3892  0.6394 -1.8407
   84MOL0     H11332   6.487   2.544   0.857 -0.0910 -0.9794  1.2196
   84MOL0     H11333   6.577   2.643   0.745  2.0407 -0.0091  1.2646
   84MOL0     H11334   6.580   2.713   0.988  0.0173  0.0393 -0.2488
   84MOL0     H11335   6.737   2.704   0.927 -2.9516  4.1915 -0.3081
   84MOL0     H11336   6.727   2.603   1.160 -1.3068 -2.1685  2.0045
   84MOL0     H11337   6.776   2.479   1.046 -2.2321 -0.6896  0.3011
   84MOL0     H11338   6.405   2.352   1.181 -0.7991 -0.0209  0.0679
   84MOL0     H11339   6.574   2.398   0.385 -1.0879 -0.3134 -1.7311
   84MOL0     H11340   6.382   2.284   0.297  0.1491  0.8386 -0.1491
   85MOL0     O11341   0.022   3.238  11.101  0.2509 -0.0483 -0.1670
   85MOL0     C11342  -0.074   3.182  11.050 -0.9183  0.5803 -0.2067
   85MOL0     O11343  -0.054   3.080  10.957  0.3908 -0.4105  0.6904
   85MOL0     C11344   0.075   3.057  10.912 -0.0777 -0.6474 -0.9382
   85MOL0     C11345   0.131   2.927  10.945  0.4150  0.0902  0.3010
   85MOL0     C11346   0.267   2.906  10.919 -0.5674  0.0754 -0.5646
   85MOL0     C11347   0.337   3.004  10.847  0.0212  0.3329 -0.1421
   85MOL0     O11348   0.469   2.994  10.806 -0.2384 -0.2076 -0.0677
   85MOL0     C11349   0.551   3.086  10.863  0.6016 -0.9046  0.3822
   85MOL0     C11350   0.696   3.059  10.826 -0.7558  0.8056 -0.1876
   85MOL0     C11351   0.735   2.906  10.830  1.1651  0.0147  0.4232
   85MOL0     C11352   0.885   2.904  10.775 -0.1847 -0.6820 -0.1134
   85MOL0     C11353   0.950   2.776  10.815  0.5669 -0.1193  0.2186
   85MOL0     C11354   1.102   2.796  10.836  0.0794  0.2943 -0.0674
   85MOL0     C11355   1.162   2.655  10.864  0.1724 -0.5123 -0.7652
   85MOL0     C11356   1.320   2.666  10.896 -0.1108 -0.8512  1.3635
   85MOL0     N11357   1.348   2.761  11.002 -1.1724 -0.6559 -0.4921
   85MOL0     C11358   1.394   2.742  11.132 -0.1388  0.4870 -0.7984
   85MOL0     C11359   1.427   2.869  11.170 -0.5322  0.6425  0.0987
   85MOL0     C11360   1.459   2.913  11.314 -0.8788 -0.4547  0.2006
   85MOL0     C11361   1.553   3.038  11.321  0.6872 -0.7952  0.2033
   85MOL0     C11362   1.607   3.052  11.465 -0.5251  1.4234  0.4003
   85MOL0     C11363   1.489   3.085  11.566 -0.3778 -0.0920 -0.8000
   85MOL0     O11364   1.542   3.126  11.696 -0.1778  0.1474  0.2554
   85MOL0     C11365   1.605   3.034  11.776 -0.3809  0.3523 -0.5957
   85MOL0     C11366   1.580   2.894  11.775 -0.3599 -0.0918 -0.4991
   85MOL0     C11367   1.632   2.806  11.874  0.6823 -0.1626 -0.3181
   85MOL0     C11368   1.610   2.655  11.851 -0.4028 -0.4154 -0.4312
   85MOL0     C11369   1.715   2.854  11.977  0.0182 -0.8667 -0.7650
   85MOL0     C11370   1.776   2.786  12.091 -0.7492  1.0514 -0.2051
   85MOL0     O11371   1.832   2.866  12.189  0.0539 -0.5081  0.1230
   85MOL0     C11372   1.866   2.805  12.306 -0.0433  0.6640 -0.0467
   85MOL0     C11373   1.997   2.757  12.335 -0.6232  0.5426 -0.0106
   85MOL0     C11374   2.023   2.699  12.460 -0.5270 -0.5486  0.5942
   85MOL0     C11375   1.931   2.695  12.559 -0.1250  0.4553 -0.5039
   85MOL0     O11376   1.960   2.630  12.677  0.6072  0.5848  0.4359
   85MOL0     C11377   1.937   2.694  12.802  0.5934 -0.6173  0.0042
   85MOL0     C11378   1.980   2.610  12.919 -0.1477 -0.0816 -0.0379
   85MOL0     C11379   1.899   2.477  12.929 -0.5537  0.5907 -0.9333
   85MOL0     C11380   1.930   2.415  13.064  0.3563 -0.5670  0.3233
   85MOL0     C11381   1.902   2.268  13.049 -0.4093  0.4669 -0.6730
   85MOL0     C11382   1.750   2.226  13.041  0.6923 -0.3205  0.5795
   85MOL0     C11383   1.735   2.074  13.037  0.5633 -0.0073 -0.2569
   85MOL0     C11384   1.590   2.035  13.019  0.0197  0.3511 -0.9988
   85MOL0    Cl11385   1.499   2.066  13.170 -0.6499  0.2008  0.2665
   85MOL0     C11386   1.803   2.742  12.538 -0.1161 -0.0641  1.2194
   85MOL0     C11387   1.766   2.777  12.405 -0.2863 -0.0866  0.0855
   85MOL0     O11388   1.765   2.664  12.102  0.1965  0.0732  0.1878
   85MOL0     C11389   1.743   2.998  11.969  0.7994  0.1322 -0.0888
   85MOL0     C11390   1.687   3.079  11.872  0.1819 -0.3273  0.5588
   85MOL0     N11391   1.403   2.953  11.064 -0.4921  0.5542 -0.2774
   85MOL0     N11392   1.366   2.883  10.965 -0.1105  0.3953 -0.5807
   85MOL0     C11393   0.278   3.130  10.811 -0.0881  0.2519 -0.0679
   85MOL0     C11394   0.144   3.154  10.833  0.3389 -0.0046  0.3746
   85MOL0     C11395  -0.197   3.200  11.113  0.1634 -0.2209  0.4425
   85MOL0     C11396  -0.208   3.258  11.238 -0.7615  0.9469  0.5088
   85MOL0     C11397  -0.324   3.267  11.306 -0.5029  0.4282 -0.5658
   85MOL0     C11398  -0.436   3.233  11.243  0.2610  0.5755  0.8360
   85MOL0     O11399  -0.552   3.252  11.315 -0.5141 -0.4432 -0.4453
   85MOL0     C11400  -0.682   3.233  11.256  0.4252  0.7202 -0.1810
   85MOL0     C11401  -0.708   3.331  11.144 -0.1410 -0.8604  0.0560
   85MOL0     C11402  -0.864   3.358  11.140 -0.0730 -0.0387 -0.5450
   85MOL0     C11403  -0.947   3.245  11.080  0.2241  0.4299  0.2888
   85MOL0     C11404  -1.089   3.273  11.085  0.6709  0.0484  0.1698
   85MOL0     C11405  -1.207   3.283  11.076  0.3743 -0.9174  0.2825
   85MOL0     C11406  -0.430   3.166  11.114 -0.2690 -0.2770 -0.1412
   85MOL0     C11407  -0.311   3.150  11.051  0.6672  0.2650 -0.0670
   85MOL0     H11408   0.070   2.851  10.993  2.0259 -0.2398  1.9091
   85MOL0     H11409   0.323   2.816  10.944  2.7005  1.3083 -2.7187
   85MOL0     H11410   0.515   3.186  10.837 -0.4265 -1.3984 -0.1310
   85MOL0     H11411   0.543   3.077  10.972 -1.9846 -2.4006  0.1418
   85MOL0     H11412   0.727   3.100  10.729 -0.3406  0.6538 -0.1217
   85MOL0     H11413   0.765   3.112  10.893  0.4037 -0.3224 -0.4416
   85MOL0     H11414   0.722   2.872  10.933 -2.9219  0.8721  0.3898
   85MOL0     H11415   0.668   2.851  10.762  0.0189  1.8686 -0.0435
   85MOL0     H11416   0.887   2.922  10.667 -1.0883 -0.2741 -0.0670
   85MOL0     H11417   0.941   2.985  10.824  0.9287 -2.4507  1.6982
   85MOL0     H11418   0.905   2.738  10.908  0.6035  2.8899  1.6052
   85MOL0     H11419   0.934   2.703  10.736  0.8396  0.9147 -0.8202
   85MOL0     H11420   1.158   2.853  10.761 -0.7216 -1.2953 -1.9522
   85MOL0     H11421   1.110   2.851  10.930 -2.8988  1.3792 -0.3450
   85MOL0     H11422   1.124   2.598  10.949 -0.4231  0.8259 -0.1039
   85MOL0     H11423   1.141   2.602  10.770 -2.6074  1.8715 -1.6118
   85MOL0     H11424   1.373   2.686  10.802 -0.9221 -4.3563  0.0115
   85MOL0     H11425   1.344   2.564  10.926 -0.2709 -0.3143  3.4624
   85MOL0     H11426   1.399   2.659  11.202 -1.3830  0.4014 -0.7895
   85MOL0     H11427   1.361   2.923  11.363 -1.9898  0.1490 -2.0228
   85MOL0     H11428   1.512   2.837  11.372  2.3405  1.1374 -0.4827
   85MOL0     H11429   1.497   3.126  11.286  1.4317  0.0828  1.1612
   85MOL0     H11430   1.630   3.022  11.246  2.3982  1.3509  1.3993
   85MOL0     H11431   1.686   3.127  11.465  1.5541 -0.5215 -2.2214
   85MOL0     H11432   1.662   2.962  11.493  0.2973  1.3827 -1.1943
   85MOL0     H11433   1.424   2.998  11.573 -0.0167 -0.4093 -1.2868
   85MOL0     H11434   1.426   3.169  11.534  1.0987  1.5247  0.3048
   85MOL0     H11435   1.512   2.853  11.702 -0.5485  2.5173 -1.9145
   85MOL0     H11436   1.570   2.636  11.751  2.2790 -2.4798 -1.2588
   85MOL0     H11437   1.709   2.608  11.853  0.5266  1.4669 -0.4605
   85MOL0     H11438   1.538   2.616  11.923  0.2025 -1.2589 -0.2592
   85MOL0     H11439   2.083   2.768  12.270 -0.0102 -1.3608  0.4174
   85MOL0     H11440   2.118   2.653  12.482 -1.1497 -1.4309  1.5551
   85MOL0     H11441   1.997   2.785  12.807 -0.1823 -0.1002  0.1179
   85MOL0     H11442   1.836   2.735  12.809  0.3325 -1.3193  0.3734
   85MOL0     H11443   2.088   2.591  12.916 -0.3790 -1.4308 -2.3049
   85MOL0     H11444   1.958   2.675  13.004 -1.5768  1.8346 -1.7795
   85MOL0     H11445   1.926   2.416  12.842 -1.6589  1.5917 -2.0415
   85MOL0     H11446   1.796   2.513  12.914 -0.3493  1.7145  0.2030
   85MOL0     H11447   2.037   2.425  13.088  0.5308  0.3931 -0.7263
   85MOL0     H11448   1.882   2.466  13.149 -0.2275 -1.9884  0.8673
   85MOL0     H11449   1.948   2.221  13.137 -0.1660  1.5051 -0.2288
   85MOL0     H11450   1.951   2.232  12.958 -0.7867  2.7302 -1.8479
   85MOL0     H11451   1.696   2.264  13.129 -2.0841  0.9859 -1.5318
   85MOL0     H11452   1.701   2.271  12.954  1.0953  0.0699  0.5527
   85MOL0     H11453   1.769   2.036  13.134 -0.1520  2.4619  1.0436
   85MOL0     H11454   1.793   2.027  12.957 -0.8281 -0.9619 -0.7624
   85MOL0     H11455   1.589   1.927  13.000 -0.4613 -0.0949  1.2761
   85MOL0     H11456   1.551   2.087  12.931  1.9732 -1.4265 -3.0247
   85MOL0     H11457   1.730   2.737  12.618  1.0353  2.1633  2.4985
   85MOL0     H11458   1.666   2.806  12.375 -0.5502 -1.4610 -0.4207
   85MOL0     H11459   1.809   3.051  12.037  0.0697  0.1242  0.6382
   85MOL0     H11460   1.715   3.184  11.873 -2.4236  0.4552  0.1345
   85MOL0     H11461   0.329   3.211  10.760  0.8191 -0.2728 -0.0145
   85MOL0     H11462   0.084   3.230  10.783 -0.6967 -0.4761  0.8655
   85MOL0     H11463  -0.115   3.304  11.270 -0.8268  2.0365 -0.7819
   85MOL0     H11464  -0.318   3.313  11.404  2.1198  1.3033 -1.0517
   85MOL0     H11465  -0.682   3.131  11.216  0.8801  0.9426 -0.7554
   85MOL0     H11466  -0.755   3.246  11.337 -1.4077  2.8014 -2.0279
   85MOL0     H11467  -0.672   3.292  11.049  2.1493 -0.9681  0.9055
   85MOL0     H11468  -0.652   3.421  11.168 -1.5004 -0.1557  0.7214
   85MOL0     H11469  -0.872   3.447  11.076  1.2418 -0.1833 -0.9336
   85MOL0     H11470  -0.910   3.384  11.236 -0.3746 -0.0233 -0.6941
   85MOL0     H11471  -0.913   3.151  11.126  0.9503  0.0727 -0.9354
   85MOL0     H11472  -0.923   3.235  10.974 -3.1698  1.4633 -0.7103
   85MOL0     H11473  -1.310   3.307  11.067  0.9486  1.5228 -0.5183
   85MOL0     H11474  -0.524   3.136  11.069  0.1636  0.3503 -1.5037
   85MOL0     H11475  -0.315   3.100  10.955 -0.2995 -1.1445  0.6692
   86MOL0     O11476   0.250   0.489  10.092 -0.4530 -0.1008 -0.2231
   86MOL0     C11477   0.205   0.603  10.098 -0.0517  0.1589 -0.8769
   86MOL0     O11478   0.080   0.637  10.081  0.2639  0.4919 -0.2946
   86MOL0     C11479  -0.014   0.558  10.020  0.3453  0.5868  0.5019
   86MOL0     C11480   0.013   0.440   9.943 -0.2484  0.1000 -0.1070
   86MOL0     C11481  -0.092   0.380   9.886  0.2376  0.0160 -0.0724
   86MOL0     C11482  -0.223   0.415   9.902  0.4966 -0.1021  0.2081
   86MOL0     O11483  -0.338   0.349   9.852 -0.1750  0.3781 -0.3355
   86MOL0     C11484  -0.310   0.237   9.766  1.0987  0.8530 -0.0098
   86MOL0     C11485  -0.442   0.220   9.680  0.2233 -0.3684 -0.5154
   86MOL0     C11486  -0.569   0.175   9.748  0.4422 -0.6950  1.4583
   86MOL0     C11487  -0.682   0.202   9.635 -0.2329 -0.3012 -0.1575
   86MOL0     C11488  -0.810   0.112   9.655 -0.6448  0.4783 -0.4557
   86MOL0     C11489  -0.797  -0.037   9.617  0.2544 -1.6717 -0.1089
   86MOL0     C11490  -0.933  -0.115   9.634 -1.1651 -0.0830  0.0433
   86MOL0     C11491  -1.064  -0.031   9.619  0.0344  0.3465 -0.1303
   86MOL0     N11492  -1.182  -0.074   9.692 -0.5390 -0.5615 -0.0932
   86MOL0     C11493  -1.198  -0.204   9.733 -0.4591 -0.4710  0.1239
   86MOL0     C11494  -1.331  -0.207   9.762 -0.4096  0.7322  0.2133
   86MOL0     C11495  -1.408  -0.307   9.834 -0.3435  0.0880 -0.2976
   86MOL0     C11496  -1.544  -0.340   9.758  0.5177  0.0057 -0.2468
   86MOL0     C11497  -1.634  -0.426   9.837  0.8078  0.6716 -0.1868
   86MOL0     C11498  -1.758  -0.462   9.761  0.6698 -0.9042 -0.5748
   86MOL0     O11499  -1.837  -0.345   9.721  0.3194 -0.2205  0.1813
   86MOL0     C11500  -1.967  -0.377   9.693 -0.3901  0.2500 -0.5609
   86MOL0     C11501  -2.010  -0.507   9.645  0.4367 -0.0171  0.2140
   86MOL0     C11502  -2.142  -0.538   9.621  0.0902 -0.1762  0.5486
   86MOL0     C11503  -2.176  -0.680   9.573 -0.2858  0.0706 -0.2879
   86MOL0     C11504  -2.240  -0.439   9.635  0.4487  0.1848 -0.0446
   86MOL0     C11505  -2.376  -0.452   9.588  0.2280  0.0019 -0.9565
   86MOL0     O11506  -2.451  -0.562   9.631  0.0702 -0.0203  0.0543
   86MOL0     C11507  -2.577  -0.600   9.583 -1.1403 -0.8072 -0.1255
   86MOL0     C11508  -2.672  -0.507   9.558  0.2469  0.1409  0.4895
   86MOL0     C11509  -2.796  -0.547   9.507 -1.2109  0.5082  0.0882
   86MOL0     C11510  -2.837  -0.679   9.491  0.0168  0.2785  0.1745
   86MOL0     O11511  -2.967  -0.715   9.450 -0.3608  0.2042 -0.0965
   86MOL0     C11512  -3.017  -0.847   9.466  0.0233  1.0756 -0.3868
   86MOL0     C11513  -3.138  -0.872   9.372  0.4018 -0.0915 -0.7751
   86MOL0     C11514  -3.222  -0.994   9.402  0.1415  0.0979  0.8792
   86MOL0     C11515  -3.294  -1.044   9.271 -1.6968  0.6900 -0.0619
   86MOL0     C11516  -3.445  -1.013   9.266  0.0694  0.0630 -0.4418
   86MOL0     C11517  -3.525  -1.106   9.364  0.0375 -0.8308  0.0370
   86MOL0     C11518  -3.678  -1.085   9.346 -0.3202 -0.6277 -0.1053
   86MOL0     C11519  -3.757  -1.158   9.459  0.3880 -0.3216  0.8871
   86MOL0    Cl11520  -3.748  -1.093   9.622  0.1575  0.0930 -0.0292
   86MOL0     C11521  -2.739  -0.775   9.517  0.2239  0.0866  0.9458
   86MOL0     C11522  -2.611  -0.740   9.560  0.2401 -0.0163  0.7225
   86MOL0     O11523  -2.422  -0.363   9.512  0.1855  0.2587 -0.1758
   86MOL0     C11524  -2.202  -0.308   9.670  0.1985 -0.3432  0.0178
   86MOL0     C11525  -2.066  -0.281   9.694  0.0681  0.9068  0.4531
   86MOL0     N11526  -1.392  -0.090   9.730 -0.6195  0.9290 -0.3304
   86MOL0     N11527  -1.305  -0.011   9.682 -0.7741  0.2235  0.2415
   86MOL0     C11528  -0.254   0.528   9.981  0.0179 -0.3524  0.0722
   86MOL0     C11529  -0.147   0.592  10.041 -0.0790 -0.2215 -0.4685
   86MOL0     C11530   0.300   0.713  10.135  0.0866  0.5910 -0.4275
   86MOL0     C11531   0.436   0.687  10.145 -0.4569  0.6427 -0.4476
   86MOL0     C11532   0.534   0.787  10.158  0.4136 -0.1130  0.0260
   86MOL0     C11533   0.485   0.918  10.167  0.1230  0.2386 -1.2698
   86MOL0     O11534   0.567   1.033  10.165 -0.2550 -0.1668 -0.2894
   86MOL0     C11535   0.703   1.025  10.117 -0.5106 -0.4620 -0.1861
   86MOL0     C11536   0.768   1.161  10.154 -0.8865  0.7453  0.1574
   86MOL0     C11537   0.920   1.171  10.132  0.4614  1.0971  0.6240
   86MOL0     C11538   0.978   1.311  10.138 -0.1954 -0.5487 -0.1460
   86MOL0     C11539   1.009   1.356  10.280 -0.3011  0.0951 -0.6373
   86MOL0     C11540   1.046   1.409  10.383 -0.8963  0.8576  0.7904
   86MOL0     C11541   0.348   0.944  10.155  0.3169  0.3617 -0.0442
   86MOL0     C11542   0.250   0.845  10.141 -0.8816 -0.1573  1.2189
   86MOL0     H11543   0.114   0.412   9.917  0.0805  0.8443  0.3290
   86MOL0     H11544  -0.078   0.304   9.809 -1.3446  0.5439 -0.9294
   86MOL0     H11545  -0.227   0.252   9.696  0.8308  0.0296 -0.5201
   86MOL0     H11546  -0.283   0.145   9.819 -0.8987  0.3253  0.1647
   86MOL0     H11547  -0.467   0.325   9.661 -1.5499 -0.5127  0.7025
   86MOL0     H11548  -0.428   0.156   9.593 -0.8056 -3.3796  1.3848
   86MOL0     H11549  -0.567   0.069   9.774  0.8560 -0.5819  1.8866
   86MOL0     H11550  -0.590   0.232   9.839 -0.8650 -0.3107  0.9389
   86MOL0     H11551  -0.711   0.307   9.623 -1.2615 -0.5619 -0.0291
   86MOL0     H11552  -0.644   0.176   9.536  0.7868  4.0614 -1.1381
   86MOL0     H11553  -0.847   0.116   9.758  1.0799 -0.2198  0.2261
   86MOL0     H11554  -0.890   0.155   9.593 -2.5880 -1.5278  0.5499
   86MOL0     H11555  -0.756  -0.044   9.516  2.2653 -1.7541  0.6852
   86MOL0     H11556  -0.720  -0.086   9.677 -0.4381 -2.3012  0.2893
   86MOL0     H11557  -0.945  -0.201   9.567 -1.0863  2.3328 -3.3448
   86MOL0     H11558  -0.924  -0.160   9.733  3.0233 -4.3476 -1.8900
   86MOL0     H11559  -1.097  -0.024   9.515 -1.2039  4.4348  0.3797
   86MOL0     H11560  -1.053   0.071   9.657 -0.2105  0.0094  0.8744
   86MOL0     H11561  -1.129  -0.287   9.750  0.2838 -0.4324 -2.2901
   86MOL0     H11562  -1.340  -0.393   9.840  0.7650  0.9990  0.5664
   86MOL0     H11563  -1.430  -0.268   9.934 -1.9227  2.9531 -1.6373
   86MOL0     H11564  -1.509  -0.387   9.666  1.4599 -0.1983  0.2038
   86MOL0     H11565  -1.598  -0.249   9.731 -0.7479 -0.6095  0.1220
   86MOL0     H11566  -1.649  -0.387   9.938  3.2310  0.9992  0.1138
   86MOL0     H11567  -1.583  -0.520   9.860  1.1789 -0.4646 -4.6990
   86MOL0     H11568  -1.816  -0.518   9.835  0.6278  2.9468  2.6409
   86MOL0     H11569  -1.738  -0.520   9.670  1.3968  1.4485 -1.9987
   86MOL0     H11570  -1.945  -0.594   9.644  3.9371  2.3576  0.9756
   86MOL0     H11571  -2.163  -0.740   9.664 -0.9164  5.0136  3.5148
   86MOL0     H11572  -2.273  -0.686   9.523 -1.3430  1.9267  1.3897
   86MOL0     H11573  -2.102  -0.716   9.501  0.6631 -1.3062  1.3061
   86MOL0     H11574  -2.640  -0.407   9.585 -1.1974  1.2202 -1.4656
   86MOL0     H11575  -2.863  -0.469   9.471 -1.7943 -0.4877 -1.0453
   86MOL0     H11576  -2.941  -0.919   9.434 -1.0382 -0.5790  0.7049
   86MOL0     H11577  -3.033  -0.869   9.571 -1.4458 -0.0564 -0.8152
   86MOL0     H11578  -3.198  -0.782   9.384 -0.3288 -0.7904  1.2349
   86MOL0     H11579  -3.093  -0.882   9.272  3.6319  1.6737  0.3574
   86MOL0     H11580  -3.294  -0.971   9.482 -1.8044  1.3105 -1.1280
   86MOL0     H11581  -3.156  -1.071   9.442  0.6799  0.6377  1.0363
   86MOL0     H11582  -3.252  -0.999   9.181 -0.2985  0.5251  0.4952
   86MOL0     H11583  -3.290  -1.154   9.267 -0.5870  0.5595  2.6938
   86MOL0     H11584  -3.479  -1.018   9.162 -1.4231  0.5001 -0.0031
   86MOL0     H11585  -3.469  -0.913   9.303 -1.6869 -0.0245 -1.2732
   86MOL0     H11586  -3.508  -1.212   9.340 -0.8222 -0.7674 -0.9638
   86MOL0     H11587  -3.493  -1.078   9.464  2.4086  3.6486 -1.7158
   86MOL0     H11588  -3.705  -1.126   9.248  1.0232  1.2751 -1.3447
   86MOL0     H11589  -3.711  -0.981   9.349  2.0670  0.5622 -4.7634
   86MOL0     H11590  -3.715  -1.259   9.460 -2.7479 -1.7473  1.1634
   86MOL0     H11591  -3.866  -1.165   9.448  0.3108  2.0440 -0.4018
   86MOL0     H11592  -2.762  -0.881   9.516  1.3926 -0.1848 -0.1966
   86MOL0     H11593  -2.538  -0.808   9.602  0.1342  0.1306  1.1542
   86MOL0     H11594  -2.267  -0.222   9.673  1.1062  0.3315  1.0916
   86MOL0     H11595  -2.033  -0.183   9.726 -0.8287  1.2499  0.3537
   86MOL0     H11596  -0.357   0.560   9.989 -0.2109 -1.3195  1.3423
   86MOL0     H11597  -0.180   0.675  10.103  1.0999 -0.8929  1.1473
   86MOL0     H11598   0.477   0.587  10.133 -0.4620  0.5827 -0.0064
   86MOL0     H11599   0.636   0.750  10.165  0.6431  0.7420  1.9253
   86MOL0     H11600   0.752   0.937  10.160  0.6622  0.4403  0.3976
   86MOL0     H11601   0.700   1.027  10.008 -1.9407  0.7934 -0.1596
   86MOL0     H11602   0.760   1.170  10.263  0.2336 -0.0562  0.3225
   86MOL0     H11603   0.708   1.240  10.107  1.2322  1.2443 -1.8473
   86MOL0     H11604   0.949   1.132  10.034  1.5510  1.5655  0.7463
   86MOL0     H11605   0.967   1.102  10.203  0.3024  0.6172  0.2685
   86MOL0     H11606   0.903   1.381  10.098 -1.5593 -1.5676  0.5221
   86MOL0     H11607   1.065   1.322  10.074 -0.8910 -1.7389 -1.3572
   86MOL0     H11608   1.075   1.484  10.454 -1.7509  1.0049  0.9982
   86MOL0     H11609   0.321   1.049  10.152  0.5469  0.4943  1.6297
   86MOL0     H11610   0.144   0.861  10.122 -1.3103 -1.7315  2.0901
   87MOL0     O11611   6.915   8.268   4.914 -0.2195 -0.1404  0.1889
   87MOL0     C11612   6.945   8.373   4.968 -0.4882 -0.3449  0.2915
   87MOL0     O11613   6.856   8.453   5.031  0.7351  0.2625  0.6763
   87MOL0     C11614   6.725   8.413   5.004 -0.0980 -0.3699 -0.5069
   87MOL0     C11615   6.623   8.493   4.945 -0.6319  0.2871  0.4018
   87MOL0     C11616   6.487   8.470   4.966 -0.9759 -0.2878  0.3903
   87MOL0     C11617   6.447   8.357   5.037 -0.6067 -0.1032  0.1603
   87MOL0     O11618   6.320   8.335   5.076  0.4448  0.2147  0.6970
   87MOL0     C11619   6.224   8.372   4.976  0.3503  0.3167 -0.0016
   87MOL0     C11620   6.092   8.284   4.979  0.3690  0.5772 -0.4341
   87MOL0     C11621   5.980   8.366   5.050  0.2719 -0.2845  0.8025
   87MOL0     C11622   5.865   8.276   5.082 -0.4369 -1.8197  0.0444
   87MOL0     C11623   5.728   8.341   5.113 -0.1545  0.4550 -0.1131
   87MOL0     C11624   5.747   8.473   5.206  0.0453 -0.1060 -0.1306
   87MOL0     C11625   5.618   8.515   5.273 -0.2133  0.4467  0.7019
   87MOL0     C11626   5.609   8.431   5.401  0.3496 -0.4591  0.1402
   87MOL0     N11627   5.481   8.471   5.455  0.0557  0.4895  0.1149
   87MOL0     C11628   5.367   8.407   5.448 -0.8757 -0.8168  0.0297
   87MOL0     C11629   5.285   8.475   5.527 -0.4422  0.3071 -0.6253
   87MOL0     C11630   5.145   8.436   5.563 -0.7176  0.0010  0.6879
   87MOL0     C11631   5.059   8.399   5.440  0.1336 -0.0399  0.1455
   87MOL0     C11632   4.907   8.398   5.478 -0.5032  0.1300 -0.0153
   87MOL0     C11633   4.816   8.400   5.355  0.0041 -0.3530 -0.5075
   87MOL0     O11634   4.678   8.421   5.385  0.3221  0.2140 -0.3049
   87MOL0     C11635   4.590   8.323   5.400  0.5157 -0.1842  0.6804
   87MOL0     C11636   4.453   8.370   5.394  0.3295  0.1625  0.4178
   87MOL0     C11637   4.348   8.278   5.369  0.0174  0.0335 -0.5902
   87MOL0     C11638   4.212   8.338   5.351  0.2975 -0.0990 -0.3240
   87MOL0     C11639   4.377   8.134   5.385  1.2592 -0.4157  0.5705
   87MOL0     C11640   4.266   8.038   5.392  0.3395 -0.4591 -0.4351
   87MOL0     O11641   4.146   8.063   5.334 -0.5205 -0.2949 -0.4455
   87MOL0     C11642   4.046   7.970   5.312  0.1409 -0.8230  0.6356
   87MOL0     C11643   4.036   7.829   5.358  0.1672 -0.6576  0.3195
   87MOL0     C11644   3.919   7.756   5.331  0.7942 -0.4529  0.7986
   87MOL0     C11645   3.824   7.814   5.240 -0.0111 -0.2077  0.3370
   87MOL0     O11646   3.704   7.762   5.203 -0.3011  0.5805 -0.1004
   87MOL0     C11647   3.630   7.698   5.309 -0.0610  0.0109  0.2103
   87MOL0     C11648   3.482   7.697   5.270 -1.7140 -0.1213  0.2273
   87MOL0     C11649   3.380   7.638   5.362 -0.0779  0.3868  0.1045
   87MOL0     C11650   3.240   7.668   5.317 -0.5831 -0.1239  0.5340
   87MOL0     C11651   3.127   7.633   5.411 -0.2543 -0.2111 -0.2803
   87MOL0     C11652   3.012   7.733   5.410  0.3641  0.0020  0.6407
   87MOL0     C11653   2.953   7.782   5.270 -0.1607 -0.5309 -0.0815
   87MOL0     C11654   2.824   7.871   5.286  0.2716  0.0296  0.3236
   87MOL0    Cl11655   2.885   8.018   5.363 -0.0779 -0.0625 -0.5784
   87MOL0     C11656   3.849   7.932   5.177 -0.0919  0.4418 -0.8844
   87MOL0     C11657   3.949   8.012   5.224 -0.2172 -0.3479  0.0076
   87MOL0     O11658   4.286   7.942   5.457  0.3020  0.1359  0.3582
   87MOL0     C11659   4.516   8.095   5.396 -0.6396 -0.3960  0.9219
   87MOL0     C11660   4.620   8.188   5.399  0.2971 -0.1963 -0.0646
   87MOL0     N11661   5.344   8.592   5.572  0.0398 -0.2355 -0.1410
   87MOL0     N11662   5.461   8.591   5.514  0.1294  0.3321 -0.0190
   87MOL0     C11663   6.545   8.272   5.094  0.5540  0.1177 -0.0283
   87MOL0     C11664   6.676   8.304   5.081 -0.2308  0.7239  0.4519
   87MOL0     C11665   7.087   8.422   4.956 -0.1195 -0.4740  0.7043
   87MOL0     C11666   7.114   8.555   5.001  0.1283  0.9058  0.2473
   87MOL0     C11667   7.248   8.614   4.982  0.5967  0.2876 -1.3257
   87MOL0     C11668   7.347   8.527   4.933  0.2883  0.0637 -0.3427
   87MOL0     O11669   7.478   8.565   4.912  0.1566  0.2972 -0.4095
   87MOL0     C11670   7.507   8.705   4.924 -1.1695  0.1767 -0.5464
   87MOL0     C11671   7.627   8.727   4.828  0.4066  0.4220 -0.1522
   87MOL0     C11672   7.736   8.624   4.862 -1.0960 -0.0220 -0.6826
   87MOL0     C11673   7.871   8.656   4.790 -0.3365 -0.6861  0.0060
   87MOL0     C11674   7.972   8.556   4.821 -0.2320  0.5316 -0.5805
   87MOL0     C11675   8.065   8.478   4.854 -0.3301 -1.1068 -0.6752
   87MOL0     C11676   7.317   8.395   4.884 -0.0983  0.2593  1.2726
   87MOL0     C11677   7.185   8.344   4.889 -0.1950  0.4378 -0.4212
   87MOL0     H11678   6.658   8.587   4.902 -2.6974  0.0239 -2.0797
   87MOL0     H11679   6.416   8.535   4.916  0.1845 -0.3658 -1.4575
   87MOL0     H11680   6.204   8.479   4.988  1.5757  0.6467 -0.7655
   87MOL0     H11681   6.260   8.362   4.874  3.2729  0.0304  0.9631
   87MOL0     H11682   6.064   8.256   4.877 -1.1514  0.9615 -0.1375
   87MOL0     H11683   6.107   8.192   5.035 -1.4148 -0.3591 -1.4288
   87MOL0     H11684   6.019   8.409   5.142 -0.6455 -1.4592  1.7706
   87MOL0     H11685   5.935   8.441   4.984  0.4140  0.4305  1.5198
   87MOL0     H11686   5.849   8.203   5.002  0.5349 -0.2428 -1.6856
   87MOL0     H11687   5.887   8.221   5.174 -2.3307  0.5144  2.0352
   87MOL0     H11688   5.676   8.360   5.019 -0.7135 -0.0352  0.0847
   87MOL0     H11689   5.674   8.258   5.161  0.0642 -0.0001 -0.6523
   87MOL0     H11690   5.830   8.451   5.274  1.1206  3.2913 -0.1698
   87MOL0     H11691   5.779   8.553   5.139  1.3568 -1.1906 -0.8482
   87MOL0     H11692   5.614   8.619   5.306 -2.8150  1.5889 -2.5865
   87MOL0     H11693   5.536   8.493   5.204  0.3229 -1.2219  0.5715
   87MOL0     H11694   5.694   8.456   5.466  0.2356 -1.7352  0.7968
   87MOL0     H11695   5.612   8.323   5.390  0.2014 -0.3077 -1.7000
   87MOL0     H11696   5.341   8.322   5.386 -2.8964 -0.1486 -0.1211
   87MOL0     H11697   5.149   8.365   5.646 -0.7830 -1.2561 -0.3503
   87MOL0     H11698   5.098   8.522   5.611 -0.6698  0.3792  0.0730
   87MOL0     H11699   5.082   8.298   5.406  0.3162  0.4837 -1.3742
   87MOL0     H11700   5.083   8.462   5.353 -1.7056 -1.9549 -1.8727
   87MOL0     H11701   4.890   8.489   5.536 -0.6452  1.8910 -2.6757
   87MOL0     H11702   4.877   8.308   5.533 -2.2199  0.9296  0.4197
   87MOL0     H11703   4.833   8.316   5.288  0.8423 -0.1473 -0.5625
   87MOL0     H11704   4.848   8.481   5.289  0.0385 -1.6579 -2.1569
   87MOL0     H11705   4.426   8.475   5.407  0.2822  0.1340  0.5394
   87MOL0     H11706   4.217   8.447   5.365 -4.3626  0.1118  1.6580
   87MOL0     H11707   4.176   8.309   5.252  1.5476 -1.8819 -0.2860
   87MOL0     H11708   4.145   8.304   5.431  0.6747  2.7524  1.3518
   87MOL0     H11709   4.115   7.791   5.422 -0.4236 -0.0826  1.4281
   87MOL0     H11710   3.914   7.658   5.377  2.8164 -1.4527 -0.9753
   87MOL0     H11711   3.671   7.598   5.325  1.8149  1.0246  2.4611
   87MOL0     H11712   3.640   7.754   5.403 -1.5546 -1.8117  1.5376
   87MOL0     H11713   3.451   7.802   5.277 -0.1452  0.3871  0.0133
   87MOL0     H11714   3.464   7.668   5.166 -1.7470  2.3667 -0.5283
   87MOL0     H11715   3.392   7.675   5.464  0.6840  0.6154 -0.0602
   87MOL0     H11716   3.395   7.530   5.371  0.2579  0.3132 -1.1345
   87MOL0     H11717   3.236   7.777   5.303  1.4273  0.0881  1.3324
   87MOL0     H11718   3.224   7.615   5.222 -1.0886 -0.5587  0.8585
   87MOL0     H11719   3.165   7.626   5.513 -2.3944 -1.6596  0.4848
   87MOL0     H11720   3.090   7.535   5.379 -0.6453  0.2124 -1.1654
   87MOL0     H11721   2.933   7.685   5.469 -0.8959  0.7649 -0.3736
   87MOL0     H11722   3.045   7.826   5.459  3.1352 -0.7562  0.3711
   87MOL0     H11723   2.920   7.699   5.207 -1.1563  1.0790 -1.7588
   87MOL0     H11724   3.027   7.846   5.222 -0.6001 -0.6649 -0.9441
   87MOL0     H11725   2.742   7.832   5.347 -1.2648  1.1538 -0.9442
   87MOL0     H11726   2.794   7.886   5.182 -0.6380  1.8108  0.7952
   87MOL0     H11727   3.773   7.967   5.109 -0.3729  2.6701  0.4648
   87MOL0     H11728   3.947   8.113   5.185 -2.3152 -0.2264  0.3204
   87MOL0     H11729   4.540   7.990   5.403 -3.0017 -1.0830 -0.1712
   87MOL0     H11730   4.721   8.150   5.411  1.3868  2.6352  0.5055
   87MOL0     H11731   6.512   8.177   5.134  1.0712 -1.1674 -2.4771
   87MOL0     H11732   6.757   8.239   5.112 -0.9518 -0.0751  0.6872
   87MOL0     H11733   7.037   8.613   5.051 -0.1445  1.3069 -0.6132
   87MOL0     H11734   7.261   8.710   5.030  4.4641 -1.3963  1.4995
   87MOL0     H11735   7.424   8.767   4.888 -0.1601 -0.0651 -3.6163
   87MOL0     H11736   7.538   8.718   5.028 -0.1162 -0.8280 -0.7055
   87MOL0     H11737   7.665   8.827   4.852  0.1601  0.0197  2.0919
   87MOL0     H11738   7.607   8.711   4.722  0.1718  1.9829 -0.3648
   87MOL0     H11739   7.715   8.520   4.839 -0.7847  0.1070 -1.5762
   87MOL0     H11740   7.753   8.625   4.970 -0.5748  0.7814 -0.7622
   87MOL0     H11741   7.899   8.754   4.831 -3.0244  0.2535 -0.2262
   87MOL0     H11742   7.848   8.667   4.684 -3.0572  3.8020  0.7860
   87MOL0     H11743   8.150   8.416   4.878  2.6648  2.8835  0.1393
   87MOL0     H11744   7.402   8.338   4.848  0.5323  2.8326 -1.7964
   87MOL0     H11745   7.168   8.244   4.851 -0.8916 -0.3465  1.7626
   88MOL0     O11746  10.054   0.668   7.374  0.6077  0.1584  0.1771
   88MOL0     C11747  10.146   0.602   7.408 -0.1462  0.3786 -0.2123
   88MOL0     O11748  10.144   0.514   7.510  0.4130 -0.4868  0.1234
   88MOL0     C11749  10.023   0.478   7.560 -0.1043 -0.2149  0.1605
   88MOL0     C11750   9.931   0.413   7.480  0.0387  0.1955 -0.0778
   88MOL0     C11751   9.804   0.390   7.541  0.0418  0.6217  0.6283
   88MOL0     C11752   9.771   0.418   7.669 -0.3423 -0.1340 -0.1029
   88MOL0     O11753   9.647   0.378   7.715  0.0284 -0.4796 -1.3407
   88MOL0     C11754   9.583   0.453   7.822  0.2331  0.3377 -0.1651
   88MOL0     C11755   9.459   0.390   7.871 -0.4777 -1.0838  0.4567
   88MOL0     C11756   9.406   0.458   7.994  0.0938 -0.2144 -0.3870
   88MOL0     C11757   9.252   0.458   7.994 -0.5657  0.4544 -0.1286
   88MOL0     C11758   9.199   0.522   8.123  0.0081 -0.1360 -0.0720
   88MOL0     C11759   9.047   0.486   8.152 -0.0989 -0.2685  0.6294
   88MOL0     C11760   8.994   0.562   8.269  0.2095 -0.0169 -0.6917
   88MOL0     C11761   8.850   0.506   8.297  0.0506 -0.0236  0.5560
   88MOL0     N11762   8.782   0.567   8.408 -0.1146  0.7899 -0.4496
   88MOL0     C11763   8.836   0.611   8.519  0.0628 -0.5408 -0.4258
   88MOL0     C11764   8.738   0.655   8.590  0.0119  0.0951 -0.1307
   88MOL0     C11765   8.727   0.692   8.729  0.0596 -0.3870  0.2157
   88MOL0     C11766   8.629   0.595   8.796 -0.3369  0.0781  0.5028
   88MOL0     C11767   8.697   0.455   8.815 -0.6822  0.5026  0.5288
   88MOL0     C11768   8.591   0.363   8.869  0.6517 -0.2942  0.3653
   88MOL0     O11769   8.576   0.370   9.012  0.0487 -0.4140 -1.2230
   88MOL0     C11770   8.498   0.474   9.065  0.1373 -0.2425 -0.0138
   88MOL0     C11771   8.365   0.487   9.025  0.2058  0.7091 -0.0161
   88MOL0     C11772   8.287   0.588   9.079 -0.6453  0.8264 -0.4381
   88MOL0     C11773   8.143   0.580   9.052 -0.6592  0.0939 -0.7138
   88MOL0     C11774   8.351   0.686   9.162 -0.3862 -0.9698  0.3216
   88MOL0     C11775   8.286   0.808   9.206  0.0681  0.3902 -0.5553
   88MOL0     O11776   8.374   0.899   9.262  0.1818  0.4197 -0.4923
   88MOL0     C11777   8.310   0.975   9.355  0.4178 -0.6997  0.3688
   88MOL0     C11778   8.308   0.942   9.490  0.2274 -1.0927 -0.0820
   88MOL0     C11779   8.240   1.029   9.583  0.0765 -0.1974 -0.4374
   88MOL0     C11780   8.174   1.146   9.536  0.1078 -0.7633  1.2401
   88MOL0     O11781   8.103   1.228   9.614 -0.0623 -0.7981 -0.5234
   88MOL0     C11782   8.118   1.220   9.752 -0.1346  0.2990 -0.7724
   88MOL0     C11783   8.085   1.349   9.818  0.5868  0.1228  0.3783
   88MOL0     C11784   8.142   1.360   9.957 -0.4885 -0.0139 -0.2265
   88MOL0     C11785   8.109   1.494  10.028  0.0716  0.1288 -1.1700
   88MOL0     C11786   7.964   1.493  10.066  0.6585  0.1708 -0.3493
   88MOL0     C11787   7.927   1.597  10.167 -0.4331 -0.3974 -0.1520
   88MOL0     C11788   7.788   1.581  10.235  0.2429 -0.3013  0.3851
   88MOL0     C11789   7.791   1.484  10.346  0.3333  0.5572 -0.5654
   88MOL0    Cl11790   7.621   1.459  10.388  0.0446 -0.3515  0.2220
   88MOL0     C11791   8.176   1.167   9.398  0.3823 -0.0485  0.4971
   88MOL0     C11792   8.246   1.093   9.312  0.0375 -0.2970  0.2993
   88MOL0     O11793   8.162   0.813   9.206 -0.0688  0.3103  0.5103
   88MOL0     C11794   8.477   0.660   9.204  0.1731  0.3415 -0.2443
   88MOL0     C11795   8.553   0.554   9.159  0.3244 -0.1574 -0.5455
   88MOL0     N11796   8.617   0.640   8.518 -0.5798 -0.7840 -1.0183
   88MOL0     N11797   8.650   0.598   8.408  0.6369  0.1586 -0.3566
   88MOL0     C11798   9.871   0.472   7.748  0.2722 -0.2838  0.2558
   88MOL0     C11799   9.992   0.507   7.694  0.0827  0.5186 -0.1914
   88MOL0     C11800  10.280   0.635   7.353  0.3218  0.4216  0.1210
   88MOL0     C11801  10.300   0.761   7.292  0.0306 -1.0513  0.4319
   88MOL0     C11802  10.433   0.801   7.262 -0.1948 -0.4177  0.9704
   88MOL0     C11803  10.548   0.718   7.284 -0.5972  0.5111  0.2530
   88MOL0     O11804  10.675   0.742   7.237 -0.1564 -0.2496 -0.0220
   88MOL0     C11805  10.708   0.880   7.189  0.4616  1.4450 -0.3723
   88MOL0     C11806  10.845   0.904   7.148 -0.8690  0.0738  0.6145
   88MOL0     C11807  10.945   0.880   7.258  0.7233 -0.4636  0.5658
   88MOL0     C11808  11.084   0.908   7.203 -0.7339 -0.2673  0.0382
   88MOL0     C11809  11.179   0.862   7.305 -0.5584 -0.6010 -0.3040
   88MOL0     C11810  11.255   0.811   7.377  0.3448 -0.1094  0.2287
   88MOL0     C11811  10.512   0.596   7.345  0.7231 -0.2381 -0.9877
   88MOL0     C11812  10.387   0.556   7.396 -0.4839 -0.1844  0.3052
   88MOL0     H11813   9.963   0.372   7.385  2.3768 -0.7188  1.0328
   88MOL0     H11814   9.732   0.338   7.478  3.9024 -2.1754 -1.9944
   88MOL0     H11815   9.644   0.466   7.912 -0.1350  2.7125 -0.1939
   88MOL0     H11816   9.565   0.553   7.782  0.7752 -0.7335 -3.3765
   88MOL0     H11817   9.392   0.387   7.785  0.1877  0.7358 -0.1715
   88MOL0     H11818   9.497   0.290   7.897 -0.0940 -1.2475 -0.6802
   88MOL0     H11819   9.446   0.414   8.086 -0.2272  0.7788  0.2540
   88MOL0     H11820   9.446   0.560   7.992 -0.5170  0.0705  0.6900
   88MOL0     H11821   9.218   0.512   7.905 -1.3695  1.2438  0.6365
   88MOL0     H11822   9.224   0.353   8.001  0.7222  0.1649  1.2717
   88MOL0     H11823   9.250   0.485   8.212 -1.8996 -2.4452  0.1467
   88MOL0     H11824   9.209   0.631   8.116  0.2068 -0.1071  0.5684
   88MOL0     H11825   8.992   0.512   8.062 -3.1780 -1.1506  2.1143
   88MOL0     H11826   9.037   0.378   8.166  0.5536 -0.2864  1.0333
   88MOL0     H11827   9.070   0.549   8.347 -1.0795  0.5236  0.7129
   88MOL0     H11828   8.987   0.669   8.245 -1.8190  0.5639  2.0605
   88MOL0     H11829   8.859   0.398   8.311  2.0101  0.2256  1.5479
   88MOL0     H11830   8.777   0.523   8.217  0.4820 -1.6984 -0.2308
   88MOL0     H11831   8.939   0.598   8.553  0.3867  1.4598 -0.4825
   88MOL0     H11832   8.824   0.691   8.781  0.3281 -3.9329 -0.0704
   88MOL0     H11833   8.679   0.789   8.741 -1.1947 -0.8019 -1.2764
   88MOL0     H11834   8.541   0.564   8.740 -0.3349 -1.0971  1.1046
   88MOL0     H11835   8.609   0.646   8.891  1.1941  0.3385  0.7140
   88MOL0     H11836   8.778   0.461   8.888  2.7807 -1.0260 -2.8314
   88MOL0     H11837   8.730   0.411   8.720 -2.0787  1.3016 -0.3551
   88MOL0     H11838   8.607   0.260   8.836 -1.1446 -1.5245  3.0121
   88MOL0     H11839   8.496   0.379   8.817  1.6023 -1.0777 -1.7176
   88MOL0     H11840   8.312   0.413   8.965 -1.1161 -0.6088  2.5768
   88MOL0     H11841   8.105   0.664   8.994  1.2631  2.1191  0.7987
   88MOL0     H11842   8.102   0.489   9.007 -2.6235  0.1895  0.6973
   88MOL0     H11843   8.090   0.579   9.148  3.2155  1.2373  1.6739
   88MOL0     H11844   8.352   0.854   9.536  0.6122  0.3904  2.6193
   88MOL0     H11845   8.249   0.995   9.686 -4.5507  0.6622  0.4650
   88MOL0     H11846   8.042   1.147   9.782  0.7970 -0.5576 -0.4176
   88MOL0     H11847   8.215   1.177   9.779 -1.9863 -2.3409  2.6561
   88MOL0     H11848   8.122   1.430   9.755  1.7354  2.2948  3.6063
   88MOL0     H11849   7.976   1.360   9.829  0.5880  0.1676  0.3440
   88MOL0     H11850   8.251   1.362   9.947 -0.1292 -2.8538  1.7943
   88MOL0     H11851   8.118   1.269  10.012 -1.8485  1.0648  1.0195
   88MOL0     H11852   8.159   1.498  10.125 -0.4574  2.2155 -0.9303
   88MOL0     H11853   8.139   1.582   9.970  0.3867  0.1708 -0.9457
   88MOL0     H11854   7.945   1.394  10.109  0.7284  1.0107  1.7573
   88MOL0     H11855   7.899   1.506   9.980 -1.2696  0.3575  1.0729
   88MOL0     H11856   8.000   1.591  10.248 -0.8458 -0.3200  0.2358
   88MOL0     H11857   7.933   1.699  10.127  3.1140  0.6728  2.5593
   88MOL0     H11858   7.716   1.549  10.159 -1.2303  0.4938  1.4016
   88MOL0     H11859   7.758   1.681  10.267  1.2540 -0.4607  1.9452
   88MOL0     H11860   7.847   1.517  10.433 -0.4776  2.7270 -0.8240
   88MOL0     H11861   7.820   1.383  10.316 -0.8205 -0.9012  2.7503
   88MOL0     H11862   8.127   1.257   9.362  2.4295 -0.1435 -2.9963
   88MOL0     H11863   8.231   1.120   9.208 -2.3196  0.7908  0.8641
   88MOL0     H11864   8.515   0.722   9.285 -3.7003  2.0393  0.4848
   88MOL0     H11865   8.657   0.540   9.187 -0.2302 -3.3505  0.4054
   88MOL0     H11866   9.849   0.498   7.851 -1.6944 -1.0988  0.0746
   88MOL0     H11867  10.064   0.559   7.757 -1.4665  0.6663  1.5299
   88MOL0     H11868  10.222   0.836   7.280  1.2329  0.3776  1.2623
   88MOL0     H11869  10.439   0.897   7.212 -1.3313 -0.8435 -0.0315
   88MOL0     H11870  10.639   0.899   7.106 -2.7208  1.6243  2.1415
   88MOL0     H11871  10.674   0.946   7.268 -0.4129 -0.5618  1.0010
   88MOL0     H11872  10.854   1.007   7.112 -2.0814  0.0809  0.2929
   88MOL0     H11873  10.858   0.834   7.065  1.1324 -0.4433  1.3034
   88MOL0     H11874  10.934   0.778   7.298  1.3292 -0.4783  0.6919
   88MOL0     H11875  10.930   0.946   7.344 -0.2227  1.1420 -0.7923
   88MOL0     H11876  11.089   1.017   7.202  0.4853 -0.2880  1.3467
   88MOL0     H11877  11.106   0.862   7.106 -2.7554  3.6281 -2.5357
   88MOL0     H11878  11.313   0.742   7.434 -0.2580 -1.4665 -0.7453
   88MOL0     H11879  10.595   0.530   7.366  1.2026  1.2907  2.7182
   88MOL0     H11880  10.370   0.470   7.459 -0.5409 -1.8739 -1.8729
   89MOL0     O11881   3.142   2.792   4.175  0.1222  0.1827  0.4855
   89MOL0     C11882   3.198   2.771   4.283 -0.4678 -0.0720  0.6066
   89MOL0     O11883   3.161   2.824   4.405 -0.2427  0.1387 -0.3840
   89MOL0     C11884   3.062   2.914   4.421  0.3038 -0.2582 -0.4014
   89MOL0     C11885   2.990   2.982   4.317 -0.2311  0.0618 -1.2041
   89MOL0     C11886   2.898   3.083   4.363 -0.6723  1.2752 -0.4209
   89MOL0     C11887   2.866   3.094   4.503  0.0358  0.3562  0.1989
   89MOL0     O11888   2.752   3.163   4.531 -0.1384 -0.2585 -0.5259
   89MOL0     C11889   2.644   3.070   4.548 -0.8100 -0.4973  0.4384
   89MOL0     C11890   2.546   3.134   4.648 -0.3253 -0.1793 -0.1303
   89MOL0     C11891   2.482   3.267   4.606 -0.6294  0.0050 -0.1623
   89MOL0     C11892   2.359   3.244   4.516  0.8449 -0.2149 -0.0579
   89MOL0     C11893   2.266   3.359   4.526  0.1030 -0.0225 -0.7699
   89MOL0     C11894   2.192   3.374   4.666  0.3909 -0.7911  0.8502
   89MOL0     C11895   2.158   3.527   4.676  0.2620 -0.3086 -0.3314
   89MOL0     C11896   2.083   3.553   4.811 -0.3044  0.5180 -0.4406
   89MOL0     N11897   1.940   3.562   4.810  0.3694 -0.1213 -0.2807
   89MOL0     C11898   1.859   3.651   4.738 -0.8656  0.1804 -0.1535
   89MOL0     C11899   1.723   3.627   4.759 -0.6447  0.1889  0.2515
   89MOL0     C11900   1.607   3.698   4.698  0.4606  0.8225 -0.1068
   89MOL0     C11901   1.621   3.849   4.712  0.1596  0.3532 -0.6228
   89MOL0     C11902   1.529   3.943   4.628  0.3796 -0.3017  0.1448
   89MOL0     C11903   1.385   3.946   4.689 -0.4417 -0.0585  0.4935
   89MOL0     O11904   1.305   4.027   4.600  0.0363 -0.0570  0.0724
   89MOL0     C11905   1.173   4.063   4.631  0.6704  0.0684 -0.4639
   89MOL0     C11906   1.094   4.145   4.544 -0.3391  0.1542  0.3415
   89MOL0     C11907   0.969   4.182   4.569 -0.5930 -0.2590 -0.3864
   89MOL0     C11908   0.897   4.264   4.466 -0.1893 -0.4153 -0.4551
   89MOL0     C11909   0.905   4.135   4.685  0.1902 -0.3336  0.8353
   89MOL0     C11910   0.765   4.160   4.727  0.1312  0.4041 -0.8414
   89MOL0     O11911   0.729   4.295   4.748 -0.0960  0.2559  0.3273
   89MOL0     C11912   0.598   4.334   4.776 -1.6344  1.3007  0.5112
   89MOL0     C11913   0.519   4.280   4.875  0.1093  0.4741  0.4382
   89MOL0     C11914   0.396   4.331   4.906 -0.0926 -0.8483 -0.0902
   89MOL0     C11915   0.327   4.426   4.822 -0.2257 -0.0869 -0.1747
   89MOL0     O11916   0.198   4.461   4.860 -0.3899  0.4660 -0.4179
   89MOL0     C11917   0.141   4.561   4.783  0.9867 -0.1356 -0.3321
   89MOL0     C11918  -0.006   4.596   4.829  0.2951  0.6945 -0.6551
   89MOL0     C11919  -0.085   4.465   4.828 -0.4460 -1.0034 -0.0763
   89MOL0     C11920  -0.232   4.492   4.862  0.2594  0.1845 -0.2754
   89MOL0     C11921  -0.327   4.385   4.829  0.2457 -0.7265 -1.0661
   89MOL0     C11922  -0.475   4.433   4.848 -0.3230  0.7840  0.0296
   89MOL0     C11923  -0.519   4.475   4.996  1.4516 -0.1800  0.2869
   89MOL0     C11924  -0.675   4.453   5.015 -0.6695 -0.3386  0.1532
   89MOL0    Cl11925  -0.779   4.551   4.903 -0.3749  0.4412 -0.3837
   89MOL0     C11926   0.406   4.478   4.713 -0.8209  1.2394 -0.6742
   89MOL0     C11927   0.540   4.436   4.701 -0.1539  0.0122 -0.4191
   89MOL0     O11928   0.700   4.062   4.768 -0.6852  0.3204 -0.4965
   89MOL0     C11929   0.975   4.039   4.765  0.1555  0.2524  0.3675
   89MOL0     C11930   1.105   4.003   4.742  0.1053 -0.9058 -0.7781
   89MOL0     N11931   1.727   3.516   4.848  0.0955  0.8092  0.0767
   89MOL0     N11932   1.855   3.488   4.879  0.0395 -0.1008 -0.2625
   89MOL0     C11933   2.939   3.030   4.604  0.1686  0.1019  0.1436
   89MOL0     C11934   3.037   2.939   4.559  0.1538 -0.6022 -0.0841
   89MOL0     C11935   3.320   2.686   4.288  0.7918  0.1448  0.6823
   89MOL0     C11936   3.408   2.684   4.392 -0.1749 -0.3169 -0.1637
   89MOL0     C11937   3.515   2.598   4.411 -0.1179 -0.0444  0.2715
   89MOL0     C11938   3.553   2.520   4.306  0.1397  1.6461 -0.2424
   89MOL0     O11939   3.663   2.450   4.340  0.3920  0.5209  0.5067
   89MOL0     C11940   3.745   2.406   4.234 -0.9944 -0.0262  0.4762
   89MOL0     C11941   3.883   2.379   4.297 -0.6060  0.0752  0.6420
   89MOL0     C11942   3.974   2.299   4.200  0.0195  0.2319 -0.1241
   89MOL0     C11943   4.108   2.270   4.261  0.3794 -0.0168 -0.0905
   89MOL0     C11944   4.213   2.269   4.160  0.3917  0.3411  0.3232
   89MOL0     C11945   4.298   2.246   4.071  0.4468  0.2828  0.2405
   89MOL0     C11946   3.475   2.521   4.188 -0.3679 -0.0288  0.1403
   89MOL0     C11947   3.360   2.602   4.185 -0.7697  0.6348  0.0890
   89MOL0     H11948   3.000   2.967   4.210  2.1149 -2.6862 -0.7440
   89MOL0     H11949   2.846   3.141   4.288 -0.2726  0.7665 -1.1030
   89MOL0     H11950   2.603   3.056   4.447  2.2031  0.6969 -1.0800
   89MOL0     H11951   2.687   2.975   4.579  1.8719  0.3904 -0.2224
   89MOL0     H11952   2.461   3.067   4.667 -2.3786  2.5052  0.7637
   89MOL0     H11953   2.600   3.155   4.741  2.7392  3.7790 -2.4618
   89MOL0     H11954   2.448   3.315   4.698 -3.9435  0.8148 -1.6729
   89MOL0     H11955   2.566   3.325   4.566  0.4292 -0.2602  1.5644
   89MOL0     H11956   2.382   3.225   4.410  1.6944 -1.7369  0.3711
   89MOL0     H11957   2.300   3.161   4.555 -0.9979  0.8853 -0.3626
   89MOL0     H11958   2.325   3.450   4.509  1.3682 -0.7865 -0.6416
   89MOL0     H11959   2.192   3.348   4.446 -1.9850  0.0014  1.0714
   89MOL0     H11960   2.100   3.315   4.674 -2.4195  2.6861 -2.0366
   89MOL0     H11961   2.258   3.350   4.750 -0.0037 -2.5099  0.7014
   89MOL0     H11962   2.254   3.579   4.672  0.5257 -0.7748 -4.6390
   89MOL0     H11963   2.108   3.570   4.589  2.7820  3.4759 -0.1474
   89MOL0     H11964   2.115   3.649   4.854  3.5933 -1.3826  1.4118
   89MOL0     H11965   2.115   3.477   4.883 -0.8224  1.8715  1.3023
   89MOL0     H11966   1.894   3.725   4.666 -1.8489 -0.3534 -1.2049
   89MOL0     H11967   1.598   3.666   4.594 -0.8231 -1.8162  0.7270
   89MOL0     H11968   1.517   3.667   4.752 -0.1318  0.6827 -1.1431
   89MOL0     H11969   1.724   3.869   4.683  0.4925 -0.6193 -0.1352
   89MOL0     H11970   1.610   3.866   4.820  0.5360 -0.2349 -0.4927
   89MOL0     H11971   1.513   3.909   4.525 -2.2379 -0.1851  0.4590
   89MOL0     H11972   1.565   4.046   4.631 -0.6614  0.1005 -0.6539
   89MOL0     H11973   1.378   3.994   4.787 -2.2787  2.0609 -0.5725
   89MOL0     H11974   1.341   3.846   4.686 -3.4140  1.1358 -2.7028
   89MOL0     H11975   1.144   4.175   4.452 -0.4454 -1.4888 -0.2816
   89MOL0     H11976   0.967   4.309   4.395 -1.5582 -0.0257 -1.6093
   89MOL0     H11977   0.840   4.196   4.402  0.5343 -0.8718 -0.6246
   89MOL0     H11978   0.823   4.329   4.514  0.1724  0.5213 -1.1263
   89MOL0     H11979   0.553   4.196   4.935  1.4704 -0.7799 -1.9212
   89MOL0     H11980   0.354   4.301   5.001  1.9424 -1.0356  0.8095
   89MOL0     H11981   0.199   4.653   4.769  0.3779  0.5454  1.3752
   89MOL0     H11982   0.121   4.532   4.680  0.3484  1.6426 -0.7346
   89MOL0     H11983  -0.005   4.645   4.926  1.0443 -3.8475  1.9107
   89MOL0     H11984  -0.049   4.663   4.754  0.7134 -1.7043 -3.2178
   89MOL0     H11985  -0.032   4.397   4.895 -0.0656  1.1600  1.9394
   89MOL0     H11986  -0.085   4.424   4.726  0.0369 -0.1130 -0.4519
   89MOL0     H11987  -0.231   4.531   4.965 -2.4964  0.2864 -0.1991
   89MOL0     H11988  -0.272   4.582   4.814  0.0229 -0.0268 -0.4783
   89MOL0     H11989  -0.308   4.304   4.901  1.0820  1.3978  1.2608
   89MOL0     H11990  -0.320   4.348   4.726 -1.8150  0.2162 -1.5915
   89MOL0     H11991  -0.491   4.520   4.783  0.9323  1.5948  0.7531
   89MOL0     H11992  -0.544   4.356   4.812 -1.0671  1.9416 -1.0907
   89MOL0     H11993  -0.499   4.580   5.016  2.1410 -0.6448  2.2465
   89MOL0     H11994  -0.471   4.413   5.072 -1.7093 -1.5004  1.3926
   89MOL0     H11995  -0.707   4.485   5.115  0.1543  2.0655 -0.2791
   89MOL0     H11996  -0.693   4.346   5.000 -0.5062 -0.4177  0.5228
   89MOL0     H11997   0.367   4.560   4.654 -1.9258  0.0153 -1.7101
   89MOL0     H11998   0.590   4.477   4.614  0.9727 -1.3130 -0.4461
   89MOL0     H11999   0.935   3.994   4.856 -0.7866  1.3870  0.5347
   89MOL0     H12000   1.156   3.944   4.817  0.6814 -0.9469 -1.1934
   89MOL0     H12001   2.927   3.076   4.701  1.7937 -0.0895  0.4602
   89MOL0     H12002   3.101   2.884   4.627  1.6204  1.1785  0.0629
   89MOL0     H12003   3.392   2.745   4.480  2.4862 -0.0642  0.2229
   89MOL0     H12004   3.587   2.597   4.492  1.0805  1.0224 -0.7366
   89MOL0     H12005   3.700   2.324   4.178  1.4621 -1.9073  1.0665
   89MOL0     H12006   3.767   2.485   4.162 -1.0140  0.1394  0.6481
   89MOL0     H12007   3.865   2.319   4.387  2.2562  1.4182  2.2250
   89MOL0     H12008   3.933   2.468   4.334 -0.9384 -0.1309  1.6408
   89MOL0     H12009   3.985   2.366   4.115  0.7489  0.0939 -0.1474
   89MOL0     H12010   3.933   2.202   4.169 -0.9492 -0.3479  2.6530
   89MOL0     H12011   4.104   2.174   4.315 -4.4714 -0.0565 -0.0192
   89MOL0     H12012   4.137   2.348   4.332  1.8266  0.9750 -1.7027
   89MOL0     H12013   4.372   2.235   3.995  0.6132  0.3234  0.3942
   89MOL0     H12014   3.504   2.456   4.105 -1.0091 -1.6757  1.1715
   89MOL0     H12015   3.300   2.624   4.097 -0.7025  2.5957  0.4882
   90MOL0     O12016   3.083  11.065  10.977 -0.1809 -0.3779 -0.2091
   90MOL0     C12017   3.188  11.009  11.005  0.2253 -0.7334 -0.8846
   90MOL0     O12018   3.308  11.018  10.936 -0.3898 -0.3646 -0.4983
   90MOL0     C12019   3.324  11.072  10.806  0.5542  0.3650 -0.1401
   90MOL0     C12020   3.451  11.052  10.742  1.0178  0.0732 -0.2228
   90MOL0     C12021   3.467  11.095  10.614  0.0541 -0.1543  0.7350
   90MOL0     C12022   3.366  11.158  10.543  0.2987  0.5244  0.1268
   90MOL0     O12023   3.386  11.198  10.420 -0.0003  0.0815  0.0642
   90MOL0     C12024   3.414  11.086  10.336 -0.7898 -0.3543 -0.9433
   90MOL0     C12025   3.385  11.109  10.190 -0.0500 -0.3743  0.7075
   90MOL0     C12026   3.239  11.069  10.141 -0.4583  0.0068  0.1455
   90MOL0     C12027   3.139  11.170  10.206  0.0729 -0.1282  0.5652
   90MOL0     C12028   3.008  11.179  10.127  0.5250  1.5298  0.2300
   90MOL0     C12029   2.928  11.052  10.109  0.3735  0.8630  0.6367
   90MOL0     C12030   2.817  11.073   9.995 -0.1510 -0.9686 -0.7590
   90MOL0     C12031   2.728  10.952   9.997  0.4817 -0.3156  0.1273
   90MOL0     N12032   2.808  10.839   9.947 -0.3650  0.5507  0.1720
   90MOL0     C12033   2.862  10.737  10.012 -0.8030  0.1499 -0.1191
   90MOL0     C12034   2.935  10.664   9.918 -0.8853  0.0325  0.1465
   90MOL0     C12035   2.998  10.529   9.937 -0.4242  0.0706 -0.9135
   90MOL0     C12036   2.892  10.408   9.920  0.2015  0.4307  0.2477
   90MOL0     C12037   2.800  10.425   9.802  0.5792  0.2516 -0.0300
   90MOL0     C12038   2.664  10.475   9.844 -0.0017 -0.0484  0.6942
   90MOL0     O12039   2.589  10.385   9.916  0.5307 -0.2882 -0.0364
   90MOL0     C12040   2.453  10.406   9.931 -0.3035 -0.4022 -0.0732
   90MOL0     C12041   2.390  10.314  10.022 -0.0026  0.9127  0.0670
   90MOL0     C12042   2.249  10.299  10.027 -0.3456 -0.3985 -0.8140
   90MOL0     C12043   2.188  10.213  10.132  0.0149  0.3337  0.7485
   90MOL0     C12044   2.166  10.391   9.951 -0.2142  0.1380  0.2535
   90MOL0     C12045   2.024  10.386   9.952  0.9528  0.4073  0.3485
   90MOL0     O12046   1.967  10.263   9.939  0.0029  0.0490 -0.1092
   90MOL0     C12047   1.831  10.242   9.970 -0.0396  1.0045 -0.5056
   90MOL0     C12048   1.792  10.188  10.090  0.1940 -0.1987 -0.8295
   90MOL0     C12049   1.653  10.183  10.123 -0.6038  0.8412  0.7629
   90MOL0     C12050   1.552  10.226  10.028  0.5449 -1.0242 -1.0737
   90MOL0     O12051   1.418  10.240  10.048 -0.2908  0.8687 -0.3912
   90MOL0     C12052   1.377  10.210  10.178  0.7342 -0.3645  0.4528
   90MOL0     C12053   1.231  10.275  10.204 -0.9548 -0.5575 -0.6703
   90MOL0     C12054   1.140  10.162  10.222 -0.1958 -0.5374  0.5994
   90MOL0     C12055   1.007  10.214  10.265  0.1896 -0.2968 -0.4562
   90MOL0     C12056   0.913  10.092  10.279 -0.5264  0.3581  0.0875
   90MOL0     C12057   0.768  10.140  10.322  0.2756  0.1291 -0.8524
   90MOL0     C12058   0.667  10.023  10.350  0.6288  0.4038 -0.5913
   90MOL0     C12059   0.525  10.059  10.324  0.3914 -0.3446  0.3960
   90MOL0    Cl12060   0.419   9.915  10.351  0.0217  0.2084 -0.2862
   90MOL0     C12061   1.602  10.273   9.907  0.2765 -0.1588 -0.5368
   90MOL0     C12062   1.736  10.285   9.883 -0.1597  0.8034  0.8172
   90MOL0     O12063   1.953  10.484   9.978 -0.4202 -0.0177 -0.1188
   90MOL0     C12064   2.227  10.474   9.864  0.8040  0.1336  0.5596
   90MOL0     C12065   2.367  10.489   9.857  0.2079 -0.7358  0.3977
   90MOL0     N12066   2.923  10.737   9.799 -0.2349 -0.3735  0.2724
   90MOL0     N12067   2.842  10.836   9.812  0.6344 -0.5687 -1.3391
   90MOL0     C12068   3.260  11.199  10.608  0.6798 -0.3629 -0.4935
   90MOL0     C12069   3.230  11.155  10.739  0.3393  0.4386 -0.6487
   90MOL0     C12070   3.194  10.945  11.140 -0.7559  0.3200 -0.0145
   90MOL0     C12071   3.294  10.844  11.170  0.2360 -0.3844  0.0922
   90MOL0     C12072   3.299  10.797  11.301  1.0602 -0.3082  0.3461
   90MOL0     C12073   3.203  10.824  11.396 -0.1568  1.1145  0.2027
   90MOL0     O12074   3.204  10.772  11.526 -0.0429 -0.4081  0.1708
   90MOL0     C12075   3.091  10.773  11.614 -0.0703  0.3997  0.0541
   90MOL0     C12076   3.005  10.647  11.573  0.8485 -0.3195 -1.2298
   90MOL0     C12077   2.906  10.616  11.685 -1.0476 -0.1998 -0.9503
   90MOL0     C12078   2.817  10.495  11.624 -1.0579 -0.0003  1.4095
   90MOL0     C12079   2.710  10.449  11.712  0.2416 -0.1644  0.5045
   90MOL0     C12080   2.615  10.399  11.776  0.1817  0.1012  0.5166
   90MOL0     C12081   3.105  10.913  11.359 -0.2593 -0.4416  0.3459
   90MOL0     C12082   3.098  10.976  11.232 -0.1210 -0.3250  0.1906
   90MOL0     H12083   3.533  10.996  10.787 -0.0231 -1.5333 -0.2241
   90MOL0     H12084   3.564  11.077  10.570 -0.3218  0.7590 -0.5404
   90MOL0     H12085   3.521  11.064  10.347 -0.4101  1.7233 -0.1128
   90MOL0     H12086   3.358  10.999  10.372 -2.3498  1.5408  1.5382
   90MOL0     H12087   3.399  11.215  10.168  0.6929 -0.5050  0.5161
   90MOL0     H12088   3.462  11.061  10.129 -1.7322 -2.0939 -0.1928
   90MOL0     H12089   3.245  11.096  10.035 -0.8554  0.1073  0.1484
   90MOL0     H12090   3.201  10.967  10.150  0.8220 -1.0865 -4.2724
   90MOL0     H12091   3.123  11.148  10.312  2.1178 -1.0785  0.7241
   90MOL0     H12092   3.186  11.269  10.201 -0.7621  0.2734  0.5281
   90MOL0     H12093   2.946  11.261  10.164 -1.8969 -0.8619  1.8754
   90MOL0     H12094   3.042  11.212  10.028  1.2530  1.3228  0.4122
   90MOL0     H12095   2.993  10.973  10.073  1.9015  2.0909  0.6004
   90MOL0     H12096   2.879  11.028  10.205 -1.2388  0.5782 -0.2157
   90MOL0     H12097   2.744  11.149  10.026  0.0826 -1.0388 -0.0196
   90MOL0     H12098   2.854  11.105   9.897  1.4101  2.0163  0.6775
   90MOL0     H12099   2.653  10.969   9.919  0.9249  2.2276  0.1908
   90MOL0     H12100   2.691  10.927  10.096  3.3053 -1.9598  0.8762
   90MOL0     H12101   2.840  10.700  10.112 -1.4266 -1.1223 -0.7018
   90MOL0     H12102   3.091  10.517   9.881  0.0631  1.4789 -0.4313
   90MOL0     H12103   3.029  10.519  10.041 -2.0281  0.8552 -0.3181
   90MOL0     H12104   2.841  10.408  10.017  2.4225  0.1059  1.4801
   90MOL0     H12105   2.953  10.317   9.915  0.8176  0.7909  1.0478
   90MOL0     H12106   2.776  10.332   9.748  1.2778  0.3415 -0.5177
   90MOL0     H12107   2.841  10.498   9.731 -0.6654 -0.1627 -1.2373
   90MOL0     H12108   2.600  10.508   9.762 -0.8546 -2.2391  0.4151
   90MOL0     H12109   2.688  10.569   9.895  0.1862 -0.0989  0.7033
   90MOL0     H12110   2.447  10.243  10.079 -2.7850 -0.9461  0.7634
   90MOL0     H12111   2.167  10.117  10.083 -0.1127 -0.0355  1.5135
   90MOL0     H12112   2.241  10.189  10.224 -0.7149  1.3466  1.4578
   90MOL0     H12113   2.094  10.264  10.155  0.4576  1.7882 -0.5263
   90MOL0     H12114   1.869  10.149  10.155  1.3678  1.6131 -1.0832
   90MOL0     H12115   1.629  10.136  10.218 -1.1073 -0.5660 -0.0429
   90MOL0     H12116   1.376  10.102  10.193 -1.1670 -0.7370 -1.6996
   90MOL0     H12117   1.437  10.255  10.257 -1.3955  0.1224  1.8833
   90MOL0     H12118   1.230  10.335  10.296 -0.2041 -0.0533 -0.9794
   90MOL0     H12119   1.205  10.344  10.123  1.0397  1.7907  0.5306
   90MOL0     H12120   1.182  10.089  10.292 -1.8255 -1.1366  1.0064
   90MOL0     H12121   1.125  10.112  10.126  0.0682 -1.3786  0.9815
   90MOL0     H12122   1.022  10.261  10.362 -0.6556  0.2330 -0.5684
   90MOL0     H12123   0.960  10.286  10.197 -3.7568 -0.5979  1.6641
   90MOL0     H12124   0.952  10.009  10.339 -1.4338  0.9218  1.5246
   90MOL0     H12125   0.906  10.069  10.173 -1.6123  0.6944  0.0695
   90MOL0     H12126   0.764  10.220  10.396 -4.2420  1.6303 -2.3709
   90MOL0     H12127   0.728  10.192  10.235 -2.4176  1.1572  0.8747
   90MOL0     H12128   0.670   9.991  10.455 -0.2469 -0.1562 -0.7229
   90MOL0     H12129   0.688   9.932  10.293  0.5093  0.1485 -0.2338
   90MOL0     H12130   0.521  10.083  10.217 -1.8863 -3.9201 -0.4917
   90MOL0     H12131   0.482  10.148  10.372 -1.3827 -1.1684  0.4288
   90MOL0     H12132   1.528  10.307   9.835 -1.8336  0.0524  1.6123
   90MOL0     H12133   1.782  10.339   9.801 -0.4265  1.4856  1.1164
   90MOL0     H12134   2.165  10.537   9.800  1.3022  2.0029  1.8296
   90MOL0     H12135   2.402  10.560   9.783 -0.4435 -1.3564 -0.5262
   90MOL0     H12136   3.198  11.260  10.543  1.0442  1.8409  1.1241
   90MOL0     H12137   3.135  11.187  10.783  1.5351 -2.3984  4.9778
   90MOL0     H12138   3.375  10.820  11.102  1.3429  1.8797  0.4890
   90MOL0     H12139   3.373  10.725  11.333  0.5642 -0.6174  0.8064
   90MOL0     H12140   3.131  10.762  11.715  1.2562 -0.5085 -0.5386
   90MOL0     H12141   3.035  10.867  11.616 -0.2280  0.2955  0.5585
   90MOL0     H12142   3.078  10.565  11.569  1.5586  0.0132  1.9523
   90MOL0     H12143   2.953  10.668  11.480  0.1083  0.9602 -0.5581
   90MOL0     H12144   2.856  10.710  11.710  1.5967  0.9183  0.5639
   90MOL0     H12145   2.960  10.584  11.774 -2.8832  1.9026  1.0567
   90MOL0     H12146   2.881  10.406  11.624 -1.3997 -0.2515  0.6088
   90MOL0     H12147   2.775  10.520  11.526 -1.0814 -4.3076  0.1425
   90MOL0     H12148   2.527  10.368  11.829  0.4901  1.1430  1.6895
   90MOL0     H12149   3.012  10.936  11.411 -0.7221  2.4081 -1.4924
   90MOL0     H12150   3.022  11.050  11.208  1.0458  0.4105 -1.5167
   91MOL0     O12151   6.247   8.077   0.927  0.2244  0.3207 -0.1871
   91MOL0     C12152   6.249   8.094   1.047 -0.0835  0.1468 -0.1908
   91MOL0     O12153   6.146   8.094   1.132  0.6757 -0.4895 -0.7883
   91MOL0     C12154   6.035   8.021   1.097 -0.2884 -0.0125 -0.9252
   91MOL0     C12155   6.045   7.886   1.064 -0.5833  0.4269  0.1319
   91MOL0     C12156   5.920   7.809   1.025  0.1243 -0.2619 -0.4575
   91MOL0     C12157   5.797   7.884   1.022 -0.4723  0.3826 -0.4348
   91MOL0     O12158   5.676   7.816   1.012 -0.4505 -0.5819 -0.1839
   91MOL0     C12159   5.666   7.691   0.939 -0.0452 -0.5056 -0.6361
   91MOL0     C12160   5.630   7.579   1.042  0.5880 -0.3406 -0.3879
   91MOL0     C12161   5.537   7.618   1.158  0.1549 -0.4786  0.5710
   91MOL0     C12162   5.465   7.503   1.225 -0.3048  0.3627 -0.1535
   91MOL0     C12163   5.369   7.556   1.327 -0.4906  0.3165 -0.5231
   91MOL0     C12164   5.244   7.463   1.364 -0.5330 -0.4099  1.1630
   91MOL0     C12165   5.288   7.331   1.401 -0.7128  0.7162  0.3435
   91MOL0     C12166   5.374   7.326   1.534  0.8330  0.0285 -0.0844
   91MOL0     N12167   5.423   7.190   1.556 -0.0413 -0.0900  0.8180
   91MOL0     C12168   5.547   7.151   1.567  0.0114  0.0081  0.5020
   91MOL0     C12169   5.551   7.026   1.602  0.3310  1.0696  0.0871
   91MOL0     C12170   5.668   6.941   1.621  0.2806 -0.5468  1.3320
   91MOL0     C12171   5.726   6.956   1.766  0.2961 -0.4140 -0.2924
   91MOL0     C12172   5.876   6.903   1.783 -0.2710  0.6104 -0.5435
   91MOL0     C12173   5.938   6.946   1.907  0.1162 -0.1440  0.2169
   91MOL0     O12174   6.032   6.855   1.958 -0.1819 -0.2538 -0.3909
   91MOL0     C12175   6.165   6.856   1.918  0.4894  0.0910  0.0695
   91MOL0     C12176   6.215   6.922   1.806  0.1670  0.1117  0.4055
   91MOL0     C12177   6.358   6.921   1.777 -0.0464  0.9011 -1.2775
   91MOL0     C12178   6.391   6.985   1.647 -0.1553 -0.6827 -0.0077
   91MOL0     C12179   6.445   6.858   1.870  0.5031  0.2858 -1.1998
   91MOL0     C12180   6.591   6.849   1.840  0.4398  0.0523  0.1597
   91MOL0     O12181   6.641   6.723   1.847  0.0360 -0.7330 -0.1193
   91MOL0     C12182   6.764   6.699   1.782 -1.0361 -1.3512  0.4628
   91MOL0     C12183   6.779   6.716   1.643 -0.6364 -0.5235  0.5018
   91MOL0     C12184   6.882   6.659   1.578  0.1488 -0.4891  0.2006
   91MOL0     C12185   6.988   6.597   1.648 -1.0764  0.6200  0.3145
   91MOL0     O12186   7.104   6.543   1.577  0.2364 -0.8710  0.0715
   91MOL0     C12187   7.230   6.556   1.647 -0.4299  0.3229 -0.7379
   91MOL0     C12188   7.280   6.416   1.702 -0.0561 -0.7510 -0.4990
   91MOL0     C12189   7.429   6.404   1.736  0.1702 -0.0834  0.4133
   91MOL0     C12190   7.508   6.372   1.607  0.9190 -0.1190  0.0273
   91MOL0     C12191   7.649   6.337   1.643  0.9646  0.6584 -0.7319
   91MOL0     C12192   7.728   6.292   1.519 -0.5388 -1.2471  0.3149
   91MOL0     C12193   7.867   6.227   1.548 -0.2261  0.2944 -0.1491
   91MOL0     C12194   7.953   6.188   1.429 -0.5665  0.7430 -0.2247
   91MOL0    Cl12195   7.869   6.096   1.306 -0.1069 -0.1981 -0.0432
   91MOL0     C12196   6.977   6.587   1.785 -0.3739 -0.0680 -0.2754
   91MOL0     C12197   6.866   6.633   1.848  0.2741  0.2859 -0.4319
   91MOL0     O12198   6.650   6.953   1.805  0.5019  0.6397  0.1541
   91MOL0     C12199   6.379   6.791   1.979 -1.1367 -0.4483  0.8856
   91MOL0     C12200   6.249   6.786   1.994  0.3453 -0.3964 -1.3647
   91MOL0     N12201   5.416   6.985   1.605 -0.6418 -0.5234 -0.1977
   91MOL0     N12202   5.341   7.085   1.578  0.2951  0.8272  0.0005
   91MOL0     C12203   5.789   8.019   1.052 -0.3735 -0.9369 -0.6907
   91MOL0     C12204   5.908   8.083   1.095 -0.7292 -0.3937 -0.3208
   91MOL0     C12205   6.378   8.119   1.105 -0.4215 -0.2307  0.3610
   91MOL0     C12206   6.494   8.074   1.046 -0.0002  0.6141  0.8129
   91MOL0     C12207   6.625   8.099   1.099 -0.3117 -0.4096 -1.0958
   91MOL0     C12208   6.636   8.176   1.213  0.5489  0.1371  0.0861
   91MOL0     O12209   6.753   8.205   1.267 -0.4822 -0.9683  0.4904
   91MOL0     C12210   6.861   8.264   1.181  0.9147 -0.3383 -0.1297
   91MOL0     C12211   6.872   8.417   1.186 -0.3569 -0.7750  0.4531
   91MOL0     C12212   6.917   8.475   1.047 -0.1084  0.2160  0.4898
   91MOL0     C12213   6.937   8.618   1.049  0.1062 -0.1110  0.2713
   91MOL0     C12214   7.070   8.656   1.106 -0.2095 -0.6271 -0.0207
   91MOL0     C12215   7.182   8.686   1.152 -0.2953  1.0076  0.3794
   91MOL0     C12216   6.521   8.220   1.276  0.3650  0.2080 -0.0533
   91MOL0     C12217   6.391   8.194   1.224 -0.8320 -0.1301 -0.0535
   91MOL0     H12218   6.140   7.834   1.072  0.6275  2.5031 -0.0365
   91MOL0     H12219   5.935   7.707   0.992  2.1254  0.3254 -1.5359
   91MOL0     H12220   5.580   7.707   0.874  0.2109 -0.5430 -0.9888
   91MOL0     H12221   5.763   7.674   0.890  0.7624 -0.3250  0.8241
   91MOL0     H12222   5.581   7.488   1.007  0.7803 -0.5899 -0.0085
   91MOL0     H12223   5.725   7.546   1.085 -0.4836 -1.0058  1.5875
   91MOL0     H12224   5.597   7.677   1.227 -3.2993  2.5084  1.2846
   91MOL0     H12225   5.467   7.688   1.112  0.5528  0.0182  0.7212
   91MOL0     H12226   5.402   7.461   1.145 -0.4761 -0.2068  0.2779
   91MOL0     H12227   5.531   7.425   1.266  0.7951  1.1589 -0.3725
   91MOL0     H12228   5.425   7.586   1.416 -1.1888  2.5777 -0.7881
   91MOL0     H12229   5.318   7.645   1.289  0.9358  0.8526 -1.2470
   91MOL0     H12230   5.182   7.498   1.447  1.3567 -0.9884  2.8768
   91MOL0     H12231   5.177   7.456   1.277  0.7420 -0.4089  0.1559
   91MOL0     H12232   5.194   7.276   1.408 -1.2100  1.4515 -0.3693
   91MOL0     H12233   5.355   7.280   1.333  2.1595  1.9540  2.0533
   91MOL0     H12234   5.312   7.351   1.621  1.6469  1.0722  0.2203
   91MOL0     H12235   5.458   7.396   1.539  1.0636  0.0332 -2.7705
   91MOL0     H12236   5.638   7.202   1.538 -1.3565  2.0849 -0.4131
   91MOL0     H12237   5.649   6.835   1.600  2.6187 -0.7830  0.0290
   91MOL0     H12238   5.740   6.964   1.542 -2.4828 -0.1164 -1.2773
   91MOL0     H12239   5.656   6.909   1.836 -1.1293  0.5181 -1.0291
   91MOL0     H12240   5.718   7.060   1.798  2.3844  0.3609 -2.0408
   91MOL0     H12241   5.936   6.928   1.695  4.2344 -2.4831  1.3213
   91MOL0     H12242   5.861   6.795   1.778 -0.8565  0.5259  1.9459
   91MOL0     H12243   5.869   6.956   1.992  0.9873 -0.1596  0.9394
   91MOL0     H12244   5.976   7.047   1.892  0.3130 -0.5284 -2.1388
   91MOL0     H12245   6.140   6.971   1.745 -0.4092 -1.2951 -0.0530
   91MOL0     H12246   6.319   6.953   1.571 -1.2338 -2.7024  1.7626
   91MOL0     H12247   6.392   7.092   1.668 -2.2680 -0.7028  0.3794
   91MOL0     H12248   6.490   6.951   1.615 -0.0908 -1.3440  0.8578
   91MOL0     H12249   6.695   6.749   1.583 -1.3200 -1.6903  0.8028
   91MOL0     H12250   6.886   6.663   1.469  0.6219  1.1760  0.2372
   91MOL0     H12251   7.295   6.575   1.561 -1.8532 -0.4158 -2.0433
   91MOL0     H12252   7.232   6.631   1.726  0.4602 -1.2058  0.7505
   91MOL0     H12253   7.231   6.403   1.799  2.0389  2.0637  1.0837
   91MOL0     H12254   7.245   6.335   1.636 -0.0498 -0.1658 -1.2338
   91MOL0     H12255   7.438   6.324   1.810 -0.2761 -1.3555 -0.8513
   91MOL0     H12256   7.460   6.496   1.786  3.6478 -3.1804  4.7616
   91MOL0     H12257   7.466   6.280   1.564 -1.3375  0.9800 -0.2739
   91MOL0     H12258   7.509   6.457   1.538  4.1306  1.6522  2.0388
   91MOL0     H12259   7.640   6.257   1.717 -0.5453  2.4661  1.1677
   91MOL0     H12260   7.681   6.425   1.699 -1.9082 -0.7266  3.6651
   91MOL0     H12261   7.660   6.220   1.473  0.3145 -2.9533  1.6076
   91MOL0     H12262   7.740   6.380   1.456  0.2300  0.8498  3.1810
   91MOL0     H12263   7.843   6.137   1.606  0.3772  0.7772  0.8850
   91MOL0     H12264   7.933   6.288   1.611 -0.6281  0.5486  0.0267
   91MOL0     H12265   8.036   6.126   1.466 -1.7377 -2.3131 -2.3695
   91MOL0     H12266   7.992   6.283   1.390 -1.4477  0.8751 -0.7972
   91MOL0     H12267   7.049   6.537   1.849  0.0589  0.0436 -0.6730
   91MOL0     H12268   6.838   6.616   1.951 -1.8574  1.3737 -0.7877
   91MOL0     H12269   6.453   6.753   2.049  0.3026 -0.4464 -0.5775
   91MOL0     H12270   6.211   6.739   2.084  0.2890  1.6544 -0.2637
   91MOL0     H12271   5.689   8.058   1.034 -0.5158 -1.8710 -2.0490
   91MOL0     H12272   5.897   8.189   1.116  1.1031 -0.1635 -0.3536
   91MOL0     H12273   6.502   8.004   0.964 -2.1489  0.8523  0.3350
   91MOL0     H12274   6.714   8.048   1.063  2.2806  1.1588  2.5014
   91MOL0     H12275   6.951   8.224   1.229  1.8159  0.9137 -0.7235
   91MOL0     H12276   6.846   8.232   1.078 -2.7426 -1.3312  0.5467
   91MOL0     H12277   6.939   8.449   1.266 -0.6006  0.8966  0.0331
   91MOL0     H12278   6.770   8.454   1.205 -0.6491 -1.2899 -0.0602
   91MOL0     H12279   6.846   8.448   0.968  1.2336  0.9248 -1.0167
   91MOL0     H12280   7.013   8.433   1.016  0.0522 -0.1479  1.4413
   91MOL0     H12281   6.854   8.663   1.104  1.1230  0.9686  0.9669
   91MOL0     H12282   6.937   8.659   0.947 -5.1780  0.4413  0.2144
   91MOL0     H12283   7.284   8.708   1.174  0.7653 -0.5080 -2.4637
   91MOL0     H12284   6.520   8.271   1.372 -0.8611 -3.7127  2.2924
   91MOL0     H12285   6.301   8.225   1.276  0.9131  0.9217  2.5306
   92MOL0     O12286   7.556   1.774   7.364  1.0389  0.8130 -0.0895
   92MOL0     C12287   7.588   1.764   7.485  0.3050  0.5117 -0.1572
   92MOL0     O12288   7.505   1.772   7.589 -0.0566 -0.3753 -0.3979
   92MOL0     C12289   7.385   1.848   7.579 -0.7400  0.6331 -0.2250
   92MOL0     C12290   7.277   1.795   7.644 -0.9971 -0.4272 -0.1182
   92MOL0     C12291   7.156   1.867   7.648  0.2560 -0.5039  0.5116
   92MOL0     C12292   7.137   1.984   7.566  0.3144  0.6359 -0.4049
   92MOL0     O12293   7.021   2.059   7.562 -0.0242  0.2400 -0.3208
   92MOL0     C12294   6.904   1.995   7.619  0.4933 -0.5964  0.0798
   92MOL0     C12295   6.778   2.037   7.537  0.2264  0.3831 -0.5041
   92MOL0     C12296   6.685   2.123   7.642 -0.1669  0.5994  0.3133
   92MOL0     C12297   6.557   2.173   7.584 -1.3982 -0.7915  0.2667
   92MOL0     C12298   6.459   2.248   7.662  0.1614  0.6394 -0.7195
   92MOL0     C12299   6.347   2.308   7.585  0.1657 -0.3900 -1.0575
   92MOL0     C12300   6.322   2.450   7.646  0.0493  0.3285  0.5725
   92MOL0     C12301   6.255   2.447   7.777  0.1415 -0.0714 -0.4520
   92MOL0     N12302   6.112   2.437   7.762 -0.7871 -0.5511  0.0694
   92MOL0     C12303   6.046   2.319   7.768  0.0284  0.0744 -0.5549
   92MOL0     C12304   5.922   2.340   7.727  0.5071  0.2806 -0.1247
   92MOL0     C12305   5.819   2.229   7.699  0.2382  0.8576  0.1826
   92MOL0     C12306   5.680   2.287   7.661  0.2302  0.2626  1.1060
   92MOL0     C12307   5.609   2.364   7.766 -0.4151  0.4316 -0.5127
   92MOL0     C12308   5.544   2.277   7.875 -1.1375 -0.2606  0.5597
   92MOL0     O12309   5.426   2.214   7.830  0.0605  0.7554 -0.3742
   92MOL0     C12310   5.301   2.283   7.819 -0.5019 -0.2405 -0.0457
   92MOL0     C12311   5.293   2.421   7.834  0.2476  0.0817  0.5759
   92MOL0     C12312   5.170   2.491   7.821  0.2333  1.2903 -0.0284
   92MOL0     C12313   5.186   2.642   7.820  0.5344  0.2985 -0.2068
   92MOL0     C12314   5.045   2.414   7.805  0.5804  0.3641 -0.0870
   92MOL0     C12315   4.908   2.475   7.801 -0.1846  0.4552  0.9555
   92MOL0     O12316   4.814   2.409   7.725  0.6431  0.0633  0.1155
   92MOL0     C12317   4.681   2.450   7.723 -0.1527 -0.0384 -0.4511
   92MOL0     C12318   4.586   2.363   7.677 -0.6376  0.5065 -0.0562
   92MOL0     C12319   4.450   2.383   7.685  0.4354  0.0393 -0.2687
   92MOL0     C12320   4.397   2.506   7.713 -0.4261 -0.2018 -0.2848
   92MOL0     O12321   4.263   2.513   7.691  0.0410 -0.3457  0.4083
   92MOL0     C12322   4.192   2.640   7.722 -0.5280  1.8643  0.2604
   92MOL0     C12323   4.087   2.666   7.613  0.8652  0.1122 -0.0808
   92MOL0     C12324   3.962   2.753   7.653  0.2340 -0.0646  0.6172
   92MOL0     C12325   3.887   2.784   7.526  1.4147 -1.3277  0.1111
   92MOL0     C12326   3.745   2.830   7.572  1.5278 -0.3409 -0.2444
   92MOL0     C12327   3.654   2.825   7.453  0.2925 -0.8883  0.1041
   92MOL0     C12328   3.521   2.874   7.504  0.8726 -0.0783  0.7807
   92MOL0     C12329   3.411   2.917   7.402 -0.9303  0.1036 -0.2910
   92MOL0    Cl12330   3.260   2.954   7.481  0.3299  0.2316 -0.1025
   92MOL0     C12331   4.487   2.607   7.746  0.4429 -0.1064 -0.1625
   92MOL0     C12332   4.624   2.581   7.760 -0.2678  0.0326 -0.1121
   92MOL0     O12333   4.897   2.584   7.856 -0.2747  0.4836 -0.5839
   92MOL0     C12334   5.053   2.274   7.790 -0.7138  0.7629  0.0811
   92MOL0     C12335   5.180   2.208   7.798  0.1127 -0.4442  0.3641
   92MOL0     N12336   5.912   2.476   7.692  0.0457 -0.2043 -0.4023
   92MOL0     N12337   6.027   2.532   7.715 -0.8279 -0.3137  0.5309
   92MOL0     C12338   7.247   2.032   7.497 -0.8514 -0.5980  0.1409
   92MOL0     C12339   7.375   1.969   7.510 -0.1959  0.0303  0.6673
   92MOL0     C12340   7.730   1.753   7.521  0.1285  0.9877  0.0352
   92MOL0     C12341   7.831   1.784   7.425  0.0771 -0.7687 -0.2225
   92MOL0     C12342   7.971   1.763   7.457  0.0045 -0.3863 -0.9236
   92MOL0     C12343   8.007   1.725   7.594 -0.5237 -0.4812 -0.1287
   92MOL0     O12344   8.133   1.697   7.645 -0.4286  0.3096 -0.1627
   92MOL0     C12345   8.233   1.673   7.548 -0.0107 -0.4638  0.6061
   92MOL0     C12346   8.348   1.596   7.611  0.4473  0.3644 -0.4707
   92MOL0     C12347   8.397   1.665   7.738  0.6945  0.2390  0.8397
   92MOL0     C12348   8.525   1.608   7.808  0.2379 -0.0550  0.1653
   92MOL0     C12349   8.617   1.556   7.711 -0.3669 -0.4406 -0.0386
   92MOL0     C12350   8.686   1.500   7.629 -0.0807 -0.3002 -0.1206
   92MOL0     C12351   7.905   1.718   7.688 -0.6107  1.3583  0.8082
   92MOL0     C12352   7.772   1.725   7.652  0.4778  0.8436  0.3792
   92MOL0     H12353   7.288   1.701   7.697  1.1870 -0.9636 -1.4112
   92MOL0     H12354   7.071   1.825   7.701  1.1835 -2.2576  0.6860
   92MOL0     H12355   6.910   1.888   7.596 -1.4449 -0.4028 -1.4844
   92MOL0     H12356   6.890   2.012   7.727  1.6955 -1.0800  0.3266
   92MOL0     H12357   6.820   2.104   7.461  3.3728  0.0953  0.8108
   92MOL0     H12358   6.730   1.946   7.501  0.5642  0.8715 -2.2910
   92MOL0     H12359   6.653   2.053   7.720  0.3279  0.8682  0.7712
   92MOL0     H12360   6.743   2.208   7.682  0.3562  0.3149  0.1742
   92MOL0     H12361   6.583   2.241   7.502  0.4667  0.9027  2.1592
   92MOL0     H12362   6.517   2.080   7.541 -1.1875 -1.5697  1.7009
   92MOL0     H12363   6.416   2.175   7.731  0.5165  0.1371 -1.0276
   92MOL0     H12364   6.518   2.319   7.722  3.5231 -2.6729  0.2739
   92MOL0     H12365   6.385   2.330   7.485  2.1378 -0.0969 -0.2926
   92MOL0     H12366   6.255   2.249   7.591 -0.4930  0.7717  2.9275
   92MOL0     H12367   6.416   2.501   7.669 -1.0616  2.3477  0.8022
   92MOL0     H12368   6.268   2.516   7.579  0.7720 -0.2357 -0.6009
   92MOL0     H12369   6.279   2.538   7.832  2.0509 -0.6168 -0.3069
   92MOL0     H12370   6.292   2.369   7.843 -0.2359  0.2060  0.0882
   92MOL0     H12371   6.090   2.226   7.802 -0.5359 -0.4541 -1.2225
   92MOL0     H12372   5.858   2.165   7.619  1.2093 -1.0470  2.0513
   92MOL0     H12373   5.801   2.158   7.780 -0.1389 -0.8264 -1.2978
   92MOL0     H12374   5.615   2.205   7.629 -0.8685  1.4851  0.1307
   92MOL0     H12375   5.694   2.351   7.574  1.2251 -0.2097  0.8955
   92MOL0     H12376   5.536   2.429   7.716  0.7520  1.3906 -1.0275
   92MOL0     H12377   5.685   2.424   7.818 -0.2587 -0.9330  0.9237
   92MOL0     H12378   5.527   2.337   7.965 -2.2968  1.5746 -0.8190
   92MOL0     H12379   5.617   2.198   7.895  0.9389  1.3024 -0.4509
   92MOL0     H12380   5.383   2.478   7.854  0.2164  0.0766  0.7311
   92MOL0     H12381   5.104   2.689   7.765 -0.9658 -0.0467  1.6553
   92MOL0     H12382   5.175   2.672   7.924 -1.3572 -3.2021  0.7596
   92MOL0     H12383   5.283   2.672   7.778  1.8108 -1.9562  0.9587
   92MOL0     H12384   4.628   2.268   7.643 -0.9939 -0.5537  2.2930
   92MOL0     H12385   4.388   2.304   7.643 -0.0292  0.9677 -1.3880
   92MOL0     H12386   4.149   2.649   7.823  0.6354 -0.1853  0.9824
   92MOL0     H12387   4.264   2.722   7.726 -0.4092  1.7177  1.4469
   92MOL0     H12388   4.136   2.715   7.528  0.9603 -1.3149 -0.8984
   92MOL0     H12389   4.053   2.563   7.592  1.4977  0.0985 -1.1276
   92MOL0     H12390   3.995   2.841   7.708  0.0918 -0.3547  1.1834
   92MOL0     H12391   3.899   2.686   7.713 -1.4030  0.3587 -0.5922
   92MOL0     H12392   3.940   2.862   7.471 -2.2934  1.5339  0.2132
   92MOL0     H12393   3.871   2.696   7.463 -1.1052 -0.4485 -0.5819
   92MOL0     H12394   3.758   2.926   7.621  0.3037 -0.4267  0.2704
   92MOL0     H12395   3.708   2.757   7.645 -1.7698  2.0133  0.6549
   92MOL0     H12396   3.692   2.892   7.375 -0.0642 -0.8392 -0.0306
   92MOL0     H12397   3.655   2.728   7.401  0.8902  0.1907 -2.0407
   92MOL0     H12398   3.542   2.953   7.577 -1.2216 -0.8152  2.2761
   92MOL0     H12399   3.468   2.801   7.565 -0.2760  2.9735  3.7928
   92MOL0     H12400   3.399   2.834   7.332  1.2105 -1.4424  1.0512
   92MOL0     H12401   3.441   3.002   7.339 -1.0235 -0.9067 -1.7459
   92MOL0     H12402   4.462   2.710   7.770 -0.8008 -0.5881  0.6882
   92MOL0     H12403   4.680   2.657   7.814 -1.2069 -0.8839  2.2802
   92MOL0     H12404   4.969   2.206   7.787 -0.2252 -0.1526  3.1319
   92MOL0     H12405   5.182   2.099   7.801  2.1222 -0.4199  2.1181
   92MOL0     H12406   7.237   2.120   7.434  1.9365  0.1382  0.5942
   92MOL0     H12407   7.467   2.007   7.465  0.6435 -1.3909  1.1465
   92MOL0     H12408   7.794   1.808   7.326 -3.8459  2.2804  1.7113
   92MOL0     H12409   8.043   1.774   7.376  2.3914 -1.0441  0.9934
   92MOL0     H12410   8.185   1.621   7.465 -1.1841  0.0881  0.9148
   92MOL0     H12411   8.278   1.757   7.496  2.7954 -1.9314  0.5057
   92MOL0     H12412   8.431   1.582   7.541  0.2347  1.0544 -0.8612
   92MOL0     H12413   8.310   1.495   7.630  1.2261 -0.9620 -4.8157
   92MOL0     H12414   8.313   1.667   7.807 -1.4308  1.0172 -1.6218
   92MOL0     H12415   8.424   1.770   7.721 -0.4673  0.7614  1.9859
   92MOL0     H12416   8.486   1.541   7.885  0.2282  2.3893  2.4291
   92MOL0     H12417   8.578   1.688   7.862 -0.0338 -1.6103  2.9143
   92MOL0     H12418   8.747   1.456   7.553  0.1749  0.8802 -0.6125
   92MOL0     H12419   7.926   1.701   7.793 -0.7656  1.3126  0.8318
   92MOL0     H12420   7.699   1.702   7.729  1.8608 -0.1515  1.4611
   93MOL0     O12421   2.747   1.488   9.938 -1.4469  0.1188  0.1873
   93MOL0     C12422   2.820   1.589   9.921  0.1889  0.8767 -0.7262
   93MOL0     O12423   2.766   1.716   9.922  0.6799 -0.8341 -0.0021
   93MOL0     C12424   2.631   1.722   9.911  0.1083 -0.4652 -0.2844
   93MOL0     C12425   2.542   1.724  10.021  0.3595  0.0199 -0.9616
   93MOL0     C12426   2.404   1.739  10.003  0.2268  0.4069  0.1065
   93MOL0     C12427   2.350   1.762   9.875 -0.2771  0.6189 -0.7434
   93MOL0     O12428   2.213   1.766   9.866 -0.8818  0.0671 -0.3480
   93MOL0     C12429   2.167   1.716   9.745 -0.0515  1.1424 -0.0489
   93MOL0     C12430   2.012   1.710   9.731  0.0706  0.7136  0.1808
   93MOL0     C12431   1.940   1.643   9.854  0.5362  0.4747 -1.0098
   93MOL0     C12432   1.784   1.632   9.846  0.0732  0.1769 -0.0215
   93MOL0     C12433   1.707   1.770   9.838  0.2327 -0.2332 -0.7360
   93MOL0     C12434   1.559   1.772   9.877  0.3602 -0.0141 -0.0733
   93MOL0     C12435   1.498   1.917   9.905 -0.8424 -0.6935  0.1018
   93MOL0     C12436   1.574   2.019   9.994 -0.0865 -0.2249 -0.7160
   93MOL0     N12437   1.515   2.151   9.992 -0.2500  0.8604  0.0179
   93MOL0     C12438   1.382   2.164  10.009 -0.9081 -0.2838  0.0474
   93MOL0     C12439   1.349   2.296   9.995  0.0891 -0.0738 -0.1688
   93MOL0     C12440   1.228   2.377  10.032 -0.7326  0.3979 -0.1281
   93MOL0     C12441   1.112   2.294  10.109 -0.1853 -0.4134 -0.1608
   93MOL0     C12442   1.006   2.391  10.166 -0.2839 -0.0797 -0.8091
   93MOL0     C12443   0.881   2.316  10.206  1.0317  0.9800  0.7575
   93MOL0     O12444   0.820   2.249  10.087 -0.2384  0.3086 -0.3997
   93MOL0     C12445   0.713   2.160  10.103 -0.1050 -1.1690  0.1830
   93MOL0     C12446   0.651   2.147  10.224  0.1318  0.5335  0.4204
   93MOL0     C12447   0.533   2.066  10.233 -0.6614  0.2941 -0.9859
   93MOL0     C12448   0.447   2.059  10.359 -0.1288 -0.0011 -0.1575
   93MOL0     C12449   0.498   1.986  10.117  0.0315 -0.0767 -0.7594
   93MOL0     C12450   0.374   1.910  10.098 -0.0957 -0.9367 -0.1019
   93MOL0     O12451   0.268   1.941  10.179  0.2057  0.9534 -0.2480
   93MOL0     C12452   0.164   1.849  10.188  0.7441 -0.0369 -0.0956
   93MOL0     C12453   0.040   1.882  10.131  0.3887  0.3911  0.4881
   93MOL0     C12454  -0.072   1.799  10.148 -0.7382  0.6651  0.3344
   93MOL0     C12455  -0.055   1.671  10.213  0.2812  0.3315 -0.8227
   93MOL0     O12456  -0.166   1.590  10.200 -0.7950 -0.6975  1.0286
   93MOL0     C12457  -0.150   1.458  10.146  0.2361 -0.0180 -0.0287
   93MOL0     C12458  -0.277   1.374  10.194  0.2566  0.3250 -0.5450
   93MOL0     C12459  -0.408   1.456  10.174  0.4004 -0.7574  0.6337
   93MOL0     C12460  -0.523   1.359  10.191  0.2924 -0.7675 -1.5937
   93MOL0     C12461  -0.658   1.436  10.179  0.7337  0.0815  1.0796
   93MOL0     C12462  -0.770   1.347  10.132  0.3813  0.1724  0.0551
   93MOL0     C12463  -0.902   1.428  10.124  0.2246 -0.6577  0.3780
   93MOL0     C12464  -1.028   1.353  10.075 -0.0478 -0.1523 -0.1262
   93MOL0    Cl12465  -1.022   1.311   9.895 -0.1941  0.0669 -0.5008
   93MOL0     C12466   0.071   1.632  10.263 -0.2961 -1.2758 -0.3664
   93MOL0     C12467   0.175   1.732  10.266 -1.0378 -0.2784 -0.2291
   93MOL0     O12468   0.377   1.820  10.017  0.0737 -0.5582 -0.2172
   93MOL0     C12469   0.572   2.006   9.999 -1.2298  0.5258 -1.3330
   93MOL0     C12470   0.677   2.093   9.990  0.5782  0.1997 -0.8291
   93MOL0     N12471   1.466   2.358   9.959 -0.1128  0.1021  0.8579
   93MOL0     N12472   1.567   2.271   9.961  0.5737  0.3628  0.1200
   93MOL0     C12473   2.445   1.762   9.765 -0.2203  0.1013  0.2793
   93MOL0     C12474   2.585   1.749   9.785 -0.2180 -0.7094  0.1238
   93MOL0     C12475   2.966   1.558   9.920  0.0895 -0.5743 -0.1707
   93MOL0     C12476   3.027   1.440   9.912  0.2128  0.1984  0.2258
   93MOL0     C12477   3.161   1.419   9.892 -0.0999 -0.2065 -0.2240
   93MOL0     C12478   3.246   1.527   9.899  0.9215 -0.4056  0.4967
   93MOL0     O12479   3.373   1.497   9.908 -0.0618  0.2614  0.3174
   93MOL0     C12480   3.465   1.589   9.965 -0.3887 -0.3446 -0.2499
   93MOL0     C12481   3.450   1.596  10.111  0.1338  0.5715 -0.1384
   93MOL0     C12482   3.573   1.652  10.187  0.2491  0.3427 -0.1635
   93MOL0     C12483   3.527   1.662  10.335 -0.0921 -0.1054  1.0971
   93MOL0     C12484   3.620   1.715  10.432 -0.0336 -0.2298  0.1089
   93MOL0     C12485   3.697   1.763  10.515 -0.6658 -0.7573 -0.0643
   93MOL0     C12486   3.185   1.654   9.897 -0.4269  0.3612 -0.1671
   93MOL0     C12487   3.050   1.673   9.910  0.3414  0.8553  0.3709
   93MOL0     H12488   2.590   1.724  10.118 -0.5714  0.2320 -0.4881
   93MOL0     H12489   2.331   1.745  10.083  0.3673 -0.6291  0.3296
   93MOL0     H12490   2.199   1.769   9.655  1.2421 -3.1813 -2.4356
   93MOL0     H12491   2.198   1.613   9.723 -1.2870 -0.3904  4.3469
   93MOL0     H12492   1.973   1.812   9.722 -6.0814 -1.1915  0.3805
   93MOL0     H12493   1.979   1.656   9.641 -0.6455 -0.5108  1.1464
   93MOL0     H12494   1.988   1.546   9.870 -3.0129 -0.9773  2.5044
   93MOL0     H12495   1.958   1.702   9.944 -1.8786 -1.4848  0.9084
   93MOL0     H12496   1.751   1.573   9.760 -0.3646  0.4866 -0.0740
   93MOL0     H12497   1.751   1.582   9.937  0.5550 -1.0252 -0.4935
   93MOL0     H12498   1.762   1.848   9.892  0.4004  1.7855 -3.6238
   93MOL0     H12499   1.713   1.816   9.739 -3.8861  4.3009  0.6863
   93MOL0     H12500   1.493   1.720   9.807 -3.7848  4.1102  0.2500
   93MOL0     H12501   1.548   1.717   9.971 -0.2371  1.3272  0.6744
   93MOL0     H12502   1.488   1.960   9.805 -0.9820 -0.4330  0.2261
   93MOL0     H12503   1.400   1.912   9.953 -1.5230  1.6805 -0.8731
   93MOL0     H12504   1.679   2.026   9.966 -0.4026  0.5719 -1.7731
   93MOL0     H12505   1.575   1.974  10.094  0.0508  1.6233  0.1600
   93MOL0     H12506   1.318   2.084  10.045 -0.7639  0.3625  1.8238
   93MOL0     H12507   1.271   2.451  10.100 -2.2512  1.9611 -0.8054
   93MOL0     H12508   1.191   2.430   9.944 -0.3485  0.7445 -0.0851
   93MOL0     H12509   1.147   2.238  10.196 -0.3897  0.4961  0.5202
   93MOL0     H12510   1.065   2.222  10.041 -2.0306  0.2276  0.3636
   93MOL0     H12511   0.976   2.460  10.087 -2.3940  0.1184  0.0942
   93MOL0     H12512   1.041   2.445  10.254  0.9344  0.9223 -1.8717
   93MOL0     H12513   0.806   2.383  10.249  1.5693  0.6404  2.2847
   93MOL0     H12514   0.904   2.243  10.285 -1.2010 -1.8327 -0.9862
   93MOL0     H12515   0.680   2.207  10.309  0.2916  0.5662  0.3435
   93MOL0     H12516   0.494   2.100  10.449  1.4357  0.8317 -1.3048
   93MOL0     H12517   0.355   2.117  10.343  1.3211  2.4337 -0.2377
   93MOL0     H12518   0.427   1.955  10.382 -0.0970 -0.1046 -0.5823
   93MOL0     H12519   0.023   1.970  10.070 -1.7541 -0.3497 -0.0906
   93MOL0     H12520  -0.168   1.831  10.107  1.3476  1.9127 -4.2069
   93MOL0     H12521  -0.159   1.476  10.039  1.1204  1.0105  0.0497
   93MOL0     H12522  -0.057   1.410  10.177 -0.2051  0.8610  3.0216
   93MOL0     H12523  -0.269   1.284  10.133  1.1692 -2.9614  3.9260
   93MOL0     H12524  -0.263   1.345  10.298  1.1683 -0.2681 -0.8174
   93MOL0     H12525  -0.416   1.498  10.073 -2.6477 -0.2642  0.9840
   93MOL0     H12526  -0.415   1.537  10.247  1.4263  0.0387 -0.1084
   93MOL0     H12527  -0.502   1.271  10.130  2.8717 -0.2541 -1.5293
   93MOL0     H12528  -0.519   1.330  10.297  1.1321  1.9784 -0.7829
   93MOL0     H12529  -0.643   1.525  10.117  0.8841 -0.9909 -0.4799
   93MOL0     H12530  -0.682   1.470  10.280 -0.9080  2.2323  0.0511
   93MOL0     H12531  -0.744   1.316  10.030  0.5373  0.2773  0.0626
   93MOL0     H12532  -0.786   1.256  10.191  1.4355 -1.1972 -1.6672
   93MOL0     H12533  -0.883   1.517  10.062 -1.6878 -2.3770 -2.9393
   93MOL0     H12534  -0.927   1.472  10.221  0.9767  0.8702 -0.0902
   93MOL0     H12535  -1.126   1.401  10.087 -2.1699 -3.7943 -1.2409
   93MOL0     H12536  -1.042   1.258  10.126 -2.3874  0.2024  0.0160
   93MOL0     H12537   0.076   1.541  10.321  0.7885 -0.4080  0.9765
   93MOL0     H12538   0.262   1.712  10.329  0.0569  0.5105 -1.4313
   93MOL0     H12539   0.556   1.950   9.907 -2.9071 -0.8258 -0.2950
   93MOL0     H12540   0.725   2.099   9.893  2.3462 -4.1622 -0.4396
   93MOL0     H12541   2.408   1.787   9.666  0.8742 -1.4706 -0.5764
   93MOL0     H12542   2.657   1.749   9.704  0.7474 -1.8343  0.9499
   93MOL0     H12543   2.958   1.357   9.919 -1.8678  1.6539 -1.6083
   93MOL0     H12544   3.200   1.319   9.880  0.0958 -0.2190  0.5135
   93MOL0     H12545   3.567   1.555   9.945 -0.0572  0.3751  0.1940
   93MOL0     H12546   3.456   1.690   9.923  4.9008  1.5167  2.2519
   93MOL0     H12547   3.428   1.498  10.155 -1.4968  0.6916 -0.6208
   93MOL0     H12548   3.361   1.657  10.134 -0.1412  0.0582  0.1713
   93MOL0     H12549   3.609   1.751  10.158 -0.6847  0.1487 -2.1123
   93MOL0     H12550   3.657   1.584  10.176 -0.5676 -0.8575  0.7064
   93MOL0     H12551   3.512   1.561  10.375  1.0560 -0.9064 -0.4007
   93MOL0     H12552   3.432   1.715  10.346  0.4343  0.9167  0.8010
   93MOL0     H12553   3.771   1.790  10.588 -1.7243  1.5606  0.2440
   93MOL0     H12554   3.238   1.749   9.887 -1.7196  1.3438  1.6333
   93MOL0     H12555   3.010   1.774   9.913 -0.8293  0.6905 -3.9852
   94MOL0     O12556   7.254   4.774   6.603  0.3848 -0.2797  0.3586
   94MOL0     C12557   7.275   4.706   6.505  0.0470 -0.0493  0.2555
   94MOL0     O12558   7.399   4.642   6.484  0.2686  0.4916 -0.4026
   94MOL0     C12559   7.502   4.672   6.576  0.2990  0.1406  1.0613
   94MOL0     C12560   7.567   4.560   6.627 -0.1375 -0.1848  0.2488
   94MOL0     C12561   7.671   4.576   6.723 -0.8493  0.2177  0.0749
   94MOL0     C12562   7.715   4.699   6.767 -0.0559 -0.1316 -0.3569
   94MOL0     O12563   7.815   4.702   6.859  0.0589  0.6253  0.0457
   94MOL0     C12564   7.853   4.822   6.927  0.3215 -0.2647 -1.1042
   94MOL0     C12565   7.948   4.787   7.050  0.2053 -0.7495  0.2582
   94MOL0     C12566   7.928   4.905   7.154  0.7743  0.5780 -0.5038
   94MOL0     C12567   8.021   4.890   7.277 -0.5624  0.3594  0.6171
   94MOL0     C12568   8.161   4.924   7.234  0.3477 -0.1275 -0.0948
   94MOL0     C12569   8.265   4.930   7.345  0.4754  0.1305  0.9287
   94MOL0     C12570   8.406   4.965   7.297  0.3712  0.9419 -0.3636
   94MOL0     C12571   8.522   4.959   7.413  0.3725  0.4967  0.0052
   94MOL0     N12572   8.656   4.970   7.358  0.0004  0.4943 -0.5021
   94MOL0     C12573   8.695   5.072   7.281  0.6561  1.2772  0.9033
   94MOL0     C12574   8.805   5.020   7.219 -0.5177 -0.2047  0.9944
   94MOL0     C12575   8.886   5.066   7.099  0.0564 -0.5046  0.1567
   94MOL0     C12576   8.801   5.072   6.968 -0.1795  0.3297 -0.0371
   94MOL0     C12577   8.734   4.940   6.915 -0.4689 -0.9992  0.6276
   94MOL0     C12578   8.625   4.973   6.818 -0.3246  0.7036 -0.1029
   94MOL0     O12579   8.519   5.051   6.886 -0.2232  0.8070 -0.1247
   94MOL0     C12580   8.395   5.061   6.844 -0.0300 -0.1106  0.2038
   94MOL0     C12581   8.343   5.005   6.727 -0.0208 -0.8533  1.1932
   94MOL0     C12582   8.212   5.035   6.682 -0.5700  0.4076  0.9732
   94MOL0     C12583   8.170   4.970   6.552  0.4386  0.3630  0.0784
   94MOL0     C12584   8.121   5.101   6.771 -0.5842 -0.0949 -0.4241
   94MOL0     C12585   7.979   5.125   6.742 -0.2560 -0.5291 -0.9326
   94MOL0     O12586   7.923   5.081   6.625  0.2588  0.5670 -0.3820
   94MOL0     C12587   7.806   5.135   6.582 -0.0958 -0.9698  1.1365
   94MOL0     C12588   7.747   5.262   6.613  0.6620 -0.0218 -0.0864
   94MOL0     C12589   7.629   5.297   6.542 -1.2504 -0.3690 -0.0808
   94MOL0     C12590   7.565   5.209   6.459  0.0892  0.3923 -0.6319
   94MOL0     O12591   7.445   5.252   6.401  0.5245 -0.2333  0.1870
   94MOL0     C12592   7.366   5.148   6.347  0.7413  1.2853  0.8233
   94MOL0     C12593   7.232   5.207   6.322 -0.2276  0.4225 -0.4170
   94MOL0     C12594   7.232   5.300   6.204 -0.7183 -0.6243  0.2133
   94MOL0     C12595   7.131   5.418   6.219 -0.0155 -0.9733 -0.0293
   94MOL0     C12596   7.106   5.480   6.081  0.1132  0.1788 -0.4509
   94MOL0     C12597   7.015   5.396   5.994  0.3778 -0.1801  0.2739
   94MOL0     C12598   6.955   5.469   5.867 -0.7336 -0.4141 -0.5146
   94MOL0     C12599   6.834   5.397   5.809  0.4011  0.3686 -0.4440
   94MOL0    Cl12600   6.696   5.445   5.924  0.3865  0.2430  0.2058
   94MOL0     C12601   7.625   5.080   6.432  0.2522 -0.8371 -0.3828
   94MOL0     C12602   7.747   5.046   6.488 -0.1280 -0.9914 -0.1939
   94MOL0     O12603   7.913   5.179   6.831  0.0994 -0.2319  0.2408
   94MOL0     C12604   8.176   5.152   6.893  0.1734  0.8458  0.0208
   94MOL0     C12605   8.312   5.133   6.927  0.2949 -0.5982  0.3626
   94MOL0     N12606   8.831   4.893   7.272 -0.2570 -0.4539  0.6259
   94MOL0     N12607   8.739   4.865   7.352 -0.8886  0.1024 -0.3359
   94MOL0     C12608   7.643   4.814   6.719  0.0893  0.2980  0.3162
   94MOL0     C12609   7.543   4.799   6.614  0.9588  0.5863 -0.3323
   94MOL0     C12610   7.181   4.710   6.394  0.2316  0.1074  0.8735
   94MOL0     C12611   7.043   4.718   6.411 -0.9828 -0.0429  0.0853
   94MOL0     C12612   6.952   4.732   6.310 -0.4941 -0.7031 -0.1549
   94MOL0     C12613   7.000   4.746   6.180 -0.6913  0.3769  0.1717
   94MOL0     O12614   6.920   4.768   6.070  0.0782 -0.6429 -0.3710
   94MOL0     C12615   6.777   4.759   6.089  0.3924  0.4957  0.2366
   94MOL0     C12616   6.721   4.878   6.166 -0.3044  0.1882  0.1636
   94MOL0     C12617   6.738   5.017   6.097 -0.1732 -0.6345 -0.9555
   94MOL0     C12618   6.718   5.137   6.194  0.8187 -0.9816 -0.5216
   94MOL0     C12619   6.799   5.117   6.322  0.9392  0.0571  0.9371
   94MOL0     C12620   6.872   5.111   6.417 -0.2201  0.8948 -0.3531
   94MOL0     C12621   7.136   4.727   6.152  0.3174 -0.4697  0.0129
   94MOL0     C12622   7.231   4.717   6.257  0.0188  0.2206 -0.3081
   94MOL0     H12623   7.518   4.468   6.598 -3.1376  1.1292  0.7770
   94MOL0     H12624   7.718   4.483   6.756  3.2833  1.4799 -1.5556
   94MOL0     H12625   7.909   4.888   6.859  0.8512  1.0287  0.5155
   94MOL0     H12626   7.773   4.885   6.966  1.6247  0.5328  0.4010
   94MOL0     H12627   7.913   4.694   7.095  1.3573 -0.2686  2.2496
   94MOL0     H12628   8.052   4.781   7.015  0.2449  0.8648  0.0278
   94MOL0     H12629   7.939   4.999   7.100  2.2342  1.5886  1.4210
   94MOL0     H12630   7.821   4.910   7.179  0.3944  0.5320 -2.0083
   94MOL0     H12631   7.990   4.957   7.358 -0.0685 -1.4679  2.4237
   94MOL0     H12632   8.018   4.787   7.315 -0.0838 -0.5454 -1.6276
   94MOL0     H12633   8.179   4.837   7.171 -2.4371  0.8597 -2.4470
   94MOL0     H12634   8.165   5.020   7.181 -0.4478 -0.0611 -0.0362
   94MOL0     H12635   8.225   5.007   7.412 -0.4290 -0.2463  0.8298
   94MOL0     H12636   8.269   4.831   7.391 -0.2369 -0.3123  0.0744
   94MOL0     H12637   8.425   4.893   7.217 -0.1581 -0.3506  0.6203
   94MOL0     H12638   8.405   5.069   7.266  0.4078  0.4943 -1.9614
   94MOL0     H12639   8.510   4.865   7.469 -0.3502 -1.6271 -3.4118
   94MOL0     H12640   8.491   5.048   7.469 -0.4743  0.3479 -0.2175
   94MOL0     H12641   8.654   5.168   7.250 -1.1213  0.1037 -0.6275
   94MOL0     H12642   8.932   5.164   7.114 -2.3339  1.1158 -2.2339
   94MOL0     H12643   8.966   4.996   7.074 -1.3511 -2.1124 -0.0571
   94MOL0     H12644   8.860   5.115   6.886 -0.2807 -0.1781 -0.3770
   94MOL0     H12645   8.724   5.148   6.980 -0.6987  0.2600 -2.5198
   94MOL0     H12646   8.707   4.865   6.989  0.1438 -0.3742  1.5052
   94MOL0     H12647   8.819   4.899   6.859  0.0787 -1.4259  1.7570
   94MOL0     H12648   8.579   4.883   6.775  1.4764 -0.9593  1.2544
   94MOL0     H12649   8.667   5.029   6.734  0.2686  0.8661  0.2911
   94MOL0     H12650   8.405   4.929   6.680  0.7129 -0.5739  1.6844
   94MOL0     H12651   8.250   4.910   6.507  0.1050 -1.4145  1.7035
   94MOL0     H12652   8.087   4.907   6.586  0.0196  0.8251 -0.0732
   94MOL0     H12653   8.124   5.038   6.481 -0.1151 -0.0619  0.0191
   94MOL0     H12654   7.798   5.344   6.663  0.0521  1.0298 -1.1229
   94MOL0     H12655   7.587   5.394   6.565 -3.5410 -1.4066  0.3321
   94MOL0     H12656   7.405   5.100   6.257 -0.5931 -0.1891  0.9888
   94MOL0     H12657   7.347   5.071   6.422 -1.5799 -0.7366 -1.6257
   94MOL0     H12658   7.158   5.132   6.294 -0.0261  0.1377 -0.1906
   94MOL0     H12659   7.196   5.266   6.407 -1.6369  1.2997 -1.5601
   94MOL0     H12660   7.204   5.241   6.116  1.4787  0.1733 -1.1143
   94MOL0     H12661   7.334   5.337   6.188 -1.6607  2.2790  0.3373
   94MOL0     H12662   7.032   5.379   6.245  0.6838 -3.7733 -1.1505
   94MOL0     H12663   7.165   5.488   6.296 -2.2633 -1.6192  1.6401
   94MOL0     H12664   7.205   5.507   6.042 -0.2723  1.9990 -0.2383
   94MOL0     H12665   7.054   5.575   6.093  0.7305  0.4530  0.1024
   94MOL0     H12666   7.071   5.312   5.952 -0.5773 -1.0457  0.6718
   94MOL0     H12667   6.933   5.348   6.049 -1.6555 -1.5623 -3.5535
   94MOL0     H12668   7.047   5.474   5.808  0.2582 -0.6916  0.9446
   94MOL0     H12669   6.934   5.572   5.897  2.2124 -0.3937  1.9607
   94MOL0     H12670   6.854   5.289   5.813  1.8874  0.6278 -0.1534
   94MOL0     H12671   6.828   5.414   5.701  2.5746  1.2235 -0.4985
   94MOL0     H12672   7.576   5.027   6.351  0.0671  1.5507 -1.9427
   94MOL0     H12673   7.798   4.957   6.454  1.4524 -1.6540  3.4418
   94MOL0     H12674   8.102   5.199   6.957 -1.9720 -1.3139 -0.7223
   94MOL0     H12675   8.352   5.183   7.014 -1.6002  0.3197  0.7569
   94MOL0     H12676   7.674   4.914   6.748  1.7783 -0.5489  1.5997
   94MOL0     H12677   7.486   4.883   6.575 -2.7206 -0.8579  1.4951
   94MOL0     H12678   7.016   4.707   6.516 -2.5409  2.5570  0.0334
   94MOL0     H12679   6.846   4.714   6.329 -0.9486  2.8963  1.5023
   94MOL0     H12680   6.741   4.760   5.986  2.3172  1.3227 -0.4809
   94MOL0     H12681   6.755   4.660   6.131  2.0269 -0.4584 -1.0490
   94MOL0     H12682   6.754   4.874   6.270 -2.9270 -0.1508  1.0747
   94MOL0     H12683   6.613   4.860   6.168 -0.8873  2.2577 -3.7458
   94MOL0     H12684   6.660   5.029   6.021  0.0180 -0.6138 -1.1493
   94MOL0     H12685   6.837   5.022   6.051  0.7849 -0.4956  1.0313
   94MOL0     H12686   6.612   5.135   6.220  1.0439 -0.8749  0.4502
   94MOL0     H12687   6.746   5.227   6.139  4.5073 -2.0171 -0.6204
   94MOL0     H12688   6.946   5.105   6.494 -0.9671 -2.8118  0.2836
   94MOL0     H12689   7.177   4.722   6.052  1.4833 -0.7129  0.4879
   94MOL0     H12690   7.337   4.701   6.240  0.0881 -0.6300  0.8029
   95MOL0     O12691   1.603   1.171   3.724  0.5560  0.0630 -0.3235
   95MOL0     C12692   1.692   1.208   3.804  0.3694  0.3847  0.8620
   95MOL0     O12693   1.679   1.241   3.935 -0.2393  0.0248 -0.0508
   95MOL0     C12694   1.552   1.262   3.975 -0.8820 -0.5511 -0.3335
   95MOL0     C12695   1.528   1.196   4.091  0.2506 -0.3143 -0.7162
   95MOL0     C12696   1.400   1.195   4.149 -0.5992  0.8001  0.1649
   95MOL0     C12697   1.290   1.247   4.086 -0.3539  0.2634 -0.0097
   95MOL0     O12698   1.176   1.238   4.163  0.0704  0.4436 -0.0056
   95MOL0     C12699   1.054   1.223   4.092  0.0890  0.5832  0.0741
   95MOL0     C12700   0.947   1.190   4.192 -0.3595  0.3899 -0.1970
   95MOL0     C12701   0.819   1.143   4.125 -1.1018  0.3795  0.4281
   95MOL0     C12702   0.721   1.100   4.227 -0.9299 -0.1664  0.2406
   95MOL0     C12703   0.583   1.078   4.181 -0.6710 -0.2453  0.8644
   95MOL0     C12704   0.578   0.962   4.073  0.6412 -0.2971 -0.2268
   95MOL0     C12705   0.430   0.913   4.060 -0.5588 -0.0298 -0.8252
   95MOL0     C12706   0.406   0.818   3.948 -0.5847 -0.1413 -0.4283
   95MOL0     N12707   0.275   0.755   3.942  0.0750 -0.7334 -0.0310
   95MOL0     C12708   0.223   0.668   4.035  0.0112 -0.6405 -0.2143
   95MOL0     C12709   0.109   0.631   3.973 -0.4939  0.4029  0.0893
   95MOL0     C12710   0.016   0.530   4.031  0.0835  0.3977 -0.6096
   95MOL0     C12711  -0.129   0.558   4.015 -0.6307  0.5885 -0.2338
   95MOL0     C12712  -0.213   0.434   4.062  0.9150  0.8916  0.7012
   95MOL0     C12713  -0.363   0.450   4.054  0.0494 -0.0390  0.1870
   95MOL0     O12714  -0.417   0.319   4.042  0.2078  0.8690 -0.8018
   95MOL0     C12715  -0.549   0.303   4.078  0.0804 -0.4808  0.4536
   95MOL0     C12716  -0.620   0.188   4.032  0.3583  0.0086 -0.2627
   95MOL0     C12717  -0.754   0.161   4.058  0.7240  0.2809  0.7657
   95MOL0     C12718  -0.810   0.046   3.983  0.0780  0.7523 -0.2074
   95MOL0     C12719  -0.832   0.248   4.133  0.1959  1.4405 -0.1897
   95MOL0     C12720  -0.976   0.225   4.166 -0.2137 -0.2602 -0.1578
   95MOL0     O12721  -1.041   0.325   4.234 -0.0695  0.5541 -0.8145
   95MOL0     C12722  -1.166   0.313   4.289  0.2724 -0.3106  0.0965
   95MOL0     C12723  -1.256   0.201   4.300 -0.1674 -0.0311 -0.2268
   95MOL0     C12724  -1.379   0.204   4.354 -0.7304  0.2412 -0.0126
   95MOL0     C12725  -1.426   0.322   4.410 -0.2326  0.5572 -1.0289
   95MOL0     O12726  -1.542   0.312   4.487 -0.0202  0.2813 -0.1541
   95MOL0     C12727  -1.642   0.216   4.458 -0.0384  0.6173 -0.0532
   95MOL0     C12728  -1.786   0.257   4.478  0.7201 -1.3061  0.5728
   95MOL0     C12729  -1.821   0.381   4.395  0.5347  0.1634  0.1512
   95MOL0     C12730  -1.949   0.443   4.449  0.2470 -0.5738  0.7319
   95MOL0     C12731  -1.989   0.578   4.388 -0.2641  0.4306  0.3372
   95MOL0     C12732  -2.114   0.649   4.448 -1.0239  0.4635 -0.4046
   95MOL0     C12733  -2.138   0.787   4.380  0.7602 -0.0249 -0.3737
   95MOL0     C12734  -2.222   0.878   4.478 -0.4124 -0.4009 -0.4643
   95MOL0    Cl12735  -2.391   0.819   4.468  0.2857 -0.1655 -0.6322
   95MOL0     C12736  -1.348   0.440   4.396 -0.4922 -0.1927 -0.3834
   95MOL0     C12737  -1.214   0.433   4.340 -0.7098  0.1558 -0.4777
   95MOL0     O12738  -1.010   0.106   4.163  0.9309  0.2103 -0.2076
   95MOL0     C12739  -0.770   0.371   4.171  0.3335  0.8891 -1.4208
   95MOL0     C12740  -0.633   0.392   4.149 -0.4874 -0.0329 -0.1362
   95MOL0     N12741   0.089   0.704   3.857 -0.1088 -0.0977  0.0514
   95MOL0     N12742   0.185   0.780   3.840  0.3728 -0.5728 -0.1770
   95MOL0     C12743   1.313   1.297   3.956  0.2365  0.0683 -0.2831
   95MOL0     C12744   1.440   1.318   3.908 -0.8071  0.3185  0.1367
   95MOL0     C12745   1.829   1.231   3.738  0.2233  0.3270 -0.2065
   95MOL0     C12746   1.941   1.254   3.820 -0.8373 -0.7266 -0.0083
   95MOL0     C12747   2.065   1.271   3.759 -0.3099 -0.4602  1.1905
   95MOL0     C12748   2.079   1.289   3.626 -0.6397  0.0269  0.7960
   95MOL0     O12749   2.200   1.310   3.564 -0.9302  0.4296  0.2734
   95MOL0     C12750   2.332   1.271   3.628  0.6592 -0.0470  0.7019
   95MOL0     C12751   2.464   1.315   3.556 -0.2478 -0.0826 -0.0129
   95MOL0     C12752   2.495   1.254   3.417 -0.2230  0.8345  0.7547
   95MOL0     C12753   2.521   1.108   3.435 -0.2117  0.0893  0.5470
   95MOL0     C12754   2.623   1.074   3.527  0.6241 -1.0227 -0.6027
   95MOL0     C12755   2.710   1.066   3.607  0.1691 -0.5741  0.2692
   95MOL0     C12756   1.961   1.287   3.549  0.6453 -0.2240  1.0267
   95MOL0     C12757   1.834   1.256   3.602 -0.5976 -0.6425 -0.2133
   95MOL0     H12758   1.610   1.140   4.135  0.9285 -0.6728 -2.3593
   95MOL0     H12759   1.382   1.141   4.241 -0.1355  3.4518  1.8983
   95MOL0     H12760   1.027   1.308   4.028 -2.7487 -2.5270 -3.3594
   95MOL0     H12761   1.059   1.143   4.018  0.9930  0.8018 -0.1179
   95MOL0     H12762   0.985   1.106   4.250  2.3481  1.6613  0.0696
   95MOL0     H12763   0.934   1.273   4.262 -1.2887  1.3315 -1.4366
   95MOL0     H12764   0.769   1.231   4.082  0.7728  3.1998  3.5601
   95MOL0     H12765   0.847   1.070   4.049 -1.3694 -0.2030  0.8780
   95MOL0     H12766   0.770   1.015   4.276 -1.8981 -1.8903 -1.6149
   95MOL0     H12767   0.730   1.184   4.296 -0.1362 -0.7390  0.8497
   95MOL0     H12768   0.514   1.055   4.263 -2.7235  1.8551 -0.1655
   95MOL0     H12769   0.549   1.175   4.143 -2.1709 -0.1720  2.2711
   95MOL0     H12770   0.607   1.003   3.976 -0.6302 -1.3360 -1.0823
   95MOL0     H12771   0.653   0.888   4.099  0.6403 -0.1523  0.1985
   95MOL0     H12772   0.400   0.871   4.157 -0.4485 -1.3666 -1.3368
   95MOL0     H12773   0.369   0.999   4.032 -0.5679  0.5043  0.7443
   95MOL0     H12774   0.484   0.742   3.957 -1.4355 -0.7862  2.8474
   95MOL0     H12775   0.415   0.872   3.853 -3.6439 -0.7914 -1.1755
   95MOL0     H12776   0.263   0.636   4.131 -1.2147  0.1327  0.5817
   95MOL0     H12777   0.042   0.436   3.982  1.8495 -0.6429  2.1236
   95MOL0     H12778   0.037   0.525   4.138 -0.3901  0.2132 -0.5209
   95MOL0     H12779  -0.148   0.592   3.912 -1.4021 -0.2592 -0.3906
   95MOL0     H12780  -0.157   0.645   4.075 -1.6778  2.1881 -2.8352
   95MOL0     H12781  -0.178   0.404   4.161 -0.8867  1.5016  1.5642
   95MOL0     H12782  -0.182   0.353   3.996 -1.9352  2.8330 -3.4547
   95MOL0     H12783  -0.377   0.515   3.968  2.5926  2.4567  1.5010
   95MOL0     H12784  -0.395   0.505   4.142  0.3491  0.2086  0.1433
   95MOL0     H12785  -0.561   0.133   3.959  0.1409  0.9777 -1.1976
   95MOL0     H12786  -0.884   0.080   3.909  0.5852  1.4836 -0.3945
   95MOL0     H12787  -0.732  -0.007   3.927 -0.8029  0.4530 -1.1883
   95MOL0     H12788  -0.844  -0.033   4.050  0.1864  0.8160 -0.0764
   95MOL0     H12789  -1.227   0.102   4.266 -1.1105  0.0428 -1.2967
   95MOL0     H12790  -1.432   0.109   4.354  0.4177 -0.4382 -1.6050
   95MOL0     H12791  -1.643   0.191   4.352  0.2999 -0.2924  0.1443
   95MOL0     H12792  -1.620   0.119   4.504  2.4684  0.1989 -1.9425
   95MOL0     H12793  -1.843   0.172   4.438 -0.1410 -1.0312  1.1832
   95MOL0     H12794  -1.799   0.263   4.587  2.1072  0.1669  0.7047
   95MOL0     H12795  -1.835   0.364   4.288 -0.3984  0.6023  0.1851
   95MOL0     H12796  -1.735   0.448   4.384  3.3015 -3.4381 -2.2042
   95MOL0     H12797  -2.041   0.384   4.446  0.4829 -0.9834  1.3389
   95MOL0     H12798  -1.935   0.460   4.557  0.2845 -0.8720  0.7729
   95MOL0     H12799  -2.014   0.569   4.282  0.3178  0.6904  0.1725
   95MOL0     H12800  -1.904   0.646   4.399 -0.3354  0.2128  2.8361
   95MOL0     H12801  -2.194   0.576   4.441 -1.5268  1.0399 -0.7814
   95MOL0     H12802  -2.074   0.668   4.548  2.5555  1.5070 -1.8428
   95MOL0     H12803  -2.188   0.761   4.287  0.7162 -1.6225  0.0617
   95MOL0     H12804  -2.045   0.838   4.354  0.6443 -0.4951 -1.7698
   95MOL0     H12805  -2.226   0.981   4.440  0.9403 -0.0863  0.1705
   95MOL0     H12806  -2.180   0.881   4.579 -2.6869 -1.6847  0.5895
   95MOL0     H12807  -1.375   0.534   4.443 -2.9152 -2.2560  2.7834
   95MOL0     H12808  -1.142   0.513   4.352 -1.6840  0.7709  1.9584
   95MOL0     H12809  -0.827   0.439   4.233  0.4552 -1.1468  1.1131
   95MOL0     H12810  -0.593   0.483   4.194 -3.8687  0.0523  3.2486
   95MOL0     H12811   1.230   1.332   3.896  0.1172  0.6079  0.1902
   95MOL0     H12812   1.453   1.361   3.810 -0.3967  0.7070  0.3579
   95MOL0     H12813   1.936   1.233   3.926 -1.8253 -3.1349 -0.4498
   95MOL0     H12814   2.154   1.276   3.819  0.2123 -2.6787  0.6895
   95MOL0     H12815   2.341   1.325   3.723  0.2900 -2.5119  2.2331
   95MOL0     H12816   2.336   1.163   3.643 -0.4308 -0.7311 -3.0406
   95MOL0     H12817   2.545   1.302   3.628  1.1077 -0.1288 -1.4939
   95MOL0     H12818   2.450   1.423   3.539  0.5080  0.1570  0.8364
   95MOL0     H12819   2.581   1.305   3.372 -1.7083  2.8590  0.0119
   95MOL0     H12820   2.404   1.269   3.357  0.7369  1.1761 -0.6693
   95MOL0     H12821   2.547   1.070   3.336 -2.0012 -0.8690  0.3897
   95MOL0     H12822   2.431   1.057   3.471 -1.8848 -0.5798 -3.9419
   95MOL0     H12823   2.799   1.062   3.667  0.2069 -1.5591  0.1642
   95MOL0     H12824   1.977   1.313   3.445  1.7571 -1.9050  0.7530
   95MOL0     H12825   1.740   1.254   3.547 -0.1093  0.9345 -1.1611
   96MOL0     O12826   5.164  11.147  10.732  0.3722 -0.0543 -0.5415
   96MOL0     C12827   5.203  11.216  10.637 -0.7733  1.1658  0.3169
   96MOL0     O12828   5.122  11.275  10.536 -0.6046 -0.5233  0.3028
   96MOL0     C12829   4.982  11.269  10.532 -0.1784  0.4849  0.4192
   96MOL0     C12830   4.908  11.385  10.519  0.4942 -0.3296 -0.6797
   96MOL0     C12831   4.766  11.380  10.521 -0.4326  0.9605  0.3390
   96MOL0     C12832   4.700  11.256  10.518 -0.0379  0.0964 -0.8999
   96MOL0     O12833   4.562  11.235  10.521 -0.3238 -0.0634 -0.8041
   96MOL0     C12834   4.479  11.350  10.517 -0.0095 -0.9108  0.5919
   96MOL0     C12835   4.335  11.306  10.524 -0.0483  0.2507  0.2513
   96MOL0     C12836   4.289  11.264  10.664  0.3834 -0.2493  0.2016
   96MOL0     C12837   4.306  11.115  10.700 -0.2130 -0.2194 -0.4781
   96MOL0     C12838   4.261  11.061  10.844  0.0558  0.2971 -0.1193
   96MOL0     C12839   4.123  11.098  10.889  0.9399  0.5994 -0.3446
   96MOL0     C12840   4.118  11.051  11.034 -0.4910  0.5342  0.1313
   96MOL0     C12841   3.977  11.070  11.097  0.3721 -0.2208  0.0012
   96MOL0     N12842   3.921  11.201  11.065  0.5794  0.4099 -0.5730
   96MOL0     C12843   3.864  11.253  10.952  0.2149  0.9394  0.4512
   96MOL0     C12844   3.850  11.389  10.977  0.8475  1.1880  0.3007
   96MOL0     C12845   3.795  11.490  10.879 -0.4553 -0.1505  0.5705
   96MOL0     C12846   3.653  11.452  10.837  0.1916  0.2599  0.1537
   96MOL0     C12847   3.563  11.448  10.954 -0.1772  0.5181  0.8634
   96MOL0     C12848   3.415  11.417  10.927  0.8494 -0.3616 -0.7048
   96MOL0     O12849   3.362  11.509  10.831 -0.1928  0.5766 -0.1188
   96MOL0     C12850   3.239  11.566  10.859  0.1556  0.5731 -0.6208
   96MOL0     C12851   3.125  11.482  10.873 -0.4605  0.5645  0.1940
   96MOL0     C12852   3.002  11.542  10.878  0.2966 -0.2444 -0.4551
   96MOL0     C12853   2.873  11.455  10.884  0.7463  0.4190  0.0222
   96MOL0     C12854   2.986  11.680  10.896 -0.2088 -0.1454 -0.6957
   96MOL0     C12855   2.858  11.743  10.936  0.4872  0.3795  0.2464
   96MOL0     O12856   2.798  11.691  11.046 -0.4262 -0.2772  0.3983
   96MOL0     C12857   2.684  11.755  11.081 -0.0646 -0.0933  0.3144
   96MOL0     C12858   2.562  11.739  11.008 -0.2638  1.1403 -0.1188
   96MOL0     C12859   2.447  11.788  11.065 -0.4989 -0.8109  0.3602
   96MOL0     C12860   2.448  11.853  11.188  0.0201  0.2033 -0.1853
   96MOL0     O12861   2.346  11.923  11.236  0.1943  0.5992 -0.1391
   96MOL0     C12862   2.216  11.852  11.214  0.4360 -0.0880 -0.3733
   96MOL0     C12863   2.098  11.932  11.273 -0.6466 -0.0021 -0.7860
   96MOL0     C12864   1.967  11.874  11.218  0.1529  0.0833  0.5168
   96MOL0     C12865   1.849  11.939  11.283 -0.2219  0.1797 -0.0212
   96MOL0     C12866   1.725  11.908  11.195 -0.0908  0.5924  0.2353
   96MOL0     C12867   1.614  12.021  11.199  0.2509  0.6348 -0.1739
   96MOL0     C12868   1.479  11.977  11.112 -0.3861 -0.2673 -0.8937
   96MOL0     C12869   1.394  11.909  11.205  0.7848  0.7173 -0.6041
   96MOL0    Cl12870   1.255  11.836  11.111 -0.3471 -0.0028  0.2669
   96MOL0     C12871   2.569  11.860  11.262  0.2297 -0.4135  0.4511
   96MOL0     C12872   2.689  11.818  11.205  1.1800  0.2861 -0.6817
   96MOL0     O12873   2.817  11.849  10.882 -0.2232  0.0758  1.2566
   96MOL0     C12874   3.100  11.761  10.896 -0.1474 -0.0841  0.2187
   96MOL0     C12875   3.227  11.706  10.879 -0.2415 -0.1769 -0.2053
   96MOL0     N12876   3.885  11.409  11.109  0.5455 -0.1487  0.4405
   96MOL0     N12877   3.923  11.298  11.166  0.3040 -0.6295  0.0401
   96MOL0     C12878   4.775  11.137  10.518  0.5036 -0.3671  0.3534
   96MOL0     C12879   4.913  11.144  10.532 -0.5383 -0.2375  0.3376
   96MOL0     C12880   5.352  11.221  10.620  0.0142  0.0939 -0.7185
   96MOL0     C12881   5.403  11.308  10.527 -0.0725 -0.8486  0.4652
   96MOL0     C12882   5.539  11.311  10.509  0.6346  0.2242 -0.7044
   96MOL0     C12883   5.632  11.244  10.592  1.0359  0.2068 -0.3003
   96MOL0     O12884   5.764  11.268  10.574  0.1025  0.7496 -0.4252
   96MOL0     C12885   5.841  11.145  10.559  0.2318 -0.7625  0.2468
   96MOL0     C12886   5.947  11.130  10.663  0.4244  1.1110 -0.0312
   96MOL0     C12887   6.049  11.020  10.639  0.0746  0.1053 -0.4543
   96MOL0     C12888   5.987  10.887  10.590  0.0200 -0.3256  0.2332
   96MOL0     C12889   5.907  10.837  10.700 -0.8112 -0.5439  0.2728
   96MOL0     C12890   5.864  10.799  10.807 -0.7988  0.3480 -0.1400
   96MOL0     C12891   5.576  11.152  10.682  0.7248 -0.6760  0.1767
   96MOL0     C12892   5.440  11.152  10.707  0.9567 -0.4745 -0.0427
   96MOL0     H12893   4.964  11.477  10.507 -2.1658  1.1549 -2.7482
   96MOL0     H12894   4.710  11.473  10.520 -2.4916 -0.2020  1.3481
   96MOL0     H12895   4.491  11.420  10.600 -0.4386 -0.0200 -0.0788
   96MOL0     H12896   4.483  11.406  10.423 -4.0439  0.6276  1.1127
   96MOL0     H12897   4.276  11.393  10.492  2.2535  1.5422 -0.7623
   96MOL0     H12898   4.319  11.222  10.455  0.4390  0.3610 -0.0009
   96MOL0     H12899   4.342  11.335  10.728 -0.0365  0.6583 -0.4267
   96MOL0     H12900   4.182  11.290  10.661  1.3403  4.7192  0.0206
   96MOL0     H12901   4.251  11.058  10.625  0.9621 -1.0241 -0.7534
   96MOL0     H12902   4.412  11.093  10.686 -0.4650 -1.5807 -0.4273
   96MOL0     H12903   4.257  10.954  10.824 -0.1137  0.1277  0.7958
   96MOL0     H12904   4.341  11.087  10.914 -1.1230  0.7095  1.1194
   96MOL0     H12905   4.110  11.207  10.890 -1.5193  0.3483  0.6737
   96MOL0     H12906   4.048  11.050  10.824  1.5699 -0.0824 -0.5835
   96MOL0     H12907   4.140  10.946  11.056 -0.4848  0.7766  1.3266
   96MOL0     H12908   4.181  11.117  11.094 -0.9332 -0.4663  1.7368
   96MOL0     H12909   3.983  11.047  11.204  0.4402 -1.2654 -0.2189
   96MOL0     H12910   3.903  11.006  11.049 -0.4540 -0.4176  1.4820
   96MOL0     H12911   3.843  11.204  10.857  1.5460 -0.8203  1.0070
   96MOL0     H12912   3.787  11.588  10.927 -0.8672  1.4237 -2.4781
   96MOL0     H12913   3.866  11.483  10.796  0.4255  1.4144  1.1493
   96MOL0     H12914   3.644  11.376  10.759 -0.3050  0.4917 -0.0231
   96MOL0     H12915   3.612  11.537  10.781 -2.3706 -0.6735  0.4906
   96MOL0     H12916   3.564  11.544  11.008 -0.6317 -0.4054  2.6097
   96MOL0     H12917   3.605  11.365  11.012 -0.2522 -0.1233  0.0076
   96MOL0     H12918   3.354  11.422  11.018 -2.5961  1.3077 -2.8719
   96MOL0     H12919   3.403  11.315  10.889 -1.5564 -1.6715  2.9362
   96MOL0     H12920   3.138  11.374  10.882 -0.2408  0.5174 -0.6092
   96MOL0     H12921   2.876  11.395  10.975  1.2643  0.2073 -0.1349
   96MOL0     H12922   2.774  11.500  10.869  0.2716 -0.4799  0.3960
   96MOL0     H12923   2.878  11.393  10.794  0.7696  1.0255 -0.3988
   96MOL0     H12924   2.566  11.690  10.911  1.1227  1.2061 -0.1126
   96MOL0     H12925   2.361  11.800  10.999 -0.3372  0.2037  0.3195
   96MOL0     H12926   2.198  11.846  11.106  1.1434  1.7914 -0.6275
   96MOL0     H12927   2.220  11.754  11.263  0.5929  0.7897  1.4503
   96MOL0     H12928   2.110  11.911  11.379 -1.1316 -0.9875 -0.9173
   96MOL0     H12929   2.110  12.041  11.264  1.5868 -0.0337  1.0934
   96MOL0     H12930   1.969  11.765  11.228 -0.1844 -0.0326 -0.6092
   96MOL0     H12931   1.972  11.898  11.112  1.0130 -3.2346 -0.2992
   96MOL0     H12932   1.824  11.891  11.378 -2.9968 -0.4999 -1.0151
   96MOL0     H12933   1.869  12.046  11.294 -0.3777  0.5746 -2.8280
   96MOL0     H12934   1.696  11.812  11.238  1.6617  0.7804  1.9753
   96MOL0     H12935   1.765  11.888  11.095  2.7023 -3.5030  1.8693
   96MOL0     H12936   1.587  12.044  11.303  2.2794  2.2392  0.0749
   96MOL0     H12937   1.657  12.114  11.161  0.3090  0.7133  0.0782
   96MOL0     H12938   1.508  11.913  11.028 -0.2711 -1.5354  0.0881
   96MOL0     H12939   1.419  12.058  11.068 -0.7797 -0.6014 -0.9772
   96MOL0     H12940   1.355  11.986  11.271  0.0474 -0.6917  0.6706
   96MOL0     H12941   1.438  11.822  11.255 -0.1316 -0.5570 -1.9198
   96MOL0     H12942   2.561  11.897  11.364  1.2973 -2.2748  1.2554
   96MOL0     H12943   2.773  11.824  11.273  0.2561  0.4547  0.4670
   96MOL0     H12944   3.096  11.868  10.914  1.5929 -0.4107  3.0867
   96MOL0     H12945   3.316  11.766  10.870  1.5623 -2.6725 -0.0832
   96MOL0     H12946   4.730  11.038  10.518  0.2830 -0.2825  1.3895
   96MOL0     H12947   4.975  11.055  10.544 -3.3762 -2.0860  2.5354
   96MOL0     H12948   5.340  11.361  10.456  1.0032  0.9237  0.7455
   96MOL0     H12949   5.583  11.386  10.445  0.0969  0.6449 -0.5872
   96MOL0     H12950   5.785  11.054  10.536 -2.4513  0.9462 -0.4531
   96MOL0     H12951   5.891  11.158  10.462 -2.4255 -0.2904 -1.1410
   96MOL0     H12952   5.888  11.103  10.751  0.7816 -1.5778 -0.5160
   96MOL0     H12953   5.996  11.226  10.684  0.9217  0.4992  1.8108
   96MOL0     H12954   6.111  11.005  10.728 -0.1329  0.2834 -0.2784
   96MOL0     H12955   6.129  11.047  10.570  2.1819 -3.9082  0.0783
   96MOL0     H12956   6.064  10.813  10.564 -1.0696 -1.5218  0.3231
   96MOL0     H12957   5.930  10.899  10.498 -1.1081 -1.8027  0.6853
   96MOL0     H12958   5.835  10.769  10.906  1.5161  0.8462  0.7402
   96MOL0     H12959   5.634  11.087  10.747 -0.0728  0.0790  1.6886
   96MOL0     H12960   5.392  11.090  10.782 -1.0519 -0.1955 -1.0354
   97MOL0     O12961   5.828   3.384   5.437 -0.0504 -0.5793 -0.5701
   97MOL0     C12962   5.903   3.376   5.537  0.5088 -0.0340  1.2551
   97MOL0     O12963   5.865   3.340   5.663 -0.7877 -0.4389 -0.7168
   97MOL0     C12964   5.736   3.302   5.673  0.6627 -0.1855 -0.1918
   97MOL0     C12965   5.631   3.385   5.726  0.6445 -0.4716 -0.0611
   97MOL0     C12966   5.499   3.343   5.742 -0.8067  0.1045 -0.6669
   97MOL0     C12967   5.461   3.220   5.690 -0.0328 -0.2669  0.5694
   97MOL0     O12968   5.335   3.171   5.691  0.2137  0.2228 -0.9258
   97MOL0     C12969   5.280   3.157   5.561  1.0584  0.3062  0.3821
   97MOL0     C12970   5.237   3.013   5.536  0.1487  0.1433 -0.6347
   97MOL0     C12971   5.095   2.981   5.568 -0.1469  0.4960  0.7233
   97MOL0     C12972   5.044   2.985   5.715  0.0342  0.6445 -0.2986
   97MOL0     C12973   4.942   2.874   5.748 -0.0074  0.1839 -0.5283
   97MOL0     C12974   4.822   2.858   5.650  0.1163  0.3650 -0.7241
   97MOL0     C12975   4.739   2.749   5.715 -0.2436  0.8771 -0.0857
   97MOL0     C12976   4.598   2.749   5.646  0.6812  0.3106  0.6162
   97MOL0     N12977   4.603   2.701   5.505  0.7264 -0.9126 -0.1276
   97MOL0     C12978   4.624   2.571   5.485  0.8592  0.4947  0.1552
   97MOL0     C12979   4.632   2.561   5.352 -0.0505 -0.0102  0.7763
   97MOL0     C12980   4.664   2.434   5.278  0.2260  0.3166 -0.1058
   97MOL0     C12981   4.575   2.427   5.147 -0.3225  0.2665  0.7447
   97MOL0     C12982   4.599   2.299   5.072 -0.0245 -1.0176 -0.0446
   97MOL0     C12983   4.526   2.290   4.940  0.1126  0.3082  0.2979
   97MOL0     O12984   4.542   2.153   4.889 -0.0380  0.1646 -0.4367
   97MOL0     C12985   4.668   2.129   4.841  1.0859  0.7516  0.0609
   97MOL0     C12986   4.762   2.234   4.813 -0.1985  0.0858 -0.0184
   97MOL0     C12987   4.891   2.200   4.764 -1.0677  0.7604  0.4193
   97MOL0     C12988   4.982   2.327   4.763  0.1566 -0.3193  0.2437
   97MOL0     C12989   4.919   2.069   4.718  0.8107  0.0690  0.0055
   97MOL0     C12990   5.041   2.029   4.647 -0.0903 -0.3359 -0.1803
   97MOL0     O12991   5.032   1.904   4.588 -0.4702  0.2928 -0.1254
   97MOL0     C12992   5.146   1.852   4.532 -0.8482  0.7264 -0.4498
   97MOL0     C12993   5.269   1.858   4.594 -0.1381 -0.0341 -0.4111
   97MOL0     C12994   5.383   1.806   4.537  0.1357 -0.0380 -0.2183
   97MOL0     C12995   5.385   1.745   4.409  0.0191 -0.9356  0.1377
   97MOL0     O12996   5.492   1.678   4.349  0.8081 -0.3638 -1.0213
   97MOL0     C12997   5.623   1.725   4.390 -0.2183 -0.7820  0.5062
   97MOL0     C12998   5.728   1.654   4.305 -0.4691  0.1423 -0.6653
   97MOL0     C12999   5.871   1.701   4.342 -0.3226  0.3250  0.8977
   97MOL0     C13000   5.979   1.617   4.264  0.1223 -0.0862  0.3408
   97MOL0     C13001   6.124   1.651   4.315 -0.1080  0.0027 -0.7800
   97MOL0     C13002   6.228   1.568   4.238  0.2908  0.6418 -0.2730
   97MOL0     C13003   6.364   1.597   4.300  0.3991  0.0954  0.3457
   97MOL0     C13004   6.481   1.520   4.239  0.0651  0.7560 -0.3338
   97MOL0    Cl13005   6.640   1.564   4.303 -0.1474 -0.6355  0.4571
   97MOL0     C13006   5.261   1.727   4.347 -0.3523  0.4439 -0.0085
   97MOL0     C13007   5.144   1.782   4.405 -0.3465  0.4665 -0.7790
   97MOL0     O13008   5.139   2.104   4.641  0.2057 -0.1539  0.1450
   97MOL0     C13009   4.810   1.979   4.730 -0.4497  0.0204  0.2388
   97MOL0     C13010   4.696   2.003   4.802  0.5542  0.5988 -0.0684
   97MOL0     N13011   4.605   2.696   5.295 -0.3406  0.2324 -0.3841
   97MOL0     N13012   4.586   2.777   5.392  0.6358  0.4593  0.4829
   97MOL0     C13013   5.558   3.137   5.636  0.2077  0.4333 -0.2096
   97MOL0     C13014   5.695   3.174   5.631  0.2814 -0.2837  1.0726
   97MOL0     C13015   6.034   3.439   5.509 -0.1122  0.0647  0.0347
   97MOL0     C13016   6.080   3.485   5.380  0.2603  0.1508  0.2743
   97MOL0     C13017   6.189   3.568   5.371  0.9473  0.2291 -0.4181
   97MOL0     C13018   6.258   3.601   5.487  0.3097  0.1574 -0.6215
   97MOL0     O13019   6.370   3.678   5.488 -0.7496 -0.5322 -0.7975
   97MOL0     C13020   6.388   3.773   5.378 -0.0197  0.3836 -0.2880
   97MOL0     C13021   6.498   3.870   5.390 -0.5552  0.2767 -0.0347
   97MOL0     C13022   6.629   3.803   5.444 -0.1156 -0.1990  0.1696
   97MOL0     C13023   6.734   3.913   5.455  0.5430  0.3504 -0.9384
   97MOL0     C13024   6.781   3.967   5.321  0.2644 -0.0165  0.0852
   97MOL0     C13025   6.810   4.004   5.210 -0.6522  0.5209  0.2166
   97MOL0     C13026   6.225   3.547   5.617 -0.6297 -0.6568 -0.1675
   97MOL0     C13027   6.115   3.459   5.628  0.0704 -0.2576  0.4927
   97MOL0     H13028   5.655   3.481   5.770 -0.6519 -1.1209  2.2603
   97MOL0     H13029   5.425   3.408   5.789  0.5395  1.2322 -0.0334
   97MOL0     H13030   5.196   3.227   5.552 -1.6260 -2.7172 -0.1409
   97MOL0     H13031   5.357   3.184   5.489 -0.6597  0.7137 -1.4096
   97MOL0     H13032   5.264   2.990   5.433 -1.9585  0.6521 -1.3556
   97MOL0     H13033   5.292   2.943   5.599  1.2551  1.6552  0.1435
   97MOL0     H13034   5.031   3.050   5.514  3.4271  3.7030  0.1425
   97MOL0     H13035   5.079   2.877   5.538 -2.8674  1.1775 -0.4305
   97MOL0     H13036   5.133   2.969   5.776  0.7014 -0.6863 -1.5556
   97MOL0     H13037   4.990   3.079   5.734 -0.7529  0.0213  0.6803
   97MOL0     H13038   4.996   2.779   5.758 -2.4283 -1.2318  0.0940
   97MOL0     H13039   4.902   2.897   5.847  2.7579  2.9358  0.0890
   97MOL0     H13040   4.775   2.953   5.621 -1.1859 -0.5337 -1.6612
   97MOL0     H13041   4.870   2.814   5.562 -0.9514 -1.1212 -0.5926
   97MOL0     H13042   4.781   2.648   5.720 -0.6640  0.7168  0.2568
   97MOL0     H13043   4.710   2.775   5.817 -2.6642  2.6531 -1.1293
   97MOL0     H13044   4.558   2.851   5.649 -0.7011 -0.0717 -1.6270
   97MOL0     H13045   4.531   2.687   5.707 -0.7642 -0.6823 -1.7884
   97MOL0     H13046   4.627   2.493   5.560  0.0396 -0.3624 -0.6681
   97MOL0     H13047   4.771   2.423   5.264  0.7210 -0.5666  3.4184
   97MOL0     H13048   4.639   2.351   5.346  2.2100  1.5394  2.2973
   97MOL0     H13049   4.595   2.516   5.086 -4.1048  2.1195  1.9051
   97MOL0     H13050   4.471   2.422   5.180  0.2076  1.0715  2.6941
   97MOL0     H13051   4.575   2.214   5.136 -0.6602 -0.5066  0.4027
   97MOL0     H13052   4.707   2.300   5.053  0.3604 -2.7742  1.8083
   97MOL0     H13053   4.552   2.365   4.865 -4.1024  0.3215 -1.3953
   97MOL0     H13054   4.419   2.312   4.950 -0.4485 -1.6715 -0.8968
   97MOL0     H13055   4.755   2.339   4.837  4.4614 -0.1583  4.0552
   97MOL0     H13056   5.034   2.342   4.858  1.6138  3.0749 -0.9465
   97MOL0     H13057   5.064   2.317   4.691  2.7536 -0.1487  2.9663
   97MOL0     H13058   4.930   2.420   4.743  0.1025  0.0538  1.9394
   97MOL0     H13059   5.271   1.890   4.697  1.7773  0.1096 -0.4447
   97MOL0     H13060   5.480   1.817   4.584  1.2495 -1.7970 -1.9397
   97MOL0     H13061   5.646   1.830   4.370  1.3782 -0.9383  1.3688
   97MOL0     H13062   5.638   1.701   4.496 -1.6709  0.0312  0.9143
   97MOL0     H13063   5.713   1.548   4.326  2.0915 -0.0983  0.2196
   97MOL0     H13064   5.709   1.673   4.199 -1.0529 -1.3043 -0.8428
   97MOL0     H13065   5.893   1.671   4.445 -1.5991 -1.2691  0.7450
   97MOL0     H13066   5.888   1.808   4.327  0.9510  0.2130  1.3708
   97MOL0     H13067   5.960   1.509   4.270  4.3049 -0.9796  0.8213
   97MOL0     H13068   5.969   1.653   4.161  1.9502 -0.2923  0.0442
   97MOL0     H13069   6.132   1.629   4.422 -0.0241  0.6416 -0.6529
   97MOL0     H13070   6.151   1.755   4.298  0.1122 -0.2893 -2.3072
   97MOL0     H13071   6.213   1.460   4.242  0.5257  0.5916 -0.6953
   97MOL0     H13072   6.217   1.615   4.140 -0.1344  3.0013  0.8365
   97MOL0     H13073   6.351   1.564   4.404  3.3777  1.8877  1.4311
   97MOL0     H13074   6.377   1.706   4.292 -1.9093  0.3010 -1.5096
   97MOL0     H13075   6.479   1.537   4.131 -0.5485 -3.4193 -1.1624
   97MOL0     H13076   6.466   1.413   4.256 -0.0998  0.6387 -1.1691
   97MOL0     H13077   5.260   1.666   4.258  3.5379  2.3856 -1.6098
   97MOL0     H13078   5.045   1.762   4.367 -1.8317  2.2558  1.8179
   97MOL0     H13079   4.806   1.881   4.683 -1.0907  0.2605 -0.2132
   97MOL0     H13080   4.614   1.932   4.797  0.5565  0.6640 -1.6410
   97MOL0     H13081   5.534   3.037   5.600  1.4973 -0.1503  0.5090
   97MOL0     H13082   5.773   3.114   5.585 -0.3797  0.8870 -1.8269
   97MOL0     H13083   6.031   3.474   5.284  1.1348  1.2409 -0.3264
   97MOL0     H13084   6.220   3.617   5.280  0.3046  0.8326 -0.3297
   97MOL0     H13085   6.399   3.711   5.288  0.7633  0.9955 -0.6334
   97MOL0     H13086   6.303   3.840   5.361 -1.6331 -1.5613 -0.2334
   97MOL0     H13087   6.474   3.956   5.454  3.7644  0.8186  1.1789
   97MOL0     H13088   6.515   3.916   5.292 -1.0366  1.1330  0.2648
   97MOL0     H13089   6.664   3.727   5.373 -1.4042 -1.2986  0.6749
   97MOL0     H13090   6.617   3.762   5.544  0.8676  0.8089  0.7246
   97MOL0     H13091   6.817   3.861   5.504 -1.3268 -2.0692 -0.1622
   97MOL0     H13092   6.691   3.988   5.522  1.1861  1.6460 -1.9457
   97MOL0     H13093   6.840   4.037   5.112 -2.6866  1.3547 -0.1832
   97MOL0     H13094   6.297   3.579   5.691 -1.9813 -0.2080  0.9938
   97MOL0     H13095   6.071   3.421   5.720 -0.9040 -0.6905 -0.1320
   98MOL0     O13096   6.985   3.419   7.098 -0.4955  0.3961  0.4314
   98MOL0     C13097   7.025   3.305   7.066 -0.3413  0.3275 -0.5905
   98MOL0     O13098   6.982   3.190   7.135 -0.4703  0.2302 -0.8741
   98MOL0     C13099   6.870   3.186   7.209  0.2385 -0.0696 -0.4340
   98MOL0     C13100   6.755   3.263   7.197  1.0789 -0.6076  0.4323
   98MOL0     C13101   6.645   3.255   7.281 -0.1136  0.3795 -0.3373
   98MOL0     C13102   6.631   3.144   7.374 -0.2573 -0.6958  0.7167
   98MOL0     O13103   6.530   3.128   7.463 -0.2574 -0.1300  0.0272
   98MOL0     C13104   6.405   3.191   7.432 -0.1593  0.5154  0.6112
   98MOL0     C13105   6.337   3.187   7.557  0.6054  0.2463 -0.4182
   98MOL0     C13106   6.182   3.228   7.543 -0.2526 -0.4181  0.0553
   98MOL0     C13107   6.120   3.226   7.694  0.3878 -1.2062 -0.5476
   98MOL0     C13108   5.981   3.297   7.700 -0.3478 -0.5140  0.0138
   98MOL0     C13109   5.875   3.231   7.610  0.2038 -0.3534 -0.6206
   98MOL0     C13110   5.764   3.332   7.578 -0.1914 -0.6186  0.1068
   98MOL0     C13111   5.654   3.278   7.484 -0.4466  0.7763  0.2688
   98MOL0     N13112   5.548   3.377   7.467 -0.4124 -0.5565 -0.0277
   98MOL0     C13113   5.452   3.432   7.547  0.6949 -0.3220 -0.9393
   98MOL0     C13114   5.382   3.520   7.471 -0.4676 -0.2874 -0.0491
   98MOL0     C13115   5.271   3.604   7.532  0.0635 -0.4197  0.1650
   98MOL0     C13116   5.136   3.565   7.469 -0.9678 -0.8421  0.1135
   98MOL0     C13117   5.100   3.428   7.526 -0.0636 -0.1750 -0.2049
   98MOL0     C13118   4.954   3.401   7.477  0.0130  0.1538 -0.5730
   98MOL0     O13119   4.862   3.490   7.540  0.6540  0.2632 -0.0398
   98MOL0     C13120   4.725   3.487   7.502  0.4895  0.0524  0.4662
   98MOL0     C13121   4.676   3.395   7.409  0.0900 -0.0837 -0.6192
   98MOL0     C13122   4.538   3.399   7.374 -0.9846 -0.4928 -1.4693
   98MOL0     C13123   4.503   3.303   7.275  0.2588  0.2926 -0.5039
   98MOL0     C13124   4.457   3.479   7.448  0.3996 -0.2974 -0.7165
   98MOL0     C13125   4.304   3.475   7.441 -0.2741  0.4645  0.5523
   98MOL0     O13126   4.234   3.595   7.434 -0.1417 -0.3388 -0.0641
   98MOL0     C13127   4.098   3.614   7.467 -0.3029 -0.4549 -0.5373
   98MOL0     C13128   4.043   3.727   7.417 -0.3136 -0.6249 -0.6153
   98MOL0     C13129   3.907   3.759   7.445 -0.3338 -0.6901  0.5319
   98MOL0     C13130   3.822   3.683   7.525 -0.5034  0.7513 -0.7097
   98MOL0     O13131   3.692   3.726   7.556 -0.0033  0.2508 -0.4823
   98MOL0     C13132   3.593   3.630   7.586 -0.9063  0.3932 -0.8015
   98MOL0     C13133   3.461   3.690   7.629 -0.2880 -0.0062  0.0327
   98MOL0     C13134   3.407   3.786   7.524 -0.6670 -0.9168  0.7071
   98MOL0     C13135   3.263   3.801   7.549 -0.0087 -0.4018  0.9680
   98MOL0     C13136   3.176   3.692   7.479 -0.0030 -0.2984  0.2392
   98MOL0     C13137   3.142   3.733   7.331  0.7889 -0.2214  0.0520
   98MOL0     C13138   3.080   3.610   7.265 -0.4433 -0.1856 -0.2297
   98MOL0     C13139   3.004   3.649   7.139 -0.0300 -0.0963 -0.3350
   98MOL0    Cl13140   2.998   3.508   7.022 -0.2618 -0.6243 -0.2180
   98MOL0     C13141   3.877   3.556   7.563  0.8469 -0.9819 -0.5760
   98MOL0     C13142   4.009   3.526   7.520  0.8388  0.3505 -0.8846
   98MOL0     O13143   4.252   3.360   7.443  0.3258 -0.8058  0.3064
   98MOL0     C13144   4.509   3.579   7.535 -0.1073 -0.3045 -0.1794
   98MOL0     C13145   4.650   3.584   7.558  0.1026 -0.3093 -0.4370
   98MOL0     N13146   5.445   3.522   7.341  0.9533  1.2178 -0.5068
   98MOL0     N13147   5.544   3.445   7.350  0.3111 -0.6827 -0.1799
   98MOL0     C13148   6.747   3.062   7.373 -0.5659  0.4211 -0.5163
   98MOL0     C13149   6.865   3.075   7.300 -0.2677  0.3421 -0.1143
   98MOL0     C13150   7.133   3.280   6.967  0.2488 -0.1630  0.1855
   98MOL0     C13151   7.159   3.157   6.914  0.0841  1.2471 -0.4097
   98MOL0     C13152   7.262   3.127   6.829 -0.0873  0.4054 -0.1131
   98MOL0     C13153   7.338   3.233   6.783  0.3273 -0.9304  0.4120
   98MOL0     O13154   7.443   3.221   6.694  0.2085  0.1436 -0.5006
   98MOL0     C13155   7.486   3.085   6.674 -0.2832  0.2307  0.6161
   98MOL0     C13156   7.613   3.076   6.577  0.1592  1.3051 -0.0786
   98MOL0     C13157   7.732   3.143   6.657  1.0710  0.2054 -0.5716
   98MOL0     C13158   7.844   3.162   6.560  0.0206  0.7104 -0.6928
   98MOL0     C13159   7.915   3.035   6.543  0.4395 -0.2231 -0.0956
   98MOL0     C13160   7.979   2.933   6.540  0.1752  0.6043  0.5653
   98MOL0     C13161   7.311   3.366   6.825  0.0356  0.6503  0.4946
   98MOL0     C13162   7.205   3.387   6.911 -0.0143 -0.4923  0.8674
   98MOL0     H13163   6.757   3.355   7.140  0.6320 -0.3602  0.8099
   98MOL0     H13164   6.561   3.317   7.254 -1.0205  0.9674  3.3086
   98MOL0     H13165   6.415   3.298   7.411  0.7947  0.2942 -0.1544
   98MOL0     H13166   6.351   3.136   7.354  0.3754  0.2109  0.4535
   98MOL0     H13167   6.339   3.083   7.592  1.5400 -0.0164 -1.1964
   98MOL0     H13168   6.385   3.252   7.630  0.3784 -1.4658  1.3270
   98MOL0     H13169   6.175   3.323   7.489  0.2572 -0.8447 -0.7750
   98MOL0     H13170   6.124   3.149   7.492  2.4700 -2.2120 -0.4533
   98MOL0     H13171   6.102   3.123   7.726 -0.4003 -0.8614  0.1500
   98MOL0     H13172   6.184   3.272   7.769  0.1646 -1.9569  0.1174
   98MOL0     H13173   5.951   3.310   7.805  2.5800 -1.8154  1.1168
   98MOL0     H13174   6.000   3.403   7.679 -0.7752  0.3472  3.3873
   98MOL0     H13175   5.915   3.187   7.518  1.1916  0.7551 -0.7507
   98MOL0     H13176   5.825   3.156   7.671  1.0516 -1.0816 -0.8070
   98MOL0     H13177   5.705   3.346   7.670 -0.6583 -4.9504  0.6518
   98MOL0     H13178   5.813   3.421   7.537 -1.1312  0.8192  1.9206
   98MOL0     H13179   5.615   3.183   7.521  2.6841  0.6068  3.6653
   98MOL0     H13180   5.696   3.246   7.388 -0.9338 -5.0215  1.6630
   98MOL0     H13181   5.426   3.418   7.651  0.1721  2.9599 -0.5435
   98MOL0     H13182   5.269   3.584   7.639  2.0621 -1.1795  0.1044
   98MOL0     H13183   5.307   3.702   7.498 -0.0951 -0.9055 -1.4645
   98MOL0     H13184   5.145   3.557   7.361 -0.9327  3.1135 -0.3252
   98MOL0     H13185   5.067   3.643   7.503 -1.0855 -2.1936  3.4226
   98MOL0     H13186   5.103   3.431   7.635  2.0206  2.1119 -0.2295
   98MOL0     H13187   5.163   3.346   7.491 -0.3764 -0.7053  0.4533
   98MOL0     H13188   4.927   3.298   7.503 -2.0453  0.7813 -0.0509
   98MOL0     H13189   4.944   3.410   7.369  1.6007  1.0447 -0.6738
   98MOL0     H13190   4.736   3.316   7.364 -0.5422 -1.8670  1.4894
   98MOL0     H13191   4.410   3.328   7.223 -0.7651 -0.4407  0.8754
   98MOL0     H13192   4.582   3.284   7.203 -2.6085  1.2703 -4.2274
   98MOL0     H13193   4.481   3.205   7.319 -1.5466  0.2850 -1.3276
   98MOL0     H13194   4.113   3.789   7.361  1.8683 -2.0578  0.3926
   98MOL0     H13195   3.871   3.850   7.399  2.2947  1.8816  3.1074
   98MOL0     H13196   3.566   3.559   7.507 -1.7911  0.7755 -0.8626
   98MOL0     H13197   3.640   3.571   7.665 -1.6385  0.7866 -0.0651
   98MOL0     H13198   3.391   3.611   7.658  1.3533 -0.4673  3.0655
   98MOL0     H13199   3.470   3.753   7.717 -0.8450  1.9126 -1.2260
   98MOL0     H13200   3.438   3.751   7.425  0.8667  1.8878  0.0746
   98MOL0     H13201   3.455   3.885   7.525 -0.1060 -1.1776  0.2175
   98MOL0     H13202   3.235   3.807   7.654 -1.4205 -2.4862  0.7650
   98MOL0     H13203   3.244   3.899   7.505 -0.7550 -0.3291  1.4436
   98MOL0     H13204   3.091   3.686   7.547 -0.7592  2.0551 -0.4086
   98MOL0     H13205   3.223   3.593   7.486 -1.8295 -1.1320  1.6030
   98MOL0     H13206   3.067   3.813   7.339  1.1284  0.2876 -1.5269
   98MOL0     H13207   3.229   3.777   7.281  0.9066 -0.6995 -0.1699
   98MOL0     H13208   3.017   3.549   7.330 -1.5700  0.0387 -1.0818
   98MOL0     H13209   3.160   3.539   7.239  0.7697  0.5388  1.3936
   98MOL0     H13210   3.055   3.732   7.090  0.8618  0.1272  0.9358
   98MOL0     H13211   2.902   3.680   7.164  0.6932  0.2373  2.5225
   98MOL0     H13212   3.822   3.475   7.609  0.9694 -1.5434 -1.4038
   98MOL0     H13213   4.051   3.429   7.542  1.0601  0.8142  0.8835
   98MOL0     H13214   4.441   3.652   7.577  0.9402  0.5075  0.1273
   98MOL0     H13215   4.701   3.663   7.611 -0.3479  1.4080 -2.4179
   98MOL0     H13216   6.757   2.979   7.443  1.6308  0.3212 -0.8774
   98MOL0     H13217   6.953   3.015   7.317 -0.3655  0.6710  1.7265
   98MOL0     H13218   7.096   3.072   6.940  1.5117 -0.7362 -2.9339
   98MOL0     H13219   7.281   3.022   6.808  2.1178  0.2894  2.1406
   98MOL0     H13220   7.510   3.027   6.764 -0.0949 -2.3234 -0.9793
   98MOL0     H13221   7.405   3.036   6.620 -2.3262  2.1545  1.7368
   98MOL0     H13222   7.585   3.122   6.482  0.5063 -0.2715 -0.9889
   98MOL0     H13223   7.631   2.970   6.555 -0.0797  1.3810 -0.6451
   98MOL0     H13224   7.764   3.073   6.735 -1.4922  1.2730  1.5664
   98MOL0     H13225   7.710   3.229   6.720 -0.5945 -0.1333 -0.6512
   98MOL0     H13226   7.919   3.231   6.599 -1.3897  2.0804 -0.2982
   98MOL0     H13227   7.801   3.210   6.471 -2.5933 -0.2784 -0.0542
   98MOL0     H13228   8.030   2.840   6.528 -3.5565 -1.5149 -0.7488
   98MOL0     H13229   7.373   3.452   6.801 -1.5372  1.7070  0.0189
   98MOL0     H13230   7.201   3.485   6.957  0.1433 -1.4804  3.1638
   99MOL0     O13231   9.306   9.845  11.255 -0.3537 -0.6546  0.1932
   99MOL0     C13232   9.358   9.748  11.210  0.3305 -0.0120  0.0064
   99MOL0     O13233   9.294   9.635  11.177  0.3217  0.3058 -0.2495
   99MOL0     C13234   9.164   9.641  11.154  0.0611 -0.2108  0.5921
   99MOL0     C13235   9.080   9.623  11.268  0.2062  0.3858 -0.1069
   99MOL0     C13236   8.942   9.622  11.247  0.3197 -0.6745 -0.1139
   99MOL0     C13237   8.888   9.652  11.126 -0.1449  0.5516 -0.7284
   99MOL0     O13238   8.753   9.656  11.110 -0.0947 -1.1055 -0.3145
   99MOL0     C13239   8.685   9.592  10.995 -0.5244 -0.1954 -0.4200
   99MOL0     C13240   8.679   9.438  11.006 -0.1692  0.5816  0.3822
   99MOL0     C13241   8.553   9.373  10.944  0.5489 -0.1302 -0.2568
   99MOL0     C13242   8.584   9.376  10.792 -0.2729 -0.7245 -0.3320
   99MOL0     C13243   8.478   9.311  10.697 -0.6022  0.0689 -0.5371
   99MOL0     C13244   8.482   9.366  10.553 -0.0933 -1.1086 -0.4789
   99MOL0     C13245   8.400   9.268  10.457  0.1461  0.4227 -0.5742
   99MOL0     C13246   8.348   9.342  10.336 -0.1837 -0.1572 -0.1156
   99MOL0     N13247   8.235   9.277  10.271  0.4732 -0.7270  0.1565
   99MOL0     C13248   8.105   9.293  10.302  0.7986  1.1559 -0.7736
   99MOL0     C13249   8.032   9.199  10.233 -0.7643  0.5495  0.2756
   99MOL0     C13250   7.884   9.183  10.250 -0.2696  0.4700  0.2689
   99MOL0     C13251   7.837   9.044  10.191 -0.3784  0.3366  0.9865
   99MOL0     C13252   7.704   8.991  10.253 -0.1948  0.5339  0.2574
   99MOL0     C13253   7.577   9.071  10.221  0.0267  0.5568  0.1832
   99MOL0     O13254   7.479   8.981  10.273  0.1261  0.4175 -0.5734
   99MOL0     C13255   7.354   9.024  10.280  0.4617 -0.6493  0.5446
   99MOL0     C13256   7.308   9.137  10.218  1.3049  0.0029  0.5276
   99MOL0     C13257   7.172   9.182  10.234  0.1147 -0.4989 -0.4724
   99MOL0     C13258   7.134   9.302  10.155 -0.8200  0.0607 -0.3741
   99MOL0     C13259   7.076   9.107  10.309 -0.0682  0.4396  0.5578
   99MOL0     C13260   6.926   9.134  10.326 -0.6448  0.2810 -0.1003
   99MOL0     O13261   6.854   9.042  10.389  0.2141  0.0754  1.3478
   99MOL0     C13262   6.711   9.065  10.397 -0.1290  0.2760 -0.3915
   99MOL0     C13263   6.653   9.136  10.498  0.1161 -0.7266  0.1755
   99MOL0     C13264   6.512   9.157  10.499  0.0100  0.5317 -0.2452
   99MOL0     C13265   6.433   9.114  10.392  0.0317  0.3668  0.4754
   99MOL0     O13266   6.297   9.142  10.404  0.0120 -0.4925  0.4430
   99MOL0     C13267   6.206   9.137  10.293 -0.2310 -0.5344  0.4977
   99MOL0     C13268   6.074   9.171  10.361  0.6688 -0.1577  0.6559
   99MOL0     C13269   5.969   9.171  10.247 -0.0367  0.5825  0.4431
   99MOL0     C13270   5.842   9.223  10.304  0.0227  0.3273  0.0353
   99MOL0     C13271   5.737   9.194  10.202  0.1944  0.3550  0.0527
   99MOL0     C13272   5.603   9.225  10.270 -0.1471  0.0925  0.1308
   99MOL0     C13273   5.487   9.211  10.173  0.5131  0.3372  0.4575
   99MOL0     C13274   5.498   9.297  10.047  0.5713 -0.1449  0.0772
   99MOL0    Cl13275   5.333   9.319   9.976  0.1801 -0.2483 -0.0198
   99MOL0     C13276   6.494   9.045  10.285  0.0654  0.6012  0.1204
   99MOL0     C13277   6.633   9.027  10.288  0.2687  0.3055 -0.0042
   99MOL0     O13278   6.879   9.230  10.273  0.3529 -0.1936 -0.3388
   99MOL0     C13279   7.126   8.977  10.356 -0.3535 -0.1177 -0.1216
   99MOL0     C13280   7.263   8.946  10.353 -0.1523  0.3476 -0.5141
   99MOL0     N13281   8.116   9.141  10.138  0.3489  0.8540  0.2873
   99MOL0     N13282   8.236   9.183  10.177  1.1501 -0.0161  0.3197
   99MOL0     C13283   8.977   9.664  11.014  0.1257 -0.4978  0.1641
   99MOL0     C13284   9.113   9.653  11.027 -0.2668  0.8177 -0.2399
   99MOL0     C13285   9.501   9.755  11.182 -0.0885 -0.1177 -1.0671
   99MOL0     C13286   9.564   9.880  11.209  0.4710 -0.8631  0.5083
   99MOL0     C13287   9.699   9.890  11.219  0.3490 -0.4827 -0.1703
   99MOL0     C13288   9.784   9.782  11.205  0.1342 -0.6590 -0.4235
   99MOL0     O13289   9.921   9.776  11.224  0.0146  0.0558 -0.0862
   99MOL0     C13290   9.979   9.892  11.278  0.0460  0.0754 -0.3816
   99MOL0     C13291  10.128   9.866  11.336  1.0739  0.1328  0.5760
   99MOL0     C13292  10.227   9.858  11.210 -0.0285  0.3511 -0.0565
   99MOL0     C13293  10.327   9.965  11.177 -0.5325  0.1841 -0.5740
   99MOL0     C13294  10.404  10.005  11.297 -0.6098  0.3772  0.2825
   99MOL0     C13295  10.473  10.041  11.394  0.0278 -1.2175  0.6137
   99MOL0     C13296   9.720   9.656  11.180  0.4659 -0.0571  0.0775
   99MOL0     C13297   9.585   9.639  11.167 -0.4188  0.0396 -0.7182
   99MOL0     H13298   9.122   9.605  11.366 -1.2954  0.3016  0.5333
   99MOL0     H13299   8.874   9.602  11.329  1.7681 -1.6067  0.9073
   99MOL0     H13300   8.589   9.639  11.016 -0.2974 -0.0096  0.2145
   99MOL0     H13301   8.730   9.624  10.901  1.4742 -1.4753  0.0098
   99MOL0     H13302   8.769   9.392  10.965  0.0334 -0.4842  1.9072
   99MOL0     H13303   8.690   9.410  11.112  2.4334 -0.6029 -0.1248
   99MOL0     H13304   8.544   9.268  10.974 -0.9373 -0.5862 -2.0498
   99MOL0     H13305   8.462   9.427  10.970 -0.1000 -1.4068  0.2098
   99MOL0     H13306   8.590   9.481  10.765 -2.0774 -0.4189  0.2907
   99MOL0     H13307   8.679   9.323  10.780 -0.7023 -1.4431 -0.6259
   99MOL0     H13308   8.498   9.203  10.699  0.7809  0.2967 -1.0831
   99MOL0     H13309   8.381   9.339  10.739 -0.0462  1.9124 -0.4054
   99MOL0     H13310   8.451   9.471  10.556  1.4321 -0.6494  0.3071
   99MOL0     H13311   8.588   9.374  10.527 -0.2083 -0.2405 -0.7077
   99MOL0     H13312   8.459   9.177  10.437 -1.0748 -1.1845  2.5256
   99MOL0     H13313   8.313   9.229  10.509  0.6716  2.3074  1.8846
   99MOL0     H13314   8.424   9.360  10.260 -0.1402  3.7536  0.6219
   99MOL0     H13315   8.314   9.441  10.368  1.5266  0.4356 -0.0792
   99MOL0     H13316   8.072   9.352  10.387  0.2368 -1.5106  0.9818
   99MOL0     H13317   7.853   9.181  10.355 -2.0708  3.3860 -0.0903
   99MOL0     H13318   7.837   9.271  10.203  2.7649  2.2344  0.2787
   99MOL0     H13319   7.918   8.973  10.209  1.0168  1.7484  0.5441
   99MOL0     H13320   7.841   9.042  10.082  1.5250  0.6868  1.0248
   99MOL0     H13321   7.725   8.998  10.360  1.9634  2.7675 -0.2111
   99MOL0     H13322   7.687   8.886  10.228 -0.9706  0.3705  1.4385
   99MOL0     H13323   7.564   9.095  10.115 -3.4022 -3.0703 -0.4669
   99MOL0     H13324   7.579   9.162  10.281  2.5666  0.1474  0.8283
   99MOL0     H13325   7.377   9.187  10.152  0.4682 -0.1397 -0.4945
   99MOL0     H13326   7.222   9.341  10.103  1.0405 -3.5230 -0.1819
   99MOL0     H13327   7.060   9.271  10.082 -0.3530 -1.1740 -0.3360
   99MOL0     H13328   7.087   9.386  10.208 -1.5809  0.3248 -1.4291
   99MOL0     H13329   6.708   9.181  10.580 -0.4505 -0.8233  0.6148
   99MOL0     H13330   6.454   9.200  10.580 -0.6604  1.3944 -1.1570
   99MOL0     H13331   6.244   9.213  10.224 -1.5015 -0.9930 -0.7381
   99MOL0     H13332   6.203   9.038  10.248 -1.6877 -0.1588 -0.2749
   99MOL0     H13333   6.047   9.089  10.428  1.4664 -0.6050  0.4519
   99MOL0     H13334   6.068   9.270  10.407 -1.3433 -0.9068  2.1564
   99MOL0     H13335   5.963   9.068  10.210 -3.2705  0.5944  0.6870
   99MOL0     H13336   6.006   9.235  10.166  1.2237  2.2067  2.2116
   99MOL0     H13337   5.820   9.173  10.400 -0.7497 -0.2178 -0.4106
   99MOL0     H13338   5.862   9.329  10.318  3.9746 -0.4610  1.7051
   99MOL0     H13339   5.747   9.090  10.168  1.7874  0.2322  0.7814
   99MOL0     H13340   5.758   9.259  10.116 -1.4412 -0.4535 -1.0126
   99MOL0     H13341   5.570   9.154  10.346 -0.4092  0.7039  0.5962
   99MOL0     H13342   5.607   9.327  10.309 -0.9118  0.2308 -0.1372
   99MOL0     H13343   5.396   9.249  10.221 -0.5228 -0.4787 -0.8310
   99MOL0     H13344   5.478   9.107  10.142 -1.7387  1.0813 -1.7038
   99MOL0     H13345   5.552   9.249   9.965 -1.4440 -1.5006 -0.5300
   99MOL0     H13346   5.553   9.389  10.071 -0.1625 -0.0518  1.4865
   99MOL0     H13347   6.436   9.007  10.202 -0.2193 -1.1079  1.0635
   99MOL0     H13348   6.690   8.971  10.215  3.0604 -0.3916  2.4814
   99MOL0     H13349   7.055   8.916  10.411 -0.1242 -0.3710 -0.1083
   99MOL0     H13350   7.309   8.866  10.409  0.5651  1.2159  0.1712
   99MOL0     H13351   8.938   9.669  10.913 -0.4279  0.3058  0.4086
   99MOL0     H13352   9.179   9.672  10.943  0.6387  4.6225  1.0927
   99MOL0     H13353   9.504   9.970  11.218  0.2334 -0.8267 -1.1282
   99MOL0     H13354   9.737   9.983  11.260  2.2006 -1.7841  1.2341
   99MOL0     H13355   9.989   9.967  11.199 -2.7409  0.1927 -0.6949
   99MOL0     H13356   9.933   9.934  11.367  3.7029  0.2846  1.6329
   99MOL0     H13357  10.134   9.769  11.386 -2.5755 -1.5293 -1.7539
   99MOL0     H13358  10.157   9.952  11.398  0.1057  2.3078 -1.7866
   99MOL0     H13359  10.163   9.842  11.123  0.7578 -1.0267 -0.4077
   99MOL0     H13360  10.298   9.776  11.215  0.8350  0.7712 -3.2096
   99MOL0     H13361  10.266  10.049  11.143 -2.3764 -1.1569 -0.7439
   99MOL0     H13362  10.390   9.926  11.097 -0.8178 -1.6980  0.0885
   99MOL0     H13363  10.524  10.097  11.469  0.4243 -1.3362  0.4365
   99MOL0     H13364   9.782   9.567  11.183  0.7455  0.1509  1.5450
   99MOL0     H13365   9.539   9.540  11.158 -1.6305  0.7677 -3.7104
  100MOL0     O13366   5.217   4.385  11.216  0.5137  0.1223 -0.9585
  100MOL0     C13367   5.122   4.309  11.192 -0.1605 -0.3721 -0.4570
  100MOL0     O13368   5.119   4.212  11.086 -0.8559 -0.6921 -0.7445
  100MOL0     C13369   5.226   4.199  10.997 -0.4429 -1.1015  0.2754
  100MOL0     C13370   5.187   4.195  10.861 -0.1435  0.3043 -0.4294
  100MOL0     C13371   5.284   4.174  10.760 -0.0435  0.5438  0.4787
  100MOL0     C13372   5.417   4.165  10.799 -0.3854  0.2145  0.7427
  100MOL0     O13373   5.510   4.135  10.700 -0.2828  0.1517 -0.4454
  100MOL0     C13374   5.651   4.128  10.745  0.6921 -1.1597  0.1168
  100MOL0     C13375   5.751   4.098  10.631  0.1642  0.0366  0.1757
  100MOL0     C13376   5.896   4.106  10.679 -0.0248 -0.5768 -0.6878
  100MOL0     C13377   5.938   3.979  10.751  1.6243 -0.3499 -0.5489
  100MOL0     C13378   6.081   3.995  10.787 -0.1362  0.2490 -0.7286
  100MOL0     C13379   6.142   3.876  10.857  1.0866  0.0874 -0.1428
  100MOL0     C13380   6.166   3.763  10.766 -0.2453 -0.6175 -0.0819
  100MOL0     C13381   6.236   3.651  10.842 -0.0476 -0.1596  0.6281
  100MOL0     N13382   6.151   3.579  10.941 -0.1775 -0.7616  0.1011
  100MOL0     C13383   6.043   3.500  10.916  0.0153 -0.0137 -0.1790
  100MOL0     C13384   5.991   3.458  11.033  0.4770  0.2818  0.3266
  100MOL0     C13385   5.863   3.379  11.042  0.4140  0.3449 -0.5900
  100MOL0     C13386   5.729   3.452  11.058  0.2070  0.3763 -0.6527
  100MOL0     C13387   5.689   3.483  11.204 -0.6451  0.5581  1.0629
  100MOL0     C13388   5.566   3.579  11.197  0.0313  0.1014 -0.4899
  100MOL0     O13389   5.456   3.511  11.145  0.1866  0.7791  0.8176
  100MOL0     C13390   5.336   3.577  11.113  0.0117 -0.2393  0.4850
  100MOL0     C13391   5.239   3.503  11.052 -0.4231 -0.0346 -0.4769
  100MOL0     C13392   5.113   3.559  11.021  1.0901  0.2320 -0.0680
  100MOL0     C13393   5.014   3.468  10.951  0.3432  0.1075 -0.3161
  100MOL0     C13394   5.089   3.695  11.053  0.5278  0.1881  0.3436
  100MOL0     C13395   4.960   3.757  11.029 -0.1291 -0.5197 -0.0865
  100MOL0     O13396   4.926   3.866  11.109 -0.0921 -0.0106 -0.1635
  100MOL0     C13397   4.820   3.933  11.075  0.0119 -0.9714  0.2877
  100MOL0     C13398   4.822   4.047  10.994  0.0686  0.9810  0.4633
  100MOL0     C13399   4.713   4.127  10.967 -0.1157  0.2779 -0.7057
  100MOL0     C13400   4.588   4.092  11.033  0.1805  0.2559  0.0725
  100MOL0     O13401   4.478   4.171  11.008  0.4536 -0.2882  0.3525
  100MOL0     C13402   4.368   4.165  11.097  0.2925 -0.6129  0.7897
  100MOL0     C13403   4.274   4.273  11.060 -0.4782 -0.6440  0.6315
  100MOL0     C13404   4.124   4.242  11.117 -0.6502  0.1486  0.1132
  100MOL0     C13405   4.041   4.362  11.083  0.0216 -0.1106 -0.5032
  100MOL0     C13406   3.914   4.357  11.159  0.5111 -0.1222 -0.7873
  100MOL0     C13407   3.817   4.463  11.108  0.2668 -0.4487  0.2210
  100MOL0     C13408   3.673   4.447  11.157  0.5478 -0.3291  0.3599
  100MOL0     C13409   3.670   4.482  11.309  0.6410 -0.4531  0.9014
  100MOL0    Cl13410   3.501   4.448  11.349  0.1644  0.1161 -0.0160
  100MOL0     C13411   4.581   3.977  11.109  0.7449  0.6047 -0.0992
  100MOL0     C13412   4.693   3.899  11.132  0.1591 -0.0256 -0.5752
  100MOL0     O13413   4.888   3.719  10.939 -0.4859  0.2288 -0.2611
  100MOL0     C13414   5.191   3.772  11.111  0.3205  0.1785  0.7919
  100MOL0     C13415   5.315   3.711  11.146  0.2062  0.0753  0.1616
  100MOL0     N13416   6.064   3.525  11.129 -0.8535  0.2413 -0.3768
  100MOL0     N13417   6.161   3.595  11.073  0.4215  0.3871 -0.1180
  100MOL0     C13418   5.453   4.196  10.932  0.6546 -0.1988  0.8907
  100MOL0     C13419   5.364   4.197  11.032  0.4828  0.1683  0.5025
  100MOL0     C13420   5.007   4.322  11.274  0.3428  0.1964  0.2225
  100MOL0     C13421   4.996   4.435  11.360  0.0967  0.4832  0.8706
  100MOL0     C13422   4.898   4.438  11.462  0.2309  0.4114 -0.4872
  100MOL0     C13423   4.813   4.330  11.478 -0.2889  0.2175  0.0609
  100MOL0     O13424   4.737   4.339  11.584  0.2114 -0.5207  1.4035
  100MOL0     C13425   4.686   4.216  11.642  0.2746 -0.6099  0.1943
  100MOL0     C13426   4.621   4.249  11.775 -0.9467 -0.1585  0.2188
  100MOL0     C13427   4.487   4.184  11.797 -0.0483 -0.9986 -0.0935
  100MOL0     C13428   4.379   4.280  11.739  0.1005 -0.1950 -0.4393
  100MOL0     C13429   4.254   4.208  11.704  0.2758 -0.6670 -1.0693
  100MOL0     C13430   4.142   4.158  11.670  0.2836 -0.3333  0.5996
  100MOL0     C13431   4.813   4.224  11.381 -0.1172  0.0712  0.3463
  100MOL0     C13432   4.916   4.219  11.282  0.4881  0.8900  0.3714
  100MOL0     H13433   5.083   4.209  10.832  0.1786  3.1025 -0.5110
  100MOL0     H13434   5.252   4.144  10.661  1.4111 -1.6000  0.5879
  100MOL0     H13435   5.666   4.234  10.768 -0.0291 -0.7645 -1.1572
  100MOL0     H13436   5.671   4.054  10.823  0.2423 -1.3624  0.0444
  100MOL0     H13437   5.730   3.997  10.596  1.7423 -1.0626  2.1449
  100MOL0     H13438   5.746   4.175  10.553  0.2778  0.2478  0.3733
  100MOL0     H13439   5.957   4.110  10.588  0.3661  0.0602 -0.4039
  100MOL0     H13440   5.908   4.200  10.734  2.7503 -0.6088 -1.0947
  100MOL0     H13441   5.871   3.954  10.834 -2.1056 -1.2181 -3.5394
  100MOL0     H13442   5.917   3.898  10.680 -0.7140  0.5135 -0.9356
  100MOL0     H13443   6.138   4.019  10.697  0.2177  0.9011 -0.3359
  100MOL0     H13444   6.078   4.082  10.853  0.8272  0.6849 -1.2379
  100MOL0     H13445   6.235   3.907  10.906  0.5937  3.0134 -0.8941
  100MOL0     H13446   6.068   3.839  10.929  2.1671  0.3323  1.1417
  100MOL0     H13447   6.073   3.730  10.719 -0.9883  0.2025  0.7673
  100MOL0     H13448   6.230   3.802  10.687 -1.4698  2.0379  0.1398
  100MOL0     H13449   6.332   3.688  10.879  0.4829  2.9459 -3.2157
  100MOL0     H13450   6.258   3.580  10.761  3.1795  1.2869  0.0595
  100MOL0     H13451   5.998   3.485  10.819  0.3782  0.3296 -0.4021
  100MOL0     H13452   5.850   3.308  10.960  1.2436 -0.8316  0.2546
  100MOL0     H13453   5.876   3.316  11.131 -0.1153  1.3567  0.2249
  100MOL0     H13454   5.651   3.389  11.014  1.0317  1.8416 -4.6465
  100MOL0     H13455   5.744   3.543  10.999 -0.7552  0.5785 -0.5996
  100MOL0     H13456   5.784   3.520  11.243  0.5518 -0.9191 -0.3480
  100MOL0     H13457   5.656   3.396  11.262  1.5014 -0.4248  0.8712
  100MOL0     H13458   5.600   3.667  11.141  0.4410  0.8568  0.9007
  100MOL0     H13459   5.530   3.594  11.299 -1.1895  0.2663 -0.9247
  100MOL0     H13460   5.259   3.402  11.016  0.4272  0.6348 -1.9821
  100MOL0     H13461   5.013   3.481  10.842  2.0678 -1.6091 -0.6062
  100MOL0     H13462   5.041   3.362  10.963  0.6880  0.0665 -1.3003
  100MOL0     H13463   4.913   3.469  10.992  0.7228 -3.4154  1.0974
  100MOL0     H13464   4.917   4.076  10.951  0.0790  0.9767  0.4836
  100MOL0     H13465   4.713   4.227  10.925 -0.8668  1.5766  2.1100
  100MOL0     H13466   4.315   4.070  11.107 -2.6037  0.7950 -0.0771
  100MOL0     H13467   4.404   4.194  11.195 -0.6460  1.6246  0.5305
  100MOL0     H13468   4.319   4.370  11.083 -0.8259  0.6769 -3.4401
  100MOL0     H13469   4.272   4.273  10.950  0.9175 -1.5475  0.5881
  100MOL0     H13470   4.137   4.221  11.223 -1.0452 -2.6283 -0.3134
  100MOL0     H13471   4.083   4.153  11.068 -0.1109 -0.3918  0.6474
  100MOL0     H13472   4.086   4.460  11.098 -1.0396  0.0862  1.8750
  100MOL0     H13473   4.025   4.357  10.975 -0.1039  1.2414 -0.5651
  100MOL0     H13474   3.938   4.377  11.263 -0.0749  2.0151 -1.0031
  100MOL0     H13475   3.862   4.261  11.149 -1.8889 -0.0247  5.8683
  100MOL0     H13476   3.861   4.557  11.142  1.8698 -1.5867  1.3906
  100MOL0     H13477   3.816   4.467  10.998  2.6639  1.5316  0.1761
  100MOL0     H13478   3.632   4.346  11.143 -4.1512  1.4816 -0.8918
  100MOL0     H13479   3.606   4.509  11.098  2.3390  0.4298 -0.9572
  100MOL0     H13480   3.708   4.582  11.328  1.1358 -0.0903 -1.6933
  100MOL0     H13481   3.741   4.421  11.366  1.4663  0.6083  1.0388
  100MOL0     H13482   4.492   3.931  11.151 -0.8334  1.9601 -1.7936
  100MOL0     H13483   4.688   3.814  11.198  2.2496 -1.1142 -1.6978
  100MOL0     H13484   5.177   3.877  11.132 -3.4593  0.0150 -0.1031
  100MOL0     H13485   5.396   3.775  11.179 -0.9856  0.6402  2.1235
  100MOL0     H13486   5.557   4.199  10.963  0.4457 -2.3771  2.0052
  100MOL0     H13487   5.393   4.217  11.135  1.1015 -0.4421  0.4528
  100MOL0     H13488   5.067   4.516  11.370  0.1674  0.3987  1.0640
  100MOL0     H13489   4.902   4.519  11.535 -3.2422 -0.1122  0.4436
  100MOL0     H13490   4.620   4.169  11.569 -2.5125  0.6105  1.7805
  100MOL0     H13491   4.772   4.148  11.652  2.7497  1.8808 -2.4778
  100MOL0     H13492   4.613   4.358  11.780 -0.8104 -0.0377 -1.5674
  100MOL0     H13493   4.680   4.209  11.859  0.3984  1.7682  0.2594
  100MOL0     H13494   4.474   4.166  11.904  0.4536 -0.7676  0.0097
  100MOL0     H13495   4.485   4.086  11.748 -0.5285 -0.8112 -0.4592
  100MOL0     H13496   4.410   4.342  11.654  3.2782 -0.6958  0.2503
  100MOL0     H13497   4.347   4.354  11.814  0.3924  1.2664 -1.7130
  100MOL0     H13498   4.049   4.114  11.639  0.6238 -0.0991 -0.7955
  100MOL0     H13499   4.764   4.127  11.385  0.5967 -0.4300 -1.6771
  100MOL0     H13500   4.930   4.127  11.227  1.7611  0.1015  1.9357
  101MOL0     O13501   4.422   4.400  10.400 -0.5663 -0.6777 -0.9392
  101MOL0     C13502   4.369   4.404  10.512 -0.0169 -0.0551  0.2885
  101MOL0     O13503   4.407   4.335  10.623  0.4811 -0.7964 -0.5653
  101MOL0     C13504   4.519   4.265  10.618  0.1319  0.5323  0.0005
  101MOL0     C13505   4.639   4.338  10.628 -0.2798  0.2692  1.1286
  101MOL0     C13506   4.763   4.262  10.631  0.2186 -1.0909  0.4458
  101MOL0     C13507   4.774   4.130  10.618  0.2245  0.6159 -0.4734
  101MOL0     O13508   4.901   4.075  10.609 -0.0562 -0.2044  0.0743
  101MOL0     C13509   4.932   3.963  10.690 -0.3255 -0.5873 -0.5156
  101MOL0     C13510   5.020   3.868  10.600 -0.1397 -0.0974 -0.0482
  101MOL0     C13511   5.126   3.813  10.677 -0.4752 -0.0793 -0.7788
  101MOL0     C13512   5.211   3.737  10.576  0.5528 -0.7141 -0.0138
  101MOL0     C13513   5.340   3.670  10.627  1.0259 -0.7029  0.1743
  101MOL0     C13514   5.439   3.778  10.681 -0.6245 -0.4954 -0.2038
  101MOL0     C13515   5.544   3.714  10.783 -0.8582  0.7642 -0.1940
  101MOL0     C13516   5.641   3.616  10.716 -0.6359 -0.3319  0.4520
  101MOL0     N13517   5.602   3.476  10.696  0.7792  0.5013  0.3422
  101MOL0     C13518   5.520   3.405  10.784 -0.2185  0.3467  0.2312
  101MOL0     C13519   5.537   3.270  10.760 -0.0122 -0.3131  1.1183
  101MOL0     C13520   5.444   3.163  10.814 -0.7087 -0.3537 -0.3894
  101MOL0     C13521   5.449   3.162  10.962 -0.7193  0.1884 -0.5818
  101MOL0     C13522   5.371   3.039  11.019 -0.0633  0.0483 -0.5295
  101MOL0     C13523   5.388   3.017  11.173  0.0991 -0.3522 -0.7173
  101MOL0     O13524   5.373   3.145  11.242 -0.3803  1.0322  0.2120
  101MOL0     C13525   5.247   3.207  11.251  0.7669  0.2691  0.3692
  101MOL0     C13526   5.232   3.335  11.304  0.1584  0.7117 -0.0727
  101MOL0     C13527   5.111   3.403  11.322  0.3812  0.0377 -0.5229
  101MOL0     C13528   5.110   3.533  11.395 -0.4830  0.5669 -0.4672
  101MOL0     C13529   4.991   3.335  11.279  0.3857 -0.1844  0.0263
  101MOL0     C13530   4.854   3.393  11.292  0.0639 -1.2394  0.1942
  101MOL0     O13531   4.755   3.328  11.224 -0.6348 -0.3464 -0.5460
  101MOL0     C13532   4.643   3.398  11.188 -0.3318 -0.2541  0.2211
  101MOL0     C13533   4.529   3.335  11.211  0.2801 -0.1847  0.1787
  101MOL0     C13534   4.407   3.402  11.174 -0.2104 -0.6523 -0.1434
  101MOL0     C13535   4.407   3.525  11.106  0.3585 -0.3482  0.6648
  101MOL0     O13536   4.306   3.587  11.040 -0.4264 -0.6456  0.0321
  101MOL0     C13537   4.191   3.513  11.026  0.7315  1.1056 -0.8916
  101MOL0     C13538   4.059   3.594  10.990 -0.3031  0.2107 -0.2297
  101MOL0     C13539   3.942   3.499  10.972 -0.3146 -0.3317  0.8018
  101MOL0     C13540   3.813   3.579  10.933 -0.3434  0.0978  0.5028
  101MOL0     C13541   3.705   3.479  10.922 -0.1817 -0.6485  0.4565
  101MOL0     C13542   3.560   3.520  10.911  0.5184 -0.7378 -0.8266
  101MOL0     C13543   3.515   3.621  11.013  0.2123 -0.4954  0.6799
  101MOL0     C13544   3.373   3.657  10.995  0.6902 -1.0932  0.2755
  101MOL0    Cl13545   3.254   3.527  11.001 -0.2658 -0.0037 -0.1358
  101MOL0     C13546   4.528   3.594  11.101 -0.2106  0.2550 -0.1631
  101MOL0     C13547   4.641   3.527  11.124  0.7201  0.4938 -0.6997
  101MOL0     O13548   4.831   3.495  11.365  0.1381  0.4831  0.2643
  101MOL0     C13549   5.005   3.207  11.222  0.7728 -0.2420 -0.5811
  101MOL0     C13550   5.128   3.138  11.213 -0.1752 -0.6988  0.5860
  101MOL0     N13551   5.625   3.269  10.647 -0.6421 -0.2474 -0.3741
  101MOL0     N13552   5.666   3.393  10.616  0.7573  0.4114  1.2679
  101MOL0     C13553   4.649   4.057  10.613 -0.3495  0.4275  0.5432
  101MOL0     C13554   4.527   4.123  10.612  0.3228  0.0380  0.7232
  101MOL0     C13555   4.228   4.456  10.526  0.4560 -0.6398  0.7168
  101MOL0     C13556   4.139   4.441  10.638 -0.3360 -0.2949 -0.9332
  101MOL0     C13557   4.015   4.508  10.645 -0.0852 -0.1433 -0.2581
  101MOL0     C13558   3.960   4.579  10.540  0.4339 -0.3876 -0.0181
  101MOL0     O13559   3.827   4.618  10.566 -0.4972 -0.6730 -0.1268
  101MOL0     C13560   3.776   4.716  10.478 -0.2787  0.6616 -0.4474
  101MOL0     C13561   3.626   4.753  10.495 -0.2482  0.7095 -0.0457
  101MOL0     C13562   3.610   4.859  10.600  0.3727 -0.0057  0.4443
  101MOL0     C13563   3.590   4.797  10.735  0.6508 -0.1928  0.4766
  101MOL0     C13564   3.646   4.872  10.843  0.5384 -0.1596  0.3798
  101MOL0     C13565   3.685   4.945  10.929  0.7261 -0.3192 -0.1292
  101MOL0     C13566   4.039   4.577  10.425  0.8128  0.9565 -0.1885
  101MOL0     C13567   4.166   4.520  10.420  0.2902 -0.1412  0.7427
  101MOL0     H13568   4.630   4.446  10.626 -1.8951  0.2670 -3.4755
  101MOL0     H13569   4.850   4.326  10.626 -1.1825  0.8675 -0.0429
  101MOL0     H13570   4.997   3.998  10.771 -0.1584 -1.6801 -0.1689
  101MOL0     H13571   4.835   3.925  10.724 -2.4423  2.7524 -2.1518
  101MOL0     H13572   4.954   3.786  10.569 -1.2086  0.0728  1.6431
  101MOL0     H13573   5.063   3.916  10.512  0.5526 -2.2510 -0.9499
  101MOL0     H13574   5.183   3.892  10.726  0.8211 -3.0919  3.1585
  101MOL0     H13575   5.089   3.748  10.757 -1.8684  1.8051  0.1790
  101MOL0     H13576   5.153   3.654  10.533  2.8068 -2.4658  0.1060
  101MOL0     H13577   5.252   3.812  10.509 -0.0223  2.4382  2.8734
  101MOL0     H13578   5.319   3.596  10.704  2.0562 -0.7507  0.4285
  101MOL0     H13579   5.384   3.616  10.543 -2.5198 -0.8267 -1.7806
  101MOL0     H13580   5.490   3.830  10.599 -3.2583  3.1146  0.1616
  101MOL0     H13581   5.379   3.854  10.732 -0.2652  0.7096 -1.5014
  101MOL0     H13582   5.603   3.797  10.824 -1.4314  0.6407  0.8994
  101MOL0     H13583   5.487   3.662  10.860  0.3443  1.1785  1.0195
  101MOL0     H13584   5.731   3.608  10.778  1.3106 -0.2600 -2.2168
  101MOL0     H13585   5.685   3.658  10.625  2.5137 -0.2497  1.8756
  101MOL0     H13586   5.457   3.455  10.857 -0.2485 -1.2976  1.3671
  101MOL0     H13587   5.340   3.182  10.788 -0.8314 -1.7928 -1.0359
  101MOL0     H13588   5.485   3.077  10.761  2.2502  0.9049 -0.3431
  101MOL0     H13589   5.402   3.251  11.004  0.4187 -0.2471  1.7562
  101MOL0     H13590   5.550   3.165  11.003  0.4243 -0.8538 -3.0750
  101MOL0     H13591   5.406   2.946  10.974  1.7613  0.5528 -0.2473
  101MOL0     H13592   5.264   3.048  10.999 -0.2528 -0.0261  0.4027
  101MOL0     H13593   5.490   2.979  11.181 -0.0215 -0.4179  0.7447
  101MOL0     H13594   5.319   2.940  11.208 -0.4793 -1.8511 -4.6472
  101MOL0     H13595   5.323   3.380  11.342  1.0832 -0.8055 -0.3947
  101MOL0     H13596   5.087   3.616  11.328 -3.3899  0.1155 -0.1971
  101MOL0     H13597   5.034   3.531  11.474  1.5724  2.2214  1.6832
  101MOL0     H13598   5.202   3.551  11.450 -1.8066  1.0423  1.7113
  101MOL0     H13599   4.534   3.242  11.267  2.2228 -1.1865 -1.5458
  101MOL0     H13600   4.318   3.349  11.205 -2.1055  0.7888 -2.7012
  101MOL0     H13601   4.203   3.432  10.953  1.7724  0.4489 -0.0200
  101MOL0     H13602   4.168   3.476  11.126 -0.7752  4.7268  0.2769
  101MOL0     H13603   4.036   3.657  11.076  1.4186 -2.7250  2.6306
  101MOL0     H13604   4.084   3.654  10.903 -1.7987 -1.3037 -1.7872
  101MOL0     H13605   3.934   3.436  11.061  3.2502 -2.2969 -0.0419
  101MOL0     H13606   3.965   3.438  10.884 -0.3627  0.7473  0.0226
  101MOL0     H13607   3.784   3.656  11.005 -1.7033 -0.8906  1.0566
  101MOL0     H13608   3.834   3.619  10.834  0.4615 -1.9014 -0.1880
  101MOL0     H13609   3.697   3.437  11.023  1.9709  0.7326  1.2837
  101MOL0     H13610   3.733   3.395  10.857 -0.5294  0.3149 -0.9804
  101MOL0     H13611   3.543   3.560  10.811  0.5819  2.2566  0.2731
  101MOL0     H13612   3.502   3.428  10.923  0.5996 -1.2079 -3.4985
  101MOL0     H13613   3.573   3.714  11.011 -2.3530  1.1781 -0.5008
  101MOL0     H13614   3.537   3.583  11.114  0.8668 -1.7126  0.1035
  101MOL0     H13615   3.359   3.706  10.898 -1.3454 -1.1148  0.5163
  101MOL0     H13616   3.341   3.739  11.061 -3.7580 -0.7827 -1.8725
  101MOL0     H13617   4.540   3.694  11.060  1.4448 -0.4077 -1.3893
  101MOL0     H13618   4.735   3.575  11.099  0.2875  1.9790  0.3451
  101MOL0     H13619   4.919   3.154  11.180  0.4146 -1.4468  1.5086
  101MOL0     H13620   5.117   3.039  11.169 -2.4738  0.1298 -0.8703
  101MOL0     H13621   4.649   3.948  10.612  0.2776  0.4238  0.4844
  101MOL0     H13622   4.433   4.070  10.596 -0.0750  0.8273  0.3870
  101MOL0     H13623   4.158   4.372  10.721 -0.1905 -0.8878 -1.4492
  101MOL0     H13624   3.954   4.490  10.732  1.8997 -3.4498  0.6601
  101MOL0     H13625   3.838   4.806  10.466  0.2950  0.2540 -0.5682
  101MOL0     H13626   3.782   4.662  10.383 -0.7078 -1.3991  0.6529
  101MOL0     H13627   3.557   4.670  10.512 -1.5587  2.0241  1.4208
  101MOL0     H13628   3.594   4.804  10.404 -2.0515  1.9578  1.2158
  101MOL0     H13629   3.526   4.925  10.576  0.4822  0.9979  2.5950
  101MOL0     H13630   3.698   4.923  10.605 -1.0440  2.0380  0.2650
  101MOL0     H13631   3.625   4.694  10.731  0.4019 -0.3179  1.3293
  101MOL0     H13632   3.482   4.791  10.745  0.6343 -0.4852  0.1270
  101MOL0     H13633   3.715   5.024  10.994  0.1347  1.3896 -1.8449
  101MOL0     H13634   3.998   4.620  10.333 -2.2307 -0.9440  0.1259
  101MOL0     H13635   4.209   4.519  10.321  0.5219  0.3398  0.8371
  102MOL0     O13636   2.422   7.587   4.166  0.8932  0.2355  0.1311
  102MOL0     C13637   2.539   7.556   4.160  0.2931 -0.2446 -0.1625
  102MOL0     O13638   2.605   7.443   4.213  0.3816 -0.5983  0.9073
  102MOL0     C13639   2.538   7.380   4.306  0.0479  0.7434  0.1993
  102MOL0     C13640   2.528   7.240   4.299  0.4341 -0.1608  0.4674
  102MOL0     C13641   2.452   7.165   4.396 -0.2261  0.2267 -0.2730
  102MOL0     C13642   2.399   7.226   4.508  0.6205 -0.4935  0.4718
  102MOL0     O13643   2.323   7.160   4.601 -0.1363  0.0944 -0.1685
  102MOL0     C13644   2.380   7.047   4.671  0.0452  0.1266 -0.3105
  102MOL0     C13645   2.468   7.112   4.782  0.4216 -0.0935 -0.9335
  102MOL0     C13646   2.513   7.009   4.888  0.0491 -0.1962  0.8372
  102MOL0     C13647   2.592   7.059   4.999 -0.1223  0.1884 -0.1621
  102MOL0     C13648   2.610   6.958   5.113 -0.1785 -0.2359  0.1469
  102MOL0     C13649   2.695   7.009   5.231  0.4408  0.3107  0.1205
  102MOL0     C13650   2.753   6.899   5.322  0.6441 -0.6251  0.4616
  102MOL0     C13651   2.772   6.939   5.466 -0.0635 -0.0384  0.2608
  102MOL0     N13652   2.645   6.992   5.527  0.1080  0.1649  0.2779
  102MOL0     C13653   2.615   7.119   5.569 -0.2267  0.9826 -0.0522
  102MOL0     C13654   2.518   7.103   5.660 -0.1949 -0.4634 -0.0081
  102MOL0     C13655   2.450   7.222   5.735  0.6911 -0.2695  0.1763
  102MOL0     C13656   2.308   7.188   5.783  0.9933 -0.1107 -0.6462
  102MOL0     C13657   2.236   7.289   5.874  0.2844 -0.8186  0.6445
  102MOL0     C13658   2.269   7.428   5.825  0.5255 -0.6353 -0.6216
  102MOL0     O13659   2.171   7.526   5.868 -0.0535 -0.2526 -0.0731
  102MOL0     C13660   2.081   7.565   5.775  1.0676  0.1327  0.0796
  102MOL0     C13661   2.033   7.481   5.676 -0.0966  0.1786 -0.3548
  102MOL0     C13662   1.914   7.518   5.606 -0.0413  0.4939  0.0664
  102MOL0     C13663   1.861   7.402   5.523 -0.1391 -0.0603  0.4531
  102MOL0     C13664   1.858   7.649   5.612 -0.3551 -0.0194 -0.2837
  102MOL0     C13665   1.743   7.689   5.533  0.4485  0.5119 -0.6472
  102MOL0     O13666   1.643   7.739   5.602  0.7488 -0.0569 -0.0647
  102MOL0     C13667   1.516   7.717   5.548 -0.0177  0.1389  0.5568
  102MOL0     C13668   1.460   7.816   5.460 -0.2496  0.3060 -1.2544
  102MOL0     C13669   1.331   7.798   5.415 -0.3612 -0.3698 -0.0470
  102MOL0     C13670   1.252   7.694   5.472  1.3535 -0.0574 -0.5819
  102MOL0     O13671   1.117   7.676   5.433 -0.4986 -0.3659  0.0344
  102MOL0     C13672   1.045   7.791   5.380  0.3673 -0.0278 -0.3446
  102MOL0     C13673   0.898   7.755   5.367 -0.5318  0.0760  0.7161
  102MOL0     C13674   0.809   7.858   5.301  0.3676 -0.0534  0.5460
  102MOL0     C13675   0.669   7.806   5.297 -0.1798  0.6175 -0.4618
  102MOL0     C13676   0.586   7.910   5.223 -0.7907  0.1597  0.1818
  102MOL0     C13677   0.454   7.855   5.158  0.0727 -0.0694 -0.5667
  102MOL0     C13678   0.438   7.706   5.122 -0.7989 -0.3492 -1.6229
  102MOL0     C13679   0.314   7.677   5.057  0.0832  0.2756 -0.0749
  102MOL0    Cl13680   0.164   7.723   5.137 -0.2437  0.3341  0.0430
  102MOL0     C13681   1.301   7.606   5.569 -0.2595 -0.7142 -0.7709
  102MOL0     C13682   1.434   7.618   5.608 -0.0685 -0.2437  0.0326
  102MOL0     O13683   1.739   7.664   5.412  0.1653 -0.2947 -0.4818
  102MOL0     C13684   1.910   7.731   5.711  0.3635  0.6555  0.9137
  102MOL0     C13685   2.018   7.685   5.793  0.2986 -0.4297  0.3310
  102MOL0     N13686   2.474   6.973   5.658  0.0562 -0.0084  0.3116
  102MOL0     N13687   2.562   6.908   5.592  0.6648 -0.0692  0.0825
  102MOL0     C13688   2.406   7.362   4.515 -0.0521 -0.5384  0.8404
  102MOL0     C13689   2.473   7.437   4.414  0.8372  0.1564  0.7292
  102MOL0     C13690   2.632   7.657   4.108 -0.4276  0.6076  0.9110
  102MOL0     C13691   2.583   7.779   4.062 -0.3748  0.2625  0.4937
  102MOL0     C13692   2.666   7.881   4.023 -1.1121 -0.6142  0.3553
  102MOL0     C13693   2.803   7.876   4.036 -0.1574 -0.2742  0.5764
  102MOL0     O13694   2.864   7.986   3.973 -0.8184  0.2123 -0.9953
  102MOL0     C13695   3.000   7.968   3.933  0.5590  0.0484  0.0706
  102MOL0     C13696   3.090   8.000   4.057 -0.5482  0.4618 -0.1209
  102MOL0     C13697   3.239   7.982   4.003  0.6711  0.4621 -0.1357
  102MOL0     C13698   3.347   8.027   4.105 -0.5700 -0.2572 -0.0566
  102MOL0     C13699   3.476   7.998   4.044 -0.1507  0.3637  0.1053
  102MOL0     C13700   3.575   7.973   3.984  0.3818  0.3033  0.1346
  102MOL0     C13701   2.852   7.758   4.084 -0.0551 -0.6358 -0.3783
  102MOL0     C13702   2.775   7.650   4.125  0.1719  0.1645  0.2969
  102MOL0     H13703   2.575   7.186   4.217  0.1211  0.0389  0.1565
  102MOL0     H13704   2.448   7.058   4.380 -2.1547  0.2986 -0.5653
  102MOL0     H13705   2.300   6.984   4.709  0.1566  0.0688 -0.1685
  102MOL0     H13706   2.441   6.980   4.609 -2.2816 -2.2613 -0.1784
  102MOL0     H13707   2.548   7.159   4.725  2.8820 -1.0964  1.4555
  102MOL0     H13708   2.413   7.193   4.832  0.6755  1.3920 -2.9529
  102MOL0     H13709   2.424   6.953   4.920  0.1607 -1.2130 -0.5240
  102MOL0     H13710   2.576   6.942   4.829  0.0114  1.8270 -1.6796
  102MOL0     H13711   2.694   7.079   4.963  0.6670 -0.7939  1.4057
  102MOL0     H13712   2.563   7.158   5.036  2.7008  2.0890 -2.5425
  102MOL0     H13713   2.513   6.935   5.158 -0.0380 -0.6019  0.2633
  102MOL0     H13714   2.642   6.863   5.070  1.3221  0.5996 -0.6750
  102MOL0     H13715   2.780   7.071   5.200 -1.3287  3.2445  0.6631
  102MOL0     H13716   2.631   7.075   5.291  0.5168  0.6936 -0.2107
  102MOL0     H13717   2.672   6.826   5.319  0.4524 -0.4043  0.1340
  102MOL0     H13718   2.847   6.860   5.281  2.2976  1.7842  1.7072
  102MOL0     H13719   2.850   7.013   5.486 -1.4157  1.9453 -1.3775
  102MOL0     H13720   2.806   6.847   5.515 -0.9304 -0.2265  0.5261
  102MOL0     H13721   2.652   7.220   5.554  3.2322  0.2691  2.3656
  102MOL0     H13722   2.514   7.256   5.817  1.1800 -0.7480  0.0011
  102MOL0     H13723   2.451   7.301   5.660  2.3031  0.3624  0.8194
  102MOL0     H13724   2.312   7.106   5.855  1.7229  0.7174  0.2845
  102MOL0     H13725   2.242   7.165   5.699  3.3023  0.9127 -2.8945
  102MOL0     H13726   2.266   7.275   5.978  1.5624 -1.3935  0.2208
  102MOL0     H13727   2.128   7.273   5.872  0.2267 -0.4007  0.1215
  102MOL0     H13728   2.293   7.440   5.719  0.4518  0.4892 -0.5249
  102MOL0     H13729   2.362   7.448   5.878  0.2597  1.5554 -0.8746
  102MOL0     H13730   2.086   7.388   5.664  0.3324  0.1741  1.4149
  102MOL0     H13731   1.753   7.397   5.538 -0.7330 -2.9537 -3.4391
  102MOL0     H13732   1.883   7.410   5.416 -1.3565 -1.0941  0.1073
  102MOL0     H13733   1.900   7.303   5.548  1.5666  0.0271 -1.6308
  102MOL0     H13734   1.521   7.894   5.416 -0.8373  1.3870 -0.1838
  102MOL0     H13735   1.296   7.872   5.344  2.4555  1.3476  0.1748
  102MOL0     H13736   1.055   7.872   5.453  0.1736  1.4983 -1.9144
  102MOL0     H13737   1.089   7.832   5.288 -0.8572  1.7640 -0.1974
  102MOL0     H13738   0.899   7.660   5.312 -0.3018 -0.0678  0.9659
  102MOL0     H13739   0.868   7.717   5.466 -2.0293  0.2308  0.3563
  102MOL0     H13740   0.848   7.880   5.201  0.4197 -1.4108  0.2446
  102MOL0     H13741   0.812   7.942   5.370  1.6254 -0.2619  0.7784
  102MOL0     H13742   0.673   7.706   5.253 -0.3943 -1.1576  3.1847
  102MOL0     H13743   0.627   7.782   5.395 -1.2042 -1.0205 -1.2465
  102MOL0     H13744   0.637   7.963   5.143 -1.1928  0.3221  0.0284
  102MOL0     H13745   0.558   7.979   5.303 -0.7552 -1.7540  1.9422
  102MOL0     H13746   0.383   7.882   5.237  2.1520  0.2497  1.3044
  102MOL0     H13747   0.427   7.924   5.077  1.7039  0.3513 -0.7755
  102MOL0     H13748   0.434   7.650   5.216 -2.8470  1.0963 -0.7926
  102MOL0     H13749   0.530   7.670   5.073  0.1224  3.0651 -2.6388
  102MOL0     H13750   0.301   7.572   5.030  1.5549  0.0878 -0.1404
  102MOL0     H13751   0.319   7.732   4.963 -0.1879 -0.7895 -0.7358
  102MOL0     H13752   1.234   7.527   5.602 -1.1947 -1.0076 -3.1922
  102MOL0     H13753   1.482   7.546   5.673 -1.3025 -0.4414  0.7503
  102MOL0     H13754   1.866   7.825   5.742  0.1671 -0.2572  3.7371
  102MOL0     H13755   2.053   7.747   5.876 -1.3441  0.5929  0.3140
  102MOL0     H13756   2.358   7.418   4.593  0.2376  0.8001  0.0887
  102MOL0     H13757   2.464   7.545   4.419 -3.3228 -0.0292  1.2405
  102MOL0     H13758   2.476   7.791   4.052 -0.4995 -1.1996 -0.1479
  102MOL0     H13759   2.633   7.974   3.977  2.9240  0.9804  0.2755
  102MOL0     H13760   3.020   7.864   3.905 -1.7875 -0.9287  1.7188
  102MOL0     H13761   3.031   8.042   3.858  1.5142 -1.7662 -1.4066
  102MOL0     H13762   3.073   7.925   4.135 -0.5514  0.4187 -0.1627
  102MOL0     H13763   3.074   8.095   4.107  3.3726 -0.2084  2.9252
  102MOL0     H13764   3.262   8.037   3.911  0.0616  4.6995  1.9737
  102MOL0     H13765   3.251   7.874   3.990 -2.2080 -0.2449  2.0010
  102MOL0     H13766   3.323   7.975   4.198 -2.1627  0.3549 -0.0883
  102MOL0     H13767   3.335   8.132   4.133 -2.7554 -0.6805  0.7956
  102MOL0     H13768   3.659   7.964   3.918  0.9734  1.5094  0.7008
  102MOL0     H13769   2.960   7.748   4.085  0.0792  0.2234 -2.1732
  102MOL0     H13770   2.821   7.559   4.164 -0.9233  0.0710  1.4128
  103MOL0     O13771   0.143   8.728   6.663  0.0526  0.4214 -0.0501
  103MOL0     C13772   0.202   8.823   6.713 -0.3010 -0.4230 -0.3395
  103MOL0     O13773   0.149   8.950   6.717 -0.3173 -0.0003  0.2316
  103MOL0     C13774   0.018   8.972   6.691 -0.1299  0.2700 -0.8673
  103MOL0     C13775  -0.084   8.923   6.780  0.0127 -0.2562 -1.1422
  103MOL0     C13776  -0.219   8.954   6.752  0.1993 -0.2131 -0.4140
  103MOL0     C13777  -0.253   9.028   6.634  0.7429  1.1272  0.0476
  103MOL0     O13778  -0.385   9.059   6.617 -0.1074  0.2649 -0.1219
  103MOL0     C13779  -0.436   8.996   6.496  0.8534  1.1238 -0.1989
  103MOL0     C13780  -0.570   9.056   6.463  0.5864 -0.5371 -0.0207
  103MOL0     C13781  -0.639   8.980   6.347  0.2823  0.3141 -0.7280
  103MOL0     C13782  -0.789   8.988   6.369 -0.6548 -0.4277 -0.1265
  103MOL0     C13783  -0.872   8.917   6.256  0.7308 -0.5079 -0.1154
  103MOL0     C13784  -1.005   8.893   6.324 -0.2967  0.1714  0.3393
  103MOL0     C13785  -1.105   8.827   6.228 -0.3921 -0.3715  0.3602
  103MOL0     C13786  -1.173   8.933   6.145 -0.5892  0.3929 -0.5287
  103MOL0     N13787  -1.281   8.868   6.066  0.8752  0.0985  0.0863
  103MOL0     C13788  -1.395   8.803   6.118 -0.8170 -0.2172 -0.0045
  103MOL0     C13789  -1.447   8.740   6.011  0.5202  0.0994  0.5457
  103MOL0     C13790  -1.574   8.654   6.014 -0.3439  0.1698  0.4961
  103MOL0     C13791  -1.697   8.728   6.045 -0.2670 -0.2266 -0.5560
  103MOL0     C13792  -1.732   8.832   5.940  0.0682 -1.0257 -0.0764
  103MOL0     C13793  -1.851   8.919   5.995 -0.8274 -0.9080  0.3338
  103MOL0     O13794  -1.896   9.004   5.887 -0.1220 -0.4294 -0.0789
  103MOL0     C13795  -2.016   8.963   5.855  0.4687  0.0448  0.3441
  103MOL0     C13796  -2.031   8.854   5.765  0.0965  0.4786 -0.2103
  103MOL0     C13797  -2.157   8.810   5.725 -0.7292  0.0282 -0.4061
  103MOL0     C13798  -2.161   8.704   5.616 -0.0818 -1.0975 -0.0090
  103MOL0     C13799  -2.275   8.864   5.785 -0.1104  0.2866 -0.0976
  103MOL0     C13800  -2.416   8.840   5.739 -0.1307 -0.5108 -0.3078
  103MOL0     O13801  -2.443   8.793   5.616 -0.2057 -0.2625 -0.0878
  103MOL0     C13802  -2.573   8.826   5.575 -0.0455 -0.0759 -0.5830
  103MOL0     C13803  -2.688   8.759   5.619  0.4905 -0.6203 -0.4865
  103MOL0     C13804  -2.816   8.789   5.576  0.7456 -0.3185 -0.4807
  103MOL0     C13805  -2.832   8.893   5.482 -0.7345 -0.4316 -0.3801
  103MOL0     O13806  -2.946   8.946   5.432 -0.1062 -0.0029 -0.6100
  103MOL0     C13807  -3.063   8.908   5.506 -0.5317 -0.5158  0.1474
  103MOL0     C13808  -3.190   9.002   5.477  0.8546  0.0410  0.0126
  103MOL0     C13809  -3.314   8.936   5.544  1.0362  0.2254  0.8112
  103MOL0     C13810  -3.436   9.033   5.540 -0.5747 -0.0440  0.4357
  103MOL0     C13811  -3.558   8.973   5.599 -0.3988  0.3306  0.4493
  103MOL0     C13812  -3.671   9.076   5.627  0.1461  0.1571 -0.5274
  103MOL0     C13813  -3.810   9.006   5.653  0.4557  0.3189 -0.0182
  103MOL0     C13814  -3.929   9.074   5.582  0.3441  0.4066 -0.5214
  103MOL0    Cl13815  -4.066   8.958   5.612  0.1760 -0.1503  0.0506
  103MOL0     C13816  -2.723   8.948   5.426  0.8618 -0.2264  0.9110
  103MOL0     C13817  -2.596   8.920   5.476  0.1555  1.1613  0.2798
  103MOL0     O13818  -2.503   8.880   5.820  0.5662  0.2965 -0.6825
  103MOL0     C13819  -2.254   8.962   5.884  0.6946 -0.7116 -0.2627
  103MOL0     C13820  -2.129   9.018   5.921 -1.0787 -0.1363  0.3334
  103MOL0     N13821  -1.357   8.751   5.905  0.5529 -0.1606 -0.5756
  103MOL0     N13822  -1.264   8.841   5.930  0.4644  0.5241  0.5591
  103MOL0     C13823  -0.153   9.077   6.546 -0.5193 -0.3761 -0.0836
  103MOL0     C13824  -0.019   9.042   6.574 -0.2047  0.3753 -0.4881
  103MOL0     C13825   0.344   8.793   6.747  0.7924  0.0652  0.6279
  103MOL0     C13826   0.434   8.894   6.749  1.1522 -0.6514  0.4917
  103MOL0     C13827   0.571   8.871   6.771 -1.0313 -0.2366  0.5561
  103MOL0     C13828   0.617   8.745   6.810  0.7082 -0.1882  0.1426
  103MOL0     O13829   0.743   8.715   6.841 -0.0660  0.3394 -0.5388
  103MOL0     C13830   0.849   8.792   6.782  0.3465  0.3046  0.1293
  103MOL0     C13831   0.984   8.711   6.777  0.2683 -0.9290 -0.2708
  103MOL0     C13832   1.093   8.724   6.669  0.5504  0.1636  0.9353
  103MOL0     C13833   1.196   8.612   6.685  0.1452 -0.9491  1.0380
  103MOL0     C13834   1.161   8.477   6.666 -0.8977 -0.4773 -0.9853
  103MOL0     C13835   1.116   8.363   6.662 -0.6638  0.0301  0.2829
  103MOL0     C13836   0.523   8.638   6.823 -0.1611  0.0412  0.9574
  103MOL0     C13837   0.391   8.666   6.786 -0.1867  0.2801  0.4510
  103MOL0     H13838  -0.062   8.878   6.876 -2.2335  2.1234  0.6677
  103MOL0     H13839  -0.304   8.932   6.816 -0.6297  1.8708 -0.7241
  103MOL0     H13840  -0.371   9.014   6.409  1.6462 -1.2839 -0.1743
  103MOL0     H13841  -0.437   8.889   6.518 -1.8178  1.9162  4.7313
  103MOL0     H13842  -0.640   9.069   6.546 -0.7523  3.2281 -1.5228
  103MOL0     H13843  -0.553   9.160   6.434 -0.4833  0.0894  1.4887
  103MOL0     H13844  -0.611   9.014   6.247  3.4475  0.5484  0.1400
  103MOL0     H13845  -0.610   8.874   6.348 -0.1463  0.1021  3.1107
  103MOL0     H13846  -0.828   8.949   6.464 -1.5503 -0.4326 -0.4790
  103MOL0     H13847  -0.829   9.090   6.376 -0.6042 -0.0445 -3.6145
  103MOL0     H13848  -0.884   8.982   6.169  2.1652 -2.4491 -1.8978
  103MOL0     H13849  -0.826   8.829   6.208 -0.3995 -0.6419 -0.9850
  103MOL0     H13850  -0.987   8.819   6.403  1.7101 -2.2104 -2.1789
  103MOL0     H13851  -1.045   8.990   6.355 -1.7256  0.5605 -2.4352
  103MOL0     H13852  -1.048   8.755   6.168  0.2380 -0.0058  0.5172
  103MOL0     H13853  -1.178   8.775   6.290  0.5486 -1.4233  0.6259
  103MOL0     H13854  -1.089   8.983   6.096  1.9342 -0.1144  2.8741
  103MOL0     H13855  -1.209   9.008   6.216 -1.5643 -0.3570 -0.1994
  103MOL0     H13856  -1.438   8.793   6.217  0.5368  1.3925  0.8080
  103MOL0     H13857  -1.590   8.593   5.925  0.8142  3.3365 -2.0942
  103MOL0     H13858  -1.552   8.580   6.092 -1.2598  1.0759  1.6411
  103MOL0     H13859  -1.693   8.767   6.147 -4.4690  0.2757 -0.3855
  103MOL0     H13860  -1.783   8.660   6.041 -0.2832 -0.2459  0.0420
  103MOL0     H13861  -1.771   8.786   5.848 -0.1304  1.6830 -1.4463
  103MOL0     H13862  -1.651   8.897   5.906 -0.3944 -0.5198 -0.2265
  103MOL0     H13863  -1.816   8.983   6.077 -2.0599 -1.6672  1.5056
  103MOL0     H13864  -1.916   8.848   6.048 -0.8952 -0.4456  0.8810
  103MOL0     H13865  -1.944   8.802   5.726 -1.6690 -1.1856 -2.1205
  103MOL0     H13866  -2.200   8.607   5.646 -0.0522 -1.2572 -0.4783
  103MOL0     H13867  -2.218   8.744   5.531  0.1780  1.0567  0.7550
  103MOL0     H13868  -2.059   8.682   5.583  0.6593 -1.0039  2.0853
  103MOL0     H13869  -2.669   8.675   5.685  0.3691 -0.2431  0.0322
  103MOL0     H13870  -2.900   8.735   5.620  1.6425 -0.8345  0.6394
  103MOL0     H13871  -3.088   8.807   5.470  0.5399 -0.3202 -1.2520
  103MOL0     H13872  -3.052   8.912   5.614  1.8031  1.7184 -0.0871
  103MOL0     H13873  -3.173   9.107   5.502 -1.5503 -0.0621  2.5245
  103MOL0     H13874  -3.195   9.010   5.368  0.4854  0.3960  0.0513
  103MOL0     H13875  -3.290   8.912   5.648  1.6918  1.0938  0.8727
  103MOL0     H13876  -3.335   8.845   5.487 -3.3031  1.2258  0.4039
  103MOL0     H13877  -3.413   9.119   5.604  2.2571  0.1594 -0.7017
  103MOL0     H13878  -3.449   9.074   5.440  2.6602  0.5549  0.1605
  103MOL0     H13879  -3.534   8.932   5.697  1.2091  1.9683  0.8124
  103MOL0     H13880  -3.582   8.897   5.524 -0.1767  2.2012 -1.6256
  103MOL0     H13881  -3.646   9.137   5.715 -2.5659  1.7058 -0.7151
  103MOL0     H13882  -3.680   9.131   5.533 -1.2676 -0.6103 -0.8663
  103MOL0     H13883  -3.837   9.004   5.759  0.9367 -1.5976  0.0944
  103MOL0     H13884  -3.800   8.902   5.622 -2.4929 -0.2126  0.4599
  103MOL0     H13885  -3.898   9.079   5.477 -0.1009  1.7823 -0.6051
  103MOL0     H13886  -3.947   9.173   5.625 -1.1910  1.7160 -3.8288
  103MOL0     H13887  -2.725   9.026   5.352  2.5333 -0.0420  1.0141
  103MOL0     H13888  -2.517   8.965   5.417 -1.5845  3.1318 -0.7034
  103MOL0     H13889  -2.337   9.010   5.935  1.8796  4.5444 -2.5758
  103MOL0     H13890  -2.118   9.102   5.989 -1.0377 -0.2509  0.4696
  103MOL0     H13891  -0.178   9.132   6.456 -0.4188  0.8445  0.6142
  103MOL0     H13892   0.050   9.071   6.495 -2.0071 -1.2847 -2.8108
  103MOL0     H13893   0.405   8.997   6.734  0.8894 -0.7184  0.5433
  103MOL0     H13894   0.631   8.961   6.764 -0.6289 -0.4149  1.6101
  103MOL0     H13895   0.804   8.800   6.683 -3.5104 -1.9052  1.4488
  103MOL0     H13896   0.864   8.889   6.831  2.0922 -0.9251  2.2320
  103MOL0     H13897   0.959   8.604   6.783  2.1419 -1.4731 -1.3103
  103MOL0     H13898   1.035   8.732   6.871 -2.3319 -0.1134  1.0635
  103MOL0     H13899   1.143   8.821   6.659 -2.5423  1.6719 -1.7086
  103MOL0     H13900   1.048   8.713   6.570 -1.1171  2.5035  1.3461
  103MOL0     H13901   1.239   8.630   6.784  2.1478 -2.0165  0.4224
  103MOL0     H13902   1.271   8.633   6.607  0.3733 -0.3101  1.4270
  103MOL0     H13903   1.087   8.260   6.649  0.9867 -0.6947  1.9111
  103MOL0     H13904   0.555   8.538   6.850  0.3338  0.2375  1.1150
  103MOL0     H13905   0.320   8.584   6.792 -0.5076  0.6192  1.6398
  104MOL0     O13906   7.547   1.467   8.430 -0.3333 -0.4658  0.8400
  104MOL0     C13907   7.567   1.580   8.465 -0.7781 -0.0734 -0.2572
  104MOL0     O13908   7.482   1.680   8.499  0.9696 -0.2126 -0.0220
  104MOL0     C13909   7.365   1.632   8.560  0.7527 -0.1333  0.3246
  104MOL0     C13910   7.258   1.714   8.550  0.9444  0.4997  0.0375
  104MOL0     C13911   7.137   1.699   8.615  0.0439 -0.0140 -0.4398
  104MOL0     C13912   7.108   1.587   8.686 -1.1895  0.3358 -0.2532
  104MOL0     O13913   6.985   1.574   8.742 -1.3258 -0.0829  0.6890
  104MOL0     C13914   6.965   1.495   8.856  0.3196  0.1489  0.2747
  104MOL0     C13915   6.906   1.359   8.824  0.3155 -0.0629 -0.3154
  104MOL0     C13916   6.793   1.373   8.729  0.2351  0.4551  0.0595
  104MOL0     C13917   6.684   1.271   8.758  0.7032  0.4156  0.2319
  104MOL0     C13918   6.559   1.302   8.676  1.4968  0.4176  0.6042
  104MOL0     C13919   6.453   1.195   8.720 -0.3851  0.3223 -0.0856
  104MOL0     C13920   6.327   1.215   8.639 -0.0203  0.1173  0.2811
  104MOL0     C13921   6.232   1.095   8.676  0.5547  0.5603  0.2991
  104MOL0     N13922   6.087   1.144   8.665 -0.2294  0.2157 -0.4834
  104MOL0     C13923   6.027   1.193   8.549  0.4566  0.6928 -0.4428
  104MOL0     C13924   5.903   1.214   8.584  0.1738  0.2299 -0.1086
  104MOL0     C13925   5.798   1.236   8.478  0.1242  0.6663 -0.0458
  104MOL0     C13926   5.685   1.124   8.484 -0.6605 -0.1889  0.4201
  104MOL0     C13927   5.581   1.158   8.602  0.4399 -0.4094 -0.3649
  104MOL0     C13928   5.449   1.085   8.583 -0.2020 -0.1172 -0.2517
  104MOL0     O13929   5.358   1.148   8.490  0.1706 -0.6862 -0.5958
  104MOL0     C13930   5.231   1.103   8.481  0.2991  0.8908 -0.2733
  104MOL0     C13931   5.146   1.200   8.424 -0.5800  0.6407  0.1907
  104MOL0     C13932   5.015   1.159   8.393 -0.1209 -0.1626 -0.2997
  104MOL0     C13933   4.926   1.257   8.318  0.4628 -0.2319  0.0450
  104MOL0     C13934   4.953   1.039   8.444 -0.5697  0.2786 -0.7271
  104MOL0     C13935   4.808   0.997   8.421 -0.0299  0.3383 -0.7601
  104MOL0     O13936   4.737   1.054   8.318 -0.2639  0.4668 -0.2321
  104MOL0     C13937   4.602   1.058   8.322  0.9852  0.6929 -0.4491
  104MOL0     C13938   4.540   1.094   8.202  0.1357  0.3374 -0.8495
  104MOL0     C13939   4.395   1.099   8.200  0.0487 -0.1024 -0.3067
  104MOL0     C13940   4.322   1.091   8.316  0.3172 -0.1570 -0.2185
  104MOL0     O13941   4.186   1.118   8.317  0.2188 -0.1837 -0.5662
  104MOL0     C13942   4.103   1.069   8.203  0.3428 -0.0927  0.8550
  104MOL0     C13943   3.953   1.080   8.222  0.1525 -0.0787 -0.2013
  104MOL0     C13944   3.874   1.057   8.092  0.4478  0.3302 -0.0677
  104MOL0     C13945   3.727   1.078   8.125  1.0660  0.0996 -0.4017
  104MOL0     C13946   3.631   1.067   8.007 -0.0792  0.1848  0.1738
  104MOL0     C13947   3.481   1.073   8.050  0.2236  0.2156  0.8211
  104MOL0     C13948   3.377   1.029   7.940  0.4161  0.6580 -0.0375
  104MOL0     C13949   3.400   1.099   7.811  0.3317  0.6457  0.1056
  104MOL0    Cl13950   3.278   1.031   7.700  0.0250  0.0676 -0.3909
  104MOL0     C13951   4.379   1.055   8.439 -0.1657  0.1600  0.8969
  104MOL0     C13952   4.516   1.035   8.441 -0.2530  0.8260  0.6712
  104MOL0     O13953   4.763   0.911   8.495  0.8788 -0.1760 -0.3197
  104MOL0     C13954   5.046   0.946   8.503 -0.0848  0.4029 -0.1744
  104MOL0     C13955   5.182   0.982   8.526 -0.2751  0.1704 -0.0738
  104MOL0     N13956   5.889   1.182   8.718  0.2090 -0.1506 -0.7831
  104MOL0     N13957   6.000   1.152   8.773 -0.1163  0.6500 -0.2489
  104MOL0     C13958   7.220   1.495   8.707  0.4616  0.4769  0.4606
  104MOL0     C13959   7.342   1.515   8.635  0.3164 -0.9093 -0.1187
  104MOL0     C13960   7.701   1.633   8.453  0.6453  0.9420  0.6842
  104MOL0     C13961   7.786   1.587   8.351  0.4169  0.4076  0.4861
  104MOL0     C13962   7.919   1.631   8.347  0.1804  0.2421 -0.1177
  104MOL0     C13963   7.963   1.734   8.429 -0.1695 -0.5295  0.0153
  104MOL0     O13964   8.088   1.790   8.401  0.0897 -0.4956 -0.7205
  104MOL0     C13965   8.141   1.909   8.465  0.5831 -1.3826 -0.1591
  104MOL0     C13966   8.226   1.870   8.585 -0.6225 -0.2610  0.5212
  104MOL0     C13967   8.307   1.993   8.638 -0.7179 -0.4301 -0.3000
  104MOL0     C13968   8.388   1.948   8.759  0.5660  1.2683 -0.2149
  104MOL0     C13969   8.523   2.008   8.759 -0.5251 -0.5366 -0.8290
  104MOL0     C13970   8.642   2.044   8.771 -0.6548 -0.4862 -0.6887
  104MOL0     C13971   7.874   1.781   8.532 -0.2273 -0.5150 -0.8234
  104MOL0     C13972   7.749   1.727   8.545 -0.4061  0.2891  0.4709
  104MOL0     H13973   7.285   1.801   8.490  1.6133 -0.1840 -0.6756
  104MOL0     H13974   7.061   1.775   8.613  2.2730  2.4571 -4.1387
  104MOL0     H13975   7.055   1.498   8.918 -0.9877 -1.2305  2.3615
  104MOL0     H13976   6.894   1.557   8.912 -0.7800 -1.2394  0.4966
  104MOL0     H13977   6.986   1.297   8.782  1.0480  1.2460 -0.9079
  104MOL0     H13978   6.878   1.306   8.916  3.6309  0.1939  0.9909
  104MOL0     H13979   6.745   1.469   8.752 -0.9742 -0.1005 -0.0497
  104MOL0     H13980   6.832   1.367   8.627  2.4167 -0.2231  0.8670
  104MOL0     H13981   6.711   1.168   8.734 -0.0417  0.2272  0.1777
  104MOL0     H13982   6.660   1.272   8.865 -2.9073 -2.1210 -0.3589
  104MOL0     H13983   6.515   1.401   8.691  1.7486  0.5753  0.2968
  104MOL0     H13984   6.586   1.306   8.570  1.2396  2.9235  0.5832
  104MOL0     H13985   6.501   1.098   8.704  0.7544  1.0962 -1.6727
  104MOL0     H13986   6.429   1.226   8.822  3.4436  1.4734  0.6416
  104MOL0     H13987   6.285   1.313   8.663  1.1228  1.0507 -1.3178
  104MOL0     H13988   6.333   1.204   8.530 -0.4666 -0.6855  0.3297
  104MOL0     H13989   6.259   1.047   8.770  1.9968 -3.6220 -1.9679
  104MOL0     H13990   6.245   1.016   8.601  0.4645 -0.0830  0.9432
  104MOL0     H13991   6.062   1.209   8.448 -0.0296 -0.5073 -0.8160
  104MOL0     H13992   5.757   1.337   8.485 -0.0094  0.6362 -0.4132
  104MOL0     H13993   5.844   1.217   8.381 -0.1889 -1.8658  0.2319
  104MOL0     H13994   5.721   1.022   8.501 -1.4952 -0.6462 -0.4793
  104MOL0     H13995   5.627   1.124   8.391 -0.6989 -2.1019  0.4216
  104MOL0     H13996   5.573   1.266   8.612  0.8274 -0.5265  1.4935
  104MOL0     H13997   5.625   1.115   8.692  0.6113 -0.8574 -0.6558
  104MOL0     H13998   5.396   1.074   8.678 -4.5249  0.8630 -2.3063
  104MOL0     H13999   5.469   0.983   8.552 -0.7597 -0.6339  1.0145
  104MOL0     H14000   5.187   1.295   8.390 -0.5756 -0.4302 -3.1652
  104MOL0     H14001   4.825   1.272   8.357  0.5744  2.9001 -0.6223
  104MOL0     H14002   4.979   1.351   8.302  0.8997 -0.2787  1.1519
  104MOL0     H14003   4.910   1.224   8.215 -0.6856  0.6637 -0.0873
  104MOL0     H14004   4.611   1.105   8.121  0.2065  3.0322 -0.5110
  104MOL0     H14005   4.351   1.137   8.109 -0.4919  2.6708  1.0037
  104MOL0     H14006   4.116   1.140   8.121 -3.9653 -1.9608 -1.7771
  104MOL0     H14007   4.133   0.968   8.174 -2.3746 -1.0383  0.9982
  104MOL0     H14008   3.917   1.017   8.304 -1.3820  0.3829 -0.4927
  104MOL0     H14009   3.931   1.181   8.257  1.2356  0.4071 -0.8916
  104MOL0     H14010   3.890   0.956   8.054  0.3173  1.9394 -5.3431
  104MOL0     H14011   3.922   1.126   8.021 -0.1363  1.0007  0.1744
  104MOL0     H14012   3.684   1.002   8.190 -1.9091  0.4164 -1.8167
  104MOL0     H14013   3.718   1.179   8.167  1.9641  0.8080 -1.8486
  104MOL0     H14014   3.647   0.972   7.956  1.3942 -1.2245  2.9919
  104MOL0     H14015   3.649   1.147   7.935  1.0598 -0.8418 -0.7124
  104MOL0     H14016   3.471   1.001   8.131  2.1581 -0.4483  0.5337
  104MOL0     H14017   3.443   1.168   8.088 -0.6845 -0.4936  1.7354
  104MOL0     H14018   3.276   1.046   7.980  0.4291  3.0919 -0.8928
  104MOL0     H14019   3.388   0.922   7.923 -1.3589  0.8024 -2.5577
  104MOL0     H14020   3.505   1.085   7.784  0.3738  3.2977 -1.3999
  104MOL0     H14021   3.379   1.205   7.827  2.2246  1.0676  0.0285
  104MOL0     H14022   4.318   1.052   8.528 -0.9459 -0.8605  0.3571
  104MOL0     H14023   4.569   1.016   8.534 -1.9573 -0.4664  1.4426
  104MOL0     H14024   5.020   0.844   8.528  2.0265 -0.4441 -1.1969
  104MOL0     H14025   5.240   0.901   8.569 -0.7284 -0.5297 -0.7427
  104MOL0     H14026   7.214   1.409   8.772  3.1555  1.4802  2.1891
  104MOL0     H14027   7.428   1.452   8.655  1.1120 -0.0492 -0.7565
  104MOL0     H14028   7.748   1.511   8.285  0.5567  1.9789 -1.5177
  104MOL0     H14029   7.974   1.585   8.266 -1.1136  2.5358 -2.4385
  104MOL0     H14030   8.216   1.957   8.402 -1.2674  0.2390 -1.2219
  104MOL0     H14031   8.072   1.986   8.501  0.1410 -1.1653 -1.4303
  104MOL0     H14032   8.302   1.797   8.555 -0.4489  0.5845 -1.2312
  104MOL0     H14033   8.166   1.834   8.669 -1.1017 -0.9861 -0.1059
  104MOL0     H14034   8.251   2.084   8.661  0.6201  0.2446  0.3888
  104MOL0     H14035   8.371   2.030   8.557 -1.6371  0.5608 -0.5953
  104MOL0     H14036   8.415   1.843   8.753  2.6125  1.8086 -1.5347
  104MOL0     H14037   8.331   1.969   8.850 -1.5220  1.3546 -1.4629
  104MOL0     H14038   8.749   2.050   8.765 -0.7037 -0.8088 -3.7676
  104MOL0     H14039   7.915   1.857   8.599 -0.5899 -0.8513 -0.2069
  104MOL0     H14040   7.695   1.761   8.633 -3.4887  0.0752 -1.1656
  105MOL0     O14041   5.511   1.320   9.868 -0.6198  0.1703  0.1450
  105MOL0     C14042   5.578   1.347   9.972 -0.7960  0.0150  0.5026
  105MOL0     O14043   5.547   1.445  10.063 -0.3981 -0.5076  0.2415
  105MOL0     C14044   5.459   1.544  10.030 -0.3486  0.4971 -0.1027
  105MOL0     C14045   5.499   1.678  10.005 -0.0452 -0.6916  0.4867
  105MOL0     C14046   5.410   1.770   9.984  0.4406  0.0547 -0.0507
  105MOL0     C14047   5.269   1.742   9.986  0.8610 -1.3121  0.0792
  105MOL0     O14048   5.184   1.854   9.976 -0.6350 -0.2020 -0.6226
  105MOL0     C14049   5.081   1.826   9.880  0.4463 -0.1758 -0.0661
  105MOL0     C14050   4.997   1.953   9.855  0.7278  0.4760  0.8561
  105MOL0     C14051   4.865   1.970   9.921 -0.8244 -0.4199 -0.2556
  105MOL0     C14052   4.874   1.965  10.077 -0.5997 -1.1931 -0.4410
  105MOL0     C14053   4.959   2.078  10.144 -0.4353 -0.8967  0.4213
  105MOL0     C14054   4.885   2.209  10.126 -0.0651  0.0353 -0.5663
  105MOL0     C14055   4.961   2.325  10.192  0.3602 -0.0844 -0.1393
  105MOL0     C14056   4.910   2.472  10.158  0.0863  0.0054 -0.1823
  105MOL0     N14057   4.818   2.522  10.257 -0.2933 -0.5408 -0.0174
  105MOL0     C14058   4.839   2.530  10.395  1.1286  0.6181 -0.0321
  105MOL0     C14059   4.754   2.629  10.435  0.5031  0.1124 -0.6322
  105MOL0     C14060   4.728   2.668  10.577  0.1163 -0.3437  0.0639
  105MOL0     C14061   4.577   2.660  10.605  0.3183  0.0929 -0.5601
  105MOL0     C14062   4.557   2.766  10.712  1.5044 -0.4620  0.1240
  105MOL0     C14063   4.416   2.763  10.764  0.2434  0.0771 -0.1574
  105MOL0     O14064   4.317   2.781  10.652 -0.5281  0.3417  0.1310
  105MOL0     C14065   4.190   2.787  10.675  0.7108  0.4280 -0.5840
  105MOL0     C14066   4.114   2.829  10.570 -0.0498 -0.5743 -0.7078
  105MOL0     C14067   3.976   2.851  10.585  0.2400  0.3873 -0.3261
  105MOL0     C14068   3.905   2.897  10.456 -0.0456  0.0886  1.0001
  105MOL0     C14069   3.913   2.824  10.714  0.5269  0.1482 -0.2092
  105MOL0     C14070   3.767   2.825  10.725  0.1060 -0.4465 -0.6066
  105MOL0     O14071   3.723   2.805  10.848  0.3823  0.1893 -0.7843
  105MOL0     C14072   3.583   2.786  10.876 -0.1224  0.4616 -1.0204
  105MOL0     C14073   3.489   2.884  10.845  0.3735 -0.3990  0.2116
  105MOL0     C14074   3.350   2.874  10.883 -0.3167  0.5468 -0.4532
  105MOL0     C14075   3.316   2.763  10.957  0.5577  0.1743  0.0303
  105MOL0     O14076   3.174   2.747  10.987 -0.7961 -0.1258  0.3103
  105MOL0     C14077   3.119   2.631  11.064  0.1806  0.2925  0.4621
  105MOL0     C14078   2.971   2.620  11.021 -0.1615  0.4345 -0.5649
  105MOL0     C14079   2.882   2.737  11.060 -0.3968 -0.4302  0.8308
  105MOL0     C14080   2.729   2.708  11.038 -0.2438 -0.4332  0.2052
  105MOL0     C14081   2.645   2.829  11.082  0.1291 -0.2562  0.1273
  105MOL0     C14082   2.709   2.944  11.167 -0.1822 -0.5606 -0.2492
  105MOL0     C14083   2.596   3.049  11.187 -0.5341  0.2153  0.0090
  105MOL0     C14084   2.609   3.147  11.298 -0.0035 -0.1175 -0.8463
  105MOL0    Cl14085   2.747   3.256  11.264 -0.5664  0.0724 -0.2520
  105MOL0     C14086   3.410   2.664  10.998  0.0112 -0.2815  0.6657
  105MOL0     C14087   3.542   2.679  10.961 -0.4748  0.9995 -0.4260
  105MOL0     O14088   3.696   2.834  10.633 -0.8775 -0.0294  0.4745
  105MOL0     C14089   3.999   2.784  10.820 -0.1775  0.1459 -0.1328
  105MOL0     C14090   4.138   2.772  10.808  0.5401  0.4937  0.6521
  105MOL0     N14091   4.688   2.684  10.332 -0.8128 -0.0317 -0.1650
  105MOL0     N14092   4.726   2.620  10.223 -0.5649  0.7565  0.0376
  105MOL0     C14093   5.229   1.607   9.998 -0.4864  0.0666  0.1641
  105MOL0     C14094   5.323   1.510  10.023 -0.6096  0.2935 -0.4239
  105MOL0     C14095   5.686   1.253   9.996  0.4290 -0.1408 -0.4587
  105MOL0     C14096   5.747   1.245  10.129 -0.1311  0.2998 -0.0463
  105MOL0     C14097   5.859   1.161  10.149  0.4460 -0.0041 -0.6616
  105MOL0     C14098   5.915   1.094  10.040  0.3642  0.1933 -0.3119
  105MOL0     O14099   6.022   1.022  10.071 -0.7221  0.2662 -0.8461
  105MOL0     C14100   6.076   0.916   9.994 -0.0519  0.6160 -0.2150
  105MOL0     C14101   6.186   0.956   9.901 -0.0503  0.1868  1.2643
  105MOL0     C14102   6.303   0.995   9.996 -0.0593 -0.0438  0.1457
  105MOL0     C14103   6.407   1.055   9.891  0.2621  0.2938  0.5743
  105MOL0     C14104   6.537   1.080   9.962  0.9813  0.4815  0.2674
  105MOL0     C14105   6.643   1.101  10.015  0.1542  0.0097 -0.6415
  105MOL0     C14106   5.856   1.096   9.919 -0.3739 -1.0938  0.8452
  105MOL0     C14107   5.746   1.177   9.893 -1.0217 -0.4315 -0.8174
  105MOL0     H14108   5.605   1.700  10.010 -0.0823 -0.6233  1.1767
  105MOL0     H14109   5.444   1.872   9.967 -0.3111  0.3273  0.0346
  105MOL0     H14110   5.129   1.796   9.786 -0.6230 -1.6974 -0.1568
  105MOL0     H14111   5.023   1.738   9.908  2.7115 -1.0085  2.3914
  105MOL0     H14112   5.059   2.038   9.886  3.0592 -0.0396 -1.9855
  105MOL0     H14113   4.993   1.964   9.747 -2.9779  3.3594  1.0895
  105MOL0     H14114   4.827   2.067   9.888 -0.1623 -0.2869 -0.6423
  105MOL0     H14115   4.802   1.890   9.880  0.3313 -1.4264 -0.0983
  105MOL0     H14116   4.769   1.971  10.107 -0.3463  3.1115  0.2065
  105MOL0     H14117   4.907   1.863  10.097 -2.7425 -1.9831 -0.7682
  105MOL0     H14118   4.966   2.066  10.252  0.3042 -0.3612  0.4457
  105MOL0     H14119   5.061   2.069  10.106 -0.8460 -2.6948 -0.3257
  105MOL0     H14120   4.883   2.242  10.021 -2.4507 -1.2804 -1.0095
  105MOL0     H14121   4.781   2.201  10.157  0.3570  1.6155  1.4809
  105MOL0     H14122   4.951   2.319  10.301 -0.0500  2.8912  0.0847
  105MOL0     H14123   5.068   2.321  10.171  0.8396 -2.0288  2.2237
  105MOL0     H14124   4.862   2.470  10.059 -1.1516  1.2753  0.3681
  105MOL0     H14125   4.989   2.547  10.157 -2.5082  3.1904  3.7638
  105MOL0     H14126   4.900   2.457  10.447  3.4212 -0.7219 -4.1477
  105MOL0     H14127   4.788   2.613  10.650  2.7891  0.8945 -1.0900
  105MOL0     H14128   4.759   2.773  10.579  0.7056 -0.5051 -0.4259
  105MOL0     H14129   4.551   2.563  10.649 -0.5944  0.4823 -0.2215
  105MOL0     H14130   4.525   2.675  10.510 -0.2110 -0.8899 -0.4350
  105MOL0     H14131   4.583   2.869  10.685  2.5954 -0.7239  0.1429
  105MOL0     H14132   4.613   2.746  10.803 -2.6276 -3.2600  2.3783
  105MOL0     H14133   4.414   2.837  10.844 -1.5922  1.5946 -1.4944
  105MOL0     H14134   4.403   2.664  10.808  2.8030 -1.0829 -1.7979
  105MOL0     H14135   4.164   2.852  10.477  1.9320  0.3103  0.4923
  105MOL0     H14136   3.850   2.817  10.404 -0.0251 -0.0844  1.2476
  105MOL0     H14137   3.831   2.973  10.483  0.5156  1.0820 -0.1509
  105MOL0     H14138   3.973   2.942  10.384  1.1976 -1.1953  1.3220
  105MOL0     H14139   3.520   2.963  10.777 -5.2258  0.6557 -1.6429
  105MOL0     H14140   3.275   2.945  10.848 -2.9273 -2.0585 -0.4725
  105MOL0     H14141   3.177   2.540  11.044  1.6140  1.0529  0.9761
  105MOL0     H14142   3.120   2.661  11.169 -1.1152  1.3197  0.2129
  105MOL0     H14143   2.970   2.609  10.912 -1.0023  0.6528 -0.5833
  105MOL0     H14144   2.945   2.522  11.062  1.5957 -0.2552 -1.0064
  105MOL0     H14145   2.916   2.823  11.002  0.0266  0.1375  1.9068
  105MOL0     H14146   2.903   2.769  11.162  2.0404 -0.2348  0.3141
  105MOL0     H14147   2.714   2.693  10.931  1.7005 -0.3141 -0.1115
  105MOL0     H14148   2.705   2.619  11.097 -2.6957 -0.9998 -1.4893
  105MOL0     H14149   2.563   2.784  11.139 -1.2943  0.6245 -1.1611
  105MOL0     H14150   2.596   2.863  10.991  0.5864 -1.6683 -0.6705
  105MOL0     H14151   2.736   2.907  11.265 -0.6197  0.3572  0.2330
  105MOL0     H14152   2.796   2.993  11.123  1.0864 -0.1123  2.5888
  105MOL0     H14153   2.513   2.987  11.223  0.5510 -0.4734  1.4211
  105MOL0     H14154   2.580   3.100  11.092 -0.7222  2.0152  0.9473
  105MOL0     H14155   2.626   3.095  11.393  0.7723  0.0480 -0.8899
  105MOL0     H14156   2.526   3.217  11.313  1.9911  1.9626  1.4334
  105MOL0     H14157   3.370   2.586  11.062 -3.5263  1.2426  0.5900
  105MOL0     H14158   3.619   2.608  10.991  0.6125  1.9039 -0.9832
  105MOL0     H14159   3.958   2.749  10.914  0.5005 -1.0594 -0.2581
  105MOL0     H14160   4.199   2.737  10.891  0.3071 -1.5767  0.0080
  105MOL0     H14161   5.127   1.571  10.006  0.2434 -2.2866 -0.2190
  105MOL0     H14162   5.293   1.405  10.022  1.1992 -0.2558  0.1750
  105MOL0     H14163   5.717   1.313  10.208  0.4620 -0.4374  0.8339
  105MOL0     H14164   5.923   1.153  10.237  1.6468  0.8098 -1.4340
  105MOL0     H14165   6.119   0.833  10.051  0.7103 -0.3752 -2.1492
  105MOL0     H14166   5.990   0.868   9.947 -0.8587 -0.0447  1.8032
  105MOL0     H14167   6.157   1.031   9.827  1.2636 -0.7316 -0.2591
  105MOL0     H14168   6.218   0.879   9.830 -0.2929  1.2046 -0.0060
  105MOL0     H14169   6.341   0.907  10.048  1.4605  0.8703  0.6211
  105MOL0     H14170   6.277   1.074  10.067 -0.0697 -0.4994  0.6536
  105MOL0     H14171   6.365   1.149   9.853 -0.0243  0.2263  0.7206
  105MOL0     H14172   6.419   0.980   9.813 -1.3036 -0.4488  1.0053
  105MOL0     H14173   6.735   1.123  10.065 -0.1220 -1.1348  0.4147
  105MOL0     H14174   5.892   1.029   9.841  0.0327 -0.3071  0.3468
  105MOL0     H14175   5.708   1.177   9.791 -2.3261  0.4381 -0.3578
  106MOL0     O14176   3.623   9.614   9.883  0.3255  0.2948  0.5874
  106MOL0     C14177   3.591   9.676   9.786 -0.4538 -0.4925 -0.3132
  106MOL0     O14178   3.484   9.659   9.705  0.4267 -0.0360  0.5438
  106MOL0     C14179   3.393   9.558   9.730 -0.3367  0.3667 -0.2342
  106MOL0     C14180   3.407   9.426   9.693 -0.1713  0.3248 -1.5461
  106MOL0     C14181   3.309   9.332   9.720  0.4565  0.7317 -0.7728
  106MOL0     C14182   3.184   9.373   9.778  0.3454 -0.3616  0.4336
  106MOL0     O14183   3.080   9.299   9.823  0.3374  0.2681 -0.2643
  106MOL0     C14184   3.103   9.159   9.848  0.7776  0.2119  0.1778
  106MOL0     C14185   3.052   9.072   9.733 -0.1240  0.4330 -0.5981
  106MOL0     C14186   2.898   9.093   9.733  0.8379 -0.1780 -0.1153
  106MOL0     C14187   2.812   9.008   9.637 -0.1338 -0.1851  0.4204
  106MOL0     C14188   2.671   9.060   9.618 -0.3349  0.5224  0.9350
  106MOL0     C14189   2.575   9.015   9.727 -0.2103  0.2588 -0.1394
  106MOL0     C14190   2.432   9.066   9.703 -0.0125  0.9730 -0.7231
  106MOL0     C14191   2.341   8.978   9.790 -0.1435  0.1915  0.2837
  106MOL0     N14192   2.343   9.014   9.931  0.8649  0.4339  0.9151
  106MOL0     C14193   2.279   9.128   9.983 -0.5311 -0.0085 -0.4260
  106MOL0     C14194   2.319   9.139  10.110  0.8464  0.0685 -0.0516
  106MOL0     C14195   2.288   9.250  10.204  0.4661 -0.2613 -0.5180
  106MOL0     C14196   2.139   9.280  10.220  0.4627 -0.5489 -0.2288
  106MOL0     C14197   2.070   9.146  10.266 -0.4022  0.3195 -0.3699
  106MOL0     C14198   1.920   9.159  10.262 -1.1480  0.1490  0.5350
  106MOL0     O14199   1.886   9.201  10.130  0.2966  0.1679 -0.0116
  106MOL0     C14200   1.751   9.213  10.097  0.1028  0.0462 -0.0646
  106MOL0     C14201   1.719   9.252   9.971 -0.8016 -0.1538  0.1329
  106MOL0     C14202   1.589   9.253   9.923  0.0058 -0.0042 -0.2008
  106MOL0     C14203   1.581   9.276   9.771 -0.5057  0.8359  0.0456
  106MOL0     C14204   1.479   9.226  10.008 -0.0193 -0.3789  0.5059
  106MOL0     C14205   1.334   9.223   9.971 -1.2683  0.3935  0.5838
  106MOL0     O14206   1.242   9.177  10.063  0.3130 -0.2830 -0.1156
  106MOL0     C14207   1.118   9.157  10.016 -0.3054 -0.0651  0.0841
  106MOL0     C14208   1.038   9.262   9.962  0.2280  0.7734  0.0243
  106MOL0     C14209   0.912   9.230   9.891 -0.2082 -0.2171  0.0689
  106MOL0     C14210   0.866   9.103   9.878  0.6503  0.5458 -1.0774
  106MOL0     O14211   0.741   9.076   9.836  0.5457  0.5451  0.8316
  106MOL0     C14212   0.657   8.998   9.920 -0.1114  0.1061 -0.8903
  106MOL0     C14213   0.514   8.996   9.869 -0.7082  0.4371 -0.0950
  106MOL0     C14214   0.418   8.898   9.939  0.1533  0.0930 -0.2624
  106MOL0     C14215   0.272   8.948   9.922  0.2591 -0.0841  0.0225
  106MOL0     C14216   0.164   8.852   9.985  0.5208 -0.5025 -0.3925
  106MOL0     C14217   0.030   8.892   9.929 -0.3317 -0.0734 -0.2844
  106MOL0     C14218  -0.085   8.809   9.976 -0.3262  0.2399 -0.5969
  106MOL0     C14219  -0.214   8.819   9.898 -0.4641  1.0287  0.4938
  106MOL0    Cl14220  -0.309   8.976   9.895  0.4126  0.4724  0.0219
  106MOL0     C14221   0.946   9.000   9.930 -0.0776 -0.0087 -0.1735
  106MOL0     C14222   1.063   9.023   9.997  0.3714 -0.2996 -0.1492
  106MOL0     O14223   1.307   9.246   9.854  0.5614 -0.2987 -0.3626
  106MOL0     C14224   1.513   9.188  10.140 -0.4777 -0.2556 -0.2046
  106MOL0     C14225   1.645   9.191  10.188  0.0885 -0.3311 -0.1614
  106MOL0     N14226   2.402   9.040  10.125  0.0025  0.6852 -0.2980
  106MOL0     N14227   2.416   8.960  10.023  0.1808  0.7325 -0.3990
  106MOL0     C14228   3.169   9.498   9.822 -0.7505 -0.4740  0.2722
  106MOL0     C14229   3.270   9.592   9.806  0.8721  0.0798 -0.3911
  106MOL0     C14230   3.686   9.791   9.740  0.3535  0.4162  0.0129
  106MOL0     C14231   3.813   9.821   9.799 -0.6120  0.6473 -0.3803
  106MOL0     C14232   3.901   9.911   9.742 -0.3850 -0.9195  0.9305
  106MOL0     C14233   3.859   9.973   9.624 -0.6161 -0.5031 -0.6892
  106MOL0     O14234   3.948  10.049   9.547 -0.6316 -0.0098 -0.3151
  106MOL0     C14235   3.996  10.173   9.604  0.4689 -0.3501 -0.6900
  106MOL0     C14236   4.091  10.246   9.512  0.1409 -0.3269 -0.0711
  106MOL0     C14237   4.175  10.337   9.592  0.2345  0.7651  0.1499
  106MOL0     C14238   4.266  10.428   9.511 -0.1444  0.1611 -0.2299
  106MOL0     C14239   4.351  10.497   9.612 -0.8612 -0.5321  0.2803
  106MOL0     C14240   4.397  10.564   9.703 -0.8218  0.1529 -0.0603
  106MOL0     C14241   3.738   9.954   9.566 -0.1198  0.2782 -0.5959
  106MOL0     C14242   3.652   9.859   9.621  0.5716  0.2157 -0.4038
  106MOL0     H14243   3.498   9.397   9.640  0.7001 -0.4204  0.2466
  106MOL0     H14244   3.319   9.227   9.692 -3.7592  0.3896 -1.5524
  106MOL0     H14245   3.210   9.144   9.863  1.1882  0.6128 -2.0696
  106MOL0     H14246   3.050   9.128   9.939 -1.3779 -0.0562 -1.0957
  106MOL0     H14247   3.096   9.098   9.636 -0.8438  1.8535 -0.5721
  106MOL0     H14248   3.071   8.966   9.750  0.7379  0.8113  0.9995
  106MOL0     H14249   2.858   9.080   9.834  1.4754 -2.2130 -0.0797
  106MOL0     H14250   2.869   9.195   9.705 -2.0743 -0.4591  1.4372
  106MOL0     H14251   2.869   9.011   9.544  2.9387  0.6657  2.1929
  106MOL0     H14252   2.819   8.901   9.660  0.7745 -0.9786 -3.0272
  106MOL0     H14253   2.664   9.167   9.597 -3.0850  0.1928 -0.1916
  106MOL0     H14254   2.638   9.015   9.525  0.1697 -0.7414  1.3385
  106MOL0     H14255   2.570   8.907   9.743  1.4569  0.3013  1.0525
  106MOL0     H14256   2.603   9.050   9.827 -0.8209 -2.6572  1.1368
  106MOL0     H14257   2.418   9.172   9.725 -3.0415  0.3813  0.7070
  106MOL0     H14258   2.404   9.037   9.601  0.7812 -1.8268 -0.2206
  106MOL0     H14259   2.359   8.872   9.771  1.6515  0.5598 -0.2291
  106MOL0     H14260   2.240   9.006   9.760 -0.1389  0.1817  0.2599
  106MOL0     H14261   2.222   9.202   9.927 -1.3676  0.4000  0.9163
  106MOL0     H14262   2.333   9.218  10.298 -2.2452 -1.0127  0.5958
  106MOL0     H14263   2.339   9.336  10.160 -2.4262  0.7882 -2.0995
  106MOL0     H14264   2.115   9.309  10.117  0.0314  3.3350  0.8165
  106MOL0     H14265   2.110   9.359  10.290  2.3830 -0.8526  0.9953
  106MOL0     H14266   2.104   9.116  10.366 -0.3373 -2.4129 -1.1175
  106MOL0     H14267   2.091   9.066  10.194 -1.5007  0.2820 -0.6619
  106MOL0     H14268   1.903   9.243  10.330  0.4270  1.4308 -0.5881
  106MOL0     H14269   1.864   9.068  10.285  0.5829 -1.1899 -0.3552
  106MOL0     H14270   1.808   9.264   9.910  0.0783 -2.0654  0.9402
  106MOL0     H14271   1.681   9.285   9.729 -0.7290  1.9805 -0.2541
  106MOL0     H14272   1.535   9.194   9.715  2.8543 -1.0814 -0.1906
  106MOL0     H14273   1.535   9.373   9.753  2.0534  2.1957  0.4740
  106MOL0     H14274   1.084   9.360   9.973  1.4813  0.0861  1.1927
  106MOL0     H14275   0.845   9.307   9.855  1.9749  2.0665  0.5522
  106MOL0     H14276   0.697   8.896   9.922  0.7942  0.4642  0.0542
  106MOL0     H14277   0.646   9.033  10.023 -1.4701  1.5126 -1.4601
  106MOL0     H14278   0.472   9.095   9.891  0.2336  1.0231 -0.8648
  106MOL0     H14279   0.520   8.981   9.761 -0.0747  1.0229 -0.1481
  106MOL0     H14280   0.441   8.901  10.046 -1.4178 -2.1725  0.2228
  106MOL0     H14281   0.435   8.796   9.903 -2.0786 -0.6630  0.6355
  106MOL0     H14282   0.257   9.053   9.947 -2.2044 -0.5777  0.9899
  106MOL0     H14283   0.251   8.935   9.816  0.4169 -2.2059  0.2055
  106MOL0     H14284   0.154   8.874  10.092  1.2956  1.6634 -0.7034
  106MOL0     H14285   0.189   8.746   9.980 -0.3800 -0.9874  2.7929
  106MOL0     H14286   0.016   8.996   9.958 -0.0063 -0.3489  0.8921
  106MOL0     H14287   0.042   8.894   9.820  0.2738  0.7454 -0.2099
  106MOL0     H14288  -0.101   8.825  10.083 -5.5438 -0.7651 -0.9512
  106MOL0     H14289  -0.054   8.704   9.973  3.7000  1.2161  0.2335
  106MOL0     H14290  -0.273   8.731   9.925 -0.4696  0.6035 -0.8387
  106MOL0     H14291  -0.193   8.786   9.795  0.8240  0.9113  0.7683
  106MOL0     H14292   0.921   8.894   9.936 -0.0983  0.0734  1.5404
  106MOL0     H14293   1.114   8.937  10.039  1.0129  0.0610 -0.1820
  106MOL0     H14294   1.433   9.163  10.208  0.5544 -2.7914  0.1788
  106MOL0     H14295   1.675   9.184  10.293  3.5463 -0.1835 -1.0302
  106MOL0     H14296   3.079   9.531   9.874 -0.9554  2.2172 -1.5819
  106MOL0     H14297   3.270   9.688   9.857  2.3149  1.1218 -2.2218
  106MOL0     H14298   3.842   9.749   9.874 -2.1879 -0.5233 -0.8456
  106MOL0     H14299   3.995   9.928   9.795 -1.3015  4.2327  1.3758
  106MOL0     H14300   3.920  10.234   9.654  0.5270 -2.2589  1.9828
  106MOL0     H14301   4.058  10.152   9.692 -1.1971 -0.1381  0.5783
  106MOL0     H14302   4.032  10.310   9.446  1.0823  2.6272  1.7535
  106MOL0     H14303   4.149  10.172   9.455  1.0716  0.1523  0.2235
  106MOL0     H14304   4.229  10.267   9.656 -1.9511 -0.5582  0.6440
  106MOL0     H14305   4.113  10.392   9.662 -2.3822 -1.0535 -0.5580
  106MOL0     H14306   4.202  10.497   9.456  0.4051  0.9027  0.0505
  106MOL0     H14307   4.335  10.372   9.447  1.0744  1.4695 -0.1153
  106MOL0     H14308   4.434  10.633   9.776 -0.3114  2.1603 -2.0948
  106MOL0     H14309   3.714  10.002   9.471  1.4245  1.5997 -0.3722
  106MOL0     H14310   3.558   9.833   9.573  0.0249  1.5913 -0.1135
  107MOL0     O14311   0.247   8.306   8.100 -0.6895 -0.7650  0.2667
  107MOL0     C14312   0.231   8.402   8.170  0.8298  0.4970  0.1414
  107MOL0     O14313   0.098   8.459   8.182  0.0599  0.2667 -0.1760
  107MOL0     C14314  -0.006   8.382   8.154  0.9246  0.4139  0.0315
  107MOL0     C14315  -0.033   8.264   8.223 -0.4954 -0.4784  0.5441
  107MOL0     C14316  -0.147   8.197   8.172 -0.3852  0.6528 -0.8063
  107MOL0     C14317  -0.248   8.251   8.090 -0.4033 -0.2367  0.0179
  107MOL0     O14318  -0.360   8.170   8.060 -0.0020  0.0806  0.7173
  107MOL0     C14319  -0.459   8.229   7.973  0.3949 -0.2496 -0.2648
  107MOL0     C14320  -0.420   8.206   7.820  0.2322  0.3009 -0.8858
  107MOL0     C14321  -0.415   8.056   7.785 -1.0219  0.5932  0.0194
  107MOL0     C14322  -0.537   8.028   7.691 -1.0293  0.4607 -0.4978
  107MOL0     C14323  -0.540   7.875   7.681 -0.1124  0.3201  0.5788
  107MOL0     C14324  -0.637   7.844   7.569 -0.2301  0.4790 -0.8222
  107MOL0     C14325  -0.779   7.913   7.570  0.9473  0.0622 -0.0823
  107MOL0     C14326  -0.860   7.861   7.680  0.4190  0.2893 -0.4807
  107MOL0     N14327  -0.979   7.950   7.687 -1.1163 -0.1254 -0.3112
  107MOL0     C14328  -0.975   8.077   7.731 -0.1518 -0.4567 -0.0240
  107MOL0     C14329  -1.100   8.111   7.739  0.4815 -0.4786 -0.0253
  107MOL0     C14330  -1.152   8.251   7.780  0.3203  0.1595  0.5621
  107MOL0     C14331  -1.138   8.357   7.672 -0.0888 -0.6756 -0.2600
  107MOL0     C14332  -1.236   8.476   7.675 -0.2805 -0.8724  0.0812
  107MOL0     C14333  -1.383   8.452   7.634 -0.9274  0.0970  0.3404
  107MOL0     O14334  -1.380   8.386   7.505  0.0314 -0.2521 -0.5666
  107MOL0     C14335  -1.490   8.311   7.482 -0.8540 -0.2616  0.0009
  107MOL0     C14336  -1.499   8.177   7.516  0.0883  1.2930  0.0537
  107MOL0     C14337  -1.620   8.106   7.497  0.6456 -0.4825  0.2103
  107MOL0     C14338  -1.630   7.965   7.563  0.1868  0.2424  1.0088
  107MOL0     C14339  -1.724   8.165   7.415  0.3541  0.6489  0.3683
  107MOL0     C14340  -1.835   8.093   7.355 -0.0916  0.9284 -1.0600
  107MOL0     O14341  -1.900   8.145   7.250  0.3687 -0.2251 -0.2312
  107MOL0     C14342  -2.015   8.101   7.190  0.7584 -0.3641 -0.6452
  107MOL0     C14343  -2.118   8.044   7.265  0.1415 -1.4080 -0.4638
  107MOL0     C14344  -2.239   8.005   7.208  0.0226 -0.9024  0.3397
  107MOL0     C14345  -2.253   8.021   7.067 -0.7443 -0.2750  0.6227
  107MOL0     O14346  -2.371   7.992   7.004 -0.2376 -0.3051  0.5598
  107MOL0     C14347  -2.358   7.887   6.905 -0.7451 -0.0513 -0.0752
  107MOL0     C14348  -2.477   7.909   6.808  0.3491 -0.2352  0.3768
  107MOL0     C14349  -2.495   7.795   6.716 -0.0245  0.1278 -0.1183
  107MOL0     C14350  -2.630   7.824   6.636 -0.5909 -0.1176 -0.1294
  107MOL0     C14351  -2.635   7.747   6.506 -0.5362  0.2671 -0.1999
  107MOL0     C14352  -2.775   7.743   6.459 -0.6404 -0.3346 -0.1172
  107MOL0     C14353  -2.852   7.620   6.500  0.4630  0.4043  0.1071
  107MOL0     C14354  -3.003   7.642   6.478  0.9660 -0.3271  0.1923
  107MOL0    Cl14355  -3.029   7.651   6.302 -0.2214  0.1445  0.2295
  107MOL0     C14356  -2.151   8.080   6.993 -0.2869  0.4889  0.3495
  107MOL0     C14357  -2.033   8.120   7.057 -0.2152 -1.1538 -0.9112
  107MOL0     O14358  -1.862   7.983   7.405 -0.1338 -0.7883  0.4372
  107MOL0     C14359  -1.705   8.303   7.377 -0.5574  0.7734 -0.1995
  107MOL0     C14360  -1.587   8.378   7.409 -0.3956  0.4215 -0.6824
  107MOL0     N14361  -1.187   8.009   7.707 -0.5534  0.4547 -0.9036
  107MOL0     N14362  -1.109   7.909   7.668 -0.0253  0.6302 -0.2989
  107MOL0     C14363  -0.215   8.376   8.034 -0.6692  0.2038 -0.5517
  107MOL0     C14364  -0.093   8.433   8.058  0.3529 -0.0258 -0.0733
  107MOL0     C14365   0.344   8.468   8.233 -0.0788  0.4552 -0.6536
  107MOL0     C14366   0.470   8.402   8.241  0.4809  0.2049  0.2073
  107MOL0     C14367   0.571   8.465   8.303  0.6626  0.2912 -0.5630
  107MOL0     C14368   0.553   8.591   8.359 -0.0102  0.1964  0.0258
  107MOL0     O14369   0.655   8.659   8.423  0.1939  0.2051  0.5143
  107MOL0     C14370   0.791   8.647   8.374 -1.1596 -0.5525 -0.2983
  107MOL0     C14371   0.862   8.545   8.455  0.0631 -0.4097  0.8008
  107MOL0     C14372   0.877   8.593   8.595  0.5507 -0.3769 -0.3189
  107MOL0     C14373   0.962   8.501   8.682  0.6402 -0.0608  0.0558
  107MOL0     C14374   0.898   8.375   8.709  0.1575  0.4360  0.3913
  107MOL0     C14375   0.848   8.267   8.737  0.0975  0.0959 -0.8432
  107MOL0     C14376   0.430   8.660   8.349 -0.5318  1.0603 -0.5890
  107MOL0     C14377   0.331   8.597   8.278  0.3037  0.4483 -0.9022
  107MOL0     H14378   0.044   8.223   8.287 -1.0271 -0.3000  1.3145
  107MOL0     H14379  -0.162   8.096   8.210  3.0460 -0.4975 -2.0862
  107MOL0     H14380  -0.546   8.165   7.985 -0.5407  0.8245 -1.0780
  107MOL0     H14381  -0.483   8.333   7.999 -2.2723 -0.8295 -0.1105
  107MOL0     H14382  -0.489   8.270   7.763  0.4279  0.9183 -0.4361
  107MOL0     H14383  -0.320   8.248   7.805  1.1285 -0.8821  1.3210
  107MOL0     H14384  -0.320   8.038   7.733  0.6169  1.0293  2.6922
  107MOL0     H14385  -0.416   7.988   7.870  2.2713  1.4747  0.9100
  107MOL0     H14386  -0.629   8.066   7.738 -1.3144 -1.7986  0.8938
  107MOL0     H14387  -0.527   8.090   7.601 -0.5019  4.8168  2.2781
  107MOL0     H14388  -0.447   7.838   7.637 -1.2425 -1.4577 -0.4363
  107MOL0     H14389  -0.563   7.826   7.776 -2.0811  0.7928  0.3810
  107MOL0     H14390  -0.589   7.868   7.474 -0.0562  0.2557 -0.7901
  107MOL0     H14391  -0.650   7.736   7.577 -1.4857  0.7720  3.0563
  107MOL0     H14392  -0.774   8.022   7.570 -0.5807  0.1582  0.2480
  107MOL0     H14393  -0.816   7.891   7.470  3.8245 -2.3851 -0.7501
  107MOL0     H14394  -0.808   7.857   7.776 -0.3506 -0.0155 -0.0662
  107MOL0     H14395  -0.890   7.759   7.656 -1.8402  0.8238 -0.2068
  107MOL0     H14396  -0.902   8.150   7.766 -0.2257 -0.3717 -0.0442
  107MOL0     H14397  -1.258   8.254   7.806  0.2132  2.0754  0.0338
  107MOL0     H14398  -1.081   8.284   7.857  3.0232 -1.3772 -1.1085
  107MOL0     H14399  -1.137   8.314   7.571 -1.1492  5.2433 -3.1973
  107MOL0     H14400  -1.040   8.401   7.690  0.5577 -0.8445 -2.9362
  107MOL0     H14401  -1.197   8.549   7.604 -0.8321 -0.8125 -0.1622
  107MOL0     H14402  -1.223   8.519   7.775  1.4584 -0.2806 -0.3737
  107MOL0     H14403  -1.437   8.546   7.615  1.2415  0.9710 -2.2935
  107MOL0     H14404  -1.435   8.393   7.709  1.6679 -2.2847  0.4526
  107MOL0     H14405  -1.421   8.121   7.567 -0.9573 -0.7985 -0.5278
  107MOL0     H14406  -1.566   7.971   7.651 -0.0087  0.1025  1.1599
  107MOL0     H14407  -1.732   7.965   7.601 -0.7364  0.0786 -1.2755
  107MOL0     H14408  -1.597   7.890   7.490  0.6558  0.2740  1.1863
  107MOL0     H14409  -2.095   8.047   7.371  3.7807 -1.2879 -1.1126
  107MOL0     H14410  -2.309   7.962   7.279  1.8132 -0.3781  2.5388
  107MOL0     H14411  -2.268   7.906   6.846 -1.4483  5.4275  0.1165
  107MOL0     H14412  -2.357   7.788   6.953  2.2707  0.8561  2.0451
  107MOL0     H14413  -2.569   7.917   6.866 -0.9096  0.3258 -1.5985
  107MOL0     H14414  -2.442   8.003   6.763 -0.4041  1.7196  3.5947
  107MOL0     H14415  -2.515   7.703   6.771  0.9304  0.1290  0.2548
  107MOL0     H14416  -2.414   7.793   6.643 -1.3950  0.2054 -1.6757
  107MOL0     H14417  -2.722   7.795   6.688 -3.5597  0.4667 -4.4751
  107MOL0     H14418  -2.632   7.925   6.593 -1.1125  0.5620  1.3970
  107MOL0     H14419  -2.593   7.650   6.534 -0.3556  1.5586  5.0464
  107MOL0     H14420  -2.573   7.792   6.427 -1.0315 -0.9895 -1.3423
  107MOL0     H14421  -2.822   7.831   6.504 -1.5210 -1.0725  0.4578
  107MOL0     H14422  -2.776   7.747   6.350  2.7822  2.2968 -0.2159
  107MOL0     H14423  -2.833   7.612   6.607 -0.6809  4.1833  0.7137
  107MOL0     H14424  -2.821   7.528   6.450  0.7717  0.4704  0.1753
  107MOL0     H14425  -3.044   7.733   6.524  0.6790 -0.6558  0.5893
  107MOL0     H14426  -3.066   7.571   6.531  0.4701 -0.8796 -1.0946
  107MOL0     H14427  -2.155   8.112   6.889 -0.4885 -2.6895 -0.7443
  107MOL0     H14428  -1.960   8.171   6.996  1.3723 -1.7059  0.4650
  107MOL0     H14429  -1.767   8.356   7.306 -0.4921  2.7119  1.1035
  107MOL0     H14430  -1.565   8.473   7.363 -1.0002  1.7557  1.6218
  107MOL0     H14431  -0.290   8.425   7.971 -3.0065 -0.6610  1.3961
  107MOL0     H14432  -0.076   8.534   8.021 -0.9003  0.4654  0.6071
  107MOL0     H14433   0.469   8.299   8.208 -0.7114 -0.0033  0.8325
  107MOL0     H14434   0.659   8.402   8.319  1.0836  0.7894 -0.8838
  107MOL0     H14435   0.807   8.633   8.267  1.4839  0.1061 -0.0743
  107MOL0     H14436   0.841   8.741   8.400  0.5392 -1.0754 -1.4743
  107MOL0     H14437   0.952   8.510   8.403  0.1293 -0.7629  1.1475
  107MOL0     H14438   0.800   8.455   8.459  1.3722 -1.3276  1.2154
  107MOL0     H14439   0.776   8.610   8.632  0.4594 -0.4432 -0.5366
  107MOL0     H14440   0.924   8.692   8.594  0.8199 -0.5022 -0.4715
  107MOL0     H14441   0.990   8.542   8.779  0.2011 -0.3154  0.2933
  107MOL0     H14442   1.052   8.480   8.623  0.1130  1.5644 -1.4126
  107MOL0     H14443   0.799   8.174   8.760 -2.0605  1.8387  2.3639
  107MOL0     H14444   0.429   8.765   8.378  0.7741  1.2673 -1.1962
  107MOL0     H14445   0.238   8.652   8.262  0.5439  0.4811 -2.2685
  108MOL0     O14446   1.306   6.721  10.538 -0.4390  0.0068 -0.4082
  108MOL0     C14447   1.382   6.671  10.618 -1.0000  0.2702  0.3975
  108MOL0     O14448   1.347   6.568  10.707  0.0652 -0.6029 -0.6412
  108MOL0     C14449   1.213   6.540  10.707  1.1461  0.0311 -0.2199
  108MOL0     C14450   1.160   6.460  10.601 -0.6662  0.9472 -0.0252
  108MOL0     C14451   1.024   6.438  10.597  0.4532 -0.2194 -0.2874
  108MOL0     C14452   0.935   6.495  10.693  0.2907 -0.2970 -0.3943
  108MOL0     O14453   0.800   6.472  10.676  0.1833  0.0096 -0.0877
  108MOL0     C14454   0.711   6.573  10.717 -0.0069 -0.1002  0.4478
  108MOL0     C14455   0.575   6.520  10.676  0.3197 -1.0627 -0.4403
  108MOL0     C14456   0.460   6.619  10.721 -0.3680 -0.0099  0.3308
  108MOL0     C14457   0.352   6.558  10.806 -0.7679 -0.7807 -1.0181
  108MOL0     C14458   0.250   6.664  10.860 -0.1118 -0.1360  0.7020
  108MOL0     C14459   0.178   6.756  10.749 -0.6759  0.2175  0.4380
  108MOL0     C14460   0.249   6.886  10.713  0.0801  0.8483  0.5107
  108MOL0     C14461   0.175   6.951  10.593 -0.8971 -0.2420  0.2816
  108MOL0     N14462   0.220   7.087  10.563 -0.1424 -0.4575 -0.2829
  108MOL0     C14463   0.280   7.122  10.444  0.3551  0.4577 -0.0339
  108MOL0     C14464   0.270   7.259  10.436  0.7190  0.1276 -0.4718
  108MOL0     C14465   0.308   7.348  10.321 -0.6196 -0.3268 -0.0538
  108MOL0     C14466   0.456   7.379  10.306 -0.6729  0.5899 -0.7325
  108MOL0     C14467   0.512   7.411  10.166 -0.4539  0.0939  0.2890
  108MOL0     C14468   0.417   7.505  10.081  0.8859 -0.0548 -0.3435
  108MOL0     O14469   0.327   7.420  10.016 -0.0230 -1.4112  0.2737
  108MOL0     C14470   0.218   7.492   9.964 -0.5108  0.6523 -0.1233
  108MOL0     C14471   0.225   7.617   9.904  0.3935  0.1239  0.3778
  108MOL0     C14472   0.108   7.696   9.875 -0.1394  0.7107  0.1795
  108MOL0     C14473   0.136   7.839   9.826  1.1358 -0.1125  0.7049
  108MOL0     C14474  -0.017   7.634   9.890  0.0798 -0.5287  0.3996
  108MOL0     C14475  -0.144   7.707   9.854  0.2304  0.5311 -0.4951
  108MOL0     O14476  -0.259   7.654   9.913 -0.1894 -0.9176  0.4787
  108MOL0     C14477  -0.375   7.706   9.860  0.6773  0.5055  0.4802
  108MOL0     C14478  -0.470   7.764   9.953 -0.4798  0.0818 -0.3525
  108MOL0     C14479  -0.581   7.836   9.899  0.1662  0.3588  0.2621
  108MOL0     C14480  -0.611   7.825   9.762 -0.1044  0.0346  0.0208
  108MOL0     O14481  -0.725   7.881   9.716  1.2942  0.4280 -1.0178
  108MOL0     C14482  -0.850   7.854   9.780  0.6229 -0.8154 -1.0138
  108MOL0     C14483  -0.968   7.844   9.689 -0.0388 -0.2975 -0.3152
  108MOL0     C14484  -0.957   7.962   9.596  0.4107  0.0098  1.4390
  108MOL0     C14485  -1.068   7.947   9.483 -0.7120  0.0788  0.1507
  108MOL0     C14486  -1.082   8.060   9.376 -0.4902 -0.1679 -0.1837
  108MOL0     C14487  -1.174   8.003   9.270  0.1473  0.4513 -0.1800
  108MOL0     C14488  -1.185   8.096   9.144  0.8802  0.2597  0.1189
  108MOL0     C14489  -1.304   8.056   9.054  0.7999  0.0396  0.1602
  108MOL0    Cl14490  -1.262   7.904   8.965 -0.3367 -0.0641  0.0248
  108MOL0     C14491  -0.522   7.757   9.679 -0.0521 -0.5725  0.6407
  108MOL0     C14492  -0.405   7.699   9.725  0.1660  0.1986  0.6797
  108MOL0     O14493  -0.143   7.814   9.794 -0.5235  0.1040  0.1615
  108MOL0     C14494  -0.018   7.505   9.944 -0.1085  0.1409 -0.8729
  108MOL0     C14495   0.097   7.435   9.987 -0.2057 -0.6332 -0.1952
  108MOL0     N14496   0.206   7.307  10.553  0.0316  1.0306  0.2227
  108MOL0     N14497   0.177   7.204  10.623 -0.4521 -0.2980 -0.2654
  108MOL0     C14498   0.980   6.579  10.793 -0.1135 -0.9999 -0.3206
  108MOL0     C14499   1.119   6.599  10.804 -0.4647  0.2062 -0.0677
  108MOL0     C14500   1.518   6.719  10.627 -0.5801 -0.5557  0.5752
  108MOL0     C14501   1.559   6.834  10.561 -0.6682 -0.4649 -0.2825
  108MOL0     C14502   1.687   6.880  10.571  0.0547 -0.6142  0.2762
  108MOL0     C14503   1.789   6.805  10.636 -0.2946 -0.3601 -0.2715
  108MOL0     O14504   1.930   6.814  10.629  1.0745  0.6571  0.4956
  108MOL0     C14505   1.994   6.918  10.557  0.3418 -0.0378  0.0131
  108MOL0     C14506   1.978   6.894  10.402  0.3576  0.5212 -0.0459
  108MOL0     C14507   2.097   6.958  10.329  1.0369 -0.0465  0.8778
  108MOL0     C14508   2.230   6.882  10.343  0.4072  0.0077 -0.2162
  108MOL0     C14509   2.330   6.936  10.253  0.2194 -0.6751  0.2486
  108MOL0     C14510   2.408   6.980  10.174 -0.0111  0.2220 -0.0727
  108MOL0     C14511   1.747   6.692  10.702 -0.0728  0.2829  0.4759
  108MOL0     C14512   1.614   6.645  10.700  1.0411  0.5570 -0.5606
  108MOL0     H14513   1.224   6.403  10.534 -1.1239  0.6976 -0.2540
  108MOL0     H14514   1.002   6.368  10.518  0.6266  0.0111 -0.5407
  108MOL0     H14515   0.704   6.567  10.826 -3.4284  2.3159  0.4916
  108MOL0     H14516   0.731   6.672  10.673 -0.8742 -0.8330 -1.7485
  108MOL0     H14517   0.574   6.504  10.567 -0.1278 -0.4148 -0.5331
  108MOL0     H14518   0.558   6.417  10.709  1.4996 -0.7279  1.3712
  108MOL0     H14519   0.502   6.710  10.765 -3.2691  2.3834 -1.4469
  108MOL0     H14520   0.413   6.657  10.630 -0.8562  1.2568  1.0780
  108MOL0     H14521   0.297   6.482  10.750 -1.5335 -1.0545  0.0814
  108MOL0     H14522   0.399   6.503  10.889  0.1739 -2.9005 -2.8548
  108MOL0     H14523   0.163   6.616  10.904 -2.8434  1.6463 -2.2964
  108MOL0     H14524   0.297   6.721  10.941  0.5001 -0.3378  0.4937
  108MOL0     H14525   0.159   6.689  10.664 -0.0611 -0.3388  0.7234
  108MOL0     H14526   0.081   6.781  10.793 -0.7794 -0.3293  0.5317
  108MOL0     H14527   0.241   6.960  10.793  0.0638 -0.2270  1.5371
  108MOL0     H14528   0.354   6.871  10.685  0.2678  0.8719  1.1904
  108MOL0     H14529   0.066   6.960  10.598 -0.8362 -0.0173  2.1250
  108MOL0     H14530   0.198   6.887  10.508 -0.9215 -0.1171  0.1801
  108MOL0     H14531   0.320   7.045  10.379  1.8871  1.7691 -0.7113
  108MOL0     H14532   0.269   7.298  10.232 -2.8795 -0.3996  0.9270
  108MOL0     H14533   0.257   7.444  10.329  0.0032 -0.1238  2.0812
  108MOL0     H14534   0.516   7.298  10.350 -2.0583  0.8538  1.8247
  108MOL0     H14535   0.482   7.465  10.368 -0.2113  1.0929 -1.6103
  108MOL0     H14536   0.540   7.319  10.114 -0.4069 -0.0878  0.6311
  108MOL0     H14537   0.609   7.459  10.186  0.4089 -1.3237 -0.3404
  108MOL0     H14538   0.479   7.547  10.001  0.4217 -0.0454 -0.7047
  108MOL0     H14539   0.377   7.583  10.146  0.7414 -1.1963  0.9751
  108MOL0     H14540   0.326   7.655   9.888  1.2021 -0.8313  2.7507
  108MOL0     H14541   0.096   7.909   9.899 -0.6506 -3.5415  3.3545
  108MOL0     H14542   0.242   7.863   9.814  1.0084  0.1528  0.0672
  108MOL0     H14543   0.090   7.853   9.728 -2.1886 -0.5181  2.0717
  108MOL0     H14544  -0.433   7.779  10.054  0.9975 -1.1157 -0.6874
  108MOL0     H14545  -0.641   7.892   9.970  0.8420 -0.1408  1.2453
  108MOL0     H14546  -0.849   7.771   9.851  1.1018 -0.7038 -0.8851
  108MOL0     H14547  -0.863   7.946   9.838 -0.5175 -0.0541 -2.3968
  108MOL0     H14548  -0.988   7.752   9.634  0.5600 -0.1172 -0.8396
  108MOL0     H14549  -1.056   7.867   9.749  1.5554 -0.6741  2.3491
  108MOL0     H14550  -0.861   7.959   9.544 -2.1899  0.8359 -4.2271
  108MOL0     H14551  -0.967   8.059   9.645  0.8646  0.2990  0.9706
  108MOL0     H14552  -1.045   7.855   9.428 -0.4851 -0.0308  0.4276
  108MOL0     H14553  -1.167   7.930   9.528 -0.8774 -0.5242 -0.4233
  108MOL0     H14554  -0.982   8.084   9.339  0.2152 -0.2873  1.5253
  108MOL0     H14555  -1.124   8.152   9.418 -3.2259 -1.8518  1.0769
  108MOL0     H14556  -1.141   7.905   9.236 -0.9221  0.8238 -2.4768
  108MOL0     H14557  -1.272   7.989   9.316  0.3300  1.2159  0.4723
  108MOL0     H14558  -1.097   8.086   9.081 -0.9980  0.1846 -2.7055
  108MOL0     H14559  -1.203   8.199   9.178 -1.5433 -0.4022  1.1013
  108MOL0     H14560  -1.312   8.133   8.977  4.7081  1.3272  0.8189
  108MOL0     H14561  -1.396   8.046   9.112  1.2580 -2.1661  0.5841
  108MOL0     H14562  -0.555   7.749   9.576 -1.1957  2.5287  0.6621
  108MOL0     H14563  -0.338   7.647   9.658  0.7123 -0.1218  1.4622
  108MOL0     H14564  -0.110   7.451   9.966  0.7814 -0.0569  3.0419
  108MOL0     H14565   0.088   7.346  10.048 -1.1563 -0.2691  0.2214
  108MOL0     H14566   0.914   6.631  10.862  0.8038 -1.6726  1.1272
  108MOL0     H14567   1.162   6.666  10.878  0.8614 -1.8910  1.1935
  108MOL0     H14568   1.478   6.877  10.503 -0.8531  2.5003  1.9047
  108MOL0     H14569   1.701   6.968  10.509 -0.3053 -0.8380 -0.1289
  108MOL0     H14570   1.968   7.021  10.584  0.1403  0.3808 -1.6817
  108MOL0     H14571   2.102   6.905  10.572  0.7382 -1.5240 -3.1553
  108MOL0     H14572   1.888   6.940  10.360  1.3066  2.0967 -0.4183
  108MOL0     H14573   1.972   6.786  10.386 -3.0716  0.5991  0.0745
  108MOL0     H14574   2.114   7.061  10.363  0.9747 -0.0369  0.8791
  108MOL0     H14575   2.074   6.956  10.222 -0.5588 -1.8790  1.1969
  108MOL0     H14576   2.220   6.773  10.334 -3.2356 -0.1229  2.8427
  108MOL0     H14577   2.264   6.887  10.447 -0.0821 -0.7962 -0.0062
  108MOL0     H14578   2.473   7.016  10.097 -2.5084 -1.3081 -3.1362
  108MOL0     H14579   1.825   6.645  10.761  1.3182 -1.1219 -2.2308
  108MOL0     H14580   1.590   6.549  10.745  0.9866 -0.6788 -3.0624
  109MOL0     O14581   8.092   9.983   2.292 -0.0595 -0.2162  0.4752
  109MOL0     C14582   8.200  10.010   2.343 -0.1745  0.4070 -0.1228
  109MOL0     O14583   8.215  10.071   2.464  0.5812 -0.4505 -0.1249
  109MOL0     C14584   8.099  10.087   2.540 -0.2847  0.5564  0.5453
  109MOL0     C14585   8.054   9.975   2.616 -1.0857 -0.6823  0.1311
  109MOL0     C14586   7.936   9.984   2.679  0.6598 -0.2337  0.1896
  109MOL0     C14587   7.860  10.108   2.680  0.1026  0.7972 -0.6691
  109MOL0     O14588   7.751  10.117   2.760 -0.4118 -0.3945  0.2299
  109MOL0     C14589   7.639  10.199   2.713 -0.4295  0.2484  0.0465
  109MOL0     C14590   7.576  10.121   2.602 -0.7502  0.5253 -0.3894
  109MOL0     C14591   7.452  10.187   2.550 -0.0071  0.2768 -0.6990
  109MOL0     C14592   7.462  10.332   2.492 -0.3340  0.6434  0.2573
  109MOL0     C14593   7.323  10.367   2.433 -0.4480 -0.0033  0.3165
  109MOL0     C14594   7.327  10.501   2.359 -0.3080  0.8160  0.0433
  109MOL0     C14595   7.221  10.541   2.262  0.3006 -0.1687  1.3631
  109MOL0     C14596   7.090  10.580   2.326 -0.8130 -0.0383 -0.3833
  109MOL0     N14597   6.983  10.607   2.222 -0.2452  0.4803 -0.3288
  109MOL0     C14598   6.869  10.542   2.205 -0.0258  0.2416 -0.3185
  109MOL0     C14599   6.800  10.612   2.117  0.1699  1.4109  1.0626
  109MOL0     C14600   6.657  10.579   2.072 -0.8345  0.5171  0.0212
  109MOL0     C14601   6.662  10.524   1.934  0.2926  1.1494  0.1270
  109MOL0     C14602   6.510  10.506   1.898 -0.0167  0.3586 -0.7994
  109MOL0     C14603   6.512  10.415   1.771 -0.2626  0.0372  0.2717
  109MOL0     O14604   6.378  10.395   1.723  0.4920  0.4818  0.2273
  109MOL0     C14605   6.317  10.486   1.650 -0.3598 -0.1046 -0.6895
  109MOL0     C14606   6.376  10.604   1.590  0.4697 -0.4529  0.4785
  109MOL0     C14607   6.302  10.694   1.519  0.6510 -1.7411  0.2219
  109MOL0     C14608   6.381  10.812   1.466 -0.2734 -0.0726 -0.9721
  109MOL0     C14609   6.168  10.660   1.483 -0.1032  0.5264  0.3834
  109MOL0     C14610   6.074  10.737   1.390  0.3348 -0.8892  0.0127
  109MOL0     O14611   6.132  10.794   1.279  0.0307 -0.1948 -0.2956
  109MOL0     C14612   6.050  10.868   1.198  0.0878  0.6338 -0.1205
  109MOL0     C14613   6.033  10.815   1.073  0.8923  0.1486 -0.7087
  109MOL0     C14614   5.949  10.869   0.978  0.5608 -0.0168  0.0492
  109MOL0     C14615   5.873  10.988   1.014 -0.0016  0.2102 -0.4245
  109MOL0     O14616   5.782  11.039   0.932 -0.3014 -0.0190 -0.8049
  109MOL0     C14617   5.770  11.003   0.801 -0.7991 -0.2156  0.3673
  109MOL0     C14618   5.679  11.110   0.724 -0.1378  0.0869 -0.3824
  109MOL0     C14619   5.543  11.141   0.793 -0.6694 -0.7406 -0.9499
  109MOL0     C14620   5.465  11.009   0.824  1.0637 -0.1258 -0.0478
  109MOL0     C14621   5.327  11.033   0.894 -1.1438  0.3075 -0.6575
  109MOL0     C14622   5.230  11.130   0.833  0.2568  0.1339 -0.0895
  109MOL0     C14623   5.098  11.113   0.912 -0.3163 -0.1386 -0.2486
  109MOL0     C14624   4.996  11.223   0.880  0.2194  0.0889  0.6644
  109MOL0    Cl14625   5.075  11.378   0.918 -0.2698 -0.3256 -0.4649
  109MOL0     C14626   5.892  11.046   1.143 -0.0479 -0.3427  0.2679
  109MOL0     C14627   5.979  10.985   1.230  0.8424  0.3681  0.0198
  109MOL0     O14628   5.954  10.737   1.419  0.2909 -0.3404  0.3684
  109MOL0     C14629   6.108  10.543   1.542  0.4374  0.2858 -0.4086
  109MOL0     C14630   6.184  10.457   1.619 -0.2800 -0.6667 -0.4472
  109MOL0     N14631   6.868  10.720   2.085  0.1428 -0.0494 -0.7289
  109MOL0     N14632   6.974  10.726   2.154  0.1423 -0.3082 -0.2335
  109MOL0     C14633   7.912  10.220   2.615 -0.0304 -0.3063 -0.4832
  109MOL0     C14634   8.033  10.208   2.549  0.5971 -0.1469 -0.1746
  109MOL0     C14635   8.324   9.972   2.281 -0.1063  0.1302 -0.1476
  109MOL0     C14636   8.441   9.937   2.352  0.7694  1.1197  0.2352
  109MOL0     C14637   8.557   9.897   2.279 -0.4053 -0.0924  0.4582
  109MOL0     C14638   8.568   9.896   2.138 -0.3535 -0.6354  0.7878
  109MOL0     O14639   8.671   9.844   2.071 -0.6200  0.2984  0.4772
  109MOL0     C14640   8.795   9.829   2.133  0.3042  0.4264 -0.2240
  109MOL0     C14641   8.909   9.826   2.039 -0.0560  0.3358 -0.2903
  109MOL0     C14642   9.031   9.757   2.108 -0.2026  0.9285 -0.2612
  109MOL0     C14643   9.145   9.763   2.000  0.1338  0.3556  0.2969
  109MOL0     C14644   9.119   9.665   1.897 -0.6677  0.3900  0.8904
  109MOL0     C14645   9.094   9.586   1.800  0.0533 -0.2313  0.4977
  109MOL0     C14646   8.448   9.921   2.068 -0.0079 -0.7938 -0.5400
  109MOL0     C14647   8.327   9.966   2.135 -0.9841 -1.0454  0.1356
  109MOL0     H14648   8.096   9.878   2.593 -0.5137 -0.6617  1.0412
  109MOL0     H14649   7.914   9.910   2.755  2.9653  2.5872  3.9373
  109MOL0     H14650   7.569  10.202   2.797 -1.1209 -2.3950 -0.3230
  109MOL0     H14651   7.662  10.300   2.678  0.4174  0.3971  0.9800
  109MOL0     H14652   7.646  10.109   2.519 -1.0845 -1.2302 -0.4538
  109MOL0     H14653   7.550  10.022   2.642 -3.5701  1.5803  0.6835
  109MOL0     H14654   7.413  10.121   2.472  0.7471  0.2792 -1.0813
  109MOL0     H14655   7.385  10.185   2.637  0.0523  2.4029 -0.5555
  109MOL0     H14656   7.494  10.411   2.562  1.1419  1.5181 -1.2999
  109MOL0     H14657   7.539  10.334   2.413 -0.1949 -2.5487  0.1874
  109MOL0     H14658   7.284  10.293   2.363 -3.7785  0.7156  1.2106
  109MOL0     H14659   7.240  10.370   2.505  0.2702  0.4014  1.1364
  109MOL0     H14660   7.338  10.586   2.426  3.0160 -0.3256  1.1653
  109MOL0     H14661   7.422  10.510   2.305 -0.2238  0.5767  0.1494
  109MOL0     H14662   7.259  10.627   2.206 -0.8537 -0.7457 -0.3835
  109MOL0     H14663   7.204  10.452   2.200  2.9027 -0.5898  1.1486
  109MOL0     H14664   7.124  10.665   2.387  1.8024  2.2232 -4.5232
  109MOL0     H14665   7.063  10.500   2.395  1.2807 -1.2787 -0.8865
  109MOL0     H14666   6.841  10.454   2.262 -0.3475  0.1727 -0.5752
  109MOL0     H14667   6.610  10.507   2.140 -1.7668  0.8551 -0.2472
  109MOL0     H14668   6.603  10.674   2.073  0.8330  1.6250  4.0625
  109MOL0     H14669   6.715  10.430   1.948 -2.3801 -0.5380 -0.4683
  109MOL0     H14670   6.705  10.604   1.872  0.6817  0.8358 -0.0053
  109MOL0     H14671   6.456  10.600   1.884 -2.5964 -0.3286  3.1287
  109MOL0     H14672   6.463  10.453   1.981  1.5700 -3.3721 -2.0648
  109MOL0     H14673   6.562  10.321   1.795  1.5987  0.7981 -0.4315
  109MOL0     H14674   6.575  10.466   1.697 -1.5808 -0.1277 -1.0142
  109MOL0     H14675   6.480  10.630   1.607  0.4050 -0.2006  0.4891
  109MOL0     H14676   6.427  10.788   1.369 -3.0468  1.7826 -2.8883
  109MOL0     H14677   6.315  10.894   1.437 -1.2140 -1.2641 -2.3453
  109MOL0     H14678   6.453  10.844   1.541 -2.1434 -1.8583  1.7719
  109MOL0     H14679   6.088  10.725   1.050 -0.4873 -0.9933  0.3202
  109MOL0     H14680   5.940  10.820   0.882  0.7973  2.2318 -1.2075
  109MOL0     H14681   5.863  11.010   0.744 -1.2994 -2.0393 -0.7590
  109MOL0     H14682   5.717  10.907   0.797  0.4042 -0.8885  0.1895
  109MOL0     H14683   5.735  11.204   0.717  0.5878 -0.3140 -0.1240
  109MOL0     H14684   5.660  11.062   0.628 -1.1449 -0.5139  0.0931
  109MOL0     H14685   5.491  11.213   0.730  1.3188  2.3440  0.6811
  109MOL0     H14686   5.574  11.194   0.884  0.9780 -1.1507 -1.2287
  109MOL0     H14687   5.447  10.965   0.725 -0.4232 -0.7710  0.4852
  109MOL0     H14688   5.524  10.943   0.887 -0.2768 -0.5655  0.7797
  109MOL0     H14689   5.361  11.075   0.989 -1.2237 -0.0415 -0.4728
  109MOL0     H14690   5.282  10.937   0.919 -0.3950  0.1450  0.1431
  109MOL0     H14691   5.270  11.232   0.829  2.2036 -0.4760  1.7048
  109MOL0     H14692   5.209  11.101   0.730 -1.3086 -0.6227  0.4229
  109MOL0     H14693   5.113  11.103   1.020 -0.7171 -0.6198 -0.2319
  109MOL0     H14694   5.055  11.021   0.870  0.6040  0.0126 -1.5846
  109MOL0     H14695   4.900  11.200   0.925 -1.4409  1.6676 -1.8481
  109MOL0     H14696   4.985  11.219   0.771 -2.7601 -0.5086  0.9298
  109MOL0     H14697   5.841  11.135   1.177  1.4503  0.4336  0.5556
  109MOL0     H14698   5.978  11.019   1.333 -1.6458 -0.1412  0.2247
  109MOL0     H14699   6.006  10.522   1.511  0.6924  2.6366 -3.2125
  109MOL0     H14700   6.140  10.366   1.658  0.7047 -0.3442  1.5139
  109MOL0     H14701   7.879  10.323   2.628  3.1623  0.6520  1.3451
  109MOL0     H14702   8.066  10.298   2.498 -1.1787  0.8308  0.3176
  109MOL0     H14703   8.440   9.923   2.459  0.2423 -1.1903 -0.0151
  109MOL0     H14704   8.643   9.866   2.337  2.0955  0.2111 -2.8023
  109MOL0     H14705   8.829   9.900   2.209 -0.1633 -0.7442  1.1269
  109MOL0     H14706   8.787   9.733   2.185  2.9029  0.5200  0.4706
  109MOL0     H14707   8.945   9.927   2.017  2.9415 -0.5311  0.2254
  109MOL0     H14708   8.890   9.760   1.953 -4.8408  2.4821 -1.2176
  109MOL0     H14709   9.008   9.657   2.144 -1.6782  1.5631  0.6089
  109MOL0     H14710   9.062   9.820   2.192 -0.4408  0.9936 -0.2224
  109MOL0     H14711   9.240   9.734   2.046  0.3409  1.2543  0.4554
  109MOL0     H14712   9.160   9.861   1.955  1.8590 -0.5469 -1.2167
  109MOL0     H14713   9.112   9.520   1.718  0.3666 -0.4183  0.7142
  109MOL0     H14714   8.456   9.898   1.963 -0.5697 -1.2003 -0.4990
  109MOL0     H14715   8.244   9.986   2.068  2.0059 -2.4365 -4.4427
  110MOL0     O14716   6.542   8.168   7.062  0.6005 -0.1581 -0.1348
  110MOL0     C14717   6.511   8.066   7.123  0.5037 -1.4143 -0.3763
  110MOL0     O14718   6.394   8.021   7.147 -0.3010  0.8704 -0.1690
  110MOL0     C14719   6.294   8.094   7.087 -0.3440 -0.3186 -0.6872
  110MOL0     C14720   6.221   8.184   7.169  0.5255 -0.3025 -0.1066
  110MOL0     C14721   6.126   8.276   7.113 -1.0900 -0.3768 -0.8256
  110MOL0     C14722   6.104   8.283   6.980 -0.0433  0.1846 -0.7118
  110MOL0     O14723   6.023   8.373   6.930  0.2271 -0.2718 -0.1264
  110MOL0     C14724   6.080   8.467   6.831  0.1595 -0.8589  0.1063
  110MOL0     C14725   5.975   8.583   6.825 -0.6344 -0.5383  0.0098
  110MOL0     C14726   5.839   8.530   6.780  0.7277 -0.3447  0.2050
  110MOL0     C14727   5.759   8.648   6.725  0.4395 -0.5248 -0.2411
  110MOL0     C14728   5.623   8.607   6.660 -0.4745  0.0492 -1.3141
  110MOL0     C14729   5.544   8.737   6.641  0.5416 -0.5720  0.4866
  110MOL0     C14730   5.404   8.705   6.576  0.1008  0.1028  0.2397
  110MOL0     C14731   5.313   8.825   6.598  0.8598  0.5389 -0.1331
  110MOL0     N14732   5.202   8.803   6.505 -0.3868 -0.4333 -0.2985
  110MOL0     C14733   5.178   8.873   6.383 -0.3786  0.7438 -0.5657
  110MOL0     C14734   5.048   8.848   6.360  0.2189 -0.5692  0.6191
  110MOL0     C14735   4.982   8.899   6.233  0.3608  0.7600 -0.1199
  110MOL0     C14736   4.837   8.952   6.258 -0.7696 -0.5744 -0.0174
  110MOL0     C14737   4.732   8.847   6.242  0.3075 -0.3569 -1.2523
  110MOL0     C14738   4.590   8.897   6.279  0.0353 -0.5978 -0.0612
  110MOL0     O14739   4.555   8.995   6.178  0.2761  0.2335  0.3889
  110MOL0     C14740   4.448   9.079   6.188 -0.5766 -0.7826  0.3833
  110MOL0     C14741   4.421   9.170   6.082  0.2583  0.8574  0.1600
  110MOL0     C14742   4.305   9.250   6.075  0.4671  0.4511 -0.0532
  110MOL0     C14743   4.303   9.345   5.954 -0.6274 -1.0331  0.2912
  110MOL0     C14744   4.212   9.239   6.178  0.0085  0.0983 -0.5533
  110MOL0     C14745   4.079   9.314   6.176  0.1088 -0.8640 -0.0014
  110MOL0     O14746   3.967   9.249   6.204 -0.6049  0.4449  0.4389
  110MOL0     C14747   3.848   9.309   6.234  0.3078  0.4877 -0.1763
  110MOL0     C14748   3.821   9.453   6.275  0.4069 -0.2172  0.2310
  110MOL0     C14749   3.688   9.493   6.304  0.3485  0.1490 -0.5284
  110MOL0     C14750   3.583   9.404   6.323  0.4366  0.2794  0.7196
  110MOL0     O14751   3.455   9.456   6.367  0.3076  0.5894 -0.3403
  110MOL0     C14752   3.389   9.383   6.475 -0.0070  0.4026 -0.5732
  110MOL0     C14753   3.256   9.438   6.504 -0.3933 -0.1655  0.1960
  110MOL0     C14754   3.261   9.593   6.526 -0.4011  0.5999  1.0829
  110MOL0     C14755   3.143   9.647   6.616  0.2480  0.3376  0.4745
  110MOL0     C14756   3.012   9.589   6.567  0.3170 -1.1827  0.7656
  110MOL0     C14757   2.894   9.661   6.630 -0.4469  0.6092 -0.0815
  110MOL0     C14758   2.755   9.614   6.574 -0.4448  0.5572 -0.0558
  110MOL0     C14759   2.722   9.685   6.447 -0.2386 -0.7798 -0.2941
  110MOL0    Cl14760   2.545   9.635   6.396  0.0757 -0.4656  0.1424
  110MOL0     C14761   3.607   9.268   6.284  0.0442 -0.1573 -0.2243
  110MOL0     C14762   3.737   9.223   6.234 -0.0010 -1.1095 -0.4615
  110MOL0     O14763   4.079   9.435   6.148  0.5141  0.1607 -0.0427
  110MOL0     C14764   4.240   9.147   6.282  0.2680 -0.3377 -0.0315
  110MOL0     C14765   4.355   9.078   6.290 -0.2483 -0.0232  0.2232
  110MOL0     N14766   4.997   8.766   6.458 -0.3181  0.0099  0.3479
  110MOL0     N14767   5.089   8.740   6.548  0.2925  0.0219  0.0119
  110MOL0     C14768   6.172   8.195   6.895  0.5727 -0.5040  0.5144
  110MOL0     C14769   6.275   8.106   6.953  0.3239  0.2756 -0.6587
  110MOL0     C14770   6.616   7.967   7.154 -0.6520 -0.1743  0.6932
  110MOL0     C14771   6.590   7.856   7.233  0.3969 -0.0132  0.9309
  110MOL0     C14772   6.691   7.770   7.277  0.5514  0.6782 -0.2528
  110MOL0     C14773   6.819   7.781   7.224  0.6242  0.5900 -0.4640
  110MOL0     O14774   6.905   7.678   7.257  0.3493  0.0794  0.3608
  110MOL0     C14775   7.010   7.656   7.162 -0.4320 -1.1784 -0.0578
  110MOL0     C14776   7.116   7.570   7.233 -0.1341  0.6440 -0.1825
  110MOL0     C14777   7.232   7.542   7.136  0.1315  0.0210  0.2939
  110MOL0     C14778   7.199   7.482   6.996  0.6515  0.3364  0.8029
  110MOL0     C14779   7.316   7.416   6.939  0.2348  1.0431 -0.0795
  110MOL0     C14780   7.421   7.379   6.897 -0.2058  0.1369  0.0517
  110MOL0     C14781   6.842   7.884   7.130 -1.0238  0.3264 -0.3305
  110MOL0     C14782   6.747   7.980   7.105  0.5127 -0.1813  0.6884
  110MOL0     H14783   6.238   8.185   7.277  0.0288 -1.5239 -0.0041
  110MOL0     H14784   6.070   8.343   7.177  1.9334  3.6339 -1.9518
  110MOL0     H14785   6.184   8.499   6.848  0.8231  1.5516 -5.9642
  110MOL0     H14786   6.084   8.424   6.731  0.2975  3.8428 -2.1961
  110MOL0     H14787   5.966   8.618   6.928 -2.0386 -0.2489 -0.1892
  110MOL0     H14788   5.994   8.670   6.761 -2.8144 -0.5951 -0.8044
  110MOL0     H14789   5.846   8.444   6.713 -0.5879  0.2845 -0.8037
  110MOL0     H14790   5.789   8.493   6.870 -0.1371 -0.0849 -0.1482
  110MOL0     H14791   5.740   8.712   6.811  3.1780  1.1927 -0.7999
  110MOL0     H14792   5.818   8.700   6.650  0.3173 -0.9279 -0.6242
  110MOL0     H14793   5.622   8.546   6.569 -2.3771  0.0557 -1.3455
  110MOL0     H14794   5.572   8.553   6.741  1.0708 -1.2174 -1.1449
  110MOL0     H14795   5.525   8.790   6.734  1.8793 -0.7632  0.8840
  110MOL0     H14796   5.597   8.799   6.568  2.1264 -1.5066  0.7844
  110MOL0     H14797   5.426   8.694   6.470  0.1221 -3.9775  0.5014
  110MOL0     H14798   5.350   8.619   6.618 -2.1930  0.6810 -1.3315
  110MOL0     H14799   5.360   8.921   6.575 -1.1741  1.7543  0.5338
  110MOL0     H14800   5.277   8.831   6.701  0.9042  1.4455 -0.1607
  110MOL0     H14801   5.247   8.930   6.322 -0.3729  0.3417 -0.9414
  110MOL0     H14802   5.034   8.983   6.185 -0.4480  0.9011 -0.7737
  110MOL0     H14803   4.986   8.815   6.162 -0.5008 -0.7100  1.4836
  110MOL0     H14804   4.817   9.026   6.180 -1.1271 -4.2646 -3.7411
  110MOL0     H14805   4.830   9.000   6.357 -0.8005  3.6080 -1.8256
  110MOL0     H14806   4.761   8.755   6.294  1.8647 -0.9741 -3.0862
  110MOL0     H14807   4.730   8.817   6.137 -1.6815 -1.9625 -0.8238
  110MOL0     H14808   4.583   8.935   6.381 -2.7796  1.0567 -0.7697
  110MOL0     H14809   4.516   8.816   6.275  0.7059 -1.1916 -0.6382
  110MOL0     H14810   4.507   9.178   6.016  2.7117 -2.8354  2.4957
  110MOL0     H14811   4.363   9.306   5.871 -0.7550  1.2101 -0.9336
  110MOL0     H14812   4.199   9.360   5.924  0.2172  4.4051 -1.0245
  110MOL0     H14813   4.348   9.439   5.988 -0.9971 -0.6530 -0.2506
  110MOL0     H14814   3.904   9.521   6.289  2.9755 -3.0409 -0.1768
  110MOL0     H14815   3.664   9.599   6.315  0.7722  0.4020 -1.7968
  110MOL0     H14816   3.381   9.276   6.450  1.7890  0.5187 -1.8294
  110MOL0     H14817   3.443   9.393   6.569 -1.3239 -0.8168  0.3644
  110MOL0     H14818   3.182   9.410   6.428 -2.2712  0.7462  1.5828
  110MOL0     H14819   3.221   9.392   6.597 -0.7055 -0.2852  0.0199
  110MOL0     H14820   3.253   9.644   6.429  0.2176  0.1815  0.8002
  110MOL0     H14821   3.359   9.624   6.563 -0.6783  3.1926 -0.1370
  110MOL0     H14822   3.155   9.616   6.720 -0.6236  0.2027  0.5350
  110MOL0     H14823   3.137   9.756   6.610 -1.8375  0.5038  3.2887
  110MOL0     H14824   3.006   9.480   6.579 -1.3787 -0.9863  2.0856
  110MOL0     H14825   3.011   9.605   6.459  1.5004  0.7953  0.9946
  110MOL0     H14826   2.894   9.646   6.739 -4.7921  2.5279  0.3702
  110MOL0     H14827   2.901   9.768   6.612 -3.2345  1.3959  2.7066
  110MOL0     H14828   2.678   9.632   6.649  2.0871  1.1479  2.5857
  110MOL0     H14829   2.752   9.506   6.558 -0.5033 -0.3978  4.8030
  110MOL0     H14830   2.794   9.662   6.368 -1.5189 -0.0282 -1.7146
  110MOL0     H14831   2.735   9.792   6.467  1.6293 -0.7266 -1.5281
  110MOL0     H14832   3.522   9.201   6.295 -0.5564  0.7038  0.4293
  110MOL0     H14833   3.746   9.119   6.207  0.4178 -0.7931 -1.6220
  110MOL0     H14834   4.162   9.137   6.357  0.2887 -1.1948 -0.1100
  110MOL0     H14835   4.381   9.018   6.377  2.5058 -0.4232 -0.7809
  110MOL0     H14836   6.153   8.189   6.788 -2.3866 -0.2813  0.9527
  110MOL0     H14837   6.336   8.039   6.892  1.6502  0.2137  0.6996
  110MOL0     H14838   6.491   7.844   7.275  0.0839  0.3207  0.2985
  110MOL0     H14839   6.669   7.694   7.351 -1.2979  1.7756  0.3999
  110MOL0     H14840   6.964   7.620   7.069  0.8835 -0.4683 -1.0071
  110MOL0     H14841   7.060   7.750   7.137  0.7270 -0.4697  4.0871
  110MOL0     H14842   7.067   7.476   7.264  3.0396  0.2211  4.5096
  110MOL0     H14843   7.158   7.607   7.327  0.6899 -0.9976  0.1369
  110MOL0     H14844   7.286   7.460   7.184 -1.8309  0.0962  2.8558
  110MOL0     H14845   7.298   7.629   7.128  1.0103 -0.7828 -1.8429
  110MOL0     H14846   7.138   7.542   6.927 -1.6892 -2.6277  0.0287
  110MOL0     H14847   7.124   7.403   7.008 -1.8110  2.5657  0.9844
  110MOL0     H14848   7.507   7.332   6.853  1.4808  2.1255  1.0405
  110MOL0     H14849   6.937   7.911   7.084 -0.9554 -3.1076 -2.5401
  110MOL0     H14850   6.779   8.068   7.051  1.2573  0.5938  2.3223
  111MOL0     O14851  10.616   2.634  11.208  0.2193 -0.1319 -0.5844
  111MOL0     C14852  10.714   2.609  11.281  0.2502 -0.4025 -0.0621
  111MOL0     O14853  10.714   2.542  11.408  0.2680  0.4514  0.0214
  111MOL0     C14854  10.601   2.472  11.432  0.0655 -0.6693 -0.2171
  111MOL0     C14855  10.479   2.541  11.467 -0.0351  0.0181 -0.7510
  111MOL0     C14856  10.368   2.460  11.504  0.7666  0.0247  0.3625
  111MOL0     C14857  10.366   2.323  11.495  0.6639  0.1220  0.8407
  111MOL0     O14858  10.258   2.238  11.515 -0.3147 -0.6197  0.0361
  111MOL0     C14859  10.131   2.290  11.550 -0.3488  0.0445 -0.1139
  111MOL0     C14860  10.031   2.178  11.565 -0.4060  0.2115  0.6333
  111MOL0     C14861   9.889   2.234  11.588 -0.2154 -0.3480  0.3440
  111MOL0     C14862   9.800   2.115  11.608 -0.4237 -0.3223  0.3299
  111MOL0     C14863   9.649   2.158  11.644  0.2421  0.0412  1.1156
  111MOL0     C14864   9.551   2.051  11.595  0.7378 -0.4626 -0.3585
  111MOL0     C14865   9.413   2.077  11.649  0.7611 -0.0106  0.1348
  111MOL0     C14866   9.352   2.211  11.616  0.2876 -0.2459  0.5750
  111MOL0     N14867   9.212   2.213  11.647  0.9140 -0.0897  0.7904
  111MOL0     C14868   9.116   2.235  11.552  1.5049 -0.1181 -1.0072
  111MOL0     C14869   9.003   2.254  11.623  0.6887 -0.3468 -0.1881
  111MOL0     C14870   8.865   2.291  11.570  0.4884  0.6588  0.8103
  111MOL0     C14871   8.759   2.185  11.614  0.8124 -0.1793  0.5125
  111MOL0     C14872   8.615   2.238  11.569  0.8764  0.4744 -0.7651
  111MOL0     C14873   8.499   2.157  11.628 -0.6488 -0.3295  0.4255
  111MOL0     O14874   8.385   2.158  11.549 -0.2491  0.3703  0.3069
  111MOL0     C14875   8.279   2.082  11.601  0.4548 -0.2036 -0.4593
  111MOL0     C14876   8.292   1.947  11.636 -0.8296 -0.3837 -0.3939
  111MOL0     C14877   8.194   1.866  11.693 -0.2175 -0.8570 -0.1350
  111MOL0     C14878   8.223   1.715  11.706  1.0277 -0.5008 -0.3237
  111MOL0     C14879   8.068   1.934  11.712  1.5731 -0.0946 -0.7989
  111MOL0     C14880   7.949   1.863  11.752  0.8320 -0.4570  0.1161
  111MOL0     O14881   7.829   1.889  11.677 -0.4006 -0.0941  0.1296
  111MOL0     C14882   7.707   1.898  11.741  0.6540 -0.7824  0.1576
  111MOL0     C14883   7.592   1.907  11.659  0.3245 -0.0116 -0.4945
  111MOL0     C14884   7.462   1.917  11.709  0.7019  0.6575  0.3576
  111MOL0     C14885   7.446   1.939  11.853  0.1282  0.3002  0.5100
  111MOL0     O14886   7.319   1.942  11.905  0.1308  0.5662 -0.3823
  111MOL0     C14887   7.293   2.067  11.969 -0.2151  0.2471  0.6586
  111MOL0     C14888   7.145   2.078  11.995 -0.2406  0.0233  0.2960
  111MOL0     C14889   7.129   2.155  12.128  0.3343  0.7683 -0.4722
  111MOL0     C14890   6.969   2.177  12.143 -1.0174  0.3653  0.3963
  111MOL0     C14891   6.932   2.249  12.270 -0.8596  0.1468  0.1872
  111MOL0     C14892   6.958   2.166  12.401  0.3021  1.0675 -0.1712
  111MOL0     C14893   6.886   2.223  12.532  0.6785 -0.0884 -0.0814
  111MOL0     C14894   6.966   2.201  12.665 -0.4418 -0.1278 -0.3998
  111MOL0    Cl14895   7.133   2.278  12.679 -0.0687 -0.0459  0.0091
  111MOL0     C14896   7.559   1.955  11.933  0.7865 -0.0988 -0.1310
  111MOL0     C14897   7.688   1.931  11.879 -0.0522 -0.0486  0.0305
  111MOL0     O14898   7.951   1.789  11.844 -0.0659  0.3938  0.5168
  111MOL0     C14899   8.055   2.073  11.683 -0.1377  0.4827  0.2058
  111MOL0     C14900   8.159   2.144  11.624  0.6485  0.0923  0.2369
  111MOL0     N14901   9.032   2.252  11.759 -0.6202  0.2564 -0.2559
  111MOL0     N14902   9.156   2.228  11.768 -0.1231  0.4065 -0.4712
  111MOL0     C14903  10.482   2.260  11.453 -1.0334 -0.3548 -0.2974
  111MOL0     C14904  10.601   2.335  11.427  0.0784 -0.5813 -0.6477
  111MOL0     C14905  10.848   2.647  11.235 -0.3586  0.7960  0.8005
  111MOL0     C14906  10.958   2.631  11.325  0.1489 -0.3543  0.0188
  111MOL0     C14907  11.086   2.646  11.273  0.0269 -0.5572  0.1317
  111MOL0     C14908  11.114   2.674  11.134 -0.1825 -0.3181 -0.6375
  111MOL0     O14909  11.239   2.664  11.099  0.2938  0.3104 -0.5448
  111MOL0     C14910  11.256   2.567  11.000  0.4179  0.9114  0.4196
  111MOL0     C14911  11.382   2.494  11.022 -0.5392 -0.3394  0.3033
  111MOL0     C14912  11.500   2.574  10.973  0.1640  0.0119 -0.4327
  111MOL0     C14913  11.637   2.526  11.020 -0.3847  0.0827  0.2860
  111MOL0     C14914  11.746   2.561  10.929 -0.8554 -0.2204  0.4021
  111MOL0     C14915  11.842   2.591  10.855  0.5415  0.2838  0.1178
  111MOL0     C14916  11.007   2.700  11.047 -0.4446  0.9899 -0.9201
  111MOL0     C14917  10.874   2.687  11.104  0.1371  0.2968 -0.1929
  111MOL0     H14918  10.470   2.649  11.481 -1.5579 -0.3093  1.3470
  111MOL0     H14919  10.275   2.512  11.524  0.0124 -1.7482  1.8095
  111MOL0     H14920  10.149   2.347  11.642  1.4806 -0.9141  0.1834
  111MOL0     H14921  10.105   2.362  11.472  1.5039 -1.2510 -2.0468
  111MOL0     H14922  10.025   2.116  11.475 -1.3782 -0.2172  0.9818
  111MOL0     H14923  10.067   2.117  11.648  0.7140  0.5983  0.4510
  111MOL0     H14924   9.887   2.291  11.682  4.6334  0.0298  0.4760
  111MOL0     H14925   9.840   2.279  11.501 -1.0141 -0.5233  0.6978
  111MOL0     H14926   9.793   2.045  11.524 -0.3075 -0.7607  0.6783
  111MOL0     H14927   9.839   2.052  11.689 -1.3611 -0.4314  0.7159
  111MOL0     H14928   9.642   2.170  11.752  0.3267  1.3131  0.9994
  111MOL0     H14929   9.630   2.259  11.604  0.2377 -1.3847 -3.0383
  111MOL0     H14930   9.545   2.051  11.486 -1.8929 -0.7516 -0.2764
  111MOL0     H14931   9.580   1.950  11.626 -0.1230  0.0618  2.4880
  111MOL0     H14932   9.345   2.001  11.607  1.7283 -0.4533 -0.6623
  111MOL0     H14933   9.410   2.069  11.758 -5.2594 -1.2460  0.2380
  111MOL0     H14934   9.362   2.224  11.508  0.3607 -2.7046  0.2322
  111MOL0     H14935   9.396   2.294  11.672  0.6441  0.1821 -0.3204
  111MOL0     H14936   9.116   2.241  11.444 -1.1458  2.2721 -0.9802
  111MOL0     H14937   8.834   2.390  11.605  1.6564  1.5253 -0.5043
  111MOL0     H14938   8.862   2.301  11.461 -0.1329  0.2534  0.7834
  111MOL0     H14939   8.752   2.170  11.722  2.0789 -0.5989  0.5499
  111MOL0     H14940   8.793   2.095  11.562  0.1663  0.8329 -1.7854
  111MOL0     H14941   8.619   2.232  11.460  6.0485 -0.2612 -0.8086
  111MOL0     H14942   8.604   2.342  11.602 -0.0615 -0.3898  1.8936
  111MOL0     H14943   8.471   2.197  11.726 -0.7790 -0.2086  0.3397
  111MOL0     H14944   8.524   2.051  11.641  0.1381 -0.2600 -0.4681
  111MOL0     H14945   8.385   1.902  11.604 -0.2206 -0.2463  1.0888
  111MOL0     H14946   8.130   1.657  11.711  1.0572 -0.7680 -2.1732
  111MOL0     H14947   8.271   1.681  11.614 -1.8111 -0.3602 -1.9618
  111MOL0     H14948   8.288   1.689  11.791  2.0878  0.8856 -0.6853
  111MOL0     H14949   7.608   1.909  11.552 -2.6375 -0.7986 -1.0322
  111MOL0     H14950   7.377   1.898  11.645  1.7991 -0.5814 -0.8022
  111MOL0     H14951   7.345   2.073  12.065  1.4020  0.2884 -0.1949
  111MOL0     H14952   7.326   2.153  11.912  1.4328 -0.8745 -0.1463
  111MOL0     H14953   7.100   2.140  11.918  0.9919 -0.2383 -0.6524
  111MOL0     H14954   7.097   1.980  12.010  0.3943  0.1329  3.9833
  111MOL0     H14955   7.171   2.256  12.126  1.2010  0.4321  0.2691
  111MOL0     H14956   7.176   2.100  12.210  1.7892 -2.2207 -3.0536
  111MOL0     H14957   6.935   2.239  12.059  0.5161 -1.4439 -1.7024
  111MOL0     H14958   6.914   2.083  12.133 -1.4941  0.3754  2.4901
  111MOL0     H14959   6.825   2.270  12.278 -0.7809  0.1227  1.5344
  111MOL0     H14960   6.976   2.349  12.269 -2.6240  0.9572  0.3973
  111MOL0     H14961   6.923   2.064  12.384  1.4923 -0.0190  3.1434
  111MOL0     H14962   7.065   2.155  12.417  0.6103  0.6111 -2.2694
  111MOL0     H14963   6.790   2.172  12.547 -0.3227  2.0545  1.1960
  111MOL0     H14964   6.859   2.329  12.531 -0.5501 -0.3852 -0.2612
  111MOL0     H14965   6.982   2.094  12.685 -0.9611 -0.1434 -0.0358
  111MOL0     H14966   6.905   2.240  12.747 -0.1631 -0.8580  0.1686
  111MOL0     H14967   7.544   1.963  12.041 -0.5021 -1.3639 -0.2018
  111MOL0     H14968   7.776   1.932  11.942 -0.2692  0.7829  0.3262
  111MOL0     H14969   7.963   2.127  11.705  0.7505  2.3387 -0.4218
  111MOL0     H14970   8.149   2.251  11.609  1.3490  0.0578 -0.5093
  111MOL0     H14971  10.480   2.152  11.438  1.7342 -0.6168  0.7344
  111MOL0     H14972  10.685   2.274  11.395  0.1723 -0.8894  0.1609
  111MOL0     H14973  10.945   2.613  11.431  0.5904 -1.7101 -0.1304
  111MOL0     H14974  11.169   2.630  11.341 -0.7799  0.4689  1.4162
  111MOL0     H14975  11.186   2.483  11.003  0.6891  0.5160 -2.0450
  111MOL0     H14976  11.255   2.602  10.896  1.7917 -1.4767 -0.4791
  111MOL0     H14977  11.384   2.393  10.981 -1.2712 -0.2483  0.0328
  111MOL0     H14978  11.399   2.484  11.130  2.3497  0.8939  0.0450
  111MOL0     H14979  11.479   2.677  11.004 -3.1038 -0.3412 -1.0836
  111MOL0     H14980  11.500   2.580  10.864 -0.9823  1.1776 -0.3910
  111MOL0     H14981  11.638   2.420  11.045 -0.7370  0.4746  2.0869
  111MOL0     H14982  11.645   2.576  11.117 -0.6110  0.8937 -0.1037
  111MOL0     H14983  11.921   2.613  10.786  2.1628  1.2036  2.1652
  111MOL0     H14984  11.029   2.716  10.942  3.1846  2.2179 -0.1089
  111MOL0     H14985  10.789   2.703  11.038 -0.2945  2.0618  0.7404
  112MOL0     O14986   2.523   3.463   4.249  0.7692 -0.6586  0.2430
  112MOL0     C14987   2.599   3.514   4.167 -0.6003 -0.4235  0.9369
  112MOL0     O14988   2.559   3.570   4.050  0.3027  0.0057  0.4044
  112MOL0     C14989   2.427   3.555   4.026 -0.7122  0.1270  0.3134
  112MOL0     C14990   2.360   3.443   3.979  0.4584  0.0179  0.3531
  112MOL0     C14991   2.230   3.449   3.946  0.0212  0.8697  0.4725
  112MOL0     C14992   2.154   3.568   3.954  0.0342  0.3927  0.0328
  112MOL0     O14993   2.022   3.590   3.927 -0.3984  0.3129  0.3305
  112MOL0     C14994   1.953   3.491   3.849  0.4246  0.3628 -0.5439
  112MOL0     C14995   1.839   3.424   3.938 -0.1567  0.3925 -0.6611
  112MOL0     C14996   1.909   3.348   4.058  0.5338 -0.3172  0.1774
  112MOL0     C14997   1.815   3.285   4.163  0.3487  0.2944  0.8390
  112MOL0     C14998   1.880   3.271   4.295 -0.4812  0.9403 -0.2582
  112MOL0     C14999   1.797   3.179   4.388  0.0849 -0.7884 -0.6362
  112MOL0     C15000   1.656   3.234   4.430 -0.4773 -0.0240  0.4506
  112MOL0     C15001   1.649   3.294   4.568 -1.2421 -0.1607 -0.2561
  112MOL0     N15002   1.507   3.320   4.610 -0.0620  0.4446 -0.3152
  112MOL0     C15003   1.482   3.356   4.741  0.0872  1.1743 -0.3602
  112MOL0     C15004   1.353   3.380   4.732 -0.6657  0.0569 -0.6183
  112MOL0     C15005   1.273   3.390   4.854 -0.1237 -0.2599  0.7974
  112MOL0     C15006   1.270   3.254   4.937 -0.4273 -0.1970  0.3621
  112MOL0     C15007   1.178   3.261   5.057 -0.3505 -0.1672  0.0414
  112MOL0     C15008   1.036   3.283   5.001  0.4429  0.1470 -0.0250
  112MOL0     O15009   0.954   3.205   5.082  0.2334 -0.6730 -0.4121
  112MOL0     C15010   0.821   3.200   5.058  0.2793  0.2631  0.4182
  112MOL0     C15011   0.748   3.134   5.155 -0.4394  0.1804 -0.2212
  112MOL0     C15012   0.609   3.112   5.143  0.8507 -0.9793 -0.2387
  112MOL0     C15013   0.526   3.047   5.249 -0.1415 -0.5919 -0.3209
  112MOL0     C15014   0.547   3.169   5.024  0.4397  0.0161  0.1516
  112MOL0     C15015   0.406   3.165   4.991 -0.4395  0.9666 -0.0457
  112MOL0     O15016   0.322   3.181   5.098  0.4274 -0.1077 -0.2466
  112MOL0     C15017   0.184   3.183   5.062 -0.4451 -0.6431  0.9556
  112MOL0     C15018   0.093   3.083   5.095  0.1718  1.4280  0.0514
  112MOL0     C15019  -0.042   3.075   5.058  0.7356  0.9262 -0.4936
  112MOL0     C15020  -0.096   3.184   4.996  0.8737 -1.5639 -0.0383
  112MOL0     O15021  -0.219   3.207   4.938  0.0289 -0.1610 -0.1968
  112MOL0     C15022  -0.298   3.093   4.918 -0.1110  0.0832  0.2421
  112MOL0     C15023  -0.414   3.100   5.015  0.4011  0.2174 -0.6282
  112MOL0     C15024  -0.496   2.964   5.009 -0.8527 -0.0008 -0.4914
  112MOL0     C15025  -0.637   2.983   4.953  0.1300  0.2431  0.7990
  112MOL0     C15026  -0.696   2.844   4.946  0.2924  0.2183 -0.3975
  112MOL0     C15027  -0.844   2.835   4.892 -0.5187  0.4114 -1.3733
  112MOL0     C15028  -0.938   2.880   5.000  0.4787  0.3175 -0.0160
  112MOL0     C15029  -1.084   2.879   4.949  0.5816  0.1347  0.3043
  112MOL0    Cl15030  -1.128   2.717   4.899  0.1250  0.3305  0.2684
  112MOL0     C15031  -0.016   3.292   4.966  0.7548 -0.2746 -0.0508
  112MOL0     C15032   0.121   3.287   5.001 -0.5943 -0.1720  0.2590
  112MOL0     O15033   0.376   3.144   4.870  0.2778 -0.7059 -0.5633
  112MOL0     C15034   0.625   3.240   4.938 -0.5130  0.1088 -0.3058
  112MOL0     C15035   0.757   3.249   4.940 -0.2250 -0.3132 -0.4861
  112MOL0     N15036   1.302   3.366   4.605  0.4751  0.1717 -0.4156
  112MOL0     N15037   1.400   3.325   4.530 -0.6055  0.0410 -0.0626
  112MOL0     C15038   2.219   3.681   4.005  0.2594 -0.0178 -0.1369
  112MOL0     C15039   2.355   3.673   4.039 -0.1772  0.5320  0.1894
  112MOL0     C15040   2.748   3.508   4.184  0.5318  0.2978  0.0500
  112MOL0     C15041   2.834   3.590   4.114  0.2751 -0.1113  0.8407
  112MOL0     C15042   2.968   3.593   4.151 -0.6273 -0.1385  0.1863
  112MOL0     C15043   3.021   3.503   4.251  0.4165 -0.5790  0.4673
  112MOL0     O15044   3.151   3.485   4.287  0.1704 -0.4386 -0.3366
  112MOL0     C15045   3.244   3.594   4.258 -0.1553 -0.2307 -0.4589
  112MOL0     C15046   3.369   3.560   4.350  0.4324  0.2986 -0.4732
  112MOL0     C15047   3.480   3.663   4.323  0.8284  0.3593  0.2461
  112MOL0     C15048   3.618   3.608   4.341 -0.0612  0.1329 -0.4938
  112MOL0     C15049   3.722   3.701   4.311  0.3771 -0.7645 -0.4445
  112MOL0     C15050   3.825   3.758   4.279 -0.5319  0.0772 -0.2448
  112MOL0     C15051   2.927   3.422   4.321  0.4116 -0.8759  0.2633
  112MOL0     C15052   2.788   3.431   4.295 -0.1831 -1.3796 -0.8472
  112MOL0     H15053   2.424   3.355   3.980 -1.5066 -1.4882  1.2632
  112MOL0     H15054   2.188   3.355   3.910  2.5658 -0.9206  1.8458
  112MOL0     H15055   1.917   3.544   3.760 -4.9760  0.9691  1.6483
  112MOL0     H15056   2.016   3.410   3.811 -1.6300 -2.3091  1.4397
  112MOL0     H15057   1.759   3.494   3.964  1.0927  3.7099 -4.6258
  112MOL0     H15058   1.783   3.351   3.878 -1.2098  0.5857  0.0599
  112MOL0     H15059   1.981   3.272   4.027  2.5300  1.1817  0.9326
  112MOL0     H15060   1.972   3.417   4.114 -0.5210 -0.8294  2.0568
  112MOL0     H15061   1.726   3.348   4.168  0.4499  0.3738  1.7740
  112MOL0     H15062   1.781   3.184   4.140  2.6210 -0.6917  1.5752
  112MOL0     H15063   1.983   3.235   4.291 -0.7372  0.2622 -1.2430
  112MOL0     H15064   1.880   3.369   4.342 -0.6271  0.1754  1.4092
  112MOL0     H15065   1.785   3.083   4.337  2.5012 -0.7609 -1.3894
  112MOL0     H15066   1.861   3.169   4.476 -0.3065  1.6286 -0.0094
  112MOL0     H15067   1.628   3.309   4.355  0.4649 -2.2207 -2.2903
  112MOL0     H15068   1.575   3.160   4.428  1.9666 -2.8942  0.4660
  112MOL0     H15069   1.719   3.379   4.570 -2.9540  1.3116  0.7811
  112MOL0     H15070   1.699   3.228   4.639  1.2280  0.4122 -1.3425
  112MOL0     H15071   1.551   3.361   4.826 -0.6876  1.3926  0.2666
  112MOL0     H15072   1.318   3.469   4.914  0.2280 -0.1628  0.4141
  112MOL0     H15073   1.173   3.426   4.831 -0.3437  0.8372  3.2010
  112MOL0     H15074   1.369   3.235   4.979  0.6451  0.4226 -1.7236
  112MOL0     H15075   1.226   3.181   4.868 -1.2376  2.9379 -2.7853
  112MOL0     H15076   1.209   3.342   5.123 -2.3451  0.4676  0.2734
  112MOL0     H15077   1.190   3.163   5.103  0.4171  0.0669  0.3508
  112MOL0     H15078   1.021   3.233   4.904 -2.6388 -2.9938  1.8330
  112MOL0     H15079   1.002   3.386   5.000 -0.7951 -0.2440 -0.9583
  112MOL0     H15080   0.803   3.084   5.234  0.7217 -1.8228 -2.1745
  112MOL0     H15081   0.469   2.963   5.208 -2.2568 -0.4397  2.0766
  112MOL0     H15082   0.597   3.011   5.325 -1.3320  0.3984  1.3167
  112MOL0     H15083   0.455   3.119   5.289  0.2195  0.0615 -0.8351
  112MOL0     H15084   0.132   2.995   5.145  0.4129  0.9113 -1.0092
  112MOL0     H15085  -0.088   2.981   5.089  0.8013  0.6945 -1.0720
  112MOL0     H15086  -0.331   3.096   4.814  1.5824 -1.2799 -0.4008
  112MOL0     H15087  -0.256   2.992   4.933  0.2846 -0.3190 -2.9430
  112MOL0     H15088  -0.375   3.123   5.114  0.1811  1.2330 -0.7663
  112MOL0     H15089  -0.485   3.178   4.985  0.7528  0.8428  0.1270
  112MOL0     H15090  -0.513   2.924   5.109 -1.5912 -0.1076 -0.6562
  112MOL0     H15091  -0.444   2.894   4.943 -0.0974  0.8029 -0.7642
  112MOL0     H15092  -0.698   3.037   5.026 -3.3475  1.6916 -2.8154
  112MOL0     H15093  -0.642   3.041   4.860  3.8805 -0.2807  0.0912
  112MOL0     H15094  -0.687   2.802   5.047  1.1837  0.1421 -0.5047
  112MOL0     H15095  -0.633   2.788   4.876  0.3334  1.8239 -1.6979
  112MOL0     H15096  -0.863   2.892   4.800  0.4897 -0.0324 -1.8649
  112MOL0     H15097  -0.861   2.730   4.865 -0.4208  0.8540 -3.3658
  112MOL0     H15098  -0.917   2.981   5.037 -0.0491  0.1604  0.7431
  112MOL0     H15099  -0.925   2.804   5.078 -0.3587  0.5628  0.3761
  112MOL0     H15100  -1.093   2.952   4.868  5.5267  0.3676 -0.3402
  112MOL0     H15101  -1.152   2.902   5.032 -1.3860 -3.5517 -0.0554
  112MOL0     H15102  -0.045   3.384   4.916 -3.1238 -0.6561  1.2054
  112MOL0     H15103   0.184   3.371   4.970  1.9407 -2.7504 -2.2041
  112MOL0     H15104   0.579   3.270   4.844 -0.2490 -0.6328 -0.6843
  112MOL0     H15105   0.817   3.275   4.853 -0.9695 -0.8017 -1.1479
  112MOL0     H15106   2.162   3.769   4.034  1.1553  1.3257 -2.2434
  112MOL0     H15107   2.390   3.769   4.076 -0.3014  0.4606  0.4968
  112MOL0     H15108   2.795   3.661   4.042 -1.0825  0.6656  2.2616
  112MOL0     H15109   3.031   3.671   4.110 -1.3310  1.4315  1.9484
  112MOL0     H15110   3.276   3.581   4.154  0.2886 -0.0422 -0.3480
  112MOL0     H15111   3.209   3.697   4.269  1.4586  0.2447  0.4846
  112MOL0     H15112   3.402   3.457   4.339 -0.7962 -0.2815  0.8740
  112MOL0     H15113   3.337   3.567   4.454 -0.2214 -1.3253 -0.5341
  112MOL0     H15114   3.466   3.747   4.392 -2.1036  2.3899 -2.5581
  112MOL0     H15115   3.468   3.700   4.221 -3.4387 -0.0754  0.4383
  112MOL0     H15116   3.627   3.524   4.272 -2.5408 -0.7084  0.0705
  112MOL0     H15117   3.626   3.585   4.448 -1.6546 -0.7777 -0.5284
  112MOL0     H15118   3.924   3.783   4.246 -1.2904  1.0583 -1.8792
  112MOL0     H15119   2.957   3.352   4.398 -0.2782 -3.0837 -1.3862
  112MOL0     H15120   2.715   3.383   4.359  0.1079 -0.4073  0.2390
  113MOL0     O15121  10.277   3.093   4.152 -0.3645 -0.9105 -0.0603
  113MOL0     C15122  10.371   3.014   4.191 -0.3041 -0.9993  0.8551
  113MOL0     O15123  10.356   2.895   4.248 -0.5635  0.0337  0.3400
  113MOL0     C15124  10.227   2.861   4.289  0.2153 -0.1627 -0.0247
  113MOL0     C15125  10.183   2.864   4.424 -1.3460 -0.0067  0.5789
  113MOL0     C15126  10.058   2.817   4.459  0.2377  0.3181 -0.0040
  113MOL0     C15127   9.973   2.758   4.366  0.7515  0.0349  0.9063
  113MOL0     O15128   9.832   2.725   4.383  0.0987 -0.3075  0.7151
  113MOL0     C15129   9.770   2.744   4.511 -0.3197 -0.0429 -0.1343
  113MOL0     C15130   9.631   2.687   4.522 -0.0081 -1.2606  0.1858
  113MOL0     C15131   9.622   2.540   4.531  0.7404 -0.0227 -0.1800
  113MOL0     C15132   9.488   2.486   4.586 -0.1284 -0.1971  0.8394
  113MOL0     C15133   9.495   2.328   4.612  0.4927 -0.5974  0.0147
  113MOL0     C15134   9.356   2.272   4.632  0.1455  0.9337  0.1703
  113MOL0     C15135   9.362   2.130   4.682  0.1394  0.3171  0.7446
  113MOL0     C15136   9.242   2.097   4.776  0.5882 -0.4067 -0.1216
  113MOL0     N15137   9.259   2.165   4.908  0.8617 -0.1761  1.0201
  113MOL0     C15138   9.354   2.146   5.002 -0.2425 -0.0610 -0.3713
  113MOL0     C15139   9.311   2.204   5.111 -0.5084 -0.3502 -0.6476
  113MOL0     C15140   9.365   2.216   5.255 -0.1755  0.3655  0.1402
  113MOL0     C15141   9.501   2.147   5.262 -0.1183  0.1997 -0.6958
  113MOL0     C15142   9.517   1.996   5.291  1.1820  0.1283 -0.0879
  113MOL0     C15143   9.501   1.964   5.437  0.4458  0.6491 -0.9523
  113MOL0     O15144   9.544   1.826   5.466 -0.4365 -0.1144 -0.0973
  113MOL0     C15145   9.465   1.714   5.445 -0.3272 -0.7418  0.5360
  113MOL0     C15146   9.526   1.591   5.461 -1.0505  1.0123  0.0901
  113MOL0     C15147   9.459   1.478   5.428  0.2248 -0.0155  0.1359
  113MOL0     C15148   9.541   1.343   5.423  0.6788  0.6541  0.3148
  113MOL0     C15149   9.321   1.482   5.396  0.1681 -0.0006 -1.0995
  113MOL0     C15150   9.226   1.368   5.372 -0.4781 -0.4176  0.2644
  113MOL0     O15151   9.095   1.398   5.345  0.4570 -0.3884 -0.7793
  113MOL0     C15152   8.999   1.307   5.316  0.3063 -0.4172  0.6977
  113MOL0     C15153   9.009   1.172   5.276 -0.1988 -0.1285  0.2965
  113MOL0     C15154   8.894   1.107   5.227 -0.1247  0.1716 -0.2440
  113MOL0     C15155   8.762   1.165   5.235 -0.1191  0.0984  0.0885
  113MOL0     O15156   8.651   1.097   5.197  0.7356  0.3518 -0.4443
  113MOL0     C15157   8.633   0.968   5.252 -0.2772  0.0255  0.2933
  113MOL0     C15158   8.499   0.924   5.215  0.1753 -0.1049  0.1170
  113MOL0     C15159   8.385   1.020   5.275  0.4676  1.1959 -0.4383
  113MOL0     C15160   8.328   0.975   5.409 -0.3156 -0.1719 -0.5752
  113MOL0     C15161   8.258   1.086   5.474  0.1042 -0.6186  0.2679
  113MOL0     C15162   8.194   1.057   5.603 -0.6461 -0.1065  1.4147
  113MOL0     C15163   8.076   1.156   5.624  0.5671 -0.2240  1.1290
  113MOL0     C15164   7.939   1.098   5.575 -0.1927 -0.5276  0.0365
  113MOL0    Cl15165   7.901   0.943   5.652 -0.0257  0.1426 -0.0231
  113MOL0     C15166   8.755   1.300   5.256  1.1245 -0.5762  0.0974
  113MOL0     C15167   8.868   1.366   5.292 -0.6174 -0.0210 -0.9376
  113MOL0     O15168   9.277   1.259   5.361 -0.4033  0.5484 -0.6990
  113MOL0     C15169   9.257   1.610   5.385  0.3066 -0.0367 -0.5343
  113MOL0     C15170   9.326   1.724   5.415  0.1275 -0.5699  0.7990
  113MOL0     N15171   9.188   2.269   5.088  0.1806 -0.1863  0.2469
  113MOL0     N15172   9.163   2.241   4.965  0.2399  0.5730 -0.1569
  113MOL0     C15173  10.006   2.751   4.231 -0.4180 -0.6911  0.2094
  113MOL0     C15174  10.135   2.804   4.197 -0.1859  0.0133 -0.1114
  113MOL0     C15175  10.507   3.066   4.190  0.5115  0.2067  0.1958
  113MOL0     C15176  10.533   3.208   4.192  1.0891 -0.2070  0.2799
  113MOL0     C15177  10.662   3.259   4.195  0.2735  0.5098  0.1695
  113MOL0     C15178  10.769   3.171   4.181  0.3464 -0.1459  0.5778
  113MOL0     O15179  10.900   3.215   4.170  0.4126  0.6727  0.3049
  113MOL0     C15180  10.923   3.336   4.096  0.0634 -0.8250 -0.1232
  113MOL0     C15181  11.073   3.374   4.111 -0.1852 -0.8662  0.5974
  113MOL0     C15182  11.117   3.483   4.009  0.5951  0.2499 -0.4001
  113MOL0     C15183  11.248   3.547   4.009  0.8350 -0.2756 -0.6048
  113MOL0     C15184  11.253   3.652   3.902  0.4124 -0.0786  0.5795
  113MOL0     C15185  11.253   3.736   3.817  0.4849 -0.4752 -0.2270
  113MOL0     C15186  10.748   3.030   4.175  1.6409  0.5206 -0.4801
  113MOL0     C15187  10.617   2.978   4.175  0.0013  0.1086 -0.0024
  113MOL0     H15188  10.246   2.906   4.502 -3.7960  0.2056  2.5426
  113MOL0     H15189  10.038   2.808   4.565  3.2419 -2.4592  0.4951
  113MOL0     H15190   9.831   2.710   4.595 -1.3895 -1.1787  0.2225
  113MOL0     H15191   9.759   2.851   4.527 -0.7167 -0.3300  1.7976
  113MOL0     H15192   9.584   2.729   4.611 -0.6213 -1.8370  0.1415
  113MOL0     H15193   9.582   2.735   4.437  1.8638  1.8063  0.6836
  113MOL0     H15194   9.625   2.493   4.432 -0.5074 -1.4181  0.4196
  113MOL0     H15195   9.700   2.507   4.600  1.1289  0.3242 -0.4465
  113MOL0     H15196   9.472   2.544   4.677 -0.7565  1.7077 -0.4146
  113MOL0     H15197   9.400   2.510   4.525  0.0711 -0.4715  0.4379
  113MOL0     H15198   9.534   2.271   4.528  0.3832 -2.3684  1.1174
  113MOL0     H15199   9.558   2.308   4.699 -0.7164 -2.2396  0.5582
  113MOL0     H15200   9.300   2.329   4.707 -1.0314  2.0005 -1.4638
  113MOL0     H15201   9.303   2.284   4.537  3.9450  2.0184 -2.0480
  113MOL0     H15202   9.347   2.064   4.596  2.1568  1.6335 -0.7154
  113MOL0     H15203   9.455   2.102   4.732 -1.3768  0.0017  3.6246
  113MOL0     H15204   9.240   1.989   4.790  0.8293 -0.6209 -1.6091
  113MOL0     H15205   9.148   2.130   4.733  0.5826 -0.8426 -0.4510
  113MOL0     H15206   9.446   2.091   4.983  2.2601  4.4320 -2.9107
  113MOL0     H15207   9.367   2.322   5.279 -1.0130  1.4237 -3.7298
  113MOL0     H15208   9.293   2.174   5.326 -0.0937  1.3741  0.8275
  113MOL0     H15209   9.550   2.207   5.340 -1.2114  0.6007 -0.3009
  113MOL0     H15210   9.556   2.174   5.171  0.6181  0.0448 -0.2994
  113MOL0     H15211   9.619   1.965   5.270  0.8590 -1.9636  1.1704
  113MOL0     H15212   9.448   1.941   5.225 -1.2173  2.4271  0.3305
  113MOL0     H15213   9.397   1.988   5.461  0.3927  0.0149 -0.5386
  113MOL0     H15214   9.553   2.041   5.496  0.1662  1.7908 -2.1415
  113MOL0     H15215   9.631   1.591   5.489 -1.2809  2.6758  1.1017
  113MOL0     H15216   9.557   1.298   5.324 -2.3211 -0.3316  0.1542
  113MOL0     H15217   9.632   1.348   5.483  0.8992  1.6613 -0.0894
  113MOL0     H15218   9.487   1.260   5.470 -1.5779  0.9542 -1.5462
  113MOL0     H15219   9.109   1.129   5.275 -0.9519 -2.0110 -1.8597
  113MOL0     H15220   8.908   1.006   5.190 -0.5762 -0.1708  0.4949
  113MOL0     H15221   8.705   0.899   5.208  0.3694  0.9661 -0.1744
  113MOL0     H15222   8.654   0.958   5.359  0.9368  0.4969  0.1247
  113MOL0     H15223   8.502   0.916   5.106  0.7759  4.3959 -0.3796
  113MOL0     H15224   8.475   0.822   5.248  3.1018 -0.8045  0.3160
  113MOL0     H15225   8.302   1.021   5.204  2.4127 -1.0087 -2.9364
  113MOL0     H15226   8.414   1.126   5.279 -1.2917  1.6753  0.8422
  113MOL0     H15227   8.261   0.889   5.399  1.2874 -1.3639 -1.6166
  113MOL0     H15228   8.405   0.953   5.483 -2.8232  1.5966  2.8204
  113MOL0     H15229   8.182   1.126   5.406 -0.0119  1.1135  1.3538
  113MOL0     H15230   8.325   1.171   5.490 -4.1393  3.3692 -0.6874
  113MOL0     H15231   8.159   0.954   5.608 -1.2429 -0.0062 -0.0939
  113MOL0     H15232   8.262   1.077   5.687  1.0423  0.7076 -0.0741
  113MOL0     H15233   8.092   1.254   5.578 -1.0990 -1.6061 -2.8885
  113MOL0     H15234   8.068   1.172   5.732 -0.4033  0.0533  1.0267
  113MOL0     H15235   7.943   1.083   5.467 -2.0280 -1.1299  0.0255
  113MOL0     H15236   7.851   1.162   5.587 -0.5896 -1.1313  0.3918
  113MOL0     H15237   8.657   1.343   5.238  0.2963 -1.6655  1.7932
  113MOL0     H15238   8.858   1.470   5.322  3.6725  0.3054 -0.0416
  113MOL0     H15239   9.155   1.604   5.350 -0.0141 -0.5113  0.4363
  113MOL0     H15240   9.266   1.808   5.383 -1.9862 -2.1590  0.4028
  113MOL0     H15241   9.948   2.698   4.156 -0.2381 -0.9689  0.2665
  113MOL0     H15242  10.167   2.796   4.094 -1.9546 -0.3829 -0.6651
  113MOL0     H15243  10.459   3.287   4.189  0.8667 -0.4030 -2.9596
  113MOL0     H15244  10.669   3.366   4.187  0.4630  0.6665  1.8990
  113MOL0     H15245  10.903   3.325   3.989 -1.6958  3.7681 -0.4994
  113MOL0     H15246  10.858   3.412   4.142 -1.2486 -0.5588 -2.2925
  113MOL0     H15247  11.128   3.280   4.107 -0.6970 -1.1641  0.6395
  113MOL0     H15248  11.085   3.418   4.211  1.7821 -2.4329  1.1341
  113MOL0     H15249  11.035   3.555   4.012 -0.5976 -1.0732 -0.1854
  113MOL0     H15250  11.116   3.427   3.915  1.3440 -0.3812 -0.0523
  113MOL0     H15251  11.313   3.467   3.972  0.4315 -1.0726  0.3773
  113MOL0     H15252  11.279   3.581   4.108  0.3690  1.2583 -0.9484
  113MOL0     H15253  11.268   3.803   3.735  1.3465  0.3693  0.5997
  113MOL0     H15254  10.830   2.959   4.173  0.3822 -0.9652 -2.9620
  113MOL0     H15255  10.595   2.872   4.161 -0.2710  0.1453  0.1411
  114MOL0     O15256  10.446   6.795   3.416  0.3244 -0.4350  0.1086
  114MOL0     C15257  10.440   6.706   3.331  0.4099 -0.8513 -0.1114
  114MOL0     O15258  10.335   6.643   3.276 -0.4865 -0.2003 -0.0370
  114MOL0     C15259  10.213   6.673   3.332 -0.6571  0.4680  0.0773
  114MOL0     C15260  10.139   6.785   3.278  0.1100  0.8784 -0.5287
  114MOL0     C15261  10.012   6.804   3.327  0.2306 -0.6191  0.0208
  114MOL0     C15262   9.968   6.726   3.432  0.4540 -0.1016 -0.5190
  114MOL0     O15263   9.838   6.752   3.480 -0.1539  0.0009 -0.8918
  114MOL0     C15264   9.845   6.797   3.620 -0.4932  0.1177 -0.7375
  114MOL0     C15265   9.736   6.901   3.634  0.4699  0.8900 -0.4013
  114MOL0     C15266   9.608   6.831   3.601 -0.4121  0.2185  0.7494
  114MOL0     C15267   9.491   6.922   3.648  0.7977  0.5151  0.7517
  114MOL0     C15268   9.358   6.842   3.660  0.3104 -0.8114 -0.0071
  114MOL0     C15269   9.260   6.923   3.740 -0.3976 -0.2575 -0.4127
  114MOL0     C15270   9.128   6.854   3.740  0.2217 -0.0626  0.0145
  114MOL0     C15271   9.062   6.831   3.600  0.0924 -0.0089  0.5042
  114MOL0     N15272   8.918   6.783   3.608 -0.0622 -0.6379  0.0496
  114MOL0     C15273   8.897   6.657   3.644  0.3540 -0.2160  0.8283
  114MOL0     C15274   8.770   6.631   3.609 -0.3581  0.5979 -0.1172
  114MOL0     C15275   8.692   6.498   3.605 -0.4478 -0.3823 -0.5590
  114MOL0     C15276   8.708   6.430   3.738 -0.8549  0.6612  0.1863
  114MOL0     C15277   8.613   6.318   3.752 -0.7305  0.2637 -0.1547
  114MOL0     C15278   8.467   6.358   3.752  0.1459  0.5334 -0.5515
  114MOL0     O15279   8.395   6.328   3.629 -0.0349  0.0570  0.1766
  114MOL0     C15280   8.259   6.346   3.633  0.2104 -1.1910 -0.0565
  114MOL0     C15281   8.174   6.404   3.734  0.0559 -1.0859  0.4118
  114MOL0     C15282   8.039   6.413   3.721 -0.2863 -0.7093  0.4859
  114MOL0     C15283   7.950   6.464   3.834 -0.0847  0.1095  0.1495
  114MOL0     C15284   7.978   6.363   3.610 -0.0642 -0.0805 -0.2856
  114MOL0     C15285   7.834   6.354   3.585  0.2000 -0.0111 -1.0910
  114MOL0     O15286   7.798   6.230   3.547 -0.5365 -0.0792  0.2798
  114MOL0     C15287   7.677   6.193   3.508 -0.7076 -0.5729 -0.3922
  114MOL0     C15288   7.607   6.271   3.414  0.1154 -0.1726 -0.9195
  114MOL0     C15289   7.473   6.236   3.370 -0.5230  1.1996 -0.3310
  114MOL0     C15290   7.408   6.118   3.415  0.5329 -0.0523 -0.7896
  114MOL0     O15291   7.281   6.080   3.387 -0.3027  0.0323 -0.8070
  114MOL0     C15292   7.206   6.159   3.298 -0.0346 -0.3989  0.0044
  114MOL0     C15293   7.068   6.114   3.263 -0.6776 -0.5621  0.8533
  114MOL0     C15294   6.974   6.086   3.382 -0.0263 -0.3586  0.3744
  114MOL0     C15295   6.829   6.045   3.334  0.1629 -0.0519  0.4262
  114MOL0     C15296   6.722   6.034   3.449 -0.8259 -0.1838  0.8580
  114MOL0     C15297   6.659   6.168   3.482  0.0957  0.3244 -0.3310
  114MOL0     C15298   6.534   6.162   3.576 -0.4286 -0.0756  0.0629
  114MOL0     C15299   6.444   6.293   3.576 -0.6514 -1.0034 -0.5195
  114MOL0    Cl15300   6.293   6.263   3.666 -0.2682 -0.3833 -0.3852
  114MOL0     C15301   7.488   6.036   3.508  0.6856  0.0736  0.1442
  114MOL0     C15302   7.617   6.079   3.553 -0.5963 -0.4122 -0.9667
  114MOL0     O15303   7.753   6.443   3.614 -0.2126 -0.1946  0.1789
  114MOL0     C15304   8.051   6.297   3.514  0.3032  0.7419  0.1591
  114MOL0     C15305   8.192   6.300   3.520  0.6762  0.3620  0.2838
  114MOL0     N15306   8.718   6.743   3.562  0.4638 -0.7301 -0.0735
  114MOL0     N15307   8.810   6.836   3.550  0.8268 -0.4178  0.2151
  114MOL0     C15308  10.044   6.628   3.493 -0.0006 -0.1136 -0.0986
  114MOL0     C15309  10.161   6.600   3.439 -0.0057  0.9828  0.7022
  114MOL0     C15310  10.566   6.673   3.260  0.5725  0.2041 -0.0091
  114MOL0     C15311  10.574   6.570   3.167  0.1515  0.2382 -0.6371
  114MOL0     C15312  10.687   6.538   3.097 -0.3412  0.5773  0.4051
  114MOL0     C15313  10.806   6.614   3.116 -0.2948 -0.0084 -0.2463
  114MOL0     O15314  10.919   6.601   3.043 -0.1365 -0.2134 -0.0498
  114MOL0     C15315  11.052   6.634   3.088 -0.6984  0.4355  0.6951
  114MOL0     C15316  11.158   6.582   2.998  0.0054  0.8311 -0.6375
  114MOL0     C15317  11.292   6.624   3.046  0.1714 -0.0421 -0.2309
  114MOL0     C15318  11.399   6.607   2.946 -0.4872 -0.0361 -0.0287
  114MOL0     C15319  11.537   6.644   2.987 -0.4333 -0.5599 -0.9654
  114MOL0     C15320  11.644   6.684   3.021  0.5753 -0.2638  0.9288
  114MOL0     C15321  10.801   6.706   3.219  0.7737  0.5521  0.1826
  114MOL0     C15322  10.685   6.743   3.289 -0.2816  0.3616  0.4374
  114MOL0     H15323  10.177   6.843   3.194 -0.6430 -2.4062 -3.3521
  114MOL0     H15324   9.940   6.877   3.291  1.6214  0.8386  0.0815
  114MOL0     H15325   9.831   6.714   3.689 -2.4415  2.0303  1.3457
  114MOL0     H15326   9.942   6.842   3.643 -0.0138 -0.6265 -1.2820
  114MOL0     H15327   9.727   6.937   3.737 -3.3454 -2.0133  0.5180
  114MOL0     H15328   9.745   6.988   3.568 -3.5885  1.7658 -0.0288
  114MOL0     H15329   9.588   6.814   3.494 -0.3614 -1.5332  0.9907
  114MOL0     H15330   9.610   6.733   3.650  2.4883 -0.2508 -0.1259
  114MOL0     H15331   9.519   6.958   3.747 -0.9308 -0.9573  1.8543
  114MOL0     H15332   9.466   7.002   3.578 -0.2112 -2.0932 -2.1449
  114MOL0     H15333   9.320   6.832   3.558 -1.3530 -0.1107  0.4957
  114MOL0     H15334   9.357   6.743   3.706 -1.5201 -1.6417 -1.6575
  114MOL0     H15335   9.290   6.936   3.845  0.0774 -2.8815 -0.1471
  114MOL0     H15336   9.260   7.019   3.687  1.8734  0.5957  0.9748
  114MOL0     H15337   9.134   6.763   3.802 -0.9415  0.7996  1.4786
  114MOL0     H15338   9.052   6.919   3.785 -0.0044 -1.1603  1.2919
  114MOL0     H15339   9.113   6.752   3.545 -1.5133 -2.7164  2.6664
  114MOL0     H15340   9.062   6.928   3.548 -1.6072 -1.0361 -1.5843
  114MOL0     H15341   8.974   6.583   3.664 -1.1498 -2.4237 -0.9463
  114MOL0     H15342   8.593   6.528   3.571  0.5750  2.2563 -1.4487
  114MOL0     H15343   8.745   6.430   3.538  1.2951 -2.2859  2.5224
  114MOL0     H15344   8.689   6.501   3.819  1.5515  0.1083  1.2927
  114MOL0     H15345   8.808   6.387   3.748 -0.1048  2.1163 -0.7169
  114MOL0     H15346   8.645   6.257   3.837  1.0213 -1.5233 -1.9796
  114MOL0     H15347   8.635   6.250   3.669  1.3668  2.2646 -1.3586
  114MOL0     H15348   8.462   6.464   3.777 -0.9221  0.4425 -0.3472
  114MOL0     H15349   8.426   6.302   3.837 -0.6549  2.2804  0.2647
  114MOL0     H15350   8.229   6.443   3.819  2.9456  0.4880 -1.9960
  114MOL0     H15351   7.880   6.384   3.860 -1.6639  1.2083 -0.5568
  114MOL0     H15352   8.001   6.503   3.922 -1.9981  0.7345  1.0278
  114MOL0     H15353   7.878   6.545   3.820  1.0798  1.4087  1.2602
  114MOL0     H15354   7.642   6.367   3.379 -3.4963  2.4040  1.7876
  114MOL0     H15355   7.444   6.314   3.300  2.8072  1.8017 -1.2371
  114MOL0     H15356   7.189   6.261   3.334 -1.5716 -0.7354  0.3033
  114MOL0     H15357   7.264   6.173   3.206 -0.2292  1.5088  0.1341
  114MOL0     H15358   7.025   6.184   3.191  3.2004 -0.2932 -1.4826
  114MOL0     H15359   7.076   6.022   3.206 -2.9022 -0.0270 -0.4768
  114MOL0     H15360   6.960   6.174   3.445  0.5218  2.2064 -2.7861
  114MOL0     H15361   7.022   6.006   3.440 -1.3074  0.2240  2.3271
  114MOL0     H15362   6.787   6.109   3.255  2.0129  0.4101 -0.2419
  114MOL0     H15363   6.844   5.942   3.303 -0.7693  0.0254 -0.3431
  114MOL0     H15364   6.772   5.982   3.530 -0.5651 -2.3831 -0.6363
  114MOL0     H15365   6.645   5.970   3.405 -0.5258  0.0476 -0.0321
  114MOL0     H15366   6.739   6.220   3.535  1.1849 -2.2170  0.6407
  114MOL0     H15367   6.631   6.214   3.386  1.4919  1.7436 -0.0996
  114MOL0     H15368   6.569   6.134   3.675 -2.4181 -1.9554  0.3200
  114MOL0     H15369   6.467   6.083   3.541 -0.2421 -0.6936  1.0600
  114MOL0     H15370   6.419   6.323   3.474  0.9410 -0.7580 -0.8772
  114MOL0     H15371   6.506   6.369   3.625 -0.8422  0.0357 -1.8166
  114MOL0     H15372   7.441   5.957   3.567 -0.9074  0.2066 -0.8915
  114MOL0     H15373   7.671   6.021   3.627  0.0852  0.2312 -0.9469
  114MOL0     H15374   8.007   6.243   3.431 -3.0895  1.5647  1.2543
  114MOL0     H15375   8.248   6.253   3.440 -1.5398  0.9494 -1.7103
  114MOL0     H15376  10.005   6.570   3.575  2.1167 -2.0007 -0.3550
  114MOL0     H15377  10.213   6.515   3.481  1.6705  0.9765 -1.2494
  114MOL0     H15378  10.480   6.516   3.165 -2.3704  4.1984  0.2904
  114MOL0     H15379  10.686   6.454   3.028  1.0925  1.8439 -1.2338
  114MOL0     H15380  11.064   6.743   3.090 -0.9784  0.4664  2.1846
  114MOL0     H15381  11.062   6.589   3.187 -0.8842 -0.8154  0.1691
  114MOL0     H15382  11.140   6.622   2.897  0.9170  1.4716 -0.5622
  114MOL0     H15383  11.153   6.473   2.996 -0.2931  0.7429  1.8968
  114MOL0     H15384  11.323   6.560   3.129 -0.6316  0.6326  0.6154
  114MOL0     H15385  11.283   6.729   3.078 -2.5519 -0.1027 -0.5710
  114MOL0     H15386  11.361   6.670   2.866 -0.4694  0.3439  0.2566
  114MOL0     H15387  11.404   6.508   2.900  3.0900  0.3458 -0.7244
  114MOL0     H15388  11.746   6.711   3.042  0.2065  0.6845  1.5605
  114MOL0     H15389  10.887   6.768   3.242  1.0878  0.6863 -1.2631
  114MOL0     H15390  10.688   6.809   3.375  0.3197 -0.7840  1.3173
  115MOL0     O15391   2.473   6.302   3.503  0.3072  0.2836  0.1115
  115MOL0     C15392   2.539   6.391   3.453 -0.8427 -0.7485  0.2786
  115MOL0     O15393   2.498   6.474   3.361 -0.5526  0.4205  0.5230
  115MOL0     C15394   2.366   6.520   3.362 -1.0905  0.6165  0.0679
  115MOL0     C15395   2.305   6.536   3.239  0.2775  0.2090 -0.0904
  115MOL0     C15396   2.169   6.572   3.237 -0.1723  0.1911  0.2092
  115MOL0     C15397   2.089   6.591   3.356 -0.1917 -0.0498  0.0415
  115MOL0     O15398   1.957   6.615   3.340 -0.5958 -0.4536  0.8116
  115MOL0     C15399   1.877   6.640   3.456  0.1495  0.7253  0.0747
  115MOL0     C15400   1.746   6.695   3.426 -0.0073 -0.1757 -0.1611
  115MOL0     C15401   1.757   6.824   3.340  0.2736 -0.0933  0.2009
  115MOL0     C15402   1.633   6.918   3.355 -0.1900 -0.1200 -0.2162
  115MOL0     C15403   1.640   7.029   3.243 -0.4444 -0.3820 -0.0455
  115MOL0     C15404   1.499   7.098   3.218 -0.6510  0.5379 -0.0149
  115MOL0     C15405   1.498   7.190   3.097 -1.1853  0.5764  0.2166
  115MOL0     C15406   1.367   7.270   3.095  0.3737  0.0181  0.1727
  115MOL0     N15407   1.259   7.187   3.037 -0.3311  0.1481 -0.3657
  115MOL0     C15408   1.251   7.129   2.910 -0.0580  0.2060 -0.8089
  115MOL0     C15409   1.143   7.059   2.918  0.1624  0.5406  0.4374
  115MOL0     C15410   1.097   6.969   2.806 -0.3979  0.3029  0.0961
  115MOL0     C15411   0.949   6.935   2.812  0.1683  0.4306  0.6105
  115MOL0     C15412   0.877   7.057   2.755  0.1820 -0.0666  0.0012
  115MOL0     C15413   0.723   7.032   2.758 -0.2897  0.3739 -0.8466
  115MOL0     O15414   0.677   7.070   2.888 -0.4299  0.0450 -0.4866
  115MOL0     C15415   0.538   7.069   2.902  0.4935 -0.0215  0.6482
  115MOL0     C15416   0.438   7.038   2.809 -0.0689 -0.4305  0.0315
  115MOL0     C15417   0.303   7.030   2.844  1.5243 -0.7583  0.0801
  115MOL0     C15418   0.206   6.994   2.737 -0.3831  0.3366 -0.1834
  115MOL0     C15419   0.256   7.052   2.982  0.0864  0.2182 -0.1742
  115MOL0     C15420   0.112   7.058   3.030  0.5175  0.3653 -0.1724
  115MOL0     O15421   0.087   7.109   3.152 -0.4272 -0.0489 -0.3618
  115MOL0     C15422  -0.043   7.122   3.198  0.1509 -0.1139 -0.2405
  115MOL0     C15423  -0.067   7.239   3.268  0.0823  0.5202 -0.0426
  115MOL0     C15424  -0.197   7.267   3.322 -1.2830  0.0961  0.3720
  115MOL0     C15425  -0.290   7.166   3.306 -0.0826 -0.7122  0.1134
  115MOL0     O15426  -0.416   7.172   3.365  0.6938 -0.5505 -0.1264
  115MOL0     C15427  -0.412   7.189   3.505  0.2079 -0.2566 -1.2468
  115MOL0     C15428  -0.540   7.119   3.561 -0.6630 -0.1151  0.5426
  115MOL0     C15429  -0.538   7.123   3.712  0.4313 -0.7019 -0.6283
  115MOL0     C15430  -0.587   7.260   3.759 -0.3998  0.2205  0.4355
  115MOL0     C15431  -0.740   7.282   3.738 -0.6420 -1.2329 -0.3653
  115MOL0     C15432  -0.753   7.431   3.716 -0.4223 -0.3330  0.1188
  115MOL0     C15433  -0.705   7.507   3.847 -0.4522 -0.0044 -0.0762
  115MOL0     C15434  -0.767   7.654   3.842 -0.4706 -1.2837 -0.0658
  115MOL0    Cl15435  -0.943   7.665   3.803  0.1642  0.0743 -0.5080
  115MOL0     C15436  -0.262   7.045   3.242 -0.1399  0.4562 -0.2925
  115MOL0     C15437  -0.136   7.018   3.184 -0.1548 -0.2445 -0.1384
  115MOL0     O15438   0.028   7.008   2.958  0.0048  0.2541 -0.2291
  115MOL0     C15439   0.358   7.076   3.074  0.5787  0.2398  0.5422
  115MOL0     C15440   0.491   7.084   3.031  0.3435 -0.4257  0.3343
  115MOL0     N15441   1.074   7.082   3.035 -0.7463 -0.1372 -0.5051
  115MOL0     N15442   1.147   7.152   3.113 -0.4744 -0.0204  0.4038
  115MOL0     C15443   2.161   6.581   3.475 -1.0651 -0.6073  0.1867
  115MOL0     C15444   2.293   6.541   3.475 -0.1456  0.5845  0.0163
  115MOL0     C15445   2.686   6.397   3.468 -0.4807  0.2393  0.6552
  115MOL0     C15446   2.777   6.475   3.390 -0.3766  0.2457  0.8476
  115MOL0     C15447   2.914   6.488   3.421  0.2746  0.7674  0.8919
  115MOL0     C15448   2.969   6.419   3.529 -0.3074 -0.1729  0.8741
  115MOL0     O15449   3.103   6.441   3.539  0.1630  0.3854 -0.3782
  115MOL0     C15450   3.188   6.373   3.634 -0.0454 -0.0385  0.9441
  115MOL0     C15451   3.291   6.482   3.697 -0.1299 -0.0878 -0.3224
  115MOL0     C15452   3.250   6.631   3.689  0.2344 -0.0838  0.3800
  115MOL0     C15453   3.359   6.727   3.754  0.3571  0.3837  0.1130
  115MOL0     C15454   3.503   6.703   3.731  0.7031 -0.2026 -0.4570
  115MOL0     C15455   3.626   6.673   3.726  0.1002  0.3829 -0.6403
  115MOL0     C15456   2.886   6.334   3.606 -0.8876  0.5224  0.8054
  115MOL0     C15457   2.752   6.325   3.574  0.2591 -0.6701  0.5398
  115MOL0     H15458   2.368   6.527   3.151 -0.6927  2.5739 -1.0895
  115MOL0     H15459   2.117   6.576   3.142 -0.7958  1.1886  0.5756
  115MOL0     H15460   1.868   6.546   3.511 -2.5498 -0.9107 -2.7961
  115MOL0     H15461   1.925   6.718   3.515  0.4727 -0.0985  0.9175
  115MOL0     H15462   1.685   6.616   3.382 -0.2925  0.1689 -0.3920
  115MOL0     H15463   1.693   6.716   3.520  2.5869  1.8479  0.9663
  115MOL0     H15464   1.843   6.887   3.364  0.7513 -0.3905 -0.7130
  115MOL0     H15465   1.771   6.803   3.234  0.2494  1.5468 -0.1540
  115MOL0     H15466   1.543   6.856   3.344  0.4964 -1.3238  0.7738
  115MOL0     H15467   1.628   6.963   3.454 -2.0093 -4.1627  1.7722
  115MOL0     H15468   1.715   7.100   3.278  0.0187 -2.0969  2.7329
  115MOL0     H15469   1.692   6.994   3.153 -0.4112 -2.0782  0.5845
  115MOL0     H15470   1.428   7.016   3.206 -1.9159  1.6946 -0.6556
  115MOL0     H15471   1.467   7.154   3.307 -1.1485 -2.4835  1.8401
  115MOL0     H15472   1.576   7.263   3.118 -0.1450 -0.6197  0.6261
  115MOL0     H15473   1.511   7.138   3.001  0.5910  2.0736 -0.4163
  115MOL0     H15474   1.368   7.361   3.035  0.5397  0.0577  0.2330
  115MOL0     H15475   1.340   7.294   3.198 -1.2696  1.7728 -0.6242
  115MOL0     H15476   1.325   7.125   2.830  0.9922  1.7517  0.0271
  115MOL0     H15477   1.147   7.000   2.714  0.9381 -0.0963  0.6706
  115MOL0     H15478   1.142   6.872   2.831  0.2070 -0.0922 -2.2672
  115MOL0     H15479   0.920   6.909   2.914 -0.3835  0.5319  0.4845
  115MOL0     H15480   0.928   6.846   2.752 -1.5050  1.0628  0.1957
  115MOL0     H15481   0.904   7.065   2.650 -2.6823 -3.8679 -1.2451
  115MOL0     H15482   0.902   7.144   2.817  1.3137  0.2899 -0.9342
  115MOL0     H15483   0.697   6.925   2.754 -2.6465  0.7568  1.4628
  115MOL0     H15484   0.684   7.086   2.671  1.5530  1.4066 -1.0843
  115MOL0     H15485   0.470   7.012   2.708 -0.5873  1.5965 -0.7128
  115MOL0     H15486   0.112   7.049   2.730 -0.5295  0.3137  1.3865
  115MOL0     H15487   0.265   7.008   2.646 -0.9258 -1.1030 -0.7912
  115MOL0     H15488   0.193   6.887   2.759 -0.5221  0.7329  1.8415
  115MOL0     H15489   0.008   7.316   3.283 -0.0035  0.8481 -1.1960
  115MOL0     H15490  -0.216   7.364   3.368 -0.6540 -0.2433  1.3691
  115MOL0     H15491  -0.322   7.154   3.558 -1.0689  0.1558  1.3331
  115MOL0     H15492  -0.423   7.292   3.540  2.0215  0.0254 -1.3862
  115MOL0     H15493  -0.629   7.161   3.514  0.0594 -1.2171 -1.9773
  115MOL0     H15494  -0.536   7.014   3.531 -0.4195  0.3245 -1.0492
  115MOL0     H15495  -0.440   7.088   3.747  0.9365 -1.9181 -3.0250
  115MOL0     H15496  -0.599   7.047   3.761  2.7662 -1.2870  1.6026
  115MOL0     H15497  -0.555   7.279   3.862 -0.6861 -0.1667  0.5977
  115MOL0     H15498  -0.529   7.337   3.708  1.8231 -0.0432  2.3698
  115MOL0     H15499  -0.788   7.246   3.830  0.0830  1.3271  1.1155
  115MOL0     H15500  -0.776   7.227   3.651 -0.1186 -2.8314  0.3924
  115MOL0     H15501  -0.696   7.463   3.628 -1.6818  0.0574 -0.5814
  115MOL0     H15502  -0.859   7.452   3.696 -0.2708  0.6768  0.3097
  115MOL0     H15503  -0.597   7.506   3.865 -0.8841 -1.9453  3.3025
  115MOL0     H15504  -0.744   7.454   3.935 -1.7771 -2.0070 -1.7724
  115MOL0     H15505  -0.718   7.720   3.771 -0.3478 -0.9899  0.2903
  115MOL0     H15506  -0.762   7.703   3.940 -0.5583 -0.1242 -0.6243
  115MOL0     H15507  -0.339   6.968   3.245  0.9324 -0.7172 -1.5357
  115MOL0     H15508  -0.111   6.922   3.141 -0.0569  0.2838 -1.2991
  115MOL0     H15509   0.345   7.084   3.181  1.3277 -1.9303  0.8421
  115MOL0     H15510   0.564   7.102   3.110  1.2030  1.8764 -0.8875
  115MOL0     H15511   2.118   6.598   3.573 -3.6769 -1.3264 -0.7521
  115MOL0     H15512   2.349   6.523   3.566 -0.7407  0.4166  0.3624
  115MOL0     H15513   2.751   6.526   3.298 -1.3451 -3.5710 -1.1950
  115MOL0     H15514   2.988   6.540   3.362  1.4381 -0.5449  1.1214
  115MOL0     H15515   3.128   6.325   3.712  1.1997 -2.0803  0.7360
  115MOL0     H15516   3.255   6.296   3.595 -1.3669 -2.3003  2.8711
  115MOL0     H15517   3.386   6.487   3.644 -0.2194 -0.2466 -0.4976
  115MOL0     H15518   3.313   6.453   3.800 -0.0269  1.5793  0.1547
  115MOL0     H15519   3.153   6.642   3.739  0.9844  1.5786  1.5846
  115MOL0     H15520   3.237   6.664   3.586 -1.1021  1.2434  0.9308
  115MOL0     H15521   3.347   6.702   3.860  0.6062  0.3596  0.1349
  115MOL0     H15522   3.327   6.830   3.738  0.9129  0.2020 -2.6208
  115MOL0     H15523   3.729   6.661   3.702  1.5322  0.9945  4.1249
  115MOL0     H15524   2.942   6.268   3.671  0.4654 -0.0222 -0.8161
  115MOL0     H15525   2.679   6.270   3.632 -0.0279 -2.0919 -1.1156
  116MOL0     O15526   1.151  11.047   0.939 -0.0825 -0.3140  0.3040
  116MOL0     C15527   1.189  10.941   0.983 -0.1404  0.3410  0.1464
  116MOL0     O15528   1.125  10.864   1.065  0.9652  0.0119  0.2952
  116MOL0     C15529   0.988  10.868   1.064  0.4224  0.6679 -0.2713
  116MOL0     C15530   0.913  10.750   1.051 -0.0958  0.4183 -0.3908
  116MOL0     C15531   0.775  10.759   1.064 -0.0992  0.1775 -0.4376
  116MOL0     C15532   0.711  10.881   1.079 -0.3594 -0.3737 -0.3227
  116MOL0     O15533   0.574  10.903   1.061 -0.1971  0.4033 -0.2722
  116MOL0     C15534   0.487  10.809   1.001 -0.1757  0.9683  0.5377
  116MOL0     C15535   0.361  10.888   0.973  0.2673  0.2961  0.0196
  116MOL0     C15536   0.377  11.008   0.881  0.5654 -0.3783 -0.3414
  116MOL0     C15537   0.242  11.043   0.816 -0.4566  0.3442  0.5892
  116MOL0     C15538   0.257  11.139   0.707  0.4519 -0.9040  0.1448
  116MOL0     C15539   0.123  11.148   0.633  0.6085  0.4157 -0.4473
  116MOL0     C15540   0.007  11.212   0.718 -0.1170  0.8718 -0.8708
  116MOL0     C15541  -0.123  11.137   0.701 -0.1795  0.5565  0.3121
  116MOL0     N15542  -0.129  11.011   0.784  0.3351 -1.0588 -0.1044
  116MOL0     C15543  -0.106  10.995   0.920 -0.9288 -0.8688  0.1058
  116MOL0     C15544  -0.055  10.865   0.930  0.0414 -1.2697 -0.5340
  116MOL0     C15545  -0.008  10.796   1.056 -0.7386 -0.0290 -0.4893
  116MOL0     C15546  -0.097  10.686   1.099 -0.0162  0.3806 -0.6020
  116MOL0     C15547  -0.250  10.724   1.127 -0.6902 -0.4705 -0.3384
  116MOL0     C15548  -0.263  10.822   1.248  0.9141  0.1088 -0.0027
  116MOL0     O15549  -0.375  10.908   1.235  0.1392  0.4509 -0.4424
  116MOL0     C15550  -0.500  10.855   1.202 -0.8971  1.0886 -0.3980
  116MOL0     C15551  -0.594  10.936   1.163  1.1156 -0.1500  0.3586
  116MOL0     C15552  -0.721  10.889   1.121  0.3983 -0.6429  0.5320
  116MOL0     C15553  -0.809  10.988   1.064  0.7886 -0.2632 -0.3505
  116MOL0     C15554  -0.761  10.753   1.129 -0.7840 -0.3442  0.5352
  116MOL0     C15555  -0.889  10.689   1.095 -0.5662 -0.2189  0.8331
  116MOL0     O15556  -0.899  10.550   1.111 -0.2330 -0.2232 -0.0741
  116MOL0     C15557  -0.999  10.486   1.036  0.1237 -0.4251 -0.3521
  116MOL0     C15558  -0.974  10.392   0.938 -0.8227 -0.4270  0.4426
  116MOL0     C15559  -1.078  10.305   0.889  1.0949 -0.2454 -0.2337
  116MOL0     C15560  -1.207  10.329   0.932 -0.3705  0.1053 -0.3738
  116MOL0     O15561  -1.302  10.249   0.878  0.1152  0.1218  0.0568
  116MOL0     C15562  -1.435  10.257   0.929 -0.2855  0.7733 -0.3897
  116MOL0     C15563  -1.505  10.133   0.863  0.2458 -0.4521 -0.4233
  116MOL0     C15564  -1.651  10.132   0.906 -0.4222  0.3324  0.2851
  116MOL0     C15565  -1.727  10.013   0.848  0.4808 -0.3412  0.0246
  116MOL0     C15566  -1.862  10.001   0.922 -1.0232 -0.0491 -0.2602
  116MOL0     C15567  -1.961   9.895   0.881 -0.7550  0.0884  0.0377
  116MOL0     C15568  -2.005   9.910   0.734 -0.2905  0.2248 -0.7162
  116MOL0     C15569  -2.053   9.780   0.671 -0.6103 -0.2771 -0.4185
  116MOL0    Cl15570  -1.930   9.658   0.635 -0.0883 -0.1388  0.0871
  116MOL0     C15571  -1.230  10.435   1.029 -0.6009 -0.2092 -0.1712
  116MOL0     C15572  -1.128  10.506   1.080  0.4812  0.6507 -0.6003
  116MOL0     O15573  -0.970  10.758   1.035 -0.0534  0.2881  0.3949
  116MOL0     C15574  -0.663  10.671   1.186  0.1378  0.6064 -0.6300
  116MOL0     C15575  -0.538  10.716   1.220  0.1124  0.5494  0.1940
  116MOL0     N15576  -0.052  10.802   0.808 -0.1352 -0.4810 -0.3244
  116MOL0     N15577  -0.111  10.889   0.724  0.0692 -0.7606  0.2057
  116MOL0     C15578   0.786  10.995   1.088  0.2669  0.4872 -0.9635
  116MOL0     C15579   0.921  10.990   1.091  0.3332 -0.2980  0.2384
  116MOL0     C15580   1.322  10.886   0.939  0.2230 -0.2041 -0.4195
  116MOL0     C15581   1.409  10.980   0.876  0.6466  0.2961 -0.5712
  116MOL0     C15582   1.529  10.941   0.824  0.9413 -0.0673  0.2019
  116MOL0     C15583   1.579  10.815   0.835 -0.1478  1.3178  0.5206
  116MOL0     O15584   1.693  10.769   0.782 -0.2512 -0.8085  0.2715
  116MOL0     C15585   1.792  10.858   0.718  0.0330  0.6044 -1.1335
  116MOL0     C15586   1.869  10.773   0.617 -0.4221  1.0217 -0.4491
  116MOL0     C15587   2.005  10.839   0.583  0.0924  0.7797  0.5880
  116MOL0     C15588   2.079  10.739   0.487 -0.0438 -0.0333  1.0163
  116MOL0     C15589   2.122  10.618   0.559  0.3071  0.3673 -0.3835
  116MOL0     C15590   2.164  10.515   0.607 -0.1470 -0.2312 -0.6696
  116MOL0     C15591   1.500  10.720   0.891 -0.2378  0.2635  0.0854
  116MOL0     C15592   1.371  10.750   0.946  0.7772  1.3337  0.8688
  116MOL0     H15593   0.946  10.649   1.031  0.1258 -0.0070  1.8178
  116MOL0     H15594   0.718  10.668   1.046  0.0676 -0.4821  2.0203
  116MOL0     H15595   0.533  10.780   0.906  3.2035  4.2936  0.9283
  116MOL0     H15596   0.472  10.727   1.071  1.6264  0.0353 -0.1162
  116MOL0     H15597   0.295  10.814   0.926 -2.0245  1.9098  0.5411
  116MOL0     H15598   0.318  10.916   1.069  1.2612  0.5504  0.3961
  116MOL0     H15599   0.411  11.097   0.936 -1.9494 -0.3003  1.2508
  116MOL0     H15600   0.442  10.984   0.796  1.3406  0.9802 -0.1686
  116MOL0     H15601   0.199  10.947   0.784  2.1134 -0.6317 -0.2033
  116MOL0     H15602   0.186  11.092   0.896 -2.5530 -1.0412  0.0757
  116MOL0     H15603   0.287  11.235   0.749  1.0291 -0.8179 -0.4478
  116MOL0     H15604   0.336  11.106   0.638 -0.5539 -0.7351 -1.1325
  116MOL0     H15605   0.155  11.214   0.552  0.9118  5.0807  3.0686
  116MOL0     H15606   0.100  11.044   0.611  2.7103 -0.4677  1.1632
  116MOL0     H15607   0.030  11.222   0.824 -3.3042  4.4735 -0.3213
  116MOL0     H15608   0.002  11.317   0.689  0.7098  0.6840 -1.7402
  116MOL0     H15609  -0.121  11.109   0.595  1.2890 -1.2635  0.7686
  116MOL0     H15610  -0.210  11.199   0.724 -1.1858 -0.9683  0.7955
  116MOL0     H15611  -0.107  11.070   0.998  0.5578 -0.0319 -0.6425
  116MOL0     H15612   0.086  10.750   1.024 -0.1624  0.8594 -0.1110
  116MOL0     H15613   0.016  10.862   1.139  3.3642 -1.7933 -0.0293
  116MOL0     H15614  -0.052  10.645   1.189  1.6792  2.4924 -0.3946
  116MOL0     H15615  -0.099  10.611   1.019 -3.8636  0.8294 -1.1223
  116MOL0     H15616  -0.291  10.627   1.156 -0.2448 -0.3687  0.6847
  116MOL0     H15617  -0.296  10.765   1.036 -0.6542 -1.1450 -0.6721
  116MOL0     H15618  -0.174  10.883   1.267  1.3135 -1.0557  2.1171
  116MOL0     H15619  -0.267  10.756   1.335 -4.3276  0.9634  0.7178
  116MOL0     H15620  -0.561  11.034   1.129 -0.2727 -0.6929 -2.9330
  116MOL0     H15621  -0.880  11.026   1.138 -0.8402  0.2890 -2.1384
  116MOL0     H15622  -0.746  11.071   1.029  0.0003  1.6296  2.3721
  116MOL0     H15623  -0.862  10.955   0.975 -1.4096 -1.8880  1.4599
  116MOL0     H15624  -0.872  10.375   0.906  0.3632 -0.3194  3.7678
  116MOL0     H15625  -1.054  10.230   0.815  0.9190 -0.2770 -0.2589
  116MOL0     H15626  -1.434  10.242   1.038 -0.0223  0.2501 -0.4629
  116MOL0     H15627  -1.474  10.357   0.909 -1.1179  0.0619 -2.6933
  116MOL0     H15628  -1.497  10.146   0.755 -0.4354  0.6207 -0.3666
  116MOL0     H15629  -1.451  10.044   0.895  0.6264  0.8098  2.8534
  116MOL0     H15630  -1.682  10.230   0.867  1.7531  0.9269 -0.0999
  116MOL0     H15631  -1.654  10.134   1.015 -2.2328  5.4327  0.4476
  116MOL0     H15632  -1.752  10.031   0.743 -2.0475 -2.3811  0.1935
  116MOL0     H15633  -1.665   9.923   0.843  2.0653  0.7376 -0.5147
  116MOL0     H15634  -1.899  10.104   0.921 -0.4568  0.2180  1.8007
  116MOL0     H15635  -1.836   9.982   1.026 -0.3865  0.9423 -0.2294
  116MOL0     H15636  -1.910   9.801   0.904  0.4148  0.2561 -1.6473
  116MOL0     H15637  -2.040   9.908   0.955  1.2088  1.8293  1.9703
  116MOL0     H15638  -1.918   9.948   0.679  2.2593 -0.9865  2.1623
  116MOL0     H15639  -2.083   9.984   0.717 -1.4472 -1.2140 -1.9967
  116MOL0     H15640  -2.097   9.819   0.579 -0.0175 -0.4225 -0.7684
  116MOL0     H15641  -2.120   9.731   0.742  1.3130 -1.8662  0.4280
  116MOL0     H15642  -1.328  10.451   1.072 -0.7894 -0.5698 -0.4665
  116MOL0     H15643  -1.159  10.572   1.160  1.0057 -0.2145  0.3361
  116MOL0     H15644  -0.689  10.567   1.204  0.5273  0.5198 -0.5618
  116MOL0     H15645  -0.473  10.644   1.267  1.6479  1.5854 -0.2653
  116MOL0     H15646   0.735  11.090   1.096  0.3538  0.4403  0.5385
  116MOL0     H15647   0.968  11.088   1.097  3.6063 -1.5788 -1.9277
  116MOL0     H15648   1.384  11.086   0.875 -0.7282  0.1266  2.6016
  116MOL0     H15649   1.591  11.015   0.774  0.5025  0.0713 -0.1391
  116MOL0     H15650   1.757  10.938   0.652  3.0261  0.2960 -3.2988
  116MOL0     H15651   1.861  10.906   0.788  0.5986  2.9683 -3.1798
  116MOL0     H15652   1.816  10.729   0.532 -0.6460 -0.2892  0.3331
  116MOL0     H15653   1.908  10.683   0.666 -0.3097  2.4216  2.2282
  116MOL0     H15654   2.062  10.864   0.673 -1.1644  2.0275  1.0741
  116MOL0     H15655   1.981  10.928   0.524  1.0785  0.5448 -0.1958
  116MOL0     H15656   2.171  10.783   0.450  1.1655 -2.7585  0.5832
  116MOL0     H15657   2.024  10.721   0.394 -2.2068  3.3427  1.4852
  116MOL0     H15658   2.208  10.426   0.646 -2.7651 -1.6492 -0.7197
  116MOL0     H15659   1.531  10.616   0.896 -1.3167 -0.0665  0.2340
  116MOL0     H15660   1.311  10.677   0.999  1.0475  0.1697 -0.3899
  117MOL0     O15661   9.391   7.641   4.741 -0.3550 -0.0129  0.2134
  117MOL0     C15662   9.397   7.590   4.852  0.0507 -0.5990 -0.7609
  117MOL0     O15663   9.294   7.576   4.941 -0.3102  0.1414 -0.4998
  117MOL0     C15664   9.183   7.650   4.912  0.0593 -0.2268  0.1863
  117MOL0     C15665   9.189   7.785   4.877 -0.4899  0.3864 -0.3492
  117MOL0     C15666   9.076   7.865   4.849  0.0420  0.6623  0.3897
  117MOL0     C15667   8.944   7.803   4.856 -0.3181 -0.4128 -0.5771
  117MOL0     O15668   8.830   7.875   4.826 -0.2407 -0.0345 -0.1507
  117MOL0     C15669   8.709   7.811   4.782 -0.9531  0.4647 -1.3711
  117MOL0     C15670   8.607   7.930   4.772 -0.0124  1.2519  0.5545
  117MOL0     C15671   8.463   7.895   4.764 -0.0795  0.2642 -0.6796
  117MOL0     C15672   8.372   8.012   4.757 -0.5901  0.1558  0.7198
  117MOL0     C15673   8.227   7.958   4.773 -0.0776 -0.0654 -0.9048
  117MOL0     C15674   8.128   8.078   4.747 -0.4263  0.7664  0.2042
  117MOL0     C15675   7.987   8.027   4.764  0.7170 -0.1909 -0.4743
  117MOL0     C15676   7.899   8.116   4.678 -0.0790  0.4619  0.8219
  117MOL0     N15677   7.759   8.082   4.704 -0.3360 -0.9520  0.1782
  117MOL0     C15678   7.680   7.999   4.623 -0.3135 -0.2780 -0.4971
  117MOL0     C15679   7.553   8.007   4.668 -0.3590  0.0830  0.6879
  117MOL0     C15680   7.439   7.923   4.626 -0.3228 -1.2628 -0.2818
  117MOL0     C15681   7.347   7.987   4.527  0.2691  0.3993 -0.2770
  117MOL0     C15682   7.249   7.882   4.480 -0.1485  0.1529 -0.1458
  117MOL0     C15683   7.105   7.934   4.427 -0.4499 -0.2144 -0.5620
  117MOL0     O15684   7.041   8.024   4.522 -0.0165  0.1605 -0.0982
  117MOL0     C15685   6.954   8.120   4.476 -0.2575  0.2213  0.1859
  117MOL0     C15686   6.933   8.234   4.556  0.2160  0.1527 -0.0549
  117MOL0     C15687   6.846   8.335   4.518 -0.7529  0.1300 -0.1561
  117MOL0     C15688   6.808   8.442   4.631  0.7496  0.2339  0.3837
  117MOL0     C15689   6.802   8.334   4.385 -0.0375 -0.5889  0.6337
  117MOL0     C15690   6.734   8.451   4.323 -0.0601 -0.2168  0.0232
  117MOL0     O15691   6.713   8.441   4.190  0.4709 -0.8162  0.6031
  117MOL0     C15692   6.610   8.525   4.142 -0.0920 -0.1440 -0.6671
  117MOL0     C15693   6.488   8.462   4.116  0.1594  0.1066 -0.1279
  117MOL0     C15694   6.375   8.534   4.069 -0.5526 -0.3223 -0.3925
  117MOL0     C15695   6.389   8.668   4.043  0.4210  0.2894  0.7433
  117MOL0     O15696   6.285   8.728   3.975  0.1191  0.1401 -0.0115
  117MOL0     C15697   6.241   8.860   4.018  0.1095 -0.4240  0.1003
  117MOL0     C15698   6.227   8.878   4.174  0.5948 -0.1698 -0.4478
  117MOL0     C15699   6.120   8.784   4.220 -0.5429  0.2925 -0.5704
  117MOL0     C15700   6.069   8.819   4.354 -0.5039 -0.2069 -0.1389
  117MOL0     C15701   5.978   8.722   4.418  0.2727 -0.1092 -0.0848
  117MOL0     C15702   5.878   8.665   4.318  0.0079 -0.0753 -0.4968
  117MOL0     C15703   5.762   8.584   4.374  0.3767 -0.9150  0.3096
  117MOL0     C15704   5.665   8.535   4.265 -0.5004  0.5100  0.0174
  117MOL0    Cl15705   5.501   8.489   4.324 -0.0828 -0.5635 -0.2634
  117MOL0     C15706   6.518   8.730   4.056  0.2670 -0.5815 -0.5500
  117MOL0     C15707   6.627   8.657   4.110  1.2524  0.4846 -0.3762
  117MOL0     O15708   6.706   8.547   4.388 -0.0623 -0.4844  0.0119
  117MOL0     C15709   6.809   8.210   4.313  0.1801 -0.8463  0.2026
  117MOL0     C15710   6.889   8.105   4.360  1.0604 -0.5787  0.7309
  117MOL0     N15711   7.560   8.100   4.765 -0.0555  0.4280 -0.0925
  117MOL0     N15712   7.674   8.155   4.781  0.9130 -0.3511 -0.1390
  117MOL0     C15713   8.938   7.675   4.892  0.2255  0.9928  0.0034
  117MOL0     C15714   9.056   7.585   4.913  0.0959 -1.0840 -0.5568
  117MOL0     C15715   9.521   7.521   4.883 -0.0274  0.4415  0.3911
  117MOL0     C15716   9.593   7.467   4.774  0.3818 -0.1039  0.4211
  117MOL0     C15717   9.714   7.392   4.796  0.3241  0.3702  0.4844
  117MOL0     C15718   9.760   7.373   4.928  0.2140 -0.4414  0.6408
  117MOL0     O15719   9.879   7.305   4.941  0.4590 -0.4641  0.1991
  117MOL0     C15720   9.996   7.391   4.947 -0.4719  0.0572  0.1703
  117MOL0     C15721  10.119   7.313   4.969  0.2678  0.2737 -0.0682
  117MOL0     C15722  10.141   7.199   4.868  0.0164  0.3135 -0.8333
  117MOL0     C15723  10.283   7.133   4.891  0.0866 -0.4818 -0.0372
  117MOL0     C15724  10.284   7.048   5.008 -0.6608 -0.0551 -0.8679
  117MOL0     C15725  10.274   6.984   5.112  0.0652 -0.2948 -0.1681
  117MOL0     C15726   9.693   7.427   5.032  0.2304  0.1530  0.0068
  117MOL0     C15727   9.570   7.499   5.011  0.7111 -0.6035 -0.0613
  117MOL0     H15728   9.290   7.824   4.883  0.8844 -3.0365  2.4373
  117MOL0     H15729   9.091   7.971   4.834  2.1242  0.2280 -0.9642
  117MOL0     H15730   8.725   7.770   4.682  2.4593 -0.8182 -0.4590
  117MOL0     H15731   8.674   7.729   4.846  1.4554 -1.2403 -2.0953
  117MOL0     H15732   8.615   7.997   4.858  0.8418  1.8460  0.0374
  117MOL0     H15733   8.632   7.970   4.673  0.5794 -0.5909 -0.0929
  117MOL0     H15734   8.431   7.837   4.678  1.7377  0.2879 -1.4107
  117MOL0     H15735   8.426   7.851   4.857 -3.0792  0.1258 -1.8244
  117MOL0     H15736   8.381   8.085   4.838  0.8118  1.2732 -0.3750
  117MOL0     H15737   8.386   8.071   4.665  1.6324  0.5217  1.2409
  117MOL0     H15738   8.203   7.879   4.701  0.9094  0.7387 -2.1679
  117MOL0     H15739   8.208   7.926   4.876 -2.6790  1.2027 -0.8980
  117MOL0     H15740   8.149   8.169   4.804 -0.5965 -0.3208  2.0849
  117MOL0     H15741   8.156   8.115   4.648  4.1673 -1.5508  0.3698
  117MOL0     H15742   7.975   7.927   4.722 -1.5967 -0.2698  0.2049
  117MOL0     H15743   7.953   8.043   4.867  0.0587 -0.0170 -0.7084
  117MOL0     H15744   7.928   8.120   4.572 -2.1610  2.0630  0.2507
  117MOL0     H15745   7.910   8.220   4.708  1.1557  0.6222 -0.0991
  117MOL0     H15746   7.718   7.927   4.551 -0.2892  0.1176 -0.8787
  117MOL0     H15747   7.476   7.827   4.589  0.7635 -0.4216 -1.4661
  117MOL0     H15748   7.383   7.893   4.715 -0.7813  1.5140  0.4537
  117MOL0     H15749   7.397   8.044   4.448 -0.1548  0.6717 -0.3577
  117MOL0     H15750   7.296   8.057   4.595  1.4813  0.8698  0.1748
  117MOL0     H15751   7.213   7.812   4.556 -2.7762 -0.6228 -1.9480
  117MOL0     H15752   7.292   7.819   4.402 -0.7736  1.0949 -1.3053
  117MOL0     H15753   7.047   7.844   4.407  2.1881 -3.2909  3.7630
  117MOL0     H15754   7.117   7.989   4.333  0.1666  1.9251  0.7157
  117MOL0     H15755   6.986   8.237   4.650  2.0372  0.4021 -1.0320
  117MOL0     H15756   6.841   8.542   4.600  1.6639 -0.3913 -0.7112
  117MOL0     H15757   6.699   8.441   4.636  0.7618 -0.6456  0.6537
  117MOL0     H15758   6.844   8.410   4.729  0.4237 -2.5457 -0.3123
  117MOL0     H15759   6.467   8.360   4.147 -2.7228 -0.0557 -2.2259
  117MOL0     H15760   6.278   8.486   4.054  0.0026 -1.3460 -0.8283
  117MOL0     H15761   6.306   8.938   3.977  0.5744 -0.5596  0.5616
  117MOL0     H15762   6.144   8.875   3.971  0.6958 -0.9712 -1.3404
  117MOL0     H15763   6.319   8.860   4.229  1.6988  1.3685 -1.7118
  117MOL0     H15764   6.207   8.984   4.192 -1.5435 -0.6294  0.2034
  117MOL0     H15765   6.154   8.681   4.231 -0.6286  0.0777 -2.1116
  117MOL0     H15766   6.043   8.794   4.143 -2.5189  1.6453  1.4326
  117MOL0     H15767   6.155   8.823   4.422 -0.0804 -0.9711 -0.6219
  117MOL0     H15768   6.030   8.921   4.351  1.9977  0.8434  0.4879
  117MOL0     H15769   5.908   8.782   4.477 -0.0910  0.3312 -0.9523
  117MOL0     H15770   6.032   8.646   4.476 -1.4976 -1.3578 -0.0015
  117MOL0     H15771   5.836   8.742   4.252  2.2832  1.9293  0.2538
  117MOL0     H15772   5.936   8.606   4.246  1.9756  1.3756 -0.1613
  117MOL0     H15773   5.705   8.659   4.429 -0.7525  0.8885 -3.0122
  117MOL0     H15774   5.800   8.513   4.448  1.7809 -0.1946  0.3051
  117MOL0     H15775   5.705   8.453   4.204 -0.1110  0.8965 -0.2507
  117MOL0     H15776   5.656   8.617   4.194  0.3765  0.8320  0.2631
  117MOL0     H15777   6.536   8.834   4.031  0.4203 -1.0702 -2.6094
  117MOL0     H15778   6.724   8.704   4.127  0.4819  1.5724  1.3182
  117MOL0     H15779   6.782   8.212   4.208  0.1901  0.4345  0.2128
  117MOL0     H15780   6.889   8.012   4.305  0.1013 -0.5839  0.7299
  117MOL0     H15781   8.842   7.629   4.911 -0.5862  2.4412 -0.4214
  117MOL0     H15782   9.030   7.483   4.935  0.6613 -0.8757  1.2214
  117MOL0     H15783   9.557   7.488   4.674 -0.5863  0.7992  0.9348
  117MOL0     H15784   9.777   7.356   4.715 -0.7255  1.3386 -0.7889
  117MOL0     H15785  10.008   7.454   4.859 -1.5390  0.8954  0.6083
  117MOL0     H15786   9.978   7.461   5.029 -0.0317  2.7326 -1.8661
  117MOL0     H15787  10.112   7.264   5.066 -2.8633  2.6970  1.1132
  117MOL0     H15788  10.202   7.382   4.983 -0.6146  1.5337 -0.8009
  117MOL0     H15789  10.138   7.251   4.772  1.6286  3.8781  0.8616
  117MOL0     H15790  10.071   7.117   4.883 -0.5518  0.9290 -0.0288
  117MOL0     H15791  10.356   7.212   4.908 -0.5412 -0.5283  4.1285
  117MOL0     H15792  10.310   7.076   4.802  2.7439 -0.9590  0.9862
  117MOL0     H15793  10.272   6.934   5.206 -1.7334 -1.7209 -0.8770
  117MOL0     H15794   9.735   7.399   5.128 -0.0482 -1.9785 -0.4425
  117MOL0     H15795   9.516   7.559   5.083 -1.0868 -0.6904 -1.2550
  118MOL0     O15796   5.911  11.314   6.830  0.2243 -0.2026  0.1871
  118MOL0     C15797   5.983  11.403   6.786 -0.0569  0.0279  0.3474
  118MOL0     O15798   5.945  11.533   6.771  0.6593  0.1429 -0.5484
  118MOL0     C15799   5.815  11.571   6.807 -0.2081  0.2576 -0.7696
  118MOL0     C15800   5.753  11.539   6.921  0.3404 -0.5661 -0.0649
  118MOL0     C15801   5.622  11.588   6.948 -0.4311 -0.2732 -0.0223
  118MOL0     C15802   5.561  11.675   6.857  0.7014 -0.0006  0.3125
  118MOL0     O15803   5.433  11.729   6.866 -0.8210  0.2347  0.3444
  118MOL0     C15804   5.347  11.668   6.955 -0.4935  0.4902 -0.2846
  118MOL0     C15805   5.298  11.524   6.933 -0.3751  0.5628 -0.3107
  118MOL0     C15806   5.214  11.467   7.056  0.0838  0.4907 -0.2418
  118MOL0     C15807   5.066  11.524   7.056 -0.0426 -0.4020  0.0564
  118MOL0     C15808   4.982  11.488   7.182  0.9473 -0.7401 -0.6287
  118MOL0     C15809   4.947  11.342   7.187 -0.1032  0.3010  0.7570
  118MOL0     C15810   4.845  11.301   7.290 -0.4101  1.0288  0.0187
  118MOL0     C15811   4.879  11.350   7.426  0.3614 -0.0718 -0.1276
  118MOL0     N15812   4.805  11.285   7.543 -0.1325 -0.6464  0.2200
  118MOL0     C15813   4.690  11.338   7.594  1.3206  0.5942 -0.6675
  118MOL0     C15814   4.645  11.239   7.688  0.8938  0.3521 -0.0760
  118MOL0     C15815   4.520  11.227   7.770  0.1145 -1.1201 -0.0503
  118MOL0     C15816   4.435  11.111   7.722 -0.5436 -0.5699  0.2541
  118MOL0     C15817   4.314  11.067   7.807 -0.0513 -0.4668 -0.3423
  118MOL0     C15818   4.260  10.933   7.763  0.0525 -0.0321 -0.4028
  118MOL0     O15819   4.173  10.956   7.656 -0.4212  0.3180  0.9862
  118MOL0     C15820   4.048  10.897   7.648 -0.4792  0.4794  0.3915
  118MOL0     C15821   3.946  10.978   7.612  0.3264 -0.3795 -0.2634
  118MOL0     C15822   3.818  10.928   7.615 -0.4713 -0.6848  0.1637
  118MOL0     C15823   3.709  11.023   7.586 -0.3545 -0.3265  0.3389
  118MOL0     C15824   3.796  10.789   7.653  0.6986 -0.7075  0.4803
  118MOL0     C15825   3.654  10.730   7.650  0.4182 -0.2543  0.2721
  118MOL0     O15826   3.635  10.624   7.737 -0.2341  0.5313  0.0309
  118MOL0     C15827   3.520  10.548   7.723 -0.0277  0.3104  0.2378
  118MOL0     C15828   3.548  10.420   7.666 -0.7986 -0.5662 -0.4033
  118MOL0     C15829   3.458  10.315   7.699 -0.4952  0.2583 -0.3376
  118MOL0     C15830   3.344  10.342   7.782  0.1043  0.2155  0.8537
  118MOL0     O15831   3.250  10.248   7.816  0.0939  0.0392  0.2164
  118MOL0     C15832   3.259  10.130   7.734 -0.7780  0.2173  1.1523
  118MOL0     C15833   3.165  10.022   7.780  0.1123 -0.0546  0.5525
  118MOL0     C15834   3.022  10.042   7.759 -1.1996  0.1779 -0.4401
  118MOL0     C15835   2.947  10.148   7.851 -0.0659  0.3931 -0.5401
  118MOL0     C15836   2.791  10.155   7.846  0.4172 -0.4971  0.3911
  118MOL0     C15837   2.740  10.025   7.912  0.8927  0.9722 -0.2131
  118MOL0     C15838   2.595   9.989   7.871 -0.3002 -0.1134 -0.5621
  118MOL0     C15839   2.509  10.102   7.906  0.1094  0.2330 -0.0390
  118MOL0    Cl15840   2.329  10.049   7.865 -0.3014  0.1352 -0.4143
  118MOL0     C15841   3.319  10.475   7.816  0.4736  0.3627  0.1445
  118MOL0     C15842   3.400  10.580   7.784 -0.9100 -0.7724 -0.2525
  118MOL0     O15843   3.572  10.761   7.570 -0.1656 -0.3610 -0.2202
  118MOL0     C15844   3.898  10.709   7.688 -0.1059 -0.1641 -0.1575
  118MOL0     C15845   4.027  10.760   7.688  0.3073  0.2090 -0.7718
  118MOL0     N15846   4.750  11.141   7.694 -0.0330 -0.0482 -0.0829
  118MOL0     N15847   4.840  11.169   7.606  0.2464 -1.3082 -0.7161
  118MOL0     C15848   5.614  11.707   6.739 -0.0169  0.1735 -0.4851
  118MOL0     C15849   5.746  11.661   6.714  0.5283  0.2965  0.4577
  118MOL0     C15850   6.103  11.365   6.716  0.0933  0.2553 -0.2567
  118MOL0     C15851   6.184  11.462   6.662 -0.4069 -0.8483 -0.1833
  118MOL0     C15852   6.303  11.434   6.588 -0.1205 -0.0710 -0.0459
  118MOL0     C15853   6.354  11.299   6.593 -0.1837 -0.0396 -0.8308
  118MOL0     O15854   6.479  11.256   6.553 -0.0067 -0.4133  0.1004
  118MOL0     C15855   6.587  11.350   6.536  0.2542 -1.2211  0.4186
  118MOL0     C15856   6.593  11.417   6.395 -0.2477 -0.5863  0.0965
  118MOL0     C15857   6.579  11.320   6.274  0.3673 -0.9188  0.8302
  118MOL0     C15858   6.693  11.211   6.271  0.2834 -0.8802  0.2461
  118MOL0     C15859   6.825  11.278   6.274 -0.2302  0.6874  0.3122
  118MOL0     C15860   6.934  11.332   6.263  0.5392  0.0796  0.1663
  118MOL0     C15861   6.278  11.207   6.661  0.2203 -0.3186  0.4806
  118MOL0     C15862   6.153  11.235   6.706 -0.2085  0.2404  0.1200
  118MOL0     H15863   5.799  11.473   6.994 -1.3077  2.1710  3.7526
  118MOL0     H15864   5.561  11.555   7.031  0.0091  0.1296  0.4660
  118MOL0     H15865   5.392  11.674   7.054  2.0657  0.9221 -1.3948
  118MOL0     H15866   5.255  11.727   6.950 -0.5467  0.3045 -2.1517
  118MOL0     H15867   5.242  11.525   6.839 -0.7826  2.5108 -0.0934
  118MOL0     H15868   5.382  11.458   6.911 -0.7349 -0.4779  1.2658
  118MOL0     H15869   5.210  11.358   7.042 -0.1652  0.7054 -2.1945
  118MOL0     H15870   5.253  11.489   7.156 -2.3871 -2.3251  1.5266
  118MOL0     H15871   5.066  11.633   7.043 -2.5126 -0.1712  1.4884
  118MOL0     H15872   5.009  11.490   6.970 -0.2885 -2.3137  0.9363
  118MOL0     H15873   5.032  11.516   7.275  0.8311 -0.4075 -0.6671
  118MOL0     H15874   4.890  11.546   7.185  1.0665 -0.5460  2.6536
  118MOL0     H15875   4.913  11.313   7.087  2.5860  1.2925 -0.5261
  118MOL0     H15876   5.036  11.278   7.186 -1.9874 -2.6444 -2.2392
  118MOL0     H15877   4.747  11.345   7.274  0.2399  1.5826 -3.2739
  118MOL0     H15878   4.834  11.192   7.287 -3.0234  1.2270  0.5115
  118MOL0     H15879   4.845  11.453   7.414 -0.9550 -0.4756 -0.0186
  118MOL0     H15880   4.987  11.348   7.442  0.6454  0.5820 -1.7650
  118MOL0     H15881   4.628  11.418   7.555 -2.2724 -0.0909  2.9951
  118MOL0     H15882   4.546  11.225   7.876 -1.1268 -3.0028  0.2810
  118MOL0     H15883   4.458  11.317   7.764  0.6947 -0.6567  0.7511
  118MOL0     H15884   4.500  11.027   7.699 -0.9932 -0.1410 -3.1251
  118MOL0     H15885   4.392  11.125   7.622  2.4038 -1.0724 -1.1905
  118MOL0     H15886   4.225  11.131   7.806 -2.1786 -3.2140  0.9947
  118MOL0     H15887   4.360  11.056   7.905 -1.5871  0.5854  0.5367
  118MOL0     H15888   4.211  10.879   7.845 -2.1882 -1.0825 -2.3184
  118MOL0     H15889   4.345  10.870   7.735 -0.2993  0.1949 -2.1296
  118MOL0     H15890   3.960  11.081   7.581 -2.6996 -0.3629 -2.0201
  118MOL0     H15891   3.658  11.001   7.492 -0.8597  0.7457  0.3486
  118MOL0     H15892   3.642  11.011   7.672 -1.5693 -0.3056 -0.5787
  118MOL0     H15893   3.737  11.129   7.591  2.2615 -0.8971 -0.7687
  118MOL0     H15894   3.638  10.399   7.610 -0.9024 -0.2413 -0.6967
  118MOL0     H15895   3.491  10.217   7.664  0.0596 -0.1026  1.1348
  118MOL0     H15896   3.234  10.151   7.629 -1.4727  0.6794  1.4090
  118MOL0     H15897   3.360  10.091   7.752 -0.5293  0.4629  0.3384
  118MOL0     H15898   3.189   9.928   7.729 -0.7026  0.7169 -1.3258
  118MOL0     H15899   3.165  10.010   7.889 -2.6714  1.4122  0.7957
  118MOL0     H15900   2.984   9.944   7.786  1.7984 -1.0446 -0.2140
  118MOL0     H15901   3.011  10.069   7.654  0.0237 -1.4493 -1.0285
  118MOL0     H15902   2.984  10.132   7.953  0.9618  0.9029 -0.8222
  118MOL0     H15903   2.982  10.247   7.823  0.9993  0.1587 -0.1032
  118MOL0     H15904   2.749  10.174   7.747  0.2576  1.0057  0.7241
  118MOL0     H15905   2.750  10.237   7.907  3.8756  1.2204  0.6764
  118MOL0     H15906   2.797   9.934   7.892  0.8309  0.8003  0.3781
  118MOL0     H15907   2.746  10.045   8.019  0.4957  0.7248 -0.1412
  118MOL0     H15908   2.553   9.920   7.945  0.3721  2.6492  2.6597
  118MOL0     H15909   2.576   9.959   7.768 -2.0915 -0.4921 -0.1527
  118MOL0     H15910   2.535  10.196   7.857 -1.2526  1.6777  1.8444
  118MOL0     H15911   2.517  10.118   8.014 -1.2431  1.6306 -0.1044
  118MOL0     H15912   3.224  10.488   7.866  0.0520 -0.5260 -0.4014
  118MOL0     H15913   3.379  10.684   7.807  0.3236  0.0138 -2.3933
  118MOL0     H15914   3.888  10.603   7.712 -0.6996  0.2851  1.7459
  118MOL0     H15915   4.110  10.694   7.710 -1.1583 -0.6782  2.9051
  118MOL0     H15916   5.564  11.774   6.669 -0.2344 -0.2088 -0.6985
  118MOL0     H15917   5.788  11.697   6.621 -1.6695 -0.5560 -0.9274
  118MOL0     H15918   6.166  11.568   6.672  1.6346  0.0870 -4.4048
  118MOL0     H15919   6.360  11.513   6.542  3.1776 -0.9602  2.1343
  118MOL0     H15920   6.588  11.428   6.612  1.3176 -0.1849 -0.6057
  118MOL0     H15921   6.683  11.300   6.555  1.1260  0.6352  1.0728
  118MOL0     H15922   6.689  11.469   6.389  0.3225 -1.7439 -2.7107
  118MOL0     H15923   6.513  11.492   6.390  1.7160  1.5194 -1.6858
  118MOL0     H15924   6.582  11.387   6.188 -1.4691 -0.8224  0.8086
  118MOL0     H15925   6.485  11.264   6.266 -0.3344  0.4515 -1.7844
  118MOL0     H15926   6.685  11.150   6.180 -1.0573  0.4709 -0.5958
  118MOL0     H15927   6.695  11.141   6.354  2.7274 -2.6254 -1.1799
  118MOL0     H15928   7.035  11.364   6.279  0.7323 -1.0797  1.4983
  118MOL0     H15929   6.322  11.108   6.655 -0.7899 -0.6812 -1.3658
  118MOL0     H15930   6.096  11.154   6.751 -1.1564  0.8032 -0.0270
  119MOL0     O15931   8.969   7.103  11.045  0.1517  0.0446  0.0654
  119MOL0     C15932   8.995   7.083  11.164 -0.9897 -0.3779  0.4045
  119MOL0     O15933   8.901   7.044  11.258 -0.4016 -0.1391 -0.0167
  119MOL0     C15934   8.775   7.015  11.210 -0.5030 -0.6617 -0.4721
  119MOL0     C15935   8.732   6.887  11.179  0.3131  0.2803 -0.1680
  119MOL0     C15936   8.603   6.864  11.124 -0.5895  0.5215 -0.7574
  119MOL0     C15937   8.513   6.970  11.106 -0.5005  0.6747  0.5546
  119MOL0     O15938   8.388   6.959  11.050 -0.2932  0.7329 -0.6653
  119MOL0     C15939   8.327   6.838  11.076 -1.1925 -0.0653 -0.0592
  119MOL0     C15940   8.179   6.872  11.095  0.3608  0.7365 -1.1191
  119MOL0     C15941   8.111   6.746  11.151  1.5762  0.5004  0.1436
  119MOL0     C15942   7.964   6.784  11.156 -0.0059 -0.2606 -0.3524
  119MOL0     C15943   7.869   6.704  11.245 -0.4825  0.9062  0.9402
  119MOL0     C15944   7.864   6.546  11.216  0.0290 -0.5306  0.0779
  119MOL0     C15945   7.766   6.460  11.277 -0.3050  0.2133 -0.6757
  119MOL0     C15946   7.785   6.322  11.224  0.3029 -0.5399  0.2119
  119MOL0     N15947   7.671   6.233  11.268  0.7129 -0.1307 -0.8894
  119MOL0     C15948   7.677   6.167  11.389  0.7116  0.4346  0.3159
  119MOL0     C15949   7.561   6.106  11.400 -0.2894 -0.4042 -0.1225
  119MOL0     C15950   7.511   6.026  11.519 -0.4133  0.6115 -0.7302
  119MOL0     C15951   7.388   6.083  11.594  0.7218 -0.5884  0.2342
  119MOL0     C15952   7.368   6.022  11.728 -0.1457 -0.4715  0.1227
  119MOL0     C15953   7.244   6.070  11.813 -0.7178  0.6143 -0.4840
  119MOL0     O15954   7.133   6.018  11.743 -0.5091 -0.4477  0.6281
  119MOL0     C15955   7.014   6.018  11.799 -0.1985  0.2069  0.4163
  119MOL0     C15956   6.925   5.929  11.746 -0.3669  0.0193  0.4409
  119MOL0     C15957   6.798   5.907  11.810 -0.7586  0.6840 -0.4094
  119MOL0     C15958   6.716   5.780  11.755 -0.0426 -0.2162  0.0625
  119MOL0     C15959   6.772   5.976  11.927 -0.3451 -0.0888  0.3676
  119MOL0     C15960   6.651   5.948  12.007 -0.6582 -1.4759  0.0844
  119MOL0     O15961   6.618   6.045  12.099  0.2449 -0.3680  0.0089
  119MOL0     C15962   6.487   6.058  12.140 -0.0057 -0.4498 -0.3085
  119MOL0     C15963   6.374   6.034  12.053 -0.2247 -0.4523  0.2836
  119MOL0     C15964   6.245   6.061  12.110  0.6894  0.6676  0.0144
  119MOL0     C15965   6.219   6.111  12.235 -1.1098 -0.2250 -0.1741
  119MOL0     O15966   6.089   6.130  12.283 -0.4124  0.2437 -0.1673
  119MOL0     C15967   6.062   6.049  12.400  0.7094  0.1963  0.2872
  119MOL0     C15968   5.921   6.010  12.427  0.7603 -0.6642  0.1467
  119MOL0     C15969   5.835   6.130  12.450 -0.0265  0.8972 -0.4415
  119MOL0     C15970   5.694   6.092  12.500  0.3816 -0.0819 -0.1703
  119MOL0     C15971   5.609   6.016  12.403  0.8204  0.4832 -0.0420
  119MOL0     C15972   5.459   6.027  12.439  0.2509 -0.3988 -0.2534
  119MOL0     C15973   5.432   5.969  12.580  0.5628  0.2534 -0.9646
  119MOL0     C15974   5.289   6.011  12.634 -0.3255  0.1981 -0.2519
  119MOL0    Cl15975   5.291   6.191  12.665  0.3055 -0.1056 -0.6912
  119MOL0     C15976   6.335   6.141  12.309  0.3425 -0.1151 -0.2518
  119MOL0     C15977   6.460   6.109  12.268  0.3371 -0.9383  0.4296
  119MOL0     O15978   6.589   5.850  11.984 -0.3796  0.3790 -0.4221
  119MOL0     C15979   6.863   6.071  11.975  0.1374  0.2524 -0.3856
  119MOL0     C15980   6.984   6.097  11.909  1.1586 -0.5735  0.0243
  119MOL0     N15981   7.486   6.132  11.289 -0.4251  0.1252 -0.3855
  119MOL0     N15982   7.547   6.221  11.212 -0.0456 -0.7346 -0.0351
  119MOL0     C15983   8.554   7.100  11.145  0.0194 -0.0414  0.0589
  119MOL0     C15984   8.683   7.122  11.197  0.1090  0.5532  0.2379
  119MOL0     C15985   9.139   7.091  11.208 -0.2469  0.7332 -0.3555
  119MOL0     C15986   9.243   7.084  11.116  0.4360 -0.3217 -0.3359
  119MOL0     C15987   9.372   7.078  11.161  0.3998  0.7315 -0.4877
  119MOL0     C15988   9.412   7.090  11.292  0.2272 -0.0442  0.0181
  119MOL0     O15989   9.543   7.088  11.316  0.6377 -0.3585 -0.3125
  119MOL0     C15990   9.591   6.961  11.359  0.0409 -0.0476  0.8303
  119MOL0     C15991   9.705   6.935  11.263 -0.5696  0.8709 -0.3641
  119MOL0     C15992   9.793   6.812  11.314 -0.5794 -0.3946 -0.3422
  119MOL0     C15993   9.918   6.787  11.231 -0.0093 -0.0881  0.8044
  119MOL0     C15994   9.907   6.791  11.085 -0.8926 -0.3021  0.4864
  119MOL0     C15995   9.896   6.795  10.961 -0.1690  0.3307 -0.0930
  119MOL0     C15996   9.316   7.118  11.391  0.6692  0.7542  0.4629
  119MOL0     C15997   9.181   7.126  11.345 -0.8022  0.1150  0.3743
  119MOL0     H15998   8.802   6.804  11.180 -0.2447 -0.4007 -3.9256
  119MOL0     H15999   8.588   6.763  11.086  0.9235  0.0280 -0.1228
  119MOL0     H16000   8.342   6.767  10.995  1.7108  2.1423 -1.6442
  119MOL0     H16001   8.374   6.794  11.165  2.6198 -0.8518 -2.2394
  119MOL0     H16002   8.166   6.943  11.176 -2.7046 -3.0059  2.0605
  119MOL0     H16003   8.133   6.904  11.001 -3.5679 -0.5588  0.1589
  119MOL0     H16004   8.118   6.664  11.079  0.1523  1.0068 -0.5848
  119MOL0     H16005   8.140   6.725  11.255 -0.2351  0.2631  0.6258
  119MOL0     H16006   7.956   6.880  11.208  2.0564 -1.9439  3.4267
  119MOL0     H16007   7.918   6.802  11.058 -2.9048  2.7297  1.3397
  119MOL0     H16008   7.893   6.727  11.349 -2.3503 -1.7327  2.0829
  119MOL0     H16009   7.767   6.738  11.222  0.7483  2.4933 -2.8971
  119MOL0     H16010   7.848   6.540  11.108 -1.0495 -1.2136  0.2645
  119MOL0     H16011   7.958   6.496  11.241 -0.1444 -0.3076  1.2525
  119MOL0     H16012   7.783   6.463  11.385 -0.7135  1.9156 -0.6385
  119MOL0     H16013   7.666   6.493  11.250 -0.6026  1.7219  1.9434
  119MOL0     H16014   7.883   6.283  11.254  2.1124  3.0949 -0.4896
  119MOL0     H16015   7.773   6.332  11.116 -0.6801  0.0005  0.3614
  119MOL0     H16016   7.757   6.164  11.462 -0.5212 -0.3165  1.6840
  119MOL0     H16017   7.499   5.924  11.482  2.5152 -0.2635  0.4800
  119MOL0     H16018   7.596   6.029  11.588 -1.1439  2.1576  0.1551
  119MOL0     H16019   7.299   6.081  11.530  1.7591  2.1408 -1.4703
  119MOL0     H16020   7.414   6.189  11.597 -1.9621  0.2823 -2.3407
  119MOL0     H16021   7.459   6.026  11.788  0.6713  2.5749 -1.0708
  119MOL0     H16022   7.349   5.919  11.697  1.6931 -0.3469 -1.7156
  119MOL0     H16023   7.247   6.179  11.818 -1.6191  0.5822  1.7037
  119MOL0     H16024   7.259   6.026  11.912  0.6294  0.1910 -0.8441
  119MOL0     H16025   6.948   5.877  11.654 -1.1261  0.2689  0.0990
  119MOL0     H16026   6.615   5.813  11.728 -0.3065 -0.5861  0.5804
  119MOL0     H16027   6.764   5.737  11.666 -0.4379  0.9207 -0.7242
  119MOL0     H16028   6.726   5.708  11.836 -2.6048  1.2219  1.7798
  119MOL0     H16029   6.393   6.004  11.950  0.8646  1.3910 -0.1050
  119MOL0     H16030   6.159   6.046  12.044  1.3588  0.1710 -0.7614
  119MOL0     H16031   6.116   5.954  12.400  0.2151 -0.3527  5.2507
  119MOL0     H16032   6.109   6.100  12.486  2.9485 -1.0847 -0.0943
  119MOL0     H16033   5.879   5.959  12.339 -5.0058  2.7903  0.3198
  119MOL0     H16034   5.918   5.940  12.511 -2.0475  0.4230  1.0643
  119MOL0     H16035   5.830   6.187  12.357  2.7976 -0.2024 -1.3773
  119MOL0     H16036   5.887   6.188  12.527 -0.7857  1.1776 -0.1231
  119MOL0     H16037   5.707   6.021  12.582  1.3072 -1.3702 -1.3960
  119MOL0     H16038   5.643   6.184  12.532  2.0183  0.3189  1.5043
  119MOL0     H16039   5.637   5.910  12.396 -0.7130 -0.1654  2.4309
  119MOL0     H16040   5.626   6.061  12.305  0.8221  1.2137  0.2899
  119MOL0     H16041   5.437   6.134  12.447 -1.2996 -0.8192  2.5212
  119MOL0     H16042   5.385   5.984  12.371  2.2545 -1.5916 -1.8041
  119MOL0     H16043   5.501   6.013  12.652  0.8414 -0.9297 -0.4728
  119MOL0     H16044   5.444   5.861  12.593  1.3644  0.6097  2.0195
  119MOL0     H16045   5.279   5.963  12.732  0.6046  1.0855  0.2959
  119MOL0     H16046   5.211   5.981  12.563  1.3826 -4.7877 -0.3646
  119MOL0     H16047   6.321   6.183  12.409  0.7442 -1.1358  0.2482
  119MOL0     H16048   6.542   6.137  12.333 -1.3663  1.4946  1.6357
  119MOL0     H16049   6.851   6.118  12.072  2.0965  2.1817 -0.9832
  119MOL0     H16050   7.049   6.176  11.946 -1.3758  1.4042  0.5162
  119MOL0     H16051   8.493   7.188  11.130  2.1454  1.2504 -1.5753
  119MOL0     H16052   8.718   7.222  11.221 -1.1080  1.0940 -0.1624
  119MOL0     H16053   9.214   7.084  11.011  0.8983  1.9329 -0.5047
  119MOL0     H16054   9.451   7.062  11.088  0.0737  0.4140 -0.7756
  119MOL0     H16055   9.638   6.968  11.458  0.6875  1.5335  0.4325
  119MOL0     H16056   9.513   6.884  11.361 -1.3993  1.3385  0.3398
  119MOL0     H16057   9.765   7.024  11.240  1.6595 -1.0826 -2.7660
  119MOL0     H16058   9.660   6.914  11.166  1.3314 -1.8368 -0.7733
  119MOL0     H16059   9.733   6.724  11.337 -0.8718  0.1027  0.9294
  119MOL0     H16060   9.834   6.836  11.413  0.1657  2.6411 -1.2567
  119MOL0     H16061   9.963   6.689  11.251  1.4372  0.3187 -0.2513
  119MOL0     H16062   9.993   6.861  11.259  0.2840 -0.3097  0.6045
  119MOL0     H16063   9.915   6.797  10.856  1.3637 -0.9739  0.1278
  119MOL0     H16064   9.348   7.126  11.494  0.5459  1.5119  0.4481
  119MOL0     H16065   9.121   7.144  11.433  0.3926  1.9533  0.8684
  120MOL0     O16066  11.310   1.041   9.940  0.5381  0.1755 -0.7160
  120MOL0     C16067  11.286   1.159   9.908 -0.3732 -0.0558  0.2554
  120MOL0     O16068  11.163   1.211   9.879  0.3720  0.0148 -0.6437
  120MOL0     C16069  11.039   1.144   9.892 -0.7977  0.3511  0.1512
  120MOL0     C16070  10.923   1.225   9.892  0.8438  0.0146 -0.0360
  120MOL0     C16071  10.790   1.173   9.887 -0.5218 -0.6736 -0.4010
  120MOL0     C16072  10.771   1.034   9.883 -0.0575 -0.3843 -0.0977
  120MOL0     O16073  10.648   0.975   9.887  0.9842  0.3032  0.7393
  120MOL0     C16074  10.528   1.044   9.854  0.0431 -0.5348 -0.9981
  120MOL0     C16075  10.406   0.950   9.861  0.6790  1.4187  0.3375
  120MOL0     C16076  10.381   0.910  10.002 -0.4428  0.5496 -0.6323
  120MOL0     C16077  10.273   0.806  10.018  0.6507 -1.0206 -0.0414
  120MOL0     C16078  10.137   0.873  10.003  0.3796 -0.2049  0.0139
  120MOL0     C16079  10.036   0.766  10.041  0.4778 -0.2556 -0.1314
  120MOL0     C16080   9.887   0.818  10.035 -0.6951 -0.4769 -0.5884
  120MOL0     C16081   9.784   0.725  10.091  0.7143 -1.0068 -0.1263
  120MOL0     N16082   9.812   0.586  10.050  0.5578 -0.8952  0.0474
  120MOL0     C16083   9.825   0.547   9.916  0.3317  0.5891  0.6549
  120MOL0     C16084   9.895   0.435   9.923 -0.9950 -0.2686 -0.9555
  120MOL0     C16085   9.939   0.354   9.806  0.1226  0.4157  0.6630
  120MOL0     C16086   9.830   0.256   9.758  0.4481 -0.2193 -0.6426
  120MOL0     C16087   9.780   0.159   9.860  0.2971  0.2022 -0.5784
  120MOL0     C16088   9.658   0.088   9.801 -0.2672  0.8040  0.0159
  120MOL0     O16089   9.549   0.182   9.769  0.3189 -0.2024  1.2991
  120MOL0     C16090   9.418   0.143   9.784  0.2381  0.1626 -0.8450
  120MOL0     C16091   9.330   0.223   9.715  0.2303 -0.6013  0.6478
  120MOL0     C16092   9.194   0.210   9.714  0.0972 -0.1915 -0.0216
  120MOL0     C16093   9.114   0.298   9.622 -0.0440 -0.0014  0.4587
  120MOL0     C16094   9.130   0.103   9.791  0.1043 -0.5794 -0.0876
  120MOL0     C16095   8.983   0.096   9.791  0.0966 -0.0600 -0.2603
  120MOL0     O16096   8.931  -0.013   9.858 -0.2044  0.0926  0.1075
  120MOL0     C16097   8.798  -0.046   9.845 -0.2327  0.0390 -0.0358
  120MOL0     C16098   8.714  -0.045   9.955 -0.4718  0.1187 -1.0534
  120MOL0     C16099   8.579  -0.081   9.944  0.0462 -0.7480  0.8607
  120MOL0     C16100   8.517  -0.120   9.825 -0.5521  0.3631 -0.1000
  120MOL0     O16101   8.388  -0.147   9.787 -0.1637 -0.2085 -1.0069
  120MOL0     C16102   8.296  -0.155   9.896  1.1388  0.5523  0.0746
  120MOL0     C16103   8.150  -0.138   9.862  0.1000  0.2557 -0.4603
  120MOL0     C16104   8.125  -0.090   9.716  0.9476  0.9442 -1.0114
  120MOL0     C16105   7.976  -0.073   9.709  0.3950 -0.3930  0.5547
  120MOL0     C16106   7.937   0.001   9.572  0.9887 -0.1760 -0.1377
  120MOL0     C16107   7.779   0.003   9.563  0.6321  0.3095  0.4234
  120MOL0     C16108   7.729   0.045   9.427 -0.4095 -1.0438 -0.2972
  120MOL0     C16109   7.594   0.118   9.431 -1.2159  0.0711  0.2981
  120MOL0    Cl16110   7.460   0.018   9.513  0.3028  0.4722 -0.0443
  120MOL0     C16111   8.611  -0.124   9.719  0.7190  0.8390 -0.6691
  120MOL0     C16112   8.747  -0.087   9.727 -0.1745 -0.1753  0.3059
  120MOL0     O16113   8.910   0.185   9.748  0.2763  0.6887  0.4786
  120MOL0     C16114   9.215   0.009   9.853  0.9277 -0.1493  0.0486
  120MOL0     C16115   9.358   0.029   9.851 -0.6179 -0.4686  1.1300
  120MOL0     N16116   9.919   0.397  10.058  1.0524  0.4794 -0.3154
  120MOL0     N16117   9.863   0.493  10.124  0.2395 -0.2405  0.0573
  120MOL0     C16118  10.889   0.956   9.891  0.2127 -0.5198 -0.1053
  120MOL0     C16119  11.020   1.004   9.893  0.3706  0.1944  0.3231
  120MOL0     C16120  11.405   1.243   9.886 -0.0896  0.1010 -0.1093
  120MOL0     C16121  11.538   1.199   9.910  0.3510  0.0140 -0.4878
  120MOL0     C16122  11.638   1.291   9.931 -1.1561  0.1058 -1.0563
  120MOL0     C16123  11.618   1.423   9.914  0.6003 -0.6233 -0.0564
  120MOL0     O16124  11.717   1.517   9.941  0.2495  0.0614 -0.4295
  120MOL0     C16125  11.812   1.528   9.830 -0.9332  0.1900  0.2381
  120MOL0     C16126  11.930   1.443   9.872 -0.4751 -0.4167 -0.4130
  120MOL0     C16127  12.025   1.424   9.751  0.5890 -0.0275 -0.5208
  120MOL0     C16128  12.104   1.554   9.714  0.5936  0.2488  0.4632
  120MOL0     C16129  12.228   1.569   9.793 -0.2620 -0.3246  0.2055
  120MOL0     C16130  12.336   1.580   9.855  0.3013 -0.7043 -0.3260
  120MOL0     C16131  11.486   1.474   9.884 -0.2951  0.4989 -0.2048
  120MOL0     C16132  11.383   1.380   9.874 -0.3235  0.2466  0.5393
  120MOL0     H16133  10.937   1.332   9.903  1.0575  0.1666 -1.5505
  120MOL0     H16134  10.700   1.233   9.887 -0.3796 -0.4548  0.4439
  120MOL0     H16135  10.511   1.121   9.931  0.8104 -0.5867 -0.7743
  120MOL0     H16136  10.537   1.091   9.756 -1.1996 -2.1746 -1.9474
  120MOL0     H16137  10.314   0.988   9.815  0.4247  0.8696  0.3806
  120MOL0     H16138  10.435   0.856   9.814  0.8776  1.1078  1.0682
  120MOL0     H16139  10.474   0.874  10.047 -0.8424  0.0734 -0.1918
  120MOL0     H16140  10.365   0.998  10.065  0.1511  0.6101 -0.5533
  120MOL0     H16141  10.288   0.730   9.941 -0.0882 -0.7699 -0.4446
  120MOL0     H16142  10.286   0.759  10.116 -2.2152 -0.2947  0.7756
  120MOL0     H16143  10.119   0.952  10.076  2.0065 -0.2184  0.4744
  120MOL0     H16144  10.111   0.910   9.903  1.8631  3.4573  0.8296
  120MOL0     H16145  10.054   0.681   9.975 -1.5911 -3.9097  3.5687
  120MOL0     H16146  10.072   0.725  10.135  3.3787  0.0580 -1.0112
  120MOL0     H16147   9.880   0.906  10.100  3.4621 -0.9510  0.8211
  120MOL0     H16148   9.867   0.851   9.933  2.9292  0.0882 -1.2488
  120MOL0     H16149   9.686   0.761  10.056  0.6660  0.3436  1.3038
  120MOL0     H16150   9.774   0.732  10.200 -0.5249  2.2153 -0.3362
  120MOL0     H16151   9.775   0.590   9.830 -1.6953 -2.1851  0.2844
  120MOL0     H16152   9.962   0.426   9.727 -0.1374  1.7140  1.7422
  120MOL0     H16153  10.032   0.302   9.829 -0.1200 -0.4592 -0.2196
  120MOL0     H16154   9.856   0.196   9.670  2.4497 -1.5070  0.7541
  120MOL0     H16155   9.740   0.316   9.738  0.1896 -0.1327  0.7344
  120MOL0     H16156   9.750   0.213   9.950  1.2480 -3.4681  2.1927
  120MOL0     H16157   9.848   0.079   9.890 -0.0562  0.0618 -0.1440
  120MOL0     H16158   9.619   0.015   9.873 -2.7004  1.3455 -0.6801
  120MOL0     H16159   9.679   0.030   9.711 -0.9228  0.3543  0.1446
  120MOL0     H16160   9.367   0.307   9.657 -1.9148 -0.5942 -0.8408
  120MOL0     H16161   9.055   0.374   9.674  0.7039  0.6059  0.4267
  120MOL0     H16162   9.183   0.363   9.568 -0.8380 -1.0496 -1.9980
  120MOL0     H16163   9.045   0.253   9.550  0.6659 -1.1245  0.4557
  120MOL0     H16164   8.737  -0.019  10.057  1.3012 -1.4227 -0.9926
  120MOL0     H16165   8.514  -0.073  10.031 -0.9686  2.2714 -0.0407
  120MOL0     H16166   8.312  -0.256   9.935 -2.9991 -0.5954 -0.6958
  120MOL0     H16167   8.324  -0.092   9.981  0.1454  1.1968 -0.0617
  120MOL0     H16168   8.089  -0.228   9.878 -0.1111  0.0976 -1.9560
  120MOL0     H16169   8.108  -0.057   9.923 -1.8903 -0.0310 -1.3421
  120MOL0     H16170   8.155  -0.177   9.656  0.2027 -0.9029  1.1293
  120MOL0     H16171   8.167   0.006   9.687 -1.1251  2.1117 -0.3418
  120MOL0     H16172   7.927  -0.170   9.720  0.3051 -0.3670  0.3935
  120MOL0     H16173   7.931  -0.012   9.788  0.5043 -0.8751  0.9912
  120MOL0     H16174   7.969  -0.047   9.479  0.2635  1.1633 -1.1250
  120MOL0     H16175   7.982   0.101   9.565  0.1701  0.1694 -0.6845
  120MOL0     H16176   7.740  -0.098   9.577 -1.0283  1.0328  1.3289
  120MOL0     H16177   7.746   0.061   9.650  0.9584 -0.9376  1.4058
  120MOL0     H16178   7.727  -0.044   9.363 -1.7112 -0.1085 -1.6102
  120MOL0     H16179   7.806   0.107   9.381  1.2063 -0.5193  2.8674
  120MOL0     H16180   7.556   0.151   9.334  1.4935 -2.4657 -1.8373
  120MOL0     H16181   7.612   0.205   9.495  0.4777 -0.2891  0.3737
  120MOL0     H16182   8.568  -0.160   9.626  1.5847 -0.1469 -0.7156
  120MOL0     H16183   8.798  -0.075   9.632 -1.9447  2.2296 -0.4543
  120MOL0     H16184   9.175  -0.084   9.892  1.7399 -1.2374 -1.6221
  120MOL0     H16185   9.421  -0.055   9.879  0.6884 -1.4980 -3.8980
  120MOL0     H16186  10.891   0.847   9.899  1.6680 -0.4976  0.1060
  120MOL0     H16187  11.101   0.934   9.878  0.5882  0.7457 -1.2239
  120MOL0     H16188  11.562   1.094   9.926 -0.6597  0.1084  2.2259
  120MOL0     H16189  11.736   1.254   9.959 -1.6403  1.2984  2.7474
  120MOL0     H16190  11.779   1.494   9.732 -1.5277  1.0864  0.1118
  120MOL0     H16191  11.844   1.633   9.823 -0.1743  0.4149  4.3264
  120MOL0     H16192  11.908   1.340   9.902 -0.2764  0.1290  1.7853
  120MOL0     H16193  11.996   1.486   9.947  1.4420 -1.0034 -1.6802
  120MOL0     H16194  11.975   1.390   9.660  1.5230 -0.7217 -0.7907
  120MOL0     H16195  12.094   1.342   9.774  1.2001  0.2500 -1.2970
  120MOL0     H16196  12.037   1.639   9.726 -0.7066 -0.7824  0.6591
  120MOL0     H16197  12.127   1.551   9.607  0.5797 -0.1156  0.4687
  120MOL0     H16198  12.412   1.596   9.928 -1.7488 -0.9467  1.9907
  120MOL0     H16199  11.477   1.582   9.885  0.1729  0.6150 -2.6745
  120MOL0     H16200  11.283   1.419   9.857  0.2845  0.7548 -2.6220
  121MOL0     O16201   2.414   2.318   9.145  0.0084 -0.5646 -0.8048
  121MOL0     C16202   2.471   2.265   9.242  0.1956 -0.0768 -0.2705
  121MOL0     O16203   2.420   2.261   9.373  0.0206  0.7311  0.2960
  121MOL0     C16204   2.309   2.337   9.386 -0.1435  0.3923  0.5226
  121MOL0     C16205   2.313   2.479   9.381 -0.2514 -0.4092 -0.5086
  121MOL0     C16206   2.188   2.544   9.378  0.7629  0.1413 -0.0730
  121MOL0     C16207   2.062   2.474   9.369 -0.1077 -0.0631  0.1135
  121MOL0     O16208   1.939   2.541   9.393  0.4849  0.3444 -0.1718
  121MOL0     C16209   1.938   2.673   9.454 -0.4629  0.0455 -0.0587
  121MOL0     C16210   1.793   2.714   9.484  0.0546 -1.6679 -0.0398
  121MOL0     C16211   1.808   2.853   9.557  0.1926 -0.2580  0.6542
  121MOL0     C16212   1.680   2.931   9.583 -0.0510  0.5160  0.0606
  121MOL0     C16213   1.588   2.847   9.687 -0.3480  0.8495  0.0410
  121MOL0     C16214   1.654   2.814   9.822  0.4483  0.4666  0.2410
  121MOL0     C16215   1.554   2.755   9.912 -0.0540  0.5531 -0.0820
  121MOL0     C16216   1.537   2.841  10.036  0.3518 -0.0181 -0.2554
  121MOL0     N16217   1.480   2.765  10.142  0.1604 -0.1560  1.0800
  121MOL0     C16218   1.515   2.641  10.188 -0.6582 -0.5423 -0.1794
  121MOL0     C16219   1.423   2.621  10.288 -0.2740  0.1433 -0.2920
  121MOL0     C16220   1.413   2.501  10.379 -0.3887  0.1863  0.2832
  121MOL0     C16221   1.314   2.505  10.497 -0.6076 -0.0648  0.1756
  121MOL0     C16222   1.306   2.361  10.560  0.5276 -0.0573 -0.7559
  121MOL0     C16223   1.176   2.326  10.637  0.6636  0.2822 -0.3679
  121MOL0     O16224   1.058   2.361  10.565  0.4513  0.0619  0.6068
  121MOL0     C16225   0.933   2.330  10.619 -0.1752 -0.2352 -1.0107
  121MOL0     C16226   0.814   2.378  10.565  0.5098 -0.5332  0.9288
  121MOL0     C16227   0.683   2.354  10.598 -0.1828 -0.7652  0.5155
  121MOL0     C16228   0.581   2.427  10.510  0.1519 -0.3419 -0.3867
  121MOL0     C16229   0.662   2.254  10.687  0.7872  0.4172 -0.3810
  121MOL0     C16230   0.534   2.183  10.716  0.1302 -0.2204 -0.5858
  121MOL0     O16231   0.414   2.245  10.683 -0.5521  0.6016 -0.1951
  121MOL0     C16232   0.292   2.205  10.736  0.0538  0.0132  0.0713
  121MOL0     C16233   0.272   2.119  10.846 -0.2451 -0.7870  0.1358
  121MOL0     C16234   0.146   2.084  10.883  0.8057  0.9564  0.4964
  121MOL0     C16235   0.032   2.139  10.829 -0.4318 -0.2098 -0.4875
  121MOL0     O16236  -0.101   2.114  10.867  0.1268 -0.1071  0.5405
  121MOL0     C16237  -0.124   2.035  10.982 -0.7468 -0.5810 -0.3748
  121MOL0     C16238  -0.262   2.071  11.032 -0.5245  0.1318 -0.5874
  121MOL0     C16239  -0.385   1.995  10.973  0.5257  0.8928 -0.6875
  121MOL0     C16240  -0.385   1.958  10.829 -0.8038  0.2939  1.4553
  121MOL0     C16241  -0.517   1.905  10.773 -0.1039 -0.0872 -0.5952
  121MOL0     C16242  -0.558   1.770  10.823 -0.2792  0.9437 -0.9224
  121MOL0     C16243  -0.700   1.731  10.781  0.4811 -0.9743 -0.8544
  121MOL0     C16244  -0.809   1.811  10.837  0.1099  0.4907 -0.0435
  121MOL0    Cl16245  -0.970   1.775  10.767 -0.7799  0.1292  0.1859
  121MOL0     C16246   0.048   2.228  10.727 -0.2496 -0.4816 -0.1742
  121MOL0     C16247   0.176   2.268  10.677 -0.5216 -0.2533 -1.1733
  121MOL0     O16248   0.537   2.073  10.765 -0.0876  1.0545  0.1963
  121MOL0     C16249   0.779   2.197  10.752  0.5650 -0.2973  0.4459
  121MOL0     C16250   0.913   2.240  10.731  0.9950  0.9538 -0.5544
  121MOL0     N16251   1.341   2.730  10.293  0.4988  1.0113 -1.1664
  121MOL0     N16252   1.378   2.825  10.214  0.1522 -0.0422  0.9088
  121MOL0     C16253   2.064   2.334   9.369  0.3053 -0.4101 -0.2931
  121MOL0     C16254   2.189   2.269   9.372  0.4001  0.2268  0.3149
  121MOL0     C16255   2.601   2.213   9.214 -0.2059 -0.5659  0.4692
  121MOL0     C16256   2.689   2.180   9.316  0.4039  0.3843  0.2656
  121MOL0     C16257   2.823   2.124   9.288  0.1468 -0.0545  0.8033
  121MOL0     C16258   2.856   2.090   9.159 -0.2700 -0.0999 -0.0339
  121MOL0     O16259   2.985   2.037   9.147 -0.8031  0.4236  0.0543
  121MOL0     C16260   3.034   2.003   9.015 -0.3863 -0.6891 -0.5115
  121MOL0     C16261   3.179   1.951   9.031  0.8203  0.1680  0.8720
  121MOL0     C16262   3.258   2.036   9.137 -0.4650 -0.0196  0.0520
  121MOL0     C16263   3.360   1.941   9.209  0.1729 -0.5894  0.1885
  121MOL0     C16264   3.428   1.843   9.125 -1.1432 -0.7385  0.1789
  121MOL0     C16265   3.482   1.746   9.069  0.2356 -0.1775 -0.3297
  121MOL0     C16266   2.763   2.120   9.057 -0.6681  0.0799  0.9646
  121MOL0     C16267   2.639   2.177   9.081  0.1580 -0.4695  0.2368
  121MOL0     H16268   2.406   2.534   9.387 -0.7431  0.3111  1.0566
  121MOL0     H16269   2.186   2.652   9.386  0.2601  0.3262 -2.1966
  121MOL0     H16270   1.997   2.675   9.546 -0.8963  2.0320  0.1969
  121MOL0     H16271   1.988   2.741   9.384 -0.1381  0.3543  0.4646
  121MOL0     H16272   1.730   2.727   9.396  0.9316 -0.6169 -0.5342
  121MOL0     H16273   1.753   2.640   9.555  1.2472 -1.4020  0.9483
  121MOL0     H16274   1.872   2.857   9.646  1.1306 -0.3179 -0.0129
  121MOL0     H16275   1.865   2.915   9.488  1.0720 -0.5120  1.1274
  121MOL0     H16276   1.711   3.023   9.634 -0.4219  0.7627 -0.1570
  121MOL0     H16277   1.620   2.950   9.493 -1.3689 -3.7090 -0.2068
  121MOL0     H16278   1.508   2.915   9.719 -1.5648  0.2168 -1.5315
  121MOL0     H16279   1.547   2.761   9.633 -0.1241  1.2268 -0.7339
  121MOL0     H16280   1.737   2.745   9.809  2.4869  2.8742 -0.2107
  121MOL0     H16281   1.703   2.901   9.866  0.3688 -0.4646  2.2865
  121MOL0     H16282   1.454   2.741   9.871 -0.5706  2.0165  0.6002
  121MOL0     H16283   1.594   2.655   9.933 -0.3485  0.5043  0.2592
  121MOL0     H16284   1.489   2.938  10.020  0.1125 -0.1069 -0.0884
  121MOL0     H16285   1.639   2.845  10.076 -0.0075 -2.1567  1.0618
  121MOL0     H16286   1.597   2.581  10.150  2.0304  2.1459  0.9815
  121MOL0     H16287   1.397   2.419  10.309  1.2443 -0.9175  1.1312
  121MOL0     H16288   1.514   2.485  10.420 -0.0637  2.4546  0.4858
  121MOL0     H16289   1.219   2.534  10.452 -0.7809  2.4471  1.9681
  121MOL0     H16290   1.340   2.576  10.576 -2.4384  0.6959  0.1432
  121MOL0     H16291   1.378   2.351  10.643  0.2546 -1.1820 -0.6282
  121MOL0     H16292   1.325   2.287  10.481  0.5069  0.8436 -1.6212
  121MOL0     H16293   1.180   2.366  10.739  0.2579  0.5679 -0.4565
  121MOL0     H16294   1.175   2.221  10.667  0.5427  0.4982  0.4080
  121MOL0     H16295   0.828   2.442  10.479 -1.8187 -0.2663  0.6792
  121MOL0     H16296   0.621   2.482  10.424 -1.1073 -0.7852 -1.2878
  121MOL0     H16297   0.513   2.361  10.456 -2.8686 -0.6975  3.4654
  121MOL0     H16298   0.522   2.502  10.564 -1.6186 -1.7339 -0.2829
  121MOL0     H16299   0.348   2.065  10.901 -0.6662  0.1208  1.6752
  121MOL0     H16300   0.134   2.015  10.966  0.0560 -0.5467 -0.8212
  121MOL0     H16301  -0.121   1.928  10.962 -0.5981 -0.2568 -2.2025
  121MOL0     H16302  -0.063   2.063  11.068 -1.3711  0.3190 -0.2021
  121MOL0     H16303  -0.268   2.051  11.140 -1.8274  2.8306 -0.0805
  121MOL0     H16304  -0.265   2.179  11.018  0.5664 -0.0329 -2.4712
  121MOL0     H16305  -0.475   2.055  10.991  0.7693  0.6475  1.6469
  121MOL0     H16306  -0.401   1.902  11.027 -0.5402  1.0652 -0.6816
  121MOL0     H16307  -0.369   2.052  10.775 -1.1316  0.8161  2.2530
  121MOL0     H16308  -0.301   1.890  10.812 -0.0185  1.6127 -0.2908
  121MOL0     H16309  -0.520   1.910  10.664  3.3668 -0.2494 -0.7983
  121MOL0     H16310  -0.592   1.973  10.815  2.2213  1.2756  1.6149
  121MOL0     H16311  -0.494   1.688  10.788 -2.3038 -0.0058 -2.5977
  121MOL0     H16312  -0.549   1.771  10.932 -1.2027 -0.4951 -0.8118
  121MOL0     H16313  -0.721   1.631  10.818  0.8049 -1.2512 -1.4012
  121MOL0     H16314  -0.715   1.743  10.673  2.6563 -2.2160 -1.3476
  121MOL0     H16315  -0.795   1.919  10.827 -0.8630  0.4794 -1.8081
  121MOL0     H16316  -0.813   1.782  10.943  0.5158 -0.4178 -0.2686
  121MOL0     H16317  -0.044   2.273  10.690 -0.4476 -1.7582 -1.3238
  121MOL0     H16318   0.194   2.338  10.596  0.5682 -1.5119 -2.0696
  121MOL0     H16319   0.775   2.125  10.833 -0.0080 -0.2271  0.4855
  121MOL0     H16320   0.998   2.200  10.786  0.4198  2.5571  1.6285
  121MOL0     H16321   1.972   2.276   9.371  0.8515 -1.2633  1.4711
  121MOL0     H16322   2.186   2.161   9.382 -3.7338  0.1668  0.0581
  121MOL0     H16323   2.659   2.192   9.420  1.5393 -0.6960  0.7484
  121MOL0     H16324   2.885   2.088   9.369  0.2180  2.1581  1.8174
  121MOL0     H16325   2.969   1.928   8.970  1.5040 -1.0309 -2.8910
  121MOL0     H16326   3.041   2.087   8.945  1.4125  0.6564  1.1530
  121MOL0     H16327   3.225   1.958   8.932  1.5084 -1.0391  1.0880
  121MOL0     H16328   3.184   1.846   9.060  2.2035  0.6347  2.5332
  121MOL0     H16329   3.197   2.088   9.212 -0.0718  1.1153 -0.3902
  121MOL0     H16330   3.314   2.094   9.064 -0.7433 -2.0332 -1.8662
  121MOL0     H16331   3.307   1.890   9.290 -1.1250  1.7530  0.9030
  121MOL0     H16332   3.438   1.998   9.261  3.1805 -1.9948 -2.4454
  121MOL0     H16333   3.524   1.654   9.034  0.6461  0.2267 -0.9281
  121MOL0     H16334   2.786   2.106   8.952  3.2885  0.6729  1.5779
  121MOL0     H16335   2.567   2.204   9.004 -1.4451 -0.7435  1.5812
  122MOL0     O16336   1.171  10.257   2.687 -0.3955 -0.3918  0.1330
  122MOL0     C16337   1.222  10.353   2.624  0.4162 -0.0448 -0.3140
  122MOL0     O16338   1.150  10.456   2.583  0.3493  0.3929 -0.2591
  122MOL0     C16339   1.015  10.458   2.601  0.9289  0.7632  0.4678
  122MOL0     C16340   0.955  10.474   2.730  0.1786 -1.1206  0.8468
  122MOL0     C16341   0.817  10.498   2.746 -0.1366  0.1880 -0.0851
  122MOL0     C16342   0.734  10.491   2.637 -0.0715 -0.4747  0.0518
  122MOL0     O16343   0.595  10.526   2.645 -0.4889  0.3073  0.6587
  122MOL0     C16344   0.522  10.437   2.734  0.9873 -0.7220  0.5069
  122MOL0     C16345   0.367  10.461   2.721  0.2615  0.2445 -0.4233
  122MOL0     C16346   0.297  10.392   2.606  0.5330 -0.7084 -0.3029
  122MOL0     C16347   0.161  10.449   2.584 -0.0498 -0.1786  0.4645
  122MOL0     C16348   0.071  10.369   2.491 -0.4609 -1.0657 -0.5810
  122MOL0     C16349  -0.068  10.441   2.483 -0.1167 -0.5247  0.1257
  122MOL0     C16350  -0.164  10.374   2.383  0.6840 -0.0549 -0.5771
  122MOL0     C16351  -0.308  10.395   2.445  0.2458 -0.1222  0.4305
  122MOL0     N16352  -0.415  10.358   2.354  0.5685  0.5777  0.0475
  122MOL0     C16353  -0.540  10.417   2.345  0.3194  0.0702  0.3173
  122MOL0     C16354  -0.608  10.341   2.252  0.5084  0.4841  0.4445
  122MOL0     C16355  -0.739  10.383   2.187 -0.4894 -0.8194  0.3974
  122MOL0     C16356  -0.791  10.260   2.116 -0.7877  0.1977  0.0367
  122MOL0     C16357  -0.934  10.277   2.050  1.0441 -0.5397  0.7236
  122MOL0     C16358  -0.956  10.398   1.957  0.1181  0.8101 -0.1774
  122MOL0     O16359  -1.084  10.371   1.894  1.3141  0.0021 -1.1234
  122MOL0     C16360  -1.203  10.417   1.949 -0.2476  0.2810  0.0750
  122MOL0     C16361  -1.323  10.399   1.882 -0.3144  0.3499 -0.0450
  122MOL0     C16362  -1.460  10.426   1.933 -0.0868  0.1682 -0.4704
  122MOL0     C16363  -1.576  10.380   1.846  0.6391  0.1832  0.7499
  122MOL0     C16364  -1.465  10.478   2.070 -0.3324 -0.1745 -0.6468
  122MOL0     C16365  -1.583  10.529   2.138 -0.2404 -0.3118 -0.3093
  122MOL0     O16366  -1.588  10.516   2.275 -0.6228  0.1008  0.3635
  122MOL0     C16367  -1.703  10.531   2.347 -0.3512 -0.1741 -0.4114
  122MOL0     C16368  -1.683  10.582   2.477 -0.0445  0.1382  0.4203
  122MOL0     C16369  -1.801  10.606   2.554  0.1939 -0.0030  1.0154
  122MOL0     C16370  -1.926  10.544   2.519  0.2840 -0.8710  0.2201
  122MOL0     O16371  -2.033  10.552   2.595 -0.0622  0.3591  0.1956
  122MOL0     C16372  -2.103  10.679   2.601 -0.4251  0.3241  0.4812
  122MOL0     C16373  -2.207  10.692   2.487  1.0010 -0.1756 -0.4122
  122MOL0     C16374  -2.348  10.634   2.532 -1.0515 -0.7468 -0.6546
  122MOL0     C16375  -2.465  10.674   2.454  0.4812 -0.5475  0.3464
  122MOL0     C16376  -2.511  10.813   2.494 -0.0865  0.0589  0.9924
  122MOL0     C16377  -2.599  10.874   2.388  0.7030  0.0202 -0.0193
  122MOL0     C16378  -2.727  10.795   2.350  0.1507 -0.3415 -0.5356
  122MOL0     C16379  -2.832  10.800   2.469  0.8092  0.2938  0.5552
  122MOL0    Cl16380  -2.895  10.971   2.499 -0.4259 -0.2323  0.0354
  122MOL0     C16381  -1.938  10.470   2.400 -1.0062 -0.9888 -0.2998
  122MOL0     C16382  -1.827  10.456   2.318 -0.7020  0.0292 -0.1598
  122MOL0     O16383  -1.678  10.568   2.067 -0.0009  0.9521  0.5868
  122MOL0     C16384  -1.343  10.499   2.139 -0.3041  0.6301  0.0998
  122MOL0     C16385  -1.218  10.477   2.078 -0.5472 -0.1000  1.1569
  122MOL0     N16386  -0.534  10.231   2.216 -0.3028  0.6406  0.5757
  122MOL0     N16387  -0.417  10.255   2.268 -0.0635  0.2901 -0.1613
  122MOL0     C16388   0.792  10.483   2.512 -0.1416 -0.7221  0.3478
  122MOL0     C16389   0.927  10.452   2.490 -0.2069  0.0378  0.3473
  122MOL0     C16390   1.364  10.359   2.608 -0.0716  0.0798 -0.2152
  122MOL0     C16391   1.440  10.471   2.551  0.0420  0.2235  0.4148
  122MOL0     C16392   1.575  10.466   2.520  0.6206 -0.4702 -0.2768
  122MOL0     C16393   1.648  10.355   2.548 -0.3504  0.5339  0.7441
  122MOL0     O16394   1.781  10.356   2.513 -0.1673  0.0289  1.2189
  122MOL0     C16395   1.861  10.452   2.583 -0.1231 -0.0122  0.2542
  122MOL0     C16396   2.010  10.402   2.584  0.2025  0.6391  0.3467
  122MOL0     C16397   2.105  10.478   2.666 -1.0351 -0.0832 -0.9021
  122MOL0     C16398   2.096  10.631   2.663 -0.5481 -0.2660 -0.2501
  122MOL0     C16399   2.233  10.689   2.669 -0.1062 -0.5440  0.3323
  122MOL0     C16400   2.345  10.740   2.674  0.2374 -0.2929 -0.0500
  122MOL0     C16401   1.586  10.244   2.604 -0.2331  0.7015  0.2550
  122MOL0     C16402   1.445  10.245   2.620  0.0373 -0.2155 -0.6007
  122MOL0     H16403   1.028  10.481   2.809  2.1328  1.9426 -1.0360
  122MOL0     H16404   0.774  10.512   2.845 -0.2313  5.7564 -0.5478
  122MOL0     H16405   0.538  10.337   2.692 -0.0514  1.0935 -5.1212
  122MOL0     H16406   0.545  10.444   2.840  0.7148 -0.3123  0.5440
  122MOL0     H16407   0.325  10.426   2.816  2.6893  2.8172  1.7896
  122MOL0     H16408   0.347  10.567   2.706  1.4403  0.5235 -0.1673
  122MOL0     H16409   0.349  10.401   2.510 -1.7645 -1.0818 -1.6653
  122MOL0     H16410   0.290  10.286   2.633 -0.1821 -0.6672 -0.2975
  122MOL0     H16411   0.104  10.462   2.677  0.4324  0.1666  0.7170
  122MOL0     H16412   0.168  10.552   2.547 -1.4488 -0.2712 -0.1079
  122MOL0     H16413   0.108  10.359   2.389 -1.0036 -0.6847 -0.8238
  122MOL0     H16414   0.054  10.266   2.524  1.6652 -1.9577 -2.0794
  122MOL0     H16415  -0.104  10.441   2.586  1.6174 -0.8208  0.7628
  122MOL0     H16416  -0.049  10.542   2.444 -2.7753  0.2044  0.4902
  122MOL0     H16417  -0.156  10.421   2.284  1.9424 -1.1906 -1.0522
  122MOL0     H16418  -0.153  10.267   2.363  3.6154 -0.0662  0.5922
  122MOL0     H16419  -0.317  10.501   2.471  2.2899  1.2376 -3.5722
  122MOL0     H16420  -0.320  10.347   2.542 -1.1916  1.6853  1.2152
  122MOL0     H16421  -0.571  10.517   2.374 -0.6400  1.4663 -4.5076
  122MOL0     H16422  -0.810  10.412   2.266 -1.0938  0.7198 -0.6495
  122MOL0     H16423  -0.731  10.470   2.121 -1.4952 -0.1108  1.1740
  122MOL0     H16424  -0.790  10.175   2.185  1.8080  1.2032  1.4176
  122MOL0     H16425  -0.719  10.236   2.038 -1.7066  1.0599 -1.0989
  122MOL0     H16426  -1.012  10.277   2.126 -1.0246 -0.9422 -1.2992
  122MOL0     H16427  -0.966  10.189   1.994 -1.9708  0.2735  1.0179
  122MOL0     H16428  -0.877  10.392   1.881 -1.5838 -0.9548 -1.9443
  122MOL0     H16429  -0.956  10.492   2.012 -1.6206  1.3185 -0.9879
  122MOL0     H16430  -1.317  10.360   1.781  2.4609  2.7679 -0.9612
  122MOL0     H16431  -1.642  10.324   1.913  0.8615  0.1269  0.9252
  122MOL0     H16432  -1.642  10.462   1.818 -1.5710 -1.1061  1.9123
  122MOL0     H16433  -1.542  10.322   1.759  1.8373 -0.9741  1.9344
  122MOL0     H16434  -1.588  10.624   2.509 -0.2953 -0.0093  1.4078
  122MOL0     H16435  -1.794  10.661   2.647 -2.1989  0.4003  1.0097
  122MOL0     H16436  -2.154  10.683   2.697 -1.2006 -1.0801  0.1509
  122MOL0     H16437  -2.029  10.758   2.583  0.2706 -0.3234  0.4437
  122MOL0     H16438  -2.216  10.800   2.475  1.7712  0.0384  0.7517
  122MOL0     H16439  -2.175  10.639   2.397  1.9173 -1.6962  0.7572
  122MOL0     H16440  -2.372  10.649   2.638 -0.0927  0.1420 -0.5464
  122MOL0     H16441  -2.352  10.525   2.526  3.1338 -1.4254  3.4247
  122MOL0     H16442  -2.432  10.676   2.350 -0.1702  0.4994  0.1443
  122MOL0     H16443  -2.543  10.598   2.465  1.4852 -1.4872  1.2333
  122MOL0     H16444  -2.428  10.885   2.500 -0.3553  0.5678 -0.7182
  122MOL0     H16445  -2.557  10.796   2.591  0.9975 -0.6527  1.3975
  122MOL0     H16446  -2.628  10.973   2.425 -0.8594  0.4123 -2.1483
  122MOL0     H16447  -2.529  10.892   2.306 -0.1324  1.7047 -0.4064
  122MOL0     H16448  -2.703  10.694   2.317  1.7321  0.4751 -2.0187
  122MOL0     H16449  -2.778  10.834   2.262  1.1312 -0.9501 -1.3971
  122MOL0     H16450  -2.787  10.760   2.561 -3.4280 -1.6551  2.0170
  122MOL0     H16451  -2.908  10.731   2.430  0.3232  1.6356 -0.9872
  122MOL0     H16452  -2.035  10.429   2.373 -2.2312  1.6573 -0.2660
  122MOL0     H16453  -1.834  10.381   2.240 -3.3091  1.4945 -1.4581
  122MOL0     H16454  -1.347  10.540   2.239 -0.5164  0.0400  0.3384
  122MOL0     H16455  -1.127  10.500   2.133  2.3643 -3.9608 -1.4974
  122MOL0     H16456   0.728  10.497   2.425 -0.4273 -0.0161  0.6587
  122MOL0     H16457   0.966  10.435   2.390  0.9407  0.5224  0.6985
  122MOL0     H16458   1.373  10.552   2.524 -1.5265 -1.2441 -0.2974
  122MOL0     H16459   1.626  10.547   2.469  2.4002 -2.8834 -2.5941
  122MOL0     H16460   1.854  10.545   2.526 -0.7915 -0.1868  0.0405
  122MOL0     H16461   1.825  10.468   2.685 -4.1325  2.2557 -1.2490
  122MOL0     H16462   2.048  10.408   2.482  1.8126  2.3342  0.9721
  122MOL0     H16463   2.018  10.295   2.603  1.3473  0.8784  1.3358
  122MOL0     H16464   2.207  10.442   2.649  0.2341  0.4315  4.1158
  122MOL0     H16465   2.080  10.444   2.767  0.7078  3.3871  0.8299
  122MOL0     H16466   2.033  10.665   2.746 -0.7439 -0.8519 -0.1569
  122MOL0     H16467   2.042  10.669   2.576 -1.1489  1.0256  0.6463
  122MOL0     H16468   2.444  10.781   2.669  0.1690  0.4461  2.7667
  122MOL0     H16469   1.645  10.154   2.620 -0.8178 -0.3511 -2.8151
  122MOL0     H16470   1.404  10.146   2.635  1.0336 -0.8051 -1.6076
  123MOL0     O16471   4.043   2.981   8.361 -0.0059  0.2591 -0.6549
  123MOL0     C16472   4.084   3.097   8.349  0.3207  0.4023 -0.2081
  123MOL0     O16473   4.006   3.203   8.320 -0.3254  0.3905 -0.1669
  123MOL0     C16474   3.875   3.185   8.296  0.3293  1.8208 -1.0386
  123MOL0     C16475   3.777   3.208   8.402 -0.2139  0.2748 -0.0584
  123MOL0     C16476   3.640   3.218   8.372 -0.1387 -0.3233  0.1354
  123MOL0     C16477   3.595   3.177   8.243  0.3742 -1.0253 -0.6831
  123MOL0     O16478   3.464   3.175   8.211 -0.5607 -0.2576 -0.1292
  123MOL0     C16479   3.419   3.292   8.149  0.6734 -0.1696  0.9007
  123MOL0     C16480   3.283   3.311   8.205 -0.1004 -0.3341 -0.0439
  123MOL0     C16481   3.183   3.194   8.179 -0.0161  0.4817  0.3672
  123MOL0     C16482   3.049   3.199   8.253  0.7814 -0.2031 -0.1094
  123MOL0     C16483   2.971   3.082   8.199  0.1211  0.2863  0.0911
  123MOL0     C16484   2.839   3.075   8.277 -1.4745 -0.4267 -0.2281
  123MOL0     C16485   2.707   3.059   8.188  0.1294  0.1494  0.0472
  123MOL0     C16486   2.633   3.189   8.202 -0.2916  0.5743  0.2464
  123MOL0     N16487   2.489   3.168   8.191  0.1125 -0.4333  0.6458
  123MOL0     C16488   2.430   3.142   8.067  1.4320 -0.4047  0.2073
  123MOL0     C16489   2.292   3.132   8.102 -0.1226 -0.0364 -0.5333
  123MOL0     C16490   2.200   3.077   8.005  0.0879 -0.2903  0.6213
  123MOL0     C16491   2.049   3.089   8.030 -0.0051 -0.0152 -0.8976
  123MOL0     C16492   2.003   3.217   8.109  0.3219 -0.1571  0.2680
  123MOL0     C16493   1.848   3.206   8.108  0.0279  0.7935 -0.0959
  123MOL0     O16494   1.798   3.226   7.971 -0.8924 -0.5022  0.8458
  123MOL0     C16495   1.667   3.199   7.960 -0.3584  0.4801  0.1393
  123MOL0     C16496   1.621   3.077   7.913 -0.7432  0.2415 -0.0605
  123MOL0     C16497   1.486   3.038   7.898 -0.0281 -0.5897 -0.2385
  123MOL0     C16498   1.458   2.895   7.871 -0.3184 -0.5367  0.0900
  123MOL0     C16499   1.386   3.142   7.928  0.0653  1.1655  0.3948
  123MOL0     C16500   1.245   3.125   7.888  0.1672  0.5935  0.3417
  123MOL0     O16501   1.205   2.998   7.852  0.1334  0.0380 -0.1714
  123MOL0     C16502   1.075   2.965   7.833  0.7785  0.0215  0.7334
  123MOL0     C16503   1.054   2.880   7.723  0.6739 -1.3809 -0.2043
  123MOL0     C16504   0.920   2.847   7.689 -1.0700  0.3580 -1.0602
  123MOL0     C16505   0.807   2.911   7.748 -0.1169 -0.5455 -0.1907
  123MOL0     O16506   0.688   2.889   7.688  0.2191 -0.7867 -0.9491
  123MOL0     C16507   0.625   2.772   7.734 -0.1132 -0.2117  0.2343
  123MOL0     C16508   0.473   2.785   7.733  0.0269 -0.4591 -0.1581
  123MOL0     C16509   0.404   2.795   7.596  0.7051  0.1799  0.3395
  123MOL0     C16510   0.246   2.761   7.592 -0.1634 -0.1179 -0.1217
  123MOL0     C16511   0.204   2.612   7.550  0.4381 -0.5759 -0.2543
  123MOL0     C16512   0.043   2.605   7.549 -0.6290 -0.0267 -0.6562
  123MOL0     C16513  -0.034   2.696   7.456 -0.5433 -0.3011 -0.8859
  123MOL0     C16514  -0.182   2.709   7.493 -0.1001  0.0892  0.8693
  123MOL0    Cl16515  -0.198   2.744   7.662  0.0477  0.0150  0.1873
  123MOL0     C16516   0.823   2.976   7.870 -1.0317 -0.2568 -0.1236
  123MOL0     C16517   0.961   3.008   7.905  0.3147  1.1444 -0.4565
  123MOL0     O16518   1.171   3.226   7.893  0.6568 -0.5023  0.5163
  123MOL0     C16519   1.434   3.264   7.984  0.2247  0.3606 -0.2185
  123MOL0     C16520   1.569   3.294   7.987 -0.4971  0.8047 -0.2524
  123MOL0     N16521   2.275   3.155   8.237  0.3056 -0.5200 -0.3749
  123MOL0     N16522   2.396   3.170   8.288 -0.3752 -0.1416  0.0075
  123MOL0     C16523   3.694   3.148   8.145  0.9003  0.6101 -0.3318
  123MOL0     C16524   3.827   3.160   8.166 -0.5667 -0.6677 -0.8052
  123MOL0     C16525   4.230   3.116   8.378  0.4078 -0.1811 -0.4203
  123MOL0     C16526   4.292   3.241   8.337 -0.2456 -0.3133 -1.2888
  123MOL0     C16527   4.425   3.267   8.384 -0.0218 -0.2729  0.1119
  123MOL0     C16528   4.505   3.173   8.460 -0.2672  0.1479  0.8139
  123MOL0     O16529   4.641   3.190   8.483 -0.8630  0.2168 -0.0163
  123MOL0     C16530   4.703   3.314   8.455  0.6280  0.1926 -0.3998
  123MOL0     C16531   4.836   3.322   8.515  0.0887 -0.0570  0.8886
  123MOL0     C16532   4.927   3.217   8.471 -0.4717  0.5004 -0.1956
  123MOL0     C16533   5.073   3.245   8.510 -0.0317 -0.0096  0.9152
  123MOL0     C16534   5.145   3.374   8.464  0.1814  0.5861  0.0952
  123MOL0     C16535   5.176   3.475   8.431 -0.0976 -1.4429 -0.0174
  123MOL0     C16536   4.441   3.060   8.496 -0.0943  0.1347 -0.1590
  123MOL0     C16537   4.308   3.034   8.462  0.0302 -0.0395 -0.2830
  123MOL0     H16538   3.818   3.222   8.501 -1.8341 -0.1362  0.6947
  123MOL0     H16539   3.565   3.255   8.441 -0.6365  2.0793 -1.5616
  123MOL0     H16540   3.480   3.380   8.173 -1.5934  1.9065 -0.4241
  123MOL0     H16541   3.408   3.276   8.041  1.0062  0.4966  0.7645
  123MOL0     H16542   3.281   3.333   8.313  0.6742  3.0147 -0.6020
  123MOL0     H16543   3.242   3.393   8.146 -0.7334 -0.0791  0.7270
  123MOL0     H16544   3.161   3.188   8.072  2.4294 -3.3125 -0.1059
  123MOL0     H16545   3.235   3.100   8.198  2.7945  1.4488 -1.9993
  123MOL0     H16546   3.062   3.185   8.360  1.7123 -1.6906 -0.3924
  123MOL0     H16547   2.996   3.293   8.234  1.9388  0.3345 -0.8494
  123MOL0     H16548   2.951   3.111   8.095 -0.6805  0.9846  0.4261
  123MOL0     H16549   3.018   2.986   8.218 -0.1910  0.2104  0.4905
  123MOL0     H16550   2.850   2.998   8.354  0.0115  0.5887  0.6156
  123MOL0     H16551   2.831   3.165   8.338  0.8354  0.7584 -1.5388
  123MOL0     H16552   2.731   3.028   8.086 -0.3096 -0.5195  0.1379
  123MOL0     H16553   2.658   2.969   8.228 -0.7849 -0.3097 -1.9902
  123MOL0     H16554   2.653   3.263   8.124 -1.7918  1.5913  0.7674
  123MOL0     H16555   2.637   3.233   8.302  1.2935 -2.1279  1.4655
  123MOL0     H16556   2.482   3.144   7.972  2.4579 -0.8355  0.7420
  123MOL0     H16557   2.218   3.122   7.907 -1.7201 -2.6583 -0.9332
  123MOL0     H16558   2.230   2.973   7.993  3.1419  0.5294  0.4984
  123MOL0     H16559   2.020   3.005   8.094  0.6520 -0.5911 -1.3500
  123MOL0     H16560   2.006   3.071   7.931 -1.0977  0.2214 -0.4762
  123MOL0     H16561   2.034   3.314   8.069  0.9839 -0.8667 -1.0092
  123MOL0     H16562   2.044   3.213   8.210  0.5714  2.3377  0.3165
  123MOL0     H16563   1.807   3.281   8.176  2.2808  0.4741  1.7423
  123MOL0     H16564   1.820   3.105   8.141  1.4867  0.0082 -1.1427
  123MOL0     H16565   1.685   2.991   7.895 -3.4782 -1.7367 -0.8961
  123MOL0     H16566   1.543   2.827   7.860 -2.6109 -3.1342 -3.9277
  123MOL0     H16567   1.388   2.860   7.948 -0.6993  2.1400  1.0532
  123MOL0     H16568   1.405   2.888   7.776  0.0302 -0.4800 -0.1093
  123MOL0     H16569   1.144   2.838   7.680  0.2671 -1.6547 -0.7981
  123MOL0     H16570   0.909   2.771   7.612 -1.2376 -0.4299 -0.2679
  123MOL0     H16571   0.652   2.681   7.679 -1.8481 -0.2751 -0.6101
  123MOL0     H16572   0.651   2.767   7.840 -1.0536  3.4553  0.7759
  123MOL0     H16573   0.444   2.685   7.766  2.5743 -0.9839  0.7054
  123MOL0     H16574   0.447   2.866   7.801  1.9241 -1.1218  1.4417
  123MOL0     H16575   0.456   2.731   7.524  0.2663  0.9309 -0.6610
  123MOL0     H16576   0.407   2.895   7.552 -1.3378  0.0310 -0.2264
  123MOL0     H16577   0.205   2.784   7.690  1.8332 -2.6963  1.4420
  123MOL0     H16578   0.201   2.831   7.520 -2.8989 -1.2139  0.3938
  123MOL0     H16579   0.238   2.542   7.626 -0.5476 -1.7659 -0.8612
  123MOL0     H16580   0.228   2.589   7.445  2.2524  2.4596 -0.6245
  123MOL0     H16581   0.014   2.506   7.513 -1.0418 -0.2191  0.1812
  123MOL0     H16582   0.011   2.617   7.653  0.0483 -1.1174 -0.3038
  123MOL0     H16583  -0.024   2.663   7.352  3.2863 -3.4102  0.2060
  123MOL0     H16584   0.007   2.797   7.456 -1.6563  0.2076 -2.9212
  123MOL0     H16585  -0.227   2.610   7.480 -0.0931  0.0055  1.4504
  123MOL0     H16586  -0.232   2.775   7.421 -2.8759 -3.6228 -0.9873
  123MOL0     H16587   0.738   3.022   7.919 -2.2530 -3.5899  1.1953
  123MOL0     H16588   0.960   3.083   7.983 -0.1294  2.2366 -1.4888
  123MOL0     H16589   1.359   3.335   8.019 -0.8014 -0.4122 -0.7899
  123MOL0     H16590   1.605   3.383   8.037 -1.7748  0.7350  0.8377
  123MOL0     H16591   3.656   3.123   8.046 -0.0490  0.8980 -0.0513
  123MOL0     H16592   3.893   3.140   8.082  1.3709 -2.3499  0.9869
  123MOL0     H16593   4.235   3.301   8.268 -1.5494 -0.6290 -0.5273
  123MOL0     H16594   4.487   3.350   8.352  0.1785 -0.4902 -0.0625
  123MOL0     H16595   4.704   3.334   8.347 -1.5039  1.2225 -0.2712
  123MOL0     H16596   4.644   3.392   8.503  0.4203 -0.4420  0.4042
  123MOL0     H16597   4.821   3.319   8.624 -2.2473 -0.7930  0.6034
  123MOL0     H16598   4.875   3.422   8.495 -1.3656  0.4176  0.2845
  123MOL0     H16599   4.917   3.208   8.362  0.5077 -1.3753 -0.1760
  123MOL0     H16600   4.907   3.119   8.517 -0.7954  0.4981 -0.3388
  123MOL0     H16601   5.126   3.155   8.479  1.1206  0.4220  1.5654
  123MOL0     H16602   5.075   3.258   8.619  1.3035  4.1954  0.5881
  123MOL0     H16603   5.211   3.566   8.387 -1.7483 -0.9008 -0.2908
  123MOL0     H16604   4.506   2.991   8.548  2.6481 -0.3886 -3.9050
  123MOL0     H16605   4.264   2.940   8.493 -0.0865 -0.2942 -1.1972
  124MOL0     O16606   9.158   7.775  10.417  0.4739  0.5519  0.0197
  124MOL0     C16607   9.256   7.800  10.349  0.1114 -0.1885 -0.4115
  124MOL0     O16608   9.258   7.849  10.222  0.2172  0.3646 -0.0365
  124MOL0     C16609   9.129   7.863  10.170 -0.0248 -0.2962 -0.2496
  124MOL0     C16610   9.058   7.989  10.179  0.3331  0.8207 -0.1023
  124MOL0     C16611   8.922   7.996  10.133  0.5588  0.8513 -0.2680
  124MOL0     C16612   8.858   7.878  10.088  0.4162  0.1981  0.3250
  124MOL0     O16613   8.731   7.898  10.050  0.3797 -0.1710  0.5388
  124MOL0     C16614   8.658   7.780   9.993 -0.3872  0.0386 -0.7946
  124MOL0     C16615   8.527   7.847   9.940 -0.5073 -0.4860 -0.4639
  124MOL0     C16616   8.420   7.741   9.915 -0.2682  0.4397  0.7675
  124MOL0     C16617   8.314   7.777   9.814 -1.1386  0.3862 -0.7882
  124MOL0     C16618   8.203   7.670   9.815 -0.3802 -0.7274  0.0012
  124MOL0     C16619   8.092   7.732   9.730 -0.6931  0.5445 -0.8379
  124MOL0     C16620   7.962   7.649   9.734  0.0305 -1.0149 -0.1828
  124MOL0     C16621   7.853   7.689   9.828  0.8514  0.3717  0.6140
  124MOL0     N16622   7.740   7.593   9.813 -0.4888 -0.0986 -0.0520
  124MOL0     C16623   7.649   7.599   9.716 -0.7117 -0.0316  0.2571
  124MOL0     C16624   7.574   7.484   9.734  0.6978  0.9919  0.0611
  124MOL0     C16625   7.441   7.456   9.673 -0.2662  0.5311  0.4722
  124MOL0     C16626   7.358   7.580   9.638  0.6595  0.6909  0.2265
  124MOL0     C16627   7.235   7.563   9.549  0.1140 -0.4646 -0.4596
  124MOL0     C16628   7.119   7.491   9.621 -0.3114  0.7148 -0.4287
  124MOL0     O16629   6.992   7.517   9.555 -0.3307 -0.0514 -0.1217
  124MOL0     C16630   6.875   7.476   9.622 -0.4084  0.1396  0.7990
  124MOL0     C16631   6.873   7.401   9.737 -0.7649 -0.0887 -0.2036
  124MOL0     C16632   6.755   7.362   9.804  0.1072 -0.2038 -0.1654
  124MOL0     C16633   6.771   7.294   9.937  0.8855  0.1418 -0.3406
  124MOL0     C16634   6.631   7.393   9.745 -0.7738 -0.5186  0.2822
  124MOL0     C16635   6.506   7.381   9.806  0.0851  0.0136 -0.7346
  124MOL0     O16636   6.496   7.458   9.924 -0.4695  0.0242  0.6843
  124MOL0     C16637   6.375   7.446   9.998  0.5653  0.5558  0.7907
  124MOL0     C16638   6.376   7.389  10.133  0.0415 -0.4852  1.3698
  124MOL0     C16639   6.268   7.370  10.212  0.3992 -0.0185 -1.3932
  124MOL0     C16640   6.140   7.414  10.163 -0.0461 -0.0779 -0.2176
  124MOL0     O16641   6.018   7.397  10.228 -0.8707  0.4493 -0.0539
  124MOL0     C16642   6.024   7.317  10.341  0.8150  0.6710 -0.1849
  124MOL0     C16643   5.880   7.285  10.389 -0.8208  0.2301  0.2711
  124MOL0     C16644   5.816   7.180  10.293 -0.3981 -0.0562 -0.2070
  124MOL0     C16645   5.678   7.153  10.357 -1.0510 -0.4417  0.3614
  124MOL0     C16646   5.602   7.048  10.281  0.3191  0.4408 -0.6792
  124MOL0     C16647   5.549   7.063  10.141  0.4713  0.1752  0.7440
  124MOL0     C16648   5.509   6.921  10.078  0.6934 -0.9764 -0.4521
  124MOL0     C16649   5.393   6.848  10.152 -0.1104  0.2776  0.3325
  124MOL0    Cl16650   5.242   6.935  10.187  0.0157 -0.5095  0.0354
  124MOL0     C16651   6.140   7.481  10.045  0.0419 -0.2811  0.1383
  124MOL0     C16652   6.258   7.501   9.962 -0.3462  0.4661  0.4828
  124MOL0     O16653   6.422   7.304   9.767 -0.2654 -0.1702  0.3662
  124MOL0     C16654   6.628   7.471   9.627 -1.0073 -0.2786 -0.1743
  124MOL0     C16655   6.752   7.510   9.568  0.3042  0.4416  0.8282
  124MOL0     N16656   7.622   7.416   9.842  0.1992  0.2457  0.3281
  124MOL0     N16657   7.727   7.482   9.885 -0.1629  0.5154 -0.0376
  124MOL0     C16658   8.931   7.758  10.072  0.0911 -0.4917 -0.6161
  124MOL0     C16659   9.058   7.750  10.118 -1.2664 -0.8009  0.4505
  124MOL0     C16660   9.391   7.782  10.417  0.2295  0.8808  0.2710
  124MOL0     C16661   9.509   7.761  10.343  0.0471  0.6049 -0.7971
  124MOL0     C16662   9.627   7.718  10.401 -0.2248  0.3861 -0.2935
  124MOL0     C16663   9.635   7.695  10.538  0.2451  0.2296 -0.0416
  124MOL0     O16664   9.746   7.669  10.608  0.0535  0.4266 -0.4729
  124MOL0     C16665   9.856   7.613  10.538  0.2524  0.3871  1.1938
  124MOL0     C16666   9.973   7.597  10.617 -0.2649 -0.2716  0.3615
  124MOL0     C16667  10.050   7.727  10.635 -0.7554 -0.1259  0.0825
  124MOL0     C16668  10.176   7.713  10.724 -0.7960 -0.3298  1.8687
  124MOL0     C16669  10.140   7.699  10.870  0.0794  0.2168 -0.0554
  124MOL0     C16670  10.106   7.688  10.989 -0.3847 -0.5543 -0.0585
  124MOL0     C16671   9.519   7.727  10.617 -0.2276 -0.3967 -0.7978
  124MOL0     C16672   9.402   7.767  10.555  0.0511  0.2670 -0.4815
  124MOL0     H16673   9.109   8.071  10.228  0.6651 -0.8133  2.4335
  124MOL0     H16674   8.872   8.081  10.178  1.7854  1.3699  0.1558
  124MOL0     H16675   8.703   7.722   9.912 -0.9360 -2.7303  0.7452
  124MOL0     H16676   8.636   7.714  10.077 -1.1798  0.0340 -0.9968
  124MOL0     H16677   8.492   7.919  10.015 -1.3018 -2.5904  1.3103
  124MOL0     H16678   8.545   7.906   9.850  0.4905  1.8386  1.1751
  124MOL0     H16679   8.467   7.653   9.871 -0.1659  0.6474  0.4609
  124MOL0     H16680   8.374   7.710  10.010  1.2609 -0.0425  1.3802
  124MOL0     H16681   8.280   7.877   9.845 -0.8339  0.3859 -0.4446
  124MOL0     H16682   8.356   7.782   9.714 -0.2836 -0.8306 -0.5156
  124MOL0     H16683   8.223   7.575   9.766 -1.5944 -0.0134 -2.0003
  124MOL0     H16684   8.163   7.655   9.916  0.7251  0.5955  0.6641
  124MOL0     H16685   8.086   7.836   9.762  1.8551 -0.0330  2.0653
  124MOL0     H16686   8.123   7.727   9.626  0.7650 -1.7534 -0.3645
  124MOL0     H16687   7.916   7.667   9.636 -2.6204 -1.2245  0.9210
  124MOL0     H16688   7.984   7.542   9.740 -0.5875 -1.1606 -0.4471
  124MOL0     H16689   7.812   7.786   9.799 -1.0757 -0.9948 -1.6926
  124MOL0     H16690   7.886   7.688   9.932 -1.0194  0.8735  1.2362
  124MOL0     H16691   7.635   7.684   9.650 -3.7101  0.9642  1.9512
  124MOL0     H16692   7.452   7.400   9.579  3.0258  1.3176  0.2631
  124MOL0     H16693   7.383   7.390   9.738 -2.9986 -0.7980 -2.9452
  124MOL0     H16694   7.416   7.665   9.603 -0.2465  0.8891 -0.8532
  124MOL0     H16695   7.316   7.626   9.728  0.7538  0.7603  0.2355
  124MOL0     H16696   7.262   7.516   9.454  1.1465  0.3708 -0.5905
  124MOL0     H16697   7.220   7.669   9.528  6.6856  1.0462  0.4075
  124MOL0     H16698   7.114   7.518   9.727 -3.3839  0.1714 -0.3368
  124MOL0     H16699   7.134   7.383   9.631 -1.4528  0.5925  0.1082
  124MOL0     H16700   6.967   7.365   9.778 -1.2610 -0.2471  0.8199
  124MOL0     H16701   6.867   7.246   9.956 -1.1851 -4.7323 -0.8830
  124MOL0     H16702   6.737   7.367  10.011 -1.9431  0.0709 -1.4395
  124MOL0     H16703   6.703   7.208   9.938  3.7388 -2.2675 -0.9056
  124MOL0     H16704   6.466   7.347  10.177 -0.5635 -1.2178  1.9369
  124MOL0     H16705   6.285   7.318  10.305  1.7722 -1.6352 -2.4962
  124MOL0     H16706   6.081   7.228  10.312 -0.1578  0.2292 -0.7982
  124MOL0     H16707   6.065   7.363  10.431  2.6239 -1.9897  0.4654
  124MOL0     H16708   5.889   7.230  10.482  1.7972 -3.2769 -1.8306
  124MOL0     H16709   5.815   7.372  10.400 -0.7973  0.1773  0.8404
  124MOL0     H16710   5.877   7.090  10.297 -1.7147 -0.9685 -0.2284
  124MOL0     H16711   5.801   7.215  10.191  0.8482  2.0952  0.2824
  124MOL0     H16712   5.680   7.125  10.463  0.4157  0.5034  0.6174
  124MOL0     H16713   5.610   7.238  10.357 -2.4234 -1.4573 -1.2015
  124MOL0     H16714   5.511   7.035  10.340  1.3496 -0.0401  0.8551
  124MOL0     H16715   5.655   6.953  10.290 -0.9105 -0.2996 -1.0361
  124MOL0     H16716   5.469   7.136  10.127  1.0022  0.7732  0.7738
  124MOL0     H16717   5.626   7.112  10.079 -1.5491  1.1109 -1.1579
  124MOL0     H16718   5.592   6.849  10.085 -0.1898 -1.8937  1.7045
  124MOL0     H16719   5.479   6.945   9.976  0.3642  1.4416  0.1512
  124MOL0     H16720   5.422   6.813  10.252  0.6250  3.4094  1.3182
  124MOL0     H16721   5.369   6.759  10.092 -1.3967  0.3981  0.6536
  124MOL0     H16722   6.048   7.508   9.994 -0.4802 -2.1944 -0.0004
  124MOL0     H16723   6.266   7.554   9.868  3.6260 -0.8056 -0.0699
  124MOL0     H16724   6.540   7.499   9.569 -0.9790  0.0909 -0.0416
  124MOL0     H16725   6.751   7.571   9.478  2.2125 -0.8175 -0.1044
  124MOL0     H16726   8.873   7.669  10.049 -0.5869 -0.9456  2.3992
  124MOL0     H16727   9.121   7.661  10.114  2.2424  1.5238 -2.0531
  124MOL0     H16728   9.515   7.777  10.236  0.2447  1.3914 -0.6729
  124MOL0     H16729   9.704   7.721  10.324 -3.4752 -1.7177 -3.9784
  124MOL0     H16730   9.820   7.518  10.497 -0.9236  1.0556  0.6189
  124MOL0     H16731   9.890   7.676  10.455  0.4846 -0.8790  0.3012
  124MOL0     H16732  10.049   7.536  10.567  0.8972  3.1148 -2.3465
  124MOL0     H16733   9.940   7.561  10.715 -1.5184  0.3230  0.1743
  124MOL0     H16734   9.994   7.803  10.690  0.5983  0.3052  0.8988
  124MOL0     H16735  10.086   7.768  10.540 -0.3000 -0.1931  0.2246
  124MOL0     H16736  10.245   7.797  10.715 -0.4195 -0.8542 -1.0478
  124MOL0     H16737  10.227   7.622  10.691 -0.7249  0.1745  0.5473
  124MOL0     H16738  10.078   7.675  11.092  0.7099  1.9496  0.6381
  124MOL0     H16739   9.534   7.736  10.724  0.8955  0.3755 -0.9956
  124MOL0     H16740   9.323   7.800  10.621  1.3860  3.4851 -0.3026
  125MOL0     O16741   4.368   5.204   2.091  0.1865  0.2124  0.1121
  125MOL0     C16742   4.343   5.262   1.983  0.2618 -0.0262  0.5308
  125MOL0     O16743   4.223   5.285   1.940 -0.0812  0.0384 -0.6258
  125MOL0     C16744   4.106   5.235   1.994 -0.7029 -0.1495 -0.5162
  125MOL0     C16745   4.063   5.291   2.113  0.2474  0.4809 -0.8633
  125MOL0     C16746   3.943   5.247   2.175 -0.6786  1.8957 -0.8139
  125MOL0     C16747   3.877   5.127   2.120 -0.7079 -0.6176  0.2362
  125MOL0     O16748   3.763   5.078   2.175  0.9213  0.2965  0.5186
  125MOL0     C16749   3.648   5.131   2.113  0.0057 -0.0452  0.2827
  125MOL0     C16750   3.522   5.067   2.166  0.9004  0.0651 -0.2080
  125MOL0     C16751   3.392   5.108   2.098 -0.2695  0.4465 -0.0487
  125MOL0     C16752   3.272   5.073   2.192  0.0377  0.1332 -0.0924
  125MOL0     C16753   3.149   5.076   2.108 -0.0790  0.8215 -0.2874
  125MOL0     C16754   3.138   4.956   2.004 -0.4055 -0.0791 -0.3087
  125MOL0     C16755   3.001   4.945   1.952  0.8486  0.3712 -0.4019
  125MOL0     C16756   2.898   4.883   2.043  0.6609 -0.5503  0.1015
  125MOL0     N16757   2.924   4.737   2.067 -0.3443  0.0999  0.1022
  125MOL0     C16758   2.866   4.671   2.169  0.4329  0.1726 -0.5616
  125MOL0     C16759   2.868   4.537   2.138 -0.0314 -0.4736 -0.3338
  125MOL0     C16760   2.824   4.407   2.214 -0.0503 -0.3042 -0.0501
  125MOL0     C16761   2.683   4.370   2.183  0.5080 -0.6710  0.2086
  125MOL0     C16762   2.628   4.273   2.297 -0.5894 -0.6921  0.4279
  125MOL0     C16763   2.475   4.288   2.304 -0.3397 -0.6971 -0.0500
  125MOL0     O16764   2.430   4.180   2.381  0.1700 -0.4098 -0.0618
  125MOL0     C16765   2.291   4.166   2.381  0.3812 -0.1223 -0.1812
  125MOL0     C16766   2.226   4.067   2.463  0.1771  0.2602  0.6315
  125MOL0     C16767   2.084   4.060   2.479 -0.6901 -0.5544 -0.3924
  125MOL0     C16768   2.036   3.943   2.570 -0.4072 -0.3723 -0.1362
  125MOL0     C16769   2.002   4.150   2.403  0.0764  1.0914 -0.2926
  125MOL0     C16770   1.853   4.144   2.410 -0.0268  0.5399 -0.0187
  125MOL0     O16771   1.791   4.198   2.303 -0.9383  0.5365  0.2905
  125MOL0     C16772   1.658   4.192   2.306 -0.2172  0.0380  0.6561
  125MOL0     C16773   1.596   4.074   2.274  0.5695  0.5770  0.3587
  125MOL0     C16774   1.457   4.065   2.273 -0.0375  0.0948  0.1900
  125MOL0     C16775   1.383   4.175   2.306 -0.5137 -0.0711  0.0279
  125MOL0     O16776   1.244   4.161   2.306  0.5813 -0.4341 -1.0516
  125MOL0     C16777   1.159   4.260   2.248 -0.2131 -1.1150 -0.2348
  125MOL0     C16778   1.019   4.212   2.280  0.7880  0.0562 -0.3884
  125MOL0     C16779   0.914   4.290   2.192  0.9203  0.3201 -0.4860
  125MOL0     C16780   0.771   4.223   2.207  0.7215  0.4636  0.2154
  125MOL0     C16781   0.655   4.301   2.140  0.5963 -0.3180 -0.8718
  125MOL0     C16782   0.526   4.224   2.168 -1.0151 -0.0804 -0.2701
  125MOL0     C16783   0.415   4.250   2.076 -0.1725 -0.7899  0.5443
  125MOL0     C16784   0.297   4.174   2.107  0.1016 -0.0478  0.2598
  125MOL0    Cl16785   0.314   4.014   2.019  0.6260 -0.0973  0.0958
  125MOL0     C16786   1.444   4.300   2.339  0.0563  0.2205 -0.1729
  125MOL0     C16787   1.585   4.308   2.333 -0.9049  1.0272 -1.1760
  125MOL0     O16788   1.804   4.098   2.513  0.0152  0.2057  0.3110
  125MOL0     C16789   2.069   4.242   2.314 -0.5839  0.0119 -0.1773
  125MOL0     C16790   2.210   4.254   2.308  0.5007  0.3724 -0.3616
  125MOL0     N16791   2.921   4.533   2.008  0.3173  1.1916  0.3427
  125MOL0     N16792   2.949   4.650   1.967 -0.2406 -0.0867  0.4223
  125MOL0     C16793   3.939   5.065   2.006 -0.4328 -0.7462  0.0533
  125MOL0     C16794   4.053   5.119   1.945  0.2069  0.2019  0.0862
  125MOL0     C16795   4.449   5.336   1.914  0.1341 -0.8127 -0.6376
  125MOL0     C16796   4.434   5.469   1.859 -1.4427 -0.3520  0.9268
  125MOL0     C16797   4.543   5.525   1.784 -0.2255  1.0878  1.2050
  125MOL0     C16798   4.661   5.448   1.754 -0.0750 -1.0793 -0.1395
  125MOL0     O16799   4.763   5.497   1.672  0.7987 -0.5688 -0.9517
  125MOL0     C16800   4.812   5.415   1.568  0.8103 -0.0341 -0.8122
  125MOL0     C16801   4.818   5.499   1.441  0.9500  0.4688 -0.8659
  125MOL0     C16802   4.761   5.443   1.313 -0.1818  0.7474  0.2240
  125MOL0     C16803   4.604   5.454   1.313  0.5047 -0.4015  0.7199
  125MOL0     C16804   4.537   5.348   1.383  0.0655 -0.1367 -0.1791
  125MOL0     C16805   4.492   5.264   1.453  0.0787 -0.2531  0.4899
  125MOL0     C16806   4.676   5.322   1.819 -0.2296 -0.1472 -0.6156
  125MOL0     C16807   4.572   5.269   1.899 -0.1179 -0.2169  0.0024
  125MOL0     H16808   4.112   5.378   2.155 -1.2741  0.6995  0.5759
  125MOL0     H16809   3.910   5.297   2.265  0.5450  0.7434  0.3272
  125MOL0     H16810   3.644   5.240   2.123 -0.3212 -0.0842  0.5898
  125MOL0     H16811   3.649   5.107   2.006 -1.1214 -1.9617  0.6448
  125MOL0     H16812   3.532   4.960   2.147  0.4499  0.3577 -2.3325
  125MOL0     H16813   3.516   5.102   2.270 -0.1848 -1.9093  0.4334
  125MOL0     H16814   3.392   5.216   2.077  0.4862  1.3323  3.7053
  125MOL0     H16815   3.387   5.065   1.997  0.1387 -0.5127  0.3344
  125MOL0     H16816   3.285   4.973   2.236 -1.2468 -0.0209 -0.0181
  125MOL0     H16817   3.277   5.159   2.260  2.9094  0.9816 -1.2081
  125MOL0     H16818   3.063   5.069   2.175 -1.0918 -0.9699 -1.6861
  125MOL0     H16819   3.144   5.170   2.051  4.6888  0.5356 -1.5828
  125MOL0     H16820   3.199   4.969   1.915  1.3466 -2.5064  0.4509
  125MOL0     H16821   3.175   4.863   2.047  0.6129  0.0365 -0.9077
  125MOL0     H16822   2.957   5.043   1.929  3.7307  3.0745  3.9936
  125MOL0     H16823   3.014   4.879   1.866 -2.1507 -1.1276  0.1903
  125MOL0     H16824   2.800   4.901   1.998  1.0177  1.7331  0.0885
  125MOL0     H16825   2.889   4.925   2.143  1.2765  0.6005 -0.2991
  125MOL0     H16826   2.812   4.715   2.251 -0.1360 -2.2488  0.4596
  125MOL0     H16827   2.881   4.317   2.189  0.7626 -0.3714  1.8328
  125MOL0     H16828   2.836   4.434   2.320  3.5702 -3.3514  0.5472
  125MOL0     H16829   2.686   4.322   2.084 -0.2903  0.3416 -0.3253
  125MOL0     H16830   2.616   4.455   2.165 -0.0017 -1.1789 -0.3558
  125MOL0     H16831   2.659   4.319   2.391 -1.6448 -0.9470  0.9045
  125MOL0     H16832   2.653   4.167   2.304  0.9090 -0.3027  1.6123
  125MOL0     H16833   2.432   4.298   2.205 -2.8456 -0.0254  1.0401
  125MOL0     H16834   2.439   4.379   2.353 -3.7065  0.1498 -3.6551
  125MOL0     H16835   2.284   4.009   2.534  1.8134  0.7428 -0.2426
  125MOL0     H16836   2.097   3.853   2.555 -1.0223 -0.7155 -0.6386
  125MOL0     H16837   2.037   3.972   2.675  1.9704  2.5386 -0.8369
  125MOL0     H16838   1.942   3.907   2.527 -0.8229 -0.0244  0.4676
  125MOL0     H16839   1.655   3.992   2.234  2.3801  1.4788  1.0318
  125MOL0     H16840   1.399   3.980   2.236  0.2106  0.4120 -0.9746
  125MOL0     H16841   1.162   4.362   2.287  2.0384 -1.0003 -0.5631
  125MOL0     H16842   1.179   4.256   2.140  1.8887  0.3518  0.0405
  125MOL0     H16843   1.018   4.106   2.256  1.6508  0.5197 -2.7638
  125MOL0     H16844   0.995   4.216   2.387  0.4301  1.4395 -0.4944
  125MOL0     H16845   0.936   4.306   2.087  0.6524  2.5094 -0.2451
  125MOL0     H16846   0.913   4.390   2.235  2.4602 -0.6151  1.9497
  125MOL0     H16847   0.783   4.120   2.175 -0.6398  1.0279 -2.3959
  125MOL0     H16848   0.764   4.224   2.317  0.1092 -1.9489  0.2512
  125MOL0     H16849   0.675   4.304   2.033  1.3550  1.8491 -0.7211
  125MOL0     H16850   0.638   4.404   2.170  1.4584  0.3751 -2.6163
  125MOL0     H16851   0.557   4.119   2.162  1.9482  0.6690  0.3198
  125MOL0     H16852   0.506   4.241   2.274 -0.3295 -4.7996  0.8233
  125MOL0     H16853   0.444   4.237   1.972  0.9673 -2.5679  1.0585
  125MOL0     H16854   0.388   4.356   2.082 -1.5465 -0.9116 -2.0220
  125MOL0     H16855   0.210   4.228   2.069  1.2732  1.7652  0.0218
  125MOL0     H16856   0.289   4.150   2.213  0.9727 -1.7503 -0.0069
  125MOL0     H16857   1.378   4.380   2.371  0.6796  0.6896 -0.0186
  125MOL0     H16858   1.637   4.397   2.367  0.5319 -0.7336  1.6068
  125MOL0     H16859   2.023   4.315   2.248  0.5396 -0.2993 -1.3618
  125MOL0     H16860   2.243   4.341   2.251 -0.2685 -0.1834 -1.7010
  125MOL0     H16861   3.907   4.968   1.970  0.3035 -1.3664  1.0208
  125MOL0     H16862   4.109   5.088   1.858  1.5128  1.7261  0.3283
  125MOL0     H16863   4.345   5.529   1.872 -0.8470  0.1757  2.9479
  125MOL0     H16864   4.523   5.613   1.723 -2.4047 -0.1910 -0.0467
  125MOL0     H16865   4.908   5.392   1.614 -0.5626  1.6192  3.2757
  125MOL0     H16866   4.749   5.331   1.537  1.3070  1.1923 -6.0476
  125MOL0     H16867   4.921   5.535   1.438  0.7636  1.1788  0.4298
  125MOL0     H16868   4.766   5.594   1.457 -1.7705 -1.0361 -0.1056
  125MOL0     H16869   4.777   5.337   1.293  1.9862  0.5448  2.5544
  125MOL0     H16870   4.801   5.498   1.228 -2.5338 -0.4595 -1.8033
  125MOL0     H16871   4.557   5.436   1.215  0.1807 -1.0944  0.9978
  125MOL0     H16872   4.564   5.551   1.343 -0.4398 -0.8388  0.9246
  125MOL0     H16873   4.445   5.201   1.525  0.8512  0.6318  1.7991
  125MOL0     H16874   4.765   5.262   1.808 -0.8269 -1.7161  2.0724
  125MOL0     H16875   4.590   5.179   1.957  0.5024 -2.0583 -2.8553
  126MOL0     O16876   7.235   3.555   2.458  0.1226  0.0835 -0.5458
  126MOL0     C16877   7.278   3.634   2.542 -0.3821  0.8097  0.9509
  126MOL0     O16878   7.199   3.703   2.632  0.2006 -0.6855 -0.4419
  126MOL0     C16879   7.061   3.717   2.606  0.0771  0.4028  0.7239
  126MOL0     C16880   7.017   3.727   2.467  0.8686  0.1287  0.5487
  126MOL0     C16881   6.886   3.768   2.443 -0.0811  0.8911  1.0384
  126MOL0     C16882   6.797   3.792   2.549  0.1963  0.2311  0.1032
  126MOL0     O16883   6.669   3.815   2.531  0.4575  0.6562 -0.1398
  126MOL0     C16884   6.576   3.719   2.575  0.4689  0.5879 -0.5210
  126MOL0     C16885   6.487   3.669   2.464  0.7314  1.1190 -0.3648
  126MOL0     C16886   6.344   3.719   2.487 -1.0456 -0.5473 -0.0718
  126MOL0     C16887   6.261   3.615   2.408 -0.7369  0.2797 -0.0580
  126MOL0     C16888   6.108   3.652   2.407  0.1805 -0.2871  0.1503
  126MOL0     C16889   6.066   3.753   2.298  0.2746 -0.1366 -0.3418
  126MOL0     C16890   5.918   3.788   2.304 -0.5629  0.3216 -0.1487
  126MOL0     C16891   5.835   3.700   2.211 -0.0428 -0.2646 -0.5144
  126MOL0     N16892   5.690   3.728   2.222 -0.0205  0.0327 -0.6816
  126MOL0     C16893   5.631   3.850   2.192 -0.9530  0.9126 -0.4670
  126MOL0     C16894   5.508   3.829   2.218  0.5728 -0.0500 -0.4090
  126MOL0     C16895   5.410   3.942   2.182  0.2701 -0.0931  0.9354
  126MOL0     C16896   5.421   4.058   2.281  0.3049  0.4614 -0.0498
  126MOL0     C16897   5.325   4.169   2.233 -0.7616  1.6812 -0.2007
  126MOL0     C16898   5.186   4.130   2.273  0.5193 -0.4820  0.4086
  126MOL0     O16899   5.101   4.244   2.243 -0.1667  0.9048  0.3468
  126MOL0     C16900   4.971   4.227   2.270  0.7655  0.5025  1.0129
  126MOL0     C16901   4.931   4.134   2.369  0.8751  0.4030  0.4676
  126MOL0     C16902   4.797   4.110   2.392  0.1592 -0.2492  0.0910
  126MOL0     C16903   4.762   4.014   2.502 -0.3380 -0.2023  0.3211
  126MOL0     C16904   4.694   4.169   2.313 -0.4273  0.8529  0.1938
  126MOL0     C16905   4.552   4.152   2.329  0.7040  0.4704  0.2339
  126MOL0     O16906   4.475   4.143   2.203 -1.2294 -0.4897 -0.3213
  126MOL0     C16907   4.332   4.131   2.202 -0.5471  0.1047  0.4418
  126MOL0     C16908   4.290   4.113   2.071  1.3244  0.5886  0.7582
  126MOL0     C16909   4.154   4.110   2.044 -0.3503 -0.8521 -0.0211
  126MOL0     C16910   4.057   4.117   2.138  0.0723 -0.0905  0.0169
  126MOL0     O16911   3.920   4.114   2.107 -0.5365 -0.1927  0.9059
  126MOL0     C16912   3.869   4.121   1.978 -0.6689  0.3291  0.0215
  126MOL0     C16913   3.821   3.983   1.934  0.5674  0.7128 -0.1726
  126MOL0     C16914   3.936   3.880   1.904 -0.0047  0.5074 -0.3645
  126MOL0     C16915   3.876   3.740   1.888 -0.7920 -0.8221  0.2382
  126MOL0     C16916   3.986   3.647   1.852 -0.7316  0.1331  0.1803
  126MOL0     C16917   3.968   3.506   1.910 -0.4019 -0.7512  0.0564
  126MOL0     C16918   4.084   3.409   1.885 -0.1127 -0.1890  0.2789
  126MOL0     C16919   4.087   3.373   1.736 -0.2768 -0.0024 -0.3858
  126MOL0    Cl16920   4.202   3.231   1.726 -0.2686  0.1693  0.2311
  126MOL0     C16921   4.095   4.130   2.267  0.8525  0.0302  0.6460
  126MOL0     C16922   4.237   4.139   2.309 -0.2223  1.0328  0.1089
  126MOL0     O16923   4.498   4.145   2.438 -0.3710 -0.0092 -1.2117
  126MOL0     C16924   4.732   4.262   2.215 -0.9137  0.1770 -0.5797
  126MOL0     C16925   4.868   4.293   2.194 -0.4463  1.0697 -0.9164
  126MOL0     N16926   5.486   3.694   2.247  0.7338  0.5596 -0.4938
  126MOL0     N16927   5.598   3.636   2.257 -0.9246  0.9286 -0.3767
  126MOL0     C16928   6.847   3.766   2.679 -0.7351  0.2183  0.5722
  126MOL0     C16929   6.974   3.736   2.705 -1.5238  0.5808 -0.7909
  126MOL0     C16930   7.420   3.629   2.567 -0.4602 -0.8467  0.6313
  126MOL0     C16931   7.470   3.734   2.645  0.6500  0.4006 -0.3766
  126MOL0     C16932   7.602   3.738   2.660  0.5596  0.4127  0.0693
  126MOL0     C16933   7.695   3.642   2.619 -1.0490 -0.4090 -0.6331
  126MOL0     O16934   7.833   3.660   2.625  0.4301  0.3821 -0.9624
  126MOL0     C16935   7.891   3.725   2.739  0.1430  0.4717 -0.0187
  126MOL0     C16936   8.042   3.721   2.750 -0.5383 -0.7261  0.4872
  126MOL0     C16937   8.088   3.577   2.805 -0.1071 -0.3164 -0.0678
  126MOL0     C16938   8.236   3.546   2.770  0.1126 -0.1868 -0.0035
  126MOL0     C16939   8.329   3.646   2.826  0.7193  0.7796 -0.3838
  126MOL0     C16940   8.416   3.723   2.863  0.7024 -0.4195 -0.6419
  126MOL0     C16941   7.645   3.542   2.539 -1.1758 -0.1684  0.1109
  126MOL0     C16942   7.508   3.530   2.521  0.0709  0.6588 -0.3137
  126MOL0     H16943   7.069   3.719   2.372  1.1907  4.7670  0.0962
  126MOL0     H16944   6.851   3.789   2.343  1.5189  0.6077  0.3863
  126MOL0     H16945   6.629   3.630   2.611  1.7395  0.4422 -2.5860
  126MOL0     H16946   6.532   3.759   2.666 -0.2903 -0.4567 -0.4195
  126MOL0     H16947   6.523   3.700   2.365 -0.2661  2.5667 -0.3128
  126MOL0     H16948   6.489   3.561   2.477  1.9630  0.9412 -1.7191
  126MOL0     H16949   6.303   3.712   2.588 -0.5750  0.6138  0.2162
  126MOL0     H16950   6.337   3.825   2.461  1.1950 -0.5075 -0.7974
  126MOL0     H16951   6.293   3.591   2.306 -2.3363  0.9935 -0.7781
  126MOL0     H16952   6.272   3.522   2.463  1.5841 -0.0551 -0.9576
  126MOL0     H16953   6.051   3.560   2.400 -2.5580  1.3987 -1.0801
  126MOL0     H16954   6.083   3.683   2.510  1.1871 -0.8491  0.5836
  126MOL0     H16955   6.118   3.848   2.315  0.8736 -0.7302  1.3969
  126MOL0     H16956   6.103   3.699   2.211  0.0115  2.4177 -2.1786
  126MOL0     H16957   5.886   3.772   2.407 -1.0126  1.1489 -0.1459
  126MOL0     H16958   5.894   3.892   2.280 -2.2468  0.4184  1.7334
  126MOL0     H16959   5.864   3.596   2.230  2.1676  0.5605  0.9050
  126MOL0     H16960   5.865   3.725   2.109 -1.1918  0.4726 -0.6878
  126MOL0     H16961   5.670   3.939   2.144  4.2666 -0.8833 -0.2046
  126MOL0     H16962   5.426   3.980   2.081 -2.8629  2.5452  1.2715
  126MOL0     H16963   5.305   3.914   2.189 -0.0088  1.1267  2.0061
  126MOL0     H16964   5.520   4.105   2.281  0.8879 -0.6545  2.3508
  126MOL0     H16965   5.384   4.022   2.377 -0.9084 -1.1399 -1.0598
  126MOL0     H16966   5.332   4.193   2.127  0.7095  1.1394 -0.2528
  126MOL0     H16967   5.348   4.264   2.283 -1.2143  2.5613 -1.6229
  126MOL0     H16968   5.193   4.120   2.382 -0.4863 -2.8750  0.3115
  126MOL0     H16969   5.146   4.039   2.228  1.6631 -0.2862 -1.0738
  126MOL0     H16970   5.004   4.089   2.436  0.2825 -0.5741  0.4750
  126MOL0     H16971   4.692   3.940   2.462 -2.6475  1.9975  0.0362
  126MOL0     H16972   4.849   3.960   2.540 -0.3790 -0.6151 -0.1482
  126MOL0     H16973   4.707   4.072   2.576 -1.0753  1.0717 -1.1583
  126MOL0     H16974   4.353   4.096   1.984  0.4554  0.4785  0.1325
  126MOL0     H16975   4.125   4.103   1.939  0.9336  0.1127 -0.4672
  126MOL0     H16976   3.784   4.190   1.974 -0.0934  1.1015  0.8130
  126MOL0     H16977   3.939   4.162   1.905 -0.8420  2.2168  0.8529
  126MOL0     H16978   3.759   3.949   2.018  0.2790  1.5070 -0.0510
  126MOL0     H16979   3.746   3.993   1.856  2.1461  2.0260 -1.5902
  126MOL0     H16980   4.002   3.881   1.991  0.8755 -3.4071 -0.7675
  126MOL0     H16981   3.997   3.918   1.822 -0.6092  0.8976 -0.6389
  126MOL0     H16982   3.836   3.720   1.988 -0.6561 -1.1770  0.2247
  126MOL0     H16983   3.789   3.746   1.822 -1.1677 -3.5607  0.3536
  126MOL0     H16984   4.081   3.677   1.897 -0.3658  1.5302 -1.4265
  126MOL0     H16985   4.003   3.645   1.744  0.1139  1.7694  0.2458
  126MOL0     H16986   3.956   3.513   2.018 -3.2070  1.0360 -0.2647
  126MOL0     H16987   3.875   3.461   1.875 -0.5114 -0.5705  0.1131
  126MOL0     H16988   4.064   3.312   1.931 -2.3469  0.2423  0.3177
  126MOL0     H16989   4.179   3.453   1.915 -0.2089  1.3952 -1.5226
  126MOL0     H16990   4.127   3.455   1.676 -2.8702  0.0622 -2.1760
  126MOL0     H16991   3.989   3.342   1.697  1.0225 -3.0062 -1.5398
  126MOL0     H16992   4.017   4.147   2.341  1.8798 -0.4101  1.8706
  126MOL0     H16993   4.274   4.164   2.408  1.0950  1.3306 -0.4350
  126MOL0     H16994   4.655   4.304   2.152  0.8501  2.7851 -1.1452
  126MOL0     H16995   4.907   4.357   2.115  2.0892  0.6878 -0.0569
  126MOL0     H16996   6.787   3.785   2.768  0.2205  1.4249  0.9852
  126MOL0     H16997   6.994   3.737   2.811 -1.2070  1.0215 -0.8504
  126MOL0     H16998   7.402   3.812   2.678 -2.7446 -1.5672 -2.2306
  126MOL0     H16999   7.645   3.817   2.721 -2.8613  0.8564  2.1760
  126MOL0     H17000   7.867   3.829   2.716  1.3848  0.0559 -3.8482
  126MOL0     H17001   7.848   3.683   2.830  1.0841 -2.1433 -0.6939
  126MOL0     H17002   8.083   3.784   2.830  2.1811 -0.8204 -0.7221
  126MOL0     H17003   8.093   3.764   2.663  0.5768 -3.9865 -0.6355
  126MOL0     H17004   8.026   3.498   2.761 -0.9191  0.0095  0.4540
  126MOL0     H17005   8.066   3.575   2.912 -2.3931  2.0020 -0.3727
  126MOL0     H17006   8.244   3.541   2.661 -2.3424  0.6043 -0.2860
  126MOL0     H17007   8.264   3.447   2.809  0.4508 -0.8680 -1.8649
  126MOL0     H17008   8.500   3.778   2.900  1.2769 -1.7511  0.0870
  126MOL0     H17009   7.722   3.477   2.498  0.0817  0.3319  1.5509
  126MOL0     H17010   7.486   3.434   2.476 -0.2199 -0.8431  2.7543
  127MOL0     O17011  10.624   8.549   5.473  0.3418 -0.1987 -0.1010
  127MOL0     C17012  10.725   8.501   5.417  0.9371  0.3915 -0.2163
  127MOL0     O17013  10.734   8.446   5.294 -0.2498 -0.2326 -0.1660
  127MOL0     C17014  10.619   8.442   5.211 -0.1394  0.1308  0.7053
  127MOL0     C17015  10.570   8.317   5.165 -0.1555 -0.2738 -0.0481
  127MOL0     C17016  10.456   8.305   5.082 -0.9456  0.5407  0.6671
  127MOL0     C17017  10.396   8.420   5.042 -0.2415 -0.2547  1.7151
  127MOL0     O17018  10.303   8.421   4.935 -0.3843 -0.0305 -0.9673
  127MOL0     C17019  10.168   8.404   4.996  0.1393  0.2633  0.1893
  127MOL0     C17020  10.121   8.538   5.028  0.3924  0.7361  0.5370
  127MOL0     C17021   9.970   8.547   5.060  0.2500  0.8411  0.7370
  127MOL0     C17022   9.916   8.689   5.058  0.5801  0.4361 -0.5716
  127MOL0     C17023   9.767   8.689   5.046  0.7624  0.0477 -0.0683
  127MOL0     C17024   9.682   8.585   5.114  0.1046 -0.1730  0.2329
  127MOL0     C17025   9.531   8.614   5.132 -0.6562 -0.4084 -1.3821
  127MOL0     C17026   9.503   8.735   5.229  0.0378  0.9909  0.7103
  127MOL0     N17027   9.361   8.761   5.214 -0.5255 -0.5377 -0.2355
  127MOL0     C17028   9.317   8.870   5.147  0.1200 -0.8103  0.3912
  127MOL0     C17029   9.184   8.894   5.184 -0.2509 -0.4785  0.5480
  127MOL0     C17030   9.101   9.009   5.161  0.0443 -0.8607  0.0945
  127MOL0     C17031   9.037   8.996   5.028 -0.2040  0.2045  0.2027
  127MOL0     C17032   8.905   9.067   5.009 -0.4706 -0.5693 -0.3747
  127MOL0     C17033   8.788   8.994   5.057  0.2013  0.0953 -0.2822
  127MOL0     O17034   8.668   9.064   5.022  0.0614  0.2776 -0.5564
  127MOL0     C17035   8.544   9.010   5.050 -0.2939 -0.2011  0.2435
  127MOL0     C17036   8.513   8.890   5.110  0.4657 -0.7665 -0.7691
  127MOL0     C17037   8.380   8.848   5.139 -0.4962  0.6371 -0.5469
  127MOL0     C17038   8.358   8.717   5.211 -0.0396  0.7401 -0.4770
  127MOL0     C17039   8.265   8.929   5.093 -0.2225  0.3546 -0.4253
  127MOL0     C17040   8.122   8.907   5.131 -0.3946  0.3057 -0.3473
  127MOL0     O17041   8.074   8.783   5.181 -0.4509 -0.0681  1.0462
  127MOL0     C17042   7.948   8.748   5.215  1.1774  0.2869 -0.3866
  127MOL0     C17043   7.932   8.623   5.276  0.5229  0.3610 -0.8354
  127MOL0     C17044   7.810   8.568   5.319  0.1558  0.3420  0.3683
  127MOL0     C17045   7.697   8.651   5.320  0.5702 -0.0447  0.0600
  127MOL0     O17046   7.581   8.615   5.384  0.7097 -0.4214  0.3378
  127MOL0     C17047   7.461   8.669   5.340 -1.4254  1.1072 -0.3537
  127MOL0     C17048   7.344   8.617   5.429 -0.1929 -0.9588 -0.8643
  127MOL0     C17049   7.333   8.466   5.419 -0.5212 -0.0071 -0.1702
  127MOL0     C17050   7.179   8.421   5.389 -0.0907 -0.4110  0.3509
  127MOL0     C17051   7.171   8.270   5.357 -0.4252 -0.8486  0.3332
  127MOL0     C17052   7.023   8.227   5.350  0.2915 -0.0971 -0.0952
  127MOL0     C17053   7.017   8.074   5.357  0.6676  0.8623 -0.7225
  127MOL0     C17054   6.896   8.022   5.275  0.0329  0.5728 -1.0020
  127MOL0    Cl17055   6.754   8.109   5.354 -0.4518  0.2315 -0.4233
  127MOL0     C17056   7.711   8.770   5.247  0.5696 -0.2607 -0.6431
  127MOL0     C17057   7.829   8.817   5.197 -0.6325  0.1114  0.8127
  127MOL0     O17058   8.055   9.007   5.111  0.0300 -0.0506 -0.0077
  127MOL0     C17059   8.301   9.045   5.017 -0.4941 -0.7389  0.2017
  127MOL0     C17060   8.441   9.085   4.998  0.4858  0.0043 -0.4627
  127MOL0     N17061   9.159   8.788   5.270 -0.5723  0.0719 -0.3228
  127MOL0     N17062   9.263   8.711   5.287  0.0573 -0.2968  0.2489
  127MOL0     C17063  10.443   8.546   5.087  0.2080 -0.3362 -0.6832
  127MOL0     C17064  10.543   8.558   5.180  0.0450 -0.1911  0.6377
  127MOL0     C17065  10.842   8.493   5.503  0.9803 -0.8190 -1.0396
  127MOL0     C17066  10.947   8.418   5.456 -0.8732 -0.6687 -0.6752
  127MOL0     C17067  11.060   8.407   5.541 -0.4344  0.2540 -0.4983
  127MOL0     C17068  11.064   8.461   5.666 -0.3061  0.2704  0.2149
  127MOL0     O17069  11.173   8.445   5.755  0.7773 -0.7989  0.5473
  127MOL0     C17070  11.288   8.377   5.710 -0.2657 -0.7805  0.8079
  127MOL0     C17071  11.404   8.402   5.804 -0.1212 -0.2821 -0.4457
  127MOL0     C17072  11.392   8.309   5.929 -0.1540  0.0111 -0.3863
  127MOL0     C17073  11.500   8.336   6.031  0.2727  0.2886 -0.1930
  127MOL0     C17074  11.632   8.291   5.992 -0.2869  0.2599  0.2437
  127MOL0     C17075  11.741   8.280   5.943  0.6108  0.0711  0.0839
  127MOL0     C17076  10.966   8.544   5.713  0.3194  0.9340 -0.5019
  127MOL0     C17077  10.851   8.569   5.628  0.2562  0.0637 -0.6214
  127MOL0     H17078  10.640   8.235   5.179  0.3702  0.6038  3.1398
  127MOL0     H17079  10.435   8.203   5.050 -2.4209  1.1273 -0.2991
  127MOL0     H17080  10.101   8.354   4.925  1.0650  0.7107 -1.0209
  127MOL0     H17081  10.181   8.339   5.083  1.9945 -0.3038 -0.4817
  127MOL0     H17082  10.168   8.584   5.115 -0.9229  3.8893 -0.2967
  127MOL0     H17083  10.130   8.605   4.943 -4.5680 -0.4385 -1.2916
  127MOL0     H17084   9.908   8.484   4.995  0.8155 -0.7409  1.6461
  127MOL0     H17085   9.944   8.503   5.158  0.1118 -0.5273  0.1121
  127MOL0     H17086   9.950   8.744   5.146 -2.8675 -1.6805  2.3798
  127MOL0     H17087   9.953   8.733   4.965 -0.4587  1.5485 -0.4684
  127MOL0     H17088   9.730   8.785   5.083  0.4866 -0.0738 -0.0290
  127MOL0     H17089   9.754   8.697   4.937  6.0190  1.5141 -0.8987
  127MOL0     H17090   9.685   8.496   5.051 -2.3273  0.1176 -0.3924
  127MOL0     H17091   9.724   8.554   5.210 -3.7356 -3.6435  1.0618
  127MOL0     H17092   9.492   8.633   5.031 -0.9321  1.2333 -0.9829
  127MOL0     H17093   9.473   8.531   5.174 -0.8478 -0.2913 -1.4146
  127MOL0     H17094   9.565   8.824   5.210 -1.0258  1.5213 -0.3840
  127MOL0     H17095   9.514   8.700   5.332 -0.2330  0.4622  0.5614
  127MOL0     H17096   9.367   8.942   5.082  0.2172 -1.2527 -0.0276
  127MOL0     H17097   9.027   9.018   5.241 -0.3235 -3.9305  0.2324
  127MOL0     H17098   9.170   9.092   5.148  1.7638 -2.6197 -3.9004
  127MOL0     H17099   9.017   8.889   5.011  0.7125 -0.1122  1.0230
  127MOL0     H17100   9.107   9.038   4.956  1.7171  2.0055  2.9187
  127MOL0     H17101   8.891   9.094   4.904 -2.3917  0.1590  0.0225
  127MOL0     H17102   8.915   9.165   5.056  2.4210 -0.7927 -0.3598
  127MOL0     H17103   8.797   8.981   5.165  0.8727  2.0634 -0.0577
  127MOL0     H17104   8.788   8.890   5.022  2.3640 -0.7350  1.9148
  127MOL0     H17105   8.598   8.832   5.144  1.4106  0.8102 -0.3383
  127MOL0     H17106   8.450   8.687   5.262  0.9468  1.3161 -1.8544
  127MOL0     H17107   8.288   8.728   5.294 -0.7430  2.1573 -1.2097
  127MOL0     H17108   8.330   8.646   5.134  0.4713 -0.9945  0.8668
  127MOL0     H17109   8.023   8.564   5.278 -0.1323 -0.6881 -1.1218
  127MOL0     H17110   7.813   8.467   5.358  2.0683  0.0025 -0.5531
  127MOL0     H17111   7.468   8.777   5.360 -1.3964  1.4502 -2.0828
  127MOL0     H17112   7.444   8.655   5.233 -2.3667 -0.6697 -0.0005
  127MOL0     H17113   7.351   8.649   5.534  1.5974 -1.6125 -0.7536
  127MOL0     H17114   7.262   8.670   5.379  1.6038  0.8236 -2.0782
  127MOL0     H17115   7.372   8.419   5.510  0.2586 -0.3274 -0.6548
  127MOL0     H17116   7.399   8.437   5.337  2.6877  0.0321  2.1951
  127MOL0     H17117   7.127   8.443   5.482  2.2515  2.9989  1.0440
  127MOL0     H17118   7.141   8.476   5.302 -0.9688  2.1290  2.2161
  127MOL0     H17119   7.227   8.222   5.437  1.7173 -0.3231 -0.7658
  127MOL0     H17120   7.223   8.249   5.263 -0.5197  0.9182 -0.1520
  127MOL0     H17121   6.957   8.267   5.427  1.4432  1.4708  0.1211
  127MOL0     H17122   6.997   8.261   5.249 -2.1213  2.1995  1.2019
  127MOL0     H17123   6.990   8.052   5.461 -0.9392 -1.3883 -1.5289
  127MOL0     H17124   7.115   8.039   5.322  0.5265  1.2031 -1.4640
  127MOL0     H17125   6.887   7.918   5.307  2.1825  0.4213 -0.7292
  127MOL0     H17126   6.894   8.041   5.167 -0.2011  0.8544 -0.9503
  127MOL0     H17127   7.626   8.835   5.228  1.1427  1.3346  1.7748
  127MOL0     H17128   7.835   8.917   5.157 -1.9992  0.1251  0.6126
  127MOL0     H17129   8.232   9.118   4.975  1.7202  1.3776  0.0163
  127MOL0     H17130   8.457   9.177   4.941 -3.3842  2.0801  1.3989
  127MOL0     H17131  10.387   8.633   5.055 -3.6534 -2.3089  0.0811
  127MOL0     H17132  10.581   8.650   5.224  2.6722 -0.6940 -0.3774
  127MOL0     H17133  10.950   8.374   5.356 -2.6573  1.8398 -1.9618
  127MOL0     H17134  11.146   8.351   5.505 -1.0385  0.4428 -2.3344
  127MOL0     H17135  11.265   8.270   5.710 -3.8683 -0.1674 -0.3817
  127MOL0     H17136  11.311   8.407   5.607 -2.2803 -1.0142  0.2272
  127MOL0     H17137  11.418   8.508   5.829  3.0802  0.0295 -2.8613
  127MOL0     H17138  11.493   8.369   5.750 -2.1208 -2.6374 -2.5350
  127MOL0     H17139  11.406   8.206   5.895 -2.2242 -0.6091  0.4619
  127MOL0     H17140  11.292   8.329   5.969  0.5677  0.3786  1.3181
  127MOL0     H17141  11.468   8.284   6.121  1.0971 -0.8188 -0.5121
  127MOL0     H17142  11.511   8.445   6.039 -0.9265  0.3118  1.6884
  127MOL0     H17143  11.846   8.270   5.924  1.0990  0.3356  2.3019
  127MOL0     H17144  10.977   8.589   5.811  1.8762 -1.3832  0.4738
  127MOL0     H17145  10.765   8.624   5.665  0.5526  0.1979 -0.1150
  128MOL0     O17146   0.814   9.485   3.829  0.2501 -0.1338 -0.3493
  128MOL0     C17147   0.868   9.593   3.788  0.7932  0.4382 -0.5946
  128MOL0     O17148   0.794   9.706   3.758  0.0595 -0.1459  0.4777
  128MOL0     C17149   0.655   9.701   3.732  0.6696  0.2106 -0.5628
  128MOL0     C17150   0.593   9.802   3.661  0.1406  0.6461  0.0495
  128MOL0     C17151   0.454   9.821   3.659 -0.4819 -1.1202  0.4502
  128MOL0     C17152   0.362   9.735   3.725 -0.0723 -0.9896  0.7648
  128MOL0     O17153   0.224   9.733   3.725  0.1877  0.9425  0.5538
  128MOL0     C17154   0.157   9.836   3.665 -0.1540  0.2058 -0.2556
  128MOL0     C17155   0.011   9.841   3.715 -0.1794  0.0161  0.3094
  128MOL0     C17156  -0.062   9.726   3.647 -1.2765 -0.5197  0.1785
  128MOL0     C17157  -0.209   9.750   3.664 -0.1001 -0.1644  0.0547
  128MOL0     C17158  -0.310   9.647   3.607 -0.5205  0.6576  0.6177
  128MOL0     C17159  -0.447   9.721   3.615 -0.3731 -0.6408 -0.1800
  128MOL0     C17160  -0.564   9.618   3.625 -0.0572 -0.2264 -0.8439
  128MOL0     C17161  -0.554   9.495   3.536 -0.5396  0.3635  0.0570
  128MOL0     N17162  -0.683   9.428   3.526  0.8542 -0.4433  0.2422
  128MOL0     C17163  -0.738   9.341   3.619 -0.1953  0.7365 -0.7407
  128MOL0     C17164  -0.858   9.303   3.553  0.0730  0.4048 -1.3033
  128MOL0     C17165  -0.954   9.200   3.601  0.1802 -0.1417  0.1958
  128MOL0     C17166  -0.879   9.075   3.650  0.2878  0.1935 -0.4789
  128MOL0     C17167  -0.957   8.981   3.755  0.3493 -0.8717 -0.2194
  128MOL0     C17168  -1.082   8.925   3.696  0.0645  0.6925 -0.7999
  128MOL0     O17169  -1.194   9.012   3.729  0.4198 -0.5932  0.1899
  128MOL0     C17170  -1.302   8.996   3.646  0.1076 -0.7659 -0.0144
  128MOL0     C17171  -1.334   8.874   3.597  0.8046 -1.1836  0.3078
  128MOL0     C17172  -1.451   8.866   3.530 -0.1817 -0.2629  0.0414
  128MOL0     C17173  -1.487   8.721   3.490  0.5628 -1.0292 -0.3760
  128MOL0     C17174  -1.526   8.985   3.493  0.5763  0.0922  0.9860
  128MOL0     C17175  -1.646   8.977   3.399  0.3980  0.3158 -0.2277
  128MOL0     O17176  -1.700   9.097   3.360  0.1011  0.1256  0.4744
  128MOL0     C17177  -1.792   9.095   3.258 -0.3738 -0.4759 -0.0494
  128MOL0     C17178  -1.911   9.168   3.262  0.1564 -0.1722  0.3234
  128MOL0     C17179  -1.985   9.192   3.140  0.4694 -0.1143  0.2322
  128MOL0     C17180  -1.955   9.126   3.011 -0.2198 -0.5181 -0.9646
  128MOL0     O17181  -2.026   9.130   2.895  0.0409  0.3005 -0.1344
  128MOL0     C17182  -2.111   9.237   2.856 -0.1890  0.2231  0.0566
  128MOL0     C17183  -2.254   9.171   2.866 -0.1366 -1.4513 -0.3092
  128MOL0     C17184  -2.383   9.258   2.854 -0.0946 -0.5156 -0.3758
  128MOL0     C17185  -2.394   9.359   2.741  0.2677  0.1319  0.8572
  128MOL0     C17186  -2.537   9.396   2.735 -0.3757  0.4511  0.2052
  128MOL0     C17187  -2.567   9.435   2.588 -0.0690 -0.2141 -0.1059
  128MOL0     C17188  -2.719   9.488   2.579  0.9240  0.3651  0.9525
  128MOL0     C17189  -2.724   9.588   2.457 -0.0659  0.3361 -0.0023
  128MOL0    Cl17190  -2.669   9.501   2.314 -0.5009 -0.2658 -0.7790
  128MOL0     C17191  -1.831   9.056   3.014  0.5803  0.4176 -0.9888
  128MOL0     C17192  -1.748   9.053   3.127  0.8030 -0.3760 -1.0148
  128MOL0     O17193  -1.678   8.867   3.344 -0.0766  0.3698  0.2965
  128MOL0     C17194  -1.492   9.109   3.537 -0.1078  0.2574 -0.4176
  128MOL0     C17195  -1.371   9.120   3.617  1.2132  0.5546 -0.1159
  128MOL0     N17196  -0.858   9.361   3.434 -0.2202  0.2230  0.1170
  128MOL0     N17197  -0.755   9.432   3.412  1.0023 -0.7199 -0.9050
  128MOL0     C17198   0.424   9.634   3.804  0.4620 -0.0015  0.0490
  128MOL0     C17199   0.563   9.624   3.811  0.0008 -0.1133 -0.8853
  128MOL0     C17200   1.015   9.596   3.774  0.0350  0.0912  0.1373
  128MOL0     C17201   1.078   9.692   3.700  0.2254  0.2099  0.3447
  128MOL0     C17202   1.214   9.680   3.660 -0.8213 -1.1951  0.6270
  128MOL0     C17203   1.294   9.578   3.705  0.2333 -0.2154  0.6638
  128MOL0     O17204   1.426   9.576   3.679 -0.8879  0.6827  0.7617
  128MOL0     C17205   1.514   9.534   3.788  0.0207  0.1053 -0.3162
  128MOL0     C17206   1.659   9.541   3.738 -0.4998  0.1410  0.7329
  128MOL0     C17207   1.734   9.494   3.866 -1.3262  0.9702  0.2470
  128MOL0     C17208   1.879   9.480   3.836  0.0656  0.0210  0.1761
  128MOL0     C17209   1.951   9.400   3.942  0.4242  0.4584 -0.4806
  128MOL0     C17210   2.004   9.311   4.011  0.2863  0.4096 -0.1737
  128MOL0     C17211   1.228   9.483   3.780  0.0716  0.1307 -0.1988
  128MOL0     C17212   1.092   9.490   3.815 -1.0526  1.0236 -0.0675
  128MOL0     H17213   0.664   9.875   3.625 -1.2529  1.5220 -1.0551
  128MOL0     H17214   0.420   9.896   3.588  1.5065  0.5308  1.1602
  128MOL0     H17215   0.206   9.929   3.696  1.8929 -0.6961 -0.6044
  128MOL0     H17216   0.163   9.817   3.558 -1.5959 -0.6598 -0.2035
  128MOL0     H17217  -0.003   9.838   3.823 -1.4167 -4.6082  0.2077
  128MOL0     H17218  -0.028   9.939   3.684  1.1344  0.5701  0.3631
  128MOL0     H17219  -0.034   9.729   3.541 -2.4958  1.3978 -0.1360
  128MOL0     H17220  -0.014   9.635   3.685  2.8969  1.4490  0.1626
  128MOL0     H17221  -0.238   9.766   3.769 -2.3437 -0.5517 -0.4515
  128MOL0     H17222  -0.231   9.835   3.599  0.7670  0.1403  0.1519
  128MOL0     H17223  -0.299   9.605   3.507 -3.9173 -6.4582  2.6225
  128MOL0     H17224  -0.308   9.561   3.674  0.1708 -0.5960 -0.9639
  128MOL0     H17225  -0.447   9.797   3.693 -2.0427  0.9531 -1.6458
  128MOL0     H17226  -0.453   9.783   3.524  3.0657  1.1249  0.6017
  128MOL0     H17227  -0.558   9.581   3.728 -1.1550  0.9533 -0.3268
  128MOL0     H17228  -0.652   9.682   3.616  0.6500  1.0803  0.9716
  128MOL0     H17229  -0.485   9.420   3.575  0.2216  0.9261 -0.1894
  128MOL0     H17230  -0.512   9.529   3.441  1.0815 -1.5753  0.0224
  128MOL0     H17231  -0.707   9.316   3.719  0.8156 -1.0130 -1.4452
  128MOL0     H17232  -1.021   9.243   3.676 -0.7308  1.1931 -1.2910
  128MOL0     H17233  -1.022   9.175   3.519 -0.2452  0.9959  0.1740
  128MOL0     H17234  -0.784   9.102   3.696 -0.5065 -0.2746  1.5762
  128MOL0     H17235  -0.850   9.012   3.565 -0.4765  1.8001 -1.9811
  128MOL0     H17236  -0.970   9.035   3.849  0.0730  0.5119 -1.0086
  128MOL0     H17237  -0.892   8.899   3.788 -0.5558 -1.7912 -0.6831
  128MOL0     H17238  -1.099   8.828   3.744  0.8517 -0.0487 -1.9781
  128MOL0     H17239  -1.073   8.908   3.589  1.5852  2.2864 -0.9633
  128MOL0     H17240  -1.277   8.787   3.629  1.8896  0.1904  2.3089
  128MOL0     H17241  -1.429   8.647   3.547 -3.1260 -2.6159  1.6671
  128MOL0     H17242  -1.591   8.702   3.515  0.4584  0.4528  0.4095
  128MOL0     H17243  -1.451   8.710   3.387  3.7552 -1.7080  0.6834
  128MOL0     H17244  -1.936   9.215   3.357  3.5244 -2.5586  2.6462
  128MOL0     H17245  -2.077   9.250   3.145  0.6318  0.0653  1.2608
  128MOL0     H17246  -2.108   9.324   2.923  0.5193 -0.6846  1.2483
  128MOL0     H17247  -2.094   9.268   2.753 -1.0779  0.5124 -0.0154
  128MOL0     H17248  -2.256   9.089   2.793  1.6636 -1.8475  0.0642
  128MOL0     H17249  -2.256   9.122   2.963  0.6534 -0.5474  0.1760
  128MOL0     H17250  -2.398   9.304   2.952 -2.1043  0.0789 -0.9277
  128MOL0     H17251  -2.464   9.187   2.839 -3.1873  2.2236  1.7452
  128MOL0     H17252  -2.331   9.446   2.761  2.7191 -1.1479 -0.8068
  128MOL0     H17253  -2.359   9.306   2.652 -1.1445 -3.2535  2.1614
  128MOL0     H17254  -2.553   9.484   2.799  0.8662  0.8298  0.0410
  128MOL0     H17255  -2.600   9.316   2.773  1.1598 -1.0838 -0.3449
  128MOL0     H17256  -2.501   9.520   2.566  0.8341 -1.8395 -5.0324
  128MOL0     H17257  -2.545   9.361   2.511 -3.1803 -0.5465 -0.8235
  128MOL0     H17258  -2.732   9.555   2.665  1.4634  0.1668  1.1893
  128MOL0     H17259  -2.796   9.410   2.571  1.3105  0.1253 -0.9934
  128MOL0     H17260  -2.652   9.670   2.473  4.2109 -2.9645 -0.5137
  128MOL0     H17261  -2.825   9.622   2.432 -1.4935 -2.1552  1.9638
  128MOL0     H17262  -1.791   9.031   2.916 -0.3802  2.1769 -1.8629
  128MOL0     H17263  -1.650   9.005   3.128  0.1396 -1.9202  2.1214
  128MOL0     H17264  -1.559   9.194   3.526 -1.9086 -0.7247  2.0160
  128MOL0     H17265  -1.350   9.220   3.654  0.1922  1.8175 -2.6939
  128MOL0     H17266   0.368   9.569   3.870  1.3354 -0.1634  0.6451
  128MOL0     H17267   0.597   9.550   3.882 -1.0158  0.3606  0.1284
  128MOL0     H17268   1.010   9.760   3.650  0.3440  0.6775  0.8076
  128MOL0     H17269   1.274   9.758   3.613  0.9811 -0.9959  3.0758
  128MOL0     H17270   1.509   9.589   3.882 -0.1004 -0.8381  0.2393
  128MOL0     H17271   1.479   9.432   3.805 -1.5805  0.8094  0.8950
  128MOL0     H17272   1.686   9.641   3.703  2.3827 -1.5314 -2.4637
  128MOL0     H17273   1.682   9.474   3.655  2.2675  0.6254  0.9996
  128MOL0     H17274   1.709   9.393   3.900 -1.5537  0.9548  0.0356
  128MOL0     H17275   1.723   9.559   3.954  1.0442 -0.4659  1.7030
  128MOL0     H17276   1.914   9.581   3.813  1.0988 -0.8131 -2.4099
  128MOL0     H17277   1.887   9.431   3.738 -1.6895  0.8338 -0.3997
  128MOL0     H17278   2.046   9.227   4.063  0.5935  0.6988  0.0541
  128MOL0     H17279   1.275   9.387   3.798  1.0082  0.6808  0.4268
  128MOL0     H17280   1.063   9.398   3.866  0.4986  0.9352  0.7157
  129MOL0     O17281   4.383   5.459   0.382 -0.4538 -0.2601  0.1199
  129MOL0     C17282   4.399   5.361   0.450 -0.2952 -0.0810 -0.0115
  129MOL0     O17283   4.305   5.291   0.510 -0.2685  0.5562 -0.2960
  129MOL0     C17284   4.176   5.309   0.470  0.0047 -0.6323 -0.3427
  129MOL0     C17285   4.073   5.305   0.566 -0.6034  0.1838  0.0365
  129MOL0     C17286   3.933   5.321   0.534  0.2028 -0.0865  0.4520
  129MOL0     C17287   3.892   5.328   0.404 -1.0004 -0.6783  0.3272
  129MOL0     O17288   3.759   5.351   0.377 -0.2093 -1.1066 -0.2880
  129MOL0     C17289   3.692   5.237   0.330 -0.3614 -1.6065  1.0594
  129MOL0     C17290   3.542   5.273   0.335 -0.0060  0.2741 -0.1498
  129MOL0     C17291   3.450   5.158   0.288  0.0328  0.5371 -0.1369
  129MOL0     C17292   3.318   5.200   0.244 -0.1100 -0.0743  0.2362
  129MOL0     C17293   3.230   5.224   0.362 -0.5321  0.5056 -0.3193
  129MOL0     C17294   3.181   5.096   0.435  0.3760 -1.1250 -0.1694
  129MOL0     C17295   3.082   5.137   0.551  0.6568  1.0831  0.0492
  129MOL0     C17296   2.956   5.187   0.486 -0.1696  0.8330 -0.3560
  129MOL0     N17297   2.849   5.176   0.589 -0.0456  0.2320  0.0699
  129MOL0     C17298   2.828   5.261   0.698  0.1873 -0.0650  0.0545
  129MOL0     C17299   2.720   5.206   0.763 -0.2560  0.9412 -0.0336
  129MOL0     C17300   2.661   5.267   0.886  0.2975 -0.7141  0.9103
  129MOL0     C17301   2.522   5.310   0.857  0.2260  0.4143 -0.4887
  129MOL0     C17302   2.428   5.192   0.860 -0.1168 -0.4710 -0.4425
  129MOL0     C17303   2.357   5.167   0.994  0.8263 -0.5023 -0.1716
  129MOL0     O17304   2.279   5.047   0.965 -1.0063  0.0011 -0.2293
  129MOL0     C17305   2.175   5.030   1.054  0.6281 -0.0876  0.3836
  129MOL0     C17306   2.187   5.033   1.195  0.2257 -0.0620 -1.0268
  129MOL0     C17307   2.081   4.994   1.275  0.2955  0.0448  1.0440
  129MOL0     C17308   2.100   4.984   1.416  0.4488 -0.4108  0.4340
  129MOL0     C17309   1.953   4.960   1.218 -0.2215  0.5515  0.4985
  129MOL0     C17310   1.824   4.924   1.286  0.3393 -0.7406 -0.6135
  129MOL0     O17311   1.723   4.881   1.208  0.2890  0.5368 -0.0925
  129MOL0     C17312   1.605   4.843   1.272  0.6740 -0.4744  0.1289
  129MOL0     C17313   1.505   4.934   1.295 -0.4907  0.2499  0.1165
  129MOL0     C17314   1.380   4.888   1.338 -0.0130 -0.3632  0.4122
  129MOL0     C17315   1.358   4.758   1.376 -0.7085  0.3626  0.3565
  129MOL0     O17316   1.235   4.735   1.411 -0.0133  0.4645  0.1245
  129MOL0     C17317   1.188   4.604   1.422 -1.0375  0.4992  0.2691
  129MOL0     C17318   1.045   4.586   1.453 -0.2089  0.5050  0.8453
  129MOL0     C17319   0.951   4.639   1.345  0.2497  0.0256  0.0609
  129MOL0     C17320   0.913   4.790   1.358  0.2180  0.1613 -0.1521
  129MOL0     C17321   0.850   4.851   1.231 -0.0680  0.1600  0.3499
  129MOL0     C17322   0.847   5.000   1.224 -0.1376 -0.4372  0.4697
  129MOL0     C17323   0.781   5.069   1.347 -0.4022 -0.0445  0.0883
  129MOL0     C17324   0.742   5.211   1.297 -0.1831  0.2136  0.1922
  129MOL0    Cl17325   0.641   5.286   1.427 -0.1025 -0.0906  0.2302
  129MOL0     C17326   1.467   4.673   1.378  0.1553 -0.2982  0.3570
  129MOL0     C17327   1.588   4.711   1.313  0.7122 -0.1777 -0.7925
  129MOL0     O17328   1.815   4.940   1.410 -0.3145 -0.8873  0.0215
  129MOL0     C17329   1.942   4.971   1.078  0.1288 -0.0310  0.5000
  129MOL0     C17330   2.051   4.995   0.992 -0.3015  0.3306  1.0439
  129MOL0     N17331   2.668   5.107   0.681  0.4352  0.8720 -0.3639
  129MOL0     N17332   2.754   5.082   0.581  0.5021  0.0317 -0.6920
  129MOL0     C17333   3.994   5.337   0.314  0.7347  1.2619  0.5857
  129MOL0     C17334   4.130   5.313   0.339 -0.3710 -0.4333 -0.9381
  129MOL0     C17335   4.539   5.334   0.483  1.0499 -0.3456 -0.1685
  129MOL0     C17336   4.647   5.416   0.445 -0.9351  0.0296 -0.0734
  129MOL0     C17337   4.778   5.383   0.483  0.5393  0.3567  0.7074
  129MOL0     C17338   4.808   5.266   0.557 -0.4810  0.4022  0.5373
  129MOL0     O17339   4.935   5.223   0.573 -0.2765 -0.3515  0.2921
  129MOL0     C17340   4.975   5.129   0.678  0.8020 -0.0780 -0.5471
  129MOL0     C17341   4.940   5.188   0.813 -0.0540  0.3400 -0.1208
  129MOL0     C17342   4.848   5.099   0.910 -1.2768 -0.6356  0.1349
  129MOL0     C17343   4.783   5.205   1.006  0.1318  0.1661  0.0774
  129MOL0     C17344   4.686   5.149   1.109  0.0573 -0.1671  0.1245
  129MOL0     C17345   4.604   5.104   1.188  1.0387  0.2993  0.7263
  129MOL0     C17346   4.700   5.188   0.591 -0.2795  0.0021 -0.2575
  129MOL0     C17347   4.566   5.220   0.561 -0.4517  0.6122  0.5799
  129MOL0     H17348   4.116   5.280   0.662 -1.1377 -3.5616 -0.5175
  129MOL0     H17349   3.855   5.314   0.609 -0.9043 -1.8406 -0.7751
  129MOL0     H17350   3.721   5.198   0.232  0.4179 -1.3523  1.1838
  129MOL0     H17351   3.713   5.150   0.393  0.7368 -3.0622 -1.1727
  129MOL0     H17352   3.517   5.290   0.441 -0.4520 -0.8095 -0.0717
  129MOL0     H17353   3.520   5.362   0.275  2.7648  0.6844 -0.6978
  129MOL0     H17354   3.497   5.105   0.204  4.6851  0.8228  1.9652
  129MOL0     H17355   3.456   5.085   0.369 -2.1885  1.5790  1.0693
  129MOL0     H17356   3.322   5.288   0.179  0.4857 -1.3194 -1.4904
  129MOL0     H17357   3.270   5.125   0.182  0.3433  0.9332 -1.3829
  129MOL0     H17358   3.268   5.289   0.441  1.9928 -3.3809  1.9779
  129MOL0     H17359   3.139   5.270   0.322  0.5099  1.3561 -1.7918
  129MOL0     H17360   3.146   5.019   0.365 -2.2509 -1.5497  1.4588
  129MOL0     H17361   3.265   5.048   0.485  1.0126 -0.7715 -0.8652
  129MOL0     H17362   3.062   5.044   0.605 -0.1723  0.4623 -1.2957
  129MOL0     H17363   3.133   5.208   0.618  2.2244  1.3632 -1.3494
  129MOL0     H17364   2.931   5.140   0.390  2.3327  0.2001 -0.7743
  129MOL0     H17365   2.973   5.292   0.459 -2.2816  1.7755  1.6433
  129MOL0     H17366   2.880   5.354   0.719 -2.4005  0.4374  6.4676
  129MOL0     H17367   2.654   5.192   0.966  1.1476 -1.5784  0.1911
  129MOL0     H17368   2.712   5.361   0.910 -0.7505  0.5618 -1.4912
  129MOL0     H17369   2.524   5.346   0.754 -0.3318  1.2146 -0.2296
  129MOL0     H17370   2.485   5.399   0.908 -0.2933 -0.9269  1.6352
  129MOL0     H17371   2.476   5.099   0.830 -0.6709 -0.5949 -0.9853
  129MOL0     H17372   2.355   5.212   0.781 -0.2597  0.9554  0.0181
  129MOL0     H17373   2.289   5.246   1.027 -0.9041 -1.9818 -0.0254
  129MOL0     H17374   2.427   5.157   1.078  0.4611  1.0778  0.3633
  129MOL0     H17375   2.281   5.057   1.245 -0.1541 -2.1773  0.8596
  129MOL0     H17376   2.194   5.035   1.441  0.0585  0.6624 -0.2029
  129MOL0     H17377   2.020   5.041   1.465  1.3695  1.2887  0.0465
  129MOL0     H17378   2.087   4.880   1.447 -1.2704 -0.8545 -1.5307
  129MOL0     H17379   1.508   5.041   1.274 -0.8873  0.2146 -0.1397
  129MOL0     H17380   1.302   4.963   1.338 -0.3239 -0.6692  1.4466
  129MOL0     H17381   1.201   4.553   1.327 -2.3614 -1.1966  0.9459
  129MOL0     H17382   1.253   4.558   1.497  1.0669  0.9088 -1.2080
  129MOL0     H17383   1.019   4.480   1.456  0.6727  0.1774 -1.2785
  129MOL0     H17384   1.024   4.631   1.550  0.9378 -1.3964  2.0425
  129MOL0     H17385   0.865   4.573   1.343  1.2002 -1.2268 -0.5930
  129MOL0     H17386   1.001   4.630   1.248  0.9062  0.5105  0.3414
  129MOL0     H17387   0.855   4.805   1.449 -1.0206 -1.9546 -0.5226
  129MOL0     H17388   1.010   4.839   1.371  0.7571 -0.7030 -0.7419
  129MOL0     H17389   0.756   4.797   1.217 -0.0693 -0.9523  3.7117
  129MOL0     H17390   0.907   4.811   1.147 -3.4510 -1.6373 -1.2548
  129MOL0     H17391   0.952   5.030   1.211 -0.2193  2.4790  4.4752
  129MOL0     H17392   0.802   5.019   1.127  0.7369 -2.5308 -0.3910
  129MOL0     H17393   0.859   5.077   1.424 -2.3455  1.7286  1.9762
  129MOL0     H17394   0.686   5.028   1.382 -0.8631 -0.8191 -1.9224
  129MOL0     H17395   0.701   5.209   1.196  3.2790  0.7204 -1.3853
  129MOL0     H17396   0.833   5.271   1.283  0.0941 -0.1845  0.2775
  129MOL0     H17397   1.471   4.568   1.406  2.4710 -0.4436 -0.2652
  129MOL0     H17398   1.676   4.649   1.301  1.4228  1.1205 -2.8406
  129MOL0     H17399   1.844   4.965   1.033  1.2455 -0.6496 -2.0553
  129MOL0     H17400   2.034   4.974   0.886 -1.6657 -3.1009  1.8196
  129MOL0     H17401   3.970   5.359   0.211 -0.1023  2.8559  1.0804
  129MOL0     H17402   4.191   5.306   0.250 -0.8031  0.9300 -1.3677
  129MOL0     H17403   4.640   5.506   0.384  1.1186 -1.0889 -2.1227
  129MOL0     H17404   4.866   5.439   0.452 -1.1780  2.3437 -0.9244
  129MOL0     H17405   4.927   5.031   0.672  0.1363  0.0460  1.8170
  129MOL0     H17406   5.082   5.108   0.681  0.6999 -0.6603  2.7881
  129MOL0     H17407   4.901   5.290   0.804 -0.7329  0.5765  3.7567
  129MOL0     H17408   5.028   5.211   0.873 -0.5437 -0.6153  0.9881
  129MOL0     H17409   4.907   5.026   0.968 -0.8960 -0.0048  0.5485
  129MOL0     H17410   4.773   5.046   0.851 -2.3503  0.3145  0.6198
  129MOL0     H17411   4.747   5.287   0.943 -0.9374 -0.6728 -0.4343
  129MOL0     H17412   4.856   5.264   1.062 -0.5558 -0.1478  1.3278
  129MOL0     H17413   4.518   5.066   1.239  0.2759 -0.7204 -1.1798
  129MOL0     H17414   4.702   5.098   0.651 -3.7999 -0.0248  0.0166
  129MOL0     H17415   4.500   5.137   0.585  2.6906 -3.2741 -2.7683
  130MOL0     O17416   5.748   1.428   5.968 -0.4760 -1.1180  0.4011
  130MOL0     C17417   5.836   1.444   6.053 -0.0686  0.1583 -0.3324
  130MOL0     O17418   5.808   1.477   6.184  0.1989 -0.2288  0.0134
  130MOL0     C17419   5.683   1.496   6.241  0.7678  0.4392 -0.0658
  130MOL0     C17420   5.562   1.513   6.173  0.1656  0.4802 -0.0298
  130MOL0     C17421   5.440   1.526   6.243  0.1052 -0.0920  0.2196
  130MOL0     C17422   5.442   1.537   6.382 -0.1571  0.5249  0.1710
  130MOL0     O17423   5.319   1.550   6.446  0.6438  0.3193 -0.1380
  130MOL0     C17424   5.217   1.640   6.397 -0.3178  0.5093  1.3278
  130MOL0     C17425   5.135   1.694   6.518 -0.5132 -0.0026 -0.1572
  130MOL0     C17426   5.013   1.598   6.546 -0.7538  0.0309  0.0095
  130MOL0     C17427   4.925   1.651   6.664  0.0234 -0.0578  0.2718
  130MOL0     C17428   4.782   1.624   6.637  0.6182  0.1808  0.2158
  130MOL0     C17429   4.722   1.496   6.706 -0.1180 -0.0694  0.5642
  130MOL0     C17430   4.586   1.463   6.641  0.3410  0.5708 -0.5375
  130MOL0     C17431   4.524   1.330   6.691  0.6422 -0.6514 -0.0813
  130MOL0     N17432   4.390   1.316   6.631 -0.3979 -0.3628  0.9182
  130MOL0     C17433   4.292   1.402   6.655  0.3119 -0.3097  0.1951
  130MOL0     C17434   4.185   1.352   6.582 -1.6958 -0.5159 -0.2422
  130MOL0     C17435   4.055   1.417   6.565 -0.6052 -0.4756 -0.5420
  130MOL0     C17436   3.958   1.387   6.680  0.0467  0.0255 -0.5499
  130MOL0     C17437   3.930   1.238   6.715  0.1563 -1.1955  0.7175
  130MOL0     C17438   3.847   1.238   6.835 -0.1233  0.3871  0.8705
  130MOL0     O17439   3.714   1.293   6.803 -0.7107  0.2187 -0.3996
  130MOL0     C17440   3.620   1.214   6.743 -0.1840 -0.0528 -0.2608
  130MOL0     C17441   3.627   1.074   6.709 -0.2848 -0.4760  0.1033
  130MOL0     C17442   3.517   1.004   6.649 -0.5512  0.6884  0.1370
  130MOL0     C17443   3.544   0.863   6.602  0.5992  0.3272 -1.0534
  130MOL0     C17444   3.390   1.078   6.629 -0.4250 -0.3090  0.2358
  130MOL0     C17445   3.268   1.024   6.580  0.0480  1.5035  1.0482
  130MOL0     O17446   3.159   1.101   6.606 -0.2388 -0.0987  0.6568
  130MOL0     C17447   3.034   1.061   6.565  0.4093 -0.0490  0.0890
  130MOL0     C17448   2.960   0.967   6.634  0.3313  0.1210  0.7643
  130MOL0     C17449   2.834   0.932   6.582 -0.3173 -1.1138  0.1130
  130MOL0     C17450   2.775   0.994   6.467 -0.9615  0.0193 -0.4142
  130MOL0     O17451   2.650   0.971   6.420  0.2917  0.6584 -0.3937
  130MOL0     C17452   2.583   0.847   6.462  0.0614 -0.2301 -0.6437
  130MOL0     C17453   2.461   0.806   6.384  0.7019 -0.9964  0.1410
  130MOL0     C17454   2.482   0.829   6.238 -0.4306  0.7043 -0.8148
  130MOL0     C17455   2.350   0.814   6.164 -0.0247  0.2076 -0.5247
  130MOL0     C17456   2.365   0.821   6.016  0.5232  0.2173  0.2299
  130MOL0     C17457   2.231   0.826   5.945  0.7997  0.7029 -0.4377
  130MOL0     C17458   2.245   0.861   5.796 -0.3753 -0.1306  0.0905
  130MOL0     C17459   2.104   0.877   5.725 -0.4205  0.1627 -0.1747
  130MOL0    Cl17460   1.990   0.756   5.788  0.3826 -0.2441  0.3832
  130MOL0     C17461   2.838   1.113   6.421 -0.0980  1.3164 -0.2896
  130MOL0     C17462   2.968   1.139   6.470  0.2419 -0.1372 -0.0014
  130MOL0     O17463   3.270   0.918   6.521 -0.1799  0.1795  0.0795
  130MOL0     C17464   3.388   1.220   6.660 -0.2690 -0.5764 -0.2174
  130MOL0     C17465   3.506   1.288   6.726  0.7469  0.5714 -0.0137
  130MOL0     N17466   4.224   1.228   6.540 -0.0669  0.7589 -0.3077
  130MOL0     N17467   4.351   1.205   6.566  0.5445 -0.6398 -0.0011
  130MOL0     C17468   5.559   1.509   6.449  0.0652 -0.8906  0.8756
  130MOL0     C17469   5.677   1.499   6.381 -0.3361  0.5672  0.2720
  130MOL0     C17470   5.959   1.413   6.028 -0.4774  0.1363 -0.0157
  130MOL0     C17471   6.014   1.410   5.898 -0.3582 -0.8058  0.0446
  130MOL0     C17472   6.145   1.367   5.878  0.3091 -0.0402 -0.4783
  130MOL0     C17473   6.213   1.316   5.987  0.1756 -0.1843 -0.0826
  130MOL0     O17474   6.344   1.282   5.964 -0.5517 -0.2958 -0.2936
  130MOL0     C17475   6.357   1.174   5.866  0.6504  0.2956  0.4700
  130MOL0     C17476   6.473   1.087   5.900  0.4011  0.9161  0.8044
  130MOL0     C17477   6.459   0.949   5.833  0.9643  0.4487 -0.1878
  130MOL0     C17478   6.578   0.853   5.877 -0.2794  0.1366  0.3269
  130MOL0     C17479   6.701   0.883   5.802 -0.7543 -0.0766 -0.4276
  130MOL0     C17480   6.793   0.895   5.722  0.3601  0.5853 -0.8104
  130MOL0     C17481   6.174   1.333   6.121  0.4288  0.3439  0.4506
  130MOL0     C17482   6.046   1.380   6.137  0.2658 -0.3098 -0.5432
  130MOL0     H17483   5.557   1.525   6.065 -0.6402  5.1058  0.3159
  130MOL0     H17484   5.347   1.526   6.188  0.3278 -4.0676 -0.4712
  130MOL0     H17485   5.266   1.713   6.332 -1.0381 -0.6940 -0.6799
  130MOL0     H17486   5.147   1.586   6.332 -0.9632  0.2185  2.2352
  130MOL0     H17487   5.205   1.695   6.602  0.2986  0.5660 -0.8189
  130MOL0     H17488   5.104   1.798   6.504 -0.5659  0.4990  3.0381
  130MOL0     H17489   4.956   1.605   6.453 -1.5381  2.7933  0.6106
  130MOL0     H17490   5.059   1.501   6.566 -1.6127 -1.1205 -3.0904
  130MOL0     H17491   4.954   1.626   6.766  1.9423  1.5155  0.1721
  130MOL0     H17492   4.944   1.758   6.648 -3.8947  1.0076  1.4872
  130MOL0     H17493   4.730   1.715   6.669  1.0256  0.5195 -0.0734
  130MOL0     H17494   4.769   1.620   6.528 -1.4222  2.1105  0.3110
  130MOL0     H17495   4.782   1.406   6.686  0.3453  0.3831 -0.1301
  130MOL0     H17496   4.709   1.512   6.813 -0.0343 -0.4542  0.6331
  130MOL0     H17497   4.518   1.546   6.663 -0.2697 -0.9574  4.9786
  130MOL0     H17498   4.606   1.448   6.535  0.0493  1.7134 -0.7668
  130MOL0     H17499   4.509   1.319   6.799 -0.3050 -3.5584 -0.4303
  130MOL0     H17500   4.582   1.240   6.670  0.9066 -1.1798  2.5424
  130MOL0     H17501   4.284   1.495   6.710 -3.4901 -2.3898  3.7676
  130MOL0     H17502   4.057   1.526   6.570  0.9896 -0.5468  1.8402
  130MOL0     H17503   4.014   1.383   6.469 -0.8182  2.0284 -1.3923
  130MOL0     H17504   3.865   1.434   6.647 -0.5723  0.0765  1.1519
  130MOL0     H17505   3.990   1.450   6.764 -0.9027  1.4608 -1.2235
  130MOL0     H17506   4.025   1.193   6.748  0.2945 -0.6480  1.0712
  130MOL0     H17507   3.884   1.180   6.635  1.7315 -0.3164 -0.8955
  130MOL0     H17508   3.883   1.303   6.915 -3.5701  1.4953  1.7172
  130MOL0     H17509   3.833   1.140   6.880 -1.0006 -0.6810 -1.5254
  130MOL0     H17510   3.727   1.032   6.718 -0.5789 -1.8068 -1.9520
  130MOL0     H17511   3.468   0.787   6.622  2.0344 -0.9585 -0.1851
  130MOL0     H17512   3.574   0.854   6.497 -1.0747  1.3746 -1.6474
  130MOL0     H17513   3.631   0.820   6.654  1.1739 -0.7889 -2.8326
  130MOL0     H17514   3.007   0.919   6.719 -0.2387  1.9752  2.1881
  130MOL0     H17515   2.775   0.853   6.628 -1.0787  0.3677  1.7879
  130MOL0     H17516   2.657   0.766   6.469  1.3349  1.0456  3.1660
  130MOL0     H17517   2.554   0.869   6.565 -0.3247  0.2926 -0.8626
  130MOL0     H17518   2.434   0.702   6.406  1.1611 -1.0143  0.6367
  130MOL0     H17519   2.382   0.875   6.417  0.7606 -0.6494 -0.4271
  130MOL0     H17520   2.546   0.754   6.190  0.6914  1.0084  0.1834
  130MOL0     H17521   2.523   0.926   6.210 -0.3692  1.1598  0.8021
  130MOL0     H17522   2.310   0.717   6.196 -0.3264 -0.4741 -2.7788
  130MOL0     H17523   2.283   0.892   6.202 -0.7483 -0.3389 -0.6553
  130MOL0     H17524   2.423   0.735   5.981 -1.0906 -0.8798  0.1445
  130MOL0     H17525   2.423   0.905   5.975  1.4450  0.0325  1.1227
  130MOL0     H17526   2.196   0.724   5.963  2.2424  0.1303 -0.7522
  130MOL0     H17527   2.169   0.902   5.994 -2.8595 -2.7788  0.9156
  130MOL0     H17528   2.299   0.788   5.736 -0.3682  1.4046 -1.8782
  130MOL0     H17529   2.289   0.961   5.791 -3.3798  1.3140  0.0552
  130MOL0     H17530   2.107   0.873   5.616  1.4246 -0.0350 -0.1496
  130MOL0     H17531   2.075   0.974   5.767  2.8179  0.2735  2.1844
  130MOL0     H17532   2.793   1.169   6.340 -0.3903  2.1685  0.4397
  130MOL0     H17533   3.021   1.222   6.425 -1.4561  0.8267 -0.2760
  130MOL0     H17534   3.297   1.277   6.652 -0.8316 -1.3803  0.2595
  130MOL0     H17535   3.495   1.391   6.760  0.6584  0.2046  1.1172
  130MOL0     H17536   5.560   1.480   6.553 -2.8090 -1.1328  0.9009
  130MOL0     H17537   5.763   1.459   6.434 -1.2578 -0.2528  1.1887
  130MOL0     H17538   5.961   1.445   5.810  2.6637 -0.2040 -1.6725
  130MOL0     H17539   6.186   1.368   5.778 -0.7835  0.3225 -0.9415
  130MOL0     H17540   6.269   1.109   5.862  1.9017 -1.4051 -1.0460
  130MOL0     H17541   6.374   1.224   5.771  0.3879 -0.0489  0.2413
  130MOL0     H17542   6.471   1.073   6.009 -1.5090 -1.7395  0.5091
  130MOL0     H17543   6.564   1.139   5.869 -2.6236  3.5526 -5.3123
  130MOL0     H17544   6.454   0.951   5.724 -4.2641 -0.6549 -0.2426
  130MOL0     H17545   6.361   0.910   5.862  0.1629  2.5344  0.0186
  130MOL0     H17546   6.544   0.752   5.850 -0.9894  0.8508 -1.6277
  130MOL0     H17547   6.587   0.852   5.986  1.2777 -0.7314  0.2209
  130MOL0     H17548   6.879   0.892   5.659  1.8370  1.8326  1.0321
  130MOL0     H17549   6.251   1.304   6.192  1.7039 -2.3069 -1.8357
  130MOL0     H17550   6.009   1.378   6.239 -0.5736  1.4882 -0.7787
  131MOL0     O17551   9.626   5.960   0.081  0.4876  0.0252  0.4204
  131MOL0     C17552   9.599   5.898  -0.030 -0.7014 -0.5620 -0.2777
  131MOL0     O17553   9.466   5.886  -0.079  0.4877  0.8626  0.5950
  131MOL0     C17554   9.380   5.965  -0.014 -0.0254  0.4200 -0.3752
  131MOL0     C17555   9.403   6.102   0.013  0.7163 -0.1486  0.1271
  131MOL0     C17556   9.302   6.175   0.081 -0.2118  0.0581  0.2666
  131MOL0     C17557   9.173   6.129   0.112 -0.4032  0.6146  0.9121
  131MOL0     O17558   9.079   6.209   0.172 -0.2895 -0.5654  0.3167
  131MOL0     C17559   9.028   6.309   0.080  0.2079 -0.9399  0.1461
  131MOL0     C17560   8.939   6.241  -0.029  0.1308 -0.5746 -0.0268
  131MOL0     C17561   8.803   6.202   0.021  0.6696  0.8610  0.2494
  131MOL0     C17562   8.722   6.127  -0.080 -0.7487 -0.1245  0.2008
  131MOL0     C17563   8.605   6.040  -0.028  0.0397 -0.0482 -0.1376
  131MOL0     C17564   8.518   6.106   0.073  0.1380 -1.0313 -0.4845
  131MOL0     C17565   8.395   6.016   0.097 -0.0398 -0.3410 -0.7006
  131MOL0     C17566   8.303   6.080   0.195  0.0082 -0.0216 -1.0039
  131MOL0     N17567   8.172   6.012   0.184 -0.7004  0.0844 -0.8173
  131MOL0     C17568   8.147   5.874   0.195  0.7521  0.6560 -0.3210
  131MOL0     C17569   8.018   5.867   0.153  0.4994  0.4319  0.0660
  131MOL0     C17570   7.929   5.741   0.149  0.5581 -0.1344  0.2373
  131MOL0     C17571   7.854   5.734   0.012 -0.0933  0.5373 -0.2147
  131MOL0     C17572   7.759   5.615   0.042 -0.3238 -0.1606  0.3059
  131MOL0     C17573   7.663   5.617  -0.076  0.4886  1.0997 -0.3096
  131MOL0     O17574   7.573   5.509  -0.054 -0.6038  0.0811  0.2487
  131MOL0     C17575   7.445   5.527  -0.006  0.8647 -0.8159 -0.4122
  131MOL0     C17576   7.380   5.650   0.019 -0.0784 -0.5263 -0.3011
  131MOL0     C17577   7.249   5.667   0.070 -0.4869  0.2082 -1.0236
  131MOL0     C17578   7.205   5.806   0.114 -0.1295 -0.1822  0.0512
  131MOL0     C17579   7.174   5.553   0.102 -0.7308  0.2318  0.2609
  131MOL0     C17580   7.030   5.551   0.153  0.0171  0.2762  0.2615
  131MOL0     O17581   6.950   5.439   0.132 -0.0259  0.0446  0.2889
  131MOL0     C17582   6.826   5.444   0.190 -0.1994 -0.3028  0.2604
  131MOL0     C17583   6.812   5.447   0.325 -0.6584  0.3040 -0.7784
  131MOL0     C17584   6.690   5.460   0.387 -0.2428 -0.1700 -0.3838
  131MOL0     C17585   6.569   5.476   0.311  0.7614  0.0937 -0.1312
  131MOL0     O17586   6.448   5.498   0.376  0.6250 -0.0341  0.4348
  131MOL0     C17587   6.460   5.549   0.512  0.6749 -0.2113 -0.4024
  131MOL0     C17588   6.319   5.580   0.553 -0.2889  0.4726  0.2194
  131MOL0     C17589   6.303   5.618   0.697  0.4260 -0.0792  0.9558
  131MOL0     C17590   6.178   5.709   0.722 -0.3014 -0.0273  0.3652
  131MOL0     C17591   6.049   5.632   0.769 -0.2540  0.2836 -0.8170
  131MOL0     C17592   5.942   5.741   0.802  0.3760 -0.2775 -0.0243
  131MOL0     C17593   5.875   5.812   0.684  0.4309 -0.1977  0.3860
  131MOL0     C17594   5.822   5.731   0.570  0.0922  0.4184  0.7193
  131MOL0    Cl17595   5.658   5.679   0.608  0.3483 -0.0690 -0.0347
  131MOL0     C17596   6.584   5.475   0.176  0.0330 -0.6441  0.1627
  131MOL0     C17597   6.708   5.468   0.114  0.3206 -0.2045 -1.0859
  131MOL0     O17598   6.996   5.650   0.221  0.2181  0.2055  0.2351
  131MOL0     C17599   7.238   5.427   0.071 -0.2373 -0.5432 -0.0642
  131MOL0     C17600   7.368   5.414   0.017  0.7492 -1.1702 -1.0297
  131MOL0     N17601   7.978   5.995   0.118 -0.8522  0.3419 -0.3238
  131MOL0     N17602   8.070   6.079   0.136  1.1613  0.0487  0.9314
  131MOL0     C17603   9.148   5.993   0.075 -0.0572  0.7679 -0.6524
  131MOL0     C17604   9.245   5.919   0.014 -0.4687  0.3264 -0.5170
  131MOL0     C17605   9.707   5.831  -0.110  0.0995 -0.4458  0.3229
  131MOL0     C17606   9.681   5.793  -0.241  0.2366  0.2971 -0.1361
  131MOL0     C17607   9.773   5.730  -0.325 -0.7080  0.6800 -0.2438
  131MOL0     C17608   9.897   5.690  -0.266  0.2193  0.6384 -1.1546
  131MOL0     O17609   9.996   5.614  -0.324  0.6124 -0.2664 -0.2340
  131MOL0     C17610   9.989   5.572  -0.459  0.6514 -0.5462 -0.8679
  131MOL0     C17611  10.021   5.695  -0.551  0.0394  0.6481  0.2925
  131MOL0     C17612   9.980   5.676  -0.701 -0.1139 -0.3316 -0.3381
  131MOL0     C17613  10.088   5.599  -0.775  0.3341  0.0600 -0.0158
  131MOL0     C17614  10.044   5.581  -0.915 -0.1334 -0.6777 -0.2540
  131MOL0     C17615  10.012   5.557  -1.023 -0.2506  0.4861  0.8424
  131MOL0     C17616   9.927   5.725  -0.131 -0.2984  0.4800  0.4585
  131MOL0     C17617   9.831   5.801  -0.055  0.7516  0.6758  0.0914
  131MOL0     H17618   9.500   6.145  -0.009  0.8088 -0.0196  0.7758
  131MOL0     H17619   9.327   6.274   0.116  1.6942 -0.9309  1.9062
  131MOL0     H17620   8.967   6.377   0.141  1.0021 -1.6347  1.7886
  131MOL0     H17621   9.107   6.372   0.039 -2.8651  1.4585 -2.6435
  131MOL0     H17622   8.916   6.318  -0.102 -3.0897 -0.8399  0.5214
  131MOL0     H17623   8.991   6.163  -0.085  2.4464 -0.0506  1.2549
  131MOL0     H17624   8.826   6.126   0.096  2.9817  1.9296  0.7245
  131MOL0     H17625   8.738   6.274   0.072 -0.2042 -0.2479  0.7551
  131MOL0     H17626   8.683   6.202  -0.150 -1.2379  1.4602  2.0813
  131MOL0     H17627   8.789   6.055  -0.129  1.9213  1.6036  1.1475
  131MOL0     H17628   8.532   6.028  -0.110  0.9007  1.9231 -1.2650
  131MOL0     H17629   8.642   5.943   0.006  1.7585  1.0204  1.2017
  131MOL0     H17630   8.566   6.119   0.171 -1.2367 -0.4623  0.1379
  131MOL0     H17631   8.485   6.204   0.037  0.6818 -0.7618 -0.2696
  131MOL0     H17632   8.335   6.011   0.005 -1.9753 -0.6451  0.5290
  131MOL0     H17633   8.424   5.912   0.115  0.6165 -0.3586 -1.7474
  131MOL0     H17634   8.290   6.188   0.183  0.3388  0.0020 -1.1437
  131MOL0     H17635   8.333   6.065   0.299  0.0823 -0.5613 -1.0970
  131MOL0     H17636   8.216   5.798   0.231  2.6102  1.2402 -2.3612
  131MOL0     H17637   7.984   5.647   0.159  1.5864  0.2087 -1.6583
  131MOL0     H17638   7.862   5.732   0.235 -0.4878  1.2196 -0.4123
  131MOL0     H17639   7.922   5.723  -0.073 -2.1347  1.3254 -2.0595
  131MOL0     H17640   7.800   5.829  -0.001 -3.4500 -1.0910  0.8089
  131MOL0     H17641   7.715   5.645   0.138  0.5745  0.2703  0.6010
  131MOL0     H17642   7.818   5.524   0.054 -1.8680 -1.2934 -0.3522
  131MOL0     H17643   7.720   5.598  -0.168  2.2344 -0.1801  0.9577
  131MOL0     H17644   7.606   5.708  -0.095 -0.6519  1.4428  3.7422
  131MOL0     H17645   7.432   5.744   0.004 -1.4977  0.2407 -0.6482
  131MOL0     H17646   7.103   5.835   0.089 -0.3973  0.6947  1.9939
  131MOL0     H17647   7.215   5.827   0.220 -0.4512  0.2449 -0.0027
  131MOL0     H17648   7.267   5.876   0.057 -1.8814  3.4179  2.2515
  131MOL0     H17649   6.900   5.452   0.389 -0.8755  3.1257 -0.5794
  131MOL0     H17650   6.705   5.452   0.494  0.7167 -2.8945 -0.6390
  131MOL0     H17651   6.498   5.475   0.583 -0.7241 -0.2143  0.4024
  131MOL0     H17652   6.513   5.645   0.513 -2.4173  1.6460 -1.1311
  131MOL0     H17653   6.295   5.665   0.487 -1.0428  2.1700  2.5557
  131MOL0     H17654   6.261   5.491   0.527  1.6079 -0.2911 -1.7384
  131MOL0     H17655   6.387   5.670   0.744 -0.2132  0.8161  1.1249
  131MOL0     H17656   6.310   5.521   0.748  0.7974 -0.3780  0.3532
  131MOL0     H17657   6.192   5.778   0.805 -1.8686  1.3299 -0.4452
  131MOL0     H17658   6.165   5.773   0.635  3.9693  1.7012  0.7412
  131MOL0     H17659   6.066   5.575   0.860  0.6094  2.7421  0.6595
  131MOL0     H17660   6.030   5.564   0.685  0.3113  1.7881 -2.2212
  131MOL0     H17661   5.859   5.695   0.855  0.9863 -1.8250 -0.3506
  131MOL0     H17662   5.983   5.824   0.860  0.4430 -0.2696 -0.0823
  131MOL0     H17663   5.947   5.878   0.634  0.1845 -0.0494  0.2204
  131MOL0     H17664   5.795   5.880   0.717  0.3779 -0.6417  1.1948
  131MOL0     H17665   5.885   5.648   0.536  1.6274  1.0910  1.8291
  131MOL0     H17666   5.813   5.799   0.485  2.0211  0.5867  0.5931
  131MOL0     H17667   6.495   5.489   0.115  1.0602  2.6146 -0.8331
  131MOL0     H17668   6.721   5.485   0.008  1.9824 -1.7154 -1.1823
  131MOL0     H17669   7.184   5.335   0.091 -0.7158 -0.2976 -0.2078
  131MOL0     H17670   7.406   5.315  -0.005  1.3212 -0.8269 -1.6300
  131MOL0     H17671   9.044   5.963   0.082  0.1193  0.2182 -0.2740
  131MOL0     H17672   9.224   5.814  -0.004  0.1194  0.2566 -0.7975
  131MOL0     H17673   9.587   5.808  -0.293  0.9679  1.9920 -1.0395
  131MOL0     H17674   9.748   5.694  -0.424 -0.8075 -1.9026  0.6386
  131MOL0     H17675  10.054   5.486  -0.480 -0.9720 -2.7128  2.2005
  131MOL0     H17676   9.892   5.533  -0.488  0.6029 -0.3504 -0.9724
  131MOL0     H17677  10.127   5.719  -0.539 -0.2038  2.0762 -0.2108
  131MOL0     H17678   9.971   5.787  -0.519 -0.0816  0.5274  0.4503
  131MOL0     H17679   9.960   5.773  -0.747  0.8045  0.4990  0.9500
  131MOL0     H17680   9.885   5.622  -0.702 -1.6829  2.2230 -0.2202
  131MOL0     H17681  10.101   5.501  -0.727  1.0140  0.6543  1.0653
  131MOL0     H17682  10.180   5.654  -0.756  0.9335 -1.5719  2.4246
  131MOL0     H17683   9.972   5.539  -1.120  0.1483  0.0318  0.7561
  131MOL0     H17684  10.020   5.693  -0.086  0.2571 -1.0431 -1.6045
  131MOL0     H17685   9.849   5.837   0.045  1.2185  3.3736 -0.8775
  132MOL0     O17686   5.394   0.933   6.552 -0.2759  0.1124  0.4869
  132MOL0     C17687   5.439   1.042   6.504 -0.8082 -1.0928  0.0540
  132MOL0     O17688   5.368   1.146   6.452  0.4489  0.0883  0.0054
  132MOL0     C17689   5.236   1.127   6.428  0.0084 -0.5967 -0.6105
  132MOL0     C17690   5.179   1.024   6.356 -0.3163 -0.3287  0.5415
  132MOL0     C17691   5.044   1.008   6.330 -0.3721 -0.6479 -0.0637
  132MOL0     C17692   4.953   1.092   6.386 -0.1388  0.2113 -0.4517
  132MOL0     O17693   4.816   1.083   6.372  0.0587 -0.3574  0.4813
  132MOL0     C17694   4.757   0.982   6.286 -0.7885  0.4466  0.0332
  132MOL0     C17695   4.764   0.844   6.361  0.2332 -0.2911  0.4680
  132MOL0     C17696   4.638   0.801   6.422  0.2942 -1.0602  0.2220
  132MOL0     C17697   4.601   0.897   6.538 -0.3064  1.1774 -0.0381
  132MOL0     C17698   4.499   0.836   6.639 -0.6340  1.3867 -0.0547
  132MOL0     C17699   4.481   0.933   6.758 -0.4044  0.1725  1.0028
  132MOL0     C17700   4.357   0.900   6.835  0.3762 -0.2866 -0.0866
  132MOL0     C17701   4.229   0.988   6.796  0.4496  0.5040 -0.5426
  132MOL0     N17702   4.105   0.918   6.849  0.3232 -0.1558  0.9479
  132MOL0     C17703   4.091   0.824   6.944  0.4731 -0.1737  0.5829
  132MOL0     C17704   3.960   0.783   6.949  0.1201  0.1164  0.2570
  132MOL0     C17705   3.911   0.671   7.033  0.4821 -0.0300  0.7131
  132MOL0     C17706   3.758   0.659   7.031  0.1428  0.3357  0.0055
  132MOL0     C17707   3.691   0.767   7.115 -0.4996 -0.1349  0.4735
  132MOL0     C17708   3.540   0.753   7.111  0.3304 -1.1828  0.4897
  132MOL0     O17709   3.486   0.755   6.977 -0.2578 -0.0505  0.1300
  132MOL0     C17710   3.350   0.743   6.975 -0.3334  0.8860 -0.7671
  132MOL0     C17711   3.286   0.699   6.853 -0.3808 -0.4815 -0.0392
  132MOL0     C17712   3.150   0.694   6.836  0.0009  0.0334 -0.2306
  132MOL0     C17713   3.090   0.627   6.712 -0.1945 -0.1185 -0.4117
  132MOL0     C17714   3.059   0.726   6.950  0.9691  1.0610 -0.0813
  132MOL0     C17715   2.912   0.702   6.964 -0.5588 -0.6513 -0.2544
  132MOL0     O17716   2.845   0.643   6.864  0.7562 -0.1361  1.0360
  132MOL0     C17717   2.712   0.670   6.829  0.3639 -0.3546  0.0751
  132MOL0     C17718   2.653   0.595   6.728 -0.4021  0.3753  0.2992
  132MOL0     C17719   2.524   0.617   6.677 -0.7628 -0.3528  0.5893
  132MOL0     C17720   2.445   0.718   6.736  0.1669 -0.4000  0.6155
  132MOL0     O17721   2.323   0.750   6.682  0.3534 -1.1290 -0.3754
  132MOL0     C17722   2.258   0.872   6.719  0.1134  0.1596  0.1620
  132MOL0     C17723   2.115   0.881   6.658 -0.4157  0.2144  0.0217
  132MOL0     C17724   2.045   1.028   6.672 -0.6769  0.0799 -0.5443
  132MOL0     C17725   2.127   1.132   6.602 -0.2139  0.6711  0.0570
  132MOL0     C17726   2.034   1.251   6.565  0.6564 -0.3084  0.9106
  132MOL0     C17727   1.969   1.320   6.688  0.2841 -0.0560 -0.0039
  132MOL0     C17728   1.870   1.430   6.639  0.4238 -0.2736  0.0002
  132MOL0     C17729   1.736   1.371   6.611 -0.0761 -0.0267  0.8157
  132MOL0    Cl17730   1.639   1.516   6.557  0.0528 -0.0687  0.4415
  132MOL0     C17731   2.499   0.787   6.850 -0.4977  0.4193  1.2592
  132MOL0     C17732   2.630   0.762   6.893 -0.4535  0.0087 -0.1834
  132MOL0     O17733   2.866   0.723   7.071 -0.0729 -0.6174 -0.6103
  132MOL0     C17734   3.131   0.761   7.071 -0.2673 -0.1055  0.0393
  132MOL0     C17735   3.262   0.768   7.080  0.0646  0.5220 -0.3059
  132MOL0     N17736   3.893   0.858   6.850 -0.2447 -0.5433  0.3068
  132MOL0     N17737   3.982   0.936   6.794 -0.3203  0.6571 -0.1824
  132MOL0     C17738   5.010   1.212   6.449  0.3050  0.4334  0.8891
  132MOL0     C17739   5.152   1.225   6.463  0.1134 -0.3289 -0.7258
  132MOL0     C17740   5.583   1.045   6.494 -0.6452  0.6293  0.4598
  132MOL0     C17741   5.662   0.944   6.546 -0.3073 -1.1031 -0.5402
  132MOL0     C17742   5.800   0.948   6.531  0.1028  0.0376  0.4952
  132MOL0     C17743   5.861   1.051   6.456  0.2809 -0.4727  0.0027
  132MOL0     O17744   6.002   1.064   6.430  0.1742  0.3858 -0.2237
  132MOL0     C17745   6.081   0.946   6.436  0.4503  0.7174 -0.1873
  132MOL0     C17746   6.056   0.852   6.327  0.3662  0.2736  0.7229
  132MOL0     C17747   6.090   0.919   6.185 -0.3082  0.3888 -0.6340
  132MOL0     C17748   6.237   0.931   6.154  0.3101  0.1225 -0.1122
  132MOL0     C17749   6.312   0.802   6.172  0.6472  0.3821 -0.5419
  132MOL0     C17750   6.367   0.696   6.177  0.3937 -0.3202  0.0608
  132MOL0     C17751   5.773   1.152   6.394  0.4141  0.4997  0.2782
  132MOL0     C17752   5.638   1.145   6.419  0.6531 -0.0186 -0.2862
  132MOL0     H17753   5.237   0.947   6.305 -0.9279  0.6529 -1.7678
  132MOL0     H17754   5.024   0.912   6.282  0.9085 -0.2454 -1.4721
  132MOL0     H17755   4.660   1.023   6.255  0.3134  1.7045 -1.9258
  132MOL0     H17756   4.811   0.978   6.192 -1.3628 -0.4274 -0.2720
  132MOL0     H17757   4.800   0.769   6.290  1.7026 -0.9787  1.8987
  132MOL0     H17758   4.844   0.845   6.435 -0.6726 -0.1474  1.4655
  132MOL0     H17759   4.559   0.796   6.347 -1.1210 -3.2321  1.7493
  132MOL0     H17760   4.644   0.699   6.460 -1.2985 -1.2071  0.1675
  132MOL0     H17761   4.695   0.917   6.591 -0.2521  3.1702 -0.8237
  132MOL0     H17762   4.564   0.991   6.495  0.2454  1.7794  0.7721
  132MOL0     H17763   4.405   0.814   6.588 -1.5524 -2.5233  2.8911
  132MOL0     H17764   4.542   0.744   6.679  2.8389  1.6323 -2.6774
  132MOL0     H17765   4.579   0.939   6.807  1.3770 -0.9923 -2.1215
  132MOL0     H17766   4.471   1.036   6.723  1.7868 -0.0449 -0.4667
  132MOL0     H17767   4.326   0.798   6.810 -0.1130 -0.6683  1.8633
  132MOL0     H17768   4.375   0.915   6.942  1.2399  1.9298 -0.5036
  132MOL0     H17769   4.213   0.988   6.688 -1.3861  2.7849 -0.3524
  132MOL0     H17770   4.229   1.091   6.832  3.3040 -0.6858  3.5735
  132MOL0     H17771   4.171   0.785   7.006  1.4264  2.3512  1.0422
  132MOL0     H17772   3.958   0.577   7.002 -0.8040 -0.8394  1.1578
  132MOL0     H17773   3.940   0.677   7.139 -1.2806  0.5038  1.1896
  132MOL0     H17774   3.738   0.565   7.082  1.5118  0.6370  1.1663
  132MOL0     H17775   3.719   0.645   6.929  0.3141 -0.3819  0.0366
  132MOL0     H17776   3.711   0.864   7.068 -2.0399  0.2691  0.6014
  132MOL0     H17777   3.723   0.765   7.220  2.4093  0.7025 -0.2891
  132MOL0     H17778   3.501   0.830   7.177 -1.1932 -1.1863 -0.3617
  132MOL0     H17779   3.521   0.658   7.162  1.1999 -0.7468  1.6867
  132MOL0     H17780   3.347   0.675   6.767 -0.8957  0.2151 -0.6110
  132MOL0     H17781   3.045   0.529   6.731 -2.1175  0.7959  0.0094
  132MOL0     H17782   3.013   0.696   6.674 -1.7235 -0.1119  2.4233
  132MOL0     H17783   3.170   0.599   6.643 -1.0849 -2.3335 -0.6249
  132MOL0     H17784   2.720   0.520   6.687  0.4355  1.2497  0.0352
  132MOL0     H17785   2.475   0.551   6.606 -0.0554 -3.1615  2.5433
  132MOL0     H17786   2.233   0.876   6.825  0.5623  1.1590  0.2360
  132MOL0     H17787   2.320   0.958   6.693 -0.5814  0.6111 -0.0196
  132MOL0     H17788   2.129   0.841   6.557  0.9056 -1.5193  0.8458
  132MOL0     H17789   2.048   0.815   6.712 -1.3217  0.4216 -0.8198
  132MOL0     H17790   2.035   1.054   6.778  0.1380  0.7912 -0.6344
  132MOL0     H17791   1.943   1.024   6.631  0.5670 -2.6199 -3.8691
  132MOL0     H17792   2.211   1.171   6.662  0.1739  0.7976 -0.5535
  132MOL0     H17793   2.173   1.096   6.510  1.3853  0.1055  1.0350
  132MOL0     H17794   1.958   1.220   6.492  2.3191  0.0880 -1.1131
  132MOL0     H17795   2.100   1.321   6.512  0.4574 -1.6840 -1.3158
  132MOL0     H17796   1.917   1.243   6.746  0.0965  0.0591 -0.0173
  132MOL0     H17797   2.028   1.372   6.764  0.3343  0.4971 -0.4165
  132MOL0     H17798   1.894   1.487   6.550 -0.6899  0.1256 -0.0600
  132MOL0     H17799   1.859   1.509   6.714 -0.8089 -1.5039  1.1831
  132MOL0     H17800   1.688   1.333   6.702  0.6403 -0.3174  1.0790
  132MOL0     H17801   1.732   1.300   6.528 -1.0123  1.4123 -0.4043
  132MOL0     H17802   2.439   0.860   6.904 -2.0997 -0.2250  0.4083
  132MOL0     H17803   2.660   0.824   6.977 -1.0240  0.0890 -0.0376
  132MOL0     H17804   3.075   0.801   7.155  0.2034  1.7275 -0.4920
  132MOL0     H17805   3.282   0.799   7.182 -1.1749 -0.5638  0.2980
  132MOL0     H17806   4.937   1.286   6.477  1.3010  1.5929  0.4952
  132MOL0     H17807   5.189   1.312   6.515  0.6816 -0.2080 -1.3109
  132MOL0     H17808   5.623   0.861   6.603  0.8492 -1.6382 -0.5135
  132MOL0     H17809   5.864   0.873   6.576  2.2946  1.3647 -0.2527
  132MOL0     H17810   6.186   0.976   6.431  1.6454 -2.9681 -0.3423
  132MOL0     H17811   6.071   0.898   6.534  0.2834  2.4840  0.7068
  132MOL0     H17812   5.949   0.832   6.332  0.4092 -0.5728 -1.0211
  132MOL0     H17813   6.108   0.758   6.345 -1.0310 -0.8603 -0.8869
  132MOL0     H17814   6.037   1.014   6.174 -0.4668  0.3264 -0.4251
  132MOL0     H17815   6.051   0.847   6.114 -2.1359 -0.9049  1.5363
  132MOL0     H17816   6.291   0.994   6.225  2.4704 -0.5092 -1.1190
  132MOL0     H17817   6.260   0.970   6.055  2.5166  2.0856  1.0911
  132MOL0     H17818   6.431   0.610   6.171  0.6131 -0.2040  0.6103
  132MOL0     H17819   5.805   1.244   6.346 -0.8679  0.9462  0.2197
  132MOL0     H17820   5.574   1.227   6.387  0.3713  0.2390  0.9012
  133MOL0     O17821   8.086  10.341   8.439  0.4269  0.0138 -0.2360
  133MOL0     C17822   8.175  10.422   8.463 -0.6250  0.0948  0.5021
  133MOL0     O17823   8.152  10.558   8.488 -0.4944 -0.1787 -0.0573
  133MOL0     C17824   8.015  10.595   8.500  0.4178  0.3247  0.2627
  133MOL0     C17825   7.949  10.599   8.628 -0.5710  0.2480  0.9863
  133MOL0     C17826   7.823  10.642   8.639 -0.2393  0.1269 -0.6050
  133MOL0     C17827   7.743  10.681   8.527 -0.6264  0.1751 -0.9682
  133MOL0     O17828   7.611  10.728   8.536 -1.1726  0.6225 -0.0404
  133MOL0     C17829   7.520  10.654   8.614  0.2131 -0.2566 -0.4112
  133MOL0     C17830   7.378  10.656   8.565 -0.1992 -0.9844  0.3340
  133MOL0     C17831   7.291  10.575   8.661  0.5927 -0.1433 -0.1675
  133MOL0     C17832   7.151  10.629   8.675  0.1741  0.6139  0.0763
  133MOL0     C17833   7.066  10.527   8.749  0.2185 -0.2357 -0.0532
  133MOL0     C17834   6.925  10.575   8.758 -0.0053 -0.0190  0.4942
  133MOL0     C17835   6.843  10.474   8.836  0.8394  0.5880 -0.2075
  133MOL0     C17836   6.705  10.540   8.896  0.4743  0.9296 -1.1611
  133MOL0     N17837   6.595  10.564   8.810  0.3063 -0.5107 -0.0940
  133MOL0     C17838   6.593  10.630   8.692  1.2775 -0.4067  1.0082
  133MOL0     C17839   6.462  10.624   8.639 -0.8675 -0.5280  0.1571
  133MOL0     C17840   6.396  10.681   8.524  1.1845 -0.1964  0.8286
  133MOL0     C17841   6.330  10.807   8.562  0.8002 -0.7104 -0.0740
  133MOL0     C17842   6.198  10.802   8.643  0.0233 -0.1165 -0.0162
  133MOL0     C17843   6.085  10.728   8.576 -0.0453  0.4762 -0.7641
  133MOL0     O17844   5.987  10.718   8.675  0.3773  0.1736  0.0226
  133MOL0     C17845   5.867  10.662   8.641 -0.1974 -0.3311  0.3786
  133MOL0     C17846   5.754  10.698   8.715 -0.1691 -0.0421  0.2771
  133MOL0     C17847   5.626  10.644   8.702  0.1540 -0.1427  0.0107
  133MOL0     C17848   5.514  10.685   8.802  0.0577  0.6775 -0.4044
  133MOL0     C17849   5.606  10.555   8.589  0.1528  1.0060 -0.1640
  133MOL0     C17850   5.474  10.488   8.557 -0.8761  0.4152  0.7825
  133MOL0     O17851   5.359  10.536   8.617  0.3331 -0.0132  0.1172
  133MOL0     C17852   5.259  10.458   8.657  0.2127  0.2449  0.1589
  133MOL0     C17853   5.276  10.327   8.697 -0.1140  0.7369  0.2373
  133MOL0     C17854   5.168  10.246   8.732  1.2726 -0.5384 -0.4882
  133MOL0     C17855   5.042  10.300   8.739 -0.2730 -0.5938  0.0430
  133MOL0     O17856   4.937  10.216   8.766  0.3994 -0.1910 -0.4109
  133MOL0     C17857   4.799  10.267   8.761 -0.1493  0.0936  0.1292
  133MOL0     C17858   4.694  10.152   8.770 -0.2757 -0.0618 -0.3388
  133MOL0     C17859   4.708  10.045   8.656 -0.5648 -0.5447 -0.5698
  133MOL0     C17860   4.599   9.942   8.678 -0.6829 -0.0840  0.1379
  133MOL0     C17861   4.608   9.817   8.579 -0.5563 -0.1880  0.0154
  133MOL0     C17862   4.489   9.739   8.593  0.4834 -0.0011 -0.5615
  133MOL0     C17863   4.462   9.644   8.479  0.8466  0.4092  0.5060
  133MOL0     C17864   4.483   9.493   8.520 -0.3879  0.2912 -0.2905
  133MOL0    Cl17865   4.649   9.453   8.572 -0.0053  0.0558  0.4548
  133MOL0     C17866   5.021  10.435   8.712 -0.1594 -0.3177 -0.0881
  133MOL0     C17867   5.132  10.516   8.668  0.9650  0.5467  0.6563
  133MOL0     O17868   5.478  10.392   8.473 -0.6821 -0.0564  0.4731
  133MOL0     C17869   5.719  10.529   8.511 -0.7645  0.8474  0.0689
  133MOL0     C17870   5.850  10.571   8.543  0.1499  0.2786  0.0278
  133MOL0     N17871   6.392  10.559   8.740 -0.4470 -0.0227  0.0983
  133MOL0     N17872   6.467  10.523   8.836  0.9249 -0.0186 -0.4703
  133MOL0     C17873   7.805  10.667   8.404 -0.0485  0.8935 -0.1529
  133MOL0     C17874   7.937  10.615   8.389 -0.0551  0.0879 -0.1751
  133MOL0     C17875   8.315  10.365   8.461  1.2164 -0.0986  0.2795
  133MOL0     C17876   8.424  10.451   8.475  0.2478 -0.3527  0.1419
  133MOL0     C17877   8.554  10.399   8.468 -0.3190 -0.4604  0.6542
  133MOL0     C17878   8.584  10.275   8.415 -1.2404  0.8515 -0.7297
  133MOL0     O17879   8.705  10.214   8.400 -0.2405 -0.5893 -0.5500
  133MOL0     C17880   8.818  10.276   8.462  0.4152  0.6010 -0.4925
  133MOL0     C17881   8.938  10.169   8.448 -0.6926 -0.2317  0.0702
  133MOL0     C17882   9.083  10.228   8.436  0.7843  0.4938  0.6605
  133MOL0     C17883   9.175  10.108   8.400 -0.2187 -0.0865 -0.0133
  133MOL0     C17884   9.309  10.151   8.364 -0.7726 -0.2986 -0.6095
  133MOL0     C17885   9.424  10.175   8.331  0.7507 -0.4726  0.4773
  133MOL0     C17886   8.474  10.190   8.398 -0.2011  0.2068 -0.3875
  133MOL0     C17887   8.341  10.233   8.418  0.0055  0.1151  0.2621
  133MOL0     H17888   8.009  10.578   8.716 -0.7345  1.3537  1.3794
  133MOL0     H17889   7.785  10.654   8.739  2.1033  1.0701  0.2299
  133MOL0     H17890   7.560  10.553   8.627 -0.2774 -0.7441 -2.3882
  133MOL0     H17891   7.523  10.707   8.709 -0.4536  1.4385 -1.2903
  133MOL0     H17892   7.342  10.758   8.554 -1.4371 -1.3728  0.5889
  133MOL0     H17893   7.362  10.603   8.470 -0.6608  0.7126 -0.5776
  133MOL0     H17894   7.307  10.468   8.644  2.7569  0.2941 -1.1927
  133MOL0     H17895   7.325  10.588   8.764  0.5027 -0.5587 -0.0854
  133MOL0     H17896   7.158  10.727   8.723 -0.2240  0.3346  0.7184
  133MOL0     H17897   7.104  10.639   8.577 -1.8166 -0.2627  0.8780
  133MOL0     H17898   7.085  10.427   8.709  0.1975 -0.5889  0.8038
  133MOL0     H17899   7.114  10.526   8.847  1.4932  1.6804 -0.6061
  133MOL0     H17900   6.920  10.677   8.799 -0.2879  0.4966 -0.7623
  133MOL0     H17901   6.887  10.571   8.655 -1.9189 -0.7211  1.1817
  133MOL0     H17902   6.817  10.391   8.770  2.4311 -0.2901  0.2192
  133MOL0     H17903   6.902  10.430   8.917 -0.5017  2.6837  2.0517
  133MOL0     H17904   6.729  10.634   8.947  0.9487  0.2334 -0.0552
  133MOL0     H17905   6.676  10.458   8.963 -0.9623  0.9983 -1.6669
  133MOL0     H17906   6.670  10.686   8.640  0.1031  1.2606  0.9793
  133MOL0     H17907   6.470  10.694   8.444  1.5902  0.7021  1.3387
  133MOL0     H17908   6.320  10.612   8.486 -0.0808  1.4686  0.2007
  133MOL0     H17909   6.309  10.864   8.471  2.2783  2.4647  1.3989
  133MOL0     H17910   6.400  10.868   8.620  0.8781 -0.7317 -0.1462
  133MOL0     H17911   6.153  10.899   8.664 -0.3708 -0.5238  1.0828
  133MOL0     H17912   6.220  10.753   8.738 -0.4898 -1.0596 -0.3736
  133MOL0     H17913   6.124  10.630   8.547 -0.1405  0.4247 -0.7178
  133MOL0     H17914   6.037  10.778   8.491  0.4430  2.1290 -0.1027
  133MOL0     H17915   5.778  10.773   8.790  2.5463  0.6197 -1.1263
  133MOL0     H17916   5.446  10.761   8.763 -2.0688 -2.3898 -3.1908
  133MOL0     H17917   5.458  10.596   8.829  1.5724 -0.6210 -1.3580
  133MOL0     H17918   5.564  10.704   8.898 -1.9497 -0.2328  0.8844
  133MOL0     H17919   5.377  10.290   8.715 -0.0159 -0.2029 -1.9080
  133MOL0     H17920   5.188  10.141   8.746 -2.6741 -1.1568  1.8928
  133MOL0     H17921   4.786  10.327   8.851 -1.7664 -1.4707  1.0146
  133MOL0     H17922   4.772  10.322   8.671 -0.8800 -1.8968 -0.9307
  133MOL0     H17923   4.705  10.096   8.864 -0.0557  0.7682  0.1389
  133MOL0     H17924   4.592  10.191   8.766 -1.5249 -2.7266  2.0649
  133MOL0     H17925   4.806  10.000   8.672  0.9128  1.3234 -3.3919
  133MOL0     H17926   4.700  10.093   8.557  0.5393  1.9644  0.4591
  133MOL0     H17927   4.604   9.910   8.782 -1.7200  1.8367  0.8257
  133MOL0     H17928   4.504   9.996   8.681 -0.1749  0.9317 -1.0780
  133MOL0     H17929   4.700   9.763   8.602  0.4338  1.6829  0.6599
  133MOL0     H17930   4.621   9.849   8.475  2.7853  0.8638  0.6479
  133MOL0     H17931   4.497   9.682   8.686  0.5342 -0.7507 -1.0179
  133MOL0     H17932   4.403   9.806   8.597  0.7789  0.3830 -0.6060
  133MOL0     H17933   4.517   9.670   8.388 -0.1183 -0.7036 -0.4257
  133MOL0     H17934   4.356   9.640   8.453  0.9919 -1.5731 -0.0166
  133MOL0     H17935   4.461   9.432   8.432 -1.0934  1.5876 -1.0414
  133MOL0     H17936   4.416   9.478   8.605  1.9047  1.9205  1.9775
  133MOL0     H17937   4.927  10.489   8.704  0.0940 -0.1551 -3.3996
  133MOL0     H17938   5.130  10.621   8.644  2.2141  0.4161 -0.1048
  133MOL0     H17939   5.709  10.456   8.431 -2.7496 -0.0947  1.1080
  133MOL0     H17940   5.930  10.525   8.485 -0.3152 -0.4559 -0.0430
  133MOL0     H17941   7.743  10.706   8.324  1.4302  0.9065 -1.3399
  133MOL0     H17942   7.977  10.589   8.291 -0.6409 -0.0927 -0.3676
  133MOL0     H17943   8.411  10.558   8.491 -0.9065 -0.1361 -1.8504
  133MOL0     H17944   8.639  10.464   8.485  0.3148 -1.1228  0.0234
  133MOL0     H17945   8.833  10.366   8.402 -1.0823  0.5393 -1.0105
  133MOL0     H17946   8.805  10.306   8.566  1.6230  1.4293 -0.5607
  133MOL0     H17947   8.926  10.100   8.364  1.2985  1.3474 -1.6408
  133MOL0     H17948   8.944  10.112   8.540 -2.4247 -1.2510 -0.3920
  133MOL0     H17949   9.123  10.268   8.529  1.5345  3.4048 -0.7802
  133MOL0     H17950   9.089  10.312   8.366 -0.7445 -0.0220 -0.1326
  133MOL0     H17951   9.147  10.056   8.308  1.9235  1.4880 -1.6635
  133MOL0     H17952   9.180  10.042   8.487  0.8288 -0.8761 -0.6497
  133MOL0     H17953   9.522  10.209   8.304  0.6374  0.2511  0.9645
  133MOL0     H17954   8.479  10.083   8.381 -2.1164  0.0391 -0.1372
  133MOL0     H17955   8.265  10.158   8.398  0.5177 -1.5510  3.8275
  134MOL0     O17956  10.358   8.645  11.106 -1.1040  0.0168  1.2143
  134MOL0     C17957  10.374   8.620  11.223 -0.1248  0.4781  1.0405
  134MOL0     O17958  10.272   8.583  11.308 -0.4233 -0.8317  0.6561
  134MOL0     C17959  10.144   8.586  11.265  0.3607 -0.4530  0.0782
  134MOL0     C17960  10.054   8.630  11.353  0.7739  0.3077 -0.3451
  134MOL0     C17961   9.917   8.642  11.315 -0.1218 -0.1437 -0.2953
  134MOL0     C17962   9.875   8.594  11.187  0.7296 -0.4196 -0.0529
  134MOL0     O17963   9.750   8.601  11.128 -0.6230 -0.0803 -0.3738
  134MOL0     C17964   9.645   8.686  11.182 -0.8661  1.0040  0.2880
  134MOL0     C17965   9.509   8.627  11.131 -0.5283 -0.2722  0.2015
  134MOL0     C17966   9.500   8.563  10.994 -0.6250 -0.6705 -0.2254
  134MOL0     C17967   9.563   8.648  10.886  0.2864  0.2825 -0.5183
  134MOL0     C17968   9.537   8.579  10.744 -0.2582 -0.1863 -0.3819
  134MOL0     C17969   9.590   8.665  10.622  0.3346  0.1482  0.0735
  134MOL0     C17970   9.738   8.696  10.612 -0.3708  0.8898  0.6712
  134MOL0     C17971   9.812   8.587  10.530 -0.3555 -0.8796  0.4040
  134MOL0     N17972   9.847   8.633  10.392  0.0074  0.4921 -0.1722
  134MOL0     C17973   9.969   8.614  10.331 -0.1680  0.3692 -0.7709
  134MOL0     C17974   9.940   8.634  10.205 -0.5439  0.3638 -0.1161
  134MOL0     C17975  10.047   8.626  10.093  1.0087 -0.3176 -0.4301
  134MOL0     C17976   9.992   8.725   9.982 -0.1103  0.1017  1.0014
  134MOL0     C17977  10.105   8.754   9.870 -0.1789  1.5188 -0.1847
  134MOL0     C17978  10.054   8.859   9.780  0.6876 -0.0219  0.2041
  134MOL0     O17979  10.015   8.975   9.855 -0.1509 -0.9175 -0.3098
  134MOL0     C17980   9.965   9.093   9.798  0.1005  0.5925 -1.2857
  134MOL0     C17981   9.930   9.114   9.667 -0.7886  0.1531 -0.0495
  134MOL0     C17982   9.891   9.239   9.616  0.0508  1.2381 -0.7258
  134MOL0     C17983   9.838   9.227   9.474  0.4867 -0.1331 -0.9592
  134MOL0     C17984   9.893   9.352   9.706 -0.4464  0.9230  0.6654
  134MOL0     C17985   9.851   9.484   9.662  0.4584  0.4649  0.4475
  134MOL0     O17986   9.893   9.583   9.748 -0.1317 -0.1137 -0.0423
  134MOL0     C17987   9.870   9.710   9.704 -0.3948  0.1490  0.6842
  134MOL0     C17988   9.890   9.756   9.571  0.3971 -0.2848 -0.2612
  134MOL0     C17989   9.880   9.888   9.535 -0.4387 -0.3125 -0.0552
  134MOL0     C17990   9.838   9.992   9.630 -0.4274  1.0910 -0.0879
  134MOL0     O17991   9.841  10.129   9.604 -0.5224  0.3452  0.2518
  134MOL0     C17992   9.935  10.164   9.500 -0.2706 -0.1939 -1.2474
  134MOL0     C17993   9.954  10.317   9.491 -0.8502 -0.2256 -1.0989
  134MOL0     C17994  10.069  10.361   9.580 -0.7529 -0.7772 -0.6196
  134MOL0     C17995  10.060  10.507   9.631 -0.8442  0.2104 -0.0082
  134MOL0     C17996  10.180  10.569   9.701  0.9019  0.0549  0.6628
  134MOL0     C17997  10.134  10.695   9.783  0.2711 -0.7859  0.2846
  134MOL0     C17998  10.254  10.753   9.866  0.7963 -0.4090  0.0204
  134MOL0     C17999  10.276  10.680  10.003  0.2216 -0.2787 -0.3915
  134MOL0    Cl18000  10.121  10.691  10.093  0.2789 -0.3694  0.2299
  134MOL0     C18001   9.803   9.938   9.755 -0.0051  0.0704  0.9105
  134MOL0     C18002   9.812   9.806   9.791  0.0349  0.6320 -0.1525
  134MOL0     O18003   9.785   9.498   9.561 -0.2230  0.0974  0.2317
  134MOL0     C18004   9.937   9.330   9.837 -0.4142 -0.0544 -0.2579
  134MOL0     C18005   9.978   9.204   9.876  0.4254 -0.8689 -0.3465
  134MOL0     N18006   9.803   8.672  10.192  1.0610 -0.5199 -0.0010
  134MOL0     N18007   9.744   8.669  10.307  0.4813 -0.6571  0.7814
  134MOL0     C18008   9.967   8.538  11.094  0.0526 -0.0689 -0.0229
  134MOL0     C18009  10.099   8.528  11.140  0.2931  0.5309  0.5898
  134MOL0     C18010  10.516   8.619  11.276 -0.0431 -0.7711 -0.3754
  134MOL0     C18011  10.629   8.604  11.200  0.1888  0.6580 -0.6963
  134MOL0     C18012  10.753   8.588  11.267 -0.0681 -0.1873  0.5671
  134MOL0     C18013  10.765   8.616  11.409  0.7099 -0.5069  0.4922
  134MOL0     O18014  10.887   8.601  11.474  0.4801  0.3195 -0.4237
  134MOL0     C18015  11.005   8.587  11.393 -0.3955 -0.2722 -0.0905
  134MOL0     C18016  11.138   8.567  11.457 -0.3193  0.0835 -0.0943
  134MOL0     C18017  11.159   8.668  11.579  0.0004 -0.7999  0.3329
  134MOL0     C18018  11.303   8.664  11.641  0.0708 -0.1409  0.1379
  134MOL0     C18019  11.323   8.776  11.733 -0.0183 -0.4719  0.0464
  134MOL0     C18020  11.361   8.863  11.800  0.7698  0.1122 -1.1335
  134MOL0     C18021  10.645   8.626  11.478 -0.3290 -0.3318  0.3907
  134MOL0     C18022  10.525   8.623  11.419 -0.7781  0.9165  0.1390
  134MOL0     H18023  10.080   8.659  11.454 -3.1108 -0.2471  0.9755
  134MOL0     H18024   9.850   8.689  11.386  0.0009 -0.8665  0.3079
  134MOL0     H18025   9.641   8.663  11.289  1.2316 -3.2802 -0.3051
  134MOL0     H18026   9.664   8.787  11.146  1.8112  0.1034 -1.1280
  134MOL0     H18027   9.463   8.565  11.208 -0.1004  0.0115  0.6861
  134MOL0     H18028   9.436   8.708  11.130 -0.5126 -0.2555 -0.6808
  134MOL0     H18029   9.549   8.465  10.992 -0.6092 -0.7039  1.1753
  134MOL0     H18030   9.393   8.544  10.978 -1.2831  1.8203  0.7730
  134MOL0     H18031   9.526   8.751  10.890  1.9011  0.8916  0.0908
  134MOL0     H18032   9.666   8.671  10.917  0.6100  1.3050 -2.2279
  134MOL0     H18033   9.571   8.476  10.728 -0.9767 -0.7162  1.2915
  134MOL0     H18034   9.430   8.576  10.720 -1.2011  1.3301  2.9821
  134MOL0     H18035   9.559   8.624  10.526  3.9837 -1.6385 -0.5317
  134MOL0     H18036   9.549   8.766  10.629  0.6141  0.1535  2.9529
  134MOL0     H18037   9.768   8.794  10.573  0.4086  0.1218 -0.7347
  134MOL0     H18038   9.779   8.698  10.713  0.4678  0.1949  0.3526
  134MOL0     H18039   9.737   8.509  10.517  0.0974 -1.4130  0.9462
  134MOL0     H18040   9.901   8.556  10.585  2.0308  2.4740 -1.1680
  134MOL0     H18041  10.060   8.597  10.388  0.2364 -1.3030 -1.8310
  134MOL0     H18042  10.148   8.654  10.122  0.5624  0.6397  0.2734
  134MOL0     H18043  10.048   8.528  10.044  1.7233 -1.4242  1.6767
  134MOL0     H18044   9.983   8.818  10.039  2.1418  0.2684  1.1936
  134MOL0     H18045   9.902   8.690   9.932  0.4398 -1.1655  0.8485
  134MOL0     H18046  10.117   8.663   9.810 -2.1853  2.3231 -1.9598
  134MOL0     H18047  10.198   8.797   9.908 -0.0765  2.3734 -1.3634
  134MOL0     H18048   9.962   8.820   9.736 -1.4081  1.7852  2.6978
  134MOL0     H18049  10.129   8.877   9.703 -0.4833  1.2226 -0.6858
  134MOL0     H18050   9.934   9.028   9.601 -2.5311  1.6877 -2.3625
  134MOL0     H18051   9.862   9.322   9.425 -2.2802  0.2984 -1.6667
  134MOL0     H18052   9.881   9.141   9.421  1.1220 -0.6475  0.3547
  134MOL0     H18053   9.732   9.201   9.469  0.8175 -1.3329 -3.0246
  134MOL0     H18054   9.910   9.680   9.496  1.3243 -1.4926  1.1428
  134MOL0     H18055   9.902   9.914   9.432 -0.3017  1.7786  0.4423
  134MOL0     H18056  10.029  10.111   9.520 -0.5293 -0.5417 -0.9485
  134MOL0     H18057   9.901  10.147   9.398  2.6877  2.4967 -2.8969
  134MOL0     H18058   9.971  10.362   9.393  1.4033 -2.7718 -2.0193
  134MOL0     H18059   9.861  10.366   9.521  0.0176  0.7761  0.0937
  134MOL0     H18060  10.160  10.343   9.523  1.3549  0.5083  2.0786
  134MOL0     H18061  10.071  10.296   9.668 -1.2948  0.3137  0.2270
  134MOL0     H18062  10.033  10.566   9.542  1.7348 -0.5178 -1.3773
  134MOL0     H18063   9.971  10.497   9.694 -0.0047 -1.1485  1.0069
  134MOL0     H18064  10.252  10.595   9.623  2.0299  0.0809  1.6864
  134MOL0     H18065  10.230  10.497   9.766 -0.2160 -0.9979  0.3886
  134MOL0     H18066  10.098  10.770   9.712  0.1737  0.4727  1.6414
  134MOL0     H18067  10.056  10.673   9.856  0.9759 -2.7393  0.5293
  134MOL0     H18068  10.237  10.859   9.887  0.2584  0.3093 -3.4610
  134MOL0     H18069  10.346  10.757   9.807  1.9533  2.7154  1.7632
  134MOL0     H18070  10.356  10.735  10.053  0.2774 -0.5936 -0.1323
  134MOL0     H18071  10.292  10.574   9.981  4.4327  0.4147 -1.5746
  134MOL0     H18072   9.757  10.003   9.829 -1.9117 -4.0131  3.6922
  134MOL0     H18073   9.796   9.790   9.897  1.0449  3.4676  0.5076
  134MOL0     H18074   9.941   9.406   9.915 -1.2517 -2.0955  1.9152
  134MOL0     H18075  10.025   9.178   9.970 -0.5964 -1.5817 -0.0114
  134MOL0     H18076   9.928   8.503  10.999 -1.0876 -0.8305  0.6993
  134MOL0     H18077  10.171   8.474  11.080  0.7087  1.2302  0.4408
  134MOL0     H18078  10.615   8.580  11.095 -2.1672 -0.4207 -0.1926
  134MOL0     H18079  10.837   8.566  11.202 -0.0590 -0.2577  0.6025
  134MOL0     H18080  10.993   8.501  11.327 -1.6029  0.3935 -0.7717
  134MOL0     H18081  11.009   8.668  11.320  0.6817 -1.9802 -2.0267
  134MOL0     H18082  11.206   8.605  11.379 -1.0750  1.5060 -0.1099
  134MOL0     H18083  11.158   8.465  11.489  1.0270  0.3829  0.1133
  134MOL0     H18084  11.096   8.636  11.662 -0.5666 -0.2545  0.1155
  134MOL0     H18085  11.151   8.768  11.535  2.3167 -0.7968 -0.2460
  134MOL0     H18086  11.387   8.672  11.571  2.5056 -1.4450  2.7075
  134MOL0     H18087  11.318   8.567  11.690  0.7556 -0.3430 -0.4571
  134MOL0     H18088  11.397   8.950  11.852 -1.1512  1.1466 -1.4394
  134MOL0     H18089  10.636   8.621  11.587 -2.9823  0.6265  0.2945
  134MOL0     H18090  10.429   8.633  11.470 -1.8365  0.0566 -1.5932
  135MOL0     O18091  10.385   8.254  11.183  0.7719 -0.7837  0.2140
  135MOL0     C18092  10.440   8.146  11.185  0.0285  0.8914 -0.3770
  135MOL0     O18093  10.399   8.031  11.119 -0.4334  0.0093 -0.7321
  135MOL0     C18094  10.276   8.044  11.055 -0.3464 -0.1979  0.6284
  135MOL0     C18095  10.153   8.045  11.128  0.5399 -0.1362  0.3356
  135MOL0     C18096  10.030   8.028  11.058 -0.6592  0.1631 -0.6664
  135MOL0     C18097  10.034   8.043  10.916  0.4207 -0.9960  0.1367
  135MOL0     O18098   9.924   8.038  10.836 -0.0008  0.7497  0.7136
  135MOL0     C18099   9.789   8.050  10.892 -0.6110  0.3178  0.3273
  135MOL0     C18100   9.694   8.078  10.774  0.0169 -0.8458 -0.2349
  135MOL0     C18101   9.546   8.082  10.816 -0.1314 -0.3538  0.2581
  135MOL0     C18102   9.444   8.092  10.699  0.3474  0.1517 -0.2345
  135MOL0     C18103   9.451   8.221  10.619 -0.2110  0.0996  0.4670
  135MOL0     C18104   9.387   8.232  10.483 -0.3175  0.7475  0.5832
  135MOL0     C18105   9.237   8.207  10.478 -0.4834 -0.0376 -0.0231
  135MOL0     C18106   9.156   8.309  10.558 -0.3593  0.0266 -0.7344
  135MOL0     N18107   9.014   8.309  10.518 -0.5611 -0.0505  0.2433
  135MOL0     C18108   8.938   8.421  10.519  0.1024 -0.0864  0.2456
  135MOL0     C18109   8.809   8.371  10.499  0.3558 -0.7521 -0.0821
  135MOL0     C18110   8.677   8.451  10.476  0.2862 -0.1037 -0.3269
  135MOL0     C18111   8.652   8.524  10.340  0.5247 -0.8321 -0.7376
  135MOL0     C18112   8.541   8.634  10.336 -0.0949 -0.1654 -0.7045
  135MOL0     C18113   8.407   8.574  10.373 -0.1971  0.5860 -0.9083
  135MOL0     O18114   8.306   8.673  10.352 -0.2178 -0.2793 -0.1282
  135MOL0     C18115   8.173   8.630  10.372 -0.2051  0.8894 -0.6546
  135MOL0     C18116   8.129   8.511  10.436 -0.3048 -0.1618 -0.8355
  135MOL0     C18117   7.991   8.477  10.441 -0.2075  0.7081  1.5311
  135MOL0     C18118   7.956   8.350  10.509  0.2950  0.7749 -0.0139
  135MOL0     C18119   7.898   8.551  10.368  0.0923 -0.9377 -0.1911
  135MOL0     C18120   7.747   8.515  10.364 -0.6008 -0.5344 -0.0744
  135MOL0     O18121   7.664   8.621  10.341 -0.0954  0.3638  0.0934
  135MOL0     C18122   7.526   8.597  10.355  0.2353  0.2503  0.2997
  135MOL0     C18123   7.467   8.514  10.451 -0.5025  0.1235 -0.5432
  135MOL0     C18124   7.328   8.492  10.454  0.4493 -0.1788  1.3211
  135MOL0     C18125   7.241   8.560  10.357 -0.8202  0.1709 -0.7333
  135MOL0     O18126   7.110   8.534  10.362  0.0994 -0.1257  0.0436
  135MOL0     C18127   7.023   8.607  10.279 -0.1458  0.0386  0.1364
  135MOL0     C18128   6.884   8.603  10.348 -0.3036  0.0275 -0.3573
  135MOL0     C18129   6.774   8.657  10.261 -0.7525 -1.1410 -0.6936
  135MOL0     C18130   6.642   8.673  10.333  0.4381  0.0358  0.5906
  135MOL0     C18131   6.543   8.582  10.282 -0.4740 -0.0326  0.2801
  135MOL0     C18132   6.408   8.601  10.357  0.9686 -0.2731 -0.5383
  135MOL0     C18133   6.344   8.747  10.349 -0.4521 -0.3736  0.1644
  135MOL0     C18134   6.202   8.743  10.411  1.0593 -0.5688 -0.2771
  135MOL0    Cl18135   6.074   8.649  10.319 -0.1341  0.2088 -0.2583
  135MOL0     C18136   7.307   8.646  10.265  0.6692 -0.7126  0.0407
  135MOL0     C18137   7.440   8.664  10.273 -0.4759  0.2079 -0.0406
  135MOL0     O18138   7.713   8.393  10.364 -0.5109 -0.4170  0.2172
  135MOL0     C18139   7.946   8.665  10.302 -0.3256  0.2288  0.7727
  135MOL0     C18140   8.076   8.708  10.309 -0.7741  0.2314  0.7738
  135MOL0     N18141   8.821   8.236  10.482 -0.2983  0.3099 -1.0875
  135MOL0     N18142   8.939   8.198  10.499  0.0660 -0.7801  0.5040
  135MOL0     C18143  10.156   8.059  10.842 -0.9812 -0.3236  0.0596
  135MOL0     C18144  10.271   8.048  10.915 -0.6532 -0.7758 -0.2543
  135MOL0     C18145  10.553   8.133  11.265 -0.3129  0.2583  0.1991
  135MOL0     C18146  10.631   8.246  11.295 -0.6431  0.2591 -0.2555
  135MOL0     C18147  10.737   8.235  11.389  0.9125  0.3453 -0.0725
  135MOL0     C18148  10.766   8.116  11.447 -0.0693  0.4620 -0.1498
  135MOL0     O18149  10.868   8.121  11.537 -0.0857  0.2479 -0.2410
  135MOL0     C18150  10.924   8.003  11.600 -0.0456 -0.1479  0.2433
  135MOL0     C18151  11.021   8.053  11.702  0.6804 -0.6393 -0.1268
  135MOL0     C18152  11.122   8.148  11.642 -0.4875  0.2062  0.5973
  135MOL0     C18153  11.253   8.169  11.721  0.0823 -0.7660  0.5014
  135MOL0     C18154  11.225   8.192  11.859  0.2158  0.3255  0.2122
  135MOL0     C18155  11.186   8.223  11.971  0.4858 -0.5347  0.7789
  135MOL0     C18156  10.685   8.002  11.415 -0.4554 -0.0377 -0.4632
  135MOL0     C18157  10.580   8.007  11.325  0.2840 -0.2485 -0.1658
  135MOL0     H18158  10.159   8.046  11.237  3.0767  1.1219  0.2777
  135MOL0     H18159   9.944   8.011  11.121 -0.5492  0.2504 -0.4935
  135MOL0     H18160   9.759   7.955  10.935 -0.5670 -1.3617 -3.0211
  135MOL0     H18161   9.790   8.131  10.966  1.0136 -1.0331  1.8888
  135MOL0     H18162   9.712   8.182  10.744 -2.0787 -0.0367  1.0825
  135MOL0     H18163   9.712   8.017  10.685  0.4120 -3.4834  1.5390
  135MOL0     H18164   9.533   7.993  10.879 -0.4139  1.1725  2.4932
  135MOL0     H18165   9.529   8.170  10.880  1.2407 -0.5574  0.9342
  135MOL0     H18166   9.458   8.004  10.637 -2.1779 -1.9588  1.9320
  135MOL0     H18167   9.341   8.074  10.732  0.8618  1.1838  2.1974
  135MOL0     H18168   9.399   8.302  10.671 -0.8581  1.5583 -2.2912
  135MOL0     H18169   9.556   8.251  10.612 -0.8494  2.2236 -1.0216
  135MOL0     H18170   9.414   8.325  10.431 -0.3440  1.1820  1.3401
  135MOL0     H18171   9.436   8.154  10.424 -1.2208  0.9613 -0.4768
  135MOL0     H18172   9.207   8.216  10.373  0.9903  2.4119 -0.3188
  135MOL0     H18173   9.214   8.102  10.497 -1.1011  0.5860  3.1945
  135MOL0     H18174   9.202   8.407  10.548 -0.1136 -0.1799 -1.7499
  135MOL0     H18175   9.170   8.282  10.663  2.1661 -1.1721 -1.3137
  135MOL0     H18176   8.967   8.524  10.540  2.2926 -0.5842 -0.0383
  135MOL0     H18177   8.594   8.380  10.486 -2.3248  2.8307  0.5364
  135MOL0     H18178   8.660   8.517  10.562 -2.7324 -1.1587 -0.0022
  135MOL0     H18179   8.626   8.452  10.263 -4.0857  0.7349 -0.9499
  135MOL0     H18180   8.751   8.566  10.319  1.8775 -2.8528  1.1722
  135MOL0     H18181   8.553   8.679  10.237  1.6569 -0.8465 -0.8306
  135MOL0     H18182   8.557   8.705  10.417 -2.1723  1.1464 -1.3761
  135MOL0     H18183   8.421   8.542  10.476 -0.5157  1.5601 -0.5557
  135MOL0     H18184   8.380   8.483  10.319 -0.1589  0.4944 -0.7744
  135MOL0     H18185   8.198   8.447  10.491 -0.9403 -0.1344  0.0176
  135MOL0     H18186   8.041   8.305  10.562  0.1038  1.7193  1.1389
  135MOL0     H18187   7.874   8.369  10.579  0.9541 -1.5909  1.5367
  135MOL0     H18188   7.913   8.273  10.445  1.1494 -0.8584  1.2913
  135MOL0     H18189   7.528   8.475  10.532  0.1313  0.0609 -1.0432
  135MOL0     H18190   7.287   8.440  10.540 -1.4485 -0.8135  0.0958
  135MOL0     H18191   7.050   8.712  10.269 -1.4531  0.3128 -0.9096
  135MOL0     H18192   7.020   8.560  10.180 -0.4060 -1.3374  0.7744
  135MOL0     H18193   6.862   8.503  10.386 -1.7558  0.6542  0.5512
  135MOL0     H18194   6.887   8.664  10.439  0.1757 -0.1874 -0.2218
  135MOL0     H18195   6.766   8.591  10.174  3.0697 -4.0282  0.8569
  135MOL0     H18196   6.810   8.757  10.235 -0.6222 -0.8045  0.7078
  135MOL0     H18197   6.643   8.664  10.442 -0.6555  0.5381  0.6548
  135MOL0     H18198   6.602   8.772  10.312 -0.0245 -0.2876 -0.1070
  135MOL0     H18199   6.584   8.481  10.294  2.1557  1.0424  1.0507
  135MOL0     H18200   6.521   8.608  10.178 -0.6154  1.0420  0.5595
  135MOL0     H18201   6.337   8.531  10.311 -0.2993  0.4074  0.3024
  135MOL0     H18202   6.410   8.575  10.463  0.4642  0.4034 -0.3604
  135MOL0     H18203   6.350   8.779  10.245  0.7703  0.0054  0.3301
  135MOL0     H18204   6.397   8.826  10.403  0.5432 -1.3760  0.6893
  135MOL0     H18205   6.165   8.845  10.420 -0.7573 -0.8971 -2.8971
  135MOL0     H18206   6.218   8.696  10.508 -3.0024 -2.1481 -0.2011
  135MOL0     H18207   7.256   8.697  10.184  1.8370 -0.5451 -0.6068
  135MOL0     H18208   7.483   8.734  10.203 -0.9606 -1.8419 -2.5348
  135MOL0     H18209   7.874   8.731  10.255  0.3285 -1.7941 -3.5706
  135MOL0     H18210   8.111   8.801  10.265 -1.2677 -0.2581 -0.7266
  135MOL0     H18211  10.160   8.068  10.733 -0.1428 -1.0351  0.0280
  135MOL0     H18212  10.369   8.054  10.868  0.2570  1.7836  1.7479
  135MOL0     H18213  10.609   8.340  11.245  0.6449 -0.5504 -2.4598
  135MOL0     H18214  10.791   8.325  11.417  0.0592  1.2970 -1.3843
  135MOL0     H18215  10.861   7.928  11.649 -1.3765 -2.0925 -3.9331
  135MOL0     H18216  10.961   7.951  11.511 -2.0210  1.8541 -1.9188
  135MOL0     H18217  11.081   7.969  11.740  0.8187 -0.8661 -0.8335
  135MOL0     H18218  10.975   8.093  11.793 -1.2005  2.4993 -2.2587
  135MOL0     H18219  11.071   8.245  11.638  0.0967  0.5298  0.9406
  135MOL0     H18220  11.143   8.105  11.544  2.1110 -1.8534  1.9515
  135MOL0     H18221  11.309   8.256  11.685 -0.3728 -0.3139  0.8725
  135MOL0     H18222  11.320   8.085  11.700  0.7333  0.2096 -1.6131
  135MOL0     H18223  11.151   8.249  12.069  2.4344  0.1313  1.3347
  135MOL0     H18224  10.710   7.903  11.451 -1.9262  0.0666  0.9853
  135MOL0     H18225  10.515   7.922  11.303  0.0052 -0.0220 -0.2225
  136MOL0     O18226   3.543   8.199   1.724  0.1679  0.0934 -0.0487
  136MOL0     C18227   3.503   8.318   1.714 -0.3211 -0.1109 -0.5488
  136MOL0     O18228   3.381   8.367   1.750 -0.1269 -0.2403  0.4558
  136MOL0     C18229   3.289   8.291   1.822  0.3657  0.2423 -0.4756
  136MOL0     C18230   3.320   8.242   1.944 -0.2410  0.1715 -0.1220
  136MOL0     C18231   3.215   8.198   2.027 -0.3489  0.0670  0.1022
  136MOL0     C18232   3.083   8.199   1.994  0.4116  0.0164 -0.5631
  136MOL0     O18233   2.992   8.139   2.082  0.0719  0.1104  0.0635
  136MOL0     C18234   2.862   8.202   2.076 -0.2938 -0.0006 -0.3787
  136MOL0     C18235   2.777   8.141   2.184 -0.1230  0.4956  0.2062
  136MOL0     C18236   2.631   8.186   2.174 -0.2318  0.2060 -0.5494
  136MOL0     C18237   2.548   8.117   2.290  0.6391  0.0844  0.3752
  136MOL0     C18238   2.568   8.177   2.432  0.4297 -0.2561 -0.1692
  136MOL0     C18239   2.456   8.149   2.534 -1.0930 -0.2652  1.0755
  136MOL0     C18240   2.453   8.244   2.651 -0.9452  0.2271 -0.1683
  136MOL0     C18241   2.328   8.222   2.716  0.4560  0.3811  0.1954
  136MOL0     N18242   2.312   8.299   2.837 -0.1661  0.5676 -0.3574
  136MOL0     C18243   2.306   8.438   2.849  0.7010 -0.1261 -0.6160
  136MOL0     C18244   2.259   8.468   2.973  0.1397  0.0555 -0.5580
  136MOL0     C18245   2.241   8.604   3.026  0.8396 -0.5585 -0.4762
  136MOL0     C18246   2.382   8.662   3.056 -0.1830 -0.4314 -0.2356
  136MOL0     C18247   2.366   8.803   3.112  0.7622  0.2600 -0.3274
  136MOL0     C18248   2.360   8.916   3.009 -0.4844  0.4985  0.1349
  136MOL0     O18249   2.340   9.026   3.101  0.0473 -0.3869 -1.0298
  136MOL0     C18250   2.253   9.122   3.062 -0.3666  0.3714 -0.8989
  136MOL0     C18251   2.200   9.135   2.935 -0.4360  1.1197 -0.2111
  136MOL0     C18252   2.108   9.241   2.897  0.5897 -0.1555 -0.2029
  136MOL0     C18253   2.069   9.244   2.750 -0.1343 -0.0412 -0.0918
  136MOL0     C18254   2.069   9.337   2.995  0.0507 -0.4779  1.0875
  136MOL0     C18255   1.969   9.447   2.980 -0.2218 -0.2083 -0.5257
  136MOL0     O18256   1.998   9.568   3.036  0.0205 -0.7635 -0.5671
  136MOL0     C18257   1.914   9.678   3.039 -0.4629 -0.0908  0.0382
  136MOL0     C18258   1.979   9.794   3.080  0.0352 -0.5344 -0.0006
  136MOL0     C18259   1.910   9.920   3.086 -0.6956  0.6464  0.8886
  136MOL0     C18260   1.774   9.925   3.048  0.5903 -0.1312 -0.3330
  136MOL0     O18261   1.693  10.038   3.040 -0.1640 -0.4229  0.1069
  136MOL0     C18262   1.759  10.167   3.045 -0.7367  0.2820 -0.1353
  136MOL0     C18263   1.657  10.273   3.045 -0.5886  0.5386 -0.1890
  136MOL0     C18264   1.724  10.394   2.979  0.1703  0.1196  0.6915
  136MOL0     C18265   1.662  10.527   3.032  0.0164  1.4011 -0.4485
  136MOL0     C18266   1.696  10.638   2.932 -0.9384  0.0636  0.0761
  136MOL0     C18267   1.597  10.665   2.824 -0.4159  0.7590  1.1399
  136MOL0     C18268   1.451  10.680   2.867 -0.7057  0.7902 -0.2342
  136MOL0     C18269   1.381  10.786   2.785  0.1892  0.1193  0.6564
  136MOL0    Cl18270   1.239  10.854   2.873  0.5572  0.8725 -0.0813
  136MOL0     C18271   1.712   9.800   3.029 -0.1483 -0.3225 -0.0472
  136MOL0     C18272   1.778   9.680   3.032 -0.0435 -0.0108  0.2724
  136MOL0     O18273   1.875   9.425   2.910 -0.1846 -0.4801  0.4794
  136MOL0     C18274   2.140   9.333   3.119 -0.8240 -0.3555 -0.5550
  136MOL0     C18275   2.227   9.228   3.151  0.4266 -0.6641  0.1447
  136MOL0     N18276   2.236   8.343   3.040  0.7442 -0.2254  0.4150
  136MOL0     N18277   2.260   8.244   2.958 -0.0246 -0.6688 -0.2566
  136MOL0     C18278   3.058   8.244   1.864 -0.4340  0.0695  0.2568
  136MOL0     C18279   3.155   8.283   1.776 -0.1579  0.2047  0.0558
  136MOL0     C18280   3.590   8.415   1.640 -0.0917  0.1369  0.3355
  136MOL0     C18281   3.724   8.378   1.607 -0.2681 -0.3418 -0.6950
  136MOL0     C18282   3.805   8.463   1.537  0.4021  0.4165 -0.1948
  136MOL0     C18283   3.768   8.587   1.499  0.2949  0.2178  0.4538
  136MOL0     O18284   3.853   8.671   1.438 -0.3101 -0.9847  0.2727
  136MOL0     C18285   3.905   8.770   1.526  0.0814  0.8378 -0.4597
  136MOL0     C18286   4.003   8.855   1.445  0.5071 -0.1220  0.3415
  136MOL0     C18287   4.104   8.926   1.538  0.0004  0.2407  1.0344
  136MOL0     C18288   4.184   9.050   1.482 -0.3382  0.9457 -0.2826
  136MOL0     C18289   4.247   9.020   1.355 -0.2875  0.3846  0.1056
  136MOL0     C18290   4.301   8.983   1.261 -0.1606 -0.3325 -0.2395
  136MOL0     C18291   3.635   8.629   1.543 -0.7567  0.4915 -0.1619
  136MOL0     C18292   3.554   8.546   1.611  0.3366 -0.0940  0.3108
  136MOL0     H18293   3.423   8.252   1.978 -0.4266  1.0387  0.2200
  136MOL0     H18294   3.240   8.157   2.124  0.8683 -0.3961 -0.3812
  136MOL0     H18295   2.861   8.309   2.097 -2.7774 -0.5085  3.0460
  136MOL0     H18296   2.812   8.169   1.984 -1.3001  1.1681 -0.2787
  136MOL0     H18297   2.792   8.033   2.173  1.9540  0.8199 -0.5303
  136MOL0     H18298   2.817   8.185   2.276  0.0141  0.6773  0.0589
  136MOL0     H18299   2.636   8.294   2.192 -0.6731  0.4703 -1.9009
  136MOL0     H18300   2.584   8.163   2.078  1.0382 -0.9816 -0.9190
  136MOL0     H18301   2.446   8.136   2.255  1.4068  0.8075 -1.5997
  136MOL0     H18302   2.551   8.008   2.298 -0.7996 -0.1190 -1.1833
  136MOL0     H18303   2.656   8.124   2.471  2.6803  0.3442 -3.9184
  136MOL0     H18304   2.585   8.285   2.427  1.0287 -0.4040 -2.0851
  136MOL0     H18305   2.363   8.151   2.477  1.7588  0.6802 -4.2641
  136MOL0     H18306   2.487   8.053   2.575  3.1567 -0.1862 -1.2495
  136MOL0     H18307   2.537   8.236   2.720 -1.6767  2.0453  0.9832
  136MOL0     H18308   2.456   8.347   2.614  1.4778 -0.0636 -0.9443
  136MOL0     H18309   2.328   8.117   2.749 -1.3251  0.6283  1.0789
  136MOL0     H18310   2.244   8.221   2.646 -0.5525 -3.9943  1.1541
  136MOL0     H18311   2.332   8.510   2.772  0.3729  2.1258  1.2793
  136MOL0     H18312   2.196   8.673   2.954  2.7037  0.6833 -0.5232
  136MOL0     H18313   2.183   8.594   3.118  2.4251 -1.6040  0.4600
  136MOL0     H18314   2.448   8.670   2.969  0.5112  0.6389  0.3694
  136MOL0     H18315   2.435   8.593   3.122  0.1906 -2.6046 -2.6395
  136MOL0     H18316   2.450   8.833   3.175  1.1856  1.7116 -1.5319
  136MOL0     H18317   2.277   8.808   3.175  0.6029 -1.1945 -0.3970
  136MOL0     H18318   2.278   8.895   2.940  1.5659 -1.7188 -1.7952
  136MOL0     H18319   2.457   8.914   2.958  0.1598 -1.3085  1.3473
  136MOL0     H18320   2.227   9.071   2.852 -1.0729  0.0714  0.3606
  136MOL0     H18321   2.133   9.195   2.675  0.8144 -0.8099  1.1798
  136MOL0     H18322   1.968   9.203   2.742  0.7974 -2.7090  0.6387
  136MOL0     H18323   2.056   9.347   2.716 -0.9582 -0.2498 -0.4255
  136MOL0     H18324   2.086   9.782   3.090  0.0031 -1.0167 -0.1953
  136MOL0     H18325   1.961  10.011   3.116  2.6746  1.0023 -4.5546
  136MOL0     H18326   1.826  10.169   3.131 -0.5171  0.6998 -0.3156
  136MOL0     H18327   1.816  10.165   2.952  0.7680  2.2982  0.6706
  136MOL0     H18328   1.574  10.231   2.987 -0.4202  2.0686 -1.6067
  136MOL0     H18329   1.620  10.298   3.145 -2.4642 -0.6875 -0.5184
  136MOL0     H18330   1.726  10.384   2.870 -0.7541 -0.9068  0.7575
  136MOL0     H18331   1.828  10.380   3.010  0.1743 -0.1359  0.5639
  136MOL0     H18332   1.554  10.508   3.037  0.2386 -0.0744 -0.6639
  136MOL0     H18333   1.703  10.543   3.132  1.4779 -2.0724 -0.3537
  136MOL0     H18334   1.797  10.636   2.891 -0.9715  2.0833 -0.1943
  136MOL0     H18335   1.696  10.727   2.995 -1.6021 -1.0433  1.7307
  136MOL0     H18336   1.629  10.758   2.776  1.4044 -1.1104 -1.5523
  136MOL0     H18337   1.600  10.590   2.744 -0.8726 -0.9968  2.7037
  136MOL0     H18338   1.454  10.697   2.975  2.2410  0.6870 -0.2191
  136MOL0     H18339   1.398  10.586   2.849 -0.8105  1.1990 -2.2843
  136MOL0     H18340   1.350  10.732   2.695  2.2294 -1.5425  0.8730
  136MOL0     H18341   1.454  10.862   2.753  0.9731 -1.4674 -1.6540
  136MOL0     H18342   1.606   9.806   3.004  0.7565  2.1035 -4.2748
  136MOL0     H18343   1.715   9.596   3.005  3.3828 -2.9504  0.6394
  136MOL0     H18344   2.124   9.411   3.193 -1.3283  0.5395 -1.5933
  136MOL0     H18345   2.292   9.217   3.238  0.7791  0.9641  0.1234
  136MOL0     H18346   2.954   8.230   1.836  0.0228 -1.8004 -0.7211
  136MOL0     H18347   3.135   8.324   1.677 -0.8709  1.4131  0.6775
  136MOL0     H18348   3.762   8.281   1.639 -1.2758 -0.6130 -0.3120
  136MOL0     H18349   3.906   8.439   1.504 -0.4666 -1.6648 -1.5509
  136MOL0     H18350   3.827   8.840   1.557  1.3111  3.0094 -2.0370
  136MOL0     H18351   3.939   8.710   1.611 -1.8587 -0.4725 -0.5430
  136MOL0     H18352   3.939   8.931   1.398  0.8427 -0.6093 -0.9640
  136MOL0     H18353   4.057   8.807   1.363  1.0419  4.0265 -2.0652
  136MOL0     H18354   4.182   8.849   1.547 -0.3160  0.0047  1.8831
  136MOL0     H18355   4.064   8.949   1.637 -1.6098  0.3345  0.3887
  136MOL0     H18356   4.252   9.088   1.559  1.0473 -0.7664 -0.5970
  136MOL0     H18357   4.114   9.129   1.454  0.0395  1.2485 -0.4016
  136MOL0     H18358   4.362   8.954   1.178  0.8564 -0.2980  0.4770
  136MOL0     H18359   3.590   8.725   1.522 -1.0394  0.4035  0.0325
  136MOL0     H18360   3.459   8.581   1.651  0.4797  0.1557  0.4325
  137MOL0     O18361   2.346   1.578   8.477  0.4020  0.0582 -0.3265
  137MOL0     C18362   2.393   1.625   8.376 -0.1199 -0.8227 -0.4708
  137MOL0     O18363   2.326   1.700   8.282  0.3661 -0.1271 -0.6060
  137MOL0     C18364   2.199   1.743   8.304  0.2144 -0.1338  0.1278
  137MOL0     C18365   2.088   1.663   8.340 -0.0296 -0.5663 -0.0516
  137MOL0     C18366   1.974   1.726   8.372 -0.2544  0.5030  0.3275
  137MOL0     C18367   1.952   1.860   8.347 -1.1162 -0.4775 -0.1374
  137MOL0     O18368   1.841   1.919   8.404  0.1768  0.2734  0.4791
  137MOL0     C18369   1.799   2.045   8.350  0.2779  0.7980 -0.6755
  137MOL0     C18370   1.829   2.166   8.447  0.2891  0.1798  0.1674
  137MOL0     C18371   1.979   2.184   8.493  0.3785  0.3090 -0.7427
  137MOL0     C18372   1.985   2.298   8.600 -0.2521  0.2627 -1.0838
  137MOL0     C18373   2.124   2.291   8.669  0.3533  0.2708 -1.1805
  137MOL0     C18374   2.153   2.389   8.788  0.3527  0.6936 -0.2008
  137MOL0     C18375   2.061   2.357   8.912 -0.2143 -1.1713 -0.1614
  137MOL0     C18376   2.030   2.477   9.006  0.0711  0.2487  0.5073
  137MOL0     N18377   1.946   2.576   8.936 -0.2387 -0.7660 -0.7059
  137MOL0     C18378   1.808   2.564   8.928 -0.3443  0.1863 -0.4918
  137MOL0     C18379   1.776   2.661   8.836 -0.3037  0.7407  0.3214
  137MOL0     C18380   1.652   2.674   8.759 -0.7436 -0.5935  0.1552
  137MOL0     C18381   1.522   2.692   8.834  0.4317  0.5880  0.1794
  137MOL0     C18382   1.405   2.631   8.752 -0.6084 -0.2779  0.0003
  137MOL0     C18383   1.408   2.473   8.744 -0.0498 -1.2798 -0.4106
  137MOL0     O18384   1.284   2.421   8.709  0.6955  0.1478 -0.7682
  137MOL0     C18385   1.196   2.384   8.810  0.5585  0.3823 -0.4324
  137MOL0     C18386   1.230   2.360   8.945  0.4210 -0.3496 -0.6731
  137MOL0     C18387   1.136   2.319   9.043 -0.0547 -0.8877  0.3559
  137MOL0     C18388   1.188   2.303   9.187  0.8681 -0.2713 -0.1796
  137MOL0     C18389   1.004   2.290   8.997 -0.3712  0.0859 -0.3288
  137MOL0     C18390   0.888   2.241   9.081 -0.0991  0.1407 -0.9326
  137MOL0     O18391   0.761   2.278   9.049  0.1955 -0.3265 -0.5904
  137MOL0     C18392   0.650   2.223   9.108  0.0908 -0.1483 -0.6057
  137MOL0     C18393   0.624   2.088   9.098 -0.2617  0.9147 -0.7649
  137MOL0     C18394   0.498   2.037   9.125  0.1575  0.5356 -0.4768
  137MOL0     C18395   0.397   2.115   9.169  0.5366  0.0745 -1.3296
  137MOL0     O18396   0.279   2.037   9.191  0.4056 -1.1975  0.2955
  137MOL0     C18397   0.170   2.109   9.250  0.0146 -0.0532  0.2984
  137MOL0     C18398   0.074   2.004   9.307 -0.1799  0.7011  0.8833
  137MOL0     C18399  -0.070   2.061   9.339  0.7628  0.0108  0.0455
  137MOL0     C18400  -0.177   1.955   9.339  0.6314  1.0287 -0.3964
  137MOL0     C18401  -0.320   2.015   9.356  0.1982 -0.0072 -0.2538
  137MOL0     C18402  -0.436   1.912   9.361 -0.9974 -0.4749 -0.1440
  137MOL0     C18403  -0.566   1.965   9.421 -0.6586 -1.2605 -0.7728
  137MOL0     C18404  -0.684   1.883   9.391 -0.3372 -0.9120 -0.0848
  137MOL0    Cl18405  -0.640   1.705   9.386 -0.3563  0.0831 -0.1351
  137MOL0     C18406   0.421   2.253   9.182 -0.1984  0.4878  0.4303
  137MOL0     C18407   0.545   2.303   9.156 -0.0799  0.4903  0.4151
  137MOL0     O18408   0.914   2.155   9.166  0.5007  0.7100 -0.4373
  137MOL0     C18409   0.976   2.298   8.855  0.6347 -1.1898 -0.5375
  137MOL0     C18410   1.068   2.343   8.768 -0.3439  0.6906 -0.6967
  137MOL0     N18411   1.889   2.736   8.813  1.3301 -0.1258  0.9246
  137MOL0     N18412   1.990   2.685   8.866  1.3034 -0.6230 -0.2901
  137MOL0     C18413   2.057   1.941   8.279  0.3118 -0.4282 -0.7292
  137MOL0     C18414   2.180   1.879   8.262 -0.0304 -0.6354 -0.2151
  137MOL0     C18415   2.546   1.610   8.367 -0.1439 -0.5219 -0.3826
  137MOL0     C18416   2.614   1.647   8.245 -1.4832  0.1563 -0.4098
  137MOL0     C18417   2.757   1.623   8.235 -0.0256 -0.8059  0.2941
  137MOL0     C18418   2.830   1.570   8.341  0.4656 -0.2915 -0.1211
  137MOL0     O18419   2.960   1.548   8.327 -0.7930 -0.3441  0.0439
  137MOL0     C18420   3.044   1.655   8.359 -0.0085  0.8358  0.4635
  137MOL0     C18421   3.173   1.591   8.410 -0.8109  0.1500 -0.4136
  137MOL0     C18422   3.259   1.704   8.457  0.0420 -0.2398  0.0849
  137MOL0     C18423   3.387   1.659   8.524 -0.2548 -1.1861 -0.6751
  137MOL0     C18424   3.360   1.607   8.664 -0.1298 -0.1886  0.6005
  137MOL0     C18425   3.334   1.555   8.767 -0.8797 -0.3289  0.2512
  137MOL0     C18426   2.753   1.527   8.448 -0.7652 -0.3255  0.0406
  137MOL0     C18427   2.622   1.546   8.466 -0.2121 -0.4057  0.2520
  137MOL0     H18428   2.103   1.556   8.353 -0.5170 -0.8672 -1.6782
  137MOL0     H18429   1.886   1.678   8.412  0.6098 -2.0473 -0.6632
  137MOL0     H18430   1.831   2.069   8.248  1.1881 -0.4739 -0.7054
  137MOL0     H18431   1.691   2.033   8.339  0.2873 -0.4747  0.3443
  137MOL0     H18432   1.794   2.258   8.398  1.0135  0.5307  0.2994
  137MOL0     H18433   1.759   2.146   8.529 -1.2624 -0.5566 -1.2929
  137MOL0     H18434   2.007   2.084   8.530  0.9831  0.4090 -0.9145
  137MOL0     H18435   2.050   2.205   8.413  1.8507  1.6387  0.8511
  137MOL0     H18436   1.968   2.403   8.572  0.8689  0.9775  0.7636
  137MOL0     H18437   1.907   2.291   8.676 -0.7284  0.4550 -1.5459
  137MOL0     H18438   2.161   2.194   8.704  0.0521 -0.2281 -2.2094
  137MOL0     H18439   2.193   2.319   8.590 -0.9877  0.9054 -2.1529
  137MOL0     H18440   2.260   2.385   8.808  0.1073 -0.2858  1.0646
  137MOL0     H18441   2.129   2.488   8.747  0.0200  2.1392  3.1699
  137MOL0     H18442   1.964   2.327   8.870 -1.0699  1.4523 -0.2032
  137MOL0     H18443   2.105   2.282   8.979  1.7593 -0.8415 -1.0344
  137MOL0     H18444   2.121   2.519   9.051  0.2626 -0.6038  0.9313
  137MOL0     H18445   1.976   2.432   9.090 -0.2164 -2.1887 -0.8980
  137MOL0     H18446   1.742   2.490   8.973  2.0937  0.2291  3.6642
  137MOL0     H18447   1.670   2.762   8.696 -1.2015 -0.5286  0.1139
  137MOL0     H18448   1.643   2.592   8.687 -0.2269 -0.3584 -0.1810
  137MOL0     H18449   1.508   2.799   8.849  0.5531  0.7680 -0.8932
  137MOL0     H18450   1.523   2.651   8.936  0.9597 -1.0564 -0.4525
  137MOL0     H18451   1.396   2.682   8.656  1.2579 -1.7452 -1.0346
  137MOL0     H18452   1.313   2.642   8.809  0.9572 -0.1776  2.6525
  137MOL0     H18453   1.451   2.422   8.830 -1.8776 -1.6604  0.3139
  137MOL0     H18454   1.474   2.443   8.662  0.4372  0.7991 -0.8408
  137MOL0     H18455   1.327   2.387   8.984 -0.5381  1.4256  0.6387
  137MOL0     H18456   1.111   2.321   9.262  1.8761 -2.0251  1.3716
  137MOL0     H18457   1.229   2.204   9.211  0.6583 -0.5497 -0.9332
  137MOL0     H18458   1.258   2.384   9.207  1.2492  0.0399 -2.4421
  137MOL0     H18459   0.696   2.028   9.044  2.1133  1.6462  1.3700
  137MOL0     H18460   0.473   1.931   9.120  1.4276  0.0151  2.1632
  137MOL0     H18461   0.206   2.173   9.330 -0.9231  1.4813 -0.4533
  137MOL0     H18462   0.105   2.168   9.184 -0.2778  1.4756  1.8884
  137MOL0     H18463   0.074   1.923   9.234  0.7015 -2.4755  4.1209
  137MOL0     H18464   0.110   1.955   9.398 -2.4868  1.7408  2.4645
  137MOL0     H18465  -0.100   2.138   9.267 -1.6493 -0.5804  0.3325
  137MOL0     H18466  -0.058   2.108   9.437  1.5183 -1.9400  0.9349
  137MOL0     H18467  -0.188   1.902   9.244 -0.0458  0.0105  0.2353
  137MOL0     H18468  -0.159   1.881   9.417  2.6855  0.8032 -1.0138
  137MOL0     H18469  -0.328   2.095   9.282  2.1080  0.0548 -0.4458
  137MOL0     H18470  -0.312   2.054   9.458 -0.8469 -2.7367  0.9613
  137MOL0     H18471  -0.451   1.880   9.257 -0.4859  1.3055 -0.7949
  137MOL0     H18472  -0.411   1.828   9.427 -3.3421 -0.2474  1.1396
  137MOL0     H18473  -0.597   2.065   9.387 -2.7953 -1.0457  1.5573
  137MOL0     H18474  -0.549   1.959   9.529 -0.2897  0.7884 -0.6728
  137MOL0     H18475  -0.719   1.911   9.291 -0.4699  0.6469  0.3735
  137MOL0     H18476  -0.765   1.906   9.461 -0.4563  1.8174 -0.9898
  137MOL0     H18477   0.338   2.318   9.210 -1.7690 -0.6469 -1.3219
  137MOL0     H18478   0.559   2.410   9.143  3.1026  0.3051  1.3734
  137MOL0     H18479   0.879   2.266   8.819 -0.1521  0.0821  0.3817
  137MOL0     H18480   1.037   2.351   8.664 -1.3678  0.4293 -0.4292
  137MOL0     H18481   2.037   2.034   8.228  0.6446 -0.9627 -1.8692
  137MOL0     H18482   2.263   1.935   8.218  0.4700 -2.1014 -1.2045
  137MOL0     H18483   2.569   1.696   8.159 -3.2428 -1.8836 -0.7294
  137MOL0     H18484   2.818   1.658   8.152 -0.4564  3.3993  1.5202
  137MOL0     H18485   3.056   1.722   8.274 -2.2335  1.4486  0.5798
  137MOL0     H18486   2.997   1.706   8.444 -1.5694  2.8328 -1.4900
  137MOL0     H18487   3.219   1.541   8.325 -0.6671  1.9754 -1.4551
  137MOL0     H18488   3.153   1.518   8.490 -1.4816 -2.3010 -2.6648
  137MOL0     H18489   3.196   1.780   8.504  0.9045  1.8494 -1.9395
  137MOL0     H18490   3.291   1.750   8.363  2.8763 -2.2239 -0.0325
  137MOL0     H18491   3.445   1.752   8.527  0.1297 -1.3991 -1.3507
  137MOL0     H18492   3.437   1.585   8.461  0.6912  0.0699 -1.4412
  137MOL0     H18493   3.305   1.507   8.858  0.3603 -1.0782  0.2762
  137MOL0     H18494   2.805   1.485   8.533  3.4579 -0.4466 -2.2850
  137MOL0     H18495   2.578   1.516   8.561 -0.9313 -0.6579 -0.1570
  138MOL0     O18496   9.095   4.054   3.371  0.3118 -0.8981  0.0189
  138MOL0     C18497   9.101   4.033   3.488  0.1153  0.1600  0.2599
  138MOL0     O18498   9.008   4.037   3.578  0.3832 -0.2944  0.0039
  138MOL0     C18499   8.878   4.032   3.538 -0.2796 -1.3004 -0.7482
  138MOL0     C18500   8.815   3.952   3.442  0.0197  0.0562 -0.1247
  138MOL0     C18501   8.671   3.943   3.434  0.3681  0.0678 -1.0204
  138MOL0     C18502   8.592   4.009   3.528  0.2600 -0.9752  0.2904
  138MOL0     O18503   8.457   3.992   3.511  1.2809  0.3321 -0.0994
  138MOL0     C18504   8.368   4.029   3.621 -0.5827 -0.5491 -0.4003
  138MOL0     C18505   8.367   3.907   3.718 -0.2121 -0.7605  0.6711
  138MOL0     C18506   8.307   3.776   3.658 -0.8727 -0.9525  0.4274
  138MOL0     C18507   8.154   3.789   3.639 -0.6037 -0.6330 -0.2986
  138MOL0     C18508   8.092   3.664   3.613 -0.1197  0.6068  0.1396
  138MOL0     C18509   7.938   3.677   3.620  0.4839 -0.0751  0.2329
  138MOL0     C18510   7.877   3.540   3.572  0.5632 -0.1966 -0.1146
  138MOL0     C18511   7.723   3.559   3.580  0.4589  0.0477  0.1923
  138MOL0     N18512   7.656   3.458   3.501 -0.0160  0.2556 -0.2104
  138MOL0     C18513   7.642   3.328   3.534  0.6277  0.1395 -0.2807
  138MOL0     C18514   7.579   3.266   3.429 -0.3692  0.5315  0.2144
  138MOL0     C18515   7.538   3.124   3.409  0.2500 -0.0646  0.2316
  138MOL0     C18516   7.395   3.089   3.452  0.5976  0.5155  0.2453
  138MOL0     C18517   7.360   2.941   3.434  0.4382 -0.0206 -0.3818
  138MOL0     C18518   7.213   2.902   3.439  0.1247  0.6804  0.4477
  138MOL0     O18519   7.142   2.960   3.552 -0.3186  0.2255  0.3737
  138MOL0     C18520   7.010   2.944   3.563 -0.1847  0.8027  0.1911
  138MOL0     C18521   6.951   3.023   3.657 -0.5686  0.8873 -0.5778
  138MOL0     C18522   6.810   3.014   3.684 -0.3283 -0.4052 -0.6524
  138MOL0     C18523   6.750   3.101   3.790  0.2927  1.0709 -0.4603
  138MOL0     C18524   6.734   2.914   3.619  0.0630 -0.7027  0.1293
  138MOL0     C18525   6.583   2.885   3.643 -0.4051  0.0284 -0.8560
  138MOL0     O18526   6.518   2.811   3.542  0.1349  0.0011 -0.4285
  138MOL0     C18527   6.389   2.766   3.569  0.6811  0.2001  0.5978
  138MOL0     C18528   6.294   2.806   3.471 -0.5454 -0.1030 -0.7237
  138MOL0     C18529   6.163   2.758   3.490 -0.6338 -1.2002  0.1820
  138MOL0     C18530   6.125   2.689   3.606 -0.7062 -0.0152 -0.0784
  138MOL0     O18531   5.995   2.663   3.608  1.1191  0.3383 -0.0138
  138MOL0     C18532   5.928   2.599   3.712 -0.0152  0.5948  0.0630
  138MOL0     C18533   5.917   2.449   3.691  0.6480  0.8802  0.2598
  138MOL0     C18534   5.817   2.419   3.583  0.6788  0.2711 -0.1895
  138MOL0     C18535   5.805   2.276   3.552 -0.1965  0.0521 -0.3725
  138MOL0     C18536   5.928   2.213   3.494  0.6200 -0.7456  0.0385
  138MOL0     C18537   5.912   2.065   3.480 -0.0559 -0.2875  0.0013
  138MOL0     C18538   6.028   1.999   3.409 -0.1923 -1.5491  0.3201
  138MOL0     C18539   5.983   1.873   3.326 -0.5470 -0.3313 -0.3211
  138MOL0    Cl18540   5.934   1.758   3.450 -0.3884 -0.1369 -0.6636
  138MOL0     C18541   6.223   2.652   3.698  0.0783 -0.8792  0.5663
  138MOL0     C18542   6.354   2.698   3.688 -0.3051 -0.1899  0.2966
  138MOL0     O18543   6.539   2.918   3.752 -0.1752 -0.3302 -0.2002
  138MOL0     C18544   6.794   2.833   3.521  0.5246  0.3144  0.9725
  138MOL0     C18545   6.929   2.854   3.489  0.7597  1.0345  1.3005
  138MOL0     N18546   7.569   3.362   3.328 -0.6479 -0.4163 -0.4621
  138MOL0     N18547   7.621   3.474   3.365  0.1145 -0.1486 -0.5655
  138MOL0     C18548   8.651   4.097   3.621 -0.1656 -0.1705  0.4441
  138MOL0     C18549   8.788   4.110   3.616 -0.7775 -0.3761 -0.2887
  138MOL0     C18550   9.233   3.966   3.530 -0.1896 -0.1480  0.5382
  138MOL0     C18551   9.322   3.923   3.430 -0.1982  0.3160  0.5124
  138MOL0     C18552   9.434   3.852   3.466  0.1935 -1.0323  0.6677
  138MOL0     C18553   9.481   3.845   3.594  1.3996 -0.3274 -0.5126
  138MOL0     O18554   9.606   3.780   3.617  0.5557  0.0747 -0.2357
  138MOL0     C18555   9.646   3.759   3.756  0.2224 -0.1955 -0.0055
  138MOL0     C18556   9.787   3.702   3.763 -0.0510  0.8245  0.7691
  138MOL0     C18557   9.778   3.543   3.749 -0.5458 -0.2145 -0.4048
  138MOL0     C18558   9.929   3.484   3.749  0.9036  0.4136 -0.5242
  138MOL0     C18559   9.934   3.370   3.836 -0.2688  0.1339 -0.7184
  138MOL0     C18560   9.957   3.263   3.899 -0.2863 -0.8675  0.2611
  138MOL0     C18561   9.393   3.887   3.696  0.3857 -0.0560  0.3323
  138MOL0     C18562   9.265   3.936   3.661 -0.3925 -0.5405 -0.4827
  138MOL0     H18563   8.863   3.904   3.357 -5.0885 -0.6423 -3.0136
  138MOL0     H18564   8.631   3.870   3.365 -0.0094 -0.2625 -0.4547
  138MOL0     H18565   8.397   4.116   3.681 -1.4532 -0.5983  0.1094
  138MOL0     H18566   8.264   4.043   3.593 -1.3082 -1.7853  1.4348
  138MOL0     H18567   8.468   3.873   3.744  0.2976  0.3288  0.2082
  138MOL0     H18568   8.312   3.931   3.809 -0.5650 -0.5017  0.3901
  138MOL0     H18569   8.359   3.756   3.563 -0.4607 -0.9776  0.6569
  138MOL0     H18570   8.328   3.687   3.718  1.6327  0.0043  1.0721
  138MOL0     H18571   8.103   3.830   3.727  1.1298 -2.2147  1.5001
  138MOL0     H18572   8.136   3.852   3.551 -0.3793 -0.4772 -0.2335
  138MOL0     H18573   8.134   3.625   3.520 -1.0486 -0.2934  0.0708
  138MOL0     H18574   8.127   3.598   3.694 -0.4832  0.7255  0.4002
  138MOL0     H18575   7.906   3.709   3.720 -0.4070  1.1946 -0.4260
  138MOL0     H18576   7.911   3.760   3.554  4.0210 -0.1690 -1.5451
  138MOL0     H18577   7.915   3.517   3.472  0.7056 -4.2741  0.6922
  138MOL0     H18578   7.910   3.461   3.640 -2.2929  1.1940  3.1656
  138MOL0     H18579   7.687   3.654   3.540  1.7038  0.3150 -0.3453
  138MOL0     H18580   7.692   3.568   3.684 -1.5576 -0.9499 -0.2692
  138MOL0     H18581   7.660   3.290   3.634 -1.0898  3.1843  1.3265
  138MOL0     H18582   7.553   3.090   3.306 -0.0952 -0.8477  0.4241
  138MOL0     H18583   7.620   3.073   3.460  0.1183 -0.9322 -0.3929
  138MOL0     H18584   7.331   3.155   3.392  2.5580 -0.4304 -3.1345
  138MOL0     H18585   7.374   3.124   3.554  2.0531  2.5294 -0.0636
  138MOL0     H18586   7.417   2.895   3.515 -0.8252  1.9268  1.7030
  138MOL0     H18587   7.391   2.900   3.337 -1.7240  0.3136 -1.2767
  138MOL0     H18588   7.211   2.793   3.436  0.9770  0.6708 -0.5161
  138MOL0     H18589   7.168   2.939   3.346  1.3209 -2.4981 -1.5751
  138MOL0     H18590   7.017   3.093   3.708 -0.5950  0.4515  0.0636
  138MOL0     H18591   6.683   3.178   3.751 -0.2241  0.7339 -0.2411
  138MOL0     H18592   6.699   3.042   3.866  0.2809  0.5242 -0.8843
  138MOL0     H18593   6.831   3.152   3.843  1.8257 -2.3799  0.8314
  138MOL0     H18594   6.325   2.861   3.383  2.0600  3.1381  1.9500
  138MOL0     H18595   6.099   2.772   3.404  1.3834 -0.0414 -1.2056
  138MOL0     H18596   5.989   2.615   3.801  0.4613 -1.6647  0.2034
  138MOL0     H18597   5.829   2.640   3.732  0.2466  1.8308 -1.0209
  138MOL0     H18598   6.019   2.420   3.665  1.0822  1.7538  0.9348
  138MOL0     H18599   5.885   2.403   3.785 -1.4683 -1.0941 -1.3096
  138MOL0     H18600   5.853   2.463   3.490 -0.5075  0.3452 -0.6221
  138MOL0     H18601   5.722   2.466   3.608  0.9402 -1.6397  6.0620
  138MOL0     H18602   5.787   2.214   3.640  2.0524 -0.4449 -0.2002
  138MOL0     H18603   5.721   2.258   3.484 -0.2656 -0.6471 -0.1134
  138MOL0     H18604   6.009   2.233   3.564  0.3918 -0.4356  0.2194
  138MOL0     H18605   5.947   2.252   3.394 -1.0952 -1.5525 -0.6407
  138MOL0     H18606   5.917   2.034   3.584 -0.3044  0.9634  0.3989
  138MOL0     H18607   5.816   2.039   3.435 -0.4882  2.0269 -0.5391
  138MOL0     H18608   6.116   1.996   3.473 -0.0627 -0.2565  0.2407
  138MOL0     H18609   6.069   2.078   3.345  1.7965  0.5727  3.9064
  138MOL0     H18610   6.062   1.831   3.263 -0.7646 -0.8409 -0.2555
  138MOL0     H18611   5.892   1.902   3.271 -0.8348 -0.1747  0.2275
  138MOL0     H18612   6.212   2.588   3.786  1.3334 -1.7719  0.1103
  138MOL0     H18613   6.444   2.688   3.748  0.3523 -0.7225 -0.7628
  138MOL0     H18614   6.734   2.759   3.471  0.2990 -0.4703  2.3533
  138MOL0     H18615   6.976   2.786   3.418 -0.7120  1.7995 -0.5125
  138MOL0     H18616   8.593   4.144   3.701 -3.8742 -2.8075 -0.4198
  138MOL0     H18617   8.828   4.175   3.692 -1.4507 -0.7542  0.4086
  138MOL0     H18618   9.293   3.930   3.326 -0.7395 -5.9216 -0.1193
  138MOL0     H18619   9.501   3.831   3.383  1.6411  0.0464  1.5353
  138MOL0     H18620   9.654   3.858   3.802  0.4154 -0.9647  1.6877
  138MOL0     H18621   9.569   3.694   3.799 -0.4097 -0.1583 -1.0437
  138MOL0     H18622   9.827   3.719   3.863  0.8981 -1.6301  0.8743
  138MOL0     H18623   9.846   3.744   3.681  0.1375 -1.5657 -0.4141
  138MOL0     H18624   9.714   3.511   3.667 -2.1821  2.8139 -0.4790
  138MOL0     H18625   9.722   3.506   3.835 -1.2352 -2.2292 -1.6586
  138MOL0     H18626  10.001   3.558   3.786  1.3214 -0.4754  0.5010
  138MOL0     H18627   9.958   3.456   3.648  1.3583  0.5803 -0.4412
  138MOL0     H18628   9.986   3.173   3.949 -0.5339 -2.5241 -2.3617
  138MOL0     H18629   9.415   3.863   3.799 -2.2786 -2.2240  0.5277
  138MOL0     H18630   9.202   3.965   3.744  3.3436  2.6951  1.5930
  139MOL0     O18631   8.420   7.422   6.085  0.6109  0.0576 -0.4688
  139MOL0     C18632   8.484   7.525   6.047  0.1605 -0.5595  0.8151
  139MOL0     O18633   8.434   7.627   5.958 -0.0854  0.0753  0.3089
  139MOL0     C18634   8.319   7.601   5.883  0.0861  0.3370  0.6223
  139MOL0     C18635   8.297   7.481   5.809  1.5385  0.5090 -0.6478
  139MOL0     C18636   8.195   7.465   5.711  0.0614 -0.8659 -0.1118
  139MOL0     C18637   8.107   7.572   5.692  0.6496  0.3291  0.6326
  139MOL0     O18638   8.012   7.544   5.599  0.6563 -0.2239 -0.6194
  139MOL0     C18639   8.006   7.621   5.476  0.0657 -0.3110  0.5336
  139MOL0     C18640   7.887   7.567   5.402 -0.5902  0.3160  0.0772
  139MOL0     C18641   7.760   7.626   5.448  0.6649  0.0771  0.0048
  139MOL0     C18642   7.628   7.546   5.439 -1.0560 -0.5304 -0.0701
  139MOL0     C18643   7.587   7.504   5.300 -0.3756  0.3335  0.5671
  139MOL0     C18644   7.579   7.634   5.217  0.3825  0.1686 -0.4108
  139MOL0     C18645   7.555   7.601   5.071 -0.4424  0.0805  0.7990
  139MOL0     C18646   7.421   7.544   5.036 -0.0360 -0.1300  0.4441
  139MOL0     N18647   7.412   7.504   4.895 -0.3146 -0.5865  0.1564
  139MOL0     C18648   7.459   7.381   4.843 -0.1968  0.4122 -0.0368
  139MOL0     C18649   7.419   7.374   4.714  0.4252 -0.5888 -0.3105
  139MOL0     C18650   7.433   7.258   4.615 -0.1741  0.4607 -1.2491
  139MOL0     C18651   7.564   7.189   4.600  0.2554 -0.3573  0.1545
  139MOL0     C18652   7.554   7.055   4.529  0.6817  0.2198 -0.8171
  139MOL0     C18653   7.686   6.979   4.496  0.2393 -0.4032  0.3138
  139MOL0     O18654   7.657   6.855   4.428 -0.0896 -0.1244 -0.3985
  139MOL0     C18655   7.764   6.776   4.380  0.0742  0.5525 -0.4191
  139MOL0     C18656   7.900   6.813   4.381 -0.7452 -0.8121 -0.1582
  139MOL0     C18657   8.005   6.732   4.330  0.1316  0.7702 -0.5459
  139MOL0     C18658   8.141   6.798   4.331 -0.4069 -0.7547 -0.0185
  139MOL0     C18659   7.980   6.603   4.280  0.4748  0.3660 -0.5701
  139MOL0     C18660   8.082   6.501   4.248  0.1421 -0.2796 -0.1348
  139MOL0     O18661   8.215   6.539   4.275  0.1147  0.1042 -0.4364
  139MOL0     C18662   8.315   6.457   4.228  1.0814 -0.4180  0.6476
  139MOL0     C18663   8.425   6.523   4.178 -0.1864  0.7794 -0.0599
  139MOL0     C18664   8.544   6.453   4.142  0.1637 -0.1313  0.0362
  139MOL0     C18665   8.546   6.313   4.152  0.2028  0.1354  0.2137
  139MOL0     O18666   8.646   6.242   4.094  0.6353  0.0888 -0.0637
  139MOL0     C18667   8.783   6.287   4.105  0.3926 -0.4481  0.5905
  139MOL0     C18668   8.861   6.183   4.034 -0.5549  0.3001 -0.2112
  139MOL0     C18669   8.897   6.063   4.121 -0.1495 -0.7183  0.4716
  139MOL0     C18670   8.849   5.930   4.062 -0.6363 -0.2572  0.7586
  139MOL0     C18671   8.875   5.814   4.163 -0.0571  0.1534  0.1555
  139MOL0     C18672   8.786   5.820   4.288  0.8854 -0.3154 -0.5137
  139MOL0     C18673   8.819   5.704   4.382  0.1327 -1.2028  0.6745
  139MOL0     C18674   8.711   5.653   4.473  0.0591 -0.6958 -0.1651
  139MOL0    Cl18675   8.595   5.561   4.370  0.4645 -0.6256 -0.4290
  139MOL0     C18676   8.433   6.253   4.209 -0.4088  0.2623 -0.9170
  139MOL0     C18677   8.320   6.317   4.251 -0.0690  0.1480  0.2889
  139MOL0     O18678   8.050   6.412   4.170  0.0464  0.4275  0.4865
  139MOL0     C18679   7.839   6.558   4.292 -0.6172  0.4934 -0.3384
  139MOL0     C18680   7.744   6.641   4.340  0.1156  0.3736 -0.2791
  139MOL0     N18681   7.366   7.501   4.678  0.3671 -0.1953 -1.0889
  139MOL0     N18682   7.359   7.571   4.788  0.7471 -0.1460  0.5624
  139MOL0     C18683   8.124   7.693   5.771  0.8249  0.2837  0.2384
  139MOL0     C18684   8.233   7.705   5.862  0.8691 -0.1561 -0.1880
  139MOL0     C18685   8.611   7.551   6.107 -0.2661 -0.4685 -0.2207
  139MOL0     C18686   8.704   7.654   6.063  0.4912 -0.0825 -0.3218
  139MOL0     C18687   8.825   7.657   6.133  0.5072 -0.3539 -0.3467
  139MOL0     C18688   8.863   7.567   6.231  0.7922 -0.1261  0.2042
  139MOL0     O18689   8.991   7.579   6.282 -0.3237  1.1080 -0.9104
  139MOL0     C18690   9.008   7.521   6.407  0.5248  0.4753 -0.1495
  139MOL0     C18691   9.155   7.530   6.450  0.2318 -0.0008 -0.2643
  139MOL0     C18692   9.181   7.650   6.532  0.3857  0.4533  0.4048
  139MOL0     C18693   9.305   7.626   6.626  0.2803 -0.4414 -0.9236
  139MOL0     C18694   9.349   7.736   6.709 -0.6361 -0.8195  0.2126
  139MOL0     C18695   9.424   7.809   6.770 -0.1345  0.3135  0.4470
  139MOL0     C18696   8.769   7.478   6.279 -0.3025 -1.4374  0.3921
  139MOL0     C18697   8.643   7.477   6.221  0.3539 -1.1655  0.1391
  139MOL0     H18698   8.361   7.393   5.822 -0.2277 -0.5496  1.8364
  139MOL0     H18699   8.175   7.370   5.663 -0.7666 -0.8015  0.0831
  139MOL0     H18700   7.998   7.727   5.503  1.9852 -0.0724  0.2542
  139MOL0     H18701   8.101   7.608   5.424  0.6779 -2.8379  2.1550
  139MOL0     H18702   7.904   7.596   5.298  1.2478  1.4729  0.6358
  139MOL0     H18703   7.876   7.458   5.412 -1.3316  0.4613  0.9657
  139MOL0     H18704   7.768   7.661   5.552  2.9061  1.7032 -0.6531
  139MOL0     H18705   7.741   7.726   5.409 -0.9072  0.6493  2.0399
  139MOL0     H18706   7.637   7.456   5.501  2.1259 -0.3974 -0.2043
  139MOL0     H18707   7.543   7.599   5.483 -1.5999 -1.0390 -0.4916
  139MOL0     H18708   7.655   7.442   5.240  1.5096  1.5431  1.3643
  139MOL0     H18709   7.494   7.446   5.306  1.1000 -2.1244  1.0289
  139MOL0     H18710   7.505   7.703   5.258  0.9576  1.2761 -1.1804
  139MOL0     H18711   7.674   7.687   5.210  0.2537  0.4187 -0.2985
  139MOL0     H18712   7.556   7.696   5.016  0.2653  0.3003  1.1785
  139MOL0     H18713   7.637   7.538   5.034 -1.0067 -0.8423  1.0911
  139MOL0     H18714   7.337   7.612   5.052 -1.0485 -0.6872 -1.9281
  139MOL0     H18715   7.409   7.455   5.098 -1.0057  0.2197  0.7719
  139MOL0     H18716   7.519   7.309   4.898 -1.2384  0.9041  1.8095
  139MOL0     H18717   7.347   7.194   4.639 -0.7552  1.9499  0.9887
  139MOL0     H18718   7.429   7.296   4.513  3.2059 -0.7282 -1.9561
  139MOL0     H18719   7.617   7.189   4.695 -1.0812  1.2821  0.9627
  139MOL0     H18720   7.631   7.261   4.552 -0.1131  0.7301  1.2209
  139MOL0     H18721   7.502   7.084   4.438 -1.2375  3.8436  1.2058
  139MOL0     H18722   7.505   6.984   4.597 -0.5684  1.7635 -0.0372
  139MOL0     H18723   7.738   6.954   4.590  0.8282  1.3961  0.4963
  139MOL0     H18724   7.741   7.041   4.426 -0.7196  0.7651  0.5639
  139MOL0     H18725   7.912   6.915   4.416 -1.1547 -0.5222 -0.8539
  139MOL0     H18726   8.174   6.806   4.228  0.8054 -0.9695  0.3360
  139MOL0     H18727   8.138   6.900   4.369 -1.1817 -0.3842 -1.0393
  139MOL0     H18728   8.208   6.739   4.395 -1.3865 -0.8720  0.9431
  139MOL0     H18729   8.409   6.630   4.174 -0.4707  0.7648  0.5125
  139MOL0     H18730   8.628   6.503   4.093  0.7244 -0.4663  0.6408
  139MOL0     H18731   8.793   6.383   4.053 -1.0975 -1.5946 -2.0087
  139MOL0     H18732   8.813   6.308   4.208 -1.3344  1.2523  0.8020
  139MOL0     H18733   8.808   6.165   3.940 -0.4349  0.8494 -0.3910
  139MOL0     H18734   8.961   6.218   4.005  0.2355 -1.5274  0.1785
  139MOL0     H18735   8.860   6.075   4.223  3.5563 -0.3844  1.9271
  139MOL0     H18736   9.006   6.053   4.130 -0.0837 -2.0587 -1.3066
  139MOL0     H18737   8.745   5.937   4.030 -0.2108 -0.5912 -0.7701
  139MOL0     H18738   8.903   5.913   3.968  0.7397  0.8493  1.3198
  139MOL0     H18739   8.983   5.803   4.177 -0.1947 -1.8315 -0.1177
  139MOL0     H18740   8.849   5.723   4.108 -1.4932 -0.4787  1.7804
  139MOL0     H18741   8.803   5.905   4.354  1.5017  0.2278 -1.3535
  139MOL0     H18742   8.684   5.810   4.250  0.9876  1.4357 -1.3343
  139MOL0     H18743   8.899   5.741   4.447  1.1092 -2.7083  0.3765
  139MOL0     H18744   8.864   5.621   4.326  3.4642  0.2329  0.9520
  139MOL0     H18745   8.657   5.730   4.528 -0.6945 -1.3940  0.0864
  139MOL0     H18746   8.758   5.585   4.545 -0.8515 -0.2275  0.8819
  139MOL0     H18747   8.445   6.146   4.220  2.8600  0.4782 -1.3214
  139MOL0     H18748   8.235   6.259   4.286 -1.5927  1.6790 -0.7156
  139MOL0     H18749   7.823   6.452   4.277  0.7508 -0.4844  3.9220
  139MOL0     H18750   7.643   6.601   4.346  0.1686  0.3455  0.5891
  139MOL0     H18751   8.060   7.778   5.750 -0.0499 -0.0698  1.3859
  139MOL0     H18752   8.245   7.807   5.897 -0.9230  1.4221 -3.6479
  139MOL0     H18753   8.672   7.730   5.994  1.3715  0.5560 -0.0430
  139MOL0     H18754   8.894   7.736   6.104 -0.2467 -0.6664 -3.3879
  139MOL0     H18755   8.952   7.582   6.479 -0.9806 -1.5665  0.5208
  139MOL0     H18756   8.984   7.415   6.416  3.9367 -0.3501  0.8087
  139MOL0     H18757   9.211   7.534   6.356  1.7684  1.0002  0.6497
  139MOL0     H18758   9.163   7.442   6.513 -3.8850 -1.6754 -1.7098
  139MOL0     H18759   9.100   7.675   6.601 -0.5538  0.6576 -0.7323
  139MOL0     H18760   9.209   7.737   6.472 -2.0568  1.7546  1.0237
  139MOL0     H18761   9.382   7.583   6.561  0.7522 -0.7211 -0.1938
  139MOL0     H18762   9.287   7.544   6.697 -0.9514  1.1925  0.7576
  139MOL0     H18763   9.487   7.882   6.817  0.7326 -1.1610  1.6553
  139MOL0     H18764   8.779   7.399   6.353  0.2960 -1.3740  0.3826
  139MOL0     H18765   8.564   7.424   6.272  0.2839 -0.3317  0.9090
  140MOL0     O18766  10.501   9.437   8.931 -0.1650  0.1693 -0.2938
  140MOL0     C18767  10.458   9.545   8.975 -0.1038  0.5128 -0.1042
  140MOL0     O18768  10.327   9.575   8.994 -0.2129 -0.2772 -0.2106
  140MOL0     C18769  10.220   9.490   8.993 -0.7374 -0.3755 -0.9454
  140MOL0     C18770  10.232   9.364   9.053 -0.2380  0.3640 -0.1371
  140MOL0     C18771  10.110   9.287   9.079  0.8033  0.8108  0.5179
  140MOL0     C18772   9.979   9.333   9.039 -0.7901  0.2851  0.0534
  140MOL0     O18773   9.862   9.264   9.060  0.1178 -0.3053  0.1535
  140MOL0     C18774   9.764   9.282   8.957  0.5357  1.0214 -0.2647
  140MOL0     C18775   9.673   9.157   8.942 -0.7860  0.2751  0.8098
  140MOL0     C18776   9.566   9.190   8.834 -0.1542 -0.0298 -0.6413
  140MOL0     C18777   9.487   9.066   8.819 -0.7405 -0.0948  0.2219
  140MOL0     C18778   9.366   9.088   8.719 -0.6342 -0.0265 -0.5103
  140MOL0     C18779   9.256   9.161   8.795  0.8775 -0.9705 -0.5089
  140MOL0     C18780   9.156   9.235   8.711 -0.0163  0.8563 -0.5184
  140MOL0     C18781   9.062   9.134   8.650 -0.0542 -0.7224 -0.1088
  140MOL0     N18782   8.957   9.202   8.572 -0.1961  0.3447 -0.3087
  140MOL0     C18783   8.985   9.237   8.445 -0.4895 -0.5277 -0.4165
  140MOL0     C18784   8.864   9.254   8.381 -0.1990  0.5975 -0.9141
  140MOL0     C18785   8.834   9.293   8.240  0.0904 -0.3129  0.7642
  140MOL0     C18786   8.817   9.450   8.229  0.4066  0.4638 -0.0134
  140MOL0     C18787   8.671   9.467   8.236 -0.3840 -0.5923  0.7388
  140MOL0     C18788   8.630   9.609   8.191  0.3207 -0.3521  0.1513
  140MOL0     O18789   8.489   9.629   8.219  0.3248 -0.1589  0.2119
  140MOL0     C18790   8.427   9.737   8.163 -0.0322 -0.2393 -0.5213
  140MOL0     C18791   8.486   9.851   8.116  0.0169  1.2009  0.1552
  140MOL0     C18792   8.407   9.964   8.081  0.0876 -0.0063  0.0956
  140MOL0     C18793   8.496  10.088   8.042 -0.5750  0.3932  0.2405
  140MOL0     C18794   8.264   9.970   8.098 -0.0626  0.3187 -0.0618
  140MOL0     C18795   8.174  10.082   8.076  0.2973  0.6868 -0.0542
  140MOL0     O18796   8.046  10.048   8.070  0.3097 -0.1900 -0.8014
  140MOL0     C18797   7.955  10.149   8.050 -0.3522  0.0174  0.7107
  140MOL0     C18798   7.897  10.167   7.924 -0.7727 -0.1170 -0.3137
  140MOL0     C18799   7.796  10.269   7.910  0.0670  0.2019 -0.1704
  140MOL0     C18800   7.762  10.347   8.013 -0.0153  0.0356  0.5622
  140MOL0     O18801   7.668  10.442   7.976 -0.3361 -0.0046 -0.2974
  140MOL0     C18802   7.645  10.537   8.074  0.2212  0.6625  0.2007
  140MOL0     C18803   7.559  10.648   8.025 -0.6029 -0.4611  0.3729
  140MOL0     C18804   7.402  10.626   8.031  0.3034  0.0151  0.3859
  140MOL0     C18805   7.365  10.504   7.945  0.3197 -0.3537 -0.8998
  140MOL0     C18806   7.210  10.499   7.929  0.4396 -0.5250 -0.1576
  140MOL0     C18807   7.172  10.546   7.790  0.6069 -0.2067 -0.6136
  140MOL0     C18808   7.023  10.519   7.777  0.3088 -0.1820  0.8032
  140MOL0     C18809   6.973  10.590   7.647  0.8773  0.7026  0.1175
  140MOL0    Cl18810   6.809  10.534   7.598 -0.7309 -0.1276  0.0768
  140MOL0     C18811   7.818  10.320   8.141  0.7237  0.3512 -0.3122
  140MOL0     C18812   7.907  10.219   8.164  0.2935 -0.3959 -0.4174
  140MOL0     O18813   8.225  10.196   8.051 -0.2413  0.1099  0.4242
  140MOL0     C18814   8.209   9.852   8.151 -0.1330 -0.0430  0.3156
  140MOL0     C18815   8.287   9.743   8.183  0.0504  0.1306  0.0613
  140MOL0     N18816   8.755   9.217   8.470  0.1939 -0.0561  1.3568
  140MOL0     N18817   8.827   9.181   8.580 -0.1126 -0.0187  0.6680
  140MOL0     C18818   9.976   9.471   9.010  0.5134  0.4647  0.5388
  140MOL0     C18819  10.089   9.541   8.988  0.9346  0.0844  0.3527
  140MOL0     C18820  10.560   9.649   8.988 -0.4117  0.1631  0.5118
  140MOL0     C18821  10.691   9.619   8.954  0.0633  0.1901  0.3063
  140MOL0     C18822  10.782   9.718   8.966 -0.0190  0.3974 -0.1566
  140MOL0     C18823  10.752   9.855   8.987 -0.2294 -0.2172 -0.4551
  140MOL0     O18824  10.846   9.951   8.969  0.5410  0.1810 -0.1732
  140MOL0     C18825  10.917   9.932   8.842  0.3776  0.7163 -0.3563
  140MOL0     C18826  11.038  10.035   8.826 -0.1191  0.0405 -1.2323
  140MOL0     C18827  11.162   9.986   8.900 -0.8543  0.0128  0.5316
  140MOL0     C18828  11.273  10.087   8.855  1.0794  0.0682 -0.7892
  140MOL0     C18829  11.402  10.055   8.913 -0.0547 -0.2798 -0.5230
  140MOL0     C18830  11.519  10.054   8.954  0.7272  0.3855  0.3094
  140MOL0     C18831  10.619   9.880   9.016 -0.5716 -0.1456  0.2183
  140MOL0     C18832  10.528   9.778   9.019  0.0975 -0.2764 -1.2887
  140MOL0     H18833  10.327   9.321   9.080 -1.8683 -1.8400  2.5559
  140MOL0     H18834  10.133   9.188   9.119 -0.6145 -0.1603 -0.9413
  140MOL0     H18835   9.708   9.375   8.966  0.6028  0.9950  0.5278
  140MOL0     H18836   9.827   9.279   8.867  4.1896  1.7502  2.0174
  140MOL0     H18837   9.729   9.066   8.919 -2.3534 -0.2327 -1.2949
  140MOL0     H18838   9.623   9.141   9.038 -1.1618 -1.4185  0.3673
  140MOL0     H18839   9.506   9.275   8.868  1.4734  0.3722  1.3986
  140MOL0     H18840   9.606   9.215   8.735  0.8701 -0.5198 -0.3679
  140MOL0     H18841   9.559   8.994   8.780  2.4158  0.7760  3.8346
  140MOL0     H18842   9.446   9.021   8.909 -0.6775 -3.6736 -1.3919
  140MOL0     H18843   9.404   9.153   8.639  2.2556 -2.2026 -1.0985
  140MOL0     H18844   9.336   8.989   8.684 -0.1080  0.0898 -1.2992
  140MOL0     H18845   9.215   9.089   8.867 -1.5748  2.3654  1.7624
  140MOL0     H18846   9.290   9.245   8.856 -0.4686 -0.7351 -0.0390
  140MOL0     H18847   9.106   9.314   8.768  0.5130 -0.3544  1.7568
  140MOL0     H18848   9.209   9.288   8.632  0.4742  1.7596  0.3887
  140MOL0     H18849   9.011   9.073   8.725  0.9722 -2.4418 -0.7501
  140MOL0     H18850   9.119   9.069   8.584  3.8186  1.9959  0.1727
  140MOL0     H18851   9.085   9.245   8.403  0.9629 -3.6678  1.9522
  140MOL0     H18852   8.902   9.247   8.168 -0.9999 -0.6692 -0.0785
  140MOL0     H18853   8.738   9.243   8.224  0.5655 -1.1353  0.4205
  140MOL0     H18854   8.856   9.504   8.143 -0.9413  2.5406  0.6082
  140MOL0     H18855   8.853   9.498   8.321 -1.6530  1.8353  0.1491
  140MOL0     H18856   8.636   9.446   8.338 -3.5265  0.0620 -0.1004
  140MOL0     H18857   8.612   9.408   8.165 -0.7171  1.4320 -0.7779
  140MOL0     H18858   8.642   9.628   8.083  0.3304  2.6401  0.5889
  140MOL0     H18859   8.697   9.682   8.237  4.1881 -0.6695 -4.1826
  140MOL0     H18860   8.594   9.853   8.106  0.1279 -0.6855  0.6219
  140MOL0     H18861   8.593  10.053   8.006 -1.1826 -1.2512  0.1179
  140MOL0     H18862   8.450  10.146   7.961 -0.6901  0.5694  0.4309
  140MOL0     H18863   8.505  10.157   8.125  0.6692  0.7880 -0.2056
  140MOL0     H18864   7.924  10.092   7.850 -5.0208 -2.3748  0.1500
  140MOL0     H18865   7.757  10.288   7.810  1.6291 -1.7802 -1.2361
  140MOL0     H18866   7.595  10.500   8.165  0.0904  0.5332  0.0763
  140MOL0     H18867   7.744  10.577   8.095 -0.0449  1.1515  0.5514
  140MOL0     H18868   7.595  10.723   8.096  2.2338 -0.5423 -0.8895
  140MOL0     H18869   7.587  10.689   7.928 -0.8944  0.7758  0.7878
  140MOL0     H18870   7.356  10.719   7.998 -2.2415 -0.9591  0.9661
  140MOL0     H18871   7.364  10.607   8.132 -3.4454 -0.6863 -1.0052
  140MOL0     H18872   7.412  10.525   7.848 -3.0410  2.3739 -2.1563
  140MOL0     H18873   7.409  10.417   7.994 -1.5030 -0.8190 -0.0136
  140MOL0     H18874   7.161  10.563   8.003  0.1028 -0.4039 -0.4836
  140MOL0     H18875   7.179  10.397   7.954 -0.9222  0.5369  3.0270
  140MOL0     H18876   7.198  10.652   7.787 -0.0817 -0.0215 -0.2135
  140MOL0     H18877   7.233  10.493   7.716  0.8372  0.1721 -0.6948
  140MOL0     H18878   6.965  10.541   7.867 -0.3972 -2.4601  0.9911
  140MOL0     H18879   7.006  10.410   7.777  0.4782 -0.2090  0.6434
  140MOL0     H18880   7.046  10.577   7.566  0.9073 -2.5241  0.5499
  140MOL0     H18881   6.954  10.695   7.672 -1.0866  0.0776  1.4820
  140MOL0     H18882   7.795  10.368   8.236 -1.4121  2.1146 -1.6047
  140MOL0     H18883   7.936  10.201   8.267 -0.1754 -1.5447 -0.4728
  140MOL0     H18884   8.105   9.845   8.179  0.6090 -0.2724  3.4167
  140MOL0     H18885   8.236   9.650   8.207  2.6226 -1.2516  0.4712
  140MOL0     H18886   9.875   9.511   8.997 -2.5353 -5.7299  1.2495
  140MOL0     H18887  10.066   9.642   8.955 -2.4332 -1.0351 -1.0938
  140MOL0     H18888  10.727   9.520   8.926  1.3163  1.0217 -1.1368
  140MOL0     H18889  10.884   9.686   8.949 -0.0741  0.5096 -0.7165
  140MOL0     H18890  10.959   9.832   8.825  1.6319  1.5707 -2.7011
  140MOL0     H18891  10.846   9.954   8.762  0.4681 -2.9288 -1.6239
  140MOL0     H18892  11.002  10.132   8.861  1.7164  0.8700 -1.5737
  140MOL0     H18893  11.056  10.047   8.719 -0.0085  0.2338 -1.1913
  140MOL0     H18894  11.188   9.882   8.880  0.4540  0.2176  1.0815
  140MOL0     H18895  11.142   9.997   9.007 -2.8333  1.7368  0.0626
  140MOL0     H18896  11.232  10.183   8.889  1.1932 -0.0083 -0.4321
  140MOL0     H18897  11.280  10.092   8.746  1.4446  2.7056 -0.7128
  140MOL0     H18898  11.619  10.056   8.993  0.9694 -0.6743 -0.2109
  140MOL0     H18899  10.600   9.984   9.042 -2.4376  0.0214 -1.5990
  140MOL0     H18900  10.425   9.793   9.049  0.7190 -0.6440  1.2443
  141MOL0     O18901   6.757   6.309   0.994 -0.8042 -0.0434 -0.1160
  141MOL0     C18902   6.798   6.296   1.108  1.7585  1.2501 -0.4427
  141MOL0     O18903   6.894   6.211   1.144 -0.4956  0.8640 -0.5542
  141MOL0     C18904   6.973   6.153   1.053  0.3376  0.4739 -0.4864
  141MOL0     C18905   6.951   6.024   1.030 -0.6129 -0.7388 -0.2797
  141MOL0     C18906   7.041   5.944   0.969  0.4349 -0.4366 -0.5712
  141MOL0     C18907   7.147   6.001   0.904 -0.3506 -0.6297  0.0528
  141MOL0     O18908   7.246   5.929   0.840  0.2824  0.1088 -0.5490
  141MOL0     C18909   7.272   5.787   0.865  0.4902 -0.4394  0.7837
  141MOL0     C18910   7.424   5.780   0.852  0.4967  0.2863 -0.1555
  141MOL0     C18911   7.467   5.782   0.709 -0.0224  0.3183 -0.1466
  141MOL0     C18912   7.593   5.708   0.682  0.3074 -0.3102 -0.4156
  141MOL0     C18913   7.656   5.739   0.541  0.1963 -0.4679 -0.2216
  141MOL0     C18914   7.576   5.663   0.434  0.9485  0.6168  0.4147
  141MOL0     C18915   7.561   5.506   0.442  0.3043 -0.6660  0.2265
  141MOL0     C18916   7.472   5.462   0.326  0.0201 -0.3599  0.0737
  141MOL0     N18917   7.458   5.316   0.335 -0.1053 -0.8985 -0.2235
  141MOL0     C18918   7.565   5.234   0.321  0.8557  0.6829  1.0892
  141MOL0     C18919   7.511   5.110   0.295  0.9269 -0.6389 -0.1525
  141MOL0     C18920   7.590   4.994   0.259 -1.4873  0.3330 -0.6077
  141MOL0     C18921   7.518   4.885   0.177  0.1179  0.0805 -0.9168
  141MOL0     C18922   7.508   4.942   0.037  0.8578  1.4281 -0.6356
  141MOL0     C18923   7.422   4.852  -0.048  0.3063 -0.2767  0.5160
  141MOL0     O18924   7.355   4.916  -0.158  0.0238  0.1103  0.1741
  141MOL0     C18925   7.227   4.964  -0.137 -0.4222  0.0609 -0.0055
  141MOL0     C18926   7.159   4.978  -0.013 -0.5683 -0.0899  0.1547
  141MOL0     C18927   7.027   5.031  -0.008  0.1199  0.3012 -0.0527
  141MOL0     C18928   6.974   5.078   0.123  0.5144 -0.0516 -0.6417
  141MOL0     C18929   6.955   5.079  -0.122 -0.1845 -0.3911  0.7005
  141MOL0     C18930   6.809   5.105  -0.136 -0.5612  0.4449 -0.4890
  141MOL0     O18931   6.724   5.050  -0.043 -0.1964  0.9264 -1.3776
  141MOL0     C18932   6.594   5.068  -0.066  0.8686  0.3074  0.3986
  141MOL0     C18933   6.530   4.978  -0.159 -0.6789 -0.7206  0.5668
  141MOL0     C18934   6.391   4.999  -0.186 -0.4428 -0.0180  0.0167
  141MOL0     C18935   6.321   5.109  -0.141 -0.5509 -0.2514 -0.5148
  141MOL0     O18936   6.191   5.136  -0.174  0.1935  0.2939  0.5309
  141MOL0     C18937   6.180   5.240  -0.276  0.6301 -0.1435  0.0410
  141MOL0     C18938   6.031   5.242  -0.299 -0.3702  0.3946 -0.5561
  141MOL0     C18939   5.936   5.266  -0.182 -0.4359  0.0164  0.1152
  141MOL0     C18940   5.790   5.281  -0.227  0.4911 -0.4943 -0.4260
  141MOL0     C18941   5.715   5.149  -0.236  0.8220 -1.0981 -0.2372
  141MOL0     C18942   5.631   5.114  -0.106  1.1414  0.6160  0.6127
  141MOL0     C18943   5.546   4.985  -0.124 -0.3163  0.1474  0.7656
  141MOL0     C18944   5.429   4.990  -0.029  0.0110  0.1551 -0.4647
  141MOL0    Cl18945   5.361   4.824   0.015  0.1408 -0.0103  0.0959
  141MOL0     C18946   6.376   5.182  -0.036  0.7314 -0.0857  0.1778
  141MOL0     C18947   6.515   5.170  -0.008  0.5446  0.9541  0.2271
  141MOL0     O18948   6.772   5.154  -0.238  0.2932  0.5123  0.5241
  141MOL0     C18949   7.029   5.047  -0.238 -1.3780  0.1609  0.1049
  141MOL0     C18950   7.159   4.996  -0.252 -0.2735 -0.0014  0.0928
  141MOL0     N18951   7.373   5.122   0.282 -0.4352  0.2615  0.0538
  141MOL0     N18952   7.344   5.247   0.302 -0.2807  0.7313 -0.2220
  141MOL0     C18953   7.171   6.141   0.917 -0.3769  0.1587 -0.2031
  141MOL0     C18954   7.081   6.216   0.994 -0.1323 -0.6467 -0.0584
  141MOL0     C18955   6.724   6.377   1.206 -0.8504  0.6272 -0.3606
  141MOL0     C18956   6.608   6.452   1.169 -0.3027  1.3683  0.6535
  141MOL0     C18957   6.543   6.532   1.261  0.5437 -0.3212  0.8990
  141MOL0     C18958   6.570   6.527   1.397 -0.1030  0.2529 -0.3496
  141MOL0     O18959   6.487   6.604   1.478  0.2816  0.2169 -0.3645
  141MOL0     C18960   6.427   6.520   1.583 -1.9141 -0.4262  0.1668
  141MOL0     C18961   6.312   6.595   1.638 -0.6028 -0.1709 -0.4068
  141MOL0     C18962   6.224   6.668   1.544  0.2716  0.1444  0.6933
  141MOL0     C18963   6.128   6.570   1.481 -0.1934 -0.4552  0.4034
  141MOL0     C18964   6.188   6.514   1.355  0.5467 -0.1707 -0.4480
  141MOL0     C18965   6.241   6.476   1.254  0.3068  0.9917  0.1478
  141MOL0     C18966   6.679   6.450   1.437  0.0272  0.0069 -0.4440
  141MOL0     C18967   6.754   6.380   1.340 -0.0503 -0.1283 -0.0952
  141MOL0     H18968   6.867   5.969   1.072 -0.0344 -0.9321  0.6649
  141MOL0     H18969   7.025   5.837   0.959  0.6375 -0.6325  0.8535
  141MOL0     H18970   7.244   5.760   0.967 -1.7751  3.0045  1.1982
  141MOL0     H18971   7.220   5.722   0.794  1.7374 -0.5099 -0.1167
  141MOL0     H18972   7.467   5.864   0.907  0.5030 -0.1922  0.5819
  141MOL0     H18973   7.453   5.686   0.900 -2.3360  0.6833  2.6618
  141MOL0     H18974   7.392   5.735   0.645 -1.2739  1.1235  0.6817
  141MOL0     H18975   7.469   5.885   0.672  1.4961 -0.0531 -1.1880
  141MOL0     H18976   7.657   5.758   0.756 -1.1179  0.5150  0.3054
  141MOL0     H18977   7.594   5.600   0.699 -0.3332 -0.5374 -1.7388
  141MOL0     H18978   7.656   5.844   0.510 -0.1404 -1.2594 -3.1892
  141MOL0     H18979   7.763   5.719   0.556  0.3733  0.5721  0.0182
  141MOL0     H18980   7.479   5.711   0.419  1.0581  0.1939 -2.1067
  141MOL0     H18981   7.619   5.681   0.335  0.2108 -0.8415 -0.2108
  141MOL0     H18982   7.666   5.476   0.442  0.5589  0.1324  1.3999
  141MOL0     H18983   7.525   5.474   0.540  3.0193  1.3225  2.0473
  141MOL0     H18984   7.508   5.472   0.223 -1.2677 -2.6068 -0.6597
  141MOL0     H18985   7.371   5.504   0.334  0.7403  1.3641  0.4717
  141MOL0     H18986   7.670   5.257   0.311  0.5639  2.0177  0.8589
  141MOL0     H18987   7.679   5.015   0.199  0.9852 -1.6902  2.0663
  141MOL0     H18988   7.633   4.953   0.350 -0.6597 -0.5994 -1.3920
  141MOL0     H18989   7.416   4.873   0.214 -0.0645  0.0741 -1.4110
  141MOL0     H18990   7.567   4.788   0.169 -0.5340 -0.3376 -0.0246
  141MOL0     H18991   7.606   4.962  -0.006  0.6778  2.2091 -0.6883
  141MOL0     H18992   7.457   5.039   0.037  1.8560  1.9809 -1.9913
  141MOL0     H18993   7.347   4.799   0.011 -0.0478  0.5355  0.8107
  141MOL0     H18994   7.490   4.775  -0.086 -2.4647 -3.6445  1.8934
  141MOL0     H18995   7.215   4.968   0.079  1.3163 -1.8984 -1.0892
  141MOL0     H18996   6.943   5.182   0.126  1.2150  0.1879 -1.2380
  141MOL0     H18997   6.894   5.014   0.161  0.3927  1.1626  1.2412
  141MOL0     H18998   7.057   5.071   0.194 -1.6532 -2.3440  1.8715
  141MOL0     H18999   6.582   4.896  -0.208  2.0386  0.4395  1.3439
  141MOL0     H19000   6.332   4.941  -0.257 -0.9410  2.0544 -1.3890
  141MOL0     H19001   6.214   5.339  -0.242 -2.2255  1.5831 -1.7013
  141MOL0     H19002   6.231   5.209  -0.367 -1.6868  2.4665 -2.3428
  141MOL0     H19003   6.009   5.314  -0.378 -0.2842  2.9429  1.6166
  141MOL0     H19004   6.012   5.144  -0.344 -0.4719  1.0875 -2.0883
  141MOL0     H19005   5.975   5.360  -0.142 -0.5966 -0.1011  0.5527
  141MOL0     H19006   5.948   5.186  -0.108 -4.4017 -0.7721  0.0946
  141MOL0     H19007   5.751   5.357  -0.159  0.5350  0.0215 -0.9664
  141MOL0     H19008   5.795   5.332  -0.323  2.2067 -0.5370 -0.3950
  141MOL0     H19009   5.784   5.066  -0.249 -0.9272 -2.3801 -1.9707
  141MOL0     H19010   5.650   5.155  -0.324  0.5228 -0.4948  0.0209
  141MOL0     H19011   5.693   5.111  -0.016 -0.5263 -3.2278  1.8480
  141MOL0     H19012   5.557   5.191  -0.083 -0.7620 -0.5621 -1.1736
  141MOL0     H19013   5.608   4.898  -0.101  0.9116  0.2212 -1.9087
  141MOL0     H19014   5.502   4.971  -0.224  0.3106 -5.0881  0.9286
  141MOL0     H19015   5.357   5.062  -0.068  0.7062  1.1814  0.0858
  141MOL0     H19016   5.461   5.038   0.064 -0.3559 -0.6975  0.1188
  141MOL0     H19017   6.296   5.239   0.011 -1.5608 -2.6502 -0.3302
  141MOL0     H19018   6.567   5.226   0.069  0.8343 -0.4479  1.0864
  141MOL0     H19019   6.979   5.039  -0.333 -3.1542  0.9642  0.9238
  141MOL0     H19020   7.194   4.980  -0.354 -0.9688  0.4128 -0.2248
  141MOL0     H19021   7.267   6.183   0.885  0.9819 -3.0740 -0.7544
  141MOL0     H19022   7.100   6.322   1.009 -2.3522 -0.4076  1.5103
  141MOL0     H19023   6.593   6.466   1.062  2.3336  1.2320  0.2009
  141MOL0     H19024   6.466   6.600   1.226  1.1015 -0.3093 -0.3514
  141MOL0     H19025   6.399   6.419   1.552  0.0184 -1.0064  0.1419
  141MOL0     H19026   6.498   6.509   1.665 -1.4148 -0.1645 -0.2234
  141MOL0     H19027   6.355   6.677   1.697  0.3568 -1.2262  0.3989
  141MOL0     H19028   6.263   6.533   1.713 -0.4240 -0.7375 -0.7539
  141MOL0     H19029   6.279   6.726   1.470  1.7461 -4.1075 -1.8908
  141MOL0     H19030   6.159   6.730   1.607 -1.5177 -1.0653  0.1310
  141MOL0     H19031   6.031   6.613   1.454  0.9702  3.7126  2.0982
  141MOL0     H19032   6.112   6.490   1.554  0.5850 -0.8494  0.1512
  141MOL0     H19033   6.278   6.432   1.164 -0.8600  2.0917 -0.9019
  141MOL0     H19034   6.708   6.446   1.542 -2.1170 -1.4771  0.1711
  141MOL0     H19035   6.841   6.336   1.387  1.1420  1.5847 -0.6125
  142MOL0     O19036  10.138   6.167  11.315 -0.1538 -0.8096  0.4240
  142MOL0     C19037  10.066   6.113  11.231 -0.3321 -0.1769  0.5823
  142MOL0     O19038  10.099   6.005  11.152 -0.4528  0.1353  0.3469
  142MOL0     C19039  10.219   5.943  11.168 -0.6731 -0.5340  0.9643
  142MOL0     C19040  10.252   5.861  11.058  0.6022 -0.3172  0.4305
  142MOL0     C19041  10.358   5.771  11.063 -0.2249 -0.1515  0.0756
  142MOL0     C19042  10.449   5.777  11.172  0.0041  0.1681  0.1322
  142MOL0     O19043  10.568   5.702  11.193  0.0292 -0.0361 -0.0637
  142MOL0     C19044  10.622   5.620  11.089 -0.4137 -0.0713 -0.4171
  142MOL0     C19045  10.707   5.512  11.146  0.0821  0.0873 -0.0881
  142MOL0     C19046  10.744   5.418  11.035 -0.3373  0.8866  0.1176
  142MOL0     C19047  10.833   5.301  11.087 -0.0616 -0.9904  0.7001
  142MOL0     C19048  10.901   5.229  10.969  1.1021 -1.0126  0.9607
  142MOL0     C19049  10.802   5.190  10.851 -0.3775  0.3644  0.4029
  142MOL0     C19050  10.720   5.075  10.899  0.5149  0.6819 -0.4142
  142MOL0     C19051  10.604   5.044  10.804  0.8844 -0.4000  0.2065
  142MOL0     N19052  10.490   5.129  10.838  0.2656  0.2788 -0.5704
  142MOL0     C19053  10.451   5.156  10.973 -0.0261 -0.4498  0.1685
  142MOL0     C19054  10.387   5.275  10.972 -0.1597 -0.1127  0.8188
  142MOL0     C19055  10.325   5.331  11.100 -0.0715  0.7134  0.3403
  142MOL0     C19056  10.172   5.293  11.110 -0.4346 -0.2021  0.5438
  142MOL0     C19057  10.174   5.157  11.175 -0.4677  1.0121  0.5895
  142MOL0     C19058  10.037   5.102  11.211  0.4266 -0.4784  0.9222
  142MOL0     O19059   9.955   5.114  11.094 -0.1429 -0.1423  0.6360
  142MOL0     C19060   9.825   5.165  11.110  0.2256 -0.6122  0.2708
  142MOL0     C19061   9.806   5.296  11.159  0.0491  0.0921  0.9058
  142MOL0     C19062   9.675   5.329  11.200 -0.1983 -0.4299 -0.4127
  142MOL0     C19063   9.664   5.470  11.261 -0.3483  0.1851  0.2359
  142MOL0     C19064   9.567   5.238  11.191  0.5397  0.3699  0.5292
  142MOL0     C19065   9.426   5.266  11.228 -0.1545 -0.5688  0.5098
  142MOL0     O19066   9.334   5.161  11.232  0.2149  0.2702  0.3594
  142MOL0     C19067   9.202   5.194  11.236  0.4017 -0.6577 -1.2240
  142MOL0     C19068   9.128   5.205  11.119 -0.0869  0.3101  0.0790
  142MOL0     C19069   8.991   5.232  11.124  0.4425 -0.0291  0.0212
  142MOL0     C19070   8.928   5.264  11.246  0.1805 -0.1701  0.5178
  142MOL0     O19071   8.802   5.319  11.257 -0.2232  0.0161 -0.5713
  142MOL0     C19072   8.697   5.274  11.170  0.4987  0.3626  0.7006
  142MOL0     C19073   8.561   5.276  11.248  0.1189 -0.5418 -0.5807
  142MOL0     C19074   8.455   5.239  11.146 -0.4868  0.7786  0.9762
  142MOL0     C19075   8.337   5.195  11.228  0.0208  0.3579 -0.8175
  142MOL0     C19076   8.213   5.172  11.135  0.4491 -0.0059  0.7651
  142MOL0     C19077   8.169   5.295  11.058  0.4073  0.0645 -0.3933
  142MOL0     C19078   8.171   5.420  11.155 -0.4625  0.6065 -0.7577
  142MOL0     C19079   8.110   5.535  11.082  0.3215 -0.0119 -0.2561
  142MOL0    Cl19080   7.935   5.520  11.056 -0.1618  0.2044 -0.0550
  142MOL0     C19081   9.003   5.247  11.358  0.2882  0.0610 -0.8688
  142MOL0     C19082   9.138   5.215  11.354  0.6253 -0.8343  0.4655
  142MOL0     O19083   9.391   5.385  11.249  0.6090  0.0537  0.3168
  142MOL0     C19084   9.593   5.114  11.133  0.4838 -0.3543 -0.9827
  142MOL0     C19085   9.723   5.074  11.102 -0.4654  0.3035  0.1909
  142MOL0     N19086  10.385   5.325  10.842 -0.4754  0.4728 -0.7160
  142MOL0     N19087  10.439   5.234  10.761  0.1211 -0.3990  0.4732
  142MOL0     C19088  10.413   5.860  11.286 -0.2049  0.5201  1.0459
  142MOL0     C19089  10.303   5.940  11.280 -0.2583 -0.6512 -0.5890
  142MOL0     C19090   9.936   6.180  11.202 -0.2372 -0.6428  0.9091
  142MOL0     C19091   9.832   6.123  11.129 -0.3625  0.1468 -0.1387
  142MOL0     C19092   9.705   6.186  11.115 -0.3863  0.2567 -0.0784
  142MOL0     C19093   9.684   6.322  11.154  0.5519  0.4070  0.4035
  142MOL0     O19094   9.555   6.366  11.135 -0.1704 -0.1655  0.2294
  142MOL0     C19095   9.529   6.500  11.178 -0.4781  0.4307 -0.2385
  142MOL0     C19096   9.383   6.521  11.143 -0.3780 -0.1531  0.0590
  142MOL0     C19097   9.362   6.680  11.144  0.7453 -0.2055  0.2274
  142MOL0     C19098   9.212   6.703  11.136 -0.6315  0.3806  0.2406
  142MOL0     C19099   9.175   6.702  10.999  0.0535  0.2922 -0.4078
  142MOL0     C19100   9.149   6.712  10.881  0.1904  1.1019  0.1131
  142MOL0     C19101   9.790   6.384  11.213  0.2965  0.4051 -0.6443
  142MOL0     C19102   9.909   6.312  11.246 -0.5683 -0.0889  0.5435
  142MOL0     H19103  10.183   5.872  10.976 -0.9687  0.7692  1.8233
  142MOL0     H19104  10.368   5.709  10.975 -1.3921 -2.3002  1.3479
  142MOL0     H19105  10.545   5.567  11.032  1.7662 -0.1289 -3.5573
  142MOL0     H19106  10.681   5.688  11.028 -0.8808  1.8696  1.1752
  142MOL0     H19107  10.791   5.557  11.200  0.0658 -0.2181  0.1880
  142MOL0     H19108  10.649   5.463  11.224 -0.7893  3.4057  1.5353
  142MOL0     H19109  10.647   5.387  10.993  0.6569 -2.3388 -0.0399
  142MOL0     H19110  10.803   5.482  10.969  1.8070 -0.7074  0.4000
  142MOL0     H19111  10.914   5.338  11.151  1.5104 -1.4045 -0.9743
  142MOL0     H19112  10.770   5.230  11.142 -2.2075 -0.5833 -1.0762
  142MOL0     H19113  10.974   5.302  10.932  0.7273  0.3500  2.7567
  142MOL0     H19114  10.961   5.150  11.015  1.1174 -1.5890 -0.0187
  142MOL0     H19115  10.751   5.276  10.807 -2.0705  0.0125  1.5707
  142MOL0     H19116  10.868   5.156  10.771  0.5105  1.7784  0.5055
  142MOL0     H19117  10.785   4.987  10.907 -1.2866 -0.6177  1.0387
  142MOL0     H19118  10.701   5.080  11.007 -2.0153  0.1826 -0.7592
  142MOL0     H19119  10.558   4.944  10.808  0.2205 -0.1326 -0.5668
  142MOL0     H19120  10.635   5.057  10.701  1.5830 -2.0450  0.1745
  142MOL0     H19121  10.457   5.096  11.063 -1.2802 -2.3936 -0.9535
  142MOL0     H19122  10.383   5.296  11.186 -1.6770 -2.0011  0.4078
  142MOL0     H19123  10.339   5.440  11.105  1.6637  0.4962  0.5371
  142MOL0     H19124  10.117   5.293  11.016  0.0225  0.1419  0.2747
  142MOL0     H19125  10.115   5.356  11.180  1.8361  1.1330  1.2900
  142MOL0     H19126  10.234   5.170  11.266  0.4466  0.3998  0.0997
  142MOL0     H19127  10.219   5.089  11.102  0.0264  0.2387  1.6002
  142MOL0     H19128   9.994   5.150  11.300  2.2033  1.6595  0.7134
  142MOL0     H19129  10.050   4.995  11.232 -0.9091 -0.9453 -0.4813
  142MOL0     H19130   9.887   5.368  11.153 -0.2934  0.5983  1.9785
  142MOL0     H19131   9.759   5.524  11.261 -0.1024 -0.2184 -1.0825
  142MOL0     H19132   9.596   5.533  11.203  0.8686  1.4040  0.0924
  142MOL0     H19133   9.616   5.459  11.359 -0.9608  1.5347  0.1080
  142MOL0     H19134   9.180   5.182  11.026 -1.0838  2.6959 -1.1509
  142MOL0     H19135   8.933   5.246  11.033  1.0825  0.9952 -0.2493
  142MOL0     H19136   8.683   5.346  11.089 -1.0344  0.0668  0.6604
  142MOL0     H19137   8.713   5.173  11.129  1.3986 -0.1626  2.2835
  142MOL0     H19138   8.555   5.205  11.332 -0.4055  2.0836  1.7728
  142MOL0     H19139   8.547   5.375  11.292  1.7700 -0.1625 -0.8237
  142MOL0     H19140   8.490   5.158  11.082 -0.7217  0.9585  0.6236
  142MOL0     H19141   8.429   5.324  11.083  0.6651 -0.5374 -1.4085
  142MOL0     H19142   8.353   5.098  11.277 -4.4883 -0.6781 -0.9775
  142MOL0     H19143   8.313   5.267  11.307  0.2828 -1.2175  0.7792
  142MOL0     H19144   8.126   5.133  11.189 -1.3620  1.7536 -0.7275
  142MOL0     H19145   8.241   5.089  11.069 -2.0570 -1.0209  0.8376
  142MOL0     H19146   8.243   5.315  10.980 -1.4557 -0.9188 -2.5190
  142MOL0     H19147   8.069   5.287  11.015 -0.4482 -1.6689  1.7037
  142MOL0     H19148   8.269   5.459  11.182 -0.3906  0.4670 -0.8158
  142MOL0     H19149   8.115   5.401  11.248  5.0389 -1.4764  2.6027
  142MOL0     H19150   8.167   5.549  10.990  1.6742 -2.7288  0.0619
  142MOL0     H19151   8.120   5.620  11.150 -0.0517  1.4040 -1.9093
  142MOL0     H19152   8.951   5.256  11.454 -0.7016  2.6427 -1.5736
  142MOL0     H19153   9.199   5.207  11.444  1.6190  0.6323 -0.0289
  142MOL0     H19154   9.514   5.041  11.125  0.3135 -0.2185 -0.5944
  142MOL0     H19155   9.738   4.974  11.063 -0.5146 -0.1187  1.2287
  142MOL0     H19156  10.478   5.857  11.373  0.6797 -0.5338  0.3708
  142MOL0     H19157  10.292   6.000  11.370  2.2890 -1.5921  0.4526
  142MOL0     H19158   9.851   6.025  11.085  0.8825  1.0149 -1.6435
  142MOL0     H19159   9.622   6.133  11.069  0.8549  1.8755 -4.7090
  142MOL0     H19160   9.536   6.521  11.285 -0.5444  1.2769 -0.3936
  142MOL0     H19161   9.591   6.571  11.121 -0.5626  0.0677 -0.7926
  142MOL0     H19162   9.325   6.480  11.227 -0.4217 -0.6022 -0.1855
  142MOL0     H19163   9.351   6.478  11.048  0.2632 -0.6351  0.0583
  142MOL0     H19164   9.411   6.726  11.058 -0.4598  1.9407  0.6214
  142MOL0     H19165   9.398   6.730  11.235 -1.1392  0.8951  0.4210
  142MOL0     H19166   9.191   6.802  11.178  0.2167  0.3805  0.6990
  142MOL0     H19167   9.156   6.640  11.205 -1.0406 -0.2008 -0.6032
  142MOL0     H19168   9.144   6.704  10.774 -0.8329 -1.4400  0.2745
  142MOL0     H19169   9.769   6.486  11.241  1.3681  1.2904 -2.7922
  142MOL0     H19170   9.985   6.370  11.297  0.8371 -1.2489 -0.1677
  143MOL0     O19171   2.486   1.189   0.559  0.2176 -0.4157 -0.5879
  143MOL0     C19172   2.486   1.109   0.466 -0.2273  0.6973  0.1053
  143MOL0     O19173   2.396   1.007   0.449 -0.3127 -0.2134  0.4920
  143MOL0     C19174   2.313   0.976   0.553 -0.6556  0.6371  0.9939
  143MOL0     C19175   2.193   1.034   0.560 -0.2522  0.8702  0.1061
  143MOL0     C19176   2.105   0.978   0.662  0.6291 -0.5088  0.2401
  143MOL0     C19177   2.149   0.883   0.759 -0.0196  0.0975  0.3477
  143MOL0     O19178   2.067   0.821   0.851 -0.1241 -0.1770 -0.0716
  143MOL0     C19179   1.949   0.896   0.869  0.3966 -0.1903 -0.0260
  143MOL0     C19180   1.885   0.834   0.991  0.4660  0.1490 -0.1720
  143MOL0     C19181   1.840   0.695   0.979 -0.1267 -0.2785  0.6304
  143MOL0     C19182   1.788   0.635   1.106  0.2034  0.4119 -0.4499
  143MOL0     C19183   1.636   0.651   1.116  0.4930  0.0942  0.2931
  143MOL0     C19184   1.577   0.622   1.248 -0.2606  0.2155 -0.0732
  143MOL0     C19185   1.426   0.636   1.240 -0.3191  0.7148 -0.7089
  143MOL0     C19186   1.383   0.612   1.387  1.1478  0.5193 -0.3398
  143MOL0     N19187   1.233   0.609   1.401 -0.3482 -0.3346 -0.4040
  143MOL0     C19188   1.158   0.722   1.415  0.3214  0.1783 -0.9387
  143MOL0     C19189   1.031   0.670   1.414 -0.3219  0.7422 -0.6181
  143MOL0     C19190   0.899   0.743   1.456 -0.1919  0.3325 -0.2301
  143MOL0     C19191   0.839   0.817   1.336 -0.5677  1.0635 -0.0689
  143MOL0     C19192   0.843   0.757   1.204  0.2457 -0.2143  0.7082
  143MOL0     C19193   0.746   0.814   1.098 -0.6333 -0.5593 -0.7031
  143MOL0     O19194   0.751   0.755   0.978  0.2448  0.7339  1.3600
  143MOL0     C19195   0.634   0.753   0.901  0.2146 -0.2022 -1.0215
  143MOL0     C19196   0.605   0.860   0.819 -0.2170  0.3028  0.8286
  143MOL0     C19197   0.487   0.858   0.748 -0.0951 -0.9742  0.4728
  143MOL0     C19198   0.456   0.985   0.668  0.0841  0.3429 -0.5394
  143MOL0     C19199   0.401   0.750   0.746 -0.0433  1.0274  1.2358
  143MOL0     C19200   0.270   0.736   0.673 -0.2139 -0.8877 -0.1238
  143MOL0     O19201   0.191   0.627   0.706  0.2207  0.4002  0.5069
  143MOL0     C19202   0.062   0.590   0.659 -0.5776  0.7064  0.6167
  143MOL0     C19203   0.018   0.469   0.711 -0.0262 -0.1484  0.8240
  143MOL0     C19204  -0.107   0.427   0.678  1.1049 -0.2404  0.1967
  143MOL0     C19205  -0.197   0.504   0.606  0.4680  0.0002 -0.0638
  143MOL0     O19206  -0.325   0.438   0.578 -0.4978 -0.3626 -0.6121
  143MOL0     C19207  -0.390   0.482   0.461  0.1792  0.5145  0.8279
  143MOL0     C19208  -0.520   0.394   0.445 -0.9031  0.2156  1.1591
  143MOL0     C19209  -0.575   0.420   0.306 -0.5105  0.6862  0.3390
  143MOL0     C19210  -0.641   0.544   0.281  0.0906 -0.0921 -0.5082
  143MOL0     C19211  -0.671   0.578   0.138  0.8124  0.6236  0.0097
  143MOL0     C19212  -0.773   0.489   0.067 -0.4344  0.1975 -0.4185
  143MOL0     C19213  -0.912   0.485   0.129  0.1437  0.2732 -0.3457
  143MOL0     C19214  -0.968   0.617   0.183 -0.0254  1.0390 -0.0787
  143MOL0    Cl19215  -1.149   0.590   0.225 -0.0470  0.1809  0.6527
  143MOL0     C19216  -0.161   0.637   0.563  0.3804 -0.0471 -0.3551
  143MOL0     C19217  -0.031   0.677   0.597  0.1313  0.3057 -0.6390
  143MOL0     O19218   0.247   0.814   0.580  0.0592  0.1408 -0.6195
  143MOL0     C19219   0.441   0.647   0.831 -0.3159 -0.3637 -0.4464
  143MOL0     C19220   0.548   0.650   0.911  0.3793 -0.6227 -0.0998
  143MOL0     N19221   1.036   0.538   1.388 -0.6813 -0.0732 -0.5313
  143MOL0     N19222   1.157   0.504   1.377  0.2871  0.0640  0.0736
  143MOL0     C19223   2.283   0.830   0.744  0.0102  0.7285 -0.5242
  143MOL0     C19224   2.358   0.874   0.637  0.5597  0.3397 -0.2581
  143MOL0     C19225   2.595   1.116   0.368  0.6495 -0.5301  0.4469
  143MOL0     C19226   2.709   1.201   0.394  0.6062 -0.3724  0.7320
  143MOL0     C19227   2.821   1.201   0.309  0.2213  0.3368  0.3158
  143MOL0     C19228   2.832   1.115   0.200  0.1618  0.2425  0.7302
  143MOL0     O19229   2.927   1.119   0.104  0.0243 -0.0773 -0.6947
  143MOL0     C19230   3.018   1.235   0.106  0.1449 -0.3497  0.4500
  143MOL0     C19231   3.124   1.215   0.001 -0.8412 -0.5641 -1.3274
  143MOL0     C19232   3.069   1.191  -0.135  0.3763 -0.1980 -0.2012
  143MOL0     C19233   3.184   1.191  -0.235  0.7127 -0.4449  0.0891
  143MOL0     C19234   3.278   1.081  -0.212  0.3336  0.1366  0.2006
  143MOL0     C19235   3.337   0.979  -0.191  0.0401  1.2651  0.0346
  143MOL0     C19236   2.720   1.020   0.184 -0.3742 -0.9411 -0.2558
  143MOL0     C19237   2.607   1.020   0.267 -0.3026  0.8085  0.5540
  143MOL0     H19238   2.153   1.111   0.495  1.2542  0.8620 -0.8891
  143MOL0     H19239   2.005   1.020   0.664  1.3839  1.4925 -1.1446
  143MOL0     H19240   1.979   0.998   0.895 -1.4553  0.1055  1.1696
  143MOL0     H19241   1.888   0.904   0.779 -0.5929  1.6743  0.7345
  143MOL0     H19242   1.951   0.845   1.077 -2.4983 -1.2204  2.4512
  143MOL0     H19243   1.795   0.889   1.020  0.3335  0.4380 -1.0937
  143MOL0     H19244   1.766   0.680   0.900 -0.1463 -1.7383  0.8910
  143MOL0     H19245   1.924   0.630   0.956 -2.6910 -3.2572 -1.1366
  143MOL0     H19246   1.810   0.528   1.103 -2.2194 -0.1699  0.3966
  143MOL0     H19247   1.822   0.697   1.189 -0.7576  0.1189  0.1760
  143MOL0     H19248   1.611   0.756   1.099  0.8991  0.4666  1.8461
  143MOL0     H19249   1.584   0.595   1.038  0.8835 -2.3902  1.7032
  143MOL0     H19250   1.609   0.521   1.274  0.4612  1.2481  3.5918
  143MOL0     H19251   1.617   0.693   1.322 -1.7111 -0.1456  1.0847
  143MOL0     H19252   1.391   0.738   1.221 -0.4053  0.4742 -1.8953
  143MOL0     H19253   1.385   0.564   1.169 -0.4941 -1.4496  1.4682
  143MOL0     H19254   1.422   0.685   1.459  2.9765  0.6097 -1.3465
  143MOL0     H19255   1.415   0.513   1.422 -1.4589  0.4527  2.2823
  143MOL0     H19256   1.173   0.827   1.440 -0.9753 -0.2977  2.4210
  143MOL0     H19257   0.825   0.682   1.509 -0.3156  1.5047  0.9897
  143MOL0     H19258   0.927   0.809   1.538  0.8720 -1.8696  1.2979
  143MOL0     H19259   0.891   0.912   1.322  1.3830 -0.2024 -2.1033
  143MOL0     H19260   0.734   0.838   1.355 -0.0189  0.9662  4.0948
  143MOL0     H19261   0.813   0.652   1.212  1.6177 -0.5526  1.6303
  143MOL0     H19262   0.945   0.761   1.167 -0.1636  0.8980 -0.3603
  143MOL0     H19263   0.771   0.921   1.095  1.7807 -1.0485 -0.3307
  143MOL0     H19264   0.646   0.801   1.140 -0.3484  0.7164  0.4749
  143MOL0     H19265   0.678   0.939   0.829 -1.5508  1.5207  1.1669
  143MOL0     H19266   0.528   1.062   0.698 -0.5939  0.8928 -0.3213
  143MOL0     H19267   0.457   0.961   0.562  0.6366  1.1152 -0.7146
  143MOL0     H19268   0.355   1.010   0.699  0.3201  0.1731  0.4082
  143MOL0     H19269   0.094   0.409   0.759  2.0407  1.6979  0.0560
  143MOL0     H19270  -0.139   0.326   0.701 -0.2395 -0.7554 -3.2967
  143MOL0     H19271  -0.429   0.584   0.473  2.6875  1.8766 -1.3634
  143MOL0     H19272  -0.326   0.473   0.373 -0.9148  0.5065 -0.0001
  143MOL0     H19273  -0.490   0.290   0.451 -0.5923  0.1536 -0.8735
  143MOL0     H19274  -0.585   0.418   0.530 -0.8297  1.8066  0.8121
  143MOL0     H19275  -0.638   0.334   0.280  0.9901 -0.7538  1.2368
  143MOL0     H19276  -0.497   0.408   0.231  0.2153 -2.6855  1.4515
  143MOL0     H19277  -0.736   0.556   0.335 -0.0493  2.1356 -1.1452
  143MOL0     H19278  -0.572   0.622   0.314  0.0636 -0.0144 -0.6324
  143MOL0     H19279  -0.575   0.563   0.089  0.7160  1.7680 -0.5498
  143MOL0     H19280  -0.693   0.683   0.120 -2.8422  0.5515  2.7912
  143MOL0     H19281  -0.773   0.518  -0.038 -0.0895 -3.8228 -1.6857
  143MOL0     H19282  -0.733   0.387   0.060  2.1734  1.1431 -0.4094
  143MOL0     H19283  -0.925   0.414   0.211  0.2032 -0.9275 -1.3449
  143MOL0     H19284  -0.979   0.448   0.052  2.1168 -1.3951 -1.3585
  143MOL0     H19285  -0.950   0.691   0.105 -0.9910  1.6352  0.2447
  143MOL0     H19286  -0.913   0.654   0.270  0.4291 -1.0096  0.5450
  143MOL0     H19287  -0.230   0.699   0.506 -0.7416  1.0422  2.0190
  143MOL0     H19288   0.012   0.771   0.565  3.9990 -1.5223 -1.3509
  143MOL0     H19289   0.374   0.563   0.847 -1.5333  0.9704  1.9866
  143MOL0     H19290   0.581   0.571   0.977  0.7696  0.6567  1.3034
  143MOL0     H19291   2.324   0.759   0.816 -2.6432 -1.2994 -0.8468
  143MOL0     H19292   2.460   0.845   0.615  0.3258 -1.2456  0.6270
  143MOL0     H19293   2.693   1.273   0.473 -2.4872 -0.8231  0.6330
  143MOL0     H19294   2.886   1.280   0.346 -0.5368  1.2442 -0.2381
  143MOL0     H19295   2.957   1.324   0.091 -1.1251 -0.7755  2.6058
  143MOL0     H19296   3.060   1.240   0.207 -0.7000 -4.6129  1.2177
  143MOL0     H19297   3.197   1.140   0.033  2.1844  2.7179  0.2286
  143MOL0     H19298   3.167   1.315   0.007 -0.1489 -0.9291  0.8942
  143MOL0     H19299   3.000   1.270  -0.166 -0.0906 -0.6748 -0.3807
  143MOL0     H19300   3.020   1.094  -0.135 -0.0891 -0.0097  2.0456
  143MOL0     H19301   3.234   1.289  -0.238  0.1002 -0.0391  1.9737
  143MOL0     H19302   3.152   1.171  -0.337 -0.5713 -0.6900  0.5254
  143MOL0     H19303   3.379   0.887  -0.157  0.7950  1.0456 -1.4188
  143MOL0     H19304   2.728   0.957   0.096  1.8574 -0.4848 -0.4281
  143MOL0     H19305   2.530   0.952   0.233  1.3478 -0.5063 -0.6910
  144MOL0     O19306   2.882   7.784   8.968  0.0224 -0.0601 -0.1294
  144MOL0     C19307   2.927   7.736   9.076 -0.0222 -0.3461  0.5150
  144MOL0     O19308   2.866   7.753   9.198 -0.3481  0.2523  0.0356
  144MOL0     C19309   2.763   7.842   9.215  0.4467 -0.3807  1.1060
  144MOL0     C19310   2.644   7.820   9.147  0.1870  0.3378  0.9061
  144MOL0     C19311   2.531   7.905   9.168  0.1419  0.2690  0.1344
  144MOL0     C19312   2.539   8.017   9.258 -0.1947  1.0727  0.5938
  144MOL0     O19313   2.451   8.121   9.258 -0.0540 -0.4194 -0.0260
  144MOL0     C19314   2.337   8.106   9.163 -0.2481 -0.9848 -0.4313
  144MOL0     C19315   2.263   8.247   9.172  0.1089  1.1398  0.2934
  144MOL0     C19316   2.236   8.304   9.312 -0.0066 -1.1435 -0.7388
  144MOL0     C19317   2.327   8.418   9.366  1.4810 -1.0120 -0.7255
  144MOL0     C19318   2.261   8.493   9.494  0.1389 -0.8938 -0.5444
  144MOL0     C19319   2.228   8.392   9.600  0.6351  0.3801  0.9743
  144MOL0     C19320   2.172   8.442   9.726  0.6647  0.1647 -1.2356
  144MOL0     C19321   2.153   8.324   9.825 -0.0425  1.1277  0.1646
  144MOL0     N19322   2.104   8.370   9.949  0.3664  1.3458 -0.1750
  144MOL0     C19323   1.968   8.372   9.984  0.2438 -0.4459 -0.0813
  144MOL0     C19324   1.959   8.385  10.118 -0.9184 -0.1727 -0.0957
  144MOL0     C19325   1.845   8.413  10.212  0.2743 -0.4358 -0.2716
  144MOL0     C19326   1.805   8.294  10.299  0.3913 -0.4204  0.2748
  144MOL0     C19327   1.721   8.356  10.418  0.7149 -0.0616  1.1791
  144MOL0     C19328   1.581   8.421  10.379 -0.3843  0.2152  0.6681
  144MOL0     O19329   1.511   8.318  10.305 -0.1440  0.4936  0.0164
  144MOL0     C19330   1.379   8.315  10.316  0.5625  0.1419  0.0972
  144MOL0     C19331   1.318   8.198  10.280 -0.0703 -0.2313 -0.0467
  144MOL0     C19332   1.179   8.181  10.286  0.4613 -0.7485  0.0410
  144MOL0     C19333   1.133   8.052  10.232  0.5584  0.6097 -0.1169
  144MOL0     C19334   1.097   8.286  10.329 -0.5205  0.4386  0.1998
  144MOL0     C19335   0.949   8.290  10.345 -0.2142  1.0980 -0.3390
  144MOL0     O19336   0.889   8.395  10.397 -0.7527 -0.4961 -0.5033
  144MOL0     C19337   0.756   8.409  10.420 -0.0131  0.0513  1.2194
  144MOL0     C19338   0.719   8.508  10.509 -0.0014  0.2743 -0.0487
  144MOL0     C19339   0.588   8.535  10.529 -0.6668 -0.1572  0.0252
  144MOL0     C19340   0.487   8.473  10.463  0.2296 -0.2431 -1.0051
  144MOL0     O19341   0.355   8.510  10.462  0.4314  0.1968  0.3702
  144MOL0     C19342   0.283   8.533  10.585 -0.6508 -0.1636  0.8884
  144MOL0     C19343   0.201   8.410  10.625  0.4918  0.5048  0.0208
  144MOL0     C19344   0.095   8.429  10.738 -0.3915 -0.4846 -0.3098
  144MOL0     C19345   0.171   8.428  10.873 -1.0132 -0.0313  0.4364
  144MOL0     C19346   0.059   8.407  10.981 -0.2213  0.0722  0.2208
  144MOL0     C19347   0.124   8.430  11.120  0.3816 -0.2050  0.4399
  144MOL0     C19348   0.205   8.311  11.159  0.5739 -0.9075 -0.1515
  144MOL0     C19349   0.281   8.347  11.286  0.3622 -0.8696  0.3843
  144MOL0    Cl19350   0.406   8.469  11.254  0.2541  0.4091 -0.4146
  144MOL0     C19351   0.516   8.360  10.382 -0.5667  0.4078  0.0251
  144MOL0     C19352   0.653   8.333  10.359 -0.1169 -0.2186 -0.1397
  144MOL0     O19353   0.897   8.199  10.285  0.2406 -1.3286 -0.3574
  144MOL0     C19354   1.161   8.412  10.366  0.0902 -0.2030  0.1032
  144MOL0     C19355   1.297   8.425  10.358 -1.3299  0.6502  0.3559
  144MOL0     N19356   2.096   8.379  10.165  0.2388 -0.0844 -0.0421
  144MOL0     N19357   2.174   8.363  10.069 -0.4370  0.0014  0.2934
  144MOL0     C19358   2.664   8.036   9.320 -0.0572 -0.2260 -0.2167
  144MOL0     C19359   2.773   7.958   9.294  0.2558 -0.6157 -0.0770
  144MOL0     C19360   3.058   7.668   9.068  0.8147 -0.6278  0.3410
  144MOL0     C19361   3.102   7.585   9.172  0.3151 -1.2905 -0.4366
  144MOL0     C19362   3.224   7.515   9.156 -0.4636 -0.0002  0.6238
  144MOL0     C19363   3.293   7.537   9.033  0.1676  0.3209 -0.0622
  144MOL0     O19364   3.406   7.470   9.001  0.2266 -0.1768 -0.5141
  144MOL0     C19365   3.458   7.365   9.090  0.5105 -0.5650 -0.2609
  144MOL0     C19366   3.609   7.341   9.050 -0.0102 -0.6958 -0.2066
  144MOL0     C19367   3.693   7.251   9.146  0.3815  0.0615 -0.1277
  144MOL0     C19368   3.848   7.239   9.118 -0.1667  0.1662  0.2258
  144MOL0     C19369   3.862   7.155   8.992 -1.2466  0.5186  0.1211
  144MOL0     C19370   3.880   7.101   8.885 -0.6157  0.0427 -0.6094
  144MOL0     C19371   3.242   7.611   8.935  0.2788 -0.9637  0.6884
  144MOL0     C19372   3.123   7.677   8.948  0.4368 -0.9567  0.4135
  144MOL0     H19373   2.630   7.730   9.089  3.6042  0.8060 -0.8616
  144MOL0     H19374   2.434   7.877   9.128 -0.0972  2.0997 -0.6804
  144MOL0     H19375   2.366   8.107   9.058 -1.3735 -0.6657 -0.7553
  144MOL0     H19376   2.260   8.028   9.177  0.4559 -1.5824  0.2097
  144MOL0     H19377   2.323   8.326   9.126  3.3514 -2.0593 -1.4187
  144MOL0     H19378   2.166   8.248   9.121 -0.5125  0.4146  1.4224
  144MOL0     H19379   2.133   8.339   9.304 -0.4250 -2.4945 -1.4959
  144MOL0     H19380   2.229   8.224   9.386 -0.3275  0.7276  1.3780
  144MOL0     H19381   2.413   8.366   9.410  1.1336 -2.0776 -1.2728
  144MOL0     H19382   2.339   8.493   9.287 -2.2130  0.5803  0.0578
  144MOL0     H19383   2.332   8.561   9.542 -1.3270  2.9731 -3.2766
  144MOL0     H19384   2.174   8.555   9.470  0.1541 -0.6986 -0.0874
  144MOL0     H19385   2.156   8.318   9.565 -0.3616  1.0813  1.4892
  144MOL0     H19386   2.320   8.337   9.620  1.3925  1.4372  0.4739
  144MOL0     H19387   2.242   8.509   9.777 -1.5317  0.2353  1.9937
  144MOL0     H19388   2.076   8.493   9.715  0.1655 -0.4064  0.2077
  144MOL0     H19389   2.253   8.282   9.837 -0.2617 -0.1416 -2.0087
  144MOL0     H19390   2.086   8.259   9.768  1.9746  0.6607 -1.7929
  144MOL0     H19391   1.883   8.383   9.917  0.9994 -0.1002 -1.0152
  144MOL0     H19392   1.881   8.489  10.281  0.5790 -3.2355  2.9344
  144MOL0     H19393   1.763   8.453  10.152  1.1278 -0.6659 -1.6390
  144MOL0     H19394   1.886   8.233  10.340 -0.7491 -0.5658  2.5065
  144MOL0     H19395   1.747   8.227  10.236  0.6146 -0.9993  0.6781
  144MOL0     H19396   1.777   8.435  10.469  0.1079  0.3747  1.1782
  144MOL0     H19397   1.688   8.270  10.477  1.1449 -0.4011  0.9397
  144MOL0     H19398   1.598   8.512  10.322 -1.8249 -0.7272 -1.3680
  144MOL0     H19399   1.536   8.451  10.474  2.3903  1.3033  1.7516
  144MOL0     H19400   1.377   8.112  10.253  2.9130  0.8178  2.5579
  144MOL0     H19401   1.085   8.052  10.134 -1.3744 -0.6460  0.7470
  144MOL0     H19402   1.215   7.980  10.225 -0.9374 -1.3149  1.1567
  144MOL0     H19403   1.067   8.006  10.307 -0.7367  1.2355 -0.8349
  144MOL0     H19404   0.798   8.567  10.554  0.9059 -1.3194  0.5324
  144MOL0     H19405   0.559   8.620  10.591 -1.8127  0.9009 -1.8479
  144MOL0     H19406   0.350   8.561  10.667 -0.9077  0.1655  0.9919
  144MOL0     H19407   0.206   8.610  10.572 -3.4241 -3.1303 -2.1973
  144MOL0     H19408   0.140   8.378  10.540 -1.3666 -0.2688  1.5732
  144MOL0     H19409   0.266   8.326  10.653 -1.1940 -1.8663 -2.6622
  144MOL0     H19410   0.015   8.355  10.730 -0.6361 -0.4693  1.6084
  144MOL0     H19411   0.046   8.526  10.728  3.9089  1.9924 -0.1390
  144MOL0     H19412   0.247   8.350  10.871 -0.7338  0.1881  1.5946
  144MOL0     H19413   0.218   8.525  10.889 -1.8131  0.3106  0.8016
  144MOL0     H19414   0.019   8.305  10.983 -1.3992  0.5207  1.8965
  144MOL0     H19415  -0.030   8.469  10.967  0.0609  0.1737 -1.2830
  144MOL0     H19416   0.185   8.520  11.110 -0.5455  0.3026 -1.2053
  144MOL0     H19417   0.036   8.452  11.181  1.0650 -0.2817  1.4883
  144MOL0     H19418   0.276   8.294  11.077  1.7677  0.1549  0.6172
  144MOL0     H19419   0.142   8.225  11.184 -1.7429  0.5787 -0.5994
  144MOL0     H19420   0.330   8.259  11.330 -0.4986 -1.3988  0.3039
  144MOL0     H19421   0.216   8.381  11.367  2.4527  0.5263  1.5670
  144MOL0     H19422   0.441   8.311  10.320 -2.1638  1.7085  0.8367
  144MOL0     H19423   0.668   8.248  10.292 -0.5131  0.3504 -0.9697
  144MOL0     H19424   1.117   8.506  10.395  1.0443  0.7697 -1.4266
  144MOL0     H19425   1.347   8.520  10.375  1.5742 -0.2652 -2.0665
  144MOL0     H19426   2.667   8.129   9.375  1.5231  0.3637 -1.2328
  144MOL0     H19427   2.863   7.971   9.353 -0.4130 -1.6563  1.2315
  144MOL0     H19428   3.059   7.570   9.271 -0.7078  0.5014 -0.5776
  144MOL0     H19429   3.249   7.442   9.232 -0.9674 -2.1869 -1.2144
  144MOL0     H19430   3.455   7.406   9.192  0.5585  3.6028 -1.7228
  144MOL0     H19431   3.394   7.278   9.074 -1.7492  1.5091 -4.2321
  144MOL0     H19432   3.646   7.443   9.039 -2.8192  0.2301 -2.2807
  144MOL0     H19433   3.621   7.299   8.950  0.4755  1.4527 -1.0917
  144MOL0     H19434   3.646   7.152   9.153  1.2719 -0.2760  1.8625
  144MOL0     H19435   3.680   7.287   9.249 -1.4442 -3.6974  1.1466
  144MOL0     H19436   3.909   7.194   9.197  1.0770 -0.8144 -1.2401
  144MOL0     H19437   3.893   7.333   9.085  1.0225 -0.8708 -1.2462
  144MOL0     H19438   3.910   7.052   8.795  0.5886  2.7415 -1.7551
  144MOL0     H19439   3.299   7.621   8.843  1.3682 -0.2536  1.4306
  144MOL0     H19440   3.095   7.737   8.863  0.3543  0.4033  1.3652
  145MOL0     O19441   8.482   5.927   0.774 -0.1222 -0.4269 -0.0179
  145MOL0     C19442   8.511   5.985   0.669 -0.1869 -1.1549 -0.5342
  145MOL0     O19443   8.424   6.045   0.585  0.9252 -0.1363 -0.1774
  145MOL0     C19444   8.296   6.053   0.631  0.6761 -0.7606  0.4955
  145MOL0     C19445   8.198   5.976   0.579 -0.4791  0.0256  0.3462
  145MOL0     C19446   8.063   5.999   0.612  0.4159  0.6923 -0.5802
  145MOL0     C19447   8.034   6.092   0.708 -0.1119  0.2500  0.5805
  145MOL0     O19448   7.909   6.110   0.763 -0.0560 -0.0843  0.2943
  145MOL0     C19449   7.803   6.018   0.765 -0.8595  0.3218  0.0220
  145MOL0     C19450   7.700   6.047   0.879  0.3685 -0.1118 -0.5821
  145MOL0     C19451   7.643   6.190   0.888 -0.0206  0.1247 -0.0674
  145MOL0     C19452   7.532   6.212   0.993  0.2411  0.3416 -0.2928
  145MOL0     C19453   7.477   6.349   1.003 -0.7326 -0.3732  0.2113
  145MOL0     C19454   7.397   6.379   1.137 -0.5803  0.1632  0.0226
  145MOL0     C19455   7.311   6.508   1.132  0.1928 -0.2770  0.2058
  145MOL0     C19456   7.210   6.511   1.252  1.1691  0.1558  0.2043
  145MOL0     N19457   7.112   6.613   1.223 -0.4736  0.4767  0.3412
  145MOL0     C19458   7.092   6.728   1.297  0.1564  0.0198 -0.9647
  145MOL0     C19459   6.982   6.788   1.244  0.2674  0.0711  0.5470
  145MOL0     C19460   6.944   6.934   1.284  0.0775 -0.2118  0.1610
  145MOL0     C19461   6.813   6.949   1.372 -0.5491 -0.2017 -0.3442
  145MOL0     C19462   6.682   6.904   1.309 -0.0456  0.8592  0.7942
  145MOL0     C19463   6.660   6.960   1.173 -0.1153  0.1313  0.4381
  145MOL0     O19464   6.522   6.929   1.152  0.0026 -0.2982  0.4404
  145MOL0     C19465   6.419   6.995   1.215  0.9193 -0.5557  0.0263
  145MOL0     C19466   6.300   6.924   1.217 -1.2350  0.9244  0.6720
  145MOL0     C19467   6.189   6.967   1.288  0.4999 -0.2530  0.8516
  145MOL0     C19468   6.079   6.866   1.282 -0.4895 -0.5044  0.5090
  145MOL0     C19469   6.193   7.096   1.352  0.1231  0.4244 -0.4725
  145MOL0     C19470   6.086   7.146   1.444  0.3385  0.5006  0.0252
  145MOL0     O19471   6.090   7.280   1.492  0.2480 -0.3832 -0.0672
  145MOL0     C19472   5.988   7.322   1.577  0.5434  0.0661 -0.0498
  145MOL0     C19473   5.987   7.287   1.714  0.5278 -0.1060  0.0696
  145MOL0     C19474   5.871   7.308   1.789 -0.5570  0.7699  0.0448
  145MOL0     C19475   5.761   7.382   1.733  0.2724  0.5923 -0.3209
  145MOL0     O19476   5.633   7.405   1.786 -0.3316 -0.6765 -0.0780
  145MOL0     C19477   5.623   7.441   1.929 -0.0273  0.4358 -0.0228
  145MOL0     C19478   5.534   7.334   1.995 -1.3512  0.0139 -0.5431
  145MOL0     C19479   5.418   7.276   1.921  0.5894  0.4018  0.4739
  145MOL0     C19480   5.312   7.221   2.002  0.3880 -0.4059 -0.1133
  145MOL0     C19481   5.239   7.107   1.931 -0.1541 -0.5694 -0.6422
  145MOL0     C19482   5.145   7.027   2.025 -0.3310  0.9593  0.1121
  145MOL0     C19483   5.049   6.939   1.940 -0.1184  0.5288  0.1321
  145MOL0     C19484   5.113   6.816   1.869  0.8368 -0.1781  0.2670
  145MOL0    Cl19485   5.002   6.753   1.748 -0.0416  0.4236  0.0861
  145MOL0     C19486   5.770   7.422   1.595  0.6538  0.3703 -0.6015
  145MOL0     C19487   5.887   7.400   1.519  0.6250  0.0355  0.1456
  145MOL0     O19488   6.003   7.064   1.473  0.6332 -0.1144 -0.0890
  145MOL0     C19489   6.303   7.181   1.323 -0.4904  0.2537 -0.3305
  145MOL0     C19490   6.414   7.128   1.258  0.3005 -0.1150  0.0984
  145MOL0     N19491   6.948   6.708   1.130  0.4359 -0.0738 -0.1732
  145MOL0     N19492   7.023   6.614   1.121 -0.7787 -0.9918 -0.1805
  145MOL0     C19493   8.130   6.166   0.766 -0.5010  0.3747  0.2562
  145MOL0     C19494   8.261   6.152   0.719  0.1669  0.4237 -0.0698
  145MOL0     C19495   8.654   5.991   0.624 -0.2716  0.3505 -0.8138
  145MOL0     C19496   8.703   6.070   0.516  0.6228  0.3472  0.4319
  145MOL0     C19497   8.845   6.078   0.498  0.4270  0.0086  0.0839
  145MOL0     C19498   8.937   6.010   0.580 -0.1661 -0.1944  0.6025
  145MOL0     O19499   9.070   6.031   0.563 -0.8095 -0.2428  0.6589
  145MOL0     C19500   9.150   6.066   0.681  0.1003 -0.1354 -0.6645
  145MOL0     C19501   9.292   6.031   0.640 -0.7825  0.5296  0.6566
  145MOL0     C19502   9.334   6.101   0.513  0.2950  0.6043  0.0532
  145MOL0     C19503   9.465   6.044   0.459 -0.1278  0.0685 -0.0004
  145MOL0     C19504   9.577   6.063   0.549 -0.1166 -0.3021 -0.0077
  145MOL0     C19505   9.667   6.073   0.631  0.2653  0.2191  0.4299
  145MOL0     C19506   8.887   5.940   0.686 -1.3155 -0.1851  0.6800
  145MOL0     C19507   8.752   5.926   0.701  1.0503  0.2727  0.0162
  145MOL0     H19508   8.241   5.907   0.507  1.5007  2.5816 -1.1200
  145MOL0     H19509   7.983   5.942   0.565  1.6492 -1.2919 -0.4270
  145MOL0     H19510   7.742   6.019   0.674 -0.5203 -0.3309 -0.2159
  145MOL0     H19511   7.847   5.918   0.772 -1.2385 -0.2193 -3.6878
  145MOL0     H19512   7.612   5.985   0.862  0.4351 -0.2862 -0.3093
  145MOL0     H19513   7.744   6.007   0.971 -0.3318 -1.9563 -1.0125
  145MOL0     H19514   7.726   6.261   0.896  0.5586 -0.6291  0.9596
  145MOL0     H19515   7.612   6.203   0.784  0.3296 -0.4778 -0.2491
  145MOL0     H19516   7.456   6.134   0.984 -0.0190  0.4040  1.1589
  145MOL0     H19517   7.566   6.182   1.092 -4.8379 -3.8572  0.6009
  145MOL0     H19518   7.552   6.428   0.990 -2.3736  0.8422 -3.1036
  145MOL0     H19519   7.403   6.365   0.923 -0.4882  1.6175  0.3227
  145MOL0     H19520   7.339   6.287   1.149 -1.7407  0.6829 -1.3916
  145MOL0     H19521   7.465   6.380   1.223 -0.2337 -0.5534 -0.2283
  145MOL0     H19522   7.375   6.596   1.122 -0.4679  0.5175  2.3578
  145MOL0     H19523   7.247   6.506   1.043 -1.6693 -1.6141  1.4853
  145MOL0     H19524   7.268   6.535   1.342  0.2071  1.5992  0.4666
  145MOL0     H19525   7.159   6.414   1.264 -0.5468  1.1349  1.2371
  145MOL0     H19526   7.148   6.757   1.385 -1.8475  0.5014  0.2031
  145MOL0     H19527   7.030   6.971   1.340 -1.0826  0.5857  1.4854
  145MOL0     H19528   6.927   6.992   1.193 -1.8464  0.0593  0.6504
  145MOL0     H19529   6.800   7.056   1.387 -2.4023 -0.6684  2.0084
  145MOL0     H19530   6.824   6.903   1.471 -1.8610  0.7285  0.2678
  145MOL0     H19531   6.598   6.918   1.377 -0.2017 -1.8193  1.2765
  145MOL0     H19532   6.682   6.796   1.290 -3.5218  0.8468  0.3230
  145MOL0     H19533   6.705   6.907   1.088 -0.9975  1.3499 -0.8377
  145MOL0     H19534   6.693   7.064   1.172  1.5846 -0.3476  1.9648
  145MOL0     H19535   6.305   6.828   1.167  1.8297  2.5676 -2.6277
  145MOL0     H19536   5.979   6.907   1.262 -0.4014  0.0695  1.2055
  145MOL0     H19537   6.102   6.781   1.216 -2.7732 -0.3565 -0.5917
  145MOL0     H19538   6.078   6.833   1.386 -1.3779  0.7276  0.9074
  145MOL0     H19539   6.064   7.222   1.755  2.4160  1.7077 -0.3874
  145MOL0     H19540   5.874   7.263   1.888  1.7865 -0.6135 -0.5915
  145MOL0     H19541   5.717   7.467   1.979 -1.1412 -0.5708  2.8125
  145MOL0     H19542   5.569   7.536   1.936 -2.3674 -0.8917  1.3417
  145MOL0     H19543   5.596   7.254   2.037 -1.6292  0.7894  1.4594
  145MOL0     H19544   5.499   7.385   2.085 -0.6948 -0.3253 -0.0881
  145MOL0     H19545   5.460   7.190   1.869 -0.1954  0.6351 -0.5584
  145MOL0     H19546   5.381   7.350   1.849 -0.1637 -2.3212 -2.1345
  145MOL0     H19547   5.346   7.186   2.100 -0.8765  0.1487  0.5547
  145MOL0     H19548   5.243   7.302   2.029  0.4841 -1.1842  2.7408
  145MOL0     H19549   5.314   7.035   1.897 -0.1933 -0.1837 -1.5725
  145MOL0     H19550   5.181   7.145   1.847 -1.0844 -0.5947 -0.0282
  145MOL0     H19551   5.195   6.955   2.090 -3.1020 -0.0394  1.2937
  145MOL0     H19552   5.095   7.095   2.094 -1.1010  0.5119  0.0056
  145MOL0     H19553   5.012   7.006   1.862  0.9223 -0.1802 -1.0207
  145MOL0     H19554   4.969   6.900   2.002 -0.6466  0.5829 -0.5047
  145MOL0     H19555   5.119   6.732   1.939  2.3123  2.4969  3.6646
  145MOL0     H19556   5.208   6.833   1.818  0.6262  2.3039  0.5435
  145MOL0     H19557   5.691   7.479   1.546 -0.0553  0.3359  0.4674
  145MOL0     H19558   5.903   7.418   1.413  2.3718  1.3393  0.5767
  145MOL0     H19559   6.310   7.279   1.369  1.9347 -0.0850  0.1610
  145MOL0     H19560   6.504   7.187   1.243 -0.1007  2.0874  4.7693
  145MOL0     H19561   8.114   6.226   0.855 -0.3211 -2.7964  2.5789
  145MOL0     H19562   8.341   6.218   0.749 -0.2371  0.3257  1.2597
  145MOL0     H19563   8.628   6.114   0.451  1.8990  0.7234 -0.8394
  145MOL0     H19564   8.888   6.130   0.413  2.0004 -1.2409  0.0575
  145MOL0     H19565   9.151   6.175   0.697  3.4516 -0.2777  1.1766
  145MOL0     H19566   9.119   6.023   0.776 -3.1746  0.5941 -1.3017
  145MOL0     H19567   9.305   5.923   0.645  0.6900  0.7461  3.6491
  145MOL0     H19568   9.370   6.055   0.713 -0.3216 -1.1254  0.7489
  145MOL0     H19569   9.346   6.209   0.527  0.8118  0.9185 -2.2680
  145MOL0     H19570   9.273   6.088   0.423  2.4341  1.3839 -1.6244
  145MOL0     H19571   9.491   6.093   0.364  0.7852 -0.6659 -0.1343
  145MOL0     H19572   9.452   5.937   0.442 -1.4594 -0.3847  3.1830
  145MOL0     H19573   9.758   6.071   0.688  1.7736 -0.9695 -1.8454
  145MOL0     H19574   8.953   5.909   0.767 -1.2840  1.4330  1.3275
  145MOL0     H19575   8.716   5.889   0.797 -1.1301  0.2053 -0.7921
  146MOL0     O19576   2.264   4.668  10.681  0.3174 -0.2158 -0.4485
  146MOL0     C19577   2.363   4.593  10.671 -0.4561  0.1718 -0.5775
  146MOL0     O19578   2.371   4.465  10.716  0.1393  0.8231  0.8625
  146MOL0     C19579   2.257   4.422  10.767  0.3848 -0.4989 -1.6184
  146MOL0     C19580   2.175   4.337  10.689 -0.0141 -0.5110 -0.7062
  146MOL0     C19581   2.059   4.283  10.743 -0.0869 -0.6145 -0.2166
  146MOL0     C19582   2.018   4.315  10.871  0.2282  0.3894 -0.5277
  146MOL0     O19583   1.890   4.270  10.906 -0.1588  0.1907 -0.3179
  146MOL0     C19584   1.814   4.361  10.993 -0.3663 -0.1072  0.1110
  146MOL0     C19585   1.672   4.312  10.995  0.4297 -0.1183  0.0614
  146MOL0     C19586   1.659   4.173  11.066  0.1456 -0.1812 -0.1139
  146MOL0     C19587   1.513   4.124  11.048 -0.5989  0.3778 -0.5727
  146MOL0     C19588   1.486   3.999  11.124 -0.9220  0.4765 -0.0793
  146MOL0     C19589   1.346   3.962  11.087 -0.3663  0.1308  0.0015
  146MOL0     C19590   1.307   3.830  11.163  0.7408 -0.1145 -0.5481
  146MOL0     C19591   1.174   3.764  11.100  0.2504 -0.7092 -0.8653
  146MOL0     N19592   1.064   3.869  11.116 -0.3467 -0.0363 -0.8435
  146MOL0     C19593   0.979   3.872  11.230  0.5730 -0.4662  0.2357
  146MOL0     C19594   0.893   3.976  11.196  0.7446 -0.7246 -0.9740
  146MOL0     C19595   0.783   4.023  11.287  0.3214  0.1103 -0.1285
  146MOL0     C19596   0.635   3.985  11.244  0.2495 -0.4907  0.1501
  146MOL0     C19597   0.516   4.069  11.317 -0.5755 -0.5075  1.1549
  146MOL0     C19598   0.510   4.212  11.260  0.3560 -0.4266  1.0767
  146MOL0     O19599   0.375   4.259  11.238  0.0297  0.1321  0.2135
  146MOL0     C19600   0.332   4.385  11.237 -0.0938  0.3393  0.3998
  146MOL0     C19601   0.200   4.417  11.246  1.2482  0.4177 -0.6225
  146MOL0     C19602   0.150   4.544  11.265  0.0344 -0.0403  0.5830
  146MOL0     C19603  -0.001   4.561  11.288  0.4332 -0.2921 -0.3622
  146MOL0     C19604   0.245   4.655  11.272  0.6873  0.6506  0.2905
  146MOL0     C19605   0.205   4.802  11.289 -0.2082  0.5216  0.5185
  146MOL0     O19606   0.309   4.885  11.261  0.3988 -0.5785 -0.6285
  146MOL0     C19607   0.300   5.027  11.292 -0.6492 -0.9697  1.0037
  146MOL0     C19608   0.354   5.116  11.204 -0.1782 -1.2694  0.7881
  146MOL0     C19609   0.346   5.251  11.217  0.6448 -0.4174  0.2401
  146MOL0     C19610   0.279   5.305  11.332  0.6272  0.3206 -0.1634
  146MOL0     O19611   0.289   5.439  11.368  0.6206 -0.3473 -0.8438
  146MOL0     C19612   0.379   5.465  11.476  0.9641 -0.2074  0.6793
  146MOL0     C19613   0.523   5.431  11.428 -0.1102  0.0542 -0.7933
  146MOL0     C19614   0.625   5.480  11.534 -0.5273  0.1017 -0.1187
  146MOL0     C19615   0.774   5.459  11.505  0.5433 -0.2266  0.6898
  146MOL0     C19616   0.833   5.317  11.492  0.1422 -0.2027 -0.2411
  146MOL0     C19617   0.985   5.325  11.518  0.7238  0.5159 -0.4610
  146MOL0     C19618   1.047   5.189  11.485  0.4163  0.2263 -0.5569
  146MOL0     C19619   1.189   5.221  11.444  1.2567 -1.1470 -0.2162
  146MOL0    Cl19620   1.299   5.081  11.460 -0.2926 -0.1845 -0.1451
  146MOL0     C19621   0.220   5.218  11.421  0.1527  0.1697 -0.0834
  146MOL0     C19622   0.236   5.077  11.407  0.5071  0.1372 -0.0056
  146MOL0     O19623   0.090   4.841  11.325 -0.3902  0.1452  0.2043
  146MOL0     C19624   0.378   4.626  11.250 -0.2134  0.1312  0.0623
  146MOL0     C19625   0.424   4.491  11.232  0.1051  0.2695 -0.7740
  146MOL0     N19626   0.918   4.019  11.063  0.9368  0.3928 -0.2792
  146MOL0     N19627   1.020   3.956  11.022  0.2874 -0.9377 -0.6494
  146MOL0     C19628   2.090   4.414  10.948 -0.8541  0.2763 -0.1940
  146MOL0     C19629   2.209   4.466  10.897 -0.4845 -1.1307 -0.1492
  146MOL0     C19630   2.486   4.652  10.618 -0.1987  0.4068 -0.1071
  146MOL0     C19631   2.494   4.796  10.601  1.5491  0.5257  0.2945
  146MOL0     C19632   2.609   4.851  10.556 -0.5047 -0.6599 -0.4540
  146MOL0     C19633   2.726   4.773  10.528 -0.2258  0.2120 -0.5622
  146MOL0     O19634   2.835   4.832  10.475  0.6950 -0.0620 -0.8230
  146MOL0     C19635   2.855   4.974  10.508 -0.0475  0.0722  0.7642
  146MOL0     C19636   2.994   5.020  10.471  0.0623 -0.2353  0.3337
  146MOL0     C19637   3.096   4.953  10.562  0.0515  0.1493 -0.3320
  146MOL0     C19638   3.116   5.033  10.689 -0.3859 -0.7497  0.0714
  146MOL0     C19639   3.224   4.981  10.773 -0.1720 -0.5270  0.2829
  146MOL0     C19640   3.308   4.956  10.864  0.0952  0.6839  0.7615
  146MOL0     C19641   2.705   4.633  10.529  0.2305 -0.2008 -0.5072
  146MOL0     C19642   2.589   4.571  10.571  0.2775  0.3415 -0.6018
  146MOL0     H19643   2.205   4.328  10.585  1.0306 -0.0031 -0.4701
  146MOL0     H19644   1.993   4.220  10.683  0.2354 -0.5474 -0.6386
  146MOL0     H19645   1.851   4.333  11.092  0.1274 -1.0152 -0.3110
  146MOL0     H19646   1.828   4.467  10.969 -3.1545  0.0848 -1.0626
  146MOL0     H19647   1.617   4.393  11.043  2.2544  1.5360 -0.5087
  146MOL0     H19648   1.642   4.294  10.891 -1.0053  1.7767  0.1024
  146MOL0     H19649   1.734   4.106  11.022  0.4560 -0.5802  0.9902
  146MOL0     H19650   1.686   4.189  11.170 -0.2551 -0.0619 -0.0272
  146MOL0     H19651   1.447   4.199  11.093  0.4802  1.0022  0.0075
  146MOL0     H19652   1.489   4.118  10.942  1.0787  1.2151 -1.0347
  146MOL0     H19653   1.562   3.925  11.098 -1.3004 -0.5554  1.6469
  146MOL0     H19654   1.479   4.015  11.232  2.1614 -3.3054  0.9002
  146MOL0     H19655   1.280   4.045  11.114 -1.1949 -0.2103 -0.8894
  146MOL0     H19656   1.332   3.949  10.979 -4.5562  1.4375  0.2092
  146MOL0     H19657   1.383   3.752  11.156 -0.1294 -0.9803 -0.6260
  146MOL0     H19658   1.297   3.853  11.270  1.8003  4.2431 -1.2219
  146MOL0     H19659   1.145   3.670  11.148  1.0634  1.3790  4.3271
  146MOL0     H19660   1.188   3.736  10.995 -2.1732 -2.1716 -0.8977
  146MOL0     H19661   0.976   3.815  11.323 -0.2770 -1.4149 -0.3571
  146MOL0     H19662   0.804   3.988  11.388  0.1772 -0.8179 -0.4086
  146MOL0     H19663   0.788   4.132  11.292 -0.0103  0.0870  0.8856
  146MOL0     H19664   0.624   3.881  11.276  2.9897 -0.6675  0.7537
  146MOL0     H19665   0.625   3.986  11.135 -0.7733 -0.4367  0.2365
  146MOL0     H19666   0.500   4.071  11.425 -0.0676 -2.6079  1.3192
  146MOL0     H19667   0.425   4.018  11.281 -1.9151  1.6786  1.2939
  146MOL0     H19668   0.569   4.214  11.168  1.0302 -2.9721  1.3939
  146MOL0     H19669   0.565   4.286  11.319 -1.9887  3.4678 -1.2017
  146MOL0     H19670   0.130   4.334  11.244  3.2050 -1.3459  0.6300
  146MOL0     H19671  -0.023   4.551  11.395 -1.1697  0.1788 -0.6114
  146MOL0     H19672  -0.044   4.657  11.259 -2.4616 -0.6284  2.2110
  146MOL0     H19673  -0.056   4.480  11.239 -1.4766  1.0461 -0.5695
  146MOL0     H19674   0.406   5.079  11.116 -0.2194  1.5754 -0.5385
  146MOL0     H19675   0.394   5.317  11.146 -0.7523  1.4792  0.9746
  146MOL0     H19676   0.369   5.570  11.503 -0.1685  0.0655 -0.6828
  146MOL0     H19677   0.347   5.400  11.558  4.0726 -2.1984  0.5021
  146MOL0     H19678   0.528   5.321  11.421 -0.5822 -0.0689  0.5448
  146MOL0     H19679   0.543   5.482  11.334  0.4433 -0.0430 -0.7325
  146MOL0     H19680   0.599   5.433  11.630 -0.1958  0.3272  0.0808
  146MOL0     H19681   0.618   5.586  11.557 -0.4658 -0.1619  1.2079
  146MOL0     H19682   0.794   5.504  11.408  2.4763  0.6356  1.4171
  146MOL0     H19683   0.828   5.507  11.587  0.5970 -1.5539  1.4711
  146MOL0     H19684   0.810   5.278  11.393  2.4661 -1.0218 -0.5288
  146MOL0     H19685   0.786   5.252  11.567 -0.2874 -0.3671 -0.6484
  146MOL0     H19686   1.020   5.404  11.450 -2.2381  0.6523 -2.0333
  146MOL0     H19687   1.021   5.355  11.616  1.5880  0.9608 -0.9061
  146MOL0     H19688   0.998   5.125  11.411  0.5730  0.6877 -1.0649
  146MOL0     H19689   1.056   5.135  11.580 -2.7173  0.5778  0.0385
  146MOL0     H19690   1.226   5.312  11.493 -2.1208  0.2232  0.0833
  146MOL0     H19691   1.185   5.260  11.342  1.2876 -0.6170 -0.0202
  146MOL0     H19692   0.168   5.261  11.507 -0.3701  2.6449 -1.5257
  146MOL0     H19693   0.197   5.028  11.496  1.7069 -4.4493 -1.7532
  146MOL0     H19694   0.453   4.704  11.240 -0.2417  0.0242 -1.2178
  146MOL0     H19695   0.528   4.466  11.216  0.6822  1.2612  1.1810
  146MOL0     H19696   2.058   4.446  11.046  0.4742 -0.9528  0.6904
  146MOL0     H19697   2.269   4.532  10.958 -2.1256  1.8948 -1.5801
  146MOL0     H19698   2.399   4.844  10.625  0.5854  0.3513 -2.7547
  146MOL0     H19699   2.591   4.957  10.541 -2.4606 -0.6681  1.4597
  146MOL0     H19700   2.787   5.033  10.446  1.7106  0.5956 -0.7840
  146MOL0     H19701   2.830   5.011  10.608  0.9282 -0.4018  1.1937
  146MOL0     H19702   2.999   5.129  10.478  2.6885 -0.1831 -0.8803
  146MOL0     H19703   3.012   4.990  10.367  0.0025 -0.1399  0.2952
  146MOL0     H19704   3.186   4.940  10.501  0.5818  0.8124  0.2955
  146MOL0     H19705   3.057   4.855  10.592 -0.4626  0.4451 -0.0306
  146MOL0     H19706   3.026   5.038  10.751 -1.0942 -1.4793 -0.8591
  146MOL0     H19707   3.144   5.135  10.664  0.2315 -0.8199  0.4662
  146MOL0     H19708   3.376   4.934  10.944  2.4260 -0.0547 -1.2877
  146MOL0     H19709   2.795   4.578  10.505  0.6034  0.9407 -1.8450
  146MOL0     H19710   2.583   4.463  10.561 -4.6138  0.3197  0.4770
  147MOL0     O19711   5.598   9.226  10.592 -0.3408  0.3998  0.1634
  147MOL0     C19712   5.615   9.225  10.714 -0.5379  0.4217  0.5044
  147MOL0     O19713   5.514   9.248  10.794 -0.0432 -0.1966 -0.1058
  147MOL0     C19714   5.386   9.214  10.753 -1.2822 -0.1471  0.2638
  147MOL0     C19715   5.360   9.086  10.699  0.2030  0.6263  1.0463
  147MOL0     C19716   5.223   9.052  10.683  0.0555 -0.7772  0.4434
  147MOL0     C19717   5.125   9.146  10.691 -0.2595 -0.6603 -0.2095
  147MOL0     O19718   4.996   9.124  10.651  0.6255 -0.2193  0.0811
  147MOL0     C19719   4.950   8.993  10.642  0.6728  0.0771 -0.8890
  147MOL0     C19720   4.796   8.991  10.641  0.9346  0.9364 -0.4382
  147MOL0     C19721   4.716   9.067  10.754 -0.0951  0.0027 -0.0730
  147MOL0     C19722   4.580   9.098  10.712  0.3519 -0.3280 -0.4960
  147MOL0     C19723   4.494   9.183  10.806 -0.9922  0.1522  0.3385
  147MOL0     C19724   4.419   9.101  10.923 -0.3335  0.1486  0.2812
  147MOL0     C19725   4.313   9.190  10.995 -0.1900  0.0102  0.3135
  147MOL0     C19726   4.187   9.216  10.902 -0.1398  0.3110 -0.7123
  147MOL0     N19727   4.073   9.248  10.992 -0.6644  0.1481  0.9158
  147MOL0     C19728   4.039   9.189  11.116 -0.6269  1.1197 -0.1196
  147MOL0     C19729   3.945   9.275  11.166  0.8024  0.6087 -0.4290
  147MOL0     C19730   3.858   9.257  11.292  0.7043 -0.4703  0.1362
  147MOL0     C19731   3.937   9.194  11.416  0.2723  0.9200  0.5328
  147MOL0     C19732   4.064   9.269  11.451  0.6554  0.0780  0.5303
  147MOL0     C19733   4.034   9.406  11.505  0.1324 -0.8707 -0.3160
  147MOL0     O19734   3.952   9.408  11.623 -0.2707 -0.0282 -0.1936
  147MOL0     C19735   3.844   9.493  11.629  0.7353 -0.2212  0.1493
  147MOL0     C19736   3.841   9.619  11.575 -0.8963  0.3630  0.2738
  147MOL0     C19737   3.739   9.708  11.575  0.4815  0.0498 -0.2174
  147MOL0     C19738   3.760   9.846  11.516 -0.5134  0.5600 -0.1035
  147MOL0     C19739   3.614   9.664  11.638 -0.4930  0.0878  0.1784
  147MOL0     C19740   3.497   9.743  11.641  0.8231  0.3396 -0.4692
  147MOL0     O19741   3.476   9.844  11.556  0.3149  0.7791  0.0682
  147MOL0     C19742   3.351   9.906  11.555 -0.5217  0.1526  0.1679
  147MOL0     C19743   3.221   9.845  11.540  0.3513  0.2147 -0.7269
  147MOL0     C19744   3.103   9.911  11.498 -0.4219 -0.0919  0.2674
  147MOL0     C19745   3.111  10.051  11.488  0.1058  0.1909  0.6295
  147MOL0     O19746   3.010  10.129  11.453 -0.0635  0.1473  0.5357
  147MOL0     C19747   2.892  10.098  11.518  0.3932 -0.1947 -0.1291
  147MOL0     C19748   2.768  10.154  11.459 -0.3534 -0.1675 -0.5571
  147MOL0     C19749   2.757  10.091  11.320  0.1512 -0.4226  0.4996
  147MOL0     C19750   2.626  10.128  11.254  0.1498  0.3751  0.8025
  147MOL0     C19751   2.625  10.106  11.096 -0.6333 -0.2583 -0.3621
  147MOL0     C19752   2.709  10.215  11.031 -0.1584 -0.1727 -0.0045
  147MOL0     C19753   2.702  10.195  10.882 -0.6646  0.8629  0.3751
  147MOL0     C19754   2.778  10.314  10.829  0.0239 -0.2986 -0.0462
  147MOL0    Cl19755   2.958  10.303  10.851 -0.0395 -0.4405  0.1190
  147MOL0     C19756   3.228  10.113  11.516 -0.6235 -0.2883 -0.5390
  147MOL0     C19757   3.353  10.044  11.541  0.6221 -0.7460 -1.0250
  147MOL0     O19758   3.409   9.692  11.712  0.4620  0.8303  0.3168
  147MOL0     C19759   3.611   9.533  11.685  0.4759  0.3831  0.0913
  147MOL0     C19760   3.725   9.452  11.685 -0.4248 -0.6749 -0.3614
  147MOL0     N19761   3.928   9.381  11.071  0.0406 -0.5579 -0.3193
  147MOL0     N19762   4.005   9.366  10.975 -0.3605 -0.4649 -0.2825
  147MOL0     C19763   5.152   9.272  10.730 -0.6404  0.6056  0.1369
  147MOL0     C19764   5.283   9.302  10.774 -0.5725 -0.1442 -0.5377
  147MOL0     C19765   5.746   9.190  10.768 -0.6102 -0.8910 -0.5884
  147MOL0     C19766   5.868   9.202  10.686  0.6936  0.2828  0.4366
  147MOL0     C19767   5.992   9.178  10.742 -0.7302  0.1037 -0.4865
  147MOL0     C19768   5.996   9.124  10.871 -0.0297 -1.0249 -0.8705
  147MOL0     O19769   6.109   9.091  10.943  0.2789 -0.1202 -0.4689
  147MOL0     C19770   6.238   9.138  10.888  0.6801 -0.5797  0.7679
  147MOL0     C19771   6.346   9.107  10.994 -0.0721  0.5349 -0.4914
  147MOL0     C19772   6.487   9.144  10.950 -0.2372 -0.0078  1.1881
  147MOL0     C19773   6.593   9.089  11.044  0.1544 -0.5679  0.5790
  147MOL0     C19774   6.582   9.182  11.157 -0.1206  0.2080 -0.5098
  147MOL0     C19775   6.580   9.263  11.249 -0.1050  0.3824  0.0874
  147MOL0     C19776   5.880   9.118  10.945  0.1511 -0.4273  0.6311
  147MOL0     C19777   5.758   9.162  10.901 -0.3140 -0.2310 -0.6032
  147MOL0     H19778   5.436   9.011  10.677 -1.2900 -0.6046 -0.2190
  147MOL0     H19779   5.204   8.948  10.659 -1.7243 -1.4046  3.9634
  147MOL0     H19780   5.001   8.936  10.564 -1.4126 -0.0888 -2.1950
  147MOL0     H19781   4.974   8.948  10.739 -1.1683 -1.7453 -1.2061
  147MOL0     H19782   4.744   9.007  10.546  1.6636  1.1686 -0.8059
  147MOL0     H19783   4.774   8.885  10.658 -0.7935  1.0792 -1.5993
  147MOL0     H19784   4.706   9.005  10.844  1.2013  0.9464  0.7465
  147MOL0     H19785   4.767   9.155  10.793 -1.0461 -0.2244  1.8157
  147MOL0     H19786   4.592   9.142  10.613  0.6195  1.4368  0.2737
  147MOL0     H19787   4.523   9.008  10.685 -0.7984  0.6178 -1.3533
  147MOL0     H19788   4.555   9.268  10.837  0.5906 -1.7208  2.7394
  147MOL0     H19789   4.413   9.224  10.744 -1.0120 -1.5961 -0.8733
  147MOL0     H19790   4.369   9.015  10.879 -2.4071  1.7985 -0.7325
  147MOL0     H19791   4.493   9.071  10.998 -1.8425 -2.5706  0.8163
  147MOL0     H19792   4.285   9.138  11.087  2.7350 -0.5636  0.9715
  147MOL0     H19793   4.361   9.286  11.012 -0.8416  0.6945 -1.4478
  147MOL0     H19794   4.158   9.130  10.841 -3.2396 -0.7848  2.0182
  147MOL0     H19795   4.202   9.286  10.820 -0.5196 -1.3356 -2.2648
  147MOL0     H19796   4.078   9.097  11.159 -1.2850  0.6340 -0.5498
  147MOL0     H19797   3.816   9.348  11.336  2.6322  0.5118  0.0725
  147MOL0     H19798   3.788   9.178  11.268  0.6771 -0.2893 -0.3854
  147MOL0     H19799   3.974   9.091  11.403 -0.8364  0.7318 -1.4562
  147MOL0     H19800   3.872   9.182  11.503  0.3622  0.8449  0.5912
  147MOL0     H19801   4.125   9.275  11.360 -1.0076  3.2731 -0.5101
  147MOL0     H19802   4.112   9.201  11.522  2.4050  0.9739  0.2799
  147MOL0     H19803   4.004   9.469  11.420  2.9374 -0.9359 -1.4894
  147MOL0     H19804   4.128   9.458  11.524  1.8851 -2.8341 -2.9380
  147MOL0     H19805   3.933   9.663  11.537 -0.1278 -0.4263  1.1536
  147MOL0     H19806   3.683   9.915  11.552 -1.0922 -0.4750  0.6829
  147MOL0     H19807   3.860   9.885  11.533 -0.1342 -0.6304  0.4973
  147MOL0     H19808   3.738   9.838  11.409 -2.3684  1.4990  0.1721
  147MOL0     H19809   3.217   9.737  11.526  1.0475 -0.0963  1.1661
  147MOL0     H19810   3.012   9.866  11.459 -0.6804  0.4166  0.2757
  147MOL0     H19811   2.885   9.992  11.544  1.1554 -0.2875 -0.2748
  147MOL0     H19812   2.907  10.147  11.614 -0.0148  1.5803 -0.9344
  147MOL0     H19813   2.680  10.134  11.521 -1.6348 -0.5295 -2.3759
  147MOL0     H19814   2.781  10.262  11.464 -1.4404 -0.0903  1.1711
  147MOL0     H19815   2.764   9.982  11.315  2.6709 -0.2513 -1.9228
  147MOL0     H19816   2.842  10.118  11.257  0.3564  0.1197  1.0015
  147MOL0     H19817   2.541  10.078  11.300 -0.5942 -0.1732 -1.0534
  147MOL0     H19818   2.617  10.235  11.271  2.1822  0.4940  1.3702
  147MOL0     H19819   2.521  10.106  11.064 -0.7740 -2.3773 -0.0548
  147MOL0     H19820   2.671  10.010  11.071  2.9104  1.3199 -0.5171
  147MOL0     H19821   2.660  10.306  11.068  2.3416  0.2647  2.5470
  147MOL0     H19822   2.809  10.235  11.069 -1.3357 -1.1258  4.0286
  147MOL0     H19823   2.601  10.205  10.842 -0.3378  0.7890 -0.4863
  147MOL0     H19824   2.747  10.098  10.861 -0.6663  0.9212  0.0997
  147MOL0     H19825   2.746  10.405  10.881 -1.3212 -0.0318 -1.2757
  147MOL0     H19826   2.760  10.327  10.722 -0.0343  0.5805  0.0588
  147MOL0     H19827   3.211  10.217  11.489 -0.8677  0.2297  1.4642
  147MOL0     H19828   3.455  10.081  11.544  0.5523 -0.5843 -0.5383
  147MOL0     H19829   3.517   9.491  11.719  0.1164 -0.1283 -1.4584
  147MOL0     H19830   3.715   9.348  11.715 -0.3241 -0.5010  0.2799
  147MOL0     H19831   5.069   9.342  10.732 -1.0162  0.1558  0.3341
  147MOL0     H19832   5.296   9.401  10.817 -1.1536 -0.9400  1.5750
  147MOL0     H19833   5.848   9.230  10.583  0.8863 -1.7061 -0.1873
  147MOL0     H19834   6.082   9.208  10.689  1.0390  0.2452  2.3384
  147MOL0     H19835   6.256   9.075  10.800 -2.9562  2.8033 -2.8494
  147MOL0     H19836   6.230   9.241  10.851 -1.4455 -0.9900 -0.0818
  147MOL0     H19837   6.348   9.000  11.018  2.0883  0.9332  1.5548
  147MOL0     H19838   6.317   9.154  11.089 -1.0170 -0.6202 -0.1837
  147MOL0     H19839   6.493   9.252  10.931  4.0056 -0.1703  0.6047
  147MOL0     H19840   6.500   9.110  10.847 -3.7558  1.6951  0.0095
  147MOL0     H19841   6.695   9.086  11.004 -0.6059 -0.4369 -1.4515
  147MOL0     H19842   6.566   8.984  11.062 -0.5058 -0.5424 -0.2377
  147MOL0     H19843   6.578   9.335  11.328 -0.8245 -1.0499  1.4292
  147MOL0     H19844   5.873   9.082  11.047  0.3749  2.0895  1.6075
  147MOL0     H19845   5.681   9.164  10.977  2.9324 -1.9253  3.0549
  148MOL0     O19846   3.154   5.914   5.639 -0.1404  0.0597  0.3185
  148MOL0     C19847   3.162   5.953   5.760 -0.0228  0.0237  0.0940
  148MOL0     O19848   3.067   6.019   5.837  0.4275  0.3178  0.5547
  148MOL0     C19849   2.939   6.029   5.799  1.3053 -0.3465 -0.3862
  148MOL0     C19850   2.864   6.104   5.891  0.0691  0.1820 -0.2256
  148MOL0     C19851   2.725   6.131   5.875 -0.1161  0.0732  0.2268
  148MOL0     C19852   2.653   6.079   5.767 -0.7796  0.1760 -0.5295
  148MOL0     O19853   2.522   6.109   5.726 -0.1016 -0.2966  0.3959
  148MOL0     C19854   2.464   6.224   5.772 -0.0149 -0.1137  0.2258
  148MOL0     C19855   2.327   6.222   5.701  0.1085 -0.2608  0.3353
  148MOL0     C19856   2.252   6.348   5.744  0.0372  0.1437 -0.4484
  148MOL0     C19857   2.116   6.350   5.672 -0.4322 -0.0166  0.1189
  148MOL0     C19858   2.035   6.477   5.710  0.0655  0.4925 -0.5832
  148MOL0     C19859   1.904   6.480   5.636 -0.1993  0.2229 -0.1176
  148MOL0     C19860   1.825   6.607   5.652 -1.0801 -0.3489  0.8336
  148MOL0     C19861   1.680   6.604   5.589  0.6788 -0.6853  0.4934
  148MOL0     N19862   1.620   6.733   5.627  0.0725 -0.3097  0.0159
  148MOL0     C19863   1.662   6.854   5.588  0.5349 -0.7178  0.0961
  148MOL0     C19864   1.571   6.939   5.640  0.0218  0.1436  0.7458
  148MOL0     C19865   1.577   7.086   5.606 -0.7407  0.2047 -0.0619
  148MOL0     C19866   1.592   7.167   5.725  1.2672 -0.1778  0.3919
  148MOL0     C19867   1.470   7.241   5.773  0.3381 -0.3861  0.2969
  148MOL0     C19868   1.345   7.159   5.804  0.0390  0.3994 -0.2634
  148MOL0     O19869   1.237   7.244   5.868 -0.0865  0.0410 -0.1664
  148MOL0     C19870   1.121   7.270   5.802 -0.4043  1.1808  0.2793
  148MOL0     C19871   0.997   7.292   5.869  0.3531  0.6281 -0.3305
  148MOL0     C19872   0.875   7.295   5.810 -0.0684 -0.1028 -0.3906
  148MOL0     C19873   0.759   7.329   5.897  0.5187  0.3335 -0.2387
  148MOL0     C19874   0.868   7.296   5.670  0.5215  0.0682  0.7581
  148MOL0     C19875   0.745   7.316   5.585 -0.6498 -0.5837  0.4858
  148MOL0     O19876   0.759   7.305   5.444  0.0636 -0.6384  0.7523
  148MOL0     C19877   0.658   7.280   5.360  0.5197 -0.1397 -0.6270
  148MOL0     C19878   0.562   7.180   5.407 -0.0380  0.4480 -0.2260
  148MOL0     C19879   0.463   7.135   5.322 -0.2294  0.3718  0.9357
  148MOL0     C19880   0.460   7.179   5.190 -0.1621  0.1950  1.0023
  148MOL0     O19881   0.367   7.146   5.096  0.4412  0.1402 -0.4385
  148MOL0     C19882   0.248   7.083   5.133 -0.3993 -0.0253 -0.5763
  148MOL0     C19883   0.166   7.047   5.013 -0.2920 -0.4600 -0.2810
  148MOL0     C19884   0.100   7.175   4.951  0.0099 -0.1367 -0.3219
  148MOL0     C19885   0.073   7.303   5.034  0.4938  0.5399  0.7972
  148MOL0     C19886   0.008   7.420   4.951 -0.9254 -1.4963 -0.2766
  148MOL0     C19887  -0.116   7.397   4.873  0.2592 -0.2822  0.3437
  148MOL0     C19888  -0.149   7.515   4.771 -0.7752  1.1915  0.3329
  148MOL0     C19889  -0.302   7.528   4.752 -0.3401  0.0198 -0.1269
  148MOL0    Cl19890  -0.378   7.606   4.894  0.2293  0.4076  0.0271
  148MOL0     C19891   0.549   7.275   5.144 -0.6250 -0.2113 -0.0040
  148MOL0     C19892   0.655   7.315   5.227  0.0838 -1.0606  0.1042
  148MOL0     O19893   0.640   7.341   5.635 -0.5756  0.6482 -0.5381
  148MOL0     C19894   0.990   7.298   5.595  0.4396 -0.8764  0.2843
  148MOL0     C19895   1.116   7.280   5.661 -0.3974  0.3265 -0.0069
  148MOL0     N19896   1.482   6.871   5.715 -0.2984 -0.3374 -0.2646
  148MOL0     N19897   1.508   6.746   5.698 -0.0033  0.9054  0.5066
  148MOL0     C19898   2.721   5.988   5.680 -0.0531 -0.6242  0.1173
  148MOL0     C19899   2.859   5.966   5.698  0.3336  0.6655  0.4090
  148MOL0     C19900   3.291   5.917   5.835 -0.5358 -0.5553 -0.3833
  148MOL0     C19901   3.404   5.871   5.764 -0.1430  0.3023 -0.4875
  148MOL0     C19902   3.518   5.824   5.832 -0.4280 -0.4518  0.4983
  148MOL0     C19903   3.527   5.842   5.970  0.1921  0.1538 -0.7902
  148MOL0     O19904   3.640   5.800   6.037 -0.1337 -0.2663 -0.1545
  148MOL0     C19905   3.760   5.838   5.978 -0.1539 -0.3103  0.8025
  148MOL0     C19906   3.829   5.709   5.925 -0.3297 -0.3494  0.2948
  148MOL0     C19907   3.871   5.627   6.054 -0.0231  0.1175  0.4461
  148MOL0     C19908   3.950   5.496   6.019  0.8245  0.2067 -0.1762
  148MOL0     C19909   4.091   5.519   6.011 -0.4451 -0.1364 -0.1465
  148MOL0     C19910   4.215   5.530   6.013  0.0543 -0.7465  0.2671
  148MOL0     C19911   3.417   5.892   6.043 -0.2516  0.0545  0.0936
  148MOL0     C19912   3.299   5.924   5.978  0.3637  0.1635 -0.1956
  148MOL0     H19913   2.908   6.138   5.985 -1.0327  0.9257  0.0427
  148MOL0     H19914   2.670   6.189   5.948  0.1916 -1.4283  1.6955
  148MOL0     H19915   2.451   6.224   5.881 -3.5135 -1.6758 -0.0397
  148MOL0     H19916   2.529   6.311   5.758 -1.3047  0.7918 -0.3075
  148MOL0     H19917   2.338   6.205   5.593  0.3478  2.4268 -0.1315
  148MOL0     H19918   2.263   6.147   5.748  1.3138  0.3120  3.0688
  148MOL0     H19919   2.230   6.349   5.851  1.5235  1.6027 -0.1130
  148MOL0     H19920   2.305   6.443   5.729 -0.2515  0.0422 -2.3984
  148MOL0     H19921   2.130   6.344   5.564 -0.5535 -1.1727  0.1608
  148MOL0     H19922   2.060   6.261   5.702 -1.2739  0.4794  0.0436
  148MOL0     H19923   2.022   6.474   5.818  2.3990 -1.9514 -0.2748
  148MOL0     H19924   2.105   6.559   5.688 -0.0754  0.6919 -0.2909
  148MOL0     H19925   1.908   6.473   5.527 -0.8314  2.1217 -0.2999
  148MOL0     H19926   1.857   6.391   5.679  0.9158  1.0427  3.1362
  148MOL0     H19927   1.814   6.611   5.761 -3.1444  0.0032  0.6455
  148MOL0     H19928   1.886   6.688   5.612  0.4400 -1.6880  0.3224
  148MOL0     H19929   1.624   6.519   5.628  2.3290 -1.6703  0.7903
  148MOL0     H19930   1.675   6.597   5.480  2.1664 -1.6000  0.4562
  148MOL0     H19931   1.751   6.886   5.536  1.9625 -0.9379  2.2798
  148MOL0     H19932   1.672   7.087   5.551 -0.8402 -1.0480 -0.2962
  148MOL0     H19933   1.495   7.116   5.540 -1.5196  2.0795  1.6826
  148MOL0     H19934   1.669   7.242   5.701  0.1571  0.7969 -0.2021
  148MOL0     H19935   1.623   7.112   5.814  0.6861  2.4455  2.3210
  148MOL0     H19936   1.440   7.314   5.697  1.4095  0.7427  0.9145
  148MOL0     H19937   1.509   7.290   5.863 -0.2877  0.0938  0.3172
  148MOL0     H19938   1.367   7.074   5.869 -0.1531  0.3127 -0.3105
  148MOL0     H19939   1.299   7.110   5.718 -0.1714  0.8730 -0.4235
  148MOL0     H19940   1.008   7.308   5.976  1.0788  1.1216 -0.4690
  148MOL0     H19941   0.670   7.271   5.868 -1.7200  1.6006  3.4185
  148MOL0     H19942   0.777   7.296   6.000 -1.7660 -0.9065 -0.1594
  148MOL0     H19943   0.741   7.436   5.891  1.9378  0.5273 -2.0983
  148MOL0     H19944   0.569   7.129   5.502 -1.6176  2.1546  0.8846
  148MOL0     H19945   0.392   7.060   5.355 -0.0219  0.1535  0.8951
  148MOL0     H19946   0.275   6.988   5.180 -1.1018 -0.0037 -0.1113
  148MOL0     H19947   0.188   7.145   5.201  0.9206  1.0192 -0.3249
  148MOL0     H19948   0.226   6.992   4.940  2.6910 -1.0093  2.3615
  148MOL0     H19949   0.088   6.975   5.038  2.1799 -3.8960 -1.7365
  148MOL0     H19950   0.001   7.153   4.908 -1.2248  3.4911  0.3297
  148MOL0     H19951   0.145   7.204   4.856  0.0548 -3.9138 -1.6392
  148MOL0     H19952   0.013   7.276   5.122  1.1557  0.6122  1.2739
  148MOL0     H19953   0.164   7.352   5.069  0.5602  2.0721 -1.3158
  148MOL0     H19954   0.081   7.461   4.880 -0.4363  0.1183  1.0920
  148MOL0     H19955  -0.021   7.501   5.017 -1.8957  0.2582 -2.7006
  148MOL0     H19956  -0.123   7.300   4.823 -0.4352 -0.1954  0.2504
  148MOL0     H19957  -0.202   7.391   4.942 -0.1718 -1.0260 -0.2422
  148MOL0     H19958  -0.094   7.496   4.678 -0.6138  1.3255  0.3997
  148MOL0     H19959  -0.105   7.606   4.813 -1.4166  1.6718 -0.0282
  148MOL0     H19960  -0.347   7.430   4.738 -2.2609  0.8552 -0.0307
  148MOL0     H19961  -0.314   7.582   4.658  1.5957 -0.3495 -0.6450
  148MOL0     H19962   0.548   7.309   5.041  0.0286  1.1289  0.4121
  148MOL0     H19963   0.734   7.380   5.192  2.0076 -2.3851  1.7469
  148MOL0     H19964   0.988   7.315   5.488 -1.2449 -2.0850  0.0777
  148MOL0     H19965   1.203   7.278   5.597 -1.5381  3.0660 -1.8219
  148MOL0     H19966   2.676   5.953   5.588  1.3821  0.6545 -1.1273
  148MOL0     H19967   2.897   5.895   5.626  2.2810 -2.0721  3.8479
  148MOL0     H19968   3.397   5.858   5.657  0.5681  0.7247 -0.5922
  148MOL0     H19969   3.594   5.775   5.771  0.7828 -0.1865  1.7478
  148MOL0     H19970   3.742   5.911   5.898  1.3615 -0.4373  0.3119
  148MOL0     H19971   3.834   5.879   6.047  1.3521  0.1466 -0.9769
  148MOL0     H19972   3.912   5.736   5.859 -0.4293 -0.9190 -0.0659
  148MOL0     H19973   3.764   5.648   5.862  2.0982 -1.8433 -0.9093
  148MOL0     H19974   3.778   5.592   6.100 -1.2122  2.3831 -0.0766
  148MOL0     H19975   3.919   5.688   6.131 -1.2940  2.2084 -0.3222
  148MOL0     H19976   3.914   5.458   5.923  1.8123 -2.2705  0.3306
  148MOL0     H19977   3.933   5.415   6.091  0.0202  1.3014  0.9000
  148MOL0     H19978   4.320   5.542   6.026 -0.1324  0.6441  0.6867
  148MOL0     H19979   3.419   5.895   6.152 -0.2252 -0.2924  0.1051
  148MOL0     H19980   3.215   5.950   6.040 -0.0916 -2.9775  0.6761
  149MOL0     O19981   5.478   0.730  10.384 -0.3778 -0.0717  0.4498
  149MOL0     C19982   5.571   0.757  10.305  0.3607  0.1728  0.1248
  149MOL0     O19983   5.562   0.798  10.174  0.1037 -0.2487 -0.3832
  149MOL0     C19984   5.448   0.836  10.115  0.3872 -0.5081  0.7657
  149MOL0     C19985   5.315   0.786  10.141  0.0045 -0.4181  0.1194
  149MOL0     C19986   5.199   0.838  10.074  0.4535 -0.2037  0.3717
  149MOL0     C19987   5.227   0.924   9.967  0.0234 -0.0472  0.4435
  149MOL0     O19988   5.119   0.991   9.907  0.2813 -0.0281  0.0250
  149MOL0     C19989   5.111   1.134   9.934  0.0028 -0.3435 -0.2963
  149MOL0     C19990   4.975   1.147  10.006  0.5043 -0.1181 -0.0048
  149MOL0     C19991   4.904   1.281   9.991  0.0479  0.4217  0.4100
  149MOL0     C19992   4.936   1.374  10.112 -0.0069 -0.2518  0.6234
  149MOL0     C19993   4.854   1.502  10.115 -0.5975  0.3540 -0.6736
  149MOL0     C19994   4.726   1.480  10.197 -1.1666 -0.0543 -0.5010
  149MOL0     C19995   4.635   1.599  10.187  0.3429  0.6301 -0.5860
  149MOL0     C19996   4.498   1.559  10.237 -0.0056  0.9687  0.5396
  149MOL0     N19997   4.384   1.646  10.201  0.1946 -0.3043  0.3255
  149MOL0     C19998   4.336   1.748  10.275  0.0099 -0.4001 -0.0999
  149MOL0     C19999   4.217   1.788  10.218 -0.1487  0.4618 -1.0510
  149MOL0     C20000   4.104   1.875  10.262 -0.3068  0.6080 -0.0280
  149MOL0     C20001   4.141   1.929  10.402  0.0248  0.3014 -0.1574
  149MOL0     C20002   4.014   1.966  10.474 -0.1883  0.0983  0.1693
  149MOL0     C20003   3.952   2.103  10.425  0.1709 -0.1635  0.2794
  149MOL0     O20004   3.901   2.109  10.290  0.5301 -0.1627 -0.7276
  149MOL0     C20005   3.768   2.083  10.258  0.8062 -0.3340  0.4633
  149MOL0     C20006   3.735   2.052  10.127 -0.1118 -0.0518  0.5262
  149MOL0     C20007   3.610   2.017  10.082 -0.2809 -0.0031 -0.3633
  149MOL0     C20008   3.589   1.976   9.934 -0.9695 -0.0680 -0.5920
  149MOL0     C20009   3.506   2.012  10.168  0.0625 -0.7204  0.1475
  149MOL0     C20010   3.368   1.996  10.121  0.4886 -1.2968  0.5868
  149MOL0     O20011   3.291   1.899  10.171  0.6538  0.1584 -0.9497
  149MOL0     C20012   3.153   1.905  10.178 -0.0475  0.0807  0.2416
  149MOL0     C20013   3.096   1.836  10.288  0.4167 -0.0826  0.8154
  149MOL0     C20014   2.952   1.840  10.310  0.0032 -0.7096  0.0413
  149MOL0     C20015   2.875   1.919  10.227 -0.0275 -0.6069 -0.4407
  149MOL0     O20016   2.741   1.910  10.247 -0.0623 -0.6274  0.3375
  149MOL0     C20017   2.667   2.027  10.218  0.1681 -0.1879 -0.5446
  149MOL0     C20018   2.534   2.013  10.286 -0.0748 -0.4560  0.6218
  149MOL0     C20019   2.436   2.130  10.237 -0.1977 -0.1508 -0.3778
  149MOL0     C20020   2.296   2.118  10.284 -0.6756 -0.9049 -0.8506
  149MOL0     C20021   2.230   1.986  10.232 -0.0271  0.2608  0.0383
  149MOL0     C20022   2.078   2.003  10.270 -0.0146  1.0591  0.2517
  149MOL0     C20023   2.000   1.888  10.217 -0.2190 -1.2666  0.2446
  149MOL0     C20024   1.856   1.903  10.237 -0.2297 -0.0368 -0.4062
  149MOL0    Cl20025   1.778   1.754  10.163  0.0543  0.1321  0.1140
  149MOL0     C20026   2.928   1.971  10.113 -0.9500 -0.1569  0.0413
  149MOL0     C20027   3.066   1.967  10.082  0.3668 -0.2609 -0.1269
  149MOL0     O20028   3.335   2.085  10.044  0.3311  0.4485 -0.0337
  149MOL0     C20029   3.532   2.036  10.304  0.8867  0.3754 -0.0924
  149MOL0     C20030   3.662   2.082  10.348 -0.3784  0.4584  0.1363
  149MOL0     N20031   4.208   1.717  10.101  0.2506  0.0198 -0.2445
  149MOL0     N20032   4.302   1.630  10.091 -0.3853 -0.1696 -0.8786
  149MOL0     C20033   5.357   0.963   9.933 -1.3489  0.1870  0.4510
  149MOL0     C20034   5.469   0.918  10.006  0.7510 -0.1621  0.0251
  149MOL0     C20035   5.703   0.726  10.349 -0.4511  0.8851 -0.0975
  149MOL0     C20036   5.824   0.776  10.299  0.0581  0.0510  0.4188
  149MOL0     C20037   5.948   0.732  10.332 -0.1750 -0.2168  0.2365
  149MOL0     C20038   5.965   0.635  10.430  0.0793  0.1318 -0.9494
  149MOL0     O20039   6.085   0.598  10.476 -1.0477 -0.3580 -0.4864
  149MOL0     C20040   6.176   0.574  10.377  0.8383 -0.2379  0.7063
  149MOL0     C20041   6.284   0.485  10.431  0.4038 -0.1490  0.1470
  149MOL0     C20042   6.230   0.343  10.455 -0.0061 -0.0480 -1.0442
  149MOL0     C20043   6.351   0.260  10.506  0.2699  0.5988 -0.0746
  149MOL0     C20044   6.304   0.121  10.489  0.1423  1.0193  0.4874
  149MOL0     C20045   6.253   0.011  10.476  0.0527 -0.0524  0.2112
  149MOL0     C20046   5.841   0.591  10.493  0.4995 -0.4916 -0.1677
  149MOL0     C20047   5.718   0.629  10.449 -0.1359 -0.4285  0.0136
  149MOL0     H20048   5.304   0.704  10.211  1.2645  1.0481  2.1599
  149MOL0     H20049   5.099   0.794  10.080 -0.0821  0.8191 -0.6120
  149MOL0     H20050   5.191   1.181   9.991 -0.4836  1.0735 -0.7425
  149MOL0     H20051   5.106   1.177   9.834  1.1541  1.6187  0.4441
  149MOL0     H20052   4.912   1.067   9.965 -0.8107  0.4633  0.8151
  149MOL0     H20053   4.987   1.118  10.111  0.9161  1.2283  0.3451
  149MOL0     H20054   4.920   1.328   9.893  0.5425 -0.3285  0.1247
  149MOL0     H20055   4.795   1.270   9.996 -0.2911  2.0882 -1.7153
  149MOL0     H20056   4.923   1.318  10.205  1.3276  0.0921  1.0437
  149MOL0     H20057   5.042   1.400  10.122 -0.4829  1.2425  2.4928
  149MOL0     H20058   4.921   1.575  10.161 -0.3738 -0.3491  0.1357
  149MOL0     H20059   4.832   1.530  10.012 -1.8494 -0.8642 -0.7615
  149MOL0     H20060   4.676   1.392  10.157 -1.5878  0.5289 -1.2718
  149MOL0     H20061   4.752   1.465  10.303  0.4007 -1.2371 -1.0060
  149MOL0     H20062   4.676   1.682  10.246 -1.2335  1.6817 -0.9316
  149MOL0     H20063   4.628   1.621  10.080 -1.4957 -0.1816 -0.6625
  149MOL0     H20064   4.503   1.557  10.346  1.7504 -2.2990  0.5386
  149MOL0     H20065   4.466   1.456  10.219 -0.6350  1.6689 -3.3567
  149MOL0     H20066   4.371   1.790  10.368  0.9095 -2.4200  0.5213
  149MOL0     H20067   4.095   1.956  10.189  5.3226  1.8107  0.1475
  149MOL0     H20068   4.014   1.813  10.255 -0.0599  0.3873 -2.0544
  149MOL0     H20069   4.220   2.004  10.411  0.7200 -0.4075 -0.1668
  149MOL0     H20070   4.190   1.851  10.461  1.1606  0.7570 -0.4719
  149MOL0     H20071   4.050   1.996  10.573  0.7934  1.0263 -0.4497
  149MOL0     H20072   3.935   1.891  10.483  0.6185 -0.4775  4.6646
  149MOL0     H20073   4.034   2.176  10.424  1.7126 -1.8310 -1.3775
  149MOL0     H20074   3.879   2.129  10.502 -1.3072 -2.3185 -0.2870
  149MOL0     H20075   3.821   2.040  10.061  0.1772  1.1357  0.6639
  149MOL0     H20076   3.680   1.944   9.883  0.9214  0.8101  2.0261
  149MOL0     H20077   3.518   1.893   9.926  0.6032 -1.4564 -0.5767
  149MOL0     H20078   3.539   2.055   9.878 -2.0585 -0.5730 -0.3661
  149MOL0     H20079   3.166   1.783  10.351 -0.1523 -2.0004 -0.0918
  149MOL0     H20080   2.920   1.790  10.401  0.2160  1.5038  1.4056
  149MOL0     H20081   2.715   2.117  10.258  1.9800 -0.7174 -1.4223
  149MOL0     H20082   2.648   2.037  10.111 -0.6576 -1.5675 -0.5571
  149MOL0     H20083   2.488   1.920  10.251  1.3720 -0.2595 -2.0478
  149MOL0     H20084   2.539   2.016  10.395  2.3854 -3.7613  0.7248
  149MOL0     H20085   2.438   2.132  10.127  2.2855 -0.7415 -0.3821
  149MOL0     H20086   2.485   2.223  10.268 -1.0662 -0.1253  0.9951
  149MOL0     H20087   2.281   2.134  10.391 -2.1906 -2.3368 -0.8102
  149MOL0     H20088   2.225   2.193  10.246 -1.0803  1.2581  3.5055
  149MOL0     H20089   2.281   1.897  10.272  3.3892  2.2506  0.4665
  149MOL0     H20090   2.244   1.978  10.124  0.5795 -0.5977  0.1635
  149MOL0     H20091   2.059   2.008  10.378 -3.5123 -0.1835 -0.1737
  149MOL0     H20092   2.037   2.091  10.220  2.0765  2.3959  0.7395
  149MOL0     H20093   2.040   1.795  10.258  1.3726 -1.2082 -1.0735
  149MOL0     H20094   2.010   1.890  10.108  1.2015 -2.0142  0.3444
  149MOL0     H20095   1.818   1.993  10.187  1.0369 -0.1399 -1.6298
  149MOL0     H20096   1.816   1.894  10.338 -0.2856 -1.2411 -0.5247
  149MOL0     H20097   2.871   2.028  10.041  1.2585  1.5245 -0.4900
  149MOL0     H20098   3.106   2.005   9.988  0.2530 -0.4885 -0.2676
  149MOL0     H20099   3.455   2.032  10.380  0.6797  0.9479 -0.2643
  149MOL0     H20100   3.688   2.106  10.451  0.7721 -1.1003  0.2368
  149MOL0     H20101   5.373   1.019   9.841  1.1164  0.4991  1.0041
  149MOL0     H20102   5.568   0.941   9.970 -0.6321  3.5199 -1.9290
  149MOL0     H20103   5.817   0.851  10.221  0.5227 -1.2492 -0.9275
  149MOL0     H20104   6.036   0.782  10.293 -0.3021 -0.4127 -0.3104
  149MOL0     H20105   6.133   0.529  10.287  2.1800  0.2134 -0.1985
  149MOL0     H20106   6.225   0.663  10.337 -0.7036  0.0600 -0.6406
  149MOL0     H20107   6.325   0.529  10.523  0.6929 -0.0628 -0.0192
  149MOL0     H20108   6.357   0.481  10.349  1.0456  0.2413  0.6890
  149MOL0     H20109   6.180   0.294  10.371 -0.5474 -2.1896  0.4372
  149MOL0     H20110   6.147   0.339  10.526 -0.8586 -1.5367 -2.0680
  149MOL0     H20111   6.379   0.293  10.607  0.4176 -0.0307  0.0981
  149MOL0     H20112   6.436   0.286  10.442 -2.2367 -2.6531 -5.3349
  149MOL0     H20113   6.249  -0.096  10.462  5.1729 -0.4729  0.1335
  149MOL0     H20114   5.850   0.521  10.575 -0.3377  0.5747  0.8598
  149MOL0     H20115   5.633   0.579  10.495 -0.9776  0.5029 -0.4808
  150MOL0     O20116   7.401   2.987   1.023 -0.3027 -0.0242  0.5147
  150MOL0     C20117   7.479   3.081   1.053  0.7110  0.5958  0.7276
  150MOL0     O20118   7.434   3.206   1.094  0.5710  0.2237 -0.2384
  150MOL0     C20119   7.303   3.228   1.121  0.3584  0.3212  0.1039
  150MOL0     C20120   7.268   3.265   1.248 -0.3601 -0.0055 -0.2696
  150MOL0     C20121   7.135   3.294   1.277  0.8259  0.7634 -0.4422
  150MOL0     C20122   7.035   3.297   1.177 -1.2762 -0.3185 -0.1534
  150MOL0     O20123   6.904   3.315   1.215 -0.1517 -0.3028  0.2532
  150MOL0     C20124   6.805   3.331   1.116 -0.4264  0.0975  0.3532
  150MOL0     C20125   6.663   3.307   1.184 -0.5940 -0.6165 -0.5643
  150MOL0     C20126   6.569   3.346   1.065 -0.0290  0.4321 -0.6642
  150MOL0     C20127   6.434   3.310   1.121 -0.5445 -1.2083 -0.2017
  150MOL0     C20128   6.316   3.359   1.026  0.1587  0.5268 -0.2460
  150MOL0     C20129   6.283   3.511   1.021 -0.1625 -0.5015 -0.1309
  150MOL0     C20130   6.172   3.541   0.917 -0.2730 -0.0131 -0.4716
  150MOL0     C20131   6.126   3.677   0.907 -0.7967 -0.3804  0.2845
  150MOL0     N20132   6.018   3.708   0.805 -0.9543 -0.1603  0.2691
  150MOL0     C20133   5.883   3.696   0.826 -0.7773  0.1734  0.9670
  150MOL0     C20134   5.828   3.725   0.706 -0.7490  0.2624 -0.2885
  150MOL0     C20135   5.683   3.729   0.688  0.2786  0.8282 -0.3358
  150MOL0     C20136   5.609   3.863   0.715  0.6801  0.6240 -0.3558
  150MOL0     C20137   5.629   3.969   0.611 -0.8973 -0.3704 -0.0380
  150MOL0     C20138   5.646   3.941   0.461 -1.2052  0.5603 -0.7641
  150MOL0     O20139   5.679   4.051   0.378 -0.3082  0.0788  0.5262
  150MOL0     C20140   5.786   4.127   0.407 -0.1719 -0.3043 -0.6891
  150MOL0     C20141   5.916   4.062   0.429  0.4430  0.3889  0.6667
  150MOL0     C20142   6.028   4.140   0.468 -0.0410  0.2687  0.7154
  150MOL0     C20143   6.161   4.064   0.484  0.1361 -0.1506 -0.2128
  150MOL0     C20144   6.007   4.274   0.494  0.2647 -0.0817  0.1403
  150MOL0     C20145   6.128   4.350   0.539  0.6958  0.7476  0.2733
  150MOL0     O20146   6.168   4.461   0.468 -1.0351 -0.3348  0.3425
  150MOL0     C20147   6.272   4.534   0.520  0.3098  0.5124 -0.0707
  150MOL0     C20148   6.387   4.476   0.573 -0.1624 -0.0355 -0.7546
  150MOL0     C20149   6.488   4.538   0.637 -0.3611 -0.4504  0.2421
  150MOL0     C20150   6.496   4.674   0.622 -0.4928 -0.1858  1.0985
  150MOL0     O20151   6.605   4.745   0.648 -0.2820  0.0786 -0.6358
  150MOL0     C20152   6.661   4.736   0.784  0.5148  0.1923  0.0136
  150MOL0     C20153   6.790   4.810   0.777  0.0444 -0.1962  0.6769
  150MOL0     C20154   6.855   4.832   0.918 -0.0362  0.4047 -1.2487
  150MOL0     C20155   7.011   4.844   0.914  0.8769  0.8440  0.4425
  150MOL0     C20156   7.092   4.865   1.046  0.1523  0.4777  0.3476
  150MOL0     C20157   7.096   5.010   1.088 -0.6896 -0.4341  0.1436
  150MOL0     C20158   7.196   5.035   1.203  0.2595 -0.4284  0.4192
  150MOL0     C20159   7.145   4.964   1.331  0.1132  0.1746  0.5143
  150MOL0    Cl20160   7.249   5.025   1.459 -0.3688  0.0800  0.3197
  150MOL0     C20161   6.383   4.745   0.567  0.2677  0.1926 -0.5916
  150MOL0     C20162   6.266   4.674   0.516 -0.0587  0.6483 -0.3317
  150MOL0     O20163   6.175   4.309   0.646  0.4634  0.8374  0.4293
  150MOL0     C20164   5.880   4.331   0.481 -0.2838 -0.0818 -0.1945
  150MOL0     C20165   5.769   4.257   0.433 -0.3946 -0.0910  0.5291
  150MOL0     N20166   5.927   3.758   0.616 -1.2956 -0.5129 -0.3111
  150MOL0     N20167   6.045   3.740   0.677  0.9671  0.1400 -0.0735
  150MOL0     C20168   7.077   3.255   1.045  0.2138  0.1064  0.2449
  150MOL0     C20169   7.211   3.214   1.022 -0.0808  0.1027  0.0553
  150MOL0     C20170   7.626   3.075   1.027 -0.4184  0.3791 -0.2800
  150MOL0     C20171   7.658   3.011   0.910  0.6703  0.2939 -0.1473
  150MOL0     C20172   7.786   2.976   0.870  0.1641 -1.0652 -1.9085
  150MOL0     C20173   7.892   3.027   0.955 -0.6426  0.1981 -0.2765
  150MOL0     O20174   8.021   2.984   0.950  0.5914  0.2685 -0.1141
  150MOL0     C20175   8.115   3.089   0.920 -0.0454 -0.9139  0.4642
  150MOL0     C20176   8.118   3.114   0.762 -0.3354  0.8572 -0.1441
  150MOL0     C20177   8.200   3.236   0.715 -0.6578 -0.0786 -0.8079
  150MOL0     C20178   8.178   3.290   0.574  0.5251  0.4994 -0.1711
  150MOL0     C20179   8.217   3.186   0.474 -0.1297 -0.8525  0.0070
  150MOL0     C20180   8.256   3.088   0.414 -0.0981 -0.6230 -0.5538
  150MOL0     C20181   7.861   3.100   1.074  0.1304  0.4829 -0.0398
  150MOL0     C20182   7.728   3.127   1.105 -0.3453  0.3204 -0.0334
  150MOL0     H20183   7.342   3.284   1.325  1.3658 -0.9025 -1.6418
  150MOL0     H20184   7.110   3.310   1.382 -0.2866  1.6080 -0.8127
  150MOL0     H20185   6.812   3.432   1.075 -1.4293 -0.1637 -0.5400
  150MOL0     H20186   6.825   3.268   1.029  3.7510  0.6641  0.7361
  150MOL0     H20187   6.646   3.201   1.207 -2.5272 -0.5520 -1.5247
  150MOL0     H20188   6.645   3.367   1.274 -0.9486  3.1941 -2.9515
  150MOL0     H20189   6.577   3.454   1.053 -0.3772  0.7774  1.6609
  150MOL0     H20190   6.594   3.293   0.973 -0.1595  0.6937 -0.8499
  150MOL0     H20191   6.424   3.202   1.138 -0.6559 -0.7771  3.1371
  150MOL0     H20192   6.415   3.362   1.216 -2.4843 -2.4833  0.1780
  150MOL0     H20193   6.337   3.320   0.926 -2.0439 -2.3935  0.2966
  150MOL0     H20194   6.224   3.313   1.063  1.1628 -0.8965  0.6115
  150MOL0     H20195   6.255   3.556   1.117  1.2940  3.5533 -1.4018
  150MOL0     H20196   6.372   3.568   0.993  0.2024 -0.9472  0.1154
  150MOL0     H20197   6.207   3.508   0.819  0.0986 -0.2360 -0.2672
  150MOL0     H20198   6.083   3.483   0.942  0.5947 -2.5475 -2.8172
  150MOL0     H20199   6.210   3.741   0.878 -2.1344  1.0133 -0.7166
  150MOL0     H20200   6.096   3.709   1.007 -1.5491  1.8828 -0.5908
  150MOL0     H20201   5.828   3.683   0.919 -0.0351  1.2433  1.5819
  150MOL0     H20202   5.650   3.692   0.590  2.3496  0.1998 -0.8349
  150MOL0     H20203   5.639   3.663   0.763  2.3898  1.6063  1.7272
  150MOL0     H20204   5.638   3.890   0.817  0.5724  0.6128 -0.3224
  150MOL0     H20205   5.504   3.836   0.715  0.7877  0.1837  0.3730
  150MOL0     H20206   5.713   4.034   0.638  1.3404 -2.0294 -2.4720
  150MOL0     H20207   5.535   4.022   0.629 -1.3104 -1.9836  3.3510
  150MOL0     H20208   5.547   3.900   0.439 -0.2145 -1.8134 -1.1024
  150MOL0     H20209   5.718   3.860   0.448 -2.4363 -0.5329 -1.0776
  150MOL0     H20210   5.918   3.955   0.414 -1.8326  0.3858  0.0002
  150MOL0     H20211   6.174   4.045   0.591 -3.9790 -0.7010  0.3153
  150MOL0     H20212   6.153   3.965   0.439 -0.8703 -1.0018  1.7009
  150MOL0     H20213   6.244   4.118   0.436 -0.0325 -0.6937 -1.1346
  150MOL0     H20214   6.389   4.369   0.556 -2.0402 -0.0922 -0.8012
  150MOL0     H20215   6.572   4.476   0.667 -0.3149 -0.7665 -0.5253
  150MOL0     H20216   6.598   4.783   0.860 -1.6808 -1.4376 -0.7011
  150MOL0     H20217   6.684   4.632   0.808 -1.1339 -0.4089 -0.8650
  150MOL0     H20218   6.861   4.750   0.719 -0.4134 -2.5485  2.3876
  150MOL0     H20219   6.777   4.902   0.720 -1.5123 -1.1731 -0.6706
  150MOL0     H20220   6.835   4.750   0.988  0.9766  1.8348  0.8201
  150MOL0     H20221   6.819   4.924   0.964 -0.8758 -0.1492 -0.7617
  150MOL0     H20222   7.040   4.750   0.865 -1.1721 -0.4523  1.5364
  150MOL0     H20223   7.049   4.925   0.852  2.4655 -0.3653 -0.2217
  150MOL0     H20224   7.194   4.833   1.025 -1.1006 -3.5669 -0.5104
  150MOL0     H20225   7.058   4.793   1.122 -0.0156  0.9246  0.6978
  150MOL0     H20226   7.110   5.072   0.999 -2.3691  3.5968  2.3983
  150MOL0     H20227   6.995   5.039   1.119  0.6972  3.9357  1.2403
  150MOL0     H20228   7.209   5.142   1.224 -2.4848  0.2549 -0.8810
  150MOL0     H20229   7.293   5.003   1.163  0.2765  1.4959 -1.2953
  150MOL0     H20230   7.157   4.857   1.315 -0.2076  0.1538  0.4156
  150MOL0     H20231   7.047   5.000   1.361  0.9932  0.8606  2.7645
  150MOL0     H20232   6.394   4.853   0.566 -0.3849  0.2599 -0.9096
  150MOL0     H20233   6.184   4.733   0.475  0.7905  2.6162  0.6786
  150MOL0     H20234   5.871   4.436   0.506  2.5700  0.2798 -0.3457
  150MOL0     H20235   5.671   4.303   0.424 -0.6917 -0.7578  0.2203
  150MOL0     H20236   6.999   3.244   0.971 -1.9199  2.5747  1.9363
  150MOL0     H20237   7.241   3.182   0.923 -0.5698 -0.9717  0.2441
  150MOL0     H20238   7.577   2.977   0.847  0.1687 -1.5371  1.4084
  150MOL0     H20239   7.815   2.900   0.799  1.6112 -4.3578  1.7885
  150MOL0     H20240   8.100   3.183   0.974 -2.5646 -0.6516 -0.5902
  150MOL0     H20241   8.212   3.060   0.962  2.2328  1.9536 -2.2932
  150MOL0     H20242   8.013   3.127   0.737 -1.0851  0.0821  2.3364
  150MOL0     H20243   8.147   3.027   0.702 -2.0029  0.3347 -0.2355
  150MOL0     H20244   8.306   3.211   0.723 -1.0254 -1.5578 -0.1591
  150MOL0     H20245   8.187   3.321   0.783  2.8319  0.5427 -0.7579
  150MOL0     H20246   8.234   3.383   0.561  0.1239  0.8254  0.4082
  150MOL0     H20247   8.072   3.314   0.557 -0.0902 -1.3072  0.8614
  150MOL0     H20248   8.295   3.001   0.365  4.0617  0.3960  0.5826
  150MOL0     H20249   7.945   3.142   1.128  0.5007 -1.1282  0.7073
  150MOL0     H20250   7.696   3.183   1.193  1.6082 -0.7023  1.4159
  151MOL0     O20251   4.238   7.409   2.052  0.3588  0.0088  0.2526
  151MOL0     C20252   4.336   7.372   2.121 -0.3503 -1.0045 -0.7655
  151MOL0     O20253   4.341   7.294   2.232 -0.2589 -0.1464  0.0360
  151MOL0     C20254   4.214   7.259   2.277  0.5979  0.0266 -0.3020
  151MOL0     C20255   4.159   7.130   2.254  0.3397 -0.3532 -0.5094
  151MOL0     C20256   4.029   7.099   2.285 -0.1594 -0.8547 -0.3945
  151MOL0     C20257   3.946   7.197   2.350  0.6120  0.6588  0.1844
  151MOL0     O20258   3.814   7.167   2.386  0.6750 -0.1567  0.4746
  151MOL0     C20259   3.780   7.205   2.519  0.6923  0.2584 -0.2858
  151MOL0     C20260   3.652   7.136   2.573  0.7511  0.1070  0.2850
  151MOL0     C20261   3.535   7.215   2.531 -0.3455  0.7174  0.1578
  151MOL0     C20262   3.513   7.238   2.380 -0.2892 -0.0120  0.2387
  151MOL0     C20263   3.376   7.295   2.345  0.3709  0.0379 -0.0911
  151MOL0     C20264   3.258   7.202   2.403 -1.0447 -0.2186  0.2516
  151MOL0     C20265   3.120   7.262   2.385  0.6160  0.0962 -0.6171
  151MOL0     C20266   3.016   7.166   2.434  0.2091 -0.1800 -0.1276
  151MOL0     N20267   2.877   7.195   2.397  0.7677  0.1771 -0.1640
  151MOL0     C20268   2.775   7.230   2.485 -0.1204 -0.5566  0.0968
  151MOL0     C20269   2.669   7.240   2.398 -0.6253 -0.2392  0.2040
  151MOL0     C20270   2.525   7.281   2.412 -0.5727 -0.4839  0.1917
  151MOL0     C20271   2.451   7.166   2.488  1.0023 -0.1559 -0.5944
  151MOL0     C20272   2.338   7.236   2.563  0.5073  0.4115  0.9629
  151MOL0     C20273   2.250   7.341   2.488 -0.9198 -0.6964  0.1018
  151MOL0     O20274   2.122   7.361   2.551  0.1839  0.4214  0.0386
  151MOL0     C20275   2.032   7.440   2.493  0.0890 -0.5481  0.6312
  151MOL0     C20276   1.902   7.429   2.546  0.6100  0.4618  1.3404
  151MOL0     C20277   1.802   7.516   2.515  0.2117 -0.6147  0.2397
  151MOL0     C20278   1.678   7.503   2.601 -0.5404 -0.0155  0.4250
  151MOL0     C20279   1.825   7.619   2.419  0.6754  0.9029 -0.7533
  151MOL0     C20280   1.727   7.730   2.383 -0.4117 -0.2343 -0.6815
  151MOL0     O20281   1.764   7.813   2.286 -0.4053  0.2733 -0.4025
  151MOL0     C20282   1.681   7.925   2.257 -0.1255 -0.5453  0.5556
  151MOL0     C20283   1.595   7.919   2.147 -0.3780  0.6377  0.7298
  151MOL0     C20284   1.538   8.032   2.095  0.4216  1.0813 -0.0934
  151MOL0     C20285   1.543   8.151   2.161 -0.8387 -0.9413 -0.0902
  151MOL0     O20286   1.484   8.260   2.098 -0.6486  0.8795 -0.3234
  151MOL0     C20287   1.428   8.364   2.190  0.2569 -0.4009  0.7372
  151MOL0     C20288   1.320   8.445   2.120 -0.5421 -0.2055 -1.1235
  151MOL0     C20289   1.379   8.545   2.014 -0.0170  0.5139  1.3319
  151MOL0     C20290   1.422   8.686   2.066 -0.2304 -0.8743 -0.6136
  151MOL0     C20291   1.548   8.747   2.010 -0.5999  0.2983 -0.4786
  151MOL0     C20292   1.689   8.682   2.036 -0.7832 -0.4952  0.8921
  151MOL0     C20293   1.733   8.711   2.184 -0.2702 -1.7388  0.8157
  151MOL0     C20294   1.864   8.654   2.232 -0.2508  0.0442  0.2547
  151MOL0    Cl20295   1.866   8.488   2.266  0.1359  0.3639 -0.4695
  151MOL0     C20296   1.618   8.161   2.283 -0.1582 -0.9253  0.7222
  151MOL0     C20297   1.679   8.040   2.332 -0.2765 -0.7000  0.5216
  151MOL0     O20298   1.621   7.740   2.447 -0.1082  0.4804  0.7280
  151MOL0     C20299   1.961   7.627   2.377 -0.2292  0.4475  0.5001
  151MOL0     C20300   2.064   7.540   2.403  0.1798  0.7399 -0.3288
  151MOL0     N20301   2.704   7.188   2.276 -0.4981 -0.0581  0.3900
  151MOL0     N20302   2.831   7.180   2.270 -0.6428 -0.0616  0.1538
  151MOL0     C20303   3.992   7.329   2.369 -0.7486 -0.1640  0.5178
  151MOL0     C20304   4.129   7.358   2.341  0.4831 -0.3674 -0.0474
  151MOL0     C20305   4.458   7.434   2.068 -0.3793  0.0606  0.1289
  151MOL0     C20306   4.466   7.565   2.025  0.3380 -1.4562  0.8806
  151MOL0     C20307   4.581   7.621   1.973 -0.2434  0.5537 -0.3060
  151MOL0     C20308   4.699   7.550   1.972 -0.0709  0.3882  0.2562
  151MOL0     O20309   4.816   7.608   1.925 -0.4760 -0.2807  0.6574
  151MOL0     C20310   4.931   7.521   1.927  0.5734 -0.5256  0.2462
  151MOL0     C20311   5.044   7.606   1.875  0.5533  0.0214  0.1754
  151MOL0     C20312   5.030   7.623   1.727 -1.4848 -0.2971  0.8741
  151MOL0     C20313   5.132   7.721   1.668  0.9196 -0.0543 -0.0079
  151MOL0     C20314   5.272   7.685   1.681  0.7343  0.7397 -0.5698
  151MOL0     C20315   5.393   7.653   1.677  0.0408 -0.0217 -0.7307
  151MOL0     C20316   4.693   7.417   2.025 -0.2444  0.2109  0.2723
  151MOL0     C20317   4.575   7.355   2.068  0.1168  0.5938 -0.7859
  151MOL0     H20318   4.214   7.045   2.214  1.2163  0.3405 -0.7973
  151MOL0     H20319   3.985   7.002   2.265  0.1851 -1.2242  0.5916
  151MOL0     H20320   3.867   7.183   2.582  1.5336  2.3873 -0.6049
  151MOL0     H20321   3.768   7.314   2.526  0.3700  0.1552  0.9466
  151MOL0     H20322   3.626   7.045   2.519  0.0606  0.8353 -0.6410
  151MOL0     H20323   3.652   7.127   2.682 -2.7129  0.2433  0.4125
  151MOL0     H20324   3.455   7.152   2.570  1.5240 -2.4838 -0.7345
  151MOL0     H20325   3.537   7.312   2.580  2.9663  0.5272  0.6492
  151MOL0     H20326   3.586   7.311   2.342 -0.4659  2.1880  3.5979
  151MOL0     H20327   3.523   7.145   2.325 -1.9957 -0.4896  0.6866
  151MOL0     H20328   3.354   7.392   2.391  0.3706 -0.2847  0.5984
  151MOL0     H20329   3.360   7.315   2.239  2.6696 -0.5929 -0.6200
  151MOL0     H20330   3.256   7.109   2.344 -0.8790  1.3208 -2.3162
  151MOL0     H20331   3.272   7.173   2.507  4.4703  0.6000  0.0778
  151MOL0     H20332   3.102   7.360   2.430  2.0633 -0.7886  2.1941
  151MOL0     H20333   3.104   7.274   2.278  1.5548 -0.9380 -0.8939
  151MOL0     H20334   3.029   7.162   2.542  1.7445  2.4060 -0.1273
  151MOL0     H20335   3.028   7.065   2.392 -1.6707 -0.1489 -0.8266
  151MOL0     H20336   2.791   7.251   2.590  0.4331 -1.6117  0.2397
  151MOL0     H20337   2.526   7.365   2.483 -0.5691 -0.1581 -0.1877
  151MOL0     H20338   2.476   7.310   2.318  0.5388  0.4626 -0.1161
  151MOL0     H20339   2.515   7.117   2.562  0.4330  2.3906  1.7449
  151MOL0     H20340   2.407   7.093   2.419 -1.5968  1.6410 -0.9789
  151MOL0     H20341   2.380   7.283   2.652 -0.6916 -1.1056  2.3922
  151MOL0     H20342   2.270   7.159   2.601  1.5484 -0.7021  0.6515
  151MOL0     H20343   2.238   7.302   2.387  2.2237  1.0341 -1.0868
  151MOL0     H20344   2.307   7.434   2.484 -0.9299 -0.6151  1.3366
  151MOL0     H20345   1.882   7.346   2.612 -1.0696 -1.3870 -1.2780
  151MOL0     H20346   1.589   7.496   2.537 -0.8899 -0.2926  0.9390
  151MOL0     H20347   1.678   7.411   2.659 -2.1113 -0.4067 -0.1470
  151MOL0     H20348   1.661   7.590   2.664 -3.4050  0.7334 -1.1909
  151MOL0     H20349   1.587   7.827   2.089  3.8814  0.6919 -0.2781
  151MOL0     H20350   1.472   8.028   2.009 -1.8684  0.4822  1.5876
  151MOL0     H20351   1.368   8.319   2.270 -1.9055 -1.1889 -1.2154
  151MOL0     H20352   1.501   8.429   2.238 -0.8108 -0.2944  2.3130
  151MOL0     H20353   1.253   8.377   2.066  1.1225 -0.4482 -2.9812
  151MOL0     H20354   1.272   8.506   2.197  4.1355  2.6393 -0.0898
  151MOL0     H20355   1.304   8.548   1.935 -0.1193  0.1389  1.4109
  151MOL0     H20356   1.466   8.494   1.972 -2.1339 -1.7783 -0.6152
  151MOL0     H20357   1.345   8.760   2.043 -0.8190 -1.1664  0.3300
  151MOL0     H20358   1.420   8.698   2.175 -0.2111  0.0418 -0.7079
  151MOL0     H20359   1.561   8.853   2.034  3.1752 -0.2432  0.4572
  151MOL0     H20360   1.548   8.740   1.900  0.1916  2.4173 -0.6604
  151MOL0     H20361   1.686   8.574   2.019  0.2219 -0.6606  1.7054
  151MOL0     H20362   1.767   8.720   1.970 -1.4924  3.1729  1.9077
  151MOL0     H20363   1.663   8.669   2.257  0.6431 -1.4572  1.8646
  151MOL0     H20364   1.715   8.818   2.198 -2.5610 -1.7896 -0.9771
  151MOL0     H20365   1.902   8.708   2.319  1.0263  2.2196 -1.5360
  151MOL0     H20366   1.940   8.683   2.159  1.1114 -2.4356  0.5915
  151MOL0     H20367   1.654   8.254   2.324  2.5987 -1.3894 -0.3897
  151MOL0     H20368   1.749   8.048   2.415 -1.3028  0.0761  1.3493
  151MOL0     H20369   1.985   7.706   2.307 -1.8752 -0.1763 -0.8247
  151MOL0     H20370   2.161   7.561   2.361  0.5666 -1.1498 -0.4654
  151MOL0     H20371   3.946   7.416   2.413  0.4286  0.3087  0.8422
  151MOL0     H20372   4.177   7.454   2.357 -1.0185  0.3649  0.3236
  151MOL0     H20373   4.372   7.617   2.039 -0.5879 -3.4075  2.4549
  151MOL0     H20374   4.574   7.720   1.929 -2.3990 -0.2430 -1.9703
  151MOL0     H20375   4.961   7.500   2.030 -0.3395 -2.0578  0.2347
  151MOL0     H20376   4.921   7.423   1.879 -2.4459 -1.7896  3.1047
  151MOL0     H20377   5.136   7.552   1.897  0.3758  0.5521  2.4866
  151MOL0     H20378   5.038   7.701   1.930 -1.5967  1.1605 -1.8668
  151MOL0     H20379   4.929   7.661   1.715 -0.6150  1.1511 -4.5973
  151MOL0     H20380   5.035   7.534   1.663 -1.3380  0.3813 -0.0694
  151MOL0     H20381   5.127   7.819   1.716  0.2092 -1.2002  2.3658
  151MOL0     H20382   5.114   7.748   1.563 -0.6708  1.4590  0.6086
  151MOL0     H20383   5.495   7.621   1.662 -0.4064 -1.0642 -1.7375
  151MOL0     H20384   4.780   7.352   2.030  1.1052  1.7151 -1.8342
  151MOL0     H20385   4.573   7.248   2.086 -3.3905  0.6055 -0.3935
  152MOL0     O20386   3.316   7.290   9.774 -0.1474 -0.5476  0.1500
  152MOL0     C20387   3.287   7.176   9.764  0.7470 -0.0777 -0.6878
  152MOL0     O20388   3.167   7.124   9.763  0.3475 -0.2503  0.2553
  152MOL0     C20389   3.059   7.196   9.730 -0.6930 -0.4166 -0.2492
  152MOL0     C20390   2.930   7.149   9.762  0.4239 -0.0200 -0.7912
  152MOL0     C20391   2.818   7.219   9.737 -0.2986  0.1430  0.9162
  152MOL0     C20392   2.820   7.346   9.673 -0.7324  0.1162 -0.1556
  152MOL0     O20393   2.703   7.398   9.632 -1.0948  0.0115  0.4170
  152MOL0     C20394   2.701   7.506   9.531 -0.5027 -0.6758 -0.0405
  152MOL0     C20395   2.747   7.458   9.396 -0.1566 -0.2099  0.1891
  152MOL0     C20396   2.645   7.395   9.303  0.0117  0.1478 -0.0142
  152MOL0     C20397   2.565   7.487   9.212 -0.4515 -0.7627 -0.1611
  152MOL0     C20398   2.485   7.407   9.111  0.2684  0.9694  0.1237
  152MOL0     C20399   2.369   7.328   9.182 -0.4659  0.0880  0.4575
  152MOL0     C20400   2.282   7.258   9.087  0.4429 -0.2517 -1.1334
  152MOL0     C20401   2.194   7.144   9.153 -0.2369  0.7625 -0.1516
  152MOL0     N20402   2.066   7.186   9.202  0.1408 -0.1858  0.1640
  152MOL0     C20403   2.039   7.286   9.294  0.2311 -0.8843 -0.8827
  152MOL0     C20404   1.902   7.293   9.301  0.1604 -0.1466 -0.2692
  152MOL0     C20405   1.836   7.375   9.414 -0.2793  0.0786 -0.9095
  152MOL0     C20406   1.682   7.407   9.391  0.5703  0.5359  0.3604
  152MOL0     C20407   1.588   7.284   9.430 -0.4876 -0.2487  0.0248
  152MOL0     C20408   1.453   7.288   9.362  0.6861 -1.0997  0.5725
  152MOL0     O20409   1.376   7.400   9.408 -0.8387  0.4702  0.0309
  152MOL0     C20410   1.250   7.433   9.361 -0.8913  0.3830 -0.2116
  152MOL0     C20411   1.215   7.567   9.369 -0.4423 -0.3727 -0.1942
  152MOL0     C20412   1.092   7.617   9.321  0.0547  0.2337  0.2749
  152MOL0     C20413   1.074   7.767   9.323 -0.2409 -0.4983  0.1323
  152MOL0     C20414   0.997   7.513   9.279 -0.6973  0.6764  0.9555
  152MOL0     C20415   0.871   7.547   9.225  0.3574  0.5514  0.1100
  152MOL0     O20416   0.822   7.448   9.138 -0.8215 -0.8693 -0.1288
  152MOL0     C20417   0.690   7.450   9.105  0.5748  0.2575 -0.0188
  152MOL0     C20418   0.641   7.561   9.042 -0.5320  0.6802 -0.0142
  152MOL0     C20419   0.506   7.584   9.020  0.0667  0.5934 -0.1529
  152MOL0     C20420   0.418   7.484   9.055 -0.2852 -0.2318  0.1809
  152MOL0     O20421   0.284   7.509   9.020  0.0872  0.1740  0.1241
  152MOL0     C20422   0.185   7.416   9.066  0.1610 -0.2293  0.3330
  152MOL0     C20423   0.053   7.466   9.004  0.4431 -0.2846  0.2937
  152MOL0     C20424  -0.074   7.402   9.068 -0.9336 -0.1313  0.9776
  152MOL0     C20425  -0.199   7.446   8.987  0.3941  0.2426  1.1000
  152MOL0     C20426  -0.324   7.386   9.054  0.3776  0.4432  0.4712
  152MOL0     C20427  -0.461   7.434   8.996  0.4600 -0.2911  0.2768
  152MOL0     C20428  -0.576   7.352   9.056 -0.5848 -0.6102  0.6132
  152MOL0     C20429  -0.710   7.398   9.013 -0.0330 -0.2312  0.3794
  152MOL0    Cl20430  -0.718   7.424   8.838 -0.2057 -0.7304  0.2093
  152MOL0     C20431   0.464   7.366   9.107  0.2310  0.1513 -0.1967
  152MOL0     C20432   0.601   7.348   9.138 -0.2630  0.4671 -0.2985
  152MOL0     O20433   0.811   7.645   9.268 -0.0019 -0.3132 -0.1612
  152MOL0     C20434   1.035   7.375   9.269 -1.4429 -0.0704  0.0410
  152MOL0     C20435   1.167   7.340   9.298  0.5801  0.0030  0.7586
  152MOL0     N20436   1.847   7.197   9.216 -0.1450  0.6093 -0.1844
  152MOL0     N20437   1.947   7.135   9.157  0.2522 -0.3067 -0.2625
  152MOL0     C20438   2.944   7.390   9.638 -0.4372 -0.3607 -0.3319
  152MOL0     C20439   3.065   7.323   9.661 -0.2132 -0.2462 -0.2185
  152MOL0     C20440   3.395   7.076   9.772 -0.8568  0.2612 -0.4030
  152MOL0     C20441   3.531   7.116   9.768  0.3729  0.0087 -1.0594
  152MOL0     C20442   3.633   7.022   9.778  0.2120 -0.1851 -0.7622
  152MOL0     C20443   3.602   6.890   9.798  0.3601  0.2267 -0.0485
  152MOL0     O20444   3.701   6.791   9.824  0.7777  0.6168  0.1408
  152MOL0     C20445   3.831   6.826   9.795  0.3440  0.0143  0.0315
  152MOL0     C20446   3.923   6.710   9.831 -0.1899 -0.4373  0.3458
  152MOL0     C20447   4.070   6.769   9.802 -0.4239 -0.0323 -0.3590
  152MOL0     C20448   4.186   6.672   9.836  0.2186  0.0279  1.0630
  152MOL0     C20449   4.313   6.730   9.790  0.5648  0.0045  0.8262
  152MOL0     C20450   4.403   6.782   9.743  0.5434 -1.0182 -0.2592
  152MOL0     C20451   3.471   6.849   9.782  0.1300 -0.1606  0.1565
  152MOL0     C20452   3.366   6.943   9.777 -0.6339  0.1057  0.5819
  152MOL0     H20453   2.927   7.058   9.822 -0.4063  1.4511  1.5608
  152MOL0     H20454   2.728   7.174   9.776 -1.1413  0.9602 -0.0381
  152MOL0     H20455   2.601   7.545   9.514 -0.7607 -1.3747 -0.1836
  152MOL0     H20456   2.761   7.587   9.574 -0.0448 -0.4774 -1.0264
  152MOL0     H20457   2.791   7.539   9.336 -2.7071 -1.3768 -3.6527
  152MOL0     H20458   2.828   7.387   9.416 -0.9860 -0.5797  2.5812
  152MOL0     H20459   2.705   7.321   9.249  0.9861 -1.2164  2.7593
  152MOL0     H20460   2.591   7.329   9.372  1.3557  2.7389  3.8238
  152MOL0     H20461   2.500   7.551   9.272 -1.6650 -1.6596 -0.4847
  152MOL0     H20462   2.641   7.552   9.167 -0.9946 -0.1761 -0.2352
  152MOL0     H20463   2.442   7.483   9.046 -0.9722  0.2350  0.0567
  152MOL0     H20464   2.542   7.352   9.037 -0.0959  1.5932 -0.6298
  152MOL0     H20465   2.419   7.262   9.253  3.6101  1.7218 -0.6184
  152MOL0     H20466   2.312   7.400   9.241 -0.1710 -0.3339  1.2652
  152MOL0     H20467   2.218   7.338   9.047  4.0226  2.7691 -1.3058
  152MOL0     H20468   2.345   7.218   9.007 -0.7573  1.6737 -3.1504
  152MOL0     H20469   2.236   7.090   9.238 -3.1686  1.2913  1.7766
  152MOL0     H20470   2.177   7.064   9.080  2.4685 -1.3295  1.3148
  152MOL0     H20471   2.100   7.361   9.342 -0.9730  1.0146 -2.1752
  152MOL0     H20472   1.850   7.327   9.511  0.2393  1.9212 -0.0299
  152MOL0     H20473   1.886   7.472   9.409 -3.2253  1.9945  2.3063
  152MOL0     H20474   1.672   7.456   9.294  0.2969  2.5070  1.3134
  152MOL0     H20475   1.644   7.483   9.461  0.1689  2.2300 -1.6076
  152MOL0     H20476   1.575   7.289   9.538  4.0205 -0.8094  0.8132
  152MOL0     H20477   1.637   7.190   9.402  0.4581  1.1240 -3.4694
  152MOL0     H20478   1.394   7.197   9.377 -2.9239  0.8024 -0.9145
  152MOL0     H20479   1.466   7.290   9.254  2.9517  0.4063  0.7958
  152MOL0     H20480   1.284   7.634   9.419 -1.0647 -1.4327  2.2249
  152MOL0     H20481   1.003   7.795   9.244 -3.1313 -2.6015  1.7875
  152MOL0     H20482   1.026   7.791   9.418  0.9379  2.1978  0.1201
  152MOL0     H20483   1.162   7.828   9.303 -0.9644  1.6439  2.9428
  152MOL0     H20484   0.713   7.640   9.021  1.0946 -0.2801  1.6421
  152MOL0     H20485   0.477   7.674   8.966 -2.0033 -1.4052 -2.5810
  152MOL0     H20486   0.216   7.322   9.019  1.8153  0.6513 -0.4217
  152MOL0     H20487   0.182   7.407   9.175  0.6097 -0.3546  0.3362
  152MOL0     H20488   0.047   7.574   9.019 -1.1612 -0.1612 -0.9982
  152MOL0     H20489   0.062   7.454   8.896  1.7142  0.6251  0.2739
  152MOL0     H20490  -0.074   7.453   9.165  1.2023 -1.5757  1.8204
  152MOL0     H20491  -0.068   7.293   9.081  2.9461 -0.3742 -1.2107
  152MOL0     H20492  -0.203   7.556   8.988  1.5561  0.3387 -0.7371
  152MOL0     H20493  -0.192   7.408   8.885  0.6674 -0.0529  1.2266
  152MOL0     H20494  -0.329   7.397   9.163 -1.0642 -1.7667  0.7027
  152MOL0     H20495  -0.316   7.279   9.035 -1.3398  0.2241  0.7749
  152MOL0     H20496  -0.474   7.535   9.036  3.4608  0.7639 -1.1331
  152MOL0     H20497  -0.464   7.428   8.887  4.1569 -0.5326  0.0643
  152MOL0     H20498  -0.573   7.357   9.165 -2.8863  1.9712  0.6800
  152MOL0     H20499  -0.562   7.246   9.033 -2.3991 -0.4725 -1.5125
  152MOL0     H20500  -0.739   7.491   9.063 -1.6142  0.1652 -1.1952
  152MOL0     H20501  -0.781   7.320   9.040 -2.9985  2.8949  2.4898
  152MOL0     H20502   0.408   7.276   9.132  1.2766  0.4832  4.0718
  152MOL0     H20503   0.642   7.264   9.194  1.0076  2.3852  1.8615
  152MOL0     H20504   0.968   7.296   9.239  0.1794 -1.8275  0.8460
  152MOL0     H20505   1.198   7.238   9.279  0.9677  0.4476 -1.1930
  152MOL0     H20506   2.954   7.478   9.576 -0.6447 -1.3625 -1.8293
  152MOL0     H20507   3.152   7.363   9.610 -1.3901  0.6951 -1.5658
  152MOL0     H20508   3.561   7.218   9.747  3.1605 -0.1979  1.3048
  152MOL0     H20509   3.735   7.060   9.785  1.4684 -3.5053  3.0062
  152MOL0     H20510   3.836   6.859   9.691 -2.1087  0.7122  0.0705
  152MOL0     H20511   3.863   6.910   9.857  1.2595  1.5910 -2.4261
  152MOL0     H20512   3.898   6.620   9.774 -2.2312  0.7324 -0.7122
  152MOL0     H20513   3.903   6.675   9.933  2.9266 -2.6778  0.3655
  152MOL0     H20514   4.099   6.862   9.851  3.2763 -0.3542 -1.6494
  152MOL0     H20515   4.066   6.793   9.695 -3.3814  0.0063 -0.3447
  152MOL0     H20516   4.178   6.578   9.781 -0.4424  0.4547  0.4003
  152MOL0     H20517   4.190   6.649   9.943 -1.6526  0.4281  1.2636
  152MOL0     H20518   4.482   6.831   9.690  0.0814 -1.3537 -1.2674
  152MOL0     H20519   3.455   6.741   9.784  3.1628 -0.7631 -1.6412
  152MOL0     H20520   3.262   6.912   9.781 -0.0738 -3.2522 -3.6517
  153MOL0     O20521   2.173   7.169   2.052  0.2708 -0.0371 -0.0719
  153MOL0     C20522   2.210   7.270   1.997  0.2891  0.5315 -0.6194
  153MOL0     O20523   2.126   7.374   1.961  0.1637  0.1304 -0.2308
  153MOL0     C20524   1.991   7.394   1.989  0.1534  0.0015 -0.1256
  153MOL0     C20525   1.939   7.345   2.108  0.5450 -0.8604  0.2256
  153MOL0     C20526   1.815   7.382   2.150  0.1812  0.3954  0.3362
  153MOL0     C20527   1.740   7.481   2.081  0.0637  0.1676 -0.5825
  153MOL0     O20528   1.619   7.526   2.138 -0.3535 -0.4281  0.8680
  153MOL0     C20529   1.547   7.454   2.243 -0.0364  0.1165  0.3981
  153MOL0     C20530   1.435   7.371   2.183 -0.2113 -0.4089 -0.5116
  153MOL0     C20531   1.473   7.241   2.111 -0.3004 -0.1564 -0.0290
  153MOL0     C20532   1.359   7.150   2.076  0.5479  0.1660 -0.7531
  153MOL0     C20533   1.413   7.012   2.024  0.0096  0.1487  0.8530
  153MOL0     C20534   1.315   6.891   2.025 -1.0226 -0.6311 -0.5054
  153MOL0     C20535   1.387   6.759   2.015  0.7124 -0.0477 -0.3226
  153MOL0     C20536   1.450   6.728   1.877 -0.1676  0.6158 -0.0176
  153MOL0     N20537   1.359   6.740   1.763  0.1762  0.1221  0.3716
  153MOL0     C20538   1.235   6.675   1.738 -0.5460 -0.1238  0.0677
  153MOL0     C20539   1.196   6.736   1.625  0.3771 -0.2358 -0.5507
  153MOL0     C20540   1.051   6.716   1.583 -0.0524 -0.7547  0.3821
  153MOL0     C20541   0.981   6.855   1.570  0.3031  0.4859 -0.8687
  153MOL0     C20542   0.827   6.852   1.555  0.6365  0.3376  0.7628
  153MOL0     C20543   0.762   6.992   1.569  0.9142  0.6958 -0.3750
  153MOL0     O20544   0.616   6.988   1.601 -0.6795  0.1315 -0.8329
  153MOL0     C20545   0.565   6.946   1.719 -0.0726 -0.2425  0.3398
  153MOL0     C20546   0.426   6.968   1.720  0.5671 -0.6829  0.4306
  153MOL0     C20547   0.342   6.932   1.825 -0.5722  0.2205  0.5198
  153MOL0     C20548   0.199   6.969   1.803  0.3684  0.2259  0.0883
  153MOL0     C20549   0.409   6.885   1.944 -0.6395  0.6454 -0.7442
  153MOL0     C20550   0.346   6.833   2.071  0.8411 -0.9255  0.7954
  153MOL0     O20551   0.212   6.841   2.076  0.8355  0.0799 -0.3167
  153MOL0     C20552   0.130   6.801   2.192 -0.7031  0.0036  0.0425
  153MOL0     C20553   0.159   6.804   2.333 -0.2192 -0.3275  0.7970
  153MOL0     C20554   0.061   6.772   2.433 -0.6032  0.4989  0.7299
  153MOL0     C20555  -0.067   6.734   2.392 -0.3228 -0.1993  0.2742
  153MOL0     O20556  -0.178   6.709   2.471  0.3941  0.7308  0.5558
  153MOL0     C20557  -0.177   6.773   2.595  0.3110 -0.6368  0.1782
  153MOL0     C20558  -0.321   6.795   2.647 -0.8026 -0.9918  0.8427
  153MOL0     C20559  -0.331   6.890   2.765  0.5121 -0.7360 -0.6347
  153MOL0     C20560  -0.462   6.883   2.836  0.5554 -0.2055  0.1398
  153MOL0     C20561  -0.475   6.965   2.962 -0.7162  0.8746 -0.0258
  153MOL0     C20562  -0.618   6.970   3.008 -0.8091 -0.2591 -0.4857
  153MOL0     C20563  -0.639   7.047   3.139 -0.5502 -0.3940 -0.4692
  153MOL0     C20564  -0.789   7.057   3.197 -1.3744 -0.4740  0.2795
  153MOL0    Cl20565  -0.902   6.989   3.082  0.0549 -0.2166 -0.1349
  153MOL0     C20566  -0.089   6.709   2.255 -0.7439 -0.1040 -0.0169
  153MOL0     C20567   0.010   6.744   2.159  0.2010 -0.1921  0.3371
  153MOL0     O20568   0.418   6.791   2.157 -0.6129  0.3216  0.2196
  153MOL0     C20569   0.552   6.875   1.954 -0.0300 -0.0017 -0.4507
  153MOL0     C20570   0.627   6.904   1.837 -0.4099  0.3774 -0.8550
  153MOL0     N20571   1.298   6.822   1.576  0.1858  0.3342 -0.2845
  153MOL0     N20572   1.397   6.815   1.657  0.5675 -0.8718  0.5071
  153MOL0     C20573   1.794   7.538   1.976  0.7156  0.2835 -0.0691
  153MOL0     C20574   1.916   7.490   1.922 -0.1306  0.6670  0.7978
  153MOL0     C20575   2.352   7.305   1.965 -0.2924  1.0551 -0.6905
  153MOL0     C20576   2.447   7.209   1.996  0.1351  0.1299 -0.0030
  153MOL0     C20577   2.583   7.227   1.952 -0.5176  0.4119  0.0895
  153MOL0     C20578   2.620   7.350   1.891  0.0498 -0.4111  0.8168
  153MOL0     O20579   2.737   7.379   1.826 -0.3650 -0.0595  0.0684
  153MOL0     C20580   2.843   7.299   1.853 -0.3082  0.0315  0.3073
  153MOL0     C20581   2.977   7.378   1.821  0.2182 -0.0941  0.4385
  153MOL0     C20582   3.028   7.340   1.673 -0.0339 -0.7669 -0.1673
  153MOL0     C20583   3.144   7.435   1.624 -0.6704 -0.4773  0.7571
  153MOL0     C20584   3.269   7.417   1.700  0.2843 -0.7065  0.8483
  153MOL0     C20585   3.369   7.397   1.752  0.3039 -0.2435 -0.4155
  153MOL0     C20586   2.516   7.448   1.868 -0.5385  0.1482  0.2229
  153MOL0     C20587   2.387   7.420   1.904 -0.6171  0.2430  0.3996
  153MOL0     H20588   2.001   7.280   2.169  2.5638  0.0437 -0.7736
  153MOL0     H20589   1.775   7.322   2.231 -0.4076 -0.3660 -0.4965
  153MOL0     H20590   1.620   7.397   2.302  2.6744  0.4331 -2.3868
  153MOL0     H20591   1.504   7.531   2.307  0.3429  1.0464 -0.4517
  153MOL0     H20592   1.358   7.349   2.258  0.7809  1.3864  1.1172
  153MOL0     H20593   1.397   7.443   2.111 -2.7978  0.6437  1.7564
  153MOL0     H20594   1.542   7.262   2.029  0.8911 -4.0805 -0.2318
  153MOL0     H20595   1.526   7.183   2.187  0.3967  2.3897  1.5618
  153MOL0     H20596   1.310   7.126   2.171 -0.2118 -1.9365 -1.6330
  153MOL0     H20597   1.289   7.193   2.004  1.9423  2.2091 -0.9994
  153MOL0     H20598   1.461   7.026   1.926 -0.7364  0.3746  0.5143
  153MOL0     H20599   1.486   6.984   2.101  0.7180  2.0500  0.9389
  153MOL0     H20600   1.264   6.912   2.120  0.7107  2.5815 -0.1424
  153MOL0     H20601   1.229   6.900   1.958 -2.0536 -1.2534  0.6735
  153MOL0     H20602   1.468   6.743   2.086  0.9759 -2.9111 -1.1815
  153MOL0     H20603   1.310   6.688   2.046 -3.7451  3.7067 -1.5783
  153MOL0     H20604   1.483   6.624   1.886 -2.9080 -0.2137  1.8208
  153MOL0     H20605   1.535   6.794   1.858  1.4914 -1.7756 -1.4141
  153MOL0     H20606   1.181   6.615   1.810 -0.5053  0.4907  0.6270
  153MOL0     H20607   1.049   6.673   1.482  0.7202 -1.5152  0.6691
  153MOL0     H20608   0.994   6.651   1.650 -3.3828  0.4001 -1.0912
  153MOL0     H20609   1.022   6.910   1.486  2.3067 -2.3623 -1.9317
  153MOL0     H20610   1.000   6.913   1.661 -0.4601  0.7559 -0.8734
  153MOL0     H20611   0.795   6.777   1.628 -0.1749 -1.0366 -0.9073
  153MOL0     H20612   0.802   6.801   1.461  0.1086 -1.3190  1.7558
  153MOL0     H20613   0.773   7.050   1.477  3.1208 -2.7050 -2.4967
  153MOL0     H20614   0.819   7.038   1.649 -0.6847  0.8112  0.7520
  153MOL0     H20615   0.378   7.022   1.639 -0.6159 -1.4982  0.5555
  153MOL0     H20616   0.120   6.901   1.835  1.6832 -2.6137 -2.2223
  153MOL0     H20617   0.185   7.061   1.860 -0.6250  0.7251 -0.9213
  153MOL0     H20618   0.182   6.983   1.696  1.2662 -0.3287 -0.1356
  153MOL0     H20619   0.255   6.831   2.377 -0.3253 -0.4988  1.1393
  153MOL0     H20620   0.082   6.783   2.539  0.1144 -0.0662  0.6520
  153MOL0     H20621  -0.109   6.729   2.669 -1.6718 -3.8560  0.2984
  153MOL0     H20622  -0.147   6.877   2.577  1.5672 -1.2941 -1.7904
  153MOL0     H20623  -0.388   6.814   2.563 -0.2629  2.1209  1.0131
  153MOL0     H20624  -0.361   6.700   2.686 -1.1570 -1.3342 -0.3116
  153MOL0     H20625  -0.308   6.993   2.738  0.0006 -0.6986 -0.9365
  153MOL0     H20626  -0.250   6.859   2.832 -0.3456  0.0684  0.8301
  153MOL0     H20627  -0.545   6.917   2.773  0.0025  0.8923  1.4181
  153MOL0     H20628  -0.473   6.777   2.863 -1.3605  0.1970  1.0838
  153MOL0     H20629  -0.430   7.065   2.955  2.6720 -0.5999 -1.5228
  153MOL0     H20630  -0.413   6.910   3.033 -1.7954 -0.4656 -0.0786
  153MOL0     H20631  -0.678   7.025   2.934  0.8756 -1.3904 -2.7928
  153MOL0     H20632  -0.655   6.868   3.020 -0.3609 -0.2254  1.4669
  153MOL0     H20633  -0.604   7.150   3.126 -0.4760  0.0160  2.4183
  153MOL0     H20634  -0.577   7.015   3.223 -1.4691 -1.1489 -0.0623
  153MOL0     H20635  -0.809   7.162   3.222  0.7943  0.7609 -2.6423
  153MOL0     H20636  -0.808   7.011   3.295 -0.4595  2.4849  1.9994
  153MOL0     H20637  -0.181   6.673   2.211  0.9080 -1.8920 -2.2745
  153MOL0     H20638  -0.024   6.743   2.057  2.9233 -0.5924 -0.6547
  153MOL0     H20639   0.616   6.837   2.033 -1.0248  0.8204  0.7847
  153MOL0     H20640   0.736   6.897   1.835 -0.4447 -1.3139  0.7694
  153MOL0     H20641   1.741   7.619   1.926 -5.3467 -2.9471  0.1234
  153MOL0     H20642   1.966   7.537   1.838  1.3729  1.6633  2.1943
  153MOL0     H20643   2.410   7.114   2.033 -1.6625  1.7690  2.7448
  153MOL0     H20644   2.654   7.146   1.956 -1.0069 -0.2645 -2.7533
  153MOL0     H20645   2.859   7.287   1.961  3.8101  0.2835 -0.0968
  153MOL0     H20646   2.837   7.198   1.813 -1.9983 -0.6259  2.0864
  153MOL0     H20647   3.041   7.350   1.905  0.5685  2.0643  0.9438
  153MOL0     H20648   2.971   7.487   1.818 -0.4645 -0.1548 -1.0430
  153MOL0     H20649   2.945   7.340   1.602 -0.0751 -1.5670 -0.1189
  153MOL0     H20650   3.068   7.239   1.679  0.5711 -0.5358 -0.1787
  153MOL0     H20651   3.118   7.540   1.637  1.7990  0.3270 -0.2802
  153MOL0     H20652   3.161   7.421   1.517 -2.4459  1.0472  0.2092
  153MOL0     H20653   3.462   7.370   1.797  0.5020 -0.7336 -1.0983
  153MOL0     H20654   2.548   7.532   1.809  1.9660 -1.7062 -1.2446
  153MOL0     H20655   2.317   7.502   1.889 -0.6154 -0.2643 -3.3576
  154MOL0     O20656   0.741  10.876  10.142 -0.2574 -0.3351  0.4824
  154MOL0     C20657   0.747  10.752  10.108  0.0755 -0.2375  0.9783
  154MOL0     O20658   0.836  10.703  10.017  0.0042  0.5784 -0.3983
  154MOL0     C20659   0.937  10.781   9.972  0.2031  0.7262  0.3097
  154MOL0     C20660   0.957  10.774   9.831  0.0341  0.1878  0.2123
  154MOL0     C20661   1.055  10.851   9.759  0.7873  0.3025 -0.2084
  154MOL0     C20662   1.142  10.930   9.837 -0.0253 -0.2675  0.9607
  154MOL0     O20663   1.234  11.017   9.777 -0.1627  0.7503  0.6008
  154MOL0     C20664   1.273  10.995   9.639 -0.5545  0.0381 -0.0389
  154MOL0     C20665   1.414  11.062   9.603  0.3756 -0.2368 -0.2917
  154MOL0     C20666   1.525  11.042   9.707  0.5501 -0.3559  0.1256
  154MOL0     C20667   1.659  11.115   9.651  0.1579 -0.3784  1.0470
  154MOL0     C20668   1.778  11.041   9.705 -0.5320  0.1532  0.2355
  154MOL0     C20669   1.904  11.104   9.643 -0.0833 -0.1176 -0.1036
  154MOL0     C20670   2.030  11.085   9.740  1.0891 -0.4760  0.0479
  154MOL0     C20671   2.075  10.940   9.740 -0.9695 -0.1430 -0.0787
  154MOL0     N20672   2.146  10.897   9.858  0.0673 -0.1759 -0.2619
  154MOL0     C20673   2.080  10.839   9.968 -0.7583 -0.3297  0.2830
  154MOL0     C20674   2.180  10.787  10.042  0.1756 -0.0823 -1.6781
  154MOL0     C20675   2.158  10.705  10.168 -0.3092  0.3141  0.5454
  154MOL0     C20676   2.087  10.768  10.289  0.5459 -0.6360  0.4065
  154MOL0     C20677   1.948  10.819  10.262  0.0000  0.5551  0.1751
  154MOL0     C20678   1.847  10.787  10.367  0.1217  0.7066 -0.4411
  154MOL0     O20679   1.887  10.843  10.494 -0.1391 -0.2888 -0.0652
  154MOL0     C20680   1.792  10.881  10.583 -0.5084 -0.6260 -0.2182
  154MOL0     C20681   1.831  10.960  10.690 -0.1864  0.0096  0.2832
  154MOL0     C20682   1.733  11.028  10.772 -1.1223  0.1606  0.4160
  154MOL0     C20683   1.781  11.137  10.862  1.0200  0.4384  0.3763
  154MOL0     C20684   1.596  11.000  10.758 -0.1913  0.4233  0.7173
  154MOL0     C20685   1.493  11.046  10.844 -0.2682 -0.3000  0.3971
  154MOL0     O20686   1.378  11.089  10.782  0.4949 -0.2064 -0.0833
  154MOL0     C20687   1.262  11.110  10.854  0.4708 -0.0011  0.0346
  154MOL0     C20688   1.145  11.078  10.775  0.4634  0.0260 -0.6483
  154MOL0     C20689   1.020  11.100  10.839  0.1417  0.4187 -0.0654
  154MOL0     C20690   1.005  11.147  10.966 -0.9479  0.9276 -0.6425
  154MOL0     O20691   0.879  11.170  11.012 -0.2629 -0.0361  0.9390
  154MOL0     C20692   0.854  11.178  11.150 -0.2376 -0.1617  0.0593
  154MOL0     C20693   0.706  11.194  11.187  0.0141  0.1856  0.0262
  154MOL0     C20694   0.618  11.090  11.106 -1.0968 -0.4009  0.3452
  154MOL0     C20695   0.484  11.063  11.184  0.5257 -0.6412 -0.0319
  154MOL0     C20696   0.409  10.945  11.107 -0.8708  0.2254 -0.3382
  154MOL0     C20697   0.292  10.881  11.184 -0.4038  0.6239  0.7931
  154MOL0     C20698   0.247  10.737  11.149  0.1895  0.0831  0.4174
  154MOL0     C20699   0.133  10.676  11.231  0.6556 -0.2551 -1.1756
  154MOL0    Cl20700   0.192  10.666  11.395 -0.3110  0.0746 -0.0243
  154MOL0     C20701   1.118  11.177  11.046  0.6361 -0.4075 -0.1820
  154MOL0     C20702   1.249  11.166  10.982  1.1429  0.2619 -0.6379
  154MOL0     O20703   1.522  11.063  10.966 -0.1042 -0.6703 -0.4777
  154MOL0     C20704   1.561  10.912  10.652  1.1014  0.2421  0.5928
  154MOL0     C20705   1.652  10.859  10.568 -0.4252 -0.3403  0.2661
  154MOL0     N20706   2.299  10.804   9.974 -0.2088  0.0539  0.1648
  154MOL0     N20707   2.280  10.872   9.867  0.5012 -0.1765  0.1349
  154MOL0     C20708   1.133  10.934   9.977 -0.1460 -0.0351  1.2502
  154MOL0     C20709   1.029  10.865  10.037 -1.4933  0.6517 -0.1599
  154MOL0     C20710   0.640  10.660  10.142 -0.8163 -0.0618 -0.1310
  154MOL0     C20711   0.637  10.530  10.089 -0.1084  0.1280  0.6020
  154MOL0     C20712   0.535  10.440  10.127 -0.1333 -0.0577 -0.3119
  154MOL0     C20713   0.439  10.483  10.217  0.7946  0.5351 -0.2631
  154MOL0     O20714   0.347  10.382  10.247 -0.4173  0.9801 -0.1935
  154MOL0     C20715   0.246  10.399  10.349 -0.0994 -0.2030  0.4163
  154MOL0     C20716   0.110  10.417  10.284 -0.8292 -0.7273 -0.1096
  154MOL0     C20717  -0.002  10.445  10.384 -0.4966  0.4630 -0.6616
  154MOL0     C20718   0.012  10.569  10.472  0.5830  0.5216 -0.5843
  154MOL0     C20719   0.021  10.702  10.406 -0.5081 -0.1203  0.4799
  154MOL0     C20720   0.025  10.815  10.364 -0.7414  0.1282 -0.9851
  154MOL0     C20721   0.435  10.611  10.256 -0.1295  0.5139 -0.0703
  154MOL0     C20722   0.536  10.703  10.218 -0.4703 -0.0464 -0.3844
  154MOL0     H20723   0.897  10.710   9.768 -0.0531  1.5680 -1.1824
  154MOL0     H20724   1.060  10.841   9.651 -0.3836 -1.7246 -0.1261
  154MOL0     H20725   1.288  10.887   9.627 -2.1231 -0.2486  0.3520
  154MOL0     H20726   1.191  11.033   9.577  0.0472 -0.7220 -1.3512
  154MOL0     H20727   1.443  11.021   9.505  1.5026  0.6277 -0.3443
  154MOL0     H20728   1.408  11.169   9.583  2.2942  0.2375  1.3223
  154MOL0     H20729   1.491  11.096   9.795 -2.3480 -3.6330  1.2389
  154MOL0     H20730   1.541  10.937   9.734 -1.7333 -0.6683  0.4631
  154MOL0     H20731   1.670  11.094   9.544 -0.8964 -3.1493  1.3944
  154MOL0     H20732   1.666  11.222   9.670 -0.8433 -0.1170  0.0969
  154MOL0     H20733   1.788  11.044   9.814  2.3576 -2.7114  0.1944
  154MOL0     H20734   1.764  10.937   9.675  0.1583  0.3436 -0.7833
  154MOL0     H20735   1.910  11.073   9.539 -0.4760  0.4275 -0.2965
  154MOL0     H20736   1.892  11.213   9.649  0.7680 -0.0154 -0.1792
  154MOL0     H20737   2.120  11.145   9.721  1.5163  0.0914  3.3040
  154MOL0     H20738   2.009  11.117   9.842  2.0164  0.7555 -0.1255
  154MOL0     H20739   2.140  10.927   9.653  0.1593 -0.3995  0.7900
  154MOL0     H20740   1.993  10.873   9.710  0.2938 -1.8195  0.1209
  154MOL0     H20741   1.975  10.825   9.990 -0.0201 -3.0444  2.5707
  154MOL0     H20742   2.095  10.624  10.131 -1.1987  0.7363  1.0916
  154MOL0     H20743   2.255  10.665  10.200  0.3896  1.2849 -0.3127
  154MOL0     H20744   2.150  10.851  10.321 -0.2102 -0.6335  1.9767
  154MOL0     H20745   2.079  10.694  10.369  1.8586 -1.0342  0.1859
  154MOL0     H20746   1.916  10.773  10.168  1.9171  0.8430 -0.6701
  154MOL0     H20747   1.953  10.928  10.252 -2.1954  0.7207  0.3815
  154MOL0     H20748   1.824  10.680  10.373 -1.9173  1.1428  0.4209
  154MOL0     H20749   1.756  10.836  10.330  0.0234  0.6566 -0.2687
  154MOL0     H20750   1.938  10.979  10.703 -0.4855  1.3389  0.9536
  154MOL0     H20751   1.882  11.168  10.835  1.0517 -1.1249 -1.5779
  154MOL0     H20752   1.724  11.230  10.851  0.2761 -0.2842 -3.0879
  154MOL0     H20753   1.775  11.101  10.965 -2.5510  1.1329  0.5460
  154MOL0     H20754   1.154  11.033  10.677 -2.1423 -3.4622  0.5019
  154MOL0     H20755   0.925  11.083  10.790 -0.8658  0.3443  1.8039
  154MOL0     H20756   0.883  11.086  11.203 -1.4857 -0.9441 -0.5676
  154MOL0     H20757   0.917  11.264  11.176 -0.7583  1.0267 -2.3585
  154MOL0     H20758   0.701  11.178  11.296  2.6992  2.2519  0.5614
  154MOL0     H20759   0.667  11.295  11.172 -0.0392  0.0628 -0.6585
  154MOL0     H20760   0.666  10.995  11.083 -0.5126 -0.4810  1.8415
  154MOL0     H20761   0.589  11.123  11.005 -1.2605  1.6595  1.0173
  154MOL0     H20762   0.502  11.029  11.286 -1.5156 -1.9822 -0.0702
  154MOL0     H20763   0.419  11.151  11.190  2.1950  0.5229  2.4525
  154MOL0     H20764   0.484  10.865  11.109 -1.6367 -0.6111 -2.2149
  154MOL0     H20765   0.383  10.971  11.004 -0.1195 -2.4219 -1.2730
  154MOL0     H20766   0.321  10.884  11.290  3.7001  0.7103 -0.1622
  154MOL0     H20767   0.202  10.943  11.178 -2.3469 -2.0924 -0.3097
  154MOL0     H20768   0.337  10.674  11.147 -0.8826 -1.5229 -0.9783
  154MOL0     H20769   0.213  10.749  11.046  0.7517 -2.3435 -0.1149
  154MOL0     H20770   0.099  10.575  11.206  1.1095 -1.2356  1.7597
  154MOL0     H20771   0.050  10.746  11.241  0.7961 -0.0758 -1.2536
  154MOL0     H20772   1.126  11.224  11.144 -1.0238 -0.1059 -0.1723
  154MOL0     H20773   1.339  11.195  11.035  0.7548  1.4155 -0.5849
  154MOL0     H20774   1.453  10.902  10.650  1.2111 -1.5265 -2.3722
  154MOL0     H20775   1.614  10.793  10.491  2.7850 -2.6928  0.5025
  154MOL0     H20776   1.201  11.002  10.025 -0.0434  1.4056 -0.8015
  154MOL0     H20777   1.014  10.880  10.143 -0.5125 -1.7225  0.3812
  154MOL0     H20778   0.720  10.498  10.027  1.2057  2.8488  0.7960
  154MOL0     H20779   0.524  10.340  10.088 -0.7656 -0.3361  0.5600
  154MOL0     H20780   0.238  10.301  10.397  0.1720 -1.8769 -2.7037
  154MOL0     H20781   0.273  10.483  10.414 -0.9479  2.1406 -2.0527
  154MOL0     H20782   0.098  10.325  10.227  0.2002  0.8945 -3.1620
  154MOL0     H20783   0.116  10.497  10.210 -1.2267 -1.1578 -0.6140
  154MOL0     H20784  -0.031  10.358  10.444 -3.6007  1.1581 -0.9622
  154MOL0     H20785  -0.096  10.447  10.327 -0.9691  1.0090  0.1098
  154MOL0     H20786   0.095  10.555  10.541 -1.1278 -3.5290  0.9957
  154MOL0     H20787  -0.082  10.572  10.529 -0.8488 -1.9965 -2.5793
  154MOL0     H20788   0.025  10.920  10.343  0.9114  0.5092  0.6056
  154MOL0     H20789   0.356  10.643  10.323  2.8915  1.3505  3.4508
  154MOL0     H20790   0.534  10.804  10.258  1.1860 -0.5980  1.2511
  155MOL0     O20791   3.883   6.234   4.878 -0.2814  0.3468  0.1755
  155MOL0     C20792   3.902   6.169   4.769  0.7431 -0.6296 -0.6608
  155MOL0     O20793   3.808   6.155   4.665 -0.2460  1.2012 -0.2227
  155MOL0     C20794   3.685   6.220   4.648 -0.2453  0.7215  0.0435
  155MOL0     C20795   3.614   6.308   4.733  0.0711  0.4731  0.1426
  155MOL0     C20796   3.496   6.354   4.679 -0.7614 -0.0526 -0.0110
  155MOL0     C20797   3.427   6.304   4.569 -0.2810 -0.1920  0.0614
  155MOL0     O20798   3.294   6.341   4.532 -0.2695 -0.9554  0.4221
  155MOL0     C20799   3.282   6.490   4.509  0.3860 -0.6403  0.5731
  155MOL0     C20800   3.170   6.524   4.414  0.1782 -0.7463 -0.3603
  155MOL0     C20801   3.039   6.468   4.457  1.1771  0.1394 -0.0527
  155MOL0     C20802   2.921   6.506   4.365 -0.5575 -0.2652  0.4532
  155MOL0     C20803   2.786   6.450   4.416 -0.2079 -0.4106 -0.0061
  155MOL0     C20804   2.670   6.468   4.313  0.4848 -0.0774  0.2411
  155MOL0     C20805   2.534   6.415   4.384 -0.4724 -0.3700 -0.5161
  155MOL0     C20806   2.406   6.474   4.325 -0.2230  0.2188  0.0684
  155MOL0     N20807   2.372   6.407   4.199  0.0867 -0.0315  0.5984
  155MOL0     C20808   2.441   6.412   4.076  0.3173 -0.0611  0.1909
  155MOL0     C20809   2.387   6.314   3.999  0.4479 -0.0763  1.0686
  155MOL0     C20810   2.414   6.277   3.857  0.3407 -0.5528 -0.0382
  155MOL0     C20811   2.280   6.222   3.794 -0.1869 -0.2046  0.5825
  155MOL0     C20812   2.192   6.338   3.745  0.4413  0.1546  1.2976
  155MOL0     C20813   2.099   6.292   3.640  0.5918  0.1980  0.8037
  155MOL0     O20814   2.025   6.179   3.692 -0.0049 -0.1581 -0.4439
  155MOL0     C20815   1.888   6.186   3.681 -0.0290 -0.0975  0.5281
  155MOL0     C20816   1.812   6.228   3.568  0.2376  0.0833 -0.4862
  155MOL0     C20817   1.668   6.233   3.571  0.2717  1.0310 -0.6651
  155MOL0     C20818   1.590   6.288   3.453 -0.1586 -1.3345 -0.6105
  155MOL0     C20819   1.596   6.182   3.689  0.1545  0.0273 -1.1774
  155MOL0     C20820   1.449   6.169   3.692 -0.1633 -0.1115 -0.0742
  155MOL0     O20821   1.383   6.099   3.595 -0.1330 -0.1603  0.2313
  155MOL0     C20822   1.254   6.059   3.627 -0.1919  0.0844 -0.5137
  155MOL0     C20823   1.152   6.153   3.604  0.6556 -0.0158 -0.0725
  155MOL0     C20824   1.016   6.122   3.621 -0.1857 -0.5157  0.0620
  155MOL0     C20825   0.981   5.995   3.671  0.8783  0.5561  0.8841
  155MOL0     O20826   0.845   5.965   3.649  0.0067 -0.2487 -0.4618
  155MOL0     C20827   0.792   5.852   3.722  0.4204  0.4311 -1.0503
  155MOL0     C20828   0.635   5.857   3.734  0.1158 -0.2525  0.0606
  155MOL0     C20829   0.592   5.982   3.817  0.7235  0.7615 -0.2929
  155MOL0     C20830   0.441   5.993   3.819 -0.2414  0.1365 -0.7292
  155MOL0     C20831   0.384   6.134   3.855 -0.6334  0.6008 -0.5341
  155MOL0     C20832   0.237   6.148   3.876  0.3056  0.2706  0.1774
  155MOL0     C20833   0.160   6.104   3.753 -0.4398  0.0180 -0.6497
  155MOL0     C20834   0.008   6.114   3.787 -1.0623  0.4944 -0.6944
  155MOL0    Cl20835  -0.082   6.053   3.656  0.1956  0.7525 -0.2708
  155MOL0     C20836   1.077   5.897   3.683  0.3503 -0.1151  0.0825
  155MOL0     C20837   1.215   5.929   3.666 -0.3463 -1.4435  0.3018
  155MOL0     O20838   1.394   6.216   3.789  0.0314 -0.2232 -0.8649
  155MOL0     C20839   1.674   6.138   3.799  0.1324  0.9062  0.3573
  155MOL0     C20840   1.812   6.144   3.792  0.4137 -0.7863 -0.1040
  155MOL0     N20841   2.294   6.247   4.080 -0.9478 -0.6742  1.0532
  155MOL0     N20842   2.290   6.300   4.197  1.0357 -0.0602 -1.1261
  155MOL0     C20843   3.494   6.211   4.493 -0.1674  0.2452 -0.0606
  155MOL0     C20844   3.620   6.170   4.533  0.3605  0.2565 -0.2094
  155MOL0     C20845   4.035   6.133   4.726 -0.4678  0.2917 -0.2112
  155MOL0     C20846   4.080   6.149   4.595 -0.0960 -0.4088 -0.0226
  155MOL0     C20847   4.215   6.129   4.567  0.2514  0.3364 -1.0964
  155MOL0     C20848   4.301   6.095   4.670 -0.5949  0.7258  0.0277
  155MOL0     O20849   4.436   6.067   4.657  0.3294  0.0843 -0.6636
  155MOL0     C20850   4.499   6.070   4.527  0.1625  0.0582  0.7407
  155MOL0     C20851   4.647   6.018   4.529 -0.1678 -0.8519 -0.7086
  155MOL0     C20852   4.678   5.965   4.391  0.7265  0.1236  0.5766
  155MOL0     C20853   4.817   5.897   4.372 -0.0520 -0.5441  0.2657
  155MOL0     C20854   4.903   6.001   4.319 -0.1298  0.7071  0.3288
  155MOL0     C20855   4.967   6.101   4.290  1.0851 -0.2292  0.4123
  155MOL0     C20856   4.255   6.080   4.801 -0.3499 -0.0714 -1.0356
  155MOL0     C20857   4.121   6.107   4.835  0.7620  0.3017  0.5509
  155MOL0     H20858   3.647   6.341   4.831 -2.1939  0.5735  0.9268
  155MOL0     H20859   3.424   6.418   4.730  0.1279  0.6311  0.4070
  155MOL0     H20860   3.272   6.542   4.604 -0.2409  0.7644 -0.2284
  155MOL0     H20861   3.370   6.529   4.457 -1.1953  1.1507 -0.8730
  155MOL0     H20862   3.162   6.632   4.394 -3.8200 -1.5224 -4.3762
  155MOL0     H20863   3.200   6.494   4.313 -1.7340  2.0736 -1.9029
  155MOL0     H20864   3.051   6.360   4.472  1.9107  0.3742  1.2346
  155MOL0     H20865   3.020   6.517   4.553 -0.0311  2.0562 -1.1949
  155MOL0     H20866   2.927   6.614   4.351  0.4742  0.2362  3.7120
  155MOL0     H20867   2.953   6.453   4.275  0.5037  0.7310  0.2176
  155MOL0     H20868   2.791   6.344   4.443  1.2382 -0.1897  0.7218
  155MOL0     H20869   2.774   6.487   4.518 -1.0635  1.8167 -0.8533
  155MOL0     H20870   2.650   6.567   4.272 -0.6604 -1.1477 -2.0145
  155MOL0     H20871   2.686   6.409   4.222 -0.1754  2.2964 -1.5247
  155MOL0     H20872   2.535   6.308   4.366 -2.6294 -1.0253  2.4569
  155MOL0     H20873   2.546   6.431   4.492 -0.3476  3.1845 -0.9275
  155MOL0     H20874   2.420   6.579   4.298  1.1024  0.6019  2.0313
  155MOL0     H20875   2.312   6.465   4.379 -1.3321 -0.2534 -1.8615
  155MOL0     H20876   2.520   6.477   4.039  0.9094 -1.4451 -1.1216
  155MOL0     H20877   2.450   6.364   3.801  1.6035  0.0882  1.6740
  155MOL0     H20878   2.494   6.203   3.852  0.1801 -0.8816  1.6830
  155MOL0     H20879   2.236   6.149   3.862  0.7301 -1.1555  0.1885
  155MOL0     H20880   2.306   6.168   3.702  1.3320 -1.2958  1.5962
  155MOL0     H20881   2.268   6.408   3.710  1.3082 -1.9417 -1.2926
  155MOL0     H20882   2.131   6.378   3.827  0.2748  1.2353  0.6739
  155MOL0     H20883   2.152   6.259   3.550 -3.0883 -1.9810 -0.8005
  155MOL0     H20884   2.033   6.372   3.606  1.1146 -0.1396 -1.1415
  155MOL0     H20885   1.855   6.271   3.478  0.8158 -0.2772 -0.3834
  155MOL0     H20886   1.550   6.211   3.386 -0.3660  1.0364 -3.4025
  155MOL0     H20887   1.507   6.355   3.477 -0.3290 -0.7845 -2.5673
  155MOL0     H20888   1.665   6.347   3.400 -0.6384 -1.1030 -1.0510
  155MOL0     H20889   1.186   6.247   3.563  0.2952 -0.0875 -0.5463
  155MOL0     H20890   0.941   6.190   3.581  0.6682 -0.6622 -1.8718
  155MOL0     H20891   0.825   5.767   3.661  1.6520 -0.8355  1.2426
  155MOL0     H20892   0.832   5.858   3.824 -1.4039 -1.3476 -0.1484
  155MOL0     H20893   0.603   5.869   3.630  3.5186 -1.7072 -1.2924
  155MOL0     H20894   0.587   5.768   3.775 -2.2660  0.5304 -0.8619
  155MOL0     H20895   0.635   6.070   3.769 -1.9724  1.7858 -1.0573
  155MOL0     H20896   0.627   5.977   3.920  0.4069  3.3173 -0.0108
  155MOL0     H20897   0.418   5.962   3.717 -0.5218 -2.3486  0.0357
  155MOL0     H20898   0.404   5.915   3.885  0.6187 -2.1866 -2.8322
  155MOL0     H20899   0.413   6.204   3.776 -0.4574 -2.1640 -3.1002
  155MOL0     H20900   0.431   6.157   3.951 -0.8086  0.8074 -0.4970
  155MOL0     H20901   0.192   6.080   3.950 -0.5735 -1.7941 -2.0930
  155MOL0     H20902   0.212   6.250   3.906 -1.8692 -1.0233  3.2333
  155MOL0     H20903   0.185   5.999   3.735  0.2042  0.4416 -2.3955
  155MOL0     H20904   0.191   6.168   3.670 -2.7833  3.0493  0.6078
  155MOL0     H20905  -0.029   6.216   3.802 -1.4926  0.3859 -1.0110
  155MOL0     H20906  -0.026   6.048   3.868  0.9475 -1.1645 -1.1001
  155MOL0     H20907   1.045   5.796   3.707  0.1194  0.2644  1.4525
  155MOL0     H20908   1.289   5.850   3.675  1.9331  0.5869  0.3611
  155MOL0     H20909   1.617   6.107   3.886  0.8761 -0.9363  0.2340
  155MOL0     H20910   1.867   6.107   3.878 -2.1953  0.5166  2.2816
  155MOL0     H20911   3.454   6.167   4.401  1.1450 -3.6879  1.0364
  155MOL0     H20912   3.654   6.104   4.454 -0.3728  0.3691 -0.6389
  155MOL0     H20913   4.022   6.186   4.511  1.7542 -1.3108 -1.7834
  155MOL0     H20914   4.252   6.134   4.465  1.5441 -0.9906 -0.7341
  155MOL0     H20915   4.446   6.005   4.458  0.5542  0.2934  0.2068
  155MOL0     H20916   4.493   6.173   4.489 -0.3749 -0.3341 -0.2721
  155MOL0     H20917   4.671   5.939   4.600  2.7422 -0.2838 -0.9079
  155MOL0     H20918   4.709   6.103   4.560 -2.1220 -0.3634  2.2593
  155MOL0     H20919   4.641   6.032   4.314 -0.7805  0.2834  1.3939
  155MOL0     H20920   4.607   5.881   4.385  0.0044  0.6621  1.2843
  155MOL0     H20921   4.807   5.821   4.294 -1.9921  0.9387 -1.0399
  155MOL0     H20922   4.854   5.856   4.466 -2.3772 -0.2146  1.3973
  155MOL0     H20923   5.029   6.188   4.283  4.4081 -2.1939  2.5633
  155MOL0     H20924   4.327   6.052   4.877  4.4738 -1.9791 -5.6516
  155MOL0     H20925   4.088   6.101   4.938 -0.5782 -0.7559  0.0984
  156MOL0     O20926   5.281   5.529   1.784  0.1654  0.1653 -0.4579
  156MOL0     C20927   5.272   5.418   1.733 -0.5997  0.0309  0.5183
  156MOL0     O20928   5.172   5.327   1.752  0.3675  0.0501  0.2478
  156MOL0     C20929   5.083   5.351   1.856 -0.8859 -0.0002 -1.0107
  156MOL0     C20930   5.054   5.245   1.938  0.2259  0.5702 -0.5121
  156MOL0     C20931   4.968   5.259   2.051 -0.1276 -0.4335 -0.2325
  156MOL0     C20932   4.914   5.383   2.086  0.2441 -0.4307 -0.3670
  156MOL0     O20933   4.829   5.401   2.189 -0.3565  0.2061  0.1705
  156MOL0     C20934   4.717   5.498   2.174 -0.2912 -0.0013 -0.1276
  156MOL0     C20935   4.593   5.455   2.260  0.0687 -0.1144  0.7531
  156MOL0     C20936   4.497   5.568   2.284  0.2894  0.2884 -0.0467
  156MOL0     C20937   4.383   5.512   2.383 -0.0980  0.1345  0.0339
  156MOL0     C20938   4.386   5.561   2.535 -1.2917 -0.6535  0.0800
  156MOL0     C20939   4.276   5.510   2.609  0.6475 -0.2344  0.0992
  156MOL0     C20940   4.310   5.533   2.754  0.3459 -0.4546  0.6652
  156MOL0     C20941   4.188   5.495   2.835 -0.0483  1.0523 -0.8344
  156MOL0     N20942   4.092   5.602   2.853 -0.4772  0.1140 -0.4102
  156MOL0     C20943   3.979   5.608   2.771  0.4497 -0.8041 -0.4513
  156MOL0     C20944   3.927   5.736   2.796 -0.3013 -0.0098  0.8376
  156MOL0     C20945   3.797   5.791   2.755  0.4350  0.4303  0.1783
  156MOL0     C20946   3.697   5.768   2.863 -0.3963  0.7027  0.6424
  156MOL0     C20947   3.628   5.632   2.869 -0.3093  0.0675  0.0647
  156MOL0     C20948   3.481   5.642   2.908 -0.2658 -0.2060  0.3446
  156MOL0     O20949   3.472   5.677   3.053  0.7883  0.2025  0.5649
  156MOL0     C20950   3.345   5.665   3.112 -1.2427  0.0977 -0.1777
  156MOL0     C20951   3.335   5.743   3.229 -0.1522 -0.1796  0.2069
  156MOL0     C20952   3.213   5.743   3.308 -0.9791 -0.3825  0.5931
  156MOL0     C20953   3.200   5.837   3.425 -0.2291 -0.1776  0.4805
  156MOL0     C20954   3.102   5.668   3.263 -0.6529 -0.1990  0.0667
  156MOL0     C20955   2.968   5.650   3.327  0.9048  0.4431  0.3599
  156MOL0     O20956   2.865   5.604   3.246  0.0500  0.3995  0.1586
  156MOL0     C20957   2.736   5.586   3.284  0.1004 -0.4468 -0.4641
  156MOL0     C20958   2.633   5.630   3.203 -0.1708  0.3343  0.3273
  156MOL0     C20959   2.498   5.631   3.242  0.6229  0.3350  0.5141
  156MOL0     C20960   2.457   5.579   3.364 -0.3864 -0.1400  0.5012
  156MOL0     O20961   2.327   5.575   3.405  0.1543  0.9121 -0.0360
  156MOL0     C20962   2.224   5.580   3.311 -0.7606 -0.7056 -0.0361
  156MOL0     C20963   2.089   5.534   3.379  0.0575 -0.0694 -0.1439
  156MOL0     C20964   2.068   5.389   3.419 -0.8456 -0.2690  0.3037
  156MOL0     C20965   2.140   5.283   3.337  0.0874 -0.4758 -0.8665
  156MOL0     C20966   2.059   5.154   3.347  0.8176 -0.5999  0.4775
  156MOL0     C20967   1.958   5.140   3.237  0.0052 -0.1308 -0.3915
  156MOL0     C20968   1.881   5.010   3.267  0.1928  0.4495 -0.0319
  156MOL0     C20969   1.966   4.878   3.254  0.1259  0.2043 -0.7207
  156MOL0    Cl20970   2.051   4.883   3.101  0.3603 -0.2833  0.0611
  156MOL0     C20971   2.561   5.531   3.448  0.2405  0.7980  0.4051
  156MOL0     C20972   2.694   5.538   3.408 -0.3619  0.2716 -0.7914
  156MOL0     O20973   2.956   5.689   3.443  0.7814  0.9804  0.3132
  156MOL0     C20974   3.110   5.605   3.126 -0.4952  0.5316 -0.9387
  156MOL0     C20975   3.230   5.603   3.059  0.9175  0.2789 -0.0625
  156MOL0     N20976   4.018   5.802   2.884  0.4001  1.2067 -0.2768
  156MOL0     N20977   4.115   5.722   2.911  1.2074 -0.0349  0.0922
  156MOL0     C20978   4.949   5.490   2.002  0.4653  0.0583  0.2401
  156MOL0     C20979   5.030   5.476   1.890  0.0836 -0.1913  1.1246
  156MOL0     C20980   5.383   5.376   1.651  0.1984 -0.2635  0.7440
  156MOL0     C20981   5.485   5.463   1.620  0.2148 -0.4922  0.2657
  156MOL0     C20982   5.596   5.418   1.545  0.0913  0.0377 -0.1122
  156MOL0     C20983   5.604   5.291   1.497  0.1871  0.0209  0.4701
  156MOL0     O20984   5.713   5.245   1.423  0.3913  0.0899  0.6389
  156MOL0     C20985   5.837   5.313   1.419  0.1760 -0.1120 -0.2260
  156MOL0     C20986   5.953   5.237   1.464  0.1318 -0.3623 -0.4853
  156MOL0     C20987   5.974   5.094   1.394  1.2867 -0.2903 -0.0185
  156MOL0     C20988   6.006   5.115   1.245  0.4513  0.6431  0.5075
  156MOL0     C20989   6.105   5.021   1.199  0.2931  0.2360  0.7448
  156MOL0     C20990   6.173   4.931   1.152  0.8756 -0.3892 -0.2487
  156MOL0     C20991   5.496   5.203   1.521  0.6760  0.3548  0.0924
  156MOL0     C20992   5.382   5.245   1.592 -0.1333  1.2901 -0.7598
  156MOL0     H20993   5.096   5.147   1.915  0.6173  0.4752  0.5578
  156MOL0     H20994   4.930   5.185   2.121  0.6501  0.2788  0.9979
  156MOL0     H20995   4.762   5.591   2.210  0.2506 -0.1115 -0.5045
  156MOL0     H20996   4.682   5.504   2.070 -1.0868  0.7545  0.1772
  156MOL0     H20997   4.549   5.367   2.213 -1.2583  1.5782 -1.3774
  156MOL0     H20998   4.616   5.432   2.365  0.3235  1.7983  1.1493
  156MOL0     H20999   4.544   5.652   2.336 -0.6017 -0.4029  2.0167
  156MOL0     H21000   4.464   5.604   2.186  0.3286 -0.5654 -0.3787
  156MOL0     H21001   4.288   5.546   2.341 -1.5119 -1.1209  2.0380
  156MOL0     H21002   4.383   5.404   2.396 -1.8540 -0.0325 -1.0651
  156MOL0     H21003   4.478   5.530   2.584 -0.3258  0.4449 -0.9638
  156MOL0     H21004   4.404   5.668   2.534  0.3029 -0.8866 -1.5889
  156MOL0     H21005   4.188   5.565   2.575  0.5201 -1.3079 -1.4013
  156MOL0     H21006   4.251   5.407   2.581 -1.2467  1.2304 -4.6185
  156MOL0     H21007   4.397   5.471   2.777  1.4202  0.4108 -0.9686
  156MOL0     H21008   4.345   5.635   2.770  0.3211  0.1634 -2.6616
  156MOL0     H21009   4.231   5.462   2.930  0.4899  4.5182  0.2743
  156MOL0     H21010   4.133   5.407   2.801 -0.6081  1.3712 -0.7817
  156MOL0     H21011   3.938   5.537   2.700 -1.0811 -1.4070  0.9648
  156MOL0     H21012   3.806   5.897   2.730  0.2937 -0.1138 -2.4320
  156MOL0     H21013   3.745   5.746   2.670 -1.7348 -0.0192  1.6332
  156MOL0     H21014   3.624   5.849   2.850  1.5651  2.2460 -1.6365
  156MOL0     H21015   3.743   5.801   2.957  2.5406 -2.6208  0.5347
  156MOL0     H21016   3.683   5.562   2.932  0.2379 -0.0014 -0.4826
  156MOL0     H21017   3.625   5.585   2.770 -0.0062  1.1216 -0.4616
  156MOL0     H21018   3.436   5.544   2.889  1.6677 -1.2881  1.0370
  156MOL0     H21019   3.432   5.721   2.850  3.0540  0.9739 -1.1077
  156MOL0     H21020   3.417   5.811   3.247  0.2868  0.0432 -2.2567
  156MOL0     H21021   3.210   5.786   3.521 -0.5594  1.0770  1.2029
  156MOL0     H21022   3.292   5.895   3.415 -0.5789  0.0047 -3.3767
  156MOL0     H21023   3.105   5.892   3.421  1.0626  2.1754  0.5857
  156MOL0     H21024   2.659   5.668   3.105 -0.8834 -0.6830 -0.2632
  156MOL0     H21025   2.426   5.673   3.172 -1.0225 -0.2558  1.7961
  156MOL0     H21026   2.216   5.680   3.268  0.3432 -1.0483 -1.0949
  156MOL0     H21027   2.245   5.511   3.230  1.4576  2.0802 -2.0378
  156MOL0     H21028   2.082   5.597   3.468  0.1628  1.7697 -1.3726
  156MOL0     H21029   2.003   5.570   3.321  1.4922  2.8638 -0.6248
  156MOL0     H21030   1.961   5.374   3.402 -0.8935  1.1470 -0.7999
  156MOL0     H21031   2.084   5.370   3.526  5.6045  2.2188  0.1946
  156MOL0     H21032   2.144   5.321   3.234 -1.8626 -1.2606 -1.2692
  156MOL0     H21033   2.244   5.268   3.369  0.1524 -0.9781 -1.3011
  156MOL0     H21034   2.017   5.140   3.447 -1.0012 -0.3638 -0.2193
  156MOL0     H21035   2.129   5.073   3.327  0.5725 -0.6321 -0.2646
  156MOL0     H21036   1.884   5.220   3.248  0.4315  0.2358 -0.1249
  156MOL0     H21037   2.000   5.142   3.136 -2.4064  0.6332 -1.4633
  156MOL0     H21038   1.799   5.001   3.196  0.8173 -0.1947 -0.6850
  156MOL0     H21039   1.828   5.015   3.363 -2.3543 -3.5061 -0.9878
  156MOL0     H21040   1.902   4.790   3.258  0.3070  0.0373 -1.3214
  156MOL0     H21041   2.039   4.857   3.333 -2.6185 -1.4419  1.5318
  156MOL0     H21042   2.534   5.477   3.539 -2.7801  2.7158  0.7981
  156MOL0     H21043   2.777   5.500   3.465 -0.4565  2.0293  0.6255
  156MOL0     H21044   3.025   5.557   3.079 -0.1948  0.1053 -1.0447
  156MOL0     H21045   3.228   5.555   2.962 -1.5023 -2.0549  0.9920
  156MOL0     H21046   4.909   5.586   2.034  0.2436 -0.6052  2.0550
  156MOL0     H21047   5.041   5.560   1.822  0.2395 -1.1696 -0.1136
  156MOL0     H21048   5.492   5.565   1.656  1.0502 -0.3852 -0.1684
  156MOL0     H21049   5.660   5.505   1.533 -1.0871  0.9373 -0.1486
  156MOL0     H21050   5.858   5.344   1.316  1.2123 -1.0320 -0.3000
  156MOL0     H21051   5.826   5.405   1.479 -3.3125 -0.3405 -0.3155
  156MOL0     H21052   5.946   5.214   1.571  3.8056 -2.3223 -0.5287
  156MOL0     H21053   6.040   5.302   1.455  0.3322 -0.2909  1.3904
  156MOL0     H21054   5.886   5.030   1.404  0.9015  0.4435  1.6658
  156MOL0     H21055   6.044   5.028   1.446  3.7147  0.4950 -2.0973
  156MOL0     H21056   6.036   5.219   1.225 -1.8231  1.1748 -0.4065
  156MOL0     H21057   5.917   5.091   1.187  0.7498  2.7443 -0.9390
  156MOL0     H21058   6.220   4.843   1.113 -1.8795 -2.2321  0.2676
  156MOL0     H21059   5.496   5.098   1.490  1.2189  0.7152 -1.1966
  156MOL0     H21060   5.310   5.164   1.604  1.0256  0.0440 -1.8446
  157MOL0     O21061   7.684   3.109   8.155 -0.5315  0.0102 -0.4145
  157MOL0     C21062   7.728   3.028   8.075 -0.3584  0.5033  0.0145
  157MOL0     O21063   7.736   2.887   8.104  0.4610  0.3764 -0.7219
  157MOL0     C21064   7.685   2.848   8.228  0.0882  0.0706  0.2550
  157MOL0     C21065   7.770   2.761   8.297  0.3771 -0.4351 -0.0095
  157MOL0     C21066   7.719   2.702   8.412  0.0678 -0.1284 -1.0096
  157MOL0     C21067   7.584   2.713   8.453  0.6142 -1.0300 -0.0248
  157MOL0     O21068   7.521   2.644   8.550  0.6219  0.4477 -0.1690
  157MOL0     C21069   7.599   2.567   8.646 -0.0803  0.3549 -0.1367
  157MOL0     C21070   7.510   2.518   8.760  0.5036 -0.2592  0.3341
  157MOL0     C21071   7.434   2.626   8.841 -0.3644 -0.5345 -0.7407
  157MOL0     C21072   7.334   2.570   8.944  0.6894  0.4242  0.7782
  157MOL0     C21073   7.193   2.516   8.886 -0.3351  1.1025  0.6847
  157MOL0     C21074   7.097   2.627   8.854  0.5001 -0.0453 -0.2537
  157MOL0     C21075   6.969   2.570   8.788 -0.2887  0.4576  0.2169
  157MOL0     C21076   6.900   2.659   8.680  0.5964  0.7907  0.6752
  157MOL0     N21077   6.809   2.759   8.748 -0.5910 -0.3515 -0.2574
  157MOL0     C21078   6.825   2.895   8.734 -0.0474  0.1973  0.3693
  157MOL0     C21079   6.704   2.954   8.765  0.2388  0.4582  0.3560
  157MOL0     C21080   6.664   3.096   8.763  1.0179  0.1823  0.6339
  157MOL0     C21081   6.717   3.177   8.644 -0.1863  0.1550  0.4232
  157MOL0     C21082   6.685   3.132   8.499 -0.6023 -0.8856  0.1368
  157MOL0     C21083   6.547   3.119   8.479  0.2031 -1.0896 -0.8943
  157MOL0     O21084   6.474   3.244   8.472 -0.5580  0.4312  0.3535
  157MOL0     C21085   6.340   3.231   8.435 -0.4075 -0.1883  0.7312
  157MOL0     C21086   6.269   3.348   8.462  0.5480  1.1230  0.2690
  157MOL0     C21087   6.132   3.339   8.435  0.9149 -0.1673 -0.0500
  157MOL0     C21088   6.042   3.465   8.472  0.8563  0.0175  0.0219
  157MOL0     C21089   6.069   3.223   8.378 -0.7423  0.9071  0.8086
  157MOL0     C21090   5.930   3.207   8.339 -0.7807 -0.5979 -0.7894
  157MOL0     O21091   5.862   3.109   8.393  0.2071  0.2513 -0.2330
  157MOL0     C21092   5.730   3.096   8.354  0.1249  0.1646 -1.1980
  157MOL0     C21093   5.695   3.014   8.250 -0.3675 -0.1687 -0.8850
  157MOL0     C21094   5.560   3.023   8.216 -0.8605  0.4777  0.5813
  157MOL0     C21095   5.463   3.099   8.276 -0.4239 -0.1991 -0.2427
  157MOL0     O21096   5.332   3.106   8.235 -0.1777 -0.2153 -0.3590
  157MOL0     C21097   5.281   2.997   8.158  0.5704  1.2367 -0.0658
  157MOL0     C21098   5.128   3.011   8.149  1.0355 -0.4087  0.3175
  157MOL0     C21099   5.055   2.902   8.071 -0.3761 -0.3124 -0.1691
  157MOL0     C21100   4.905   2.917   8.053 -0.7850 -0.9763 -0.0725
  157MOL0     C21101   4.845   2.840   8.171 -0.0251  0.4283  0.1728
  157MOL0     C21102   4.693   2.809   8.151 -0.2798 -0.6315  1.1600
  157MOL0     C21103   4.617   2.939   8.156 -0.9779 -0.0128 -0.3370
  157MOL0     C21104   4.469   2.902   8.140  0.4456  0.0352 -0.3414
  157MOL0    Cl21105   4.431   2.826   7.984 -0.7322 -0.2903 -0.3383
  157MOL0     C21106   5.502   3.166   8.391  0.3385 -0.0585 -0.2577
  157MOL0     C21107   5.637   3.167   8.435  0.0583  0.9438 -0.9365
  157MOL0     O21108   5.887   3.285   8.257  0.4887 -0.0310  0.1088
  157MOL0     C21109   6.150   3.110   8.352 -0.7905 -0.4704 -0.1280
  157MOL0     C21110   6.283   3.114   8.379 -0.8010 -0.7552 -0.2333
  157MOL0     N21111   6.630   2.849   8.821  0.4380 -1.1400 -0.3971
  157MOL0     N21112   6.689   2.737   8.808 -0.4832  0.0038 -0.2347
  157MOL0     C21113   7.507   2.815   8.382 -0.0731 -0.0579  0.3967
  157MOL0     C21114   7.554   2.880   8.268 -0.6825 -0.2688 -0.7932
  157MOL0     C21115   7.784   3.074   7.946  0.1773 -0.0539  0.1664
  157MOL0     C21116   7.764   3.209   7.906  0.3930 -0.8009 -0.3462
  157MOL0     C21117   7.800   3.245   7.777 -0.3568 -0.5491  0.4990
  157MOL0     C21118   7.855   3.161   7.690 -0.4519  0.0266 -0.3349
  157MOL0     O21119   7.898   3.184   7.559 -0.0749 -0.0845 -0.5122
  157MOL0     C21120   7.829   3.269   7.471  0.1317  0.2594  0.8697
  157MOL0     C21121   7.929   3.329   7.376 -0.0393 -0.0644  0.2682
  157MOL0     C21122   8.033   3.408   7.449 -0.6828  0.7281  0.1380
  157MOL0     C21123   8.109   3.497   7.345  0.0320  0.2254  0.2395
  157MOL0     C21124   8.217   3.563   7.407 -1.4253  0.5205  0.1047
  157MOL0     C21125   8.327   3.619   7.433 -0.6633  0.1322  0.4639
  157MOL0     C21126   7.890   3.033   7.738  0.1481  0.3188 -0.8276
  157MOL0     C21127   7.856   2.988   7.865  0.7757  0.2935  0.1650
  157MOL0     H21128   7.868   2.759   8.251 -0.3683  0.3892 -1.7348
  157MOL0     H21129   7.781   2.631   8.466 -1.0111 -0.5459 -0.2900
  157MOL0     H21130   7.648   2.480   8.601  2.8323  1.1211  1.3494
  157MOL0     H21131   7.671   2.636   8.691 -0.4882  0.4408  0.3925
  157MOL0     H21132   7.433   2.450   8.724  1.2675 -1.3342  0.6663
  157MOL0     H21133   7.583   2.478   8.831 -1.0318  0.0756  2.1914
  157MOL0     H21134   7.505   2.680   8.904 -0.4021 -3.1879  1.7697
  157MOL0     H21135   7.381   2.699   8.779 -0.4563  0.4839  0.4974
  157MOL0     H21136   7.379   2.483   8.992 -0.2226 -0.5814 -0.1274
  157MOL0     H21137   7.300   2.644   9.017 -4.6026  1.1608 -1.9600
  157MOL0     H21138   7.212   2.461   8.793 -0.4267  0.0656  1.2762
  157MOL0     H21139   7.145   2.452   8.960 -3.4631  0.6798 -1.5180
  157MOL0     H21140   7.070   2.674   8.949  1.0316  1.4393 -0.7955
  157MOL0     H21141   7.139   2.704   8.789 -4.4810  4.1331  0.7493
  157MOL0     H21142   6.993   2.472   8.747  2.4686  0.2235  2.0963
  157MOL0     H21143   6.889   2.545   8.858 -0.8265  1.7404  0.0886
  157MOL0     H21144   6.834   2.595   8.620 -1.5290  3.4888 -0.1165
  157MOL0     H21145   6.975   2.707   8.617  0.4955 -0.1514 -0.1859
  157MOL0     H21146   6.908   2.955   8.697  1.7059 -2.3736 -0.1845
  157MOL0     H21147   6.556   3.093   8.780  0.3654 -3.4952 -2.6419
  157MOL0     H21148   6.711   3.151   8.844  1.3979  1.1570 -0.2258
  157MOL0     H21149   6.826   3.178   8.639 -0.2052 -1.4256 -2.7519
  157MOL0     H21150   6.676   3.276   8.663 -4.3059 -0.9923 -1.4107
  157MOL0     H21151   6.733   3.037   8.475  1.1957  0.5078 -2.1661
  157MOL0     H21152   6.721   3.200   8.421  2.3089 -2.0330  0.3743
  157MOL0     H21153   6.505   3.060   8.561 -0.6117  0.9297  0.2040
  157MOL0     H21154   6.532   3.059   8.389 -1.4765  2.2326 -3.0429
  157MOL0     H21155   6.310   3.437   8.507 -0.6967  2.7872 -1.6997
  157MOL0     H21156   6.067   3.486   8.576  3.3927  1.1196 -0.7450
  157MOL0     H21157   6.073   3.547   8.407 -0.2931  1.7582  1.5744
  157MOL0     H21158   5.934   3.446   8.461  0.4543  1.2952  1.4985
  157MOL0     H21159   5.760   2.946   8.195 -2.6578 -1.8473 -1.6483
  157MOL0     H21160   5.542   2.965   8.126  0.3798  2.6483 -1.1698
  157MOL0     H21161   5.325   2.993   8.058  1.2783  0.0891  0.2685
  157MOL0     H21162   5.307   2.905   8.213 -0.0573  0.0326 -1.7138
  157MOL0     H21163   5.074   3.015   8.244 -1.2485 -2.0005 -0.8176
  157MOL0     H21164   5.101   3.107   8.104 -0.8203 -1.6175 -1.3190
  157MOL0     H21165   5.077   2.804   8.114 -1.6446 -0.2008  0.8127
  157MOL0     H21166   5.091   2.897   7.968 -3.3680  0.9387 -1.3967
  157MOL0     H21167   4.879   3.023   8.057  0.7809 -0.4239 -2.4878
  157MOL0     H21168   4.864   2.870   7.964 -4.3196 -0.8218  1.3270
  157MOL0     H21169   4.855   2.896   8.264 -3.8580 -2.3376  2.6037
  157MOL0     H21170   4.906   2.751   8.194  3.3694  1.8507 -2.5163
  157MOL0     H21171   4.679   2.770   8.049  0.4459  3.4608 -0.6962
  157MOL0     H21172   4.638   2.748   8.224 -3.5619 -0.2805 -0.8035
  157MOL0     H21173   4.650   3.002   8.073  0.1108 -0.7102 -0.4524
  157MOL0     H21174   4.637   2.988   8.252  3.4391  0.3757 -1.2439
  157MOL0     H21175   4.415   2.997   8.145  1.7630  1.0200 -2.8353
  157MOL0     H21176   4.432   2.836   8.219 -0.5112 -0.0152 -0.8147
  157MOL0     H21177   5.426   3.219   8.447  3.2469  1.0353  3.0882
  157MOL0     H21178   5.672   3.220   8.522  2.4535 -1.5903 -0.1918
  157MOL0     H21179   6.120   3.020   8.299 -0.7483 -0.3193 -0.4115
  157MOL0     H21180   6.344   3.030   8.347 -1.8072 -1.7643  0.4205
  157MOL0     H21181   7.409   2.833   8.424  0.6158  3.1414  0.8179
  157MOL0     H21182   7.496   2.958   8.219  1.1743  0.3716 -2.0751
  157MOL0     H21183   7.719   3.283   7.972  0.6590  0.1432 -1.2034
  157MOL0     H21184   7.768   3.345   7.749  2.5734  0.3005 -0.1788
  157MOL0     H21185   7.760   3.211   7.408  1.2983 -1.4907  1.1195
  157MOL0     H21186   7.764   3.342   7.521 -2.4494  1.2183 -3.3928
  157MOL0     H21187   7.876   3.393   7.305  3.2386  1.0672 -1.3772
  157MOL0     H21188   7.979   3.243   7.329  0.9562 -0.6455  2.2373
  157MOL0     H21189   8.103   3.336   7.492  0.2692  0.0901 -2.2854
  157MOL0     H21190   7.996   3.472   7.529 -0.5293 -0.6668  1.3575
  157MOL0     H21191   8.037   3.569   7.304  1.1350  1.0061 -0.3565
  157MOL0     H21192   8.139   3.433   7.262 -2.3328 -0.6174 -0.0630
  157MOL0     H21193   8.421   3.664   7.454  0.0757 -0.1839 -1.8170
  157MOL0     H21194   7.954   2.966   7.681  0.9886 -1.0184  1.5308
  157MOL0     H21195   7.881   2.888   7.899 -0.8984 -0.0917  0.3768
  158MOL0     O21196  10.059   0.311   9.082  0.0935 -0.2333 -0.3779
  158MOL0     C21197  10.109   0.359   9.181  0.5618 -0.0051 -0.0897
  158MOL0     O21198  10.042   0.379   9.302 -0.2235 -0.8142  0.6599
  158MOL0     C21199   9.922   0.317   9.315 -0.1010 -0.2293 -1.1703
  158MOL0     C21200   9.916   0.201   9.392 -0.1387 -1.1129  0.1767
  158MOL0     C21201   9.793   0.131   9.401 -0.2974 -0.5309 -0.0945
  158MOL0     C21202   9.677   0.182   9.346  0.1704 -0.7918 -0.0680
  158MOL0     O21203   9.550   0.139   9.361  0.0430 -0.4438  0.2235
  158MOL0     C21204   9.530  -0.000   9.400  0.2962  0.0457 -0.3755
  158MOL0     C21205   9.379  -0.041   9.388  0.8728 -0.3966  0.2210
  158MOL0     C21206   9.343  -0.029   9.236  0.0322  0.1028 -0.6589
  158MOL0     C21207   9.237  -0.137   9.194 -0.4895 -0.8252  0.7862
  158MOL0     C21208   9.107  -0.117   9.273  0.2181  0.4687  0.0288
  158MOL0     C21209   9.036   0.018   9.236  0.4900  0.3366 -0.0498
  158MOL0     C21210   8.890   0.020   9.282  0.1598 -0.2335  0.1345
  158MOL0     C21211   8.812   0.137   9.215  0.3229  0.5104 -1.5228
  158MOL0     N21212   8.834   0.255   9.296  0.2178  0.0585 -0.3798
  158MOL0     C21213   8.774   0.275   9.423 -0.7296  0.1353  0.4241
  158MOL0     C21214   8.816   0.396   9.463 -0.9374 -1.0657 -0.6482
  158MOL0     C21215   8.770   0.465   9.587  0.6440 -0.2351  0.1213
  158MOL0     C21216   8.623   0.520   9.581  0.1751 -0.2242 -1.4092
  158MOL0     C21217   8.586   0.576   9.714  0.3672  0.1876 -0.1464
  158MOL0     C21218   8.442   0.628   9.721 -0.8726  1.0125 -0.7186
  158MOL0     O21219   8.356   0.512   9.724  1.4441 -0.5929 -0.3876
  158MOL0     C21220   8.217   0.513   9.733  0.2124  0.2288  0.3159
  158MOL0     C21221   8.140   0.627   9.734 -0.1768  0.0090  0.5749
  158MOL0     C21222   7.997   0.635   9.741  0.4945 -0.0958  0.5617
  158MOL0     C21223   7.935   0.778   9.745  0.8090  0.5843 -0.0411
  158MOL0     C21224   7.928   0.510   9.746  0.2684 -0.7089  0.6042
  158MOL0     C21225   7.786   0.502   9.734 -0.1251 -1.1482  0.8841
  158MOL0     O21226   7.715   0.383   9.749  0.2180 -0.0673  0.1071
  158MOL0     C21227   7.586   0.365   9.715 -0.5753 -0.1078  0.1528
  158MOL0     C21228   7.508   0.439   9.614 -0.1324  0.1391 -0.4052
  158MOL0     C21229   7.377   0.396   9.591 -0.3761  0.1898  0.1581
  158MOL0     C21230   7.314   0.299   9.671  0.2010  0.4706 -0.0727
  158MOL0     O21231   7.183   0.259   9.654  0.5446 -0.1176  0.4041
  158MOL0     C21232   7.115   0.273   9.527 -0.8430  0.0513 -0.1750
  158MOL0     C21233   6.973   0.228   9.532 -0.1030 -0.2364  0.2304
  158MOL0     C21234   6.871   0.327   9.596 -0.5549 -0.0155 -1.6129
  158MOL0     C21235   6.731   0.267   9.589 -0.1641 -0.3184  0.1859
  158MOL0     C21236   6.626   0.346   9.669  0.6941  0.1109  0.2171
  158MOL0     C21237   6.638   0.329   9.821  0.7312 -0.5119 -0.0327
  158MOL0     C21238   6.595   0.185   9.875  0.3326  0.0834 -0.1831
  158MOL0     C21239   6.600   0.193  10.030 -0.9475  0.9575  1.0468
  158MOL0    Cl21240   6.466   0.289  10.110 -0.2228  0.2949 -0.2690
  158MOL0     C21241   7.385   0.239   9.771 -0.5584  0.5646 -0.0177
  158MOL0     C21242   7.523   0.265   9.788  0.0243 -0.3585  0.0321
  158MOL0     O21243   7.722   0.605   9.710 -0.5891 -0.1633 -0.2224
  158MOL0     C21244   8.002   0.399   9.740 -0.2557  0.6676 -0.3000
  158MOL0     C21245   8.137   0.394   9.735 -1.0250 -0.4047  0.0662
  158MOL0     N21246   8.906   0.444   9.372 -0.5745 -0.7160  1.0857
  158MOL0     N21247   8.917   0.362   9.276  0.3061  0.8779 -0.4370
  158MOL0     C21248   9.685   0.307   9.282 -0.1915 -0.1453  0.4902
  158MOL0     C21249   9.803   0.372   9.263 -0.4632  0.2629  0.5966
  158MOL0     C21250  10.252   0.383   9.178 -0.5730  0.6755  0.6836
  158MOL0     C21251  10.329   0.365   9.055  0.3657 -0.5586 -0.3031
  158MOL0     C21252  10.465   0.386   9.056  0.5650 -0.3846 -0.2313
  158MOL0     C21253  10.537   0.403   9.169  0.8016  0.3970 -0.3469
  158MOL0     O21254  10.670   0.391   9.153 -0.4441 -0.8383  0.5077
  158MOL0     C21255  10.743   0.432   9.260 -1.1817  1.2218  0.6211
  158MOL0     C21256  10.881   0.423   9.227  0.3043  0.5448 -0.1967
  158MOL0     C21257  10.935   0.279   9.259  0.5105  0.4573 -0.5124
  158MOL0     C21258  11.078   0.243   9.218  0.7440  0.3344  0.5149
  158MOL0     C21259  11.168   0.321   9.305 -0.2141  0.2361 -0.0987
  158MOL0     C21260  11.239   0.389   9.381  0.4526  1.1211 -0.0784
  158MOL0     C21261  10.466   0.406   9.293 -1.0699 -0.0962  0.0945
  158MOL0     C21262  10.325   0.395   9.294  0.0362 -0.7059 -0.8392
  158MOL0     H21263  10.008   0.159   9.431 -1.0511 -1.2736  2.3057
  158MOL0     H21264   9.797   0.035   9.451  1.7223  0.2698  1.4222
  158MOL0     H21265   9.596  -0.066   9.341  0.4322  1.6995 -2.1635
  158MOL0     H21266   9.552  -0.007   9.507  1.8241 -0.5395 -0.6913
  158MOL0     H21267   9.346  -0.134   9.436 -0.2745  0.7032  1.6832
  158MOL0     H21268   9.326   0.033   9.449  0.1365 -0.9938  0.3213
  158MOL0     H21269   9.309   0.073   9.214  0.0762  0.0807 -0.8306
  158MOL0     H21270   9.432  -0.045   9.174 -0.9939 -1.6161 -1.7906
  158MOL0     H21271   9.216  -0.134   9.087 -1.3413  0.3265  0.9661
  158MOL0     H21272   9.274  -0.238   9.217 -0.2828 -0.8646  0.2888
  158MOL0     H21273   9.042  -0.202   9.250 -1.9342  1.7108  1.1959
  158MOL0     H21274   9.112  -0.108   9.382 -1.1114  1.2631  0.0504
  158MOL0     H21275   9.080   0.105   9.285  1.2564  0.5751 -1.1179
  158MOL0     H21276   9.035   0.036   9.128 -1.7686 -0.7205 -0.2532
  158MOL0     H21277   8.849  -0.078   9.257 -2.4278  0.1240  2.4594
  158MOL0     H21278   8.888   0.039   9.390  0.8132 -1.1929  0.3308
  158MOL0     H21279   8.707   0.109   9.201  0.9777 -4.7198  1.5455
  158MOL0     H21280   8.854   0.167   9.118  3.0604 -0.5884 -0.7792
  158MOL0     H21281   8.710   0.205   9.475 -3.2273  0.1896 -2.2736
  158MOL0     H21282   8.765   0.391   9.668 -0.6875  1.0484  1.2588
  158MOL0     H21283   8.838   0.544   9.621  0.4322 -0.8043  2.0020
  158MOL0     H21284   8.557   0.437   9.552 -0.2075 -0.9060  1.1600
  158MOL0     H21285   8.628   0.607   9.515  0.1099  0.1153 -0.9650
  158MOL0     H21286   8.658   0.657   9.733  1.6751 -0.9435 -0.1199
  158MOL0     H21287   8.615   0.505   9.792  0.6393  0.8172  0.3309
  158MOL0     H21288   8.411   0.685   9.633  1.3426  1.9179 -0.9732
  158MOL0     H21289   8.417   0.679   9.814  0.8238 -0.2850  0.5140
  158MOL0     H21290   8.194   0.721   9.743 -2.9149  1.7952 -0.2624
  158MOL0     H21291   7.859   0.787   9.823  1.6203 -1.1328  0.9974
  158MOL0     H21292   8.003   0.863   9.761  1.3824 -0.0585  1.0568
  158MOL0     H21293   7.898   0.786   9.643  0.3988 -2.0438 -0.1686
  158MOL0     H21294   7.550   0.513   9.547  0.5249  0.6054  0.5043
  158MOL0     H21295   7.324   0.452   9.515 -0.5281  1.8254  1.4169
  158MOL0     H21296   7.117   0.374   9.484  0.3294  0.6839  1.2529
  158MOL0     H21297   7.172   0.215   9.453  2.3451  1.6808  0.7980
  158MOL0     H21298   6.938   0.205   9.431  0.2630 -1.5623  0.3929
  158MOL0     H21299   6.973   0.125   9.568 -0.8369 -0.5361 -0.5878
  158MOL0     H21300   6.869   0.426   9.552 -1.4891  0.6954 -0.0759
  158MOL0     H21301   6.895   0.331   9.703  0.5875 -2.3948 -1.7151
  158MOL0     H21302   6.703   0.274   9.483 -2.4699 -0.4028  0.7286
  158MOL0     H21303   6.727   0.165   9.629 -1.2466  0.1903  1.4638
  158MOL0     H21304   6.524   0.313   9.645  1.1794 -3.0901  1.9528
  158MOL0     H21305   6.630   0.450   9.636  0.5637  0.8147  2.3272
  158MOL0     H21306   6.735   0.364   9.856 -0.1634 -0.1364  2.2466
  158MOL0     H21307   6.566   0.399   9.865 -0.6560 -1.1348 -1.2175
  158MOL0     H21308   6.664   0.108   9.839 -1.4272 -1.9853  0.6356
  158MOL0     H21309   6.498   0.140   9.851  0.4715  0.0643 -0.7411
  158MOL0     H21310   6.699   0.219  10.067  0.9600 -0.4050 -2.6028
  158MOL0     H21311   6.591   0.088  10.061  0.5188  0.6746  0.5855
  158MOL0     H21312   7.335   0.171   9.839  1.1227 -0.9447 -0.2258
  158MOL0     H21313   7.585   0.212   9.859  0.9993 -0.7820 -1.0919
  158MOL0     H21314   7.957   0.300   9.732  0.1350  0.3894  0.7769
  158MOL0     H21315   8.188   0.298   9.738  1.4501  0.6644 -2.6147
  158MOL0     H21316   9.597   0.356   9.242  1.0325  1.7930  0.0442
  158MOL0     H21317   9.794   0.465   9.208 -2.0514 -0.3233 -0.2128
  158MOL0     H21318  10.276   0.338   8.964 -0.4350 -1.1551  0.3309
  158MOL0     H21319  10.520   0.372   8.964 -0.7634 -1.7155 -0.8635
  158MOL0     H21320  10.719   0.534   9.293  0.1923  2.1103 -0.9912
  158MOL0     H21321  10.731   0.366   9.347  0.0857 -1.7720 -1.3391
  158MOL0     H21322  10.941   0.485   9.295  0.0391 -0.7160  1.2371
  158MOL0     H21323  10.886   0.456   9.123  0.0955  2.1061  0.2521
  158MOL0     H21324  10.876   0.200   9.212  2.3887 -1.0493 -0.4930
  158MOL0     H21325  10.920   0.251   9.363 -3.2717 -0.2398 -1.1213
  158MOL0     H21326  11.088   0.270   9.112 -0.3356  0.8928  0.5385
  158MOL0     H21327  11.090   0.135   9.228 -3.0789 -0.4531 -1.5102
  158MOL0     H21328  11.305   0.447   9.442  0.1663 -2.5348  4.1740
  158MOL0     H21329  10.533   0.409   9.378 -0.4496  0.0330 -0.3851
  158MOL0     H21330  10.277   0.409   9.391  1.2779 -0.5640 -0.2264
  159MOL0     O21331   9.437   2.836   9.503  0.3841 -0.3305 -0.3251
  159MOL0     C21332   9.428   2.953   9.460 -0.8187 -0.0703  0.3769
  159MOL0     O21333   9.318   3.025   9.457  1.2517  0.6959 -0.4920
  159MOL0     C21334   9.197   2.966   9.491 -0.3390 -0.2332 -0.2799
  159MOL0     C21335   9.157   2.989   9.625  0.6951  0.2034 -0.1695
  159MOL0     C21336   9.042   2.921   9.679 -0.3491  0.7615  0.9380
  159MOL0     C21337   8.965   2.840   9.592  0.3244 -0.9704  0.1765
  159MOL0     O21338   8.855   2.766   9.624  0.3090  0.0044  0.0462
  159MOL0     C21339   8.814   2.763   9.763  0.0884  0.1797 -0.1852
  159MOL0     C21340   8.668   2.741   9.776  0.0479  0.8581  0.5544
  159MOL0     C21341   8.641   2.597   9.769  0.6913  0.3734 -0.1384
  159MOL0     C21342   8.492   2.586   9.802  0.7272  0.3004 -1.0273
  159MOL0     C21343   8.457   2.438   9.793  0.1763 -0.6058 -0.0800
  159MOL0     C21344   8.308   2.398   9.832 -0.1057 -0.1215  0.1861
  159MOL0     C21345   8.260   2.252   9.833  0.1419  0.0740 -0.0623
  159MOL0     C21346   8.300   2.176   9.712 -0.0268 -0.1949 -0.3483
  159MOL0     N21347   8.244   2.041   9.724 -0.2601  0.5285  0.1374
  159MOL0     C21348   8.117   2.002   9.693 -0.3260 -1.2289 -0.5591
  159MOL0     C21349   8.126   1.871   9.727  0.2963  0.4591 -0.1716
  159MOL0     C21350   8.021   1.760   9.696 -0.9695  0.3911 -1.1885
  159MOL0     C21351   7.899   1.782   9.793 -0.3473 -0.0416  0.1998
  159MOL0     C21352   7.798   1.663   9.765  0.0216 -0.5634  0.4167
  159MOL0     C21353   7.686   1.682   9.863 -0.1445  0.2945  0.7378
  159MOL0     O21354   7.613   1.564   9.843 -0.5332  0.1994  0.3329
  159MOL0     C21355   7.526   1.524   9.947  0.6984  0.9012 -0.9190
  159MOL0     C21356   7.468   1.397   9.942 -0.5054  0.2449  0.5791
  159MOL0     C21357   7.374   1.350  10.038  0.6965  0.0386  0.9677
  159MOL0     C21358   7.305   1.222  10.012  0.3969 -0.8986  0.0078
  159MOL0     C21359   7.346   1.434  10.149  0.0519 -0.5639 -1.0620
  159MOL0     C21360   7.263   1.398  10.266 -0.3399 -0.3636  0.0728
  159MOL0     O21361   7.196   1.503  10.324  0.0352 -0.5205 -0.6032
  159MOL0     C21362   7.140   1.509  10.449  0.2115 -0.6210 -0.4772
  159MOL0     C21363   7.188   1.444  10.560  0.5205 -0.1303  0.6109
  159MOL0     C21364   7.128   1.475  10.685 -0.0609  0.7744 -0.2286
  159MOL0     C21365   7.008   1.549  10.692  0.7112 -0.2826  0.6194
  159MOL0     O21366   6.948   1.556  10.816  0.1869 -0.5369  0.0610
  159MOL0     C21367   6.818   1.618  10.835 -0.0811 -0.8311 -0.3032
  159MOL0     C21368   6.772   1.619  10.983  0.0179  0.2296  0.4657
  159MOL0     C21369   6.663   1.723  11.003  0.1796 -0.0003 -0.1304
  159MOL0     C21370   6.631   1.744  11.158 -0.2433 -0.8667 -0.0753
  159MOL0     C21371   6.530   1.857  11.179  0.8278 -0.0153 -0.0422
  159MOL0     C21372   6.472   1.868  11.321  1.0096  0.1753  0.7453
  159MOL0     C21373   6.358   1.982  11.329  0.6000  0.9570  0.6097
  159MOL0     C21374   6.254   1.952  11.439  0.1275  0.2071  0.1379
  159MOL0    Cl21375   6.310   1.959  11.596  0.2106  0.2219 -0.0767
  159MOL0     C21376   6.958   1.607  10.581 -1.5378 -0.4648  1.2634
  159MOL0     C21377   7.021   1.576  10.459  0.4266  0.0943 -0.6655
  159MOL0     O21378   7.255   1.285  10.304 -0.0639  0.1806  0.1251
  159MOL0     C21379   7.404   1.559  10.149 -0.2490 -0.0129 -1.1238
  159MOL0     C21380   7.491   1.613  10.058 -0.5181 -0.1868  0.0024
  159MOL0     N21381   8.249   1.839   9.772 -0.8789 -0.2271 -0.1052
  159MOL0     N21382   8.323   1.946   9.780 -0.0086  0.6265  0.6665
  159MOL0     C21383   9.008   2.827   9.456  0.5215  0.4434 -0.0329
  159MOL0     C21384   9.132   2.882   9.407 -0.3991 -0.8091  0.5871
  159MOL0     C21385   9.552   3.018   9.413 -0.0447 -0.9919 -0.3144
  159MOL0     C21386   9.677   2.961   9.408  0.4510 -0.3745  0.1817
  159MOL0     C21387   9.781   3.042   9.382  0.3373 -0.3534 -0.0760
  159MOL0     C21388   9.777   3.173   9.339  0.0703  0.1413 -0.1213
  159MOL0     O21389   9.884   3.255   9.314 -0.5064  0.2495 -0.3142
  159MOL0     C21390  10.013   3.214   9.360 -0.1728  0.7816  0.3709
  159MOL0     C21391  10.122   3.315   9.313  0.2495 -0.3476  0.1198
  159MOL0     C21392  10.103   3.444   9.396  0.0410 -0.1794  0.9056
  159MOL0     C21393  10.224   3.545   9.391  0.1346  0.3119 -0.0000
  159MOL0     C21394  10.195   3.659   9.479 -0.2614 -0.2587  0.1594
  159MOL0     C21395  10.166   3.759   9.538  0.3368  0.8307 -0.2667
  159MOL0     C21396   9.651   3.222   9.318  0.2613  0.3084 -0.2767
  159MOL0     C21397   9.543   3.150   9.359  0.3632 -1.1667 -0.0685
  159MOL0     H21398   9.211   3.057   9.690  0.0794 -1.0792  1.7812
  159MOL0     H21399   9.028   2.934   9.786 -1.0481  4.7793  0.5320
  159MOL0     H21400   8.872   2.697   9.828 -0.6786  0.3823  0.7458
  159MOL0     H21401   8.834   2.858   9.813 -0.0643 -0.5736  1.3673
  159MOL0     H21402   8.642   2.776   9.877 -0.3416 -0.5764  0.9734
  159MOL0     H21403   8.611   2.800   9.704 -1.2685 -1.0127 -0.0233
  159MOL0     H21404   8.663   2.549   9.673 -1.1880  0.3182 -0.5724
  159MOL0     H21405   8.705   2.545   9.841 -0.4621 -0.5910  0.2087
  159MOL0     H21406   8.474   2.609   9.907  0.8733 -2.1293 -0.4008
  159MOL0     H21407   8.422   2.653   9.751 -0.9119  1.4168  2.3654
  159MOL0     H21408   8.466   2.404   9.690 -3.3180 -1.0075 -0.3863
  159MOL0     H21409   8.527   2.371   9.844  1.1495 -0.0153 -0.6216
  159MOL0     H21410   8.292   2.433   9.934  0.0282 -0.3999  0.3043
  159MOL0     H21411   8.238   2.458   9.774  0.0363  0.0743  0.2153
  159MOL0     H21412   8.300   2.213   9.927  2.2083 -0.6254 -1.1663
  159MOL0     H21413   8.151   2.248   9.842  0.0755  1.9493  0.3441
  159MOL0     H21414   8.408   2.172   9.699  0.1497 -0.3196  0.9887
  159MOL0     H21415   8.256   2.236   9.632  1.1878  0.7468 -0.3345
  159MOL0     H21416   8.035   2.068   9.666  0.4486  0.5482  1.1956
  159MOL0     H21417   8.003   1.782   9.591  1.0496 -1.6135 -2.0301
  159MOL0     H21418   8.058   1.661   9.723  1.3801  1.3561 -0.6208
  159MOL0     H21419   7.840   1.870   9.767 -1.3443 -0.8801 -0.4668
  159MOL0     H21420   7.941   1.789   9.894  1.1997 -1.5566 -0.2925
  159MOL0     H21421   7.852   1.568   9.770 -1.5288 -1.4644  0.8187
  159MOL0     H21422   7.755   1.678   9.666 -0.0597  1.2632  0.6889
  159MOL0     H21423   7.622   1.767   9.835 -2.8006 -1.9299 -0.3265
  159MOL0     H21424   7.735   1.700   9.959  0.0277  0.8245  0.5555
  159MOL0     H21425   7.500   1.334   9.860  1.0013  0.8090  0.7004
  159MOL0     H21426   7.298   1.174   9.914 -0.6190 -0.1481 -0.2996
  159MOL0     H21427   7.359   1.153  10.079 -1.4078 -0.2304  2.2594
  159MOL0     H21428   7.202   1.226  10.047 -0.6466 -1.4301 -2.7860
  159MOL0     H21429   7.274   1.377  10.554 -0.7846 -1.7986 -0.4881
  159MOL0     H21430   7.168   1.425  10.773 -0.0221 -1.1311 -1.2883
  159MOL0     H21431   6.824   1.721  10.798  1.6587 -1.3462 -1.5771
  159MOL0     H21432   6.752   1.549  10.782 -0.2071 -0.4136 -0.7040
  159MOL0     H21433   6.754   1.520  11.026  3.3791  0.6401  3.2778
  159MOL0     H21434   6.858   1.657  11.039 -0.0880  0.5184  0.4352
  159MOL0     H21435   6.567   1.694  10.959 -1.0203  0.8905  1.7614
  159MOL0     H21436   6.694   1.819  10.960 -0.7097  0.5243  0.3728
  159MOL0     H21437   6.601   1.650  11.204  2.1120 -0.5684  2.2803
  159MOL0     H21438   6.729   1.773  11.197  1.2354  0.4655 -4.1904
  159MOL0     H21439   6.458   1.842  11.097  1.1467  0.3937 -0.4017
  159MOL0     H21440   6.585   1.946  11.148 -0.9515  0.3780 -2.4783
  159MOL0     H21441   6.425   1.772  11.344 -0.7696  0.4916 -1.3301
  159MOL0     H21442   6.556   1.882  11.390  1.8258 -3.5595  0.6843
  159MOL0     H21443   6.304   1.994  11.234  0.7617  2.6326  0.6895
  159MOL0     H21444   6.400   2.080  11.353  2.7573  0.2889 -0.2379
  159MOL0     H21445   6.216   1.850  11.425  4.6309 -1.3807 -3.0115
  159MOL0     H21446   6.169   2.020  11.430  0.3946  1.2049  3.5919
  159MOL0     H21447   6.877   1.679  10.575  1.5284  3.4171  2.0814
  159MOL0     H21448   6.968   1.607  10.369 -0.0762 -0.3790 -0.5412
  159MOL0     H21449   7.386   1.627  10.231 -0.0945 -1.8748  0.5158
  159MOL0     H21450   7.521   1.717  10.059  0.0119 -0.3167  2.2391
  159MOL0     H21451   8.952   2.764   9.388  1.4830 -4.7503  3.4502
  159MOL0     H21452   9.172   2.855   9.310 -0.7753 -1.5181  0.6184
  159MOL0     H21453   9.688   2.858   9.439  0.1082 -1.0234 -1.7492
  159MOL0     H21454   9.884   3.011   9.396  1.1167  0.4674 -3.0921
  159MOL0     H21455  10.011   3.216   9.469  0.4971  0.0988  0.4051
  159MOL0     H21456  10.040   3.115   9.322  1.5035  1.3756 -0.0551
  159MOL0     H21457  10.107   3.350   9.211  1.2520  1.0517  0.4196
  159MOL0     H21458  10.225   3.281   9.329 -0.0374 -0.9053  0.8413
  159MOL0     H21459  10.080   3.414   9.499  1.6094  0.5316  1.4902
  159MOL0     H21460  10.019   3.502   9.355  0.6356 -0.7314 -1.2242
  159MOL0     H21461  10.240   3.578   9.288 -1.2518 -1.0704 -0.6961
  159MOL0     H21462  10.311   3.504   9.442  0.4876 -0.3573 -1.1205
  159MOL0     H21463  10.143   3.851   9.588  1.5964  1.0343 -0.0160
  159MOL0     H21464   9.634   3.320   9.275 -0.7951 -0.0819 -0.7884
  159MOL0     H21465   9.443   3.188   9.339  0.3062 -1.8812 -1.2737
  160MOL0     O21466   3.306   8.067  10.116  0.3315  0.5870 -0.4541
  160MOL0     C21467   3.282   7.974  10.200 -0.0726  0.5895  0.2123
  160MOL0     O21468   3.165   7.947  10.261  0.2923  0.6101 -0.4948
  160MOL0     C21469   3.048   8.008  10.215  1.2320 -0.5130 -1.6040
  160MOL0     C21470   3.024   8.088  10.105  0.1357 -0.3586 -0.9352
  160MOL0     C21471   2.896   8.145  10.067  0.8095  0.4621 -0.5413
  160MOL0     C21472   2.788   8.123  10.164  0.1776 -0.8746 -0.8016
  160MOL0     O21473   2.661   8.178  10.149  0.1367 -0.0209 -0.6915
  160MOL0     C21474   2.557   8.073  10.143  0.4876  0.9611 -1.4050
  160MOL0     C21475   2.426   8.125  10.182  0.2568  0.2164  0.1949
  160MOL0     C21476   2.308   8.019  10.166 -0.1413  0.9648  0.0208
  160MOL0     C21477   2.277   7.984  10.024  0.1462 -0.1034  0.0371
  160MOL0     C21478   2.131   7.928  10.004  1.2020  0.3259  0.1350
  160MOL0     C21479   2.024   8.034  10.017  0.3370 -0.1708 -1.3373
  160MOL0     C21480   1.878   7.998   9.974  0.7571 -0.4266 -0.5559
  160MOL0     C21481   1.810   7.869  10.033  0.4432  0.2273 -0.4290
  160MOL0     N21482   1.797   7.866  10.183 -0.1957 -0.8484  0.4267
  160MOL0     C21483   1.700   7.935  10.249  0.4253 -0.2611  0.0483
  160MOL0     C21484   1.735   7.928  10.378  0.5596  0.6967  0.1746
  160MOL0     C21485   1.668   7.981  10.494 -0.6009  0.3268 -0.1055
  160MOL0     C21486   1.586   7.869  10.570 -0.5181 -0.3291 -0.0740
  160MOL0     C21487   1.444   7.876  10.522  0.1491 -0.2372 -0.1104
  160MOL0     C21488   1.380   7.748  10.553  0.4790  0.1518 -0.4560
  160MOL0     O21489   1.262   7.755  10.470 -0.3052 -0.2169 -0.2117
  160MOL0     C21490   1.141   7.758  10.543 -0.3264 -0.2300  0.1943
  160MOL0     C21491   1.088   7.876  10.586 -0.0769 -0.5203  0.1264
  160MOL0     C21492   0.981   7.876  10.674  0.4499 -0.5884 -0.0100
  160MOL0     C21493   0.926   8.004  10.724  0.4610  0.2020  0.4900
  160MOL0     C21494   0.916   7.748  10.716 -0.2064 -0.1545  0.2694
  160MOL0     C21495   0.794   7.732  10.796 -0.1479 -0.1258 -0.2121
  160MOL0     O21496   0.740   7.611  10.799  0.2236  0.8654  0.5024
  160MOL0     C21497   0.613   7.590  10.850 -0.2492 -0.7866  0.1627
  160MOL0     C21498   0.583   7.596  10.987 -0.8506  0.8910  0.8543
  160MOL0     C21499   0.459   7.564  11.032  0.3193 -0.0792 -0.5017
  160MOL0     C21500   0.357   7.549  10.940  0.4877 -0.2904 -0.5354
  160MOL0     O21501   0.235   7.529  10.991  0.8005  0.1372 -0.1342
  160MOL0     C21502   0.139   7.442  10.927  0.1665  0.4196  0.5486
  160MOL0     C21503   0.049   7.512  10.835 -0.0599  0.4818 -0.4510
  160MOL0     C21504  -0.049   7.610  10.896  0.4080 -0.1264  0.7737
  160MOL0     C21505  -0.132   7.671  10.779  0.5566  0.7794 -0.2061
  160MOL0     C21506  -0.210   7.796  10.829 -0.1209 -0.6375  0.3882
  160MOL0     C21507  -0.317   7.834  10.726 -0.3179 -0.4285  0.0533
  160MOL0     C21508  -0.268   7.891  10.585  0.0532 -0.3234 -0.0964
  160MOL0     C21509  -0.261   8.046  10.573 -0.6985 -0.8303 -0.5767
  160MOL0    Cl21510  -0.140   8.114  10.691  0.1217 -0.1613 -0.2387
  160MOL0     C21511   0.388   7.547  10.804 -0.4075  0.6005 -0.0158
  160MOL0     C21512   0.515   7.569  10.763  1.2769 -0.6108  0.1653
  160MOL0     O21513   0.746   7.826  10.853 -0.4630  0.3058 -0.4206
  160MOL0     C21514   0.967   7.634  10.655  0.4457  0.4016  0.1217
  160MOL0     C21515   1.083   7.639  10.586  0.0568 -0.0814  1.2214
  160MOL0     N21516   1.854   7.857  10.386 -0.3727  0.0067  0.4073
  160MOL0     N21517   1.897   7.830  10.266  0.8668  0.0173 -0.6442
  160MOL0     C21518   2.809   8.041  10.281 -1.2016 -0.1956 -0.0035
  160MOL0     C21519   2.940   7.987  10.301 -0.3232  0.1267 -0.0453
  160MOL0     C21520   3.401   7.905  10.258 -0.2709  0.1457  0.2790
  160MOL0     C21521   3.528   7.909  10.203  0.2190  0.6115 -0.1936
  160MOL0     C21522   3.632   7.825  10.240 -0.2005 -1.3690  0.1321
  160MOL0     C21523   3.614   7.738  10.345 -0.3931  0.9300 -0.2166
  160MOL0     O21524   3.724   7.664  10.379 -0.7402 -0.1835  0.2477
  160MOL0     C21525   3.716   7.538  10.450  0.7345 -0.2097 -0.2631
  160MOL0     C21526   3.803   7.560  10.564 -0.4598  0.0984 -0.5932
  160MOL0     C21527   3.764   7.456  10.671  0.0042  0.1711 -0.2183
  160MOL0     C21528   3.783   7.503  10.817 -0.2272  0.4461 -0.4524
  160MOL0     C21529   3.699   7.616  10.853  0.3128 -0.1526  0.1029
  160MOL0     C21530   3.636   7.711  10.896  0.8203  0.4665  0.2811
  160MOL0     C21531   3.486   7.737  10.412  0.0342  0.5634  0.5395
  160MOL0     C21532   3.389   7.818  10.369  0.2304 -0.1772  0.4601
  160MOL0     H21533   3.097   8.096  10.025  0.0621 -2.5221 -1.2600
  160MOL0     H21534   2.888   8.206   9.977 -1.4506 -0.7547 -1.2453
  160MOL0     H21535   2.542   8.052  10.037  0.4816  1.9861 -1.6182
  160MOL0     H21536   2.580   7.978  10.193  0.0821  0.7104 -1.6888
  160MOL0     H21537   2.433   8.157  10.286  1.2711  0.7130 -0.0142
  160MOL0     H21538   2.405   8.216  10.125 -1.2283  1.3162  2.3323
  160MOL0     H21539   2.342   7.930  10.221  2.6045  1.0220 -1.3604
  160MOL0     H21540   2.217   8.060  10.209 -0.8188 -0.7656  0.3297
  160MOL0     H21541   2.294   8.069   9.958 -0.9722 -0.2872 -0.5176
  160MOL0     H21542   2.346   7.903   9.999  1.3703  0.9373 -0.0055
  160MOL0     H21543   2.120   7.881   9.906 -1.3662 -2.3850  1.5765
  160MOL0     H21544   2.112   7.853  10.082 -1.7293 -0.2015 -0.9659
  160MOL0     H21545   2.009   8.067  10.120  1.7185  0.8786 -1.4450
  160MOL0     H21546   2.056   8.123   9.961  1.2111  0.7530  0.5607
  160MOL0     H21547   1.807   8.078   9.994 -2.1859 -1.9962 -3.6636
  160MOL0     H21548   1.873   8.001   9.865  3.3902  2.6752 -0.7561
  160MOL0     H21549   1.875   7.785  10.004  2.2103  0.6878  1.8718
  160MOL0     H21550   1.712   7.849   9.989 -0.1407 -1.6650  1.5193
  160MOL0     H21551   1.622   7.996  10.205  1.6665 -1.2464 -3.9670
  160MOL0     H21552   1.750   8.015  10.559  2.5290 -3.0587 -1.9294
  160MOL0     H21553   1.601   8.064  10.467 -1.9096 -0.1947  1.4012
  160MOL0     H21554   1.588   7.891  10.677 -0.9205  0.0410 -0.1431
  160MOL0     H21555   1.636   7.772  10.558  2.3646  1.1247 -0.7487
  160MOL0     H21556   1.445   7.884  10.413  0.5173  1.2307 -0.0184
  160MOL0     H21557   1.401   7.961  10.576  0.3603 -0.1845 -0.0225
  160MOL0     H21558   1.357   7.738  10.660 -0.8977 -2.8020 -0.8980
  160MOL0     H21559   1.439   7.661  10.522 -0.6720 -0.9370  0.3180
  160MOL0     H21560   1.145   7.962  10.551  1.8401 -1.4985  0.7104
  160MOL0     H21561   0.945   8.011  10.831  0.3777 -0.1813  0.5322
  160MOL0     H21562   0.978   8.084  10.672  0.2073 -0.6881 -1.2305
  160MOL0     H21563   0.819   8.022  10.705 -0.2313 -0.4608  3.3530
  160MOL0     H21564   0.670   7.607  11.052  0.4208 -0.3013 -0.5687
  160MOL0     H21565   0.449   7.555  11.140  0.6835 -1.6105 -0.5717
  160MOL0     H21566   0.196   7.360  10.881  1.4024  0.3079  2.1853
  160MOL0     H21567   0.070   7.399  11.000 -0.8126  1.2950  0.1657
  160MOL0     H21568   0.105   7.566  10.758  2.0503  2.1795  2.1018
  160MOL0     H21569  -0.017   7.436  10.793 -1.8173  0.7913  1.5872
  160MOL0     H21570   0.006   7.688  10.949  1.4554  1.2500 -2.1376
  160MOL0     H21571  -0.113   7.557  10.967  2.9460 -1.6918  2.0647
  160MOL0     H21572  -0.072   7.686  10.689 -0.7184 -0.7701 -1.3579
  160MOL0     H21573  -0.212   7.604  10.748  0.7965 -0.8472  2.3438
  160MOL0     H21574  -0.139   7.877  10.847 -0.9679  0.1112  0.3918
  160MOL0     H21575  -0.257   7.773  10.926 -2.6849 -0.4125 -0.7288
  160MOL0     H21576  -0.384   7.751  10.701 -1.2263 -0.1658  1.4533
  160MOL0     H21577  -0.378   7.914  10.769 -0.0257  0.3200 -0.8936
  160MOL0     H21578  -0.350   7.867  10.516  0.5012  1.3452 -1.2755
  160MOL0     H21579  -0.181   7.841  10.543 -0.5018 -0.0524 -1.6321
  160MOL0     H21580  -0.364   8.076  10.591 -1.5148 -3.1193 -1.0580
  160MOL0     H21581  -0.237   8.069  10.469 -1.4190  1.5995 -0.2631
  160MOL0     H21582   0.318   7.533  10.723 -0.5216  1.1448 -0.0106
  160MOL0     H21583   0.541   7.578  10.658  1.1380  0.7870  0.2340
  160MOL0     H21584   0.926   7.534  10.661  1.8536 -0.5259 -3.5076
  160MOL0     H21585   1.131   7.547  10.553 -0.7242  0.5280 -1.9566
  160MOL0     H21586   2.734   8.027  10.359  0.4398  0.0902  1.6919
  160MOL0     H21587   2.966   7.932  10.391 -0.4793 -0.1894 -0.1938
  160MOL0     H21588   3.540   7.972  10.115  1.2966  0.2296 -0.3315
  160MOL0     H21589   3.730   7.838  10.196 -1.4169  3.0057 -1.8096
  160MOL0     H21590   3.611   7.515  10.470 -0.5753  5.6790  1.5289
  160MOL0     H21591   3.773   7.455  10.406 -0.4347 -1.4773  0.5121
  160MOL0     H21592   3.799   7.663  10.599  3.7721 -0.0848  1.0396
  160MOL0     H21593   3.904   7.526  10.537  0.3459  1.0355  1.1065
  160MOL0     H21594   3.818   7.362  10.658 -0.8177 -0.0933 -1.9021
  160MOL0     H21595   3.658   7.433  10.659 -0.5427  2.4296 -0.2395
  160MOL0     H21596   3.890   7.527  10.826 -0.0995 -0.7567  1.9425
  160MOL0     H21597   3.765   7.421  10.887  1.5047 -2.2260 -2.9063
  160MOL0     H21598   3.601   7.806  10.930  0.2703 -0.0377  1.1567
  160MOL0     H21599   3.461   7.676  10.499 -1.6899  2.3407  1.3769
  160MOL0     H21600   3.293   7.820  10.421  1.3216  2.7594  2.6218
  161MOL0     O21601  10.862   9.712  10.687  0.0584  0.3622 -0.1788
  161MOL0     C21602  10.977   9.744  10.647 -0.2391  0.1231  0.4417
  161MOL0     O21603  11.029   9.877  10.661  0.5183  0.2829  0.0436
  161MOL0     C21604  10.958   9.975  10.733 -0.1562 -0.7040  0.4936
  161MOL0     C21605  10.814   9.977  10.734 -0.3583  0.1205  0.1974
  161MOL0     C21606  10.745  10.072  10.811 -0.9490  0.1734 -0.7895
  161MOL0     C21607  10.820  10.164  10.888  0.0394  0.2893  0.2908
  161MOL0     O21608  10.771  10.264  10.965 -0.3591  0.1494  0.0176
  161MOL0     C21609  10.630  10.281  10.971  0.0279 -0.4056 -0.5510
  161MOL0     C21610  10.595  10.429  10.987  0.3881 -0.3253 -0.6393
  161MOL0     C21611  10.592  10.486  11.132 -0.3985  0.5732 -0.1160
  161MOL0     C21612  10.493  10.411  11.221  0.0559  0.8916  0.5998
  161MOL0     C21613  10.454  10.489  11.342  0.0189  0.1087 -0.1951
  161MOL0     C21614  10.368  10.414  11.439  0.9407 -0.1396  0.3382
  161MOL0     C21615  10.246  10.347  11.377  0.3836  0.7936  0.3715
  161MOL0     C21616  10.156  10.279  11.483 -0.2511 -0.1186 -0.0993
  161MOL0     N21617  10.022  10.274  11.430 -0.4179 -0.4443  0.1920
  161MOL0     C21618   9.904  10.336  11.472  0.1441 -0.3020 -0.5775
  161MOL0     C21619   9.816  10.313  11.370  0.4519  0.1463 -0.6602
  161MOL0     C21620   9.672  10.350  11.367 -0.1415 -0.3778  0.2365
  161MOL0     C21621   9.611  10.282  11.235 -0.8588  1.1194 -0.0634
  161MOL0     C21622   9.462  10.299  11.220  0.0491 -0.7751  0.4380
  161MOL0     C21623   9.411  10.425  11.151 -0.3588 -0.4571 -0.0598
  161MOL0     O21624   9.458  10.536  11.217 -1.2881 -0.5130 -0.2595
  161MOL0     C21625   9.406  10.580  11.329 -0.6010 -0.7336 -0.2460
  161MOL0     C21626   9.470  10.696  11.379 -0.6581 -0.0167  0.8048
  161MOL0     C21627   9.419  10.767  11.483  0.2389 -0.5227 -0.2502
  161MOL0     C21628   9.501  10.889  11.527 -0.3403 -0.4558  0.0760
  161MOL0     C21629   9.297  10.714  11.542  0.2411 -0.2971  0.6518
  161MOL0     C21630   9.226  10.775  11.653 -0.6582  0.3067 -0.6917
  161MOL0     O21631   9.094  10.734  11.677  1.0967  0.1008 -0.3204
  161MOL0     C21632   9.015  10.793  11.776 -0.1229  0.0331 -0.3710
  161MOL0     C21633   9.002  10.934  11.803  0.2790  0.0395  0.3184
  161MOL0     C21634   8.926  10.977  11.907  0.4989  0.0066  0.6454
  161MOL0     C21635   8.855  10.887  11.991 -0.6108  0.0356  0.6969
  161MOL0     O21636   8.778  10.918  12.100  0.2568  0.4397  0.0213
  161MOL0     C21637   8.800  11.045  12.169  0.4914  0.4972 -0.7475
  161MOL0     C21638   8.776  11.032  12.322 -0.4422 -0.0700  0.1920
  161MOL0     C21639   8.904  11.039  12.396  0.1512  0.1940  1.3726
  161MOL0     C21640   8.895  10.967  12.531 -0.4702  0.2729  0.1316
  161MOL0     C21641   9.015  10.984  12.616 -0.2526 -0.3155  0.1397
  161MOL0     C21642   9.015  10.874  12.729  0.2053  0.2783  0.3052
  161MOL0     C21643   9.110  10.900  12.842 -0.2657 -0.0706  0.1760
  161MOL0     C21644   9.082  10.830  12.974  0.1922 -0.0843  0.5461
  161MOL0    Cl21645   9.194  10.895  13.096  0.0800 -0.0269 -0.0937
  161MOL0     C21646   8.859  10.751  11.961 -0.0332 -0.4530  0.5328
  161MOL0     C21647   8.937  10.709  11.854  0.0792 -0.3611 -1.0636
  161MOL0     O21648   9.285  10.864  11.716 -0.2448  0.8719  0.5586
  161MOL0     C21649   9.255  10.584  11.509 -0.3862  0.1263 -0.2954
  161MOL0     C21650   9.305  10.519  11.399  0.3027 -0.4419 -0.0535
  161MOL0     N21651   9.888  10.246  11.265  0.0775 -0.6762  0.4888
  161MOL0     N21652  10.005  10.226  11.305 -0.0670 -1.2936  0.3621
  161MOL0     C21653  10.960  10.166  10.880  1.3270  0.4885 -0.0162
  161MOL0     C21654  11.023  10.064  10.813  0.3165  0.1086  0.6853
  161MOL0     C21655  11.054   9.644  10.563  0.1509  0.1263 -0.2480
  161MOL0     C21656  11.174   9.669  10.497 -1.3263 -0.5461 -0.1092
  161MOL0     C21657  11.242   9.576  10.425 -0.1438 -0.7728 -0.6148
  161MOL0     C21658  11.196   9.446  10.395  0.0708  0.1519  0.5322
  161MOL0     O21659  11.271   9.366  10.313 -0.9743  0.0261  0.0798
  161MOL0     C21660  11.229   9.240  10.293 -1.3876  1.0187 -0.6512
  161MOL0     C21661  11.282   9.128  10.393  0.1253  0.9808  0.2737
  161MOL0     C21662  11.301   8.988  10.319 -1.0048 -0.4846 -0.1968
  161MOL0     C21663  11.394   8.891  10.394  0.2299  0.4849  0.9901
  161MOL0     C21664  11.357   8.868  10.536  0.1418 -0.1038  0.4013
  161MOL0     C21665  11.323   8.839  10.646  0.4238  0.5415  0.5120
  161MOL0     C21666  11.069   9.426  10.458  0.1735  0.7373  0.9031
  161MOL0     C21667  11.002   9.519  10.542 -0.4034  0.5771  0.2198
  161MOL0     H21668  10.759   9.921  10.659  0.6721  2.3619 -2.4227
  161MOL0     H21669  10.641  10.089  10.786 -1.2220 -0.4283 -0.0896
  161MOL0     H21670  10.573  10.245  10.885  1.2491 -0.3927 -1.3879
  161MOL0     H21671  10.594  10.225  11.058 -0.5503 -0.5429 -0.8768
  161MOL0     H21672  10.654  10.495  10.922  0.1398  2.6171  1.8895
  161MOL0     H21673  10.495  10.440  10.944  0.9290  4.2317 -1.2955
  161MOL0     H21674  10.689  10.472  11.180 -1.0618 -0.6432  0.9417
  161MOL0     H21675  10.563  10.592  11.132  0.8288  0.9321  1.2627
  161MOL0     H21676  10.399  10.397  11.167 -0.2580 -1.7009  1.6857
  161MOL0     H21677  10.545  10.316  11.237  0.9688  1.1587 -0.6435
  161MOL0     H21678  10.547  10.515  11.392  0.5607 -2.2824  0.1776
  161MOL0     H21679  10.411  10.585  11.314 -0.2922  0.1594  0.4263
  161MOL0     H21680  10.426  10.330  11.477  1.0761 -0.7954 -1.2404
  161MOL0     H21681  10.333  10.482  11.517 -5.5521 -0.6916 -1.4792
  161MOL0     H21682  10.190  10.411  11.308 -2.2073  0.0093  1.6342
  161MOL0     H21683  10.278  10.261  11.317 -0.2044 -1.2330  2.7865
  161MOL0     H21684  10.154  10.332  11.579  0.5924 -0.2077 -0.0315
  161MOL0     H21685  10.180  10.173  11.496  1.0207  0.2343  0.6061
  161MOL0     H21686   9.874  10.395  11.559  1.7641 -0.4568  0.1238
  161MOL0     H21687   9.607  10.323  11.450 -0.5484  1.4764  0.5612
  161MOL0     H21688   9.669  10.459  11.357 -2.3296 -0.4030  0.1527
  161MOL0     H21689   9.619  10.173  11.244 -0.6798  1.1348 -0.0287
  161MOL0     H21690   9.668  10.313  11.147  4.5891  0.5026  2.7981
  161MOL0     H21691   9.411  10.288  11.316 -2.3721  0.8505 -0.5650
  161MOL0     H21692   9.422  10.221  11.153  0.0625 -0.4802  0.0816
  161MOL0     H21693   9.302  10.431  11.139 -0.2945 -0.7719 -0.9234
  161MOL0     H21694   9.438  10.424  11.045 -1.8004  2.2320 -0.5217
  161MOL0     H21695   9.547  10.729  11.310  3.8313 -0.3053  5.1535
  161MOL0     H21696   9.437  10.974  11.552 -0.3635 -0.7798  1.1828
  161MOL0     H21697   9.556  10.863  11.618 -1.7319  2.4288  1.8523
  161MOL0     H21698   9.577  10.910  11.451  1.3011  2.8042  2.3978
  161MOL0     H21699   9.054  11.015  11.752  0.2183 -0.6564 -0.8690
  161MOL0     H21700   8.931  11.082  11.933  1.9278 -0.5396  2.9069
  161MOL0     H21701   8.894  11.093  12.141 -0.6158  1.3311 -3.3684
  161MOL0     H21702   8.722  11.112  12.133 -1.0234 -1.2972 -0.9588
  161MOL0     H21703   8.725  11.125  12.348 -1.1819 -0.0277 -1.3009
  161MOL0     H21704   8.698  10.960  12.350  0.9454 -0.7391  2.5249
  161MOL0     H21705   8.936  11.143  12.410  0.1299  0.2004  1.3750
  161MOL0     H21706   8.991  11.001  12.341  1.5954  4.1398  0.5722
  161MOL0     H21707   8.805  11.006  12.580 -1.2654  0.5835 -1.5112
  161MOL0     H21708   8.884  10.860  12.515  3.4152 -0.0983 -0.9356
  161MOL0     H21709   9.015  11.080  12.668  1.2260 -0.5049  0.5310
  161MOL0     H21710   9.113  10.994  12.568  0.0600  0.3937  0.9114
  161MOL0     H21711   8.917  10.884  12.777 -1.4542  2.1241 -3.0775
  161MOL0     H21712   9.024  10.777  12.680  0.7886  0.6981 -0.4468
  161MOL0     H21713   9.096  11.005  12.869  3.7567  0.8214 -0.5640
  161MOL0     H21714   9.214  10.883  12.813  0.8559  0.5290  3.4611
  161MOL0     H21715   9.109  10.724  12.965  1.9585  0.3797  0.0507
  161MOL0     H21716   8.977  10.829  13.007  0.2823 -3.7825  1.1396
  161MOL0     H21717   8.807  10.672  12.014 -0.5937 -1.3462 -1.2435
  161MOL0     H21718   8.942  10.604  11.825 -1.0826 -0.6991 -0.1116
  161MOL0     H21719   9.165  10.534  11.544 -1.1022  1.0231 -0.8087
  161MOL0     H21720   9.259  10.426  11.365  1.4531 -1.1541  0.2866
  161MOL0     H21721  11.023  10.237  10.934  1.7981  0.0103  0.0748
  161MOL0     H21722  11.132  10.060  10.818  0.3189  0.4953  0.9607
  161MOL0     H21723  11.229   9.762  10.511  1.0577 -2.0304  0.8964
  161MOL0     H21724  11.330   9.601  10.366  0.6796 -0.6267  0.6360
  161MOL0     H21725  11.120   9.239  10.286 -1.7607 -1.6097  2.6475
  161MOL0     H21726  11.266   9.216  10.193 -1.4537  0.5476 -0.5682
  161MOL0     H21727  11.200   9.106  10.462 -2.0150  0.9471 -2.1613
  161MOL0     H21728  11.367   9.167  10.450 -1.3458  1.4789  2.2287
  161MOL0     H21729  11.356   9.013  10.228 -0.4937  0.3218  0.3217
  161MOL0     H21730  11.201   8.956  10.287 -2.1748  2.3536  0.3070
  161MOL0     H21731  11.495   8.931  10.378 -0.2989  1.0348 -1.5177
  161MOL0     H21732  11.392   8.800  10.334  1.8376 -0.6795  2.6059
  161MOL0     H21733  11.306   8.824  10.751 -2.8840  1.5543  0.2470
  161MOL0     H21734  11.011   9.335  10.462 -0.9030  1.4415  2.7275
  161MOL0     H21735  10.903   9.496  10.580  0.2754  0.2652  1.8744
  162MOL0     O21736   8.809   6.260   6.374  0.7102 -0.5371 -0.7280
  162MOL0     C21737   8.910   6.190   6.361 -0.7109 -0.8456  0.7793
  162MOL0     O21738   8.916   6.067   6.310  0.0053 -0.4295  0.0379
  162MOL0     C21739   8.796   6.011   6.274  0.3018 -0.5361  0.3721
  162MOL0     C21740   8.673   6.000   6.350 -0.4964 -0.1325 -0.8851
  162MOL0     C21741   8.569   5.937   6.276 -0.4763 -1.0639 -0.9758
  162MOL0     C21742   8.586   5.873   6.154  0.0176  0.0978 -0.0882
  162MOL0     O21743   8.469   5.817   6.107 -0.0190  0.5102 -0.2797
  162MOL0     C21744   8.474   5.770   5.973 -0.3889  0.4567 -0.3868
  162MOL0     C21745   8.333   5.706   5.941 -0.2806  0.0779  0.0955
  162MOL0     C21746   8.251   5.827   5.893  1.0092  0.5665 -0.0563
  162MOL0     C21747   8.100   5.783   5.901 -0.2263 -0.0942  0.4286
  162MOL0     C21748   8.017   5.906   5.884  0.2804  0.9868  0.6078
  162MOL0     C21749   7.895   5.896   5.978  0.2680  0.4023  0.6788
  162MOL0     C21750   7.802   5.781   5.943  0.3190  0.4147 -0.4257
  162MOL0     C21751   7.692   5.764   6.047 -0.5567  0.6926  0.4486
  162MOL0     N21752   7.566   5.738   5.986 -0.3660 -0.9587  0.1664
  162MOL0     C21753   7.464   5.830   5.961 -0.7160 -0.1615 -0.5986
  162MOL0     C21754   7.368   5.759   5.902 -0.5833  0.7190 -0.1649
  162MOL0     C21755   7.255   5.816   5.832  0.5540  0.1763 -0.5746
  162MOL0     C21756   7.146   5.888   5.919 -0.3227  0.8313 -0.4996
  162MOL0     C21757   7.043   5.959   5.840 -0.2379 -0.2785  0.3173
  162MOL0     C21758   6.943   5.856   5.766 -1.1436  0.1441  0.2001
  162MOL0     O21759   6.837   5.933   5.713  0.6967 -0.5893  0.8316
  162MOL0     C21760   6.737   5.965   5.803  0.4775 -0.3367 -0.4663
  162MOL0     C21761   6.717   5.916   5.936  0.3854  0.3213  0.3282
  162MOL0     C21762   6.615   5.954   6.024 -0.6991 -0.1661 -0.3757
  162MOL0     C21763   6.598   5.890   6.159 -0.3045  0.4436  0.9771
  162MOL0     C21764   6.531   6.058   5.984 -0.7394  1.1328  0.5883
  162MOL0     C21765   6.404   6.102   6.057 -0.7269  1.4095  0.3534
  162MOL0     O21766   6.372   6.233   6.054 -0.7893 -0.7122 -1.0302
  162MOL0     C21767   6.273   6.295   6.130  0.4091  0.0221 -0.4798
  162MOL0     C21768   6.213   6.260   6.252 -0.4388  1.1347 -0.1531
  162MOL0     C21769   6.124   6.344   6.311 -0.5314  0.3278 -1.0435
  162MOL0     C21770   6.079   6.453   6.243  0.4080 -0.3781  0.3115
  162MOL0     O21771   5.974   6.537   6.280 -0.7945 -0.4041  0.1360
  162MOL0     C21772   5.953   6.552   6.422  0.0350  0.1664 -0.1599
  162MOL0     C21773   5.825   6.479   6.463  0.0293 -0.4351 -0.7059
  162MOL0     C21774   5.699   6.564   6.424 -0.4394  0.2553 -0.1067
  162MOL0     C21775   5.577   6.483   6.461 -0.4921 -0.2019 -0.4962
  162MOL0     C21776   5.455   6.561   6.438 -0.5100 -0.4197 -0.5435
  162MOL0     C21777   5.335   6.515   6.524  0.3971 -0.6839  0.1087
  162MOL0     C21778   5.234   6.633   6.543 -0.5011 -0.0186 -0.1621
  162MOL0     C21779   5.126   6.594   6.643 -0.6604 -0.8343  0.0701
  162MOL0    Cl21780   5.009   6.480   6.572 -0.4728 -0.0191  0.5064
  162MOL0     C21781   6.133   6.488   6.121  0.2334 -0.2643 -0.1100
  162MOL0     C21782   6.228   6.406   6.064  0.5108 -0.2096  0.8400
  162MOL0     O21783   6.345   6.018   6.128 -0.6360 -0.2240  0.1863
  162MOL0     C21784   6.553   6.110   5.849  1.6481 -0.1567  0.8281
  162MOL0     C21785   6.656   6.066   5.768 -0.0910  0.8061  0.5884
  162MOL0     N21786   7.417   5.633   5.884 -0.1739 -0.1402  0.5460
  162MOL0     N21787   7.528   5.623   5.937  0.3319 -0.0043  0.1468
  162MOL0     C21788   8.703   5.890   6.081  0.1592 -0.0549 -0.1492
  162MOL0     C21789   8.801   5.962   6.146 -0.1845  0.3305 -0.3571
  162MOL0     C21790   9.041   6.253   6.406  0.0457 -0.1691 -0.5083
  162MOL0     C21791   9.152   6.181   6.435 -0.1083  0.0763  0.3106
  162MOL0     C21792   9.263   6.245   6.484 -0.3794  0.0658  0.3818
  162MOL0     C21793   9.270   6.379   6.507  0.0003 -1.0848  0.0486
  162MOL0     O21794   9.383   6.426   6.553 -0.7650 -0.1707 -0.3725
  162MOL0     C21795   9.385   6.534   6.640 -0.1012  0.5817  0.0590
  162MOL0     C21796   9.490   6.504   6.749  0.8983 -0.8513  0.4582
  162MOL0     C21797   9.523   6.628   6.852 -0.0696 -0.6778  0.3418
  162MOL0     C21798   9.598   6.742   6.790 -0.1183  0.2089 -0.1743
  162MOL0     C21799   9.725   6.688   6.745 -0.4216 -1.1805  0.6514
  162MOL0     C21800   9.821   6.635   6.704  0.3896  0.5764 -0.0154
  162MOL0     C21801   9.152   6.455   6.470  0.2898 -0.5084 -0.3909
  162MOL0     C21802   9.045   6.391   6.425 -0.0689 -0.6056 -0.6635
  162MOL0     H21803   8.649   6.034   6.450 -2.5544  2.6777 -2.2015
  162MOL0     H21804   8.474   5.928   6.327 -2.0877 -4.3373 -4.0869
  162MOL0     H21805   8.493   5.865   5.922  0.3174  0.1143 -0.7700
  162MOL0     H21806   8.547   5.691   5.957 -0.5375  0.0910  0.6888
  162MOL0     H21807   8.331   5.626   5.867  0.6640  1.5403 -1.5785
  162MOL0     H21808   8.290   5.671   6.035  0.8259  0.3758  0.7341
  162MOL0     H21809   8.269   5.912   5.959  1.8846  3.3347 -3.5236
  162MOL0     H21810   8.274   5.862   5.792  1.4947  2.3622  0.6237
  162MOL0     H21811   8.074   5.704   5.829 -3.4501  2.8950 -2.0425
  162MOL0     H21812   8.084   5.730   5.995 -0.2824 -1.4845 -0.3332
  162MOL0     H21813   8.081   5.988   5.918  1.3704 -0.0845  1.2664
  162MOL0     H21814   7.981   5.917   5.781  0.4520  2.0980  0.6592
  162MOL0     H21815   7.922   5.890   6.084  3.4407  0.8227  0.0107
  162MOL0     H21816   7.837   5.984   5.951 -3.1408 -1.9049 -0.2565
  162MOL0     H21817   7.749   5.805   5.850  0.8059 -3.1407 -1.7728
  162MOL0     H21818   7.836   5.678   5.924 -0.8825 -0.0428 -0.1963
  162MOL0     H21819   7.705   5.843   6.122  0.2143 -0.5037  1.6149
  162MOL0     H21820   7.732   5.678   6.102  0.0197 -0.2482 -1.3871
  162MOL0     H21821   7.456   5.937   5.975  1.4659 -0.3452  3.5027
  162MOL0     H21822   7.287   5.889   5.757 -0.6151 -2.2057 -3.6118
  162MOL0     H21823   7.203   5.731   5.787  1.3776 -0.4044 -0.4373
  162MOL0     H21824   7.201   5.957   5.984  0.4620  0.1966 -0.4746
  162MOL0     H21825   7.102   5.813   5.986  2.3313 -0.1317  0.2950
  162MOL0     H21826   7.094   6.019   5.764 -0.4658  0.1156  0.4754
  162MOL0     H21827   6.986   6.021   5.909 -2.8684 -1.0514 -1.0414
  162MOL0     H21828   6.908   5.777   5.833 -1.0861 -0.0556 -0.0043
  162MOL0     H21829   6.979   5.809   5.674 -0.0476  0.8377  0.2555
  162MOL0     H21830   6.782   5.837   5.973  1.0356  0.8041  0.2314
  162MOL0     H21831   6.693   5.843   6.185 -0.0328  1.4715  1.9389
  162MOL0     H21832   6.580   5.960   6.242 -0.4883  0.1983  1.1476
  162MOL0     H21833   6.515   5.818   6.156  0.8384 -0.8899 -1.4279
  162MOL0     H21834   6.244   6.175   6.312 -0.8418  1.6170  0.7466
  162MOL0     H21835   6.084   6.324   6.409  1.2869 -3.1109 -0.8644
  162MOL0     H21836   6.041   6.528   6.483 -1.4850  0.8076  2.4667
  162MOL0     H21837   5.937   6.658   6.444 -0.1618 -0.1562  1.3956
  162MOL0     H21838   5.814   6.380   6.418 -2.7001 -0.1843 -0.7742
  162MOL0     H21839   5.828   6.467   6.572  0.5751  2.4451 -0.3212
  162MOL0     H21840   5.695   6.593   6.319 -2.1473  1.0804  0.1624
  162MOL0     H21841   5.688   6.661   6.473 -3.9299 -0.0123 -0.1038
  162MOL0     H21842   5.564   6.390   6.404 -2.1261  1.6535 -3.3774
  162MOL0     H21843   5.579   6.457   6.567 -0.5319 -2.7496 -1.0420
  162MOL0     H21844   5.421   6.537   6.337 -0.6215 -4.2299  0.2200
  162MOL0     H21845   5.462   6.666   6.465  0.7670 -0.8681  1.0413
  162MOL0     H21846   5.287   6.431   6.472  1.1406 -0.6380 -0.6590
  162MOL0     H21847   5.375   6.493   6.623 -1.1416  0.5381  1.0381
  162MOL0     H21848   5.202   6.662   6.442  3.1921 -0.9438 -1.7784
  162MOL0     H21849   5.293   6.711   6.592 -0.7980  0.5775 -0.7375
  162MOL0     H21850   5.085   6.692   6.671 -1.0838 -0.8471 -0.4825
  162MOL0     H21851   5.174   6.552   6.733 -0.4097 -3.5851 -1.2320
  162MOL0     H21852   6.093   6.575   6.069  1.7533 -1.6058 -3.9400
  162MOL0     H21853   6.257   6.422   5.961  1.1912 -0.9799  0.9020
  162MOL0     H21854   6.493   6.199   5.831  0.2691 -1.0867  0.6947
  162MOL0     H21855   6.700   6.122   5.686  2.3608 -0.0061  1.2630
  162MOL0     H21856   8.713   5.868   5.975  0.1306  1.7161 -0.5547
  162MOL0     H21857   8.884   5.989   6.082  0.4021  1.7249  0.9441
  162MOL0     H21858   9.148   6.077   6.405 -2.3295  0.1650  0.0976
  162MOL0     H21859   9.342   6.174   6.506 -0.9732 -0.6654  0.1727
  162MOL0     H21860   9.399   6.627   6.584 -1.5196  0.4926 -0.5059
  162MOL0     H21861   9.294   6.543   6.701  1.0225 -1.1540  2.1100
  162MOL0     H21862   9.589   6.470   6.718  1.9872  2.7316 -0.3999
  162MOL0     H21863   9.438   6.426   6.806 -2.9853  0.1453 -1.3369
  162MOL0     H21864   9.575   6.601   6.944  1.9270  0.2877 -0.4266
  162MOL0     H21865   9.424   6.664   6.881  0.0776 -0.8788  1.1051
  162MOL0     H21866   9.602   6.816   6.871 -1.6490  1.5537 -1.2461
  162MOL0     H21867   9.541   6.793   6.712 -0.0041  2.1105  0.9287
  162MOL0     H21868   9.904   6.576   6.668 -1.0030 -0.9359 -0.8647
  162MOL0     H21869   9.152   6.560   6.496 -3.0492 -0.9494  2.1882
  162MOL0     H21870   8.953   6.448   6.419 -1.7641 -3.1084 -0.0387
  163MOL0     O21871  11.219   1.155   6.518 -0.2004  0.0629  0.8267
  163MOL0     C21872  11.141   1.240   6.486  0.2116 -0.0955 -0.1194
  163MOL0     O21873  11.007   1.245   6.514 -0.4414 -0.2252  0.2513
  163MOL0     C21874  10.941   1.156   6.594 -0.0530  0.1702 -0.1358
  163MOL0     C21875  10.996   1.087   6.703 -0.6871  0.1788 -0.2629
  163MOL0     C21876  10.913   1.004   6.781  0.3540 -1.1838  0.9944
  163MOL0     C21877  10.775   0.989   6.751 -0.1178  0.8414  0.0019
  163MOL0     O21878  10.707   0.892   6.818  0.6018 -0.3421 -0.3979
  163MOL0     C21879  10.568   0.866   6.769  0.3858  0.6178 -0.4236
  163MOL0     C21880  10.502   0.749   6.846 -0.1493  0.4101  0.0367
  163MOL0     C21881  10.368   0.692   6.802  0.6065  0.0844 -0.2327
  163MOL0     C21882  10.268   0.800   6.838  0.4603 -0.2098  0.0863
  163MOL0     C21883  10.131   0.743   6.876  0.6190 -0.3540  0.3102
  163MOL0     C21884  10.118   0.689   7.018  0.1330  0.6329 -0.1216
  163MOL0     C21885   9.979   0.629   7.046 -0.3023 -0.8277  0.0567
  163MOL0     C21886   9.873   0.740   7.086 -0.1744  0.1479  0.2390
  163MOL0     N21887   9.746   0.671   7.127  0.3626  0.5563 -0.8565
  163MOL0     C21888   9.711   0.637   7.253 -0.6011 -0.5425 -0.7163
  163MOL0     C21889   9.602   0.555   7.246 -0.2704 -0.7031  0.5315
  163MOL0     C21890   9.512   0.506   7.353  1.1563 -1.1271 -1.0863
  163MOL0     C21891   9.371   0.561   7.343 -0.0678 -0.3472 -0.4986
  163MOL0     C21892   9.286   0.499   7.448  0.4964 -0.3136 -0.8103
  163MOL0     C21893   9.142   0.552   7.452 -0.0432 -0.0424  1.3704
  163MOL0     O21894   9.136   0.692   7.484  0.4707  0.4753  0.8216
  163MOL0     C21895   9.016   0.756   7.473  0.8310 -0.7539  0.4176
  163MOL0     C21896   9.020   0.887   7.517 -0.1278 -1.0036  0.0465
  163MOL0     C21897   8.901   0.969   7.521  0.2547 -0.2992  0.3890
  163MOL0     C21898   8.930   1.104   7.584 -0.0215  0.1884 -0.2476
  163MOL0     C21899   8.780   0.915   7.486  0.2373  0.4357  0.1020
  163MOL0     C21900   8.646   0.979   7.487  0.3115 -0.8949 -0.0083
  163MOL0     O21901   8.543   0.928   7.421  0.4071 -0.6754  0.2863
  163MOL0     C21902   8.429   1.002   7.397 -0.4398 -0.2035 -0.1461
  163MOL0     C21903   8.372   1.078   7.500  0.0561 -0.1618 -0.2351
  163MOL0     C21904   8.273   1.167   7.472  0.7496 -0.5556 -1.7974
  163MOL0     C21905   8.217   1.174   7.345  0.5981  1.1357  0.3188
  163MOL0     O21906   8.099   1.234   7.308  0.7256  0.3759  0.4464
  163MOL0     C21907   7.991   1.244   7.410  0.6772 -0.4418  0.0565
  163MOL0     C21908   7.858   1.265   7.338  0.3894 -0.2148 -0.7315
  163MOL0     C21909   7.734   1.294   7.425  0.5644 -0.7657  0.2836
  163MOL0     C21910   7.632   1.376   7.345 -0.8680  0.2286  0.2085
  163MOL0     C21911   7.492   1.388   7.419 -0.1306  0.0416  0.3423
  163MOL0     C21912   7.393   1.462   7.325  0.1491  0.2035  0.5787
  163MOL0     C21913   7.286   1.532   7.398 -0.1901 -0.5535  0.4222
  163MOL0     C21914   7.152   1.553   7.322 -0.3692  0.1168  0.3398
  163MOL0    Cl21915   7.017   1.609   7.435 -0.3852  0.3956  0.2300
  163MOL0     C21916   8.263   1.088   7.240  0.0015 -0.0834 -0.5489
  163MOL0     C21917   8.373   1.008   7.271 -0.5799  0.6185  0.0382
  163MOL0     O21918   8.655   1.090   7.532  0.7845 -0.3335 -0.0825
  163MOL0     C21919   8.777   0.785   7.432  0.0487  0.1123 -0.3238
  163MOL0     C21920   8.892   0.708   7.423  0.0405  0.0083  0.1144
  163MOL0     N21921   9.561   0.547   7.115 -0.4574  0.0297 -0.3736
  163MOL0     N21922   9.649   0.619   7.042 -0.1542  0.4722 -0.7451
  163MOL0     C21923  10.727   1.070   6.644  1.0085 -0.4037 -0.1024
  163MOL0     C21924  10.808   1.157   6.572  0.3189  0.1802 -0.6252
  163MOL0     C21925  11.201   1.355   6.420 -0.0006 -0.2593 -0.1518
  163MOL0     C21926  11.324   1.354   6.374 -0.5022 -0.2371 -0.0109
  163MOL0     C21927  11.394   1.472   6.333  0.4698 -0.0681 -0.6306
  163MOL0     C21928  11.322   1.596   6.333  0.9138 -0.0273 -0.5935
  163MOL0     O21929  11.362   1.717   6.270  0.1460 -0.0629  0.1783
  163MOL0     C21930  11.495   1.728   6.219 -0.4325 -0.5320 -0.0182
  163MOL0     C21931  11.606   1.748   6.329 -0.5018  0.2967  0.8381
  163MOL0     C21932  11.585   1.887   6.389 -0.1798 -0.2933 -0.0974
  163MOL0     C21933  11.676   1.927   6.500  0.1014  0.7412 -0.7448
  163MOL0     C21934  11.790   1.993   6.450 -0.8239  0.2925  0.3658
  163MOL0     C21935  11.889   2.064   6.438 -0.5205  0.6686 -0.2246
  163MOL0     C21936  11.190   1.594   6.384 -0.1517 -0.0343  0.2754
  163MOL0     C21937  11.133   1.479   6.428 -0.4970 -0.2065 -0.7392
  163MOL0     H21938  11.100   1.099   6.729 -1.1543  1.8778  1.0589
  163MOL0     H21939  10.956   0.952   6.867  1.0026 -1.3305  0.5871
  163MOL0     H21940  10.500   0.952   6.777 -0.0362  0.5605 -2.7411
  163MOL0     H21941  10.571   0.836   6.664 -2.7302 -0.2580 -0.3479
  163MOL0     H21942  10.563   0.662   6.822 -3.1003 -1.3327 -1.8391
  163MOL0     H21943  10.490   0.760   6.954 -0.3677  0.1603  0.0384
  163MOL0     H21944  10.369   0.677   6.693  2.0521  4.0456 -0.9274
  163MOL0     H21945  10.350   0.599   6.856  0.4888  1.5682  2.4338
  163MOL0     H21946  10.306   0.860   6.921 -3.2257  0.5555  1.4170
  163MOL0     H21947  10.251   0.859   6.747  3.9750 -0.1975 -0.7052
  163MOL0     H21948  10.061   0.827   6.870  0.8037 -0.2839 -1.0169
  163MOL0     H21949  10.107   0.674   6.795  0.0816  2.1769 -1.8368
  163MOL0     H21950  10.198   0.615   7.032  1.2807  1.5893 -1.3754
  163MOL0     H21951  10.133   0.765   7.096 -1.9860  0.4567  0.5103
  163MOL0     H21952   9.947   0.582   6.952 -2.6553  0.3270  0.2199
  163MOL0     H21953   9.983   0.548   7.119  1.6617  1.0957  2.2620
  163MOL0     H21954   9.841   0.797   6.998  0.3633 -0.3984 -0.3121
  163MOL0     H21955   9.910   0.798   7.171 -0.0707  2.6320 -1.3916
  163MOL0     H21956   9.744   0.680   7.347  0.0274 -1.4035 -0.5352
  163MOL0     H21957   9.508   0.397   7.346 -1.1913 -1.0598 -1.9218
  163MOL0     H21958   9.558   0.526   7.450  2.0234 -1.4297 -1.4236
  163MOL0     H21959   9.338   0.548   7.239  1.7300  0.9114 -1.2801
  163MOL0     H21960   9.377   0.667   7.368 -0.5396 -0.1124 -1.3428
  163MOL0     H21961   9.332   0.528   7.543  0.9785  0.2293 -1.2004
  163MOL0     H21962   9.290   0.390   7.444  1.5985 -0.3359  0.3605
  163MOL0     H21963   9.089   0.497   7.530 -0.2223 -0.5651  0.8897
  163MOL0     H21964   9.090   0.535   7.357  0.9540  1.5143  0.4894
  163MOL0     H21965   9.114   0.939   7.532 -1.7881  2.7109 -1.0875
  163MOL0     H21966   8.882   1.111   7.681  1.2844 -0.5375  0.4847
  163MOL0     H21967   9.036   1.119   7.608 -0.7295  1.0509  2.6935
  163MOL0     H21968   8.886   1.185   7.525  1.9318  1.0883 -0.5473
  163MOL0     H21969   8.420   1.089   7.597  2.6030  1.5389 -1.5647
  163MOL0     H21970   8.238   1.243   7.541  0.2009 -0.9428 -1.6383
  163MOL0     H21971   7.973   1.150   7.462  3.3529 -0.3001  1.4075
  163MOL0     H21972   7.998   1.330   7.477 -2.3233 -1.5639  1.9921
  163MOL0     H21973   7.881   1.353   7.276  1.1834  0.8391  0.9809
  163MOL0     H21974   7.849   1.177   7.274 -1.8186 -0.5432 -0.0471
  163MOL0     H21975   7.768   1.345   7.516  2.4842 -0.6598 -0.4432
  163MOL0     H21976   7.684   1.202   7.458 -0.8213 -0.1815 -0.0915
  163MOL0     H21977   7.673   1.474   7.320  0.6502 -0.7631 -1.4608
  163MOL0     H21978   7.617   1.322   7.252  0.6541  1.2985 -0.7128
  163MOL0     H21979   7.503   1.441   7.513  0.0320 -1.6750  1.3306
  163MOL0     H21980   7.460   1.291   7.459  2.2706 -0.4037  1.3697
  163MOL0     H21981   7.440   1.542   7.267 -1.9766 -0.4645 -2.3341
  163MOL0     H21982   7.351   1.390   7.253 -0.3581 -2.3016  3.1823
  163MOL0     H21983   7.322   1.631   7.430 -1.7836 -0.5508  2.4071
  163MOL0     H21984   7.267   1.477   7.491 -0.9891  2.4187  2.1628
  163MOL0     H21985   7.123   1.461   7.271  1.4226  0.1355 -0.8067
  163MOL0     H21986   7.166   1.623   7.239  0.4621 -2.0047 -1.4001
  163MOL0     H21987   8.191   1.087   7.158 -0.6350 -1.0311 -0.0102
  163MOL0     H21988   8.413   0.941   7.195 -1.0846 -2.2360  2.1582
  163MOL0     H21989   8.685   0.736   7.401  0.6251 -0.7881 -0.6347
  163MOL0     H21990   8.890   0.608   7.381  0.4028 -0.2716  0.7435
  163MOL0     H21991  10.624   1.072   6.610  1.1789  1.9253 -0.6467
  163MOL0     H21992  10.762   1.230   6.505 -0.8543  2.0469  2.0302
  163MOL0     H21993  11.389   1.266   6.371 -1.2105 -0.7735  0.0710
  163MOL0     H21994  11.499   1.476   6.308  0.8055 -0.8694  0.5558
  163MOL0     H21995  11.523   1.636   6.167  0.3035  0.2079 -0.9546
  163MOL0     H21996  11.499   1.809   6.146 -1.1151 -0.2011  0.3022
  163MOL0     H21997  11.703   1.752   6.277 -1.7253 -2.0580 -1.9117
  163MOL0     H21998  11.602   1.662   6.397 -1.3441  1.2520  2.0402
  163MOL0     H21999  11.490   1.895   6.443  0.6764  1.0282  1.3050
  163MOL0     H22000  11.598   1.964   6.312 -1.9894 -1.0627 -1.2206
  163MOL0     H22001  11.715   1.847   6.565 -0.5257  3.2645  3.0817
  163MOL0     H22002  11.620   1.988   6.572  2.7883  0.6016  1.6465
  163MOL0     H22003  11.970   2.134   6.434 -1.1986  1.3811 -2.8175
  163MOL0     H22004  11.142   1.691   6.380 -0.5705 -0.0133  3.6548
  163MOL0     H22005  11.036   1.490   6.475  0.4396  0.7989  1.0956
  164MOL0     O22006   6.797   7.165   8.273 -0.4610  0.7626 -0.7272
  164MOL0     C22007   6.771   7.224   8.169  0.4425 -0.4038  0.5933
  164MOL0     O22008   6.864   7.276   8.078 -0.4399  0.7118 -0.1404
  164MOL0     C22009   6.995   7.216   8.081  0.6507 -0.3193  0.0128
  164MOL0     C22010   7.088   7.270   8.171  0.5217 -0.3384  0.3323
  164MOL0     C22011   7.209   7.206   8.180  0.1435  0.7789 -0.2883
  164MOL0     C22012   7.245   7.107   8.091  0.5082 -0.6213  0.8729
  164MOL0     O22013   7.367   7.049   8.083 -0.2656  0.3805  0.0800
  164MOL0     C22014   7.467   7.091   8.169  0.9825 -0.4051 -0.1424
  164MOL0     C22015   7.593   7.009   8.125  0.3749 -0.3168  0.6638
  164MOL0     C22016   7.709   7.034   8.215  0.4983 -0.4247 -0.4647
  164MOL0     C22017   7.832   6.952   8.178  0.9032 -0.2531  0.2342
  164MOL0     C22018   7.899   6.985   8.043  0.0913 -0.6829  0.5697
  164MOL0     C22019   8.026   6.899   8.017  0.3390  0.3942 -0.1257
  164MOL0     C22020   7.996   6.756   7.965 -0.5411 -0.2508  0.0645
  164MOL0     C22021   7.991   6.761   7.811 -0.1371 -0.4303  1.1514
  164MOL0     N22022   7.968   6.632   7.747  0.3472 -0.1582  0.1527
  164MOL0     C22023   7.915   6.525   7.807  0.3725  0.1041 -0.6382
  164MOL0     C22024   7.883   6.445   7.707  0.1511  1.4041  0.4015
  164MOL0     C22025   7.800   6.329   7.715 -0.0865  0.1100  0.4085
  164MOL0     C22026   7.874   6.195   7.737 -0.1897  0.2057  0.8966
  164MOL0     C22027   7.784   6.093   7.811 -0.3119 -0.2501  0.8322
  164MOL0     C22028   7.643   6.068   7.753 -0.0443 -0.4791 -0.2074
  164MOL0     O22029   7.646   6.045   7.614 -0.3676  0.7515  0.3134
  164MOL0     C22030   7.531   5.990   7.553  1.0326 -0.3329 -0.4790
  164MOL0     C22031   7.525   6.002   7.420 -0.4328  0.0039 -0.1476
  164MOL0     C22032   7.410   5.965   7.341 -0.8779  0.5781 -0.2962
  164MOL0     C22033   7.407   6.009   7.205 -0.4075 -0.1593 -0.0002
  164MOL0     C22034   7.301   5.899   7.401  0.7306  0.3992  1.0157
  164MOL0     C22035   7.168   5.863   7.329 -0.3617  0.1338 -1.2107
  164MOL0     O22036   7.116   5.748   7.378 -0.5578  0.2103  0.3218
  164MOL0     C22037   7.007   5.691   7.332 -0.1908  0.4186 -0.0749
  164MOL0     C22038   6.969   5.690   7.200  0.1097 -0.4407 -0.4844
  164MOL0     C22039   6.859   5.624   7.150 -0.0882 -0.1856  0.2813
  164MOL0     C22040   6.766   5.572   7.242 -0.3234 -0.9121  0.3542
  164MOL0     O22041   6.650   5.515   7.190  0.1812 -0.0271  0.6428
  164MOL0     C22042   6.548   5.484   7.287 -0.7507 -0.2526  0.6273
  164MOL0     C22043   6.424   5.457   7.212  0.7009  0.4663 -0.2426
  164MOL0     C22044   6.361   5.577   7.140  0.3152  0.4425  0.2801
  164MOL0     C22045   6.330   5.703   7.221 -0.5512 -0.7105  0.1411
  164MOL0     C22046   6.272   5.816   7.141 -0.3182 -0.4922 -0.1533
  164MOL0     C22047   6.315   5.952   7.195  0.1800 -0.7110 -0.3043
  164MOL0     C22048   6.280   6.053   7.081  0.6879  0.4483  0.7361
  164MOL0     C22049   6.245   6.187   7.148 -0.0528 -0.2200 -0.3383
  164MOL0    Cl22050   6.083   6.172   7.210  0.1449 -0.3020  0.2395
  164MOL0     C22051   6.803   5.582   7.381  0.7073  0.4333  0.0439
  164MOL0     C22052   6.920   5.633   7.424  0.7928 -0.8957 -0.0513
  164MOL0     O22053   7.117   5.940   7.249  0.2688 -0.6635 -0.1400
  164MOL0     C22054   7.312   5.880   7.547 -0.0276 -0.1373  0.6497
  164MOL0     C22055   7.428   5.926   7.616  0.2528 -0.1700  0.0044
  164MOL0     N22056   7.911   6.505   7.589 -0.7070  0.3180  0.6235
  164MOL0     N22057   7.961   6.621   7.615 -0.4843  0.3657 -0.0945
  164MOL0     C22058   7.150   7.062   7.997  0.0998 -0.0074 -0.0547
  164MOL0     C22059   7.028   7.116   7.992  0.0985 -0.1750 -0.1053
  164MOL0     C22060   6.623   7.232   8.127 -0.3532 -0.0449 -0.6666
  164MOL0     C22061   6.529   7.174   8.211  0.0594  0.4683 -0.0283
  164MOL0     C22062   6.389   7.176   8.164  0.9696 -0.0473 -0.3630
  164MOL0     C22063   6.353   7.225   8.035 -0.3874 -0.3481  0.6995
  164MOL0     O22064   6.227   7.218   7.979 -0.3451 -0.3712 -0.2435
  164MOL0     C22065   6.119   7.193   8.068 -0.7250  0.1565  0.2971
  164MOL0     C22066   5.987   7.218   7.992  0.2649  0.5683 -0.1077
  164MOL0     C22067   5.876   7.206   8.099  0.0004 -0.1811  0.0818
  164MOL0     C22068   5.745   7.259   8.043  0.3466  0.0426 -0.3729
  164MOL0     C22069   5.747   7.406   8.071  0.4564 -0.1542  1.2049
  164MOL0     C22070   5.730   7.525   8.098 -0.0184  1.1594  0.6558
  164MOL0     C22071   6.460   7.283   7.953  0.4051 -0.4594  0.2626
  164MOL0     C22072   6.592   7.291   8.006 -0.1862  0.1222  1.1586
  164MOL0     H22073   7.056   7.347   8.241 -1.0077 -1.9452  1.5035
  164MOL0     H22074   7.269   7.241   8.263  2.9821 -2.2365 -0.9124
  164MOL0     H22075   7.477   7.200   8.166  0.8413 -0.3350  1.2317
  164MOL0     H22076   7.440   7.071   8.273  0.2895  2.2231  0.2742
  164MOL0     H22077   7.556   6.908   8.143 -1.7706  0.0952 -0.8960
  164MOL0     H22078   7.621   7.025   8.020  1.8677  0.1922  1.1168
  164MOL0     H22079   7.742   7.138   8.211  0.9276 -0.4402  1.3952
  164MOL0     H22080   7.684   7.016   8.320  0.3020  0.2193 -0.3947
  164MOL0     H22081   7.911   6.962   8.252  0.4490 -0.4844  0.7554
  164MOL0     H22082   7.808   6.845   8.180  0.0009 -0.0469  0.9250
  164MOL0     H22083   7.843   6.981   7.949  5.4900 -2.2856 -3.1077
  164MOL0     H22084   7.933   7.089   8.048 -4.1862  0.9784 -0.5701
  164MOL0     H22085   8.089   6.955   7.947 -0.4986  2.5315  0.7291
  164MOL0     H22086   8.080   6.894   8.112 -2.2802  0.2233  1.4547
  164MOL0     H22087   8.079   6.692   7.995  1.1678  2.2041  0.9089
  164MOL0     H22088   7.905   6.716   8.010 -1.1491  2.1211  1.0832
  164MOL0     H22089   8.088   6.800   7.779 -1.2245  0.9188 -0.6847
  164MOL0     H22090   7.910   6.831   7.787  1.9737  1.4498 -0.9526
  164MOL0     H22091   7.901   6.516   7.915  1.2624 -0.0350 -0.5257
  164MOL0     H22092   7.738   6.349   7.803 -2.3049 -1.4349 -0.7152
  164MOL0     H22093   7.732   6.309   7.632 -1.5302 -2.5347  2.0863
  164MOL0     H22094   7.958   6.224   7.801 -0.5826  1.3018  0.9397
  164MOL0     H22095   7.917   6.154   7.645  2.3112  3.2931  0.5236
  164MOL0     H22096   7.779   6.124   7.916  0.6520 -3.9828  2.1279
  164MOL0     H22097   7.834   5.995   7.814 -0.2328 -0.3545 -1.8331
  164MOL0     H22098   7.578   6.151   7.780  0.4041 -0.6318  1.4546
  164MOL0     H22099   7.612   5.983   7.815  1.1207 -1.8234 -1.3784
  164MOL0     H22100   7.604   6.055   7.367 -2.0263 -0.5482 -3.3308
  164MOL0     H22101   7.507   6.013   7.161 -0.3537 -0.8453  0.0425
  164MOL0     H22102   7.353   5.939   7.141 -1.0714  0.6296 -0.3214
  164MOL0     H22103   7.371   6.112   7.210  2.9842  1.0832  2.6052
  164MOL0     H22104   7.031   5.734   7.122  0.5073  0.4801  0.3386
  164MOL0     H22105   6.839   5.627   7.044 -1.2902 -0.1009  0.4981
  164MOL0     H22106   6.581   5.395   7.342 -2.2162 -1.6121 -0.5955
  164MOL0     H22107   6.538   5.569   7.355 -1.1554  0.7134 -0.6151
  164MOL0     H22108   6.426   5.378   7.137 -0.2319  1.2137 -1.0871
  164MOL0     H22109   6.349   5.431   7.287  0.3545  1.7225 -0.1378
  164MOL0     H22110   6.266   5.541   7.099  0.6474  1.2783 -1.2777
  164MOL0     H22111   6.424   5.601   7.054  0.4917  2.0350  0.8197
  164MOL0     H22112   6.261   5.679   7.303 -0.2182  1.2352  1.0629
  164MOL0     H22113   6.419   5.733   7.278  0.0858 -1.6719 -0.3203
  164MOL0     H22114   6.163   5.807   7.138 -0.1691 -6.4098  0.2151
  164MOL0     H22115   6.301   5.801   7.037  1.7068  2.3605 -0.1305
  164MOL0     H22116   6.255   5.974   7.284  0.0911  0.7614 -0.7085
  164MOL0     H22117   6.417   5.949   7.233  0.1782 -0.8336 -0.3082
  164MOL0     H22118   6.198   6.016   7.020  1.5599 -0.5647  0.1475
  164MOL0     H22119   6.366   6.069   7.015 -0.1026  4.3283  0.4229
  164MOL0     H22120   6.246   6.263   7.070 -1.4818  1.2412  0.9916
  164MOL0     H22121   6.319   6.215   7.224  0.8047  1.8795 -1.8709
  164MOL0     H22122   6.748   5.523   7.454 -0.1072 -0.6587 -1.3876
  164MOL0     H22123   6.957   5.643   7.525 -1.3355  1.1140  0.6175
  164MOL0     H22124   7.243   5.827   7.612  0.8537  0.0368  1.7519
  164MOL0     H22125   7.436   5.904   7.723  1.4304  0.2537  0.0147
  164MOL0     H22126   7.189   6.979   7.939  2.9440  1.2954 -0.2187
  164MOL0     H22127   6.962   7.081   7.913  0.8159 -0.3724 -0.6229
  164MOL0     H22128   6.553   7.130   8.306 -1.8021 -1.4684 -0.3904
  164MOL0     H22129   6.317   7.136   8.234  0.2560 -0.2111 -1.1821
  164MOL0     H22130   6.134   7.092   8.109  1.0545  0.1030 -0.4195
  164MOL0     H22131   6.122   7.263   8.152 -1.5822  3.1989 -2.0209
  164MOL0     H22132   5.975   7.144   7.913  0.8054  1.8127 -1.4077
  164MOL0     H22133   6.000   7.310   7.935  2.3469 -0.7257 -1.8499
  164MOL0     H22134   5.916   7.247   8.193  5.2866  0.0480 -1.8912
  164MOL0     H22135   5.865   7.098   8.114 -0.7053 -0.1911 -0.4706
  164MOL0     H22136   5.655   7.216   8.089  0.8227  0.7842  1.3035
  164MOL0     H22137   5.738   7.239   7.936  0.7405  1.4559 -0.6791
  164MOL0     H22138   5.722   7.629   8.120  1.5810  1.4256  0.1007
  164MOL0     H22139   6.419   7.319   7.860  0.1807  0.2033  0.6096
  164MOL0     H22140   6.663   7.349   7.948  0.7467  2.2680  4.1881
  165MOL0     O22141   9.644   7.109   9.965  0.2409  0.0758 -0.5195
  165MOL0     C22142   9.665   7.026  10.046 -0.3428  0.2572 -0.3469
  165MOL0     O22143   9.574   6.934  10.104  0.3155 -1.1285  0.0722
  165MOL0     C22144   9.442   6.928  10.061 -0.5951  0.0075  0.3563
  165MOL0     C22145   9.361   7.038  10.037  0.2727  0.3407  0.0284
  165MOL0     C22146   9.218   7.027  10.012 -0.2867 -0.1795  0.4342
  165MOL0     C22147   9.162   6.903  10.007  0.4378 -0.1400  0.2687
  165MOL0     O22148   9.027   6.896   9.986 -0.5152 -0.0267  0.1696
  165MOL0     C22149   8.983   6.946   9.855 -1.3317 -0.6214 -0.7095
  165MOL0     C22150   8.951   6.820   9.778 -0.5231 -0.0296 -0.0679
  165MOL0     C22151   8.879   6.849   9.649 -0.5834  0.7736 -0.2315
  165MOL0     C22152   8.727   6.860   9.659  0.0048 -0.4865  0.5616
  165MOL0     C22153   8.651   6.840   9.527  0.6478  0.2993  0.5090
  165MOL0     C22154   8.692   6.964   9.432  0.5455  0.7432 -0.2614
  165MOL0     C22155   8.591   6.973   9.319 -0.7211  0.2487  0.0988
  165MOL0     C22156   8.596   7.115   9.255 -0.0343  0.3637 -0.1435
  165MOL0     N22157   8.473   7.138   9.178  0.4650  0.0691  0.3420
  165MOL0     C22158   8.441   7.103   9.055  0.5896  0.4777 -0.2132
  165MOL0     C22159   8.318   7.156   9.027  0.1737  1.6590 -0.1016
  165MOL0     C22160   8.246   7.134   8.894 -0.2565  0.2486 -0.3878
  165MOL0     C22161   8.098   7.185   8.888 -0.6613  0.0077  0.5675
  165MOL0     C22162   8.078   7.331   8.866 -0.6521  0.5929 -0.0968
  165MOL0     C22163   7.931   7.379   8.846 -0.3125 -0.3235  0.7510
  165MOL0     O22164   7.880   7.411   8.982  0.2467  0.1441 -0.2455
  165MOL0     C22165   7.735   7.410   8.985 -1.3243 -0.1603  0.3699
  165MOL0     C22166   7.672   7.420   9.103 -0.2600  0.4225 -0.1388
  165MOL0     C22167   7.531   7.414   9.111  0.1948 -0.9144 -0.2997
  165MOL0     C22168   7.472   7.393   9.252  0.8840  0.0692  0.3383
  165MOL0     C22169   7.452   7.418   8.994  0.2846  0.0542 -0.0066
  165MOL0     C22170   7.301   7.412   8.989  0.6375 -0.5933  0.0488
  165MOL0     O22171   7.239   7.445   9.103 -0.3172 -0.1117  0.1971
  165MOL0     C22172   7.103   7.464   9.102 -0.0829  0.1956 -0.1596
  165MOL0     C22173   7.042   7.525   8.996  0.5580 -0.2971  0.4670
  165MOL0     C22174   6.899   7.514   8.985 -0.6588  0.7241  0.0119
  165MOL0     C22175   6.819   7.470   9.081 -0.6088 -0.2463 -0.5486
  165MOL0     O22176   6.686   7.480   9.084  0.1287 -0.3763 -0.2467
  165MOL0     C22177   6.636   7.572   8.986 -0.0353 -0.1811  0.1160
  165MOL0     C22178   6.484   7.592   9.016 -0.4749 -0.1283 -0.7817
  165MOL0     C22179   6.465   7.683   9.142  0.1697 -0.5942  0.2439
  165MOL0     C22180   6.315   7.685   9.180  0.3155  0.4304 -0.3048
  165MOL0     C22181   6.277   7.803   9.259  0.5198 -0.3399 -0.2616
  165MOL0     C22182   6.121   7.827   9.280 -0.5009 -0.0383 -0.0033
  165MOL0     C22183   6.038   7.702   9.301 -0.4824  0.3638 -0.4652
  165MOL0     C22184   5.900   7.730   9.359 -0.1702  0.2861  0.5439
  165MOL0    Cl22185   5.789   7.772   9.221  0.2433  0.3838  0.9543
  165MOL0     C22186   6.883   7.416   9.194 -0.4739 -0.1785 -0.5218
  165MOL0     C22187   7.027   7.413   9.208 -0.2723 -0.0773  1.0009
  165MOL0     O22188   7.250   7.378   8.879 -0.0839  0.2246  0.4135
  165MOL0     C22189   7.524   7.433   8.875  0.0938 -0.4914  0.2389
  165MOL0     C22190   7.658   7.423   8.870  0.2121  0.5391  0.9246
  165MOL0     N22191   8.284   7.234   9.134 -0.2801  0.0239  0.6010
  165MOL0     N22192   8.372   7.212   9.223 -0.1629  0.5358  0.0902
  165MOL0     C22193   9.236   6.790  10.030  0.6787 -0.1849 -0.1160
  165MOL0     C22194   9.376   6.803  10.049 -0.4626 -0.2312 -0.2049
  165MOL0     C22195   9.807   7.007  10.091  0.5968  0.2376  0.5029
  165MOL0     C22196   9.846   6.910  10.180 -0.2522 -0.3852  0.0539
  165MOL0     C22197   9.985   6.900  10.204 -0.1258  0.1622 -0.2332
  165MOL0     C22198  10.079   6.975  10.146 -0.6476  0.3522 -0.3040
  165MOL0     O22199  10.210   6.950  10.163  0.3656  0.2781 -0.4820
  165MOL0     C22200  10.267   7.012  10.281  0.9265  0.4164 -0.1719
  165MOL0     C22201  10.402   7.063  10.262 -0.3228  0.1352 -0.7693
  165MOL0     C22202  10.511   6.960  10.226  0.2523  0.0703 -0.2916
  165MOL0     C22203  10.528   6.843  10.324  0.2499 -0.3623 -0.2327
  165MOL0     C22204  10.580   6.894  10.467  1.1747  0.0129  1.6446
  165MOL0     C22205  10.625   6.946  10.568 -0.0698  0.5236 -0.8975
  165MOL0     C22206  10.049   7.071  10.057  0.4352 -0.1731 -0.3703
  165MOL0     C22207   9.911   7.079  10.025 -0.4947  0.0001 -0.5727
  165MOL0     H22208   9.390   7.142  10.041 -0.0566  0.4289  0.1167
  165MOL0     H22209   9.157   7.114   9.991  0.4195 -0.3225 -2.5893
  165MOL0     H22210   8.902   7.018   9.871  0.1525  0.3591  3.5258
  165MOL0     H22211   9.055   7.005   9.798 -0.6837  0.1492  0.8670
  165MOL0     H22212   9.044   6.767   9.758 -0.4460 -1.2174  2.8799
  165MOL0     H22213   8.884   6.760   9.841  1.4752  0.1821  2.3930
  165MOL0     H22214   8.910   6.947   9.611  2.1150  0.6507  1.4526
  165MOL0     H22215   8.920   6.773   9.582 -1.7818 -1.0295  0.9784
  165MOL0     H22216   8.682   6.786   9.726 -0.7806  0.1565  0.7527
  165MOL0     H22217   8.713   6.958   9.704  3.0557 -0.6251  2.1094
  165MOL0     H22218   8.680   6.750   9.472  0.8825  0.5591  0.1967
  165MOL0     H22219   8.545   6.820   9.544  1.2101 -3.1875  0.5724
  165MOL0     H22220   8.678   7.049   9.500 -0.5902 -0.7422  1.4746
  165MOL0     H22221   8.796   6.952   9.399  0.5686 -2.2208  0.5501
  165MOL0     H22222   8.614   6.895   9.245  0.1557 -0.2373  0.8573
  165MOL0     H22223   8.492   6.967   9.364 -0.5834  1.9007  0.6737
  165MOL0     H22224   8.688   7.138   9.199 -0.8626 -2.0393 -2.7251
  165MOL0     H22225   8.588   7.182   9.342 -1.9794  0.0367 -0.0431
  165MOL0     H22226   8.501   7.050   8.982 -0.1012 -0.0633 -0.3945
  165MOL0     H22227   8.305   7.190   8.821 -0.2627 -0.8298 -1.2503
  165MOL0     H22228   8.244   7.028   8.865  0.2467 -0.7752  2.9385
  165MOL0     H22229   8.047   7.157   8.980 -0.2022 -2.1401  0.2387
  165MOL0     H22230   8.061   7.132   8.799  1.5112  0.9741 -1.0271
  165MOL0     H22231   8.147   7.358   8.786 -2.0079  1.2753 -1.0933
  165MOL0     H22232   8.126   7.378   8.952  1.2489 -2.6373  0.7546
  165MOL0     H22233   7.880   7.304   8.785 -1.4808 -1.3283  2.8714
  165MOL0     H22234   7.920   7.470   8.786 -0.5616  1.3268  3.1254
  165MOL0     H22235   7.722   7.415   9.199  0.5468  1.6156 -0.4823
  165MOL0     H22236   7.546   7.385   9.333  0.5218  1.2224  0.7982
  165MOL0     H22237   7.411   7.479   9.281  1.5825 -0.0517  2.3286
  165MOL0     H22238   7.415   7.300   9.263  0.8228  0.2552  1.8535
  165MOL0     H22239   7.104   7.571   8.919  3.0956  2.3877  3.7698
  165MOL0     H22240   6.846   7.536   8.893 -0.8817 -1.5028 -0.4543
  165MOL0     H22241   6.692   7.665   8.993  3.3638 -2.1787  3.9548
  165MOL0     H22242   6.642   7.536   8.883 -0.9860  1.6941 -0.6445
  165MOL0     H22243   6.436   7.645   8.933 -2.6972  1.2791  1.2376
  165MOL0     H22244   6.433   7.498   9.041  1.6199 -0.7021  1.7552
  165MOL0     H22245   6.488   7.789   9.126  2.0851 -0.9286  0.5944
  165MOL0     H22246   6.532   7.652   9.223 -1.1765 -1.7393  0.9502
  165MOL0     H22247   6.252   7.681   9.091  1.0586 -2.3784 -0.7964
  165MOL0     H22248   6.296   7.593   9.237 -0.6329  1.7350  1.6224
  165MOL0     H22249   6.312   7.902   9.229 -1.0186  1.1468  2.4825
  165MOL0     H22250   6.319   7.799   9.360  1.7698  0.6782 -0.7056
  165MOL0     H22251   6.118   7.895   9.366  1.0890 -2.6118  2.2754
  165MOL0     H22252   6.080   7.889   9.200 -1.6598 -1.7403 -0.7781
  165MOL0     H22253   6.085   7.643   9.380 -0.4239  2.5608  1.2525
  165MOL0     H22254   6.019   7.648   9.208  1.8058 -3.0338  0.8725
  165MOL0     H22255   5.912   7.815   9.426 -0.4094 -2.5734  4.6053
  165MOL0     H22256   5.858   7.654   9.426 -1.3178  0.1889 -0.2583
  165MOL0     H22257   6.818   7.378   9.273 -1.1310 -1.9971 -1.8699
  165MOL0     H22258   7.078   7.369   9.293 -2.0024 -1.1417  1.5414
  165MOL0     H22259   7.467   7.448   8.783  1.1536 -3.2721 -0.9762
  165MOL0     H22260   7.693   7.426   8.768 -0.4440  1.8225  0.7192
  165MOL0     H22261   9.179   6.697  10.028  1.4713 -0.6834 -0.0101
  165MOL0     H22262   9.430   6.716  10.084  0.7244  1.9663  4.2057
  165MOL0     H22263   9.779   6.839  10.228 -3.3969  0.0399 -3.3358
  165MOL0     H22264   9.992   6.800  10.245  2.4150 -0.0088 -0.9017
  165MOL0     H22265  10.197   7.093  10.304  0.6851  0.1797 -0.0560
  165MOL0     H22266  10.258   6.945  10.367 -1.5842  0.6465 -0.1760
  165MOL0     H22267  10.428   7.105  10.360 -0.9812  2.3238 -1.4617
  165MOL0     H22268  10.399   7.148  10.193  1.4687  0.2844 -0.7144
  165MOL0     H22269  10.608   7.011  10.222  0.1692  0.2116 -0.4864
  165MOL0     H22270  10.492   6.925  10.124  0.6509  1.7844 -0.9873
  165MOL0     H22271  10.610   6.784  10.281 -0.4042 -0.3188 -1.5743
  165MOL0     H22272  10.441   6.778  10.331  0.2221 -0.3097 -0.0714
  165MOL0     H22273  10.664   6.978  10.662  0.8944 -1.3600 -0.5945
  165MOL0     H22274  10.122   7.124   9.997 -0.9828  1.7067 -0.4929
  165MOL0     H22275   9.889   7.160   9.957  0.9704  1.3766  0.5333
  166MOL0     O22276   4.513   6.341   5.735  0.8630 -0.4471 -0.4841
  166MOL0     C22277   4.479   6.457   5.714 -0.3600 -0.1955 -0.1772
  166MOL0     O22278   4.529   6.533   5.613 -0.6136 -0.0227 -0.2273
  166MOL0     C22279   4.631   6.497   5.532  0.3344 -0.8756  0.4135
  166MOL0     C22280   4.654   6.367   5.481  0.3412  0.3451  0.0784
  166MOL0     C22281   4.762   6.335   5.397 -0.4340  0.7207 -0.3974
  166MOL0     C22282   4.851   6.432   5.359 -0.3666 -0.6352 -0.0333
  166MOL0     O22283   4.964   6.417   5.286 -0.7767 -0.1509 -0.2337
  166MOL0     C22284   4.957   6.352   5.160 -0.1737 -0.1396 -0.0714
  166MOL0     C22285   5.084   6.271   5.144  0.6711  0.6414 -0.5159
  166MOL0     C22286   5.062   6.134   5.196  0.2699  0.4284 -0.0155
  166MOL0     C22287   5.188   6.040   5.198  0.0537 -0.4557  0.3649
  166MOL0     C22288   5.252   6.016   5.064 -1.0713 -0.9545  0.5294
  166MOL0     C22289   5.355   5.906   5.059  0.3142  1.1863 -0.9150
  166MOL0     C22290   5.400   5.877   4.915 -0.8368  0.2666 -0.6399
  166MOL0     C22291   5.491   5.753   4.903 -0.0998 -0.1730  0.6954
  166MOL0     N22292   5.520   5.713   4.760  0.2551 -0.1438 -0.1999
  166MOL0     C22293   5.543   5.791   4.649 -0.6700 -0.3291  0.3604
  166MOL0     C22294   5.568   5.704   4.543  0.2962  0.4328  0.9620
  166MOL0     C22295   5.596   5.737   4.400 -0.0609 -0.1009 -0.6414
  166MOL0     C22296   5.745   5.768   4.370  0.0463  0.2996 -0.2104
  166MOL0     C22297   5.828   5.638   4.375 -0.1141  0.3818 -0.1164
  166MOL0     C22298   5.802   5.537   4.258 -0.8074 -0.5578  0.6892
  166MOL0     O22299   5.893   5.428   4.272  0.0483 -0.3387  0.4623
  166MOL0     C22300   5.847   5.321   4.358  0.2076 -0.3034  0.3059
  166MOL0     C22301   5.929   5.211   4.358  1.0198 -0.1637  0.2819
  166MOL0     C22302   5.907   5.091   4.429  0.2453  0.3969 -0.7203
  166MOL0     C22303   6.011   4.981   4.410 -0.4461 -0.3540 -0.1051
  166MOL0     C22304   5.790   5.073   4.510  0.2903 -0.5274 -0.3055
  166MOL0     C22305   5.748   4.959   4.605  0.3517 -0.1714 -0.3734
  166MOL0     O22306   5.630   4.966   4.671  0.3472 -0.5090 -0.4860
  166MOL0     C22307   5.572   4.861   4.737  0.4735 -0.1156  1.1111
  166MOL0     C22308   5.484   4.893   4.843  0.6254 -0.0654  0.4230
  166MOL0     C22309   5.438   4.796   4.925  0.2710  0.1492  0.1514
  166MOL0     C22310   5.449   4.665   4.898  0.1440  0.8151  0.2502
  166MOL0     O22311   5.385   4.579   4.986 -0.4092 -0.3924 -0.1673
  166MOL0     C22312   5.480   4.486   5.036  0.3150 -0.1769 -0.0849
  166MOL0     C22313   5.436   4.444   5.175  0.0507  0.5082  0.2018
  166MOL0     C22314   5.288   4.410   5.186  0.0003  0.2135  0.2386
  166MOL0     C22315   5.236   4.321   5.075 -0.5057  0.0634 -0.5157
  166MOL0     C22316   5.095   4.285   5.092  0.2011  0.8707  0.3992
  166MOL0     C22317   5.039   4.205   4.968  0.0943  0.3880  0.2185
  166MOL0     C22318   5.026   4.282   4.830 -0.0168 -0.4633 -0.7238
  166MOL0     C22319   4.987   4.426   4.841  0.0479  0.4772  0.6193
  166MOL0    Cl22320   4.966   4.486   4.667  0.4171 -0.3169  0.0951
  166MOL0     C22321   5.534   4.626   4.790 -0.2385 -0.2622  0.1172
  166MOL0     C22322   5.599   4.728   4.710  0.6008  0.2999 -0.4878
  166MOL0     O22323   5.828   4.859   4.612  0.3160  0.1243  0.6954
  166MOL0     C22324   5.711   5.193   4.511  0.2911  0.3128  0.4893
  166MOL0     C22325   5.733   5.313   4.436  0.0325  0.1127 -0.7911
  166MOL0     N22326   5.529   5.578   4.589 -0.2233  0.9194  0.1152
  166MOL0     N22327   5.498   5.590   4.714 -0.0779  0.1696  0.4024
  166MOL0     C22328   4.818   6.564   5.396 -0.9842  0.5663  0.4099
  166MOL0     C22329   4.716   6.596   5.484  0.0391 -0.2159 -0.2031
  166MOL0     C22330   4.383   6.524   5.814  0.0340 -0.2647  0.5067
  166MOL0     C22331   4.288   6.619   5.783  0.2212  0.1959  0.6134
  166MOL0     C22332   4.202   6.673   5.869 -0.9868  0.0655  0.1858
  166MOL0     C22333   4.215   6.648   6.006  0.6390 -0.0928 -0.8869
  166MOL0     O22334   4.125   6.715   6.091 -0.5588  0.1765 -0.9329
  166MOL0     C22335   4.120   6.681   6.233 -0.4459 -0.0608  0.1020
  166MOL0     C22336   4.031   6.565   6.262 -0.3255 -0.0490  0.3523
  166MOL0     C22337   3.989   6.550   6.408 -0.6435 -0.0252  0.0961
  166MOL0     C22338   3.886   6.440   6.433 -0.4371 -0.0383  0.4049
  166MOL0     C22339   3.759   6.487   6.383 -1.0323 -0.3919  0.4195
  166MOL0     C22340   3.656   6.521   6.341 -0.7153  0.9184  0.2815
  166MOL0     C22341   4.314   6.558   6.045  0.6339 -0.0088 -0.9181
  166MOL0     C22342   4.396   6.494   5.952 -0.0477  0.4004 -0.6613
  166MOL0     H22343   4.589   6.287   5.514  1.3971 -0.4182  0.3299
  166MOL0     H22344   4.762   6.232   5.363  3.0906  0.7508 -0.8787
  166MOL0     H22345   4.873   6.282   5.150 -0.7819  0.7329 -1.3651
  166MOL0     H22346   4.935   6.431   5.088 -1.5403  1.0809  1.5866
  166MOL0     H22347   5.112   6.265   5.039  3.0584 -0.5151  0.1065
  166MOL0     H22348   5.164   6.331   5.190  1.0402 -1.1065  1.2922
  166MOL0     H22349   5.025   6.132   5.299  0.5671 -0.6970  0.0801
  166MOL0     H22350   4.987   6.078   5.139  0.3378  0.0634  0.2523
  166MOL0     H22351   5.255   6.091   5.268 -0.5874  1.1804 -0.1659
  166MOL0     H22352   5.155   5.943   5.236 -1.6601  0.0523  0.2539
  166MOL0     H22353   5.181   6.023   4.981  0.2403 -0.5325 -0.5786
  166MOL0     H22354   5.318   6.102   5.049 -3.1536  1.2972  3.0854
  166MOL0     H22355   5.449   5.927   5.111  1.3315  0.3232 -2.3135
  166MOL0     H22356   5.300   5.819   5.095  1.0206  0.6410 -1.1285
  166MOL0     H22357   5.304   5.860   4.865 -0.6813  1.0750 -1.2361
  166MOL0     H22358   5.449   5.963   4.870  2.2129 -1.7190 -1.4191
  166MOL0     H22359   5.448   5.670   4.959  0.6430 -0.4957  0.8122
  166MOL0     H22360   5.579   5.787   4.958 -0.2836  2.0070 -0.2579
  166MOL0     H22361   5.548   5.900   4.646 -4.8858 -0.0108 -1.9094
  166MOL0     H22362   5.556   5.654   4.341  0.9629 -0.1296 -1.3191
  166MOL0     H22363   5.550   5.834   4.380 -0.0088 -0.2972 -1.7828
  166MOL0     H22364   5.784   5.831   4.450  1.4266 -1.3259  0.4556
  166MOL0     H22365   5.761   5.811   4.271  2.3195 -1.2480 -0.5998
  166MOL0     H22366   5.807   5.582   4.467 -2.0165  0.2681 -0.5735
  166MOL0     H22367   5.934   5.662   4.381 -0.1111  0.0457  2.4413
  166MOL0     H22368   5.820   5.602   4.172  1.1707 -0.6088  1.0129
  166MOL0     H22369   5.698   5.505   4.264 -0.6207 -2.6288 -3.4325
  166MOL0     H22370   6.013   5.218   4.289  1.8124 -0.6113  1.1720
  166MOL0     H22371   5.964   4.903   4.350  1.3825  0.0016 -2.1024
  166MOL0     H22372   6.096   5.026   4.359 -0.4649 -0.4772 -0.2459
  166MOL0     H22373   6.047   4.950   4.509  1.8416  0.1862 -0.7136
  166MOL0     H22374   5.436   4.989   4.858 -1.9572 -1.6005  3.0278
  166MOL0     H22375   5.371   4.832   5.003 -2.0636 -1.1966 -1.1175
  166MOL0     H22376   5.464   4.397   4.973 -2.9829 -1.0568  1.7477
  166MOL0     H22377   5.584   4.517   5.026 -0.1435  1.0589 -1.2369
  166MOL0     H22378   5.484   4.351   5.205 -2.2203 -1.0332 -0.6273
  166MOL0     H22379   5.458   4.525   5.246 -0.0449 -0.1636  1.0164
  166MOL0     H22380   5.228   4.500   5.195  1.4473  1.1403  0.9571
  166MOL0     H22381   5.260   4.360   5.279 -2.2180  0.4629 -0.2277
  166MOL0     H22382   5.240   4.375   4.980 -2.3992  0.6934 -0.2755
  166MOL0     H22383   5.302   4.235   5.066  1.0795  1.4396 -3.2493
  166MOL0     H22384   5.024   4.368   5.103 -3.3488 -1.8173 -0.5122
  166MOL0     H22385   5.079   4.213   5.173  0.9522 -0.4637 -0.6022
  166MOL0     H22386   5.096   4.115   4.942 -0.3422  0.7893 -2.3849
  166MOL0     H22387   4.941   4.169   5.002 -0.1631  0.3543 -0.5437
  166MOL0     H22388   4.950   4.237   4.766 -1.5067  0.1906  0.4960
  166MOL0     H22389   5.118   4.272   4.772 -0.0987  0.9310 -1.1193
  166MOL0     H22390   5.076   4.468   4.889 -0.4667  1.0861  1.0516
  166MOL0     H22391   4.900   4.450   4.903 -1.6857 -1.3624 -0.9567
  166MOL0     H22392   5.562   4.525   4.764 -1.1383 -0.6366  0.5566
  166MOL0     H22393   5.660   4.702   4.624  0.1681  0.7592 -0.9406
  166MOL0     H22394   5.622   5.191   4.573 -1.3977  0.3000 -1.7550
  166MOL0     H22395   5.667   5.397   4.454 -2.0957 -1.2428 -1.8482
  166MOL0     H22396   4.891   6.635   5.357  0.4435 -1.5494 -0.9775
  166MOL0     H22397   4.693   6.697   5.516  0.6521  0.2051 -1.0488
  166MOL0     H22398   4.283   6.641   5.677 -2.3523  0.4356  0.7167
  166MOL0     H22399   4.128   6.738   5.822 -0.2671  0.6641 -0.1304
  166MOL0     H22400   4.222   6.664   6.268 -0.0703  0.7304 -0.5545
  166MOL0     H22401   4.096   6.775   6.284  0.5811 -0.2457  0.9661
  166MOL0     H22402   4.084   6.476   6.229  1.3848  0.8980  0.4506
  166MOL0     H22403   3.941   6.581   6.201  0.0659  1.7805  0.1786
  166MOL0     H22404   3.963   6.647   6.452  0.1001  0.0204  0.4597
  166MOL0     H22405   4.073   6.520   6.471 -2.3628 -1.4167  1.8513
  166MOL0     H22406   3.878   6.444   6.542  1.7706  3.2951  0.6051
  166MOL0     H22407   3.918   6.341   6.399  1.2392 -0.2940  2.5184
  166MOL0     H22408   3.562   6.550   6.298 -0.2877 -1.7564 -2.8400
  166MOL0     H22409   4.327   6.521   6.147  3.9719  1.6709 -0.6123
  166MOL0     H22410   4.478   6.426   5.975  1.1617  0.3764 -4.3821
  167MOL0     O22411  11.173  11.203   1.626  0.0640 -0.5146 -0.3192
  167MOL0     C22412  11.148  11.182   1.746 -0.5679  1.1401  0.2151
  167MOL0     O22413  11.031  11.131   1.793  0.0909 -0.3961  0.8853
  167MOL0     C22414  10.917  11.131   1.708 -0.0504 -0.5365 -0.0327
  167MOL0     C22415  10.800  11.181   1.765  0.0744  0.5921 -0.8151
  167MOL0     C22416  10.678  11.185   1.692 -0.1539 -0.1668 -0.4380
  167MOL0     C22417  10.674  11.126   1.566  0.5802 -0.3041 -0.5046
  167MOL0     O22418  10.557  11.127   1.505 -0.0555 -0.1534 -0.2022
  167MOL0     C22419  10.537  11.232   1.411 -0.0890  0.4378 -0.0398
  167MOL0     C22420  10.392  11.218   1.353  0.1840  0.3712  0.5856
  167MOL0     C22421  10.285  11.255   1.461 -0.2663  0.9329  1.3088
  167MOL0     C22422  10.144  11.279   1.410 -0.1774  0.8334 -0.2927
  167MOL0     C22423  10.063  11.361   1.509 -0.4221 -0.1017 -0.5460
  167MOL0     C22424   9.910  11.337   1.492 -0.2603  0.6044  0.0061
  167MOL0     C22425   9.845  11.382   1.628 -1.0006 -0.4002  0.2852
  167MOL0     C22426   9.857  11.532   1.664  0.6763 -0.3971 -0.0813
  167MOL0     N22427   9.753  11.566   1.772 -0.4279 -0.4916  0.7340
  167MOL0     C22428   9.709  11.488   1.870 -1.0727  0.3901 -0.4358
  167MOL0     C22429   9.601  11.545   1.919 -0.2212  0.0117  1.2085
  167MOL0     C22430   9.503  11.501   2.020  1.4625  0.7302  0.1963
  167MOL0     C22431   9.395  11.420   1.944  0.0778  0.6977  0.2377
  167MOL0     C22432   9.290  11.370   2.048  0.0955 -0.1326 -0.1695
  167MOL0     C22433   9.192  11.267   1.978  0.0762  0.0882  0.9737
  167MOL0     O22434   9.071  11.336   1.943  0.5436 -0.3932  0.5413
  167MOL0     C22435   8.984  11.264   1.867 -0.5395 -0.3920  0.8132
  167MOL0     C22436   8.935  11.310   1.747  0.1526  0.1283 -0.2907
  167MOL0     C22437   8.847  11.232   1.666 -0.0892  0.1931 -0.0170
  167MOL0     C22438   8.809  11.289   1.527 -0.3752 -0.0668 -0.5542
  167MOL0     C22439   8.804  11.102   1.725  1.1979  0.5084 -1.2177
  167MOL0     C22440   8.699  11.012   1.663  0.1383 -0.5462 -0.2652
  167MOL0     O22441   8.680  10.899   1.727  0.0778 -0.4471  0.6756
  167MOL0     C22442   8.597  10.797   1.681  0.1818 -0.5740  0.0835
  167MOL0     C22443   8.478  10.775   1.745  0.0667  0.0747  0.3250
  167MOL0     C22444   8.404  10.657   1.723 -0.0516  0.8065  0.7804
  167MOL0     C22445   8.437  10.571   1.621  0.0969 -0.2098  0.0369
  167MOL0     O22446   8.370  10.450   1.602  0.5541 -0.3583 -0.4296
  167MOL0     C22447   8.336  10.397   1.473 -0.4764 -0.1443  0.4716
  167MOL0     C22448   8.183  10.392   1.455  0.3183 -0.1085  0.3953
  167MOL0     C22449   8.130  10.327   1.323 -0.7268 -0.5566 -0.1157
  167MOL0     C22450   8.142  10.175   1.303  0.0695  0.0138 -0.3253
  167MOL0     C22451   8.111  10.138   1.159  0.5939 -0.0885 -0.0388
  167MOL0     C22452   8.087   9.987   1.151 -0.3839  0.0297 -0.2968
  167MOL0     C22453   8.214   9.913   1.160 -0.1320  1.0339 -0.1202
  167MOL0     C22454   8.189   9.763   1.190  0.3427 -0.2131  0.1155
  167MOL0    Cl22455   8.131   9.660   1.057 -0.1263  0.2139 -0.0239
  167MOL0     C22456   8.551  10.604   1.543  0.3549 -0.6147  0.1995
  167MOL0     C22457   8.634  10.710   1.574 -0.4196  0.3837 -1.4822
  167MOL0     O22458   8.639  11.051   1.560 -0.1187  0.1303 -0.2725
  167MOL0     C22459   8.851  11.062   1.844 -0.2590 -0.4137  0.0178
  167MOL0     C22460   8.940  11.140   1.913  0.3396 -0.3939 -0.2278
  167MOL0     N22461   9.573  11.660   1.846 -0.7226  0.1917  0.3842
  167MOL0     N22462   9.664  11.665   1.758  0.5713 -0.0042  0.3717
  167MOL0     C22463  10.785  11.058   1.518  0.5118 -0.4084 -0.0395
  167MOL0     C22464  10.908  11.063   1.585  0.9046 -0.5033  0.2597
  167MOL0     C22465  11.265  11.211   1.833 -0.1057 -0.1440 -0.3217
  167MOL0     C22466  11.397  11.226   1.785 -0.0036 -0.6875  0.2842
  167MOL0     C22467  11.499  11.262   1.871  0.1811 -0.5190 -0.5153
  167MOL0     C22468  11.479  11.266   2.017  0.2193  0.9731  0.6006
  167MOL0     O22469  11.560  11.286   2.121  0.2856  0.1263 -0.3770
  167MOL0     C22470  11.698  11.303   2.099  0.1470  0.0171  0.5758
  167MOL0     C22471  11.779  11.293   2.237  0.2712 -0.2267 -0.1481
  167MOL0     C22472  11.932  11.286   2.223  0.1732  0.3723  0.2411
  167MOL0     C22473  12.003  11.223   2.339  0.1882 -0.0948  0.3984
  167MOL0     C22474  11.948  11.240   2.467 -0.7200  1.6337  0.1927
  167MOL0     C22475  11.915  11.261   2.581  0.3276 -0.2379 -0.1735
  167MOL0     C22476  11.355  11.235   2.058 -0.6482 -0.0978 -1.5698
  167MOL0     C22477  11.250  11.219   1.973  0.3293  0.3630 -0.3757
  167MOL0     H22478  10.793  11.202   1.871 -3.1140 -1.0560 -0.5621
  167MOL0     H22479  10.593  11.236   1.736  1.3891  4.1669 -1.9482
  167MOL0     H22480  10.553  11.334   1.446  1.4798  0.0186  0.5587
  167MOL0     H22481  10.603  11.226   1.324  3.6045  2.2738  2.3692
  167MOL0     H22482  10.394  11.280   1.263  1.2982 -0.4561  0.0131
  167MOL0     H22483  10.369  11.116   1.320  3.2780 -0.0526 -0.5856
  167MOL0     H22484  10.275  11.179   1.539 -4.3687  1.1121  1.1793
  167MOL0     H22485  10.318  11.346   1.513  3.5904  0.3004  0.3054
  167MOL0     H22486  10.151  11.331   1.314 -1.1954 -0.0906 -0.8962
  167MOL0     H22487  10.092  11.185   1.392  0.5413  0.5003 -0.6510
  167MOL0     H22488  10.093  11.331   1.610 -1.6971 -0.3622 -0.2346
  167MOL0     H22489  10.092  11.464   1.486  1.7096 -0.8209 -1.3836
  167MOL0     H22490   9.867  11.396   1.411 -0.9714 -1.5516 -1.2508
  167MOL0     H22491   9.891  11.230   1.477  0.5955 -0.4996  4.8735
  167MOL0     H22492   9.738  11.359   1.623 -0.8830 -0.7000 -1.2218
  167MOL0     H22493   9.883  11.325   1.713 -0.5571  1.1389  1.1708
  167MOL0     H22494   9.845  11.596   1.577 -1.0097 -0.4515  0.0788
  167MOL0     H22495   9.960  11.542   1.700  0.6207 -1.5549  0.4502
  167MOL0     H22496   9.744  11.392   1.906 -2.4175  0.1637  0.3460
  167MOL0     H22497   9.558  11.435   2.087  1.3140 -0.5098 -0.8535
  167MOL0     H22498   9.463  11.587   2.075 -0.7902  1.7185 -2.6956
  167MOL0     H22499   9.441  11.336   1.891 -0.7455 -0.2207  0.9297
  167MOL0     H22500   9.345  11.479   1.866  1.4156 -0.2697 -1.4182
  167MOL0     H22501   9.231  11.449   2.096 -1.0088 -0.4982 -0.8889
  167MOL0     H22502   9.344  11.319   2.129  0.9858  1.3428  0.2132
  167MOL0     H22503   9.173  11.190   2.054 -0.3408  0.3259  1.1083
  167MOL0     H22504   9.237  11.222   1.889 -4.1474 -0.6964 -0.9900
  167MOL0     H22505   8.960  11.408   1.707 -0.8528  1.0199  1.1640
  167MOL0     H22506   8.789  11.208   1.457 -2.4184  0.3162 -0.4788
  167MOL0     H22507   8.706  11.325   1.528 -1.1410 -2.1096  0.9432
  167MOL0     H22508   8.889  11.354   1.491  0.5072 -1.0526 -0.4204
  167MOL0     H22509   8.437  10.838   1.823  1.8159  0.9954  0.5658
  167MOL0     H22510   8.317  10.628   1.782 -0.6406 -1.7856 -1.1752
  167MOL0     H22511   8.371  10.464   1.394 -0.6802  2.0056  2.1096
  167MOL0     H22512   8.377  10.296   1.471  0.4118  0.2006 -1.2255
  167MOL0     H22513   8.138  10.324   1.529 -2.8979 -0.7037 -1.8812
  167MOL0     H22514   8.139  10.491   1.467  0.1525 -0.3645  2.1757
  167MOL0     H22515   8.186  10.361   1.236  0.7956  0.6327  1.2665
  167MOL0     H22516   8.027  10.364   1.316 -0.3754  0.4783  0.0396
  167MOL0     H22517   8.245  10.147   1.325 -0.5350 -0.8929  1.7093
  167MOL0     H22518   8.079  10.129   1.381  2.1452 -3.6720 -0.5926
  167MOL0     H22519   8.182  10.177   1.085  0.1752  2.2209  0.7044
  167MOL0     H22520   8.009  10.172   1.140  0.2390  0.3939  2.4712
  167MOL0     H22521   8.018   9.953   1.229  0.7845  0.7339  1.0920
  167MOL0     H22522   8.043   9.979   1.051 -0.6333  1.9673 -0.3780
  167MOL0     H22523   8.276   9.955   1.240  2.9004 -3.8815  0.5397
  167MOL0     H22524   8.277   9.929   1.072 -0.9394 -0.7372 -1.0740
  167MOL0     H22525   8.109   9.752   1.263  0.4596 -0.9054  0.1460
  167MOL0     H22526   8.288   9.725   1.220  0.9323 -0.7422 -2.2899
  167MOL0     H22527   8.575  10.543   1.456 -1.1314 -0.6734 -0.1994
  167MOL0     H22528   8.726  10.725   1.518  2.0103 -1.2371  1.7243
  167MOL0     H22529   8.837  10.963   1.887 -0.9115  0.6959  2.5274
  167MOL0     H22530   8.967  11.095   2.008 -0.3391  0.2086  0.2577
  167MOL0     H22531  10.775  11.005   1.424  0.6455  1.1900 -0.9923
  167MOL0     H22532  10.999  11.021   1.542  0.7703 -0.9274  0.3864
  167MOL0     H22533  11.406  11.228   1.677  1.1763  0.9731  0.3759
  167MOL0     H22534  11.597  11.273   1.828 -0.3692  0.3675 -1.5767
  167MOL0     H22535  11.742  11.225   2.036  0.6177 -0.4710  1.4717
  167MOL0     H22536  11.719  11.400   2.052  0.4496 -1.1330 -1.7656
  167MOL0     H22537  11.746  11.212   2.303 -1.4339  0.4157 -0.1627
  167MOL0     H22538  11.760  11.382   2.297  1.1434 -0.5351  0.5873
  167MOL0     H22539  11.964  11.386   2.195 -0.5701  0.2877 -0.9949
  167MOL0     H22540  11.944  11.215   2.141  0.5611 -0.5445  1.0627
  167MOL0     H22541  12.102  11.270   2.340 -0.1725  0.6811  0.1746
  167MOL0     H22542  12.010  11.115   2.322 -0.0243 -0.3315  1.7079
  167MOL0     H22543  11.857  11.262   2.671  0.7552 -3.1131  0.2382
  167MOL0     H22544  11.336  11.244   2.165 -0.6869  0.1746 -1.5983
  167MOL0     H22545  11.150  11.204   2.011  1.5024 -1.4546  2.3386
  168MOL0     O22546   5.887   2.183  10.922 -0.2423 -0.3339 -0.5092
  168MOL0     C22547   5.959   2.165  11.019 -0.4362  0.5778  0.3290
  168MOL0     O22548   5.932   2.090  11.126 -0.1811  0.5518  0.1085
  168MOL0     C22549   5.811   2.023  11.151 -0.0628  0.0275 -0.5885
  168MOL0     C22550   5.818   1.909  11.234  0.0611  1.0110  0.7115
  168MOL0     C22551   5.700   1.829  11.255 -0.0008  0.6022 -0.3286
  168MOL0     C22552   5.580   1.871  11.196  0.1733  0.3375 -0.6469
  168MOL0     O22553   5.481   1.782  11.222 -0.5959  0.0195 -0.3579
  168MOL0     C22554   5.351   1.803  11.168 -0.6172  0.2436  0.1498
  168MOL0     C22555   5.318   1.684  11.065  0.0348 -0.4254 -0.3814
  168MOL0     C22556   5.182   1.690  10.995 -0.3034  0.7401  0.3507
  168MOL0     C22557   5.064   1.674  11.094  0.7387 -0.3147 -0.2013
  168MOL0     C22558   4.923   1.704  11.028  0.2386  0.2355 -0.4165
  168MOL0     C22559   4.876   1.592  10.922 -0.3208  0.6421  1.0854
  168MOL0     C22560   4.733   1.631  10.877 -0.4804  0.2706  0.0789
  168MOL0     C22561   4.677   1.530  10.771 -0.7075 -0.6634 -1.2661
  168MOL0     N22562   4.544   1.567  10.734 -0.3201  0.2516 -0.4484
  168MOL0     C22563   4.426   1.519  10.786 -0.3861 -0.0453  0.0511
  168MOL0     C22564   4.322   1.580  10.721  0.5331 -0.3772 -0.4336
  168MOL0     C22565   4.178   1.544  10.730 -0.1408  0.0834 -0.0783
  168MOL0     C22566   4.103   1.626  10.833  0.4688  0.7721  0.1440
  168MOL0     C22567   3.952   1.624  10.813 -0.4942  0.6648 -0.2240
  168MOL0     C22568   3.875   1.706  10.922  0.0413 -0.0230  0.4733
  168MOL0     O22569   3.890   1.845  10.876  0.4167  0.2309  0.3963
  168MOL0     C22570   3.798   1.934  10.921 -0.4688 -0.2252  0.5738
  168MOL0     C22571   3.685   1.906  11.001 -0.3745  0.4562 -0.4318
  168MOL0     C22572   3.601   2.011  11.042 -0.0527 -0.3098  0.2433
  168MOL0     C22573   3.475   1.977  11.122  0.4026  0.0038 -0.2052
  168MOL0     C22574   3.628   2.145  11.000 -0.1259 -0.3898  0.7245
  168MOL0     C22575   3.540   2.251  11.033  0.2111 -0.6791 -0.9198
  168MOL0     O22576   3.409   2.239  11.014 -0.6631  0.0963  0.4889
  168MOL0     C22577   3.309   2.287  11.098  0.5137 -0.0521  0.3583
  168MOL0     C22578   3.339   2.348  11.220  0.2502 -0.0317  0.2699
  168MOL0     C22579   3.240   2.381  11.308 -0.4551  0.0806 -0.3663
  168MOL0     C22580   3.105   2.350  11.276 -0.2596 -0.3998  0.1743
  168MOL0     O22581   3.011   2.373  11.374 -0.2964  0.4749  0.4348
  168MOL0     C22582   2.895   2.442  11.329 -0.8969 -1.0217 -0.1038
  168MOL0     C22583   2.784   2.422  11.424 -1.1042 -0.6308 -0.1054
  168MOL0     C22584   2.806   2.506  11.551  0.0668  0.3469  0.2584
  168MOL0     C22585   2.670   2.535  11.621 -0.4776  0.5500 -0.6228
  168MOL0     C22586   2.611   2.676  11.589 -0.1441  0.6634  0.5923
  168MOL0     C22587   2.561   2.677  11.449 -0.3690  0.3164  0.0357
  168MOL0     C22588   2.440   2.579  11.414  0.4759  0.4146 -0.7444
  168MOL0     C22589   2.301   2.634  11.449  0.0848 -0.1126  0.3602
  168MOL0    Cl22590   2.252   2.762  11.341  0.2749 -0.3496 -0.1513
  168MOL0     C22591   3.077   2.292  11.152 -0.2709 -0.6395 -0.6381
  168MOL0     C22592   3.175   2.265  11.060  0.1805 -0.7987 -0.1804
  168MOL0     O22593   3.593   2.355  11.079  0.4134  0.4110  0.0684
  168MOL0     C22594   3.747   2.166  10.917 -0.1960  0.1337  0.0304
  168MOL0     C22595   3.827   2.061  10.883  0.3820 -0.1467 -0.1858
  168MOL0     N22596   4.383   1.675  10.643  0.5605 -0.3799  0.6309
  168MOL0     N22597   4.512   1.661  10.647 -0.1767  0.4013  0.3439
  168MOL0     C22598   5.579   1.995  11.134 -0.4126 -0.6798 -0.5378
  168MOL0     C22599   5.686   2.075  11.111 -0.0905  0.1375  0.0861
  168MOL0     C22600   6.101   2.208  11.006 -0.0538  0.3636 -0.4727
  168MOL0     C22601   6.178   2.250  11.116  0.5852 -0.1995 -0.3922
  168MOL0     C22602   6.313   2.283  11.106 -0.3030 -0.1638  0.5582
  168MOL0     C22603   6.375   2.271  10.986 -0.3909  0.4553  0.0549
  168MOL0     O22604   6.505   2.298  10.979 -0.4635  0.3725  0.1787
  168MOL0     C22605   6.567   2.352  10.856 -0.0194  0.0966 -0.2973
  168MOL0     C22606   6.702   2.406  10.895  0.0492  0.1271  0.1159
  168MOL0     C22607   6.676   2.527  10.993  0.4800  0.5806  0.7531
  168MOL0     C22608   6.778   2.632  10.981  0.2160  0.8289  0.0230
  168MOL0     C22609   6.913   2.585  11.010  0.5169 -0.7988 -0.0537
  168MOL0     C22610   7.022   2.538  11.037  0.3524 -0.3910  0.0092
  168MOL0     C22611   6.303   2.226  10.872 -0.3881 -1.1232 -0.6580
  168MOL0     C22612   6.170   2.191  10.881 -0.3232  0.0248 -0.1399
  168MOL0     H22613   5.919   1.884  11.268  0.1820  2.5371  1.5300
  168MOL0     H22614   5.703   1.734  11.307 -4.0281  1.3756  1.7275
  168MOL0     H22615   5.274   1.796  11.246 -0.6064 -3.2085  0.0268
  168MOL0     H22616   5.337   1.900  11.120 -3.3130 -0.2237 -0.1697
  168MOL0     H22617   5.404   1.691  10.999  2.0259  4.1420  2.1999
  168MOL0     H22618   5.324   1.588  11.116 -5.6143 -0.2659  1.3690
  168MOL0     H22619   5.180   1.780  10.933  4.2099  0.1780 -0.9819
  168MOL0     H22620   5.169   1.617  10.915 -1.9656  1.7960 -0.4023
  168MOL0     H22621   5.058   1.570  11.129 -0.3158  0.3733  1.8188
  168MOL0     H22622   5.080   1.741  11.179 -0.2675 -0.0904 -0.1794
  168MOL0     H22623   4.847   1.718  11.106 -0.7300  0.7624 -1.4404
  168MOL0     H22624   4.931   1.799  10.975 -0.5830  0.7407  0.3476
  168MOL0     H22625   4.945   1.585  10.838 -2.6518 -3.1580 -0.7734
  168MOL0     H22626   4.873   1.490  10.961 -0.0170  0.0053 -0.5086
  168MOL0     H22627   4.670   1.629  10.967 -0.6604 -1.7878 -0.0495
  168MOL0     H22628   4.735   1.733  10.837  2.3065  1.1638  2.2198
  168MOL0     H22629   4.672   1.436  10.827  1.2193  0.3853  0.8513
  168MOL0     H22630   4.747   1.503  10.692  0.9119 -0.3939  0.0210
  168MOL0     H22631   4.417   1.442  10.862  0.7868  0.2761  0.5427
  168MOL0     H22632   4.131   1.553  10.632  0.3629 -1.7156 -0.5335
  168MOL0     H22633   4.166   1.441  10.764  0.0932 -0.8339 -2.5362
  168MOL0     H22634   4.142   1.729  10.831 -0.2422  1.0428 -0.4189
  168MOL0     H22635   4.117   1.594  10.937 -0.9928 -1.0104 -0.1610
  168MOL0     H22636   3.930   1.521  10.841 -2.2430  0.9937 -0.2749
  168MOL0     H22637   3.912   1.648  10.714 -2.3930 -0.6366  0.1748
  168MOL0     H22638   3.913   1.696  11.024  1.9879 -0.5309 -0.2608
  168MOL0     H22639   3.771   1.675  10.914  0.0372 -0.0029  0.4491
  168MOL0     H22640   3.677   1.809  11.051  3.0865  0.8460  1.1774
  168MOL0     H22641   3.403   1.911  11.072 -0.8117 -1.0079  2.6768
  168MOL0     H22642   3.506   1.912  11.205 -1.4940 -1.5891 -0.6688
  168MOL0     H22643   3.432   2.067  11.166  0.9056  0.5999 -0.9133
  168MOL0     H22644   3.442   2.374  11.242 -0.3132  0.4889  2.4587
  168MOL0     H22645   3.264   2.437  11.397 -0.4175  1.6820 -1.3553
  168MOL0     H22646   2.917   2.549  11.320 -1.4911 -0.7454  1.3358
  168MOL0     H22647   2.862   2.405  11.232 -0.3828  0.3770 -0.8385
  168MOL0     H22648   2.695   2.453  11.369  0.1077 -1.2423 -2.5745
  168MOL0     H22649   2.791   2.316  11.447 -0.2174 -0.8322 -1.2031
  168MOL0     H22650   2.854   2.602  11.531  0.9574  0.0283  0.8252
  168MOL0     H22651   2.864   2.452  11.626  1.4047  2.2292  0.6415
  168MOL0     H22652   2.599   2.454  11.603 -1.7887  1.7809 -1.0841
  168MOL0     H22653   2.699   2.536  11.727  2.5772  2.2968 -1.3360
  168MOL0     H22654   2.678   2.762  11.600 -2.5566  3.3022 -2.7940
  168MOL0     H22655   2.523   2.691  11.652 -1.9801 -0.2660 -1.5954
  168MOL0     H22656   2.528   2.781  11.445 -0.9632  0.1845  1.0649
  168MOL0     H22657   2.642   2.660  11.378 -0.7986  1.0989 -0.6573
  168MOL0     H22658   2.444   2.488  11.474 -5.4934  1.5425  2.0995
  168MOL0     H22659   2.444   2.548  11.309  0.9624 -1.2316 -0.2707
  168MOL0     H22660   2.304   2.670  11.552  0.8468 -2.5970  1.2676
  168MOL0     H22661   2.228   2.553  11.444  0.4300 -0.4107  0.1392
  168MOL0     H22662   2.976   2.267  11.121 -0.4489 -1.8234  0.7805
  168MOL0     H22663   3.158   2.217  10.965  3.4919 -0.8915 -0.8600
  168MOL0     H22664   3.771   2.264  10.879 -1.6517 -0.0120 -1.3993
  168MOL0     H22665   3.913   2.071  10.817  0.0435  0.6293 -0.5259
  168MOL0     H22666   5.484   2.030  11.095 -0.4066 -1.2120 -1.0574
  168MOL0     H22667   5.667   2.167  11.056 -2.0194 -0.3485 -0.1209
  168MOL0     H22668   6.140   2.247  11.217 -0.1597 -1.2041 -0.6872
  168MOL0     H22669   6.388   2.292  11.185  1.2077  2.0188 -1.0105
  168MOL0     H22670   6.581   2.270  10.784  0.2823 -0.5941  0.5392
  168MOL0     H22671   6.505   2.428  10.808  1.1078  2.2296  1.4652
  168MOL0     H22672   6.762   2.437  10.809  1.3667 -1.5557  0.3840
  168MOL0     H22673   6.760   2.325  10.941 -0.3037  0.4486  1.1547
  168MOL0     H22674   6.689   2.481  11.091  0.3484  1.3567  1.1441
  168MOL0     H22675   6.577   2.570  10.976  1.5403  2.2397 -2.1453
  168MOL0     H22676   6.755   2.712  11.053 -0.4097  1.6214 -1.0309
  168MOL0     H22677   6.796   2.679  10.884  3.6680  2.2063  1.1709
  168MOL0     H22678   7.122   2.517  11.069  0.7511  1.1339 -0.1770
  168MOL0     H22679   6.352   2.233  10.776  1.3552  2.4083  0.3222
  168MOL0     H22680   6.109   2.162  10.796  2.4907 -3.4433 -1.2597
  169MOL0     O22681   4.551  10.279   2.559 -0.0589  0.1589  0.1996
  169MOL0     C22682   4.602  10.362   2.633 -0.5477  0.0966  0.9774
  169MOL0     O22683   4.539  10.424   2.736 -0.7706  0.1655  0.3650
  169MOL0     C22684   4.404  10.396   2.759  0.8218 -0.2047  0.1708
  169MOL0     C22685   4.361  10.375   2.890 -0.0371 -0.0438 -0.1460
  169MOL0     C22686   4.223  10.362   2.918  0.7425 -0.3067 -0.7211
  169MOL0     C22687   4.128  10.381   2.817  0.2700 -0.1855 -0.3120
  169MOL0     O22688   3.989  10.370   2.847  0.3735  0.3875 -0.3929
  169MOL0     C22689   3.940  10.351   2.983  0.9549  0.4723 -0.4385
  169MOL0     C22690   3.789  10.323   2.965 -0.0907 -0.2879  0.6568
  169MOL0     C22691   3.721  10.270   3.097 -0.8715 -0.0859  0.0425
  169MOL0     C22692   3.570  10.288   3.098  1.3612 -1.1325 -0.1618
  169MOL0     C22693   3.485  10.192   3.185 -0.1968 -0.4064  0.4545
  169MOL0     C22694   3.533  10.175   3.328  0.1406 -0.1799 -0.3520
  169MOL0     C22695   3.447  10.258   3.436  0.2107  0.5156 -0.0840
  169MOL0     C22696   3.451  10.416   3.410  0.0555  0.1311 -0.7283
  169MOL0     N22697   3.429  10.493   3.531 -0.6571  0.4343 -0.1092
  169MOL0     C22698   3.314  10.506   3.603 -0.0555 -1.0911 -0.0749
  169MOL0     C22699   3.327  10.604   3.693 -0.0553  0.1458 -0.8611
  169MOL0     C22700   3.223  10.649   3.790 -0.3450  0.4183 -0.5394
  169MOL0     C22701   3.107  10.703   3.712  0.0790 -0.1539  0.8691
  169MOL0     C22702   3.006  10.783   3.790 -0.1464 -0.4929  0.5529
  169MOL0     C22703   2.871  10.826   3.724 -0.2502  0.2714  0.0032
  169MOL0     O22704   2.918  10.913   3.618  0.0940 -0.2251  0.1368
  169MOL0     C22705   2.816  10.997   3.580  0.0801 -0.5932 -0.3638
  169MOL0     C22706   2.765  11.004   3.449 -0.3853  0.1751 -0.3189
  169MOL0     C22707   2.672  11.092   3.411  0.0906 -0.0670  0.7297
  169MOL0     C22708   2.617  11.085   3.268 -0.2804 -0.2964 -0.5577
  169MOL0     C22709   2.613  11.185   3.499 -0.1339  0.6728  0.3614
  169MOL0     C22710   2.509  11.288   3.465  1.1338  1.0348  0.1025
  169MOL0     O22711   2.459  11.346   3.579  0.4302 -0.1862 -0.3786
  169MOL0     C22712   2.348  11.426   3.560  0.0496  0.4247 -0.9103
  169MOL0     C22713   2.230  11.396   3.616  0.4202  0.9888 -0.3821
  169MOL0     C22714   2.106  11.462   3.602 -0.6392 -0.7080 -0.1695
  169MOL0     C22715   2.102  11.584   3.527  0.3594  0.2046 -0.8718
  169MOL0     O22716   1.995  11.666   3.518 -0.1352  0.4909  0.8549
  169MOL0     C22717   1.869  11.603   3.547 -0.5366  0.1308 -0.0699
  169MOL0     C22718   1.758  11.692   3.495  0.1981  0.3610 -0.2924
  169MOL0     C22719   1.625  11.631   3.467 -0.0386 -0.2312  0.1616
  169MOL0     C22720   1.581  11.554   3.598 -0.2722 -0.7525 -0.4440
  169MOL0     C22721   1.428  11.500   3.590 -0.1454  0.1699  0.4265
  169MOL0     C22722   1.376  11.429   3.719  0.3417 -0.1077  0.0257
  169MOL0     C22723   1.223  11.420   3.700 -0.5263 -0.2815  0.1331
  169MOL0     C22724   1.153  11.310   3.783 -0.8501 -0.1707 -0.5641
  169MOL0    Cl22725   1.213  11.151   3.736  0.3806  0.1554  0.4624
  169MOL0     C22726   2.227  11.628   3.476  0.6365  0.5049  0.0676
  169MOL0     C22727   2.345  11.548   3.489  0.2344 -0.4464  0.3948
  169MOL0     O22728   2.460  11.289   3.352 -0.2467  0.0085 -0.0513
  169MOL0     C22729   2.667  11.176   3.633  0.3409 -0.3681 -0.0459
  169MOL0     C22730   2.761  11.087   3.669 -0.1423 -0.6059 -0.3659
  169MOL0     N22731   3.463  10.641   3.681 -0.3240 -0.2858  0.5847
  169MOL0     N22732   3.518  10.576   3.580 -0.4288  0.1915 -0.1240
  169MOL0     C22733   4.168  10.399   2.683 -0.3862 -0.1194 -0.1466
  169MOL0     C22734   4.305  10.406   2.657  0.7349  0.6768  0.8948
  169MOL0     C22735   4.743  10.380   2.603  0.0450  0.1239  0.6622
  169MOL0     C22736   4.828  10.467   2.676 -0.0979 -0.1943  0.5388
  169MOL0     C22737   4.962  10.496   2.637 -0.1838 -0.0725  0.0122
  169MOL0     C22738   5.023  10.438   2.527 -0.3764 -0.3164  1.3111
  169MOL0     O22739   5.146  10.486   2.488 -0.0332 -0.7458  0.4918
  169MOL0     C22740   5.222  10.423   2.382  0.4849  0.1822  0.0836
  169MOL0     C22741   5.286  10.302   2.442  0.2876  0.2524  0.2835
  169MOL0     C22742   5.388  10.321   2.551 -0.2325  0.2139  0.2367
  169MOL0     C22743   5.423  10.181   2.613  0.4963  0.7202 -0.2157
  169MOL0     C22744   5.489  10.088   2.516 -0.2406 -0.1123  0.7141
  169MOL0     C22745   5.541  10.032   2.418 -0.1135 -0.0632  0.3621
  169MOL0     C22746   4.944  10.351   2.454 -1.2227 -0.1621 -0.4820
  169MOL0     C22747   4.813  10.314   2.496  0.0503 -0.3551 -0.2954
  169MOL0     H22748   4.436  10.351   2.964 -0.5473 -1.9998 -0.2076
  169MOL0     H22749   4.200  10.358   3.024  1.2575  2.6148 -0.4293
  169MOL0     H22750   3.995  10.268   3.027  0.3376  0.6213  0.6606
  169MOL0     H22751   3.957  10.440   3.045  0.8129  0.5208 -0.4695
  169MOL0     H22752   3.740  10.416   2.934  1.5500  0.4108  0.0339
  169MOL0     H22753   3.768  10.243   2.894 -1.6640  2.2959 -2.0314
  169MOL0     H22754   3.740  10.163   3.104  0.5094  0.0563 -1.1024
  169MOL0     H22755   3.771  10.312   3.184 -3.9367  0.3838  1.7342
  169MOL0     H22756   3.559  10.390   3.134  0.1182 -0.4767 -2.2587
  169MOL0     H22757   3.520  10.281   3.001  0.1935  2.1405  0.1001
  169MOL0     H22758   3.378  10.217   3.179  0.0896  0.5374 -1.6327
  169MOL0     H22759   3.492  10.094   3.138 -1.8580  1.3549 -4.0579
  169MOL0     H22760   3.530  10.069   3.352  2.4503 -0.7185 -2.0902
  169MOL0     H22761   3.640  10.198   3.341  0.3892 -1.3416 -0.2841
  169MOL0     H22762   3.346  10.217   3.450  1.0685 -1.2094  1.5766
  169MOL0     H22763   3.489  10.245   3.536  1.9655  0.3876 -0.8014
  169MOL0     H22764   3.363  10.433   3.347  0.3910 -1.3701 -1.6560
  169MOL0     H22765   3.547  10.439   3.364  0.8530 -1.3297  0.1381
  169MOL0     H22766   3.223  10.447   3.593  1.6913 -3.7546 -1.3225
  169MOL0     H22767   3.191  10.561   3.846 -1.7692  0.0875 -1.7982
  169MOL0     H22768   3.266  10.723   3.859 -3.1361  0.5338  1.2057
  169MOL0     H22769   3.054  10.616   3.671 -0.0015  0.9718 -1.6175
  169MOL0     H22770   3.138  10.769   3.630 -0.1231 -0.6535  0.3835
  169MOL0     H22771   3.054  10.877   3.819 -0.5833  0.2790 -1.1243
  169MOL0     H22772   2.973  10.722   3.875 -0.6730 -1.9643 -0.6658
  169MOL0     H22773   2.811  10.866   3.806  1.2602  1.0407  0.7796
  169MOL0     H22774   2.821  10.732   3.699  1.4796 -1.3705  2.2501
  169MOL0     H22775   2.812  10.924   3.392  0.8402  0.1112  0.7509
  169MOL0     H22776   2.644  11.178   3.218 -2.1264  2.0090  2.4097
  169MOL0     H22777   2.665  11.009   3.205  0.0566 -0.2514 -0.3579
  169MOL0     H22778   2.510  11.060   3.272 -0.1562 -0.7324  0.4976
  169MOL0     H22779   2.215  11.305   3.674 -1.5293 -1.2787 -4.0533
  169MOL0     H22780   2.024  11.422   3.660 -1.3134  3.3726  2.1239
  169MOL0     H22781   1.864  11.503   3.502 -1.9494 -1.0511  2.5006
  169MOL0     H22782   1.865  11.585   3.655  0.0507  0.4722  0.0180
  169MOL0     H22783   1.761  11.782   3.556  0.1936 -1.2008  2.1528
  169MOL0     H22784   1.780  11.724   3.392 -2.6964 -0.3515 -1.2619
  169MOL0     H22785   1.633  11.559   3.386 -2.0806 -4.1704  3.1357
  169MOL0     H22786   1.553  11.711   3.444 -0.5758 -0.2079  1.8236
  169MOL0     H22787   1.643  11.464   3.609  0.5023 -0.6544 -3.2123
  169MOL0     H22788   1.585  11.620   3.685 -1.3319 -0.2305 -0.7708
  169MOL0     H22789   1.415  11.428   3.509  1.7694  1.9182 -1.5781
  169MOL0     H22790   1.360  11.584   3.574 -1.5470 -0.2999  3.2482
  169MOL0     H22791   1.422  11.332   3.738 -3.4585 -1.6189  2.8667
  169MOL0     H22792   1.399  11.489   3.807 -0.1342 -1.7025  1.2944
  169MOL0     H22793   1.210  11.387   3.597  0.5572  1.5387 -0.6244
  169MOL0     H22794   1.180  11.520   3.707  0.2280  0.3161 -2.6009
  169MOL0     H22795   1.045  11.313   3.765 -0.8638 -0.0903 -0.4731
  169MOL0     H22796   1.160  11.328   3.891  0.4198 -0.7247 -0.5447
  169MOL0     H22797   2.223  11.726   3.431 -4.7993 -0.6318 -2.7402
  169MOL0     H22798   2.437  11.582   3.443  0.3634 -2.1755 -0.7323
  169MOL0     H22799   2.635  11.239   3.716  0.8402 -1.0194  0.6630
  169MOL0     H22800   2.799  11.077   3.770 -0.3405  0.2089 -0.2041
  169MOL0     H22801   4.088  10.405   2.610 -0.1813  1.7232 -0.2698
  169MOL0     H22802   4.322  10.430   2.553 -0.6899 -2.1381 -0.1131
  169MOL0     H22803   4.786  10.522   2.759 -0.1381 -1.9125  1.7095
  169MOL0     H22804   5.015  10.578   2.683  0.8540 -0.0254 -1.1925
  169MOL0     H22805   5.166  10.394   2.293 -0.3835 -2.2356  1.3046
  169MOL0     H22806   5.296  10.494   2.344 -0.8500  0.6038 -1.8342
  169MOL0     H22807   5.328  10.238   2.364 -0.4679 -1.1803  0.9992
  169MOL0     H22808   5.208  10.237   2.483 -2.0425  0.5482 -3.2433
  169MOL0     H22809   5.347  10.382   2.633  2.2955  2.2074  0.1386
  169MOL0     H22810   5.476  10.377   2.519  0.3877 -0.7074  0.3028
  169MOL0     H22811   5.330  10.130   2.640  0.0788 -1.0014 -4.1325
  169MOL0     H22812   5.487  10.196   2.701 -1.6516  2.8979  1.0742
  169MOL0     H22813   5.569   9.998   2.320 -0.9606  1.3763 -0.4012
  169MOL0     H22814   4.983  10.298   2.368 -0.8996 -0.3113 -0.2485
  169MOL0     H22815   4.751  10.249   2.436  1.0592  0.0987 -1.8746
  170MOL0     O22816   8.058   2.708   3.840 -0.2934 -0.3955 -0.5920
  170MOL0     C22817   8.072   2.614   3.766  0.7086  0.7928 -0.1808
  170MOL0     O22818   8.001   2.496   3.769 -0.0720 -0.0689  0.2409
  170MOL0     C22819   7.878   2.467   3.826 -0.2347 -0.3838  1.3856
  170MOL0     C22820   7.795   2.387   3.756  0.4783  0.5383  0.7455
  170MOL0     C22821   7.669   2.359   3.791  0.0451 -0.0332 -0.8943
  170MOL0     C22822   7.614   2.421   3.904 -0.8362  0.1956  0.1924
  170MOL0     O22823   7.486   2.428   3.932 -0.3756  0.3085 -0.7282
  170MOL0     C22824   7.392   2.340   3.867  0.2404 -0.3112 -0.0838
  170MOL0     C22825   7.255   2.361   3.930 -0.6512 -0.0575  0.3631
  170MOL0     C22826   7.144   2.278   3.884  0.3503  1.1151  1.3768
  170MOL0     C22827   7.003   2.326   3.942 -0.8828 -0.3211  0.6179
  170MOL0     C22828   6.923   2.210   3.999  0.0050 -0.2825  0.7155
  170MOL0     C22829   6.798   2.278   4.063 -0.1419  0.4178 -0.0416
  170MOL0     C22830   6.714   2.171   4.139 -0.2105  0.5124  0.8732
  170MOL0     C22831   6.779   2.139   4.277  0.0668 -0.4600  0.2783
  170MOL0     N22832   6.738   2.242   4.380 -0.4769  0.0393  0.3600
  170MOL0     C22833   6.617   2.242   4.449 -0.5082 -0.5656  0.2461
  170MOL0     C22834   6.617   2.352   4.526  0.2007 -0.2768 -0.0872
  170MOL0     C22835   6.508   2.396   4.623 -0.5399  1.5762  0.5802
  170MOL0     C22836   6.381   2.314   4.594  0.4513  0.5962 -0.2737
  170MOL0     C22837   6.272   2.374   4.688 -0.5645 -0.2336 -0.8245
  170MOL0     C22838   6.136   2.326   4.662  0.5485 -0.1571  1.0428
  170MOL0     O22839   6.054   2.388   4.762 -0.3113 -0.0072  0.6812
  170MOL0     C22840   5.923   2.347   4.775 -0.5250 -1.1091  0.5371
  170MOL0     C22841   5.849   2.301   4.671  0.3650 -0.9502 -0.0645
  170MOL0     C22842   5.714   2.254   4.693 -0.3895  0.0042  0.7068
  170MOL0     C22843   5.637   2.183   4.572 -0.6353 -1.2842  0.7044
  170MOL0     C22844   5.661   2.254   4.821  0.9017 -0.0643 -0.2116
  170MOL0     C22845   5.517   2.238   4.856  0.0608  1.0842 -0.2587
  170MOL0     O22846   5.489   2.230   4.995 -0.2909  0.1836  0.1306
  170MOL0     C22847   5.364   2.204   5.044 -0.2862  0.0270  0.0976
  170MOL0     C22848   5.348   2.235   5.180  0.7430 -0.6053 -0.5359
  170MOL0     C22849   5.223   2.227   5.248 -1.1234  0.2461  1.1532
  170MOL0     C22850   5.113   2.183   5.175  1.4865 -0.0691  0.2104
  170MOL0     O22851   4.988   2.189   5.242 -0.0012 -0.3421  0.2790
  170MOL0     C22852   4.928   2.064   5.274  0.2576  0.8238  0.4272
  170MOL0     C22853   4.798   2.012   5.207 -0.4794 -0.5117  0.0881
  170MOL0     C22854   4.787   1.860   5.204 -0.4885  0.6834 -0.7047
  170MOL0     C22855   4.671   1.814   5.113  1.0727 -0.5328 -0.1125
  170MOL0     C22856   4.637   1.668   5.138 -0.1693  0.7541 -0.1070
  170MOL0     C22857   4.528   1.635   5.035  0.2995  0.4914  0.1919
  170MOL0     C22858   4.484   1.488   5.048 -0.0042 -0.4940  0.8234
  170MOL0     C22859   4.586   1.384   4.978 -0.1332  0.1350 -0.6323
  170MOL0    Cl22860   4.750   1.377   5.061 -0.7183  0.1847  0.3798
  170MOL0     C22861   5.124   2.142   5.040  0.5004  0.0938  0.4443
  170MOL0     C22862   5.250   2.153   4.975 -0.2503  1.5821 -0.1118
  170MOL0     O22863   5.428   2.242   4.769 -1.0801 -0.3689 -0.0802
  170MOL0     C22864   5.735   2.311   4.928 -0.2315 -0.2054 -0.3815
  170MOL0     C22865   5.870   2.361   4.906 -0.4278  0.8112  1.2133
  170MOL0     N22866   6.739   2.411   4.515  0.2970  0.4383  0.2430
  170MOL0     N22867   6.812   2.342   4.432 -0.3903 -0.5118  0.0662
  170MOL0     C22868   7.699   2.499   3.987  0.3038  0.3253  0.3557
  170MOL0     C22869   7.826   2.524   3.940 -0.1653 -0.5874 -0.5251
  170MOL0     C22870   8.174   2.629   3.661  0.3734 -0.8111 -0.0413
  170MOL0     C22871   8.198   2.537   3.554  0.5510 -0.0010 -0.4017
  170MOL0     C22872   8.299   2.556   3.456 -0.0002 -0.2292 -0.4443
  170MOL0     C22873   8.379   2.661   3.465 -0.3924 -0.2496  0.8745
  170MOL0     O22874   8.478   2.669   3.376  0.5365 -0.1206  0.2089
  170MOL0     C22875   8.607   2.625   3.427 -0.0791 -0.8372  0.6740
  170MOL0     C22876   8.707   2.736   3.393  0.1097 -0.6740  0.2273
  170MOL0     C22877   8.805   2.696   3.278  0.0415 -1.5634 -0.2266
  170MOL0     C22878   8.804   2.807   3.178 -0.5043 -0.0200  0.9298
  170MOL0     C22879   8.929   2.806   3.099  0.6332 -0.8563  0.4161
  170MOL0     C22880   9.029   2.792   3.026  0.3268  0.9381 -0.1820
  170MOL0     C22881   8.360   2.765   3.557  0.4368 -0.2548  0.2348
  170MOL0     C22882   8.250   2.750   3.649 -0.6614  0.1397 -0.4041
  170MOL0     H22883   7.819   2.346   3.659 -1.2811  2.0324 -0.3879
  170MOL0     H22884   7.609   2.308   3.716 -1.1754 -0.0475  0.0534
  170MOL0     H22885   7.377   2.349   3.759 -2.5048 -1.6370  0.0929
  170MOL0     H22886   7.424   2.237   3.886 -2.0104 -1.8213 -3.5254
  170MOL0     H22887   7.263   2.341   4.038  1.3622 -1.3249  0.0319
  170MOL0     H22888   7.228   2.466   3.917  2.3920  0.9869  1.4820
  170MOL0     H22889   7.149   2.267   3.775  1.9126 -1.3935  1.6164
  170MOL0     H22890   7.160   2.174   3.915 -0.3963  0.3533 -0.5875
  170MOL0     H22891   7.026   2.395   4.023 -1.0932 -1.8662  2.0371
  170MOL0     H22892   6.938   2.374   3.868 -0.5944  0.6861  1.0042
  170MOL0     H22893   6.888   2.147   3.917 -0.2820  0.1489  0.5037
  170MOL0     H22894   6.980   2.151   4.071 -0.5001  1.3859  2.5827
  170MOL0     H22895   6.830   2.356   4.132  1.1390  0.7134 -0.9315
  170MOL0     H22896   6.738   2.338   3.992  1.6827  0.4343 -1.6472
  170MOL0     H22897   6.614   2.214   4.150  0.7677  3.2368 -0.0493
  170MOL0     H22898   6.710   2.081   4.076 -0.2729  0.0751  1.4880
  170MOL0     H22899   6.887   2.127   4.268 -0.1365 -2.6486  0.2397
  170MOL0     H22900   6.749   2.041   4.315 -0.0965 -0.6587 -0.3372
  170MOL0     H22901   6.547   2.160   4.434 -0.9345 -0.1462 -0.0629
  170MOL0     H22902   6.538   2.396   4.728 -1.1916 -0.0101  0.7863
  170MOL0     H22903   6.485   2.500   4.594 -0.6265  1.1580 -0.9493
  170MOL0     H22904   6.399   2.211   4.624 -1.1052  0.5368  0.5882
  170MOL0     H22905   6.336   2.309   4.495 -1.0689  1.0351  0.3589
  170MOL0     H22906   6.260   2.483   4.688 -2.7119 -0.2992  3.0086
  170MOL0     H22907   6.290   2.361   4.795 -4.8909  2.8708  0.5754
  170MOL0     H22908   6.141   2.218   4.676  0.1017 -0.1517  1.2754
  170MOL0     H22909   6.101   2.338   4.559 -0.3924 -1.8000  1.1301
  170MOL0     H22910   5.894   2.309   4.573  1.4025 -0.6653  0.4268
  170MOL0     H22911   5.580   2.251   4.508  0.3518 -0.6986  0.4188
  170MOL0     H22912   5.716   2.138   4.511  2.1776  0.4530  2.7682
  170MOL0     H22913   5.577   2.105   4.620 -2.2313  0.2270  1.2598
  170MOL0     H22914   5.432   2.273   5.237  1.5951  0.4160 -2.3705
  170MOL0     H22915   5.214   2.257   5.351 -2.1798  2.9105  0.3526
  170MOL0     H22916   5.000   1.981   5.280 -1.1766 -0.3513  2.5814
  170MOL0     H22917   4.898   2.081   5.378 -1.9055  0.0407 -0.0305
  170MOL0     H22918   4.715   2.042   5.271 -0.4013  0.3753 -0.2119
  170MOL0     H22919   4.788   2.049   5.105 -0.6833 -2.3505 -0.6058
  170MOL0     H22920   4.766   1.819   5.303  0.9385  0.0340 -0.6340
  170MOL0     H22921   4.878   1.816   5.162  0.6687 -0.1657  2.4293
  170MOL0     H22922   4.572   1.861   5.120  0.4626 -1.8740  0.7672
  170MOL0     H22923   4.699   1.814   5.008  0.3773 -3.8179 -0.3974
  170MOL0     H22924   4.607   1.665   5.244  0.4358 -1.2607  0.0494
  170MOL0     H22925   4.733   1.617   5.125  0.8204  1.7978  2.3816
  170MOL0     H22926   4.439   1.698   5.049 -1.5467 -1.9256  0.1175
  170MOL0     H22927   4.553   1.654   4.931 -0.9111 -1.7792 -0.5927
  170MOL0     H22928   4.383   1.472   5.010  1.4454 -1.3208 -3.1670
  170MOL0     H22929   4.485   1.467   5.155 -1.4911 -2.5390  0.4819
  170MOL0     H22930   4.598   1.410   4.872  3.1407  0.5181 -0.2852
  170MOL0     H22931   4.543   1.283   4.975  0.3133 -0.0591 -3.1645
  170MOL0     H22932   5.041   2.098   4.984  0.7422  0.8954 -0.5801
  170MOL0     H22933   5.267   2.120   4.873 -1.7865  2.1733 -0.5843
  170MOL0     H22934   5.705   2.313   5.032  0.1084  1.1715 -0.2875
  170MOL0     H22935   5.942   2.396   4.979  3.7369 -2.2294 -1.0331
  170MOL0     H22936   7.662   2.557   4.071  0.8960 -0.8049  1.4170
  170MOL0     H22937   7.878   2.607   3.987 -1.0313 -0.4510  0.2122
  170MOL0     H22938   8.135   2.449   3.543  2.0936 -1.3686  1.1359
  170MOL0     H22939   8.315   2.482   3.378 -0.0214  1.4956 -2.1538
  170MOL0     H22940   8.604   2.619   3.537  2.4421 -1.2195  0.7892
  170MOL0     H22941   8.631   2.530   3.379  1.5078 -1.8442  3.2271
  170MOL0     H22942   8.765   2.767   3.481  0.9264 -3.8070  0.9362
  170MOL0     H22943   8.642   2.819   3.365 -2.5616 -2.4233  0.8880
  170MOL0     H22944   8.784   2.598   3.234 -1.0180 -1.7050  0.5292
  170MOL0     H22945   8.896   2.688   3.337  0.0476  1.3790  0.3387
  170MOL0     H22946   8.794   2.904   3.228  0.5309 -0.8038  2.7339
  170MOL0     H22947   8.722   2.785   3.108 -1.9876 -2.5043  3.2641
  170MOL0     H22948   9.124   2.787   2.976  0.1971 -2.1726 -0.3146
  170MOL0     H22949   8.433   2.844   3.565 -0.0158  0.0441  1.9784
  170MOL0     H22950   8.227   2.829   3.720 -0.1738  2.2511 -2.4619
  171MOL0     O22951   3.243   9.232   8.220  0.9923 -0.3715 -0.6159
  171MOL0     C22952   3.301   9.328   8.161 -0.0492 -0.5645  0.5251
  171MOL0     O22953   3.233   9.407   8.069 -0.2723 -0.3209 -0.1076
  171MOL0     C22954   3.095   9.400   8.047  0.1280  0.7502 -0.2976
  171MOL0     C22955   3.005   9.411   8.155 -1.1374  0.4060  0.5186
  171MOL0     C22956   2.869   9.409   8.128 -0.0557  0.2112  0.2687
  171MOL0     C22957   2.819   9.383   8.002  0.0212  0.7522  1.0054
  171MOL0     O22958   2.681   9.398   7.982 -0.3978 -0.0173 -0.2908
  171MOL0     C22959   2.630   9.374   7.849 -0.3350 -0.2882  0.2354
  171MOL0     C22960   2.481   9.420   7.825  0.0762  0.1848 -0.8773
  171MOL0     C22961   2.384   9.363   7.934 -0.6927  0.2509  0.0591
  171MOL0     C22962   2.250   9.426   7.918 -0.8915  0.2996 -1.0019
  171MOL0     C22963   2.247   9.573   7.949  0.4258 -0.0608 -0.1832
  171MOL0     C22964   2.216   9.601   8.095  0.2418  0.2039  0.3904
  171MOL0     C22965   2.223   9.742   8.136 -0.3868  0.9049  0.3118
  171MOL0     C22966   2.101   9.822   8.133 -0.6778 -0.6359 -0.2664
  171MOL0     N22967   2.119   9.939   8.223  0.3623  0.0503  0.4691
  171MOL0     C22968   2.145  10.064   8.187  0.2508 -0.4511 -0.1749
  171MOL0     C22969   2.142  10.142   8.301  0.8917  0.0642 -0.7191
  171MOL0     C22970   2.165  10.289   8.311  0.0932  0.1492 -0.3634
  171MOL0     C22971   2.248  10.356   8.194 -0.1957 -0.4312 -0.8708
  171MOL0     C22972   2.394  10.325   8.182 -0.7953 -0.0342 -0.5773
  171MOL0     C22973   2.458  10.391   8.059  0.0994  0.0848 -1.3073
  171MOL0     O22974   2.602  10.390   8.076  0.2969 -0.4804 -0.7561
  171MOL0     C22975   2.685  10.476   8.014  0.1392  0.8584 -0.7249
  171MOL0     C22976   2.651  10.559   7.910 -0.4716  0.5035  0.4555
  171MOL0     C22977   2.755  10.647   7.862 -0.6536  0.0786  0.5220
  171MOL0     C22978   2.708  10.752   7.764  0.7102 -0.0314 -0.0028
  171MOL0     C22979   2.898  10.621   7.885  0.4964 -0.2882 -0.0329
  171MOL0     C22980   3.005  10.706   7.835 -0.6005 -0.3033 -0.3804
  171MOL0     O22981   2.988  10.760   7.709  0.3570 -0.6348  0.5987
  171MOL0     C22982   3.084  10.845   7.665  0.4566  0.0667  0.2190
  171MOL0     C22983   3.094  10.977   7.700 -0.4223 -0.1015  0.0669
  171MOL0     C22984   3.181  11.062   7.640 -0.3851  0.3515 -0.5346
  171MOL0     C22985   3.263  11.013   7.535 -0.2044  1.2440  0.5090
  171MOL0     O22986   3.356  11.106   7.488  0.3711  0.0094  0.0067
  171MOL0     C22987   3.399  11.074   7.364 -0.2644 -0.6627  0.1688
  171MOL0     C22988   3.438  11.209   7.287 -0.8584 -0.0210  0.8241
  171MOL0     C22989   3.311  11.283   7.247 -0.1400  0.2310  0.3450
  171MOL0     C22990   3.218  11.226   7.142 -0.7336  0.1214  0.9923
  171MOL0     C22991   3.064  11.242   7.160 -0.1110 -0.4094  0.1790
  171MOL0     C22992   3.006  11.146   7.263 -0.7362 -0.1769  0.0412
  171MOL0     C22993   2.859  11.136   7.261  0.3384 -0.8378 -0.3676
  171MOL0     C22994   2.805  11.014   7.334  0.6935  0.3936  1.1517
  171MOL0    Cl22995   2.797  11.034   7.514 -0.5609 -0.0877 -0.3361
  171MOL0     C22996   3.247  10.878   7.493  0.3250  0.4352  0.3206
  171MOL0     C22997   3.157  10.794   7.560 -0.1645  0.4833  0.1469
  171MOL0     O22998   3.107  10.712   7.903  0.3417 -0.2746 -0.1358
  171MOL0     C22999   2.922  10.516   7.972 -0.7167  0.2802 -0.2286
  171MOL0     C23000   2.817  10.462   8.045 -0.7967 -0.3888  0.1041
  171MOL0     N23001   2.091  10.050   8.395 -0.0692 -0.4203  0.7449
  171MOL0     N23002   2.082   9.931   8.352 -0.6372 -0.7300  0.4554
  171MOL0     C23003   2.912   9.365   7.897  0.4254  0.1805 -0.1466
  171MOL0     C23004   3.045   9.369   7.916  0.2533 -0.2700 -0.0990
  171MOL0     C23005   3.442   9.356   8.196  0.0865  0.4727 -0.5601
  171MOL0     C23006   3.507   9.266   8.287 -0.2568 -0.2193  0.1009
  171MOL0     C23007   3.639   9.294   8.326  0.1746  0.5940 -0.8282
  171MOL0     C23008   3.707   9.397   8.260 -0.8525 -0.4308  0.4762
  171MOL0     O23009   3.838   9.426   8.279 -0.2276  0.0542 -0.6291
  171MOL0     C23010   3.927   9.318   8.237 -0.1134 -0.1464 -0.2142
  171MOL0     C23011   3.968   9.342   8.088 -0.0079  0.5354 -0.3783
  171MOL0     C23012   4.056   9.476   8.072  0.2060 -0.7383  0.0730
  171MOL0     C23013   4.143   9.483   7.945  0.2326  0.8820 -0.1466
  171MOL0     C23014   4.285   9.453   7.985  0.4073 -0.5535 -0.5719
  171MOL0     C23015   4.389   9.441   8.049  0.0399 -0.0169  0.8116
  171MOL0     C23016   3.640   9.486   8.176  0.1873  0.3866  0.0923
  171MOL0     C23017   3.506   9.469   8.146  0.2301 -0.3521 -0.0531
  171MOL0     H23018   3.041   9.425   8.256 -2.1124  0.0391  0.9270
  171MOL0     H23019   2.812   9.414   8.220  0.0118 -0.9538  0.3958
  171MOL0     H23020   2.683   9.428   7.771 -2.8570  1.2465 -0.5239
  171MOL0     H23021   2.622   9.265   7.836  2.6491 -0.8777  2.2766
  171MOL0     H23022   2.472   9.524   7.794 -4.1048  0.8792  1.8595
  171MOL0     H23023   2.461   9.376   7.727 -0.4300  2.0730 -1.6571
  171MOL0     H23024   2.370   9.255   7.940 -0.9716  0.3364  1.1903
  171MOL0     H23025   2.433   9.384   8.030 -0.8112  0.3214  0.1039
  171MOL0     H23026   2.212   9.406   7.818 -0.0158  0.2078 -1.3254
  171MOL0     H23027   2.184   9.374   7.988 -0.9155  1.5006 -0.0892
  171MOL0     H23028   2.335   9.617   7.902 -0.9296  0.0261 -2.8579
  171MOL0     H23029   2.161   9.607   7.890  1.4624  1.4055 -0.9160
  171MOL0     H23030   2.125   9.550   8.127 -0.0503  0.7999  0.5241
  171MOL0     H23031   2.299   9.551   8.145  2.3954 -0.1159 -3.1220
  171MOL0     H23032   2.260   9.725   8.238  2.8021  1.9529 -0.5531
  171MOL0     H23033   2.306   9.790   8.084 -0.4809 -1.2640 -2.0163
  171MOL0     H23034   2.016   9.766   8.174 -0.0410 -1.8282 -0.5319
  171MOL0     H23035   2.079   9.847   8.028 -0.6466  2.1590  0.3114
  171MOL0     H23036   2.153  10.110   8.089 -0.2581  1.2126  0.5230
  171MOL0     H23037   2.062  10.325   8.324 -0.4439 -0.4388 -2.5189
  171MOL0     H23038   2.216  10.300   8.407 -0.4573  0.8892 -0.1487
  171MOL0     H23039   2.240  10.460   8.225 -0.0836 -0.9093  0.9214
  171MOL0     H23040   2.200  10.335   8.098  0.1735 -1.4225 -0.8566
  171MOL0     H23041   2.404  10.216   8.179  2.8000 -0.0214  2.8105
  171MOL0     H23042   2.443  10.346   8.277  1.2926 -1.5168 -1.2585
  171MOL0     H23043   2.434  10.498   8.058 -0.5103 -0.0419 -1.1144
  171MOL0     H23044   2.431  10.359   7.958  0.0103  0.2351 -1.3323
  171MOL0     H23045   2.551  10.561   7.869 -0.6852 -1.1509  0.8059
  171MOL0     H23046   2.759  10.845   7.792 -0.0074  0.2852  0.2613
  171MOL0     H23047   2.728  10.713   7.663  4.1075  1.0670  0.1069
  171MOL0     H23048   2.599  10.761   7.772  0.2346 -2.7912 -1.9160
  171MOL0     H23049   3.019  11.005   7.773  1.2701  1.8899  1.1494
  171MOL0     H23050   3.187  11.162   7.682 -1.7397  0.2874 -0.1471
  171MOL0     H23051   3.484  11.006   7.364 -1.3654 -2.1554 -2.1053
  171MOL0     H23052   3.320  11.032   7.301 -1.8339  2.9503 -0.5497
  171MOL0     H23053   3.499  11.265   7.359 -0.9200  1.5809 -0.3199
  171MOL0     H23054   3.498  11.194   7.197 -2.7105  0.4819 -0.5632
  171MOL0     H23055   3.334  11.386   7.216 -4.4085  1.3210  0.2450
  171MOL0     H23056   3.255  11.297   7.340 -0.2678 -0.2919  0.3464
  171MOL0     H23057   3.245  11.263   7.042  1.4075  1.6627  2.0649
  171MOL0     H23058   3.246  11.121   7.127  0.4943  0.2553  2.1418
  171MOL0     H23059   3.020  11.218   7.063 -1.3942 -3.9086  1.4728
  171MOL0     H23060   3.039  11.346   7.186 -0.4336 -0.9320  2.1217
  171MOL0     H23061   3.053  11.048   7.251 -0.5474  0.0749 -1.4902
  171MOL0     H23062   3.047  11.179   7.359  1.9006 -1.8222 -0.4164
  171MOL0     H23063   2.823  11.135   7.158 -0.5937  1.2733 -0.1095
  171MOL0     H23064   2.812  11.220   7.313 -0.1109 -1.8246  0.8663
  171MOL0     H23065   2.861  10.928   7.298  1.3360  0.4885  1.9047
  171MOL0     H23066   2.705  10.990   7.296  1.1281 -0.8168  0.7381
  171MOL0     H23067   3.300  10.824   7.415 -1.1093 -1.5946  0.6647
  171MOL0     H23068   3.154  10.690   7.529  0.1944  0.2256  0.9649
  171MOL0     H23069   3.021  10.497   8.013 -0.8542  1.8694  0.9506
  171MOL0     H23070   2.839  10.396   8.129 -2.6776  0.1962  1.1121
  171MOL0     H23071   2.890   9.347   7.792 -1.6927  1.4463  0.0200
  171MOL0     H23072   3.119   9.352   7.838  0.2380  0.6853 -0.3297
  171MOL0     H23073   3.455   9.179   8.326  1.3160 -0.6665  1.3243
  171MOL0     H23074   3.685   9.238   8.407 -1.0192  0.2997 -0.3302
  171MOL0     H23075   4.013   9.320   8.304 -1.0160  2.1509  1.0257
  171MOL0     H23076   3.883   9.219   8.254  2.5272 -1.0967  1.6187
  171MOL0     H23077   3.879   9.350   8.025 -0.7994  1.4235  0.8012
  171MOL0     H23078   4.025   9.256   8.052 -0.7965 -0.5829  0.9422
  171MOL0     H23079   4.112   9.469   8.166 -2.1346  2.3584  1.9180
  171MOL0     H23080   3.985   9.560   8.076  1.9093  0.7398  2.8352
  171MOL0     H23081   4.134   9.586   7.910 -3.8951  0.0381 -2.1025
  171MOL0     H23082   4.106   9.409   7.874  1.6711 -0.1978  0.1629
  171MOL0     H23083   4.481   9.440   8.102  0.0716 -0.8584  0.7490
  171MOL0     H23084   3.682   9.573   8.126  0.8786  0.2421  0.4127
  171MOL0     H23085   3.460   9.545   8.084  0.9412 -0.4724 -0.7356
  172MOL0     O23086  10.363   5.760   8.849  0.2340 -0.0256  0.0226
  172MOL0     C23087  10.444   5.834   8.792  0.2848 -0.0585  0.1358
  172MOL0     O23088  10.411   5.942   8.730  0.4663 -0.1209 -0.0572
  172MOL0     C23089  10.286   5.979   8.703 -0.4349  0.3075  0.4247
  172MOL0     C23090  10.254   6.112   8.731  0.1122 -0.0269  0.5586
  172MOL0     C23091  10.124   6.157   8.713  0.5134 -0.7858  0.0028
  172MOL0     C23092  10.026   6.079   8.645 -0.3150  0.0794 -0.3518
  172MOL0     O23093   9.904   6.134   8.607  0.1043  0.0661 -0.7626
  172MOL0     C23094   9.821   6.063   8.516 -0.4605  0.1067  0.6088
  172MOL0     C23095   9.703   6.144   8.477  0.3138  0.8315 -0.1103
  172MOL0     C23096   9.622   6.210   8.590  0.1295 -0.1274  0.9697
  172MOL0     C23097   9.542   6.121   8.678 -0.1894  0.0255  0.1780
  172MOL0     C23098   9.390   6.139   8.681  0.6592  0.0150 -0.3376
  172MOL0     C23099   9.334   6.057   8.798 -0.0464 -0.3327 -0.7480
  172MOL0     C23100   9.178   6.044   8.786 -0.3011  0.4066 -0.1152
  172MOL0     C23101   9.097   6.016   8.913  0.8183  0.7500 -0.3742
  172MOL0     N23102   8.945   6.012   8.895 -0.2655 -0.2198  0.8285
  172MOL0     C23103   8.863   5.902   8.890 -0.9310  0.8911  0.7076
  172MOL0     C23104   8.740   5.936   8.920 -0.4447 -0.0995 -0.4181
  172MOL0     C23105   8.631   5.846   8.946 -0.0145 -0.8181  0.1878
  172MOL0     C23106   8.653   5.756   9.064  0.9758 -0.3674 -1.2036
  172MOL0     C23107   8.574   5.627   9.058  0.9054  0.1056  0.2504
  172MOL0     C23108   8.420   5.659   9.033 -0.0295  0.3499 -0.5880
  172MOL0     O23109   8.346   5.534   9.042 -0.9996 -0.7506  0.0512
  172MOL0     C23110   8.232   5.531   8.961 -0.0120  0.2347  0.4046
  172MOL0     C23111   8.167   5.634   8.881 -0.2915 -0.2153  1.3026
  172MOL0     C23112   8.051   5.607   8.803 -1.1635  1.0896  0.0200
  172MOL0     C23113   7.989   5.724   8.721 -0.7659  1.4098 -0.0411
  172MOL0     C23114   8.005   5.473   8.793  0.6184  0.2109 -0.4745
  172MOL0     C23115   7.877   5.442   8.718 -0.0428 -0.4420  0.1704
  172MOL0     O23116   7.889   5.456   8.581  0.5236  0.9989 -0.1864
  172MOL0     C23117   7.779   5.411   8.514  0.7051  0.4301  0.3424
  172MOL0     C23118   7.667   5.494   8.480  0.6976  0.2363  0.2999
  172MOL0     C23119   7.564   5.437   8.395 -0.6193 -0.6735 -0.9262
  172MOL0     C23120   7.573   5.313   8.341 -0.2759  0.0750  0.6840
  172MOL0     O23121   7.470   5.279   8.256 -0.3613  0.9288  0.8162
  172MOL0     C23122   7.475   5.155   8.185 -0.0314 -0.7527  0.3914
  172MOL0     C23123   7.363   5.152   8.080 -0.7361 -0.5811 -0.6549
  172MOL0     C23124   7.217   5.195   8.126 -0.2614  0.2318 -0.7552
  172MOL0     C23125   7.121   5.235   8.015  0.2003  0.3330  0.4933
  172MOL0     C23126   6.989   5.162   8.023  0.2917  0.3578  0.6716
  172MOL0     C23127   6.906   5.171   7.899  0.1577 -0.2087 -0.0467
  172MOL0     C23128   6.839   5.311   7.892  0.5427 -0.9990 -1.3636
  172MOL0     C23129   6.750   5.312   7.774  0.4707 -0.3723  0.4588
  172MOL0    Cl23130   6.636   5.178   7.790  0.3001  0.6847 -0.6010
  172MOL0     C23131   7.685   5.234   8.371 -0.9044  0.3439  0.2732
  172MOL0     C23132   7.775   5.278   8.470 -0.1391  0.4214  0.6022
  172MOL0     O23133   7.793   5.379   8.778  0.5000 -0.7376 -0.3347
  172MOL0     C23134   8.066   5.372   8.868  0.6494  0.5389  0.2454
  172MOL0     C23135   8.185   5.396   8.940  0.6203 -0.1518 -0.2625
  172MOL0     N23136   8.753   6.072   8.945  0.0119 -0.4158  0.1508
  172MOL0     N23137   8.865   6.123   8.915  0.5978 -0.1722 -0.1767
  172MOL0     C23138  10.061   5.947   8.626  0.2988  0.2844 -0.1304
  172MOL0     C23139  10.187   5.892   8.657  0.8030  0.6497  0.1436
  172MOL0     C23140  10.586   5.803   8.790 -0.3567  0.5739  0.1187
  172MOL0     C23141  10.633   5.683   8.837  0.6381  0.5426 -0.1003
  172MOL0     C23142  10.769   5.659   8.845 -0.2542  0.2074  0.1002
  172MOL0     C23143  10.861   5.755   8.816 -0.1586 -0.1135 -0.2194
  172MOL0     O23144  10.995   5.719   8.823 -0.4110  0.3302 -0.2118
  172MOL0     C23145  11.096   5.818   8.806  0.2133 -0.7354  0.4061
  172MOL0     C23146  11.144   5.828   8.657 -0.2143 -1.0343  0.2733
  172MOL0     C23147  11.219   5.700   8.617  0.6716 -0.0953 -0.5318
  172MOL0     C23148  11.269   5.713   8.479 -0.5848 -0.0225  0.5910
  172MOL0     C23149  11.339   5.590   8.436  0.0094 -0.5631 -0.6358
  172MOL0     C23150  11.392   5.490   8.394  0.0611  0.3870 -0.2585
  172MOL0     C23151  10.814   5.872   8.757 -0.0194 -0.6393 -0.7318
  172MOL0     C23152  10.679   5.898   8.744 -0.0367  0.6112 -0.2013
  172MOL0     H23153  10.337   6.173   8.766  1.1808  0.3772 -2.4550
  172MOL0     H23154  10.097   6.259   8.741  0.0753 -0.9552  0.2188
  172MOL0     H23155   9.884   6.044   8.429 -0.4853  2.5054 -0.0217
  172MOL0     H23156   9.774   5.973   8.557 -1.1145  0.2002  0.0883
  172MOL0     H23157   9.734   6.224   8.409 -0.3404  0.3492 -0.9973
  172MOL0     H23158   9.640   6.078   8.417  0.0628  0.2324  0.7996
  172MOL0     H23159   9.674   6.295   8.635 -1.7037  0.9475  1.1804
  172MOL0     H23160   9.545   6.262   8.531  2.5523  0.1160 -2.2461
  172MOL0     H23161   9.567   6.017   8.656  0.7218  0.2997 -0.1150
  172MOL0     H23162   9.581   6.142   8.778  1.0741  0.6337 -0.4202
  172MOL0     H23163   9.363   6.241   8.709  0.8868 -0.1035  0.3316
  172MOL0     H23164   9.352   6.110   8.583  1.1075  0.5644 -0.6802
  172MOL0     H23165   9.379   5.958   8.815 -0.6027 -0.0846  2.9860
  172MOL0     H23166   9.359   6.111   8.890  0.1844 -3.5816  1.2464
  172MOL0     H23167   9.136   6.134   8.739 -0.9547 -0.5721 -1.4447
  172MOL0     H23168   9.154   5.963   8.717 -0.9393 -1.6258  2.3424
  172MOL0     H23169   9.122   6.104   8.973 -1.8716  1.5798 -0.3322
  172MOL0     H23170   9.127   5.927   8.970  0.1133  1.7702  1.6748
  172MOL0     H23171   8.905   5.804   8.867 -3.0237 -0.5061  2.4917
  172MOL0     H23172   8.551   5.918   8.959  0.8557  0.1551  0.3111
  172MOL0     H23173   8.603   5.793   8.854 -2.9257  0.0941  0.4684
  172MOL0     H23174   8.637   5.816   9.154 -0.0216 -0.0729 -1.5642
  172MOL0     H23175   8.755   5.718   9.074  1.7665  1.6454 -1.1124
  172MOL0     H23176   8.580   5.576   9.155 -1.1925  0.4712  0.6113
  172MOL0     H23177   8.613   5.565   8.977  0.3522 -0.5883  0.5099
  172MOL0     H23178   8.398   5.697   8.933 -1.6388 -0.1718 -0.4715
  172MOL0     H23179   8.375   5.731   9.102 -0.6393  1.4654 -2.0881
  172MOL0     H23180   8.199   5.738   8.878 -0.1651 -0.2666 -1.0021
  172MOL0     H23181   7.884   5.704   8.694 -0.7013  0.3018  0.4701
  172MOL0     H23182   8.012   5.818   8.771  0.9227  0.7361  0.5196
  172MOL0     H23183   8.037   5.732   8.623  1.7296  2.0499  1.1681
  172MOL0     H23184   7.657   5.595   8.519 -0.3630 -0.0503  0.8203
  172MOL0     H23185   7.474   5.496   8.381 -1.2593 -1.6614 -1.0487
  172MOL0     H23186   7.569   5.143   8.130 -0.0069 -2.0425  0.6887
  172MOL0     H23187   7.453   5.070   8.251 -1.2223 -0.7487  0.0272
  172MOL0     H23188   7.405   5.209   7.996  0.2275  0.2750  0.3827
  172MOL0     H23189   7.357   5.048   8.044 -4.5327 -1.5336  2.1112
  172MOL0     H23190   7.233   5.283   8.190 -0.5271  1.1568 -1.9188
  172MOL0     H23191   7.167   5.114   8.179  0.3096 -0.2458 -0.9375
  172MOL0     H23192   7.122   5.342   7.993  0.3421  0.0162 -1.2338
  172MOL0     H23193   7.165   5.184   7.928  0.6139 -1.1481  1.5314
  172MOL0     H23194   6.927   5.197   8.106  0.9550 -0.9891  1.7743
  172MOL0     H23195   7.013   5.057   8.044 -1.8694 -0.4552 -0.6010
  172MOL0     H23196   6.963   5.160   7.806  4.4557  2.9484  1.8746
  172MOL0     H23197   6.833   5.094   7.926 -0.3989  0.7141  1.2205
  172MOL0     H23198   6.915   5.389   7.899  1.3055 -1.8557  0.8412
  172MOL0     H23199   6.764   5.332   7.969  3.7866  2.0725  1.3452
  172MOL0     H23200   6.819   5.306   7.689 -0.6123 -0.7735 -0.4158
  172MOL0     H23201   6.701   5.408   7.758  0.5484 -0.3153  0.5596
  172MOL0     H23202   7.728   5.153   8.313 -0.8335  1.4849 -1.3426
  172MOL0     H23203   7.862   5.215   8.489 -0.7967  0.2733  3.5885
  172MOL0     H23204   8.028   5.272   8.853 -0.8912  1.2879 -1.1441
  172MOL0     H23205   8.242   5.317   8.989 -1.6042  0.8683  4.5754
  172MOL0     H23206   9.987   5.869   8.608  1.5579 -1.5241  2.0653
  172MOL0     H23207  10.205   5.785   8.653 -1.2871  0.2941 -1.8298
  172MOL0     H23208  10.570   5.599   8.864 -1.3953  1.2910 -2.2528
  172MOL0     H23209  10.803   5.559   8.867  1.1612  0.2971 -1.4786
  172MOL0     H23210  11.060   5.917   8.837  0.8912  0.2980 -1.8826
  172MOL0     H23211  11.176   5.789   8.875  0.6117 -1.6407 -0.4148
  172MOL0     H23212  11.213   5.912   8.641 -3.3295  1.4366 -1.2656
  172MOL0     H23213  11.051   5.842   8.600  0.6143 -1.5893 -1.2940
  172MOL0     H23214  11.147   5.618   8.616 -0.1185  0.5370 -3.4346
  172MOL0     H23215  11.308   5.682   8.678  1.0526  3.0289 -0.0006
  172MOL0     H23216  11.337   5.799   8.468 -2.1325  1.4406  1.8114
  172MOL0     H23217  11.185   5.718   8.410  0.0280 -1.2025 -0.2790
  172MOL0     H23218  11.436   5.399   8.359  0.0221 -0.2381  1.2762
  172MOL0     H23219  10.882   5.947   8.718  1.6908  0.3444  3.6047
  172MOL0     H23220  10.645   5.992   8.701 -1.3278  0.7526  1.0550
  173MOL0     O23221   6.881   7.289   2.476  0.6808 -0.4724 -0.5952
  173MOL0     C23222   6.912   7.409   2.488 -0.7039  0.2430 -0.1700
  173MOL0     O23223   6.826   7.511   2.504 -0.5908 -0.6090  0.0668
  173MOL0     C23224   6.690   7.509   2.475 -0.2200  0.3838  0.3246
  173MOL0     C23225   6.629   7.421   2.384 -0.2808  0.9751  0.5639
  173MOL0     C23226   6.489   7.427   2.364 -0.0046  0.9065 -0.4013
  173MOL0     C23227   6.405   7.520   2.433  0.3480  0.1392 -0.5541
  173MOL0     O23228   6.272   7.514   2.407  0.2189 -0.1282  0.4329
  173MOL0     C23229   6.192   7.617   2.466 -0.4800  0.4703 -0.3294
  173MOL0     C23230   6.045   7.579   2.451 -0.3847 -0.3208  0.0568
  173MOL0     C23231   5.948   7.689   2.500  0.3726  0.7896 -0.2646
  173MOL0     C23232   5.805   7.631   2.506  0.1922 -1.0291 -0.6606
  173MOL0     C23233   5.699   7.718   2.572  0.2162 -0.0675  0.7806
  173MOL0     C23234   5.560   7.689   2.527  1.3286 -0.7047  0.4215
  173MOL0     C23235   5.463   7.777   2.588 -0.3480  0.2070 -0.4670
  173MOL0     C23236   5.415   7.750   2.733  0.6325 -0.6161  0.6495
  173MOL0     N23237   5.287   7.680   2.742 -0.8912 -0.5355  0.0575
  173MOL0     C23238   5.269   7.554   2.784 -0.4066  0.5564  0.1973
  173MOL0     C23239   5.135   7.534   2.802 -0.5235 -0.9153  0.3617
  173MOL0     C23240   5.058   7.418   2.867  0.8612 -0.2070 -0.1196
  173MOL0     C23241   4.904   7.432   2.849  0.0851 -0.6694 -0.1045
  173MOL0     C23242   4.832   7.335   2.936  0.3854 -0.4526 -0.4768
  173MOL0     C23243   4.683   7.315   2.897 -0.9075 -0.4836 -0.8049
  173MOL0     O23244   4.598   7.402   2.972  0.4026  0.1196  0.3534
  173MOL0     C23245   4.466   7.370   2.946 -0.4003  0.0613  0.4496
  173MOL0     C23246   4.407   7.418   2.828  0.1800 -0.4225 -0.4922
  173MOL0     C23247   4.274   7.397   2.802  0.3434 -0.4000 -0.3262
  173MOL0     C23248   4.222   7.458   2.675  0.5700 -0.5069  0.4120
  173MOL0     C23249   4.191   7.330   2.901 -0.2881 -0.2614 -0.1984
  173MOL0     C23250   4.045   7.302   2.883 -0.3893 -0.6405  0.6567
  173MOL0     O23251   3.968   7.334   2.994 -0.0694 -0.5145 -0.0461
  173MOL0     C23252   3.834   7.339   2.975 -0.2334  0.7381  0.0276
  173MOL0     C23253   3.755   7.261   3.069 -0.3242  0.4997 -0.1524
  173MOL0     C23254   3.618   7.254   3.043  0.0005 -0.2457  0.3963
  173MOL0     C23255   3.555   7.328   2.941  0.2161  0.8072 -0.6287
  173MOL0     O23256   3.416   7.326   2.926 -0.1135 -0.0812  0.4248
  173MOL0     C23257   3.363   7.433   2.840  1.0133 -0.5639 -0.5733
  173MOL0     C23258   3.210   7.436   2.877  0.3170 -0.7462  0.4707
  173MOL0     C23259   3.126   7.325   2.808  0.2119  0.0941  0.5834
  173MOL0     C23260   2.972   7.339   2.842  0.5136 -0.0420  0.0162
  173MOL0     C23261   2.906   7.469   2.778 -0.4829 -0.4792  0.2055
  173MOL0     C23262   2.758   7.478   2.818  0.1840  0.0636  0.5827
  173MOL0     C23263   2.690   7.589   2.744  0.1191  0.2013 -0.2633
  173MOL0     C23264   2.751   7.725   2.775  0.2080 -0.7718 -0.0830
  173MOL0    Cl23265   2.649   7.857   2.703 -0.4735  0.1756  0.3608
  173MOL0     C23266   3.641   7.407   2.863  0.4640  0.2072 -0.2487
  173MOL0     C23267   3.774   7.414   2.881 -0.2305  0.8786 -0.0746
  173MOL0     O23268   4.006   7.239   2.781 -0.5303  0.3660  0.2975
  173MOL0     C23269   4.258   7.286   3.019 -0.3480  0.3180  0.2116
  173MOL0     C23270   4.389   7.316   3.045 -0.7127  0.0248  0.2465
  173MOL0     N23271   5.076   7.652   2.764  0.8232 -0.3709  0.1216
  173MOL0     N23272   5.162   7.737   2.726  0.3704  0.8666 -0.0123
  173MOL0     C23273   6.471   7.610   2.520  0.3795 -0.1041  0.2770
  173MOL0     C23274   6.608   7.605   2.535 -0.9396 -0.6898  0.0632
  173MOL0     C23275   7.062   7.441   2.485 -0.0970  0.7825  0.1456
  173MOL0     C23276   7.099   7.562   2.554 -0.3547 -0.0328  0.3831
  173MOL0     C23277   7.236   7.605   2.543  0.4814  0.5427  0.0499
  173MOL0     C23278   7.335   7.510   2.508 -1.0679  0.4221  0.1613
  173MOL0     O23279   7.474   7.520   2.513  0.1797  0.1680 -0.2594
  173MOL0     C23280   7.528   7.647   2.550 -0.5306 -0.6410 -0.3517
  173MOL0     C23281   7.507   7.746   2.434  0.2168 -0.3468  0.9367
  173MOL0     C23282   7.633   7.729   2.335 -0.1053  0.5528  0.1972
  173MOL0     C23283   7.631   7.835   2.228 -0.1176  0.0607 -0.1734
  173MOL0     C23284   7.753   7.847   2.143 -0.3346  0.2944 -0.1832
  173MOL0     C23285   7.842   7.855   2.065 -0.1788  0.8309 -0.3484
  173MOL0     C23286   7.287   7.388   2.451 -0.4687  0.3382 -0.1844
  173MOL0     C23287   7.154   7.356   2.427  1.2133  0.1047 -0.5190
  173MOL0     H23288   6.682   7.341   2.333 -1.9344  0.4176 -0.3393
  173MOL0     H23289   6.446   7.348   2.303 -0.3269  1.0929 -0.4178
  173MOL0     H23290   6.206   7.626   2.574  1.0235 -1.2105 -0.3308
  173MOL0     H23291   6.211   7.717   2.426 -1.3398  0.9177  0.3521
  173MOL0     H23292   6.031   7.555   2.346 -0.7311  1.2021 -0.2794
  173MOL0     H23293   6.035   7.492   2.517 -0.7682  0.5752  1.2272
  173MOL0     H23294   5.965   7.723   2.602 -0.6425  4.4964 -1.1818
  173MOL0     H23295   5.962   7.776   2.434 -1.4660  0.9608 -0.4723
  173MOL0     H23296   5.782   7.614   2.400  0.8729  2.7939 -1.5829
  173MOL0     H23297   5.808   7.531   2.551 -0.0052 -1.0209 -0.6280
  173MOL0     H23298   5.706   7.715   2.681 -0.6682 -1.9329  0.8225
  173MOL0     H23299   5.724   7.822   2.548 -1.0394  0.8134  2.9087
  173MOL0     H23300   5.554   7.711   2.419  0.3197  0.4960  0.6955
  173MOL0     H23301   5.523   7.587   2.540 -0.7466 -0.5091 -2.7463
  173MOL0     H23302   5.497   7.879   2.606 -2.0383  0.2184  4.0095
  173MOL0     H23303   5.370   7.785   2.531 -0.5561  0.6577 -0.0748
  173MOL0     H23304   5.398   7.839   2.794  1.3134 -0.6136  0.8443
  173MOL0     H23305   5.494   7.698   2.789 -0.7286  0.0762  3.3600
  173MOL0     H23306   5.344   7.482   2.814  0.8649  1.6045 -0.4144
  173MOL0     H23307   5.098   7.337   2.805 -0.1696  0.2424 -1.4287
  173MOL0     H23308   5.096   7.406   2.969 -0.9022  1.3868  0.7959
  173MOL0     H23309   4.881   7.411   2.744 -1.0764  0.8576 -0.1868
  173MOL0     H23310   4.867   7.534   2.865 -0.7947 -1.0217  0.1427
  173MOL0     H23311   4.847   7.370   3.038  0.0568 -3.1293  0.5692
  173MOL0     H23312   4.879   7.237   2.921  0.4040 -0.8840  2.0524
  173MOL0     H23313   4.660   7.211   2.922 -2.3574 -0.4378 -1.8977
  173MOL0     H23314   4.661   7.326   2.791 -2.6145  0.9606 -0.3510
  173MOL0     H23315   4.464   7.481   2.761 -0.5323  0.4196 -0.3211
  173MOL0     H23316   4.274   7.404   2.595  0.7603  0.2432  0.0150
  173MOL0     H23317   4.114   7.469   2.667  0.8123  0.7078 -5.2113
  173MOL0     H23318   4.264   7.559   2.668  0.6113 -0.4250  1.5863
  173MOL0     H23319   3.800   7.206   3.151  1.1372 -0.2321 -1.4003
  173MOL0     H23320   3.545   7.191   3.093 -2.5020  3.8364  2.3985
  173MOL0     H23321   3.406   7.533   2.855  3.0524 -1.6662  1.5347
  173MOL0     H23322   3.360   7.418   2.732 -0.8196  0.1871 -0.6694
  173MOL0     H23323   3.204   7.424   2.986  0.8995 -3.0256  0.2822
  173MOL0     H23324   3.167   7.532   2.847  1.8147  0.0381  0.7279
  173MOL0     H23325   3.163   7.223   2.821 -0.9602 -0.5045 -0.5505
  173MOL0     H23326   3.151   7.336   2.702  0.0171  2.2771  0.7200
  173MOL0     H23327   2.915   7.248   2.819 -2.0857  0.9964  1.9060
  173MOL0     H23328   2.966   7.351   2.950  1.0425  1.3064 -0.0883
  173MOL0     H23329   2.936   7.470   2.672 -0.2739 -0.2086  0.2647
  173MOL0     H23330   2.968   7.547   2.823  0.2733 -1.6238  1.2001
  173MOL0     H23331   2.718   7.384   2.777 -0.7106  1.5255 -2.1210
  173MOL0     H23332   2.747   7.469   2.927  1.8202 -2.0691  0.6442
  173MOL0     H23333   2.589   7.592   2.785  0.5475  0.4850  0.8252
  173MOL0     H23334   2.694   7.567   2.637 -0.5685 -3.3211  0.3176
  173MOL0     H23335   2.859   7.727   2.760  0.3582  0.5250  0.9897
  173MOL0     H23336   2.729   7.738   2.882  0.1573 -0.8226 -0.0866
  173MOL0     H23337   3.603   7.467   2.781  0.3390 -0.8026 -0.9413
  173MOL0     H23338   3.838   7.473   2.818  0.3043  0.5556  0.1631
  173MOL0     H23339   4.207   7.217   3.085  1.4153 -2.2818 -0.9563
  173MOL0     H23340   4.440   7.283   3.135 -0.6368 -0.1576  0.1376
  173MOL0     H23341   6.421   7.691   2.572 -0.7726 -2.0920  2.4512
  173MOL0     H23342   6.658   7.686   2.587 -0.0900  0.1748 -1.9931
  173MOL0     H23343   7.030   7.623   2.611  0.2391 -0.0013  1.0779
  173MOL0     H23344   7.257   7.704   2.583 -1.5529  1.7271 -1.5949
  173MOL0     H23345   7.473   7.682   2.638 -0.9013 -3.8133  0.8437
  173MOL0     H23346   7.632   7.632   2.581 -1.2451  0.4167  2.9715
  173MOL0     H23347   7.491   7.847   2.473  0.8577 -0.3020  1.1042
  173MOL0     H23348   7.417   7.727   2.375  1.1688  3.5289 -2.1589
  173MOL0     H23349   7.622   7.635   2.280 -1.1397  0.1482  1.0800
  173MOL0     H23350   7.733   7.737   2.378  0.1809  0.6752 -0.4742
  173MOL0     H23351   7.614   7.932   2.275 -2.3639  0.6078 -1.9195
  173MOL0     H23352   7.542   7.820   2.167 -0.5694  2.3854 -0.1806
  173MOL0     H23353   7.926   7.847   1.999 -0.3929 -2.9717 -0.3797
  173MOL0     H23354   7.358   7.312   2.421 -1.2536 -0.7901  0.7434
  173MOL0     H23355   7.134   7.260   2.379  1.9475 -0.5572  0.4540
  174MOL0     O23356  10.835   6.983   0.137 -0.7771 -0.6727 -0.4621
  174MOL0     C23357  10.744   6.965   0.058 -0.2178 -0.2146  0.9875
  174MOL0     O23358  10.614   7.001   0.077 -0.2298  0.5004  0.0346
  174MOL0     C23359  10.566   7.071   0.188  0.5465 -0.2404  1.2507
  174MOL0     C23360  10.447   7.147   0.163  0.4091 -0.5194 -0.2775
  174MOL0     C23361  10.379   7.235   0.255 -0.8141  0.7301  0.1933
  174MOL0     C23362  10.431   7.242   0.382  0.1005 -0.1890  0.4298
  174MOL0     O23363  10.372   7.330   0.460  0.1102  0.4117 -0.0205
  174MOL0     C23364  10.395   7.313   0.605  0.8343 -0.0601  0.2692
  174MOL0     C23365  10.310   7.419   0.677 -0.4844  0.4912 -0.0394
  174MOL0     C23366  10.162   7.416   0.633 -1.2356 -0.0557 -0.2943
  174MOL0     C23367  10.068   7.500   0.736 -0.1176 -0.6421  0.3760
  174MOL0     C23368  10.095   7.651   0.740  0.2205 -0.6655  0.3375
  174MOL0     C23369  10.055   7.741   0.628  1.2859  0.2859  0.5741
  174MOL0     C23370   9.905   7.759   0.612 -1.0813  0.2844 -0.2981
  174MOL0     C23371   9.867   7.848   0.503 -1.0987 -0.7552  0.6688
  174MOL0     N23372   9.720   7.868   0.479  0.2613  0.1902  0.1286
  174MOL0     C23373   9.661   7.984   0.445  0.4098  0.0724 -0.4426
  174MOL0     C23374   9.528   7.952   0.452 -0.1243 -1.1034  0.0043
  174MOL0     C23375   9.412   8.034   0.430  0.4766  0.7045 -0.4055
  174MOL0     C23376   9.321   7.983   0.322 -0.2158 -0.7516  0.9801
  174MOL0     C23377   9.217   8.094   0.275  0.2745 -0.0702 -0.2122
  174MOL0     C23378   9.104   8.029   0.194 -0.4696  0.1279  0.2776
  174MOL0     O23379   8.998   8.116   0.162 -0.2960  0.2613 -0.1354
  174MOL0     C23380   8.893   8.068   0.080  0.3073  0.2537 -0.0419
  174MOL0     C23381   8.786   8.156   0.063 -0.0286  0.5447  0.2454
  174MOL0     C23382   8.676   8.127  -0.015  0.4944 -0.1413 -0.4307
  174MOL0     C23383   8.575   8.230  -0.027 -0.0211  0.2670  0.3182
  174MOL0     C23384   8.665   7.995  -0.076 -0.4158 -0.5645  0.3171
  174MOL0     C23385   8.549   7.952  -0.168 -0.2573  0.2951  0.1607
  174MOL0     O23386   8.437   8.017  -0.169 -0.3289 -0.0407 -0.5977
  174MOL0     C23387   8.332   8.006  -0.255 -0.0573  0.3906  1.3826
  174MOL0     C23388   8.214   8.075  -0.229  0.7518  0.1618 -0.1176
  174MOL0     C23389   8.097   8.061  -0.308 -0.5126  0.3191  0.2115
  174MOL0     C23390   8.100   7.983  -0.422  0.2358  0.8104  0.7679
  174MOL0     O23391   7.993   7.967  -0.510  0.0079 -0.3610  0.2086
  174MOL0     C23392   7.859   8.014  -0.491 -0.2080  0.0978  0.1439
  174MOL0     C23393   7.754   7.944  -0.580  0.4338 -0.3495 -0.6008
  174MOL0     C23394   7.758   7.791  -0.567  0.7128 -0.5090  0.6065
  174MOL0     C23395   7.704   7.724  -0.437  0.0140 -0.4618  0.0242
  174MOL0     C23396   7.746   7.573  -0.430  0.7979 -0.7267  0.3714
  174MOL0     C23397   7.892   7.564  -0.398 -0.0327  0.1707  0.1507
  174MOL0     C23398   7.926   7.425  -0.345  0.4801  0.3908 -0.3407
  174MOL0     C23399   7.900   7.402  -0.198  0.7750 -0.3493 -0.3115
  174MOL0    Cl23400   7.987   7.261  -0.115  0.4325  0.2688 -0.0709
  174MOL0     C23401   8.216   7.921  -0.450 -0.2095 -0.0633 -0.6022
  174MOL0     C23402   8.334   7.935  -0.373 -0.2757  0.1404 -1.0130
  174MOL0     O23403   8.581   7.858  -0.240 -0.3106 -0.2181 -0.2178
  174MOL0     C23404   8.771   7.901  -0.057 -0.4529 -0.2894 -0.9826
  174MOL0     C23405   8.885   7.937   0.011  0.3622 -0.0895  0.0277
  174MOL0     N23406   9.513   7.828   0.494  0.5903  0.4875  0.0541
  174MOL0     N23407   9.628   7.767   0.503 -0.0159 -0.2730 -0.5400
  174MOL0     C23408  10.541   7.153   0.424 -0.7883 -0.2143  0.2261
  174MOL0     C23409  10.609   7.071   0.323  0.5915 -0.6293 -0.5172
  174MOL0     C23410  10.774   6.885  -0.063 -0.3903  0.8793  0.7034
  174MOL0     C23411  10.675   6.840  -0.150  0.1753 -1.1505 -0.1998
  174MOL0     C23412  10.700   6.776  -0.274  0.0312 -0.6368 -0.3394
  174MOL0     C23413  10.836   6.747  -0.310  0.4942  0.2492  0.0063
  174MOL0     O23414  10.876   6.660  -0.410 -0.2163 -0.0481  0.1343
  174MOL0     C23415  10.784   6.564  -0.469  0.3154  0.4889  0.3159
  174MOL0     C23416  10.711   6.620  -0.593  0.5796  0.1722 -0.5219
  174MOL0     C23417  10.588   6.527  -0.617  1.1709 -0.1105 -0.4292
  174MOL0     C23418  10.515   6.554  -0.756 -0.4766 -0.0071  0.4572
  174MOL0     C23419  10.417   6.452  -0.781  1.1584  0.9810 -0.8440
  174MOL0     C23420  10.325   6.380  -0.815  0.3634  0.3990  0.5743
  174MOL0     C23421  10.933   6.783  -0.221  0.1376 -0.0896  0.8319
  174MOL0     C23422  10.912   6.853  -0.100  0.2509 -0.4252 -0.8550
  174MOL0     H23423  10.398   7.121   0.070  0.1483 -1.5759  0.1434
  174MOL0     H23424  10.282   7.268   0.218 -1.6577 -0.5716  1.1647
  174MOL0     H23425  10.371   7.213   0.643 -1.6829 -0.4169 -2.0153
  174MOL0     H23426  10.496   7.341   0.635  0.2063 -1.5597  4.4844
  174MOL0     H23427  10.317   7.406   0.786  0.3975 -1.9076 -0.3156
  174MOL0     H23428  10.356   7.512   0.643 -0.4658 -0.2126 -2.0519
  174MOL0     H23429  10.144   7.460   0.534 -0.5026 -1.0502 -0.8864
  174MOL0     H23430  10.129   7.312   0.635 -2.5552  0.2874  3.1812
  174MOL0     H23431   9.962   7.486   0.710 -0.1173 -0.1020  0.0592
  174MOL0     H23432  10.084   7.462   0.837  1.3582  1.3542  0.9456
  174MOL0     H23433  10.043   7.684   0.830  2.9420  2.1970  1.0253
  174MOL0     H23434  10.200   7.679   0.754  0.2640  0.8145 -2.2832
  174MOL0     H23435  10.108   7.837   0.635 -0.5287  1.5743 -1.7575
  174MOL0     H23436  10.095   7.696   0.537  1.2684  1.1618  0.1256
  174MOL0     H23437   9.854   7.663   0.600 -1.1460  0.0829  1.3463
  174MOL0     H23438   9.862   7.799   0.705  1.8869 -0.1506  1.4114
  174MOL0     H23439   9.912   7.815   0.409 -2.4235 -2.3634  0.5488
  174MOL0     H23440   9.912   7.944   0.530 -0.6922 -0.6165 -0.4462
  174MOL0     H23441   9.713   8.079   0.436  0.3453  0.0039 -1.6185
  174MOL0     H23442   9.363   8.025   0.528 -1.1975 -1.6612 -1.3579
  174MOL0     H23443   9.445   8.138   0.422  1.2011  0.6959  1.7927
  174MOL0     H23444   9.275   7.889   0.353 -2.2162 -0.4381 -0.8752
  174MOL0     H23445   9.384   7.966   0.234  0.6685  0.1455  1.4104
  174MOL0     H23446   9.266   8.165   0.209 -1.5865 -0.7905 -2.5071
  174MOL0     H23447   9.181   8.146   0.364  0.6151 -2.8773  1.7115
  174MOL0     H23448   9.055   7.965   0.268 -1.5692  0.2056 -0.3519
  174MOL0     H23449   9.147   7.979   0.107 -1.3520 -3.6915  1.8427
  174MOL0     H23450   8.794   8.255   0.109 -1.8075  0.3755  0.9899
  174MOL0     H23451   8.482   8.196   0.018  0.2919  0.2002  0.9169
  174MOL0     H23452   8.602   8.320   0.028 -1.9116 -0.7388  3.0778
  174MOL0     H23453   8.560   8.253  -0.133 -2.6338 -2.3310 -0.0062
  174MOL0     H23454   8.215   8.142  -0.144  2.4431  0.1780 -0.1278
  174MOL0     H23455   8.013   8.115  -0.265  0.8304  2.6629  0.0762
  174MOL0     H23456   7.836   8.001  -0.385  1.0853 -2.9073  0.1710
  174MOL0     H23457   7.856   8.122  -0.509  4.3458  0.3118 -0.6486
  174MOL0     H23458   7.655   7.985  -0.557  0.9196 -1.0945  3.6692
  174MOL0     H23459   7.777   7.971  -0.683  0.9166  1.7891  0.0190
  174MOL0     H23460   7.863   7.761  -0.572  0.2529 -2.0023 -1.2886
  174MOL0     H23461   7.706   7.753  -0.655  2.5649  1.9172 -1.7228
  174MOL0     H23462   7.749   7.780  -0.355  0.5558 -0.2434 -0.4124
  174MOL0     H23463   7.595   7.732  -0.441  0.0759 -0.0988 -2.2115
  174MOL0     H23464   7.728   7.514  -0.520 -0.6031  2.5222 -1.6493
  174MOL0     H23465   7.680   7.529  -0.354 -0.4005  0.3018 -0.0423
  174MOL0     H23466   7.954   7.573  -0.487  0.4698 -2.9694  0.0695
  174MOL0     H23467   7.925   7.644  -0.331  0.1089  2.4030 -2.3990
  174MOL0     H23468   8.034   7.415  -0.356  0.5054  0.2073  0.0416
  174MOL0     H23469   7.879   7.346  -0.404 -0.4800  1.0744 -0.5163
  174MOL0     H23470   7.793   7.388  -0.180  0.5068  1.0063 -0.7218
  174MOL0     H23471   7.931   7.486  -0.135  0.5425 -1.4486  1.3148
  174MOL0     H23472   8.213   7.858  -0.538  2.8579 -0.6154 -0.4236
  174MOL0     H23473   8.415   7.868  -0.399 -0.8726 -1.9280  1.9478
  174MOL0     H23474   8.768   7.799  -0.094  1.6215 -1.1663  1.0087
  174MOL0     H23475   8.965   7.864   0.018 -0.1431 -0.7465 -0.8333
  174MOL0     H23476  10.600   7.155   0.514  0.9510 -1.7953 -0.8254
  174MOL0     H23477  10.691   7.007   0.355  1.9648  0.4233 -1.7970
  174MOL0     H23478  10.572   6.848  -0.120 -0.0686 -1.0773 -1.0210
  174MOL0     H23479  10.626   6.747  -0.348  0.9527 -0.1384 -1.4981
  174MOL0     H23480  10.842   6.479  -0.506  0.6069  0.9927 -0.4123
  174MOL0     H23481  10.717   6.521  -0.393 -1.7836  1.9656 -0.5987
  174MOL0     H23482  10.791   6.621  -0.667  1.3153  3.0967  0.2108
  174MOL0     H23483  10.678   6.723  -0.575 -0.0178 -0.2706  1.1643
  174MOL0     H23484  10.514   6.532  -0.537  0.7231  1.0576 -0.8973
  174MOL0     H23485  10.625   6.424  -0.609 -0.2153 -0.5910  0.1286
  174MOL0     H23486  10.601   6.554  -0.823  1.8081 -1.0816  3.2392
  174MOL0     H23487  10.464   6.650  -0.764 -0.9136 -0.2746 -0.1185
  174MOL0     H23488  10.245   6.317  -0.847  0.9083 -0.7990  1.4545
  174MOL0     H23489  11.031   6.748  -0.251  0.3421  0.4872  0.8059
  174MOL0     H23490  10.985   6.875  -0.023  1.1736 -1.0079 -1.5425
  175MOL0     O23491   4.827   8.436   9.173 -0.3376 -0.2146  0.3589
  175MOL0     C23492   4.893   8.529   9.136  0.1986 -0.0499 -0.4495
  175MOL0     O23493   4.859   8.659   9.144  0.3363  0.1634  0.5776
  175MOL0     C23494   4.737   8.700   9.196 -0.2889 -0.1944 -0.0198
  175MOL0     C23495   4.728   8.833   9.219 -0.6074 -0.8333  0.1588
  175MOL0     C23496   4.606   8.905   9.252 -0.4305 -0.7933 -0.3761
  175MOL0     C23497   4.491   8.837   9.266  0.2707  0.6541 -0.4647
  175MOL0     O23498   4.370   8.883   9.318 -0.3772 -0.1056  0.2328
  175MOL0     C23499   4.392   8.959   9.432  0.3345  0.4129 -0.3602
  175MOL0     C23500   4.256   9.035   9.453 -0.4161  0.6839  0.0711
  175MOL0     C23501   4.139   8.951   9.496 -0.1450 -0.1476 -0.3736
  175MOL0     C23502   4.035   9.053   9.541  0.2458  0.0572  0.4829
  175MOL0     C23503   3.909   8.991   9.608  0.2543  0.8821  0.1056
  175MOL0     C23504   3.824   9.101   9.652  0.4552  0.2611 -0.1455
  175MOL0     C23505   3.717   9.029   9.732 -0.0696  0.9356 -0.1527
  175MOL0     C23506   3.588   9.105   9.741  0.3758  0.4785  0.0225
  175MOL0     N23507   3.499   9.020   9.820 -0.3568 -0.0371  0.3877
  175MOL0     C23508   3.516   8.978   9.952 -0.3048  0.0600  0.4286
  175MOL0     C23509   3.421   8.882   9.979  0.3970 -0.0221  0.8229
  175MOL0     C23510   3.432   8.795  10.101 -0.4039 -0.4737 -0.0155
  175MOL0     C23511   3.528   8.678  10.087 -0.0641  0.4627 -0.5739
  175MOL0     C23512   3.490   8.560   9.984  0.1506 -0.5763  0.0569
  175MOL0     C23513   3.591   8.452  10.006 -1.1064  0.6046  0.3181
  175MOL0     O23514   3.730   8.503   9.996  0.4498  0.2118  0.2758
  175MOL0     C23515   3.833   8.408  10.000 -0.6508 -0.0313 -0.3837
  175MOL0     C23516   3.822   8.273  10.044 -0.6788  0.2266 -0.3825
  175MOL0     C23517   3.934   8.182  10.046  0.3909  0.0082  0.3489
  175MOL0     C23518   3.908   8.036  10.087 -0.1013  0.5130  1.0489
  175MOL0     C23519   4.060   8.228  10.013  0.5614  1.1600 -0.3789
  175MOL0     C23520   4.181   8.147  10.004  0.7602  0.4760  0.8192
  175MOL0     O23521   4.307   8.201  10.020  0.4802  0.1675  1.2432
  175MOL0     C23522   4.406   8.140   9.948  0.7319  0.2315 -0.4389
  175MOL0     C23523   4.466   8.202   9.842  0.5414  0.3841  0.1553
  175MOL0     C23524   4.562   8.127   9.774  0.0050 -0.6075 -0.2703
  175MOL0     C23525   4.596   7.998   9.813 -0.6297 -0.8749  0.1924
  175MOL0     O23526   4.698   7.943   9.738 -0.4838 -0.1009 -0.0608
  175MOL0     C23527   4.788   7.846   9.787 -0.6157 -0.5066 -0.3399
  175MOL0     C23528   4.903   7.818   9.686  0.8602 -0.0981 -0.2815
  175MOL0     C23529   4.989   7.711   9.744 -0.4205  0.7110 -0.7792
  175MOL0     C23530   5.137   7.734   9.706 -0.7537 -0.5451 -0.0026
  175MOL0     C23531   5.225   7.617   9.770  0.5933 -0.3099  0.1428
  175MOL0     C23532   5.371   7.620   9.736  0.2869 -0.0635 -0.1764
  175MOL0     C23533   5.403   7.589   9.592 -0.3013 -0.1320  0.1795
  175MOL0     C23534   5.538   7.512   9.572  1.2157 -0.3182 -0.1635
  175MOL0    Cl23535   5.678   7.591   9.660  0.2058 -0.0108  0.2184
  175MOL0     C23536   4.545   7.940   9.923 -0.4063  0.0388  0.0237
  175MOL0     C23537   4.447   8.015   9.992 -1.2365 -0.2874 -1.0018
  175MOL0     O23538   4.154   8.026   9.964  0.2171 -0.3500  0.1156
  175MOL0     C23539   4.071   8.365   9.978 -0.3426 -0.0424 -0.1049
  175MOL0     C23540   3.959   8.457   9.969  0.0152  0.2974  0.4105
  175MOL0     N23541   3.351   8.861   9.855 -0.9605 -0.9167 -0.1822
  175MOL0     N23542   3.382   8.960   9.769  0.6807 -0.1961  0.0849
  175MOL0     C23543   4.505   8.698   9.249  0.0178  0.0141  0.4362
  175MOL0     C23544   4.619   8.632   9.224 -1.1528  0.5725  0.5822
  175MOL0     C23545   5.022   8.497   9.077 -0.8710 -0.6329  0.6343
  175MOL0     C23546   5.068   8.362   9.060 -0.6669  1.0655  0.3736
  175MOL0     C23547   5.199   8.336   9.000  0.3956  0.5460  0.8026
  175MOL0     C23548   5.281   8.442   8.974  0.3751 -0.2524  0.2428
  175MOL0     O23549   5.402   8.416   8.905 -0.3664 -0.3270 -0.1771
  175MOL0     C23550   5.377   8.401   8.764  0.1307  0.2084 -0.4634
  175MOL0     C23551   5.469   8.305   8.698 -0.2833  0.5664 -0.1548
  175MOL0     C23552   5.609   8.358   8.717  0.2228 -0.0274  0.4914
  175MOL0     C23553   5.706   8.316   8.598  0.4222  0.3978  0.5976
  175MOL0     C23554   5.736   8.175   8.598 -0.5591 -0.0301  0.1088
  175MOL0     C23555   5.764   8.058   8.600  0.2429  0.0265  0.8898
  175MOL0     C23556   5.239   8.577   8.983 -0.5633  0.3131 -0.5784
  175MOL0     C23557   5.108   8.603   9.024  0.4784  0.0539 -0.1122
  175MOL0     H23558   4.818   8.892   9.236 -2.2031  1.7883 -0.0137
  175MOL0     H23559   4.605   9.013   9.264  2.5324 -0.6415 -0.8339
  175MOL0     H23560   4.398   8.901   9.524  3.1265  0.5949 -0.3447
  175MOL0     H23561   4.477   9.027   9.426  0.8149  0.1268  2.2763
  175MOL0     H23562   4.279   9.114   9.525  1.4093 -3.5656  4.7486
  175MOL0     H23563   4.231   9.091   9.363  1.9505  1.6679 -0.0629
  175MOL0     H23564   4.120   8.882   9.414  1.7474  1.2867 -2.0926
  175MOL0     H23565   4.171   8.893   9.583 -0.2399  1.5294  0.8293
  175MOL0     H23566   4.067   9.126   9.616 -0.3224  1.8572 -0.9573
  175MOL0     H23567   4.011   9.109   9.450  1.6493 -0.1928 -0.0596
  175MOL0     H23568   3.850   8.925   9.544 -1.5193  1.2672  1.2892
  175MOL0     H23569   3.951   8.939   9.695  2.3935  0.0288 -1.3396
  175MOL0     H23570   3.870   9.172   9.721  0.6966 -0.1910  0.1603
  175MOL0     H23571   3.783   9.148   9.562 -2.8131  2.1340  2.0965
  175MOL0     H23572   3.686   8.930   9.698 -1.2907  1.9052 -2.0201
  175MOL0     H23573   3.748   9.011   9.836 -0.4386 -0.1791 -0.2215
  175MOL0     H23574   3.544   9.124   9.643  0.3926 -0.9026 -0.2698
  175MOL0     H23575   3.602   9.202   9.791 -0.9810  0.2123  0.9680
  175MOL0     H23576   3.598   9.010  10.015  0.1178 -1.4081  0.6586
  175MOL0     H23577   3.463   8.862  10.182 -0.6904  2.9341 -2.4763
  175MOL0     H23578   3.334   8.750  10.122  0.6819 -4.0000 -1.7993
  175MOL0     H23579   3.518   8.628  10.184  1.9180  1.4687  0.2204
  175MOL0     H23580   3.632   8.711  10.075  0.7453 -1.2795  1.0286
  175MOL0     H23581   3.488   8.595   9.880 -0.9225  0.4319  0.3928
  175MOL0     H23582   3.388   8.536  10.014 -0.3580  1.9545  0.6067
  175MOL0     H23583   3.573   8.390   9.918  0.3255 -0.2780  0.6143
  175MOL0     H23584   3.560   8.403  10.099 -0.9993  1.2633  0.7100
  175MOL0     H23585   3.731   8.223  10.076 -0.7639  1.8170  2.0783
  175MOL0     H23586   3.996   7.996  10.138  1.0144  0.1854 -1.0410
  175MOL0     H23587   3.827   8.032  10.160  1.1236  1.6043  2.5400
  175MOL0     H23588   3.892   7.971  10.001  3.7829  1.5613 -0.7007
  175MOL0     H23589   4.424   8.299   9.814 -1.2780 -0.7300 -1.2333
  175MOL0     H23590   4.602   8.165   9.680 -3.3119 -0.0490 -1.5790
  175MOL0     H23591   4.840   7.874   9.879  2.2747 -0.0892 -1.9893
  175MOL0     H23592   4.738   7.754   9.820 -2.3793  0.5818  0.1723
  175MOL0     H23593   4.855   7.783   9.594 -1.6373  0.0378  0.8901
  175MOL0     H23594   4.956   7.910   9.657 -2.8772  2.0848 -0.7692
  175MOL0     H23595   4.959   7.610   9.714  0.0440  0.2479  0.2737
  175MOL0     H23596   4.978   7.708   9.852  0.5904  2.0652 -0.6140
  175MOL0     H23597   5.147   7.725   9.597 -0.1378 -1.4918  0.1172
  175MOL0     H23598   5.165   7.834   9.740 -0.3926 -1.2238  1.8346
  175MOL0     H23599   5.179   7.522   9.741 -1.0787  0.1631  1.1000
  175MOL0     H23600   5.225   7.631   9.879 -1.5028 -0.3970  0.1838
  175MOL0     H23601   5.404   7.720   9.765  3.0171 -1.0279  0.2550
  175MOL0     H23602   5.416   7.548   9.805  0.8266  1.5497  1.2173
  175MOL0     H23603   5.407   7.690   9.549 -1.0598  0.6466  1.8813
  175MOL0     H23604   5.321   7.536   9.542  0.1577 -2.6222  1.9177
  175MOL0     H23605   5.553   7.517   9.463 -2.2974  2.4303 -0.7134
  175MOL0     H23606   5.515   7.413   9.613 -1.0064  0.0443 -0.3941
  175MOL0     H23607   4.582   7.843   9.957 -0.8648 -0.3806 -0.6547
  175MOL0     H23608   4.405   7.966  10.079 -1.1177  0.3714 -0.5633
  175MOL0     H23609   4.170   8.394   9.946 -0.2325 -1.2365 -0.8892
  175MOL0     H23610   3.967   8.561   9.939  0.9434  0.1525  0.1108
  175MOL0     H23611   4.419   8.634   9.263  2.7533 -3.6168  2.6288
  175MOL0     H23612   4.615   8.527   9.194  0.4592  1.1086 -1.7240
  175MOL0     H23613   5.017   8.281   9.111 -2.8228  1.2430 -1.3628
  175MOL0     H23614   5.248   8.239   8.996 -3.2495 -1.4238 -0.2821
  175MOL0     H23615   5.274   8.368   8.747  0.8741 -1.5782 -1.8802
  175MOL0     H23616   5.393   8.495   8.710  2.6894 -0.3596 -0.8409
  175MOL0     H23617   5.436   8.298   8.593 -1.0474 -1.0793  0.1640
  175MOL0     H23618   5.460   8.202   8.732 -0.3165  0.8864  0.8272
  175MOL0     H23619   5.639   8.326   8.817  2.0576 -0.4042 -0.1401
  175MOL0     H23620   5.615   8.467   8.723  0.7900 -0.1166  5.0088
  175MOL0     H23621   5.799   8.373   8.605  1.7435 -1.6992  1.3137
  175MOL0     H23622   5.656   8.350   8.507  2.4403 -0.7145 -1.0375
  175MOL0     H23623   5.799   7.957   8.604  2.6751  0.7623 -0.1383
  175MOL0     H23624   5.303   8.658   8.951 -0.6261  0.5659 -0.0694
  175MOL0     H23625   5.064   8.702   9.017 -0.6042 -0.4850 -1.1660
  176MOL0     O23626   5.668   0.077   3.997  0.0212 -0.4906  0.2178
  176MOL0     C23627   5.664   0.189   3.945  0.8063 -0.1060 -0.8090
  176MOL0     O23628   5.621   0.224   3.821 -0.5255  0.1661 -0.3155
  176MOL0     C23629   5.547   0.132   3.748  1.3643 -0.3416 -0.6901
  176MOL0     C23630   5.417   0.173   3.722  0.0752  0.6451 -1.2412
  176MOL0     C23631   5.342   0.102   3.629 -0.0716  0.6669 -0.7687
  176MOL0     C23632   5.396  -0.024   3.583  1.0855 -0.1616  0.0825
  176MOL0     O23633   5.331  -0.112   3.495 -0.2603  0.3482  0.1265
  176MOL0     C23634   5.185  -0.104   3.471  0.4449  0.4686 -0.1133
  176MOL0     C23635   5.141  -0.248   3.428  0.6787  0.0540 -0.7678
  176MOL0     C23636   4.996  -0.274   3.399 -0.0355  0.2109  0.8528
  176MOL0     C23637   4.911  -0.158   3.327 -0.4579  0.3771  0.2128
  176MOL0     C23638   4.764  -0.194   3.314  0.5042  0.2955 -0.5401
  176MOL0     C23639   4.691  -0.075   3.245  0.1654  0.0089  0.4000
  176MOL0     C23640   4.543  -0.112   3.215  0.0589 -0.1259 -0.2301
  176MOL0     C23641   4.469   0.003   3.157 -0.0596 -0.1411 -0.6174
  176MOL0     N23642   4.325  -0.023   3.151 -0.3428  0.0274  0.1988
  176MOL0     C23643   4.247  -0.102   3.060 -0.5382  0.1309 -0.0742
  176MOL0     C23644   4.121  -0.082   3.103 -0.5256  0.4601 -0.0626
  176MOL0     C23645   3.994  -0.156   3.051  0.2305 -0.0518  0.1416
  176MOL0     C23646   3.963  -0.140   2.906  0.3602  0.3601  1.4288
  176MOL0     C23647   3.853  -0.221   2.839  0.1418 -0.6781  0.4297
  176MOL0     C23648   3.721  -0.203   2.908  0.1613 -0.5069 -0.7002
  176MOL0     O23649   3.636  -0.280   2.821 -0.1233 -0.2374 -0.9171
  176MOL0     C23650   3.504  -0.292   2.849 -1.4092 -0.1420 -0.1694
  176MOL0     C23651   3.436  -0.196   2.924 -0.6717 -0.0438 -0.4678
  176MOL0     C23652   3.298  -0.205   2.952 -0.1853  0.1853  0.5059
  176MOL0     C23653   3.243  -0.094   3.037 -0.0119 -0.4416 -0.2000
  176MOL0     C23654   3.228  -0.321   2.893  0.0195 -0.2341  0.1182
  176MOL0     C23655   3.080  -0.340   2.914  0.9944  0.1857  1.0929
  176MOL0     O23656   3.010  -0.438   2.843 -0.9620  0.4674 -0.2503
  176MOL0     C23657   2.880  -0.481   2.877  0.0935  1.0360  1.0565
  176MOL0     C23658   2.819  -0.546   2.769  0.8273  0.0747 -0.9752
  176MOL0     C23659   2.698  -0.613   2.787  0.3226 -0.7092  0.9341
  176MOL0     C23660   2.625  -0.600   2.904 -0.5189 -0.8392 -0.9311
  176MOL0     O23661   2.498  -0.661   2.918 -0.1331 -0.1516  0.0212
  176MOL0     C23662   2.455  -0.696   3.052 -0.2864 -0.2438 -0.1353
  176MOL0     C23663   2.318  -0.751   3.037  0.6736 -0.1234  0.0241
  176MOL0     C23664   2.256  -0.806   3.165 -0.6992  0.2054  0.7256
  176MOL0     C23665   2.136  -0.892   3.147  0.0993 -0.9470  0.0941
  176MOL0     C23666   2.110  -0.968   3.288  0.2223  0.0376 -0.1665
  176MOL0     C23667   2.018  -0.881   3.384  0.5800  0.2370  0.2052
  176MOL0     C23668   2.027  -0.935   3.531 -0.4607 -0.1557  0.4926
  176MOL0     C23669   1.949  -0.848   3.631  0.4410  0.5123 -0.3196
  176MOL0    Cl23670   2.012  -0.687   3.632 -0.4369  0.6180 -0.3250
  176MOL0     C23671   2.684  -0.530   3.011 -0.3978 -0.2081  0.0825
  176MOL0     C23672   2.813  -0.472   3.000  0.2806 -0.3177  0.2311
  176MOL0     O23673   3.028  -0.266   2.994  0.0328 -0.6644  0.2480
  176MOL0     C23674   3.294  -0.402   2.798 -0.4485  0.3632  0.1426
  176MOL0     C23675   3.431  -0.388   2.779  0.4671  0.3911  0.0428
  176MOL0     N23676   4.122   0.009   3.213 -0.4718  0.3106 -0.6919
  176MOL0     N23677   4.242   0.040   3.247 -0.1716  0.2185  0.9104
  176MOL0     C23678   5.514  -0.069   3.629  0.1062  0.1035  0.0505
  176MOL0     C23679   5.595   0.007   3.699 -0.4436 -0.1731 -0.1348
  176MOL0     C23680   5.702   0.292   4.038 -0.8420  0.5075  0.8889
  176MOL0     C23681   5.658   0.429   4.014  0.6371  0.5171 -1.0022
  176MOL0     C23682   5.687   0.530   4.110 -0.3018  0.1621 -0.1545
  176MOL0     C23683   5.774   0.513   4.214  0.3203 -0.1123  0.6470
  176MOL0     O23684   5.827   0.605   4.293  0.1154 -0.1118 -0.2101
  176MOL0     C23685   5.765   0.730   4.303 -1.0964  0.2407 -0.1069
  176MOL0     C23686   5.857   0.838   4.370  0.3441 -0.2671  0.3241
  176MOL0     C23687   5.842   0.849   4.527  0.6710  0.2300  0.2281
  176MOL0     C23688   5.937   0.748   4.597  0.8111  0.0301  0.6448
  176MOL0     C23689   5.888   0.726   4.731 -0.5199 -0.7796 -0.0510
  176MOL0     C23690   5.849   0.696   4.842  0.7574  0.1242 -0.1422
  176MOL0     C23691   5.827   0.385   4.232  0.6281  0.1173  1.0352
  176MOL0     C23692   5.788   0.278   4.150  0.2200  0.5937  0.6544
  176MOL0     H23693   5.377   0.259   3.775  0.0193 -1.4029  2.3609
  176MOL0     H23694   5.248   0.139   3.591 -1.5742 -1.2403  0.8484
  176MOL0     H23695   5.132  -0.064   3.559 -1.3683  2.9361 -2.1726
  176MOL0     H23696   5.163  -0.039   3.385 -0.1849  2.0977  1.2147
  176MOL0     H23697   5.194  -0.283   3.339  0.0884 -0.9854 -0.7243
  176MOL0     H23698   5.162  -0.308   3.517 -0.9638  0.0907 -0.3187
  176MOL0     H23699   4.993  -0.363   3.336  0.6711  0.8344 -0.0869
  176MOL0     H23700   4.933  -0.285   3.488 -0.7284  0.5221  0.4197
  176MOL0     H23701   4.905  -0.069   3.391 -3.5867  1.0696 -0.8550
  176MOL0     H23702   4.947  -0.135   3.227 -1.0070  1.1201  0.1814
  176MOL0     H23703   4.756  -0.285   3.253  2.6782  0.3808 -1.0253
  176MOL0     H23704   4.708  -0.216   3.405 -2.0032  0.8710 -1.8495
  176MOL0     H23705   4.690   0.020   3.299 -1.9315  0.0803  0.3103
  176MOL0     H23706   4.741  -0.053   3.150  1.0752  1.0776  1.0915
  176MOL0     H23707   4.532  -0.197   3.147  1.2356 -0.7622  0.3579
  176MOL0     H23708   4.500  -0.145   3.311  1.9249 -0.2031  0.6142
  176MOL0     H23709   4.500   0.022   3.053  0.2164 -0.0087 -0.5118
  176MOL0     H23710   4.495   0.091   3.216  0.8243 -1.2477  0.7033
  176MOL0     H23711   4.262  -0.169   2.976 -2.6613  2.2552 -2.3295
  176MOL0     H23712   3.997  -0.262   3.075  0.1722 -0.3145 -0.9585
  176MOL0     H23713   3.910  -0.115   3.108  1.2067  3.3724 -0.6315
  176MOL0     H23714   4.059  -0.171   2.864  0.0130  1.0671  0.0929
  176MOL0     H23715   3.952  -0.035   2.879 -0.7603 -0.8235 -3.7435
  176MOL0     H23716   3.864  -0.330   2.841 -1.1124 -0.8201  0.1550
  176MOL0     H23717   3.858  -0.183   2.737  0.7055 -0.0456  0.6790
  176MOL0     H23718   3.686  -0.099   2.919  1.3805 -0.0288 -1.2175
  176MOL0     H23719   3.718  -0.241   3.010 -3.5941  0.6331 -0.2128
  176MOL0     H23720   3.493  -0.117   2.971 -0.0497 -1.1862  0.7495
  176MOL0     H23721   3.202  -0.132   3.132  0.6591  0.9067  0.6658
  176MOL0     H23722   3.321  -0.025   3.071 -1.2247  1.8292 -1.7661
  176MOL0     H23723   3.178  -0.019   2.990  2.2331  3.8631  2.8277
  176MOL0     H23724   2.878  -0.554   2.678  0.3166  0.8441 -1.3890
  176MOL0     H23725   2.649  -0.653   2.699 -2.7857  1.4133  1.5295
  176MOL0     H23726   2.519  -0.767   3.106  0.8269  1.5889  1.0657
  176MOL0     H23727   2.445  -0.604   3.110  2.7578  0.2193 -0.1493
  176MOL0     H23728   2.257  -0.673   2.990 -1.0983 -2.1740 -1.2825
  176MOL0     H23729   2.326  -0.830   2.962  1.6759  1.2846 -1.4258
  176MOL0     H23730   2.232  -0.720   3.228 -1.3173 -0.1567  0.9933
  176MOL0     H23731   2.332  -0.872   3.210  0.8316  0.3667 -1.4637
  176MOL0     H23732   2.054  -0.828   3.112  0.1282  0.7921  2.8964
  176MOL0     H23733   2.162  -0.961   3.066  0.4912 -0.3641 -0.2841
  176MOL0     H23734   2.199  -0.995   3.346 -0.0624 -0.5798 -0.0020
  176MOL0     H23735   2.055  -1.062   3.276  2.4421 -1.9529  3.2993
  176MOL0     H23736   2.054  -0.778   3.373 -3.6219  1.7429 -1.5867
  176MOL0     H23737   1.916  -0.882   3.346  0.8371  0.7684 -0.5286
  176MOL0     H23738   2.129  -0.948   3.570  0.6448 -0.0829 -2.1660
  176MOL0     H23739   1.987  -1.036   3.522 -2.1985  0.5278  0.1867
  176MOL0     H23740   1.951  -0.896   3.729  1.2002  1.4248  0.1201
  176MOL0     H23741   1.846  -0.851   3.594  0.1162 -1.5788  0.6139
  176MOL0     H23742   2.638  -0.506   3.106 -0.3289  0.3943 -0.0337
  176MOL0     H23743   2.870  -0.428   3.080  1.9479 -1.2546 -0.3870
  176MOL0     H23744   3.235  -0.476   2.745 -2.9121  2.0625  0.3076
  176MOL0     H23745   3.489  -0.451   2.712  0.0729  1.7555 -1.6437
  176MOL0     H23746   5.561  -0.162   3.599  0.9289  0.9846 -1.5461
  176MOL0     H23747   5.697  -0.010   3.733 -1.1773 -2.1789  1.2535
  176MOL0     H23748   5.588   0.455   3.935  2.4469  2.5042 -2.0392
  176MOL0     H23749   5.631   0.621   4.097 -2.6203 -1.1463  0.0976
  176MOL0     H23750   5.730   0.766   4.206 -2.8153 -3.3618 -0.9901
  176MOL0     H23751   5.672   0.718   4.359 -0.5990  1.8983  1.1486
  176MOL0     H23752   5.837   0.939   4.333  1.3281 -0.1628  0.0593
  176MOL0     H23753   5.956   0.814   4.331 -0.4029 -0.0650 -1.8396
  176MOL0     H23754   5.738   0.836   4.559  0.4244  2.8231  0.6498
  176MOL0     H23755   5.859   0.951   4.561  0.8773 -0.7507  3.4332
  176MOL0     H23756   6.037   0.792   4.601  0.8037 -0.0254  1.9088
  176MOL0     H23757   5.940   0.651   4.547  1.7350 -0.5817  1.8219
  176MOL0     H23758   5.818   0.666   4.940  2.5214 -0.5699  0.2588
  176MOL0     H23759   5.878   0.363   4.325 -0.0039  0.4196  1.4563
  176MOL0     H23760   5.831   0.182   4.175  1.2507  0.6508 -0.7921
  177MOL0     O23761   6.088   1.162   4.338  0.0766  1.1827  0.0526
  177MOL0     C23762   6.169   1.137   4.244 -0.6881  0.5891 -0.2200
  177MOL0     O23763   6.139   1.135   4.113 -0.0415  0.3324  0.5713
  177MOL0     C23764   6.008   1.157   4.081  0.0402 -0.8733  0.3742
  177MOL0     C23765   5.951   1.286   4.097 -0.6104 -0.2732  1.1655
  177MOL0     C23766   5.814   1.318   4.059  0.5624 -0.0125 -0.3174
  177MOL0     C23767   5.724   1.218   4.015 -0.5166 -0.0942 -0.1499
  177MOL0     O23768   5.590   1.235   3.974 -0.3618  0.7909 -0.3932
  177MOL0     C23769   5.539   1.359   4.000  0.0464 -0.8754 -0.0724
  177MOL0     C23770   5.393   1.354   3.979 -0.7142  0.5794  0.2090
  177MOL0     C23771   5.322   1.491   4.001  0.4098  0.5979 -0.6800
  177MOL0     C23772   5.183   1.483   3.951  0.9764  0.6381 -0.2464
  177MOL0     C23773   5.085   1.420   4.050  0.0270  0.0174 -0.4312
  177MOL0     C23774   4.942   1.432   3.999  0.1905  0.2632 -0.1399
  177MOL0     C23775   4.834   1.373   4.079 -0.1924  0.0219 -0.3858
  177MOL0     C23776   4.695   1.455   4.047 -0.7159 -0.0643 -0.0265
  177MOL0     N23777   4.578   1.409   4.132 -0.3248  0.4540 -0.1637
  177MOL0     C23778   4.453   1.405   4.082  0.0506 -0.4738 -0.5174
  177MOL0     C23779   4.375   1.386   4.198  0.4214 -0.4119  0.9498
  177MOL0     C23780   4.223   1.376   4.212  0.5066  0.0110 -0.1368
  177MOL0     C23781   4.144   1.505   4.223  0.0581 -0.3755 -0.2070
  177MOL0     C23782   4.007   1.478   4.295 -0.5580 -0.1853 -0.9645
  177MOL0     C23783   3.897   1.574   4.253 -0.3041 -0.5180 -0.0054
  177MOL0     O23784   3.774   1.505   4.256 -0.4365 -0.0490  0.6103
  177MOL0     C23785   3.651   1.564   4.281  0.0941  0.0362  0.2511
  177MOL0     C23786   3.534   1.515   4.217 -0.9656 -0.2491  0.3993
  177MOL0     C23787   3.409   1.575   4.228 -0.1675 -0.8026  0.8664
  177MOL0     C23788   3.293   1.522   4.135 -0.4427 -0.3959 -0.8493
  177MOL0     C23789   3.394   1.686   4.320 -0.6678 -0.6802  0.4725
  177MOL0     C23790   3.258   1.758   4.343 -0.2691  0.8888 -0.0521
  177MOL0     O23791   3.263   1.879   4.403 -0.4591  0.6395  0.2214
  177MOL0     C23792   3.145   1.939   4.414  0.6867 -0.2817  0.3613
  177MOL0     C23793   3.071   1.976   4.302  0.9932  0.7149  0.5064
  177MOL0     C23794   2.950   2.049   4.324  0.3605  1.0094  0.0831
  177MOL0     C23795   2.915   2.097   4.455 -0.4233  0.8235  0.5555
  177MOL0     O23796   2.803   2.152   4.500 -0.3456  0.2928 -0.1606
  177MOL0     C23797   2.695   2.159   4.403 -0.1668  0.0664  0.0336
  177MOL0     C23798   2.570   2.239   4.451 -0.4369 -0.4603  0.7068
  177MOL0     C23799   2.453   2.198   4.366  0.4911  0.0996 -0.0265
  177MOL0     C23800   2.330   2.286   4.411  0.1514 -0.1926  0.1598
  177MOL0     C23801   2.190   2.251   4.354 -0.1046  0.6472 -0.0264
  177MOL0     C23802   2.084   2.354   4.399  0.0631 -0.1407  0.2935
  177MOL0     C23803   1.955   2.312   4.336  0.2079 -0.5566  0.7230
  177MOL0     C23804   1.846   2.416   4.355  0.4847  0.1019 -0.9000
  177MOL0    Cl23805   1.691   2.378   4.269  0.1746  0.2103  0.3239
  177MOL0     C23806   2.998   2.058   4.560 -0.5036 -0.7408  0.7463
  177MOL0     C23807   3.104   1.978   4.540  0.6727 -1.0090 -0.0526
  177MOL0     O23808   3.163   1.686   4.333  0.2655 -0.4915 -0.5821
  177MOL0     C23809   3.503   1.731   4.385 -0.1171 -0.8423  0.3938
  177MOL0     C23810   3.628   1.673   4.370 -0.4673  0.4551 -0.7772
  177MOL0     N23811   4.462   1.387   4.310  0.1764 -0.3976 -0.4787
  177MOL0     N23812   4.585   1.404   4.267 -0.3837  0.5488  0.2729
  177MOL0     C23813   5.777   1.094   4.010 -0.2339 -0.1305  1.0132
  177MOL0     C23814   5.912   1.063   4.039  1.1107  0.2811 -0.4711
  177MOL0     C23815   6.315   1.117   4.277 -0.5770 -0.5548  0.2202
  177MOL0     C23816   6.355   1.134   4.405 -0.5812  0.5945 -0.5839
  177MOL0     C23817   6.490   1.115   4.432 -0.1946 -0.1847 -0.0412
  177MOL0     C23818   6.589   1.080   4.329  0.4077  0.1609 -0.2940
  177MOL0     O23819   6.720   1.052   4.353  0.2950  1.2273 -0.1619
  177MOL0     C23820   6.818   1.148   4.309  0.6297  0.5823 -0.6386
  177MOL0     C23821   6.804   1.268   4.397 -0.5613 -0.0359 -0.4140
  177MOL0     C23822   6.914   1.383   4.377  0.3823 -0.4098  0.4759
  177MOL0     C23823   6.926   1.432   4.238 -0.3032  0.4502 -0.1362
  177MOL0     C23824   7.053   1.375   4.180  0.1383 -0.8952 -0.1999
  177MOL0     C23825   7.143   1.315   4.133  0.1230  0.1549  0.3212
  177MOL0     C23826   6.543   1.071   4.201  0.2074  0.4394  0.2615
  177MOL0     C23827   6.407   1.087   4.178 -0.7369  0.6868  0.5556
  177MOL0     H23828   6.022   1.364   4.125 -0.5657 -0.4770  1.6336
  177MOL0     H23829   5.781   1.422   4.065  1.6535  0.2794  0.8213
  177MOL0     H23830   5.546   1.389   4.106 -0.5710  0.5578 -0.4024
  177MOL0     H23831   5.590   1.435   3.941  1.5821 -1.3974  0.5190
  177MOL0     H23832   5.369   1.337   3.874 -2.8994  1.4020  0.5242
  177MOL0     H23833   5.342   1.280   4.041  0.1236 -1.1999 -1.1656
  177MOL0     H23834   5.323   1.532   4.102 -2.6661 -0.9483  0.0981
  177MOL0     H23835   5.381   1.553   3.933  0.8897  0.4554 -0.4027
  177MOL0     H23836   5.158   1.588   3.933  3.5340  1.1444 -1.2830
  177MOL0     H23837   5.182   1.432   3.854  1.6003  0.0604  0.0387
  177MOL0     H23838   5.099   1.312   4.046 -3.5335 -0.6946  1.5148
  177MOL0     H23839   5.088   1.463   4.151  0.0059 -1.6156  0.2849
  177MOL0     H23840   4.918   1.539   3.995 -0.3815  0.1523  0.1755
  177MOL0     H23841   4.942   1.398   3.895  0.6319  0.1208 -0.0945
  177MOL0     H23842   4.811   1.271   4.047  0.0478  0.5478 -2.4044
  177MOL0     H23843   4.861   1.372   4.185 -0.8258 -1.3954 -0.2052
  177MOL0     H23844   4.671   1.438   3.942  0.5134  1.3483 -0.5714
  177MOL0     H23845   4.717   1.560   4.070  1.0157 -0.9095  2.5637
  177MOL0     H23846   4.419   1.435   3.984  0.0399  0.2841 -0.2875
  177MOL0     H23847   4.174   1.317   4.134 -0.6897  2.6552 -1.5011
  177MOL0     H23848   4.204   1.317   4.303 -0.2944 -3.4298 -2.3461
  177MOL0     H23849   4.121   1.542   4.122  1.6307 -1.2328 -0.9136
  177MOL0     H23850   4.195   1.586   4.276 -0.1606  0.7984 -1.6993
  177MOL0     H23851   4.024   1.483   4.403  1.5164 -0.6481 -1.2162
  177MOL0     H23852   3.978   1.374   4.283  1.3144 -0.5430 -3.2626
  177MOL0     H23853   3.923   1.604   4.150  0.5237  1.5150  0.7333
  177MOL0     H23854   3.884   1.657   4.323 -0.3211 -0.1053 -0.4904
  177MOL0     H23855   3.542   1.431   4.148  1.3973 -0.1787  0.5155
  177MOL0     H23856   3.239   1.444   4.191  1.1619 -0.2950  0.9395
  177MOL0     H23857   3.226   1.604   4.107 -0.1628  0.0017 -0.3578
  177MOL0     H23858   3.329   1.479   4.041 -1.9650 -0.9233 -1.2256
  177MOL0     H23859   3.100   1.936   4.205 -3.2141 -2.5229  0.2934
  177MOL0     H23860   2.872   2.057   4.249 -0.4658 -1.0495  0.6407
  177MOL0     H23861   2.729   2.213   4.314 -2.2852 -0.0215 -0.8906
  177MOL0     H23862   2.665   2.055   4.388 -0.4910  0.1180  0.3084
  177MOL0     H23863   2.549   2.227   4.558 -4.2576  1.1103  0.3041
  177MOL0     H23864   2.572   2.347   4.430 -2.0842 -0.5957 -0.2519
  177MOL0     H23865   2.430   2.091   4.376 -1.8121  0.2972 -2.1692
  177MOL0     H23866   2.467   2.215   4.259 -0.9732 -1.1949 -0.4631
  177MOL0     H23867   2.324   2.282   4.520 -0.6508 -0.3539  0.1096
  177MOL0     H23868   2.359   2.389   4.387  0.4225  0.0301  1.3965
  177MOL0     H23869   2.163   2.159   4.407 -6.2299  1.6345 -0.7123
  177MOL0     H23870   2.196   2.228   4.247 -0.4821 -0.1590  0.1200
  177MOL0     H23871   2.067   2.361   4.507 -3.6967 -3.5308  0.1474
  177MOL0     H23872   2.110   2.452   4.358  2.7055 -1.6740 -2.0508
  177MOL0     H23873   1.923   2.226   4.396 -2.7257 -0.0606  0.0235
  177MOL0     H23874   1.972   2.299   4.229 -2.4349  3.9843 -0.5175
  177MOL0     H23875   1.894   2.512   4.329  3.6984 -1.2709 -0.5426
  177MOL0     H23876   1.818   2.409   4.460 -0.2361 -3.4256 -1.2116
  177MOL0     H23877   2.969   2.074   4.664  2.3701  1.1424  1.3856
  177MOL0     H23878   3.171   1.956   4.623 -1.2020 -1.0007  1.5447
  177MOL0     H23879   3.480   1.814   4.452 -1.2998 -0.9676  0.1716
  177MOL0     H23880   3.706   1.713   4.434  0.7989 -0.4973 -1.7005
  177MOL0     H23881   5.694   1.030   3.984 -1.8633  1.3210  2.3745
  177MOL0     H23882   5.928   0.956   4.038 -2.2319 -0.3068 -0.5514
  177MOL0     H23883   6.298   1.176   4.487 -0.5221  2.2475 -1.3603
  177MOL0     H23884   6.519   1.135   4.534  0.3885 -0.3986 -0.1612
  177MOL0     H23885   6.920   1.108   4.314  0.6286  0.6918  1.4095
  177MOL0     H23886   6.808   1.181   4.206  0.6157  0.5248 -0.6556
  177MOL0     H23887   6.800   1.244   4.503  4.4160 -1.8367 -0.3856
  177MOL0     H23888   6.705   1.310   4.375 -1.4336 -0.9419  1.5832
  177MOL0     H23889   7.010   1.343   4.411  0.6834  0.6673  0.9436
  177MOL0     H23890   6.884   1.466   4.441  0.6888 -0.0094  0.1106
  177MOL0     H23891   6.951   1.538   4.252 -0.3938  0.5991 -1.0465
  177MOL0     H23892   6.836   1.414   4.179  0.3300 -0.0080 -0.9705
  177MOL0     H23893   7.220   1.258   4.083 -0.6136  0.5829 -1.3801
  177MOL0     H23894   6.607   1.043   4.118 -0.4680  0.2355 -0.1983
  177MOL0     H23895   6.375   1.072   4.075  2.4768 -1.6608 -0.2827
  178MOL0     O23896   5.384   5.682   1.029  0.2143  0.9982 -0.1544
  178MOL0     C23897   5.427   5.593   1.110 -1.6628  0.5950  0.1208
  178MOL0     O23898   5.394   5.567   1.242  0.5597 -0.8856 -0.0962
  178MOL0     C23899   5.288   5.634   1.299  0.1447 -0.5397  0.9723
  178MOL0     C23900   5.170   5.661   1.237 -0.0494  0.8108 -0.6321
  178MOL0     C23901   5.064   5.717   1.307  0.7127 -0.4292  0.2501
  178MOL0     C23902   5.078   5.760   1.440  0.0892 -0.0267 -0.2442
  178MOL0     O23903   4.980   5.817   1.505  0.3829  0.3241 -1.0902
  178MOL0     C23904   5.010   5.944   1.573  0.1382  0.0279  0.8419
  178MOL0     C23905   4.902   6.034   1.522 -0.0019 -0.6555  0.0957
  178MOL0     C23906   4.756   6.018   1.576 -0.0560 -0.5863 -0.2910
  178MOL0     C23907   4.679   5.916   1.487 -0.4642  0.5005 -0.1528
  178MOL0     C23908   4.534   5.918   1.529  0.8022 -0.5452 -0.9884
  178MOL0     C23909   4.443   5.833   1.433  0.9595 -0.5641 -0.1471
  178MOL0     C23910   4.296   5.873   1.437 -0.1538 -0.2436  0.6078
  178MOL0     C23911   4.224   5.879   1.579  0.3366  0.5343  0.1589
  178MOL0     N23912   4.080   5.911   1.568  0.5429  0.1442 -0.7510
  178MOL0     C23913   3.981   5.831   1.617  0.7139  0.5273 -0.1232
  178MOL0     C23914   3.856   5.867   1.572  0.3773 -0.2002 -0.4295
  178MOL0     C23915   3.719   5.808   1.596 -0.1285  0.1514 -0.2746
  178MOL0     C23916   3.675   5.772   1.460  1.0226  0.0198 -0.3253
  178MOL0     C23917   3.562   5.673   1.463  0.3963  0.5894  0.9024
  178MOL0     C23918   3.619   5.542   1.517  0.5559 -0.4118  0.0055
  178MOL0     O23919   3.511   5.453   1.516  0.5337  0.3458 -0.1262
  178MOL0     C23920   3.519   5.332   1.568  0.2285 -0.3220  0.1727
  178MOL0     C23921   3.414   5.247   1.536 -0.5541  0.0962 -0.6738
  178MOL0     C23922   3.406   5.121   1.601 -0.0322  0.9110  0.3679
  178MOL0     C23923   3.283   5.039   1.576  0.0857 -0.0151 -0.0712
  178MOL0     C23924   3.510   5.067   1.678 -0.7352 -0.9889 -0.0072
  178MOL0     C23925   3.510   4.928   1.725  0.5243  0.2724 -0.2623
  178MOL0     O23926   3.390   4.852   1.734 -0.3754  0.5162 -0.0170
  178MOL0     C23927   3.408   4.715   1.736 -0.2896 -0.3655 -0.2395
  178MOL0     C23928   3.480   4.644   1.634 -0.1302 -0.6152  0.8506
  178MOL0     C23929   3.487   4.501   1.643  0.2516 -0.0176 -0.0107
  178MOL0     C23930   3.423   4.429   1.741 -0.2180  0.4607 -0.3303
  178MOL0     O23931   3.444   4.293   1.735  0.1506 -0.2242 -1.0551
  178MOL0     C23932   3.329   4.210   1.734 -0.0692  1.1900  0.8794
  178MOL0     C23933   3.385   4.067   1.727  0.6137 -0.3204  1.0030
  178MOL0     C23934   3.275   3.969   1.687 -0.0080  0.2538 -0.7558
  178MOL0     C23935   3.327   3.827   1.721 -0.2190  1.2552  0.6780
  178MOL0     C23936   3.402   3.780   1.592  0.8448 -0.2395  1.5172
  178MOL0     C23937   3.432   3.626   1.602 -0.5518 -0.6928  0.0171
  178MOL0     C23938   3.524   3.591   1.482  1.2041 -0.2359  0.3347
  178MOL0     C23939   3.665   3.632   1.499 -0.6249  0.8160 -0.5637
  178MOL0    Cl23940   3.741   3.540   1.629 -0.4995  0.3250  0.2156
  178MOL0     C23941   3.360   4.497   1.843 -0.5679 -0.0934 -0.4593
  178MOL0     C23942   3.354   4.633   1.838  0.4115 -0.7404  0.2419
  178MOL0     O23943   3.612   4.898   1.775 -0.2159 -0.8373  0.1960
  178MOL0     C23944   3.619   5.154   1.699  0.0385  0.8647  0.6131
  178MOL0     C23945   3.625   5.288   1.653  0.1049 -0.2103 -0.4653
  178MOL0     N23946   3.886   5.965   1.481 -0.2370  0.0529 -0.3005
  178MOL0     N23947   4.015   5.980   1.471 -0.2816 -0.5047  0.4020
  178MOL0     C23948   5.204   5.730   1.508 -0.7585 -0.8400  0.3624
  178MOL0     C23949   5.308   5.675   1.436 -0.2700  0.0037  1.4883
  178MOL0     C23950   5.516   5.487   1.049 -0.2600 -0.1920  0.2338
  178MOL0     C23951   5.548   5.486   0.902  0.4030  0.0251 -0.9499
  178MOL0     C23952   5.645   5.396   0.849  0.1392  0.2576  0.0747
  178MOL0     C23953   5.703   5.300   0.929 -0.7602 -0.4679 -0.7295
  178MOL0     O23954   5.784   5.197   0.878  0.6360  0.2346  0.1491
  178MOL0     C23955   5.922   5.229   0.852  0.4132  0.0031 -0.1804
  178MOL0     C23956   6.005   5.103   0.815 -1.0484  0.7013  0.3914
  178MOL0     C23957   6.160   5.142   0.797 -0.4048 -0.6252 -0.1289
  178MOL0     C23958   6.244   5.016   0.764  0.5071 -0.5411 -0.1464
  178MOL0     C23959   6.393   5.048   0.786 -0.5259 -0.2338  0.5432
  178MOL0     C23960   6.513   5.055   0.821  1.0015 -0.2768  0.2411
  178MOL0     C23961   5.676   5.297   1.066  0.5273  0.0053 -0.1028
  178MOL0     C23962   5.583   5.388   1.129 -0.0111 -0.0824 -0.0622
  178MOL0     H23963   5.156   5.651   1.130  0.0266  3.3595 -0.9314
  178MOL0     H23964   4.969   5.722   1.255  0.6950 -0.3144  0.2948
  178MOL0     H23965   4.998   5.932   1.681 -0.0537 -1.5140  0.6750
  178MOL0     H23966   5.103   5.982   1.531 -1.7065  0.1116 -3.8274
  178MOL0     H23967   4.935   6.137   1.534  1.4865 -1.2180  0.9276
  178MOL0     H23968   4.896   6.015   1.414  0.1969 -2.1229  0.3167
  178MOL0     H23969   4.767   5.976   1.677  0.3083 -1.1249 -0.5472
  178MOL0     H23970   4.710   6.117   1.588  0.3004 -0.2845 -1.3507
  178MOL0     H23971   4.683   5.940   1.380 -0.9778 -1.0113 -0.5379
  178MOL0     H23972   4.728   5.819   1.501 -1.3846  0.0327 -0.0452
  178MOL0     H23973   4.533   5.880   1.632  2.3750 -2.3405 -1.5655
  178MOL0     H23974   4.502   6.022   1.532  2.9776  0.1513 -0.3230
  178MOL0     H23975   4.478   5.858   1.332 -2.0967 -1.2327 -1.4823
  178MOL0     H23976   4.454   5.725   1.445 -0.0791 -0.8603 -1.6541
  178MOL0     H23977   4.290   5.973   1.395  0.9269 -0.0616  0.8671
  178MOL0     H23978   4.232   5.804   1.381 -0.8163  0.6812  0.2028
  178MOL0     H23979   4.278   5.962   1.626  2.6970 -1.2118  0.6930
  178MOL0     H23980   4.230   5.784   1.632 -2.4679 -2.1038 -3.6952
  178MOL0     H23981   4.002   5.759   1.695 -1.0202 -1.2187 -1.1649
  178MOL0     H23982   3.734   5.732   1.673 -1.5588  0.6812  0.5654
  178MOL0     H23983   3.647   5.880   1.637  2.1910  0.6477  3.3830
  178MOL0     H23984   3.751   5.716   1.406 -0.2271  0.0338 -2.2088
  178MOL0     H23985   3.630   5.854   1.402 -1.9101 -2.5890 -2.1324
  178MOL0     H23986   3.532   5.667   1.358  4.0027 -1.0961 -0.1849
  178MOL0     H23987   3.474   5.706   1.519  0.3653  2.0524  0.0668
  178MOL0     H23988   3.663   5.556   1.616  2.1022  2.8425 -0.9822
  178MOL0     H23989   3.699   5.502   1.453  1.7755 -1.1105  1.8775
  178MOL0     H23990   3.335   5.284   1.471 -0.5325  1.1924 -0.1137
  178MOL0     H23991   3.313   4.941   1.537 -0.1577 -0.5125  0.9648
  178MOL0     H23992   3.223   5.027   1.667 -0.7180  1.0678 -0.4441
  178MOL0     H23993   3.210   5.079   1.505 -1.7448 -0.8980  1.2295
  178MOL0     H23994   3.529   4.691   1.549  1.3283  1.1518  2.5990
  178MOL0     H23995   3.542   4.446   1.568  0.0528 -2.0117  1.2367
  178MOL0     H23996   3.267   4.213   1.823 -0.7563 -0.7303  0.5102
  178MOL0     H23997   3.265   4.242   1.651 -1.6853  1.5906  2.2462
  178MOL0     H23998   3.460   4.068   1.647 -0.0045  3.2926  0.3135
  178MOL0     H23999   3.433   4.048   1.823 -0.3412 -0.5864  1.4375
  178MOL0     H24000   3.240   3.987   1.585  3.3625  1.2423 -1.8767
  178MOL0     H24001   3.187   3.975   1.751  0.2023  2.8567 -0.5988
  178MOL0     H24002   3.384   3.812   1.813 -1.1329 -1.4881  0.8921
  178MOL0     H24003   3.237   3.768   1.737  0.0098  0.8641  0.5186
  178MOL0     H24004   3.499   3.829   1.582 -0.3937  2.6581  2.3216
  178MOL0     H24005   3.340   3.789   1.502 -0.2006 -4.0665  1.6781
  178MOL0     H24006   3.483   3.599   1.695  0.1516 -0.1350 -0.2014
  178MOL0     H24007   3.334   3.579   1.587 -0.2617 -0.8443 -1.5565
  178MOL0     H24008   3.488   3.634   1.388  1.9222 -1.4115 -0.5112
  178MOL0     H24009   3.520   3.482   1.478 -1.1497 -0.1786 -0.4833
  178MOL0     H24010   3.686   3.737   1.517  0.6738  0.2875  1.1723
  178MOL0     H24011   3.706   3.616   1.398  0.5170  1.1540 -0.1681
  178MOL0     H24012   3.314   4.436   1.921 -1.1968 -2.1746 -2.3510
  178MOL0     H24013   3.295   4.676   1.918 -0.1038  2.7700 -1.8204
  178MOL0     H24014   3.702   5.119   1.760  0.4303  1.1085  0.2272
  178MOL0     H24015   3.697   5.358   1.694  1.5902 -1.5326 -0.7402
  178MOL0     H24016   5.220   5.752   1.613 -1.5196  1.3697  0.0663
  178MOL0     H24017   5.411   5.651   1.461 -0.0828 -2.7073 -1.2861
  178MOL0     H24018   5.499   5.554   0.832  0.1917  2.1488  1.1261
  178MOL0     H24019   5.673   5.397   0.744 -1.6314 -0.9865 -0.4562
  178MOL0     H24020   5.916   5.299   0.768 -3.2638 -1.1432 -1.0583
  178MOL0     H24021   5.968   5.274   0.940  1.9009 -0.6518 -0.5996
  178MOL0     H24022   5.972   5.054   0.722  2.8552 -0.8941 -0.3625
  178MOL0     H24023   6.002   5.032   0.898 -1.4865  0.9713  0.6131
  178MOL0     H24024   6.202   5.189   0.886 -2.6800  1.6661 -0.1634
  178MOL0     H24025   6.160   5.214   0.715 -0.5422  0.8231  1.1000
  178MOL0     H24026   6.221   4.985   0.662 -1.0587 -0.3038  0.1015
  178MOL0     H24027   6.220   4.940   0.839  1.2434 -1.4012 -0.7739
  178MOL0     H24028   6.615   5.066   0.850  0.5480 -2.6216  3.1940
  178MOL0     H24029   5.741   5.229   1.121  0.2893  1.1294  1.6446
  178MOL0     H24030   5.586   5.391   1.237 -1.7046  1.9324 -0.0025
  179MOL0     O24031  10.641   6.836   4.651  0.1821 -0.4028 -0.3835
  179MOL0     C24032  10.669   6.771   4.552 -0.5516 -0.8577  1.0052
  179MOL0     O24033  10.597   6.769   4.436  0.7896 -0.1135  0.0488
  179MOL0     C24034  10.468   6.825   4.433 -0.5472 -1.0052 -0.2270
  179MOL0     C24035  10.428   6.906   4.331 -0.2089 -0.6859 -0.4282
  179MOL0     C24036  10.303   6.963   4.329  0.7398  0.4517 -0.9235
  179MOL0     C24037  10.213   6.930   4.423  0.9387  0.2945 -0.3560
  179MOL0     O24038  10.090   6.989   4.422  0.4645  0.7189  0.1425
  179MOL0     C24039  10.031   7.029   4.298  0.2266 -0.3127  0.0231
  179MOL0     C24040   9.898   7.096   4.349  0.4668  0.4406 -1.0580
  179MOL0     C24041   9.798   6.997   4.402 -0.6800 -0.2398  0.2916
  179MOL0     C24042   9.679   7.076   4.469  0.4786 -0.4144  0.0430
  179MOL0     C24043   9.576   6.979   4.515 -1.2555  1.0581  0.3197
  179MOL0     C24044   9.449   7.041   4.573  0.3067 -0.3494  0.5536
  179MOL0     C24045   9.485   7.140   4.689  0.0826 -0.1094 -0.3413
  179MOL0     C24046   9.354   7.173   4.771  0.1971  0.1908 -0.0750
  179MOL0     N24047   9.242   7.219   4.689  0.2082 -0.0159  0.1261
  179MOL0     C24048   9.248   7.341   4.620 -0.5623  0.0910 -1.0416
  179MOL0     C24049   9.121   7.365   4.598  0.4914  0.4373  0.6834
  179MOL0     C24050   9.060   7.460   4.494 -1.6064  0.0806 -0.0215
  179MOL0     C24051   9.055   7.601   4.554  0.6683  0.7066  0.3915
  179MOL0     C24052   9.032   7.706   4.449 -1.0793  0.3805 -0.0969
  179MOL0     C24053   8.970   7.832   4.498 -0.0281 -0.2933  0.2406
  179MOL0     O24054   8.913   7.915   4.393 -0.2370  0.2276 -0.5295
  179MOL0     C24055   8.780   7.930   4.390 -0.4503 -0.0213 -0.5633
  179MOL0     C24056   8.686   7.836   4.373  0.1121  0.7941  0.1442
  179MOL0     C24057   8.548   7.859   4.372 -0.2263 -0.1554 -0.3584
  179MOL0     C24058   8.465   7.735   4.337 -0.1551  0.0685 -0.6301
  179MOL0     C24059   8.504   7.993   4.386 -0.8023  1.0577 -0.1989
  179MOL0     C24060   8.363   8.033   4.391  0.1350 -1.1408  0.5765
  179MOL0     O24061   8.342   8.165   4.405 -0.2337  0.1086  0.0703
  179MOL0     C24062   8.221   8.226   4.392 -0.0782  0.3564 -0.4567
  179MOL0     C24063   8.136   8.200   4.276 -0.5618 -0.6818  0.0640
  179MOL0     C24064   8.005   8.256   4.269 -0.1245  0.1452 -0.6079
  179MOL0     C24065   7.958   8.330   4.378 -0.5871  0.1192 -0.2605
  179MOL0     O24066   7.835   8.392   4.362 -0.1512  0.1859  0.3073
  179MOL0     C24067   7.751   8.395   4.476 -0.0321  0.2921  0.3313
  179MOL0     C24068   7.607   8.417   4.435  0.2524  0.1953  0.7049
  179MOL0     C24069   7.515   8.363   4.546  0.3042 -1.2916  0.3006
  179MOL0     C24070   7.363   8.366   4.511 -0.1536 -0.4866 -0.2160
  179MOL0     C24071   7.311   8.505   4.523  0.6574 -0.2011 -0.1744
  179MOL0     C24072   7.165   8.513   4.505 -0.4605  0.6563  0.7425
  179MOL0     C24073   7.106   8.654   4.504 -0.2553  0.5406 -0.7223
  179MOL0     C24074   7.097   8.722   4.644 -0.0669 -0.2094 -0.1298
  179MOL0    Cl24075   6.992   8.850   4.635  0.2559 -0.0557  0.2585
  179MOL0     C24076   8.046   8.351   4.488  0.6851 -0.1339  0.2995
  179MOL0     C24077   8.174   8.303   4.497  0.3877 -0.0610 -0.3852
  179MOL0     O24078   8.282   7.944   4.393  0.0871 -0.1992 -0.2743
  179MOL0     C24079   8.604   8.085   4.417 -0.0080 -0.0094 -0.2219
  179MOL0     C24080   8.736   8.056   4.420 -0.7552  0.1995  0.0069
  179MOL0     N24081   9.043   7.266   4.654  0.5141  0.1838  0.3050
  179MOL0     N24082   9.116   7.174   4.703 -0.3415  0.3645 -0.3415
  179MOL0     C24083  10.244   6.837   4.522  0.4583 -0.2168 -1.0747
  179MOL0     C24084  10.370   6.782   4.520  0.6632 -0.5201  0.0566
  179MOL0     C24085  10.797   6.696   4.561  0.4500  0.1430 -0.0145
  179MOL0     C24086  10.854   6.648   4.442 -0.7141 -0.0721 -1.3220
  179MOL0     C24087  10.974   6.574   4.447  0.3699 -0.2185 -0.7232
  179MOL0     C24088  11.040   6.546   4.575 -0.0909 -0.7943  0.0690
  179MOL0     O24089  11.159   6.475   4.582 -0.1526 -0.6864 -0.2647
  179MOL0     C24090  11.260   6.501   4.688  0.2420 -0.7181 -0.8937
  179MOL0     C24091  11.392   6.444   4.655 -0.7085  0.0201  0.1775
  179MOL0     C24092  11.400   6.291   4.668 -0.2632 -0.4081  0.2744
  179MOL0     C24093  11.528   6.233   4.612  0.8083 -0.0022 -0.2530
  179MOL0     C24094  11.630   6.241   4.721  0.4015  0.4403 -0.0882
  179MOL0     C24095  11.719   6.240   4.805 -0.1193  1.4503  1.2050
  179MOL0     C24096  10.978   6.606   4.693  0.0311 -0.3849  0.1209
  179MOL0     C24097  10.857   6.672   4.683  0.0865 -0.4140  1.2027
  179MOL0     H24098  10.487   6.948   4.250  1.0536 -0.3163  0.6364
  179MOL0     H24099  10.283   7.035   4.251 -0.3325  1.7781  0.5105
  179MOL0     H24100  10.093   7.104   4.248 -1.3240  1.0361  0.0169
  179MOL0     H24101  10.021   6.948   4.225  0.6427  0.6463 -1.1381
  179MOL0     H24102   9.919   7.165   4.432 -1.8581  0.5765 -0.5305
  179MOL0     H24103   9.865   7.155   4.264 -0.4290 -1.3403 -2.0005
  179MOL0     H24104   9.756   6.934   4.323 -0.4742 -2.7939  2.1048
  179MOL0     H24105   9.847   6.935   4.478  2.0282  1.9951  0.5318
  179MOL0     H24106   9.705   7.137   4.556 -0.3290 -0.3929  0.2762
  179MOL0     H24107   9.631   7.129   4.386  0.4758 -2.3437 -1.2468
  179MOL0     H24108   9.547   6.920   4.427  1.7426 -1.0742  0.6308
  179MOL0     H24109   9.621   6.914   4.590 -0.7497  0.1510 -0.7315
  179MOL0     H24110   9.412   7.104   4.491 -1.9443  0.4439  2.0815
  179MOL0     H24111   9.370   6.970   4.598 -0.5720 -0.1528 -1.4254
  179MOL0     H24112   9.559   7.097   4.757 -0.9617 -1.4725 -0.0246
  179MOL0     H24113   9.519   7.240   4.659 -1.2110  0.2798 -0.5665
  179MOL0     H24114   9.367   7.246   4.852  0.6770  3.3353 -2.7648
  179MOL0     H24115   9.326   7.078   4.817  4.3533 -1.1564  0.0534
  179MOL0     H24116   9.336   7.395   4.586 -0.2121  1.4162  1.6750
  179MOL0     H24117   9.132   7.466   4.411  1.1377  1.0153  2.2642
  179MOL0     H24118   8.962   7.435   4.452 -0.1568 -0.3622 -3.5438
  179MOL0     H24119   9.143   7.624   4.614  1.3698  1.4490 -0.8709
  179MOL0     H24120   8.974   7.608   4.628  1.0056 -2.6134  1.2156
  179MOL0     H24121   8.975   7.666   4.365  1.3429 -1.1868 -1.1179
  179MOL0     H24122   9.129   7.738   4.410 -0.2658 -2.1183 -0.3313
  179MOL0     H24123   9.050   7.888   4.548  1.6290 -1.4541 -0.9723
  179MOL0     H24124   8.894   7.810   4.573 -0.0417 -1.2939 -0.0585
  179MOL0     H24125   8.728   7.736   4.367  1.7457  1.5586 -2.9960
  179MOL0     H24126   8.410   7.701   4.426  1.8632 -1.7932 -0.0051
  179MOL0     H24127   8.394   7.765   4.259 -0.2540  1.8305  0.0980
  179MOL0     H24128   8.525   7.650   4.304 -0.0533 -0.5856  1.1211
  179MOL0     H24129   8.184   8.135   4.204  3.5328  0.8296  1.1239
  179MOL0     H24130   7.946   8.238   4.180 -0.2182 -2.5355 -0.0744
  179MOL0     H24131   7.747   8.303   4.535 -0.7072  0.3013  0.3077
  179MOL0     H24132   7.779   8.478   4.542  0.8247 -1.0287  1.7030
  179MOL0     H24133   7.597   8.525   4.422  1.4631  0.2656  0.2901
  179MOL0     H24134   7.589   8.370   4.338 -1.2132 -1.3620  1.6595
  179MOL0     H24135   7.545   8.409   4.641  4.1827 -0.8827 -0.9313
  179MOL0     H24136   7.529   8.255   4.548 -2.6003 -1.7573  3.2231
  179MOL0     H24137   7.357   8.334   4.406  3.0983 -2.4026  0.0347
  179MOL0     H24138   7.321   8.290   4.576 -1.0073  0.9799  1.0091
  179MOL0     H24139   7.367   8.567   4.452 -1.5697  0.1964 -1.6795
  179MOL0     H24140   7.335   8.554   4.618 -0.5142 -1.4572  0.8104
  179MOL0     H24141   7.147   8.467   4.408  0.1763 -1.5600  1.6193
  179MOL0     H24142   7.132   8.456   4.592  1.5354  0.5752  1.5047
  179MOL0     H24143   7.003   8.640   4.468 -0.1515 -2.1625 -0.2059
  179MOL0     H24144   7.163   8.718   4.436  3.5250 -0.4011  1.3496
  179MOL0     H24145   7.198   8.743   4.681 -0.7830 -0.0893  1.8423
  179MOL0     H24146   7.059   8.649   4.716  1.6611  0.6184  1.7087
  179MOL0     H24147   8.011   8.410   4.571  1.9722  2.0284 -0.6132
  179MOL0     H24148   8.231   8.308   4.590 -0.3839 -1.0688  0.1587
  179MOL0     H24149   8.576   8.190   4.426 -0.3177 -0.1886  1.1092
  179MOL0     H24150   8.807   8.137   4.436 -0.7798  0.3524 -0.6109
  179MOL0     H24151  10.161   6.810   4.588  2.0033 -2.5540  0.0421
  179MOL0     H24152  10.401   6.715   4.600  0.2159 -1.2809 -0.3898
  179MOL0     H24153  10.826   6.683   4.343  1.5689 -2.0213 -2.7603
  179MOL0     H24154  11.021   6.532   4.359  0.2839 -1.2620 -0.2820
  179MOL0     H24155  11.273   6.609   4.684 -2.0651 -0.2237  1.8065
  179MOL0     H24156  11.230   6.480   4.791  0.1373 -1.2846 -1.0370
  179MOL0     H24157  11.471   6.490   4.715 -1.0983  0.5684  0.2772
  179MOL0     H24158  11.419   6.467   4.552 -1.0237 -0.1000  0.0678
  179MOL0     H24159  11.320   6.253   4.604 -0.2689  1.1992 -0.7197
  179MOL0     H24160  11.384   6.249   4.768  0.4699 -0.5111  0.3538
  179MOL0     H24161  11.563   6.284   4.522 -2.4509  0.1322 -1.5709
  179MOL0     H24162  11.518   6.126   4.591  0.0243 -0.8142  3.4410
  179MOL0     H24163  11.790   6.225   4.884 -0.0368  0.0691  0.8938
  179MOL0     H24164  11.026   6.572   4.784  1.2895 -1.4230 -0.8966
  179MOL0     H24165  10.805   6.693   4.777 -1.1966 -0.1028  0.4432
  180MOL0     O24166   4.907   6.571   4.848 -0.7082  0.0674 -0.5330
  180MOL0     C24167   4.925   6.693   4.858 -0.7661  0.1702  0.3590
  180MOL0     O24168   4.840   6.787   4.900 -0.1791  0.5194 -0.0889
  180MOL0     C24169   4.719   6.747   4.938 -0.1176  0.4799  0.2870
  180MOL0     C24170   4.689   6.746   5.080 -0.5295 -0.3032 -0.1929
  180MOL0     C24171   4.562   6.713   5.125 -0.6065  0.8723  0.0098
  180MOL0     C24172   4.463   6.700   5.032  0.8198  0.2119  0.7685
  180MOL0     O24173   4.339   6.672   5.086 -0.3639  0.2034 -0.4169
  180MOL0     C24174   4.219   6.652   4.995  0.3833 -0.6127  0.5469
  180MOL0     C24175   4.091   6.631   5.076 -0.2195 -0.4113 -0.7483
  180MOL0     C24176   3.957   6.598   4.990 -1.0939  0.0825 -0.1966
  180MOL0     C24177   3.853   6.537   5.090 -0.1552 -0.2886  0.1086
  180MOL0     C24178   3.706   6.574   5.059 -0.6311  0.2766  0.1298
  180MOL0     C24179   3.623   6.474   5.135  0.1176  0.6565  0.1835
  180MOL0     C24180   3.469   6.502   5.142  0.6559 -0.8201  0.2513
  180MOL0     C24181   3.399   6.531   5.015  0.2102 -0.8464  0.8490
  180MOL0     N24182   3.264   6.579   5.045  0.6249 -0.0691  0.4454
  180MOL0     C24183   3.165   6.505   5.105 -0.1462 -0.2200 -0.6379
  180MOL0     C24184   3.062   6.594   5.124  0.2582 -0.2721 -0.1841
  180MOL0     C24185   2.933   6.561   5.191  0.2358  0.4511 -1.0233
  180MOL0     C24186   2.805   6.591   5.108 -0.8833  0.0551 -1.0173
  180MOL0     C24187   2.790   6.487   4.998 -1.1544  0.7296 -0.4356
  180MOL0     C24188   2.715   6.543   4.874 -0.6598  0.3120 -0.6480
  180MOL0     O24189   2.587   6.599   4.912  1.0818  0.3208 -0.1241
  180MOL0     C24190   2.500   6.647   4.810  0.0443 -0.7299  0.8015
  180MOL0     C24191   2.367   6.661   4.846 -0.3366 -0.8790 -1.2323
  180MOL0     C24192   2.277   6.711   4.748  0.3492  0.1308 -0.6750
  180MOL0     C24193   2.131   6.715   4.800 -0.4637  0.0071 -0.3921
  180MOL0     C24194   2.315   6.744   4.619 -0.6961  0.1763  0.2603
  180MOL0     C24195   2.224   6.803   4.518 -0.0662  0.2000  1.0913
  180MOL0     O24196   2.095   6.849   4.549  0.5787 -0.6437  0.9362
  180MOL0     C24197   2.020   6.920   4.455  0.1043  0.6688  0.0078
  180MOL0     C24198   1.897   6.955   4.503  0.4100  0.8571 -0.3588
  180MOL0     C24199   1.798   7.025   4.430 -0.9780 -0.0845 -0.3640
  180MOL0     C24200   1.826   7.077   4.301  0.3672  0.2576 -0.8326
  180MOL0     O24201   1.734   7.145   4.230  0.3320 -0.3869  0.3377
  180MOL0     C24202   1.733   7.138   4.082  0.1393  0.5251  0.6747
  180MOL0     C24203   1.604   7.217   4.032 -0.9321 -0.0201  0.5406
  180MOL0     C24204   1.472   7.169   4.109  0.4222 -0.1800  0.0104
  180MOL0     C24205   1.337   7.218   4.039  0.2126 -0.0323  0.4809
  180MOL0     C24206   1.320   7.364   4.020  0.4238  0.3583  0.0239
  180MOL0     C24207   1.202   7.396   3.923  0.1079 -0.2794  0.3392
  180MOL0     C24208   1.206   7.539   3.856 -0.6150  0.5328  0.9816
  180MOL0     C24209   1.131   7.644   3.942 -0.9823  0.2801 -0.8293
  180MOL0    Cl24210   0.952   7.606   3.982 -0.0042  0.4216 -0.2346
  180MOL0     C24211   1.948   7.026   4.246 -0.0012  0.3845  0.0533
  180MOL0     C24212   2.044   6.953   4.318  0.2219  0.2092  0.1069
  180MOL0     O24213   2.284   6.823   4.415  0.6486 -0.6474  0.5314
  180MOL0     C24214   2.451   6.727   4.586 -0.4658 -0.1128 -0.1886
  180MOL0     C24215   2.540   6.684   4.678  0.4681 -0.1689  0.0098
  180MOL0     N24216   3.097   6.715   5.067 -0.5815 -0.0310  0.0704
  180MOL0     N24217   3.219   6.705   5.023  0.4535  0.5284  0.4006
  180MOL0     C24218   4.484   6.711   4.890 -0.0538  0.9264  0.6995
  180MOL0     C24219   4.614   6.729   4.851 -0.1171  0.6872  1.0180
  180MOL0     C24220   5.064   6.734   4.835  0.3115  1.1465 -0.3794
  180MOL0     C24221   5.082   6.862   4.777  0.0567 -0.1929 -0.0645
  180MOL0     C24222   5.213   6.904   4.748 -0.4629 -0.1694  0.1824
  180MOL0     C24223   5.324   6.816   4.762 -0.9037 -1.1668  0.2516
  180MOL0     O24224   5.454   6.875   4.745  0.2934 -0.3376 -0.7201
  180MOL0     C24225   5.555   6.782   4.694  0.0010 -0.4528  0.5724
  180MOL0     C24226   5.654   6.858   4.616 -0.5805  0.0116 -0.7288
  180MOL0     C24227   5.785   6.791   4.584 -0.3525 -1.0580 -0.4968
  180MOL0     C24228   5.778   6.636   4.569 -0.1741 -0.2514  0.3091
  180MOL0     C24229   5.778   6.566   4.702 -0.0082 -0.1489 -0.3795
  180MOL0     C24230   5.770   6.508   4.811  0.2708 -0.9693 -0.3526
  180MOL0     C24231   5.303   6.691   4.810  0.6917  0.1979  0.4386
  180MOL0     C24232   5.177   6.648   4.852 -0.3047  0.0133 -0.0703
  180MOL0     H24233   4.776   6.759   5.143 -0.2046 -1.6613 -0.3300
  180MOL0     H24234   4.537   6.717   5.230 -0.1685  0.5297  0.1322
  180MOL0     H24235   4.210   6.734   4.923  1.1781 -1.8493 -1.0155
  180MOL0     H24236   4.240   6.563   4.935 -0.0436  0.1208 -0.7415
  180MOL0     H24237   4.113   6.560   5.156  1.1768 -1.1045 -1.6970
  180MOL0     H24238   4.053   6.723   5.122 -2.7484 -2.3394  1.3571
  180MOL0     H24239   3.911   6.687   4.948 -1.2987  0.5381  0.9560
  180MOL0     H24240   3.979   6.513   4.924 -0.4040 -1.2269  1.6167
  180MOL0     H24241   3.876   6.430   5.094 -0.0737 -0.3105 -0.6965
  180MOL0     H24242   3.871   6.590   5.184  0.7285 -0.4985  0.0683
  180MOL0     H24243   3.698   6.677   5.094  3.3446  0.6226  0.5266
  180MOL0     H24244   3.682   6.566   4.953 -0.8148 -0.6918  0.2353
  180MOL0     H24245   3.634   6.371   5.098 -0.5340  1.4066 -2.3136
  180MOL0     H24246   3.651   6.474   5.241 -0.1061  1.4708  0.2498
  180MOL0     H24247   3.407   6.424   5.189 -2.1983 -0.0001 -1.8433
  180MOL0     H24248   3.463   6.587   5.211  4.8492  1.5543 -1.9360
  180MOL0     H24249   3.401   6.442   4.950 -1.1998 -1.0054  0.9930
  180MOL0     H24250   3.435   6.616   4.957 -3.5911  0.8725  0.7349
  180MOL0     H24251   3.165   6.401   5.135  2.3435  0.1242  0.8051
  180MOL0     H24252   2.929   6.456   5.223  2.5061  0.8702  0.9904
  180MOL0     H24253   2.932   6.607   5.290 -0.9947 -0.1764 -0.7152
  180MOL0     H24254   2.828   6.691   5.070  1.5310  0.4110  1.0918
  180MOL0     H24255   2.714   6.590   5.169 -1.1337 -0.5502 -1.3962
  180MOL0     H24256   2.729   6.401   5.029 -0.9088 -0.1164 -2.1292
  180MOL0     H24257   2.891   6.451   4.976  0.8468  2.8880  4.0623
  180MOL0     H24258   2.709   6.465   4.799  0.3450 -0.0935 -0.3150
  180MOL0     H24259   2.774   6.630   4.842 -0.8880  0.7779  0.1504
  180MOL0     H24260   2.334   6.638   4.947 -0.9036  4.5205  0.1560
  180MOL0     H24261   2.116   6.648   4.885  2.6653 -0.3888 -0.0549
  180MOL0     H24262   2.088   6.815   4.812 -2.5472 -0.5331 -2.5400
  180MOL0     H24263   2.067   6.663   4.728 -2.2068  0.6347  0.6383
  180MOL0     H24264   1.868   6.909   4.597  3.7350  1.1211  0.9540
  180MOL0     H24265   1.697   7.025   4.470  0.0515 -1.6707  2.5168
  180MOL0     H24266   1.825   7.183   4.045 -0.5135  1.7357  0.4848
  180MOL0     H24267   1.713   7.031   4.069  0.0922  0.3758  1.8625
  180MOL0     H24268   1.627   7.323   4.050  0.9698 -0.2025 -0.4790
  180MOL0     H24269   1.586   7.198   3.926 -1.9730  0.1931  0.6683
  180MOL0     H24270   1.475   7.206   4.212 -2.6593 -0.8980  0.4712
  180MOL0     H24271   1.466   7.060   4.105  2.8603 -0.4474  1.4702
  180MOL0     H24272   1.343   7.167   3.943 -0.5173  1.4214 -0.3665
  180MOL0     H24273   1.259   7.171   4.099  2.5446 -0.7960  3.1573
  180MOL0     H24274   1.403   7.411   3.966 -1.5205  1.9295 -1.7839
  180MOL0     H24275   1.307   7.435   4.102  3.1569  2.7154 -1.4071
  180MOL0     H24276   1.182   7.321   3.846 -1.5755 -1.8523  2.2265
  180MOL0     H24277   1.112   7.372   3.979  2.5904 -4.5448  3.0334
  180MOL0     H24278   1.159   7.539   3.758  2.2958 -1.9123 -0.5987
  180MOL0     H24279   1.309   7.568   3.834 -0.4542 -1.5472 -1.4603
  180MOL0     H24280   1.132   7.740   3.890 -1.3484  0.2660 -0.8610
  180MOL0     H24281   1.191   7.661   4.032 -1.3974 -0.9907 -0.2916
  180MOL0     H24282   1.982   7.048   4.145 -0.5472  1.6104  0.1271
  180MOL0     H24283   2.136   6.923   4.269  2.7996  4.0550  2.0586
  180MOL0     H24284   2.487   6.743   4.484 -1.5586  0.5274 -0.4931
  180MOL0     H24285   2.644   6.669   4.651  0.6326 -0.8185  0.9330
  180MOL0     H24286   4.413   6.707   4.808  1.2347  2.0356 -0.5367
  180MOL0     H24287   4.648   6.741   4.748  0.6040 -1.7931  0.9112
  180MOL0     H24288   5.001   6.934   4.777  1.4162  1.4174  1.2322
  180MOL0     H24289   5.227   7.004   4.709 -3.5927  0.6270  0.7856
  180MOL0     H24290   5.597   6.739   4.785 -1.3632 -1.9030  0.5562
  180MOL0     H24291   5.503   6.710   4.629 -0.6789  1.3414 -0.9588
  180MOL0     H24292   5.667   6.953   4.670 -0.8929  0.1221 -0.8470
  180MOL0     H24293   5.611   6.889   4.521 -2.3592 -0.7196 -0.1925
  180MOL0     H24294   5.852   6.820   4.665  0.4961 -1.6291 -0.9739
  180MOL0     H24295   5.823   6.833   4.490 -1.0499  1.6781  0.3743
  180MOL0     H24296   5.865   6.600   4.512 -2.3137 -4.0923 -0.9245
  180MOL0     H24297   5.697   6.601   4.504 -0.9668 -3.5516  2.8241
  180MOL0     H24298   5.769   6.456   4.905 -0.9223 -0.8584 -0.2974
  180MOL0     H24299   5.375   6.611   4.813 -0.1544 -0.6021  0.0205
  180MOL0     H24300   5.165   6.551   4.900  3.4637 -0.6539 -0.1537
  181MOL0     O24301   7.873   0.354   6.736  0.3085 -0.7353 -0.2067
  181MOL0     C24302   7.918   0.241   6.770  1.3776 -0.9453 -0.1841
  181MOL0     O24303   7.839   0.134   6.817  0.4501  0.3662  0.4402
  181MOL0     C24304   7.700   0.161   6.847 -1.2254  0.1864 -0.3516
  181MOL0     C24305   7.650   0.095   6.959 -0.2183 -0.1808 -0.6633
  181MOL0     C24306   7.512   0.102   6.984  0.4646  0.5537  0.4140
  181MOL0     C24307   7.426   0.168   6.898  0.0083  0.5165 -0.0081
  181MOL0     O24308   7.290   0.174   6.915  0.2471  0.8689  0.2217
  181MOL0     C24309   7.257   0.206   7.050  0.5360  0.2127 -0.2380
  181MOL0     C24310   7.105   0.248   7.065  0.3403 -0.1489 -0.6539
  181MOL0     C24311   6.998   0.133   7.049  0.1539 -0.4111  0.0912
  181MOL0     C24312   6.963   0.048   7.167  0.0413 -0.4986  0.7303
  181MOL0     C24313   7.076   0.018   7.275  0.0939  0.7534  0.3387
  181MOL0     C24314   7.151  -0.110   7.248 -0.1195  0.6248 -0.9118
  181MOL0     C24315   7.209  -0.178   7.374 -0.0178 -0.4184  0.1049
  181MOL0     C24316   7.292  -0.306   7.346  0.1807  0.5484  1.0265
  181MOL0     N24317   7.359  -0.364   7.461  0.0946  0.0598  0.1896
  181MOL0     C24318   7.352  -0.503   7.496  0.5985 -1.0675 -0.1761
  181MOL0     C24319   7.462  -0.526   7.563 -0.1513  0.4961 -0.3998
  181MOL0     C24320   7.513  -0.649   7.618 -0.1263  0.3246 -0.2313
  181MOL0     C24321   7.613  -0.714   7.527  0.3010 -0.8269 -0.3649
  181MOL0     C24322   7.688  -0.828   7.592 -0.8253 -0.4243 -1.3915
  181MOL0     C24323   7.808  -0.870   7.511 -0.0105  0.5576  0.4243
  181MOL0     O24324   7.901  -0.921   7.606  0.2137  0.3490  0.0578
  181MOL0     C24325   8.020  -0.962   7.563 -0.6422  0.9345  0.6806
  181MOL0     C24326   8.067  -0.982   7.427 -0.1371  0.1939  0.9621
  181MOL0     C24327   8.207  -1.018   7.400  1.5480  0.1387 -0.1710
  181MOL0     C24328   8.249  -1.028   7.256  0.2358 -0.3411  0.3598
  181MOL0     C24329   8.284  -1.049   7.508  0.3629 -0.1974 -0.6473
  181MOL0     C24330   8.430  -1.078   7.499  0.1170  0.1844 -0.2316
  181MOL0     O24331   8.487  -1.128   7.616 -0.4294  0.6928  0.3586
  181MOL0     C24332   8.619  -1.151   7.626 -0.8734 -0.9477  0.5057
  181MOL0     C24333   8.692  -1.211   7.523 -0.0411 -0.2277 -0.4473
  181MOL0     C24334   8.820  -1.250   7.550  0.1785 -0.2107 -0.1818
  181MOL0     C24335   8.892  -1.208   7.657  0.3052  0.8540 -0.0952
  181MOL0     O24336   9.031  -1.243   7.658  0.5371 -0.3780 -0.1441
  181MOL0     C24337   9.117  -1.193   7.760 -0.1312  0.5346 -0.6956
  181MOL0     C24338   9.227  -1.302   7.769 -0.7863  0.4734  0.4220
  181MOL0     C24339   9.327  -1.260   7.886 -0.6333  0.4315 -0.1426
  181MOL0     C24340   9.426  -1.379   7.915 -0.2871 -1.5418  0.1537
  181MOL0     C24341   9.560  -1.347   7.985  0.2393 -0.3489  0.0349
  181MOL0     C24342   9.654  -1.284   7.887 -0.4284  0.3749 -0.0150
  181MOL0     C24343   9.789  -1.246   7.951  0.8302 -0.1672 -0.3158
  181MOL0     C24344   9.772  -1.140   8.064 -0.0813  0.8843  0.5483
  181MOL0    Cl24345   9.929  -1.064   8.091 -0.1202  0.4741  0.0580
  181MOL0     C24346   8.821  -1.134   7.755  0.1264 -0.2676 -0.1042
  181MOL0     C24347   8.683  -1.119   7.740 -0.6208  0.5336 -0.4513
  181MOL0     O24348   8.496  -1.058   7.394  0.3826 -0.0542 -0.2729
  181MOL0     C24349   8.233  -1.036   7.639 -0.7441  0.0915  0.2007
  181MOL0     C24350   8.099  -0.998   7.671 -0.0945  0.0996  0.0949
  181MOL0     N24351   7.538  -0.408   7.576  0.4014  0.2687 -1.0284
  181MOL0     N24352   7.476  -0.320   7.507  0.0328 -0.6332 -0.1469
  181MOL0     C24353   7.476   0.227   6.785  0.0553  0.5589 -0.5542
  181MOL0     C24354   7.611   0.222   6.760  0.2242 -0.3248  0.4648
  181MOL0     C24355   8.065   0.220   6.779 -0.4457  0.1375 -0.0508
  181MOL0     C24356   8.149   0.335   6.761  0.3765  0.2137 -0.4294
  181MOL0     C24357   8.282   0.324   6.758 -0.1345 -0.0986 -0.9888
  181MOL0     C24358   8.341   0.199   6.795 -0.5450  0.1128 -0.1639
  181MOL0     O24359   8.480   0.206   6.796  0.3431  0.3459  0.3071
  181MOL0     C24360   8.560   0.089   6.820  0.6642  0.1293  0.0458
  181MOL0     C24361   8.694   0.105   6.762 -0.0368 -0.4175  1.2445
  181MOL0     C24362   8.783  -0.017   6.759  0.2974 -0.2092  0.5643
  181MOL0     C24363   8.789  -0.084   6.898 -0.2784  0.5823 -0.7440
  181MOL0     C24364   8.887  -0.195   6.871 -0.8603 -0.2430 -0.3341
  181MOL0     C24365   8.974  -0.276   6.865  0.6784  0.1116 -0.0890
  181MOL0     C24366   8.264   0.091   6.828 -0.2896  0.9411 -0.6065
  181MOL0     C24367   8.127   0.097   6.823  0.3081 -0.2167  0.9603
  181MOL0     H24368   7.718   0.047   7.028 -0.3555  0.2827 -0.1935
  181MOL0     H24369   7.476   0.053   7.074  0.5109  0.7662  0.5479
  181MOL0     H24370   7.287   0.118   7.107 -0.4121 -1.0554 -1.6028
  181MOL0     H24371   7.323   0.288   7.078  0.3294  0.8777 -1.6093
  181MOL0     H24372   7.093   0.288   7.167 -2.1857  1.4114 -1.4821
  181MOL0     H24373   7.079   0.332   7.001  1.8926  1.3162  0.5210
  181MOL0     H24374   6.900   0.164   7.012 -1.2408 -3.3247  1.1109
  181MOL0     H24375   7.039   0.062   6.977 -1.4671 -1.1046 -0.1838
  181MOL0     H24376   6.891   0.108   7.225 -1.0889 -0.8390 -0.2905
  181MOL0     H24377   6.903  -0.036   7.133 -1.8955  0.6969  1.0244
  181MOL0     H24378   7.151   0.095   7.297 -1.4652  2.0675  1.3372
  181MOL0     H24379   7.023  -0.012   7.365  1.0057 -0.9100  0.3521
  181MOL0     H24380   7.081  -0.187   7.214  0.9363  0.2006 -2.2344
  181MOL0     H24381   7.229  -0.091   7.174  0.5047  1.2744 -0.1109
  181MOL0     H24382   7.279  -0.107   7.419  0.9046 -0.1773 -1.6303
  181MOL0     H24383   7.136  -0.200   7.452  0.9166  0.7789  1.3601
  181MOL0     H24384   7.364  -0.284   7.267  0.4009 -3.8060 -0.2529
  181MOL0     H24385   7.219  -0.375   7.302  3.2140 -1.3009 -1.5764
  181MOL0     H24386   7.278  -0.575   7.461  1.3160 -1.6655 -0.4846
  181MOL0     H24387   7.554  -0.632   7.718 -2.2359 -1.9045  1.1237
  181MOL0     H24388   7.437  -0.726   7.635  0.3112  0.2624  1.7023
  181MOL0     H24389   7.689  -0.638   7.507 -1.2242  0.2012 -2.5572
  181MOL0     H24390   7.566  -0.753   7.437 -1.2596 -4.3321  1.7475
  181MOL0     H24391   7.631  -0.918   7.618 -0.6605 -0.6884 -1.9385
  181MOL0     H24392   7.735  -0.791   7.684 -1.8002 -1.4283 -0.4578
  181MOL0     H24393   7.860  -0.783   7.469 -0.5193  0.5810 -0.1606
  181MOL0     H24394   7.791  -0.943   7.432  0.7094  2.3683 -1.4976
  181MOL0     H24395   8.005  -0.956   7.341  2.6304  3.1807 -0.3272
  181MOL0     H24396   8.299  -1.122   7.234  0.5090 -0.4117  1.2434
  181MOL0     H24397   8.166  -1.016   7.185  1.0422 -0.5253 -0.6317
  181MOL0     H24398   8.317  -0.946   7.230  1.8232 -1.4833  0.8040
  181MOL0     H24399   8.646  -1.230   7.426 -0.0314  2.9242 -1.1601
  181MOL0     H24400   8.860  -1.309   7.467  0.0639  0.8593 -1.0175
  181MOL0     H24401   9.159  -1.093   7.754  0.0043  0.9469  3.5228
  181MOL0     H24402   9.060  -1.191   7.854 -1.2109 -0.5090 -1.3002
  181MOL0     H24403   9.188  -1.404   7.775 -1.1611  0.0895 -4.4546
  181MOL0     H24404   9.277  -1.305   7.672 -0.7099 -1.5341  0.4766
  181MOL0     H24405   9.274  -1.252   7.981  1.2091  0.0688  0.9643
  181MOL0     H24406   9.363  -1.160   7.862 -1.4455  0.5659 -0.8451
  181MOL0     H24407   9.366  -1.448   7.976 -4.2872  0.9271 -0.6522
  181MOL0     H24408   9.456  -1.422   7.819  0.2787 -0.2493 -0.2702
  181MOL0     H24409   9.585  -1.442   8.032  0.3130 -0.2246  0.2470
  181MOL0     H24410   9.535  -1.268   8.057 -0.7544  1.3513 -2.0701
  181MOL0     H24411   9.682  -1.361   7.815  1.0175  1.5911 -0.8000
  181MOL0     H24412   9.611  -1.201   7.830  0.0325  1.2676  0.8974
  181MOL0     H24413   9.854  -1.212   7.870  0.1793  1.1279 -0.3160
  181MOL0     H24414   9.842  -1.334   7.989 -3.0536 -3.5075 -1.8411
  181MOL0     H24415   9.741  -1.193   8.155  0.9690 -0.9086 -0.0990
  181MOL0     H24416   9.693  -1.073   8.026 -0.6411 -0.3199 -0.4728
  181MOL0     H24417   8.872  -1.100   7.844  0.5379  0.4579 -0.5997
  181MOL0     H24418   8.626  -1.073   7.821 -2.5974  0.0735 -1.5226
  181MOL0     H24419   8.289  -1.052   7.731  0.4429  1.1083 -0.3289
  181MOL0     H24420   8.063  -0.994   7.773  1.7632  4.0636  0.7906
  181MOL0     H24421   7.411   0.279   6.715 -0.2832  0.3353 -0.4059
  181MOL0     H24422   7.661   0.253   6.669  0.4915 -0.5355  0.5384
  181MOL0     H24423   8.114   0.435   6.738  2.6453  1.1004 -0.3183
  181MOL0     H24424   8.351   0.405   6.736  0.7635 -1.1515 -2.2197
  181MOL0     H24425   8.550   0.057   6.924 -0.8015  0.4970  0.0458
  181MOL0     H24426   8.515   0.007   6.761  1.3189 -1.0126  1.0948
  181MOL0     H24427   8.745   0.174   6.830  1.2894 -0.7504  0.6026
  181MOL0     H24428   8.698   0.138   6.658 -0.6918 -2.5770  0.4806
  181MOL0     H24429   8.882   0.011   6.721 -0.1196  0.7717  0.1900
  181MOL0     H24430   8.756  -0.093   6.685 -0.7779  2.2558 -1.7348
  181MOL0     H24431   8.692  -0.123   6.929  0.6430 -0.2725  1.2450
  181MOL0     H24432   8.817  -0.007   6.970  1.1157 -0.5264 -0.0486
  181MOL0     H24433   9.050  -0.352   6.866 -0.0140 -0.6489  2.4039
  181MOL0     H24434   8.322   0.004   6.857  2.9200  2.1875 -2.6962
  181MOL0     H24435   8.063   0.018   6.862 -0.5154  1.3673  2.9540
  182MOL0     O24436  11.208   7.961   1.431 -0.5304 -0.0916 -0.2407
  182MOL0     C24437  11.290   7.954   1.526  0.7836  0.1127  0.0920
  182MOL0     O24438  11.255   7.959   1.660 -0.2172 -0.1171 -0.6718
  182MOL0     C24439  11.132   7.965   1.705  0.1836 -0.7783  0.1650
  182MOL0     C24440  11.096   8.056   1.808 -0.0164 -0.4373 -0.2104
  182MOL0     C24441  10.968   8.059   1.870 -0.8970  0.3111  0.1273
  182MOL0     C24442  10.877   7.969   1.822 -0.7286  0.4144 -0.1164
  182MOL0     O24443  10.762   7.955   1.900  0.0981 -0.1664  0.4497
  182MOL0     C24444  10.659   7.871   1.861  0.1010 -0.0454  0.0630
  182MOL0     C24445  10.539   7.904   1.952  0.4107 -0.3718  0.4035
  182MOL0     C24446  10.411   7.828   1.906 -0.0301 -0.4059  1.7111
  182MOL0     C24447  10.296   7.827   2.004  0.8961  0.5136 -0.0291
  182MOL0     C24448  10.164   7.781   1.936 -0.0300 -0.0376  0.2798
  182MOL0     C24449  10.072   7.722   2.040 -0.0253  0.6040  1.0656
  182MOL0     C24450   9.952   7.640   1.988 -0.3767 -0.1584  0.3512
  182MOL0     C24451   9.839   7.733   1.936 -0.1466 -0.6119  0.6605
  182MOL0     N24452   9.747   7.652   1.845 -0.8632 -0.3484 -0.0326
  182MOL0     C24453   9.662   7.557   1.894 -0.2358  0.1477  1.0771
  182MOL0     C24454   9.586   7.508   1.787  0.3957 -0.4365  0.0121
  182MOL0     C24455   9.467   7.415   1.779  1.4375 -0.3786 -0.5969
  182MOL0     C24456   9.351   7.468   1.865  1.1759  0.5855  0.1973
  182MOL0     C24457   9.212   7.401   1.832  0.2729 -0.2384  0.3024
  182MOL0     C24458   9.119   7.502   1.764  0.2077 -0.2622  0.0380
  182MOL0     O24459   9.030   7.440   1.669 -0.2794  0.6125 -0.8630
  182MOL0     C24460   8.945   7.524   1.603 -0.7845 -0.5997  0.4083
  182MOL0     C24461   8.952   7.663   1.606  0.4504 -1.1339  0.2098
  182MOL0     C24462   8.860   7.733   1.532  0.1711 -0.2801 -0.7475
  182MOL0     C24463   8.884   7.881   1.507  0.0786 -0.1006  0.3676
  182MOL0     C24464   8.738   7.671   1.486  0.8171 -0.2027  0.5755
  182MOL0     C24465   8.620   7.744   1.417 -0.2623  0.1767  0.3007
  182MOL0     O24466   8.648   7.841   1.328  0.4132 -0.2008 -0.5064
  182MOL0     C24467   8.546   7.909   1.266  0.2497  0.3495 -0.6745
  182MOL0     C24468   8.466   8.005   1.330  0.0360 -1.0329  0.0294
  182MOL0     C24469   8.399   8.106   1.266  0.2428 -0.2458  0.6827
  182MOL0     C24470   8.379   8.106   1.124 -0.7881 -0.2169  0.2299
  182MOL0     O24471   8.306   8.195   1.052  0.3887  0.1202  0.7935
  182MOL0     C24472   8.213   8.282   1.118 -0.6337 -0.3521  1.0086
  182MOL0     C24473   8.082   8.208   1.157 -0.5314 -0.0916 -0.2314
  182MOL0     C24474   8.013   8.312   1.245 -0.1311  0.5552  0.3093
  182MOL0     C24475   7.886   8.256   1.287  0.2766 -0.4630 -0.6162
  182MOL0     C24476   7.827   8.330   1.415 -0.6454  0.1548 -0.3120
  182MOL0     C24477   7.736   8.436   1.382  0.0281 -1.1489 -0.9814
  182MOL0     C24478   7.704   8.536   1.488 -0.6703  0.0254 -0.3962
  182MOL0     C24479   7.589   8.627   1.443 -0.1664 -0.2687 -0.4829
  182MOL0    Cl24480   7.432   8.535   1.455 -0.2138  0.2004  0.1733
  182MOL0     C24481   8.454   8.007   1.056 -0.0237 -0.3870  1.6000
  182MOL0     C24482   8.538   7.916   1.126  0.1940 -0.1461 -0.2928
  182MOL0     O24483   8.508   7.710   1.461 -0.1923 -0.0121 -0.1299
  182MOL0     C24484   8.731   7.530   1.493  0.6406  0.5733  0.2148
  182MOL0     C24485   8.832   7.456   1.549 -0.4162 -1.0472 -0.1681
  182MOL0     N24486   9.634   7.580   1.673  0.1414 -0.0810 -0.6244
  182MOL0     N24487   9.735   7.661   1.712 -0.1182 -0.5935  1.0476
  182MOL0     C24488  10.905   7.887   1.719  0.3978  0.3224  0.4462
  182MOL0     C24489  11.031   7.880   1.660  0.2959 -0.2929  0.2947
  182MOL0     C24490  11.426   7.913   1.496 -0.8403 -1.2498 -0.0957
  182MOL0     C24491  11.499   7.824   1.583  0.1065 -0.5223  0.5006
  182MOL0     C24492  11.624   7.772   1.536 -0.3470 -0.7802  0.1029
  182MOL0     C24493  11.676   7.825   1.412 -0.1200  0.8233 -0.9998
  182MOL0     O24494  11.802   7.774   1.378 -0.1454  0.2047 -0.5748
  182MOL0     C24495  11.900   7.881   1.356  0.2339  0.1156  0.4927
  182MOL0     C24496  11.983   7.815   1.237 -0.6428  0.2365 -0.2192
  182MOL0     C24497  12.127   7.888   1.223  0.3683  0.6297 -0.7385
  182MOL0     C24498  12.203   7.833   1.098  0.6758  0.1807  0.3761
  182MOL0     C24499  12.294   7.929   1.034  0.2144 -0.0522  0.0812
  182MOL0     C24500  12.370   8.009   0.975 -0.8031 -0.8527  0.1658
  182MOL0     C24501  11.619   7.927   1.346  0.1413 -0.5635  1.0319
  182MOL0     C24502  11.487   7.968   1.386  0.1832 -0.6114 -1.0178
  182MOL0     H24503  11.173   8.128   1.829 -0.7813  0.4847 -0.4826
  182MOL0     H24504  10.952   8.118   1.960  0.4550  0.6910  0.1367
  182MOL0     H24505  10.630   7.896   1.759 -2.2691  1.8809  1.1062
  182MOL0     H24506  10.685   7.765   1.873  0.8257  0.2741  1.6152
  182MOL0     H24507  10.552   7.895   2.061  1.2357  1.9854  0.5597
  182MOL0     H24508  10.531   8.013   1.947 -1.7746 -0.5643 -1.9812
  182MOL0     H24509  10.371   7.871   1.814  1.0529 -2.5905  0.1280
  182MOL0     H24510  10.439   7.723   1.890  0.6221  0.0461 -0.5229
  182MOL0     H24511  10.314   7.748   2.078 -1.8451 -0.0794  0.1232
  182MOL0     H24512  10.274   7.922   2.054 -2.4630 -0.5194  0.7483
  182MOL0     H24513  10.126   7.859   1.869 -3.2497 -1.2374  0.5422
  182MOL0     H24514  10.195   7.697   1.872  2.4545 -0.0799  1.3983
  182MOL0     H24515  10.122   7.655   2.110 -1.2041 -1.1031  0.3426
  182MOL0     H24516  10.029   7.801   2.102 -0.6995  0.2954  0.9968
  182MOL0     H24517   9.990   7.584   1.902  0.2385  2.7273 -1.4152
  182MOL0     H24518   9.912   7.568   2.059  0.4878  1.3568  2.4633
  182MOL0     H24519   9.893   7.811   1.881 -1.0311 -1.3628 -1.3748
  182MOL0     H24520   9.787   7.784   2.018 -0.1511  1.7698 -0.7227
  182MOL0     H24521   9.635   7.539   1.997  2.2231 -0.2351  1.7217
  182MOL0     H24522   9.426   7.408   1.678 -3.6481 -2.6079  1.2860
  182MOL0     H24523   9.499   7.322   1.827  1.4022  0.9782  2.2642
  182MOL0     H24524   9.337   7.575   1.844 -1.6050  0.6075  1.6249
  182MOL0     H24525   9.366   7.468   1.974 -2.5841  1.1572  0.8699
  182MOL0     H24526   9.163   7.377   1.927 -2.1671  1.8707 -0.3027
  182MOL0     H24527   9.210   7.309   1.773  2.2201  0.5269 -1.0279
  182MOL0     H24528   9.181   7.582   1.722 -0.8920  0.9249  0.6019
  182MOL0     H24529   9.059   7.547   1.844 -1.8158 -1.5792 -0.6578
  182MOL0     H24530   9.028   7.722   1.657 -0.8710  1.6481 -0.8372
  182MOL0     H24531   8.861   7.898   1.402 -0.6933  1.1127  0.7133
  182MOL0     H24532   8.820   7.950   1.563  0.8884  1.2198 -0.2758
  182MOL0     H24533   8.987   7.908   1.535  0.4507 -2.1493  1.1109
  182MOL0     H24534   8.461   7.997   1.438  3.0522 -4.7583  0.1154
  182MOL0     H24535   8.340   8.167   1.334  1.5119 -0.9928  2.5634
  182MOL0     H24536   8.255   8.345   1.197 -0.4199 -0.5997  1.0956
  182MOL0     H24537   8.196   8.363   1.047  2.1400 -0.8290 -0.3275
  182MOL0     H24538   8.018   8.184   1.071 -0.8560 -2.2519  0.5517
  182MOL0     H24539   8.113   8.114   1.202  0.8963  0.6434  0.3620
  182MOL0     H24540   7.993   8.410   1.200  0.8221 -1.1842 -4.5963
  182MOL0     H24541   8.089   8.326   1.323  1.6868  0.4921 -1.3587
  182MOL0     H24542   7.810   8.274   1.211  0.3385  1.5734 -0.2429
  182MOL0     H24543   7.894   8.147   1.297  3.1992 -0.3245 -0.6495
  182MOL0     H24544   7.913   8.370   1.470 -3.4827  1.5007  3.5916
  182MOL0     H24545   7.780   8.255   1.479  0.9965 -1.2623 -0.6818
  182MOL0     H24546   7.775   8.502   1.303 -2.2381  1.8956  0.2298
  182MOL0     H24547   7.642   8.395   1.344  0.0953  1.0315 -3.8578
  182MOL0     H24548   7.789   8.596   1.522 -0.8291  1.0050 -1.6509
  182MOL0     H24549   7.658   8.487   1.574  1.3105  1.5390  1.6364
  182MOL0     H24550   7.598   8.651   1.337  0.1067  0.7026 -0.2510
  182MOL0     H24551   7.582   8.718   1.504 -4.3092 -1.6206  1.3963
  182MOL0     H24552   8.460   8.003   0.948  0.3518 -0.4826  1.6244
  182MOL0     H24553   8.598   7.844   1.071 -2.4197 -2.4269 -0.3565
  182MOL0     H24554   8.641   7.481   1.458  1.1752  0.5993 -1.3164
  182MOL0     H24555   8.836   7.347   1.551  3.1712 -1.0819 -2.2522
  182MOL0     H24556  10.839   7.814   1.673  1.8762 -1.5026  1.0668
  182MOL0     H24557  11.051   7.821   1.571  0.4173  0.2714 -0.0549
  182MOL0     H24558  11.461   7.787   1.677  1.8947 -2.4797  0.5270
  182MOL0     H24559  11.686   7.698   1.585 -0.7254 -1.6295 -0.6558
  182MOL0     H24560  11.859   7.983   1.351 -3.0128 -1.1264 -0.7931
  182MOL0     H24561  11.963   7.890   1.445 -1.3431  1.9377  1.5041
  182MOL0     H24562  11.931   7.823   1.141 -0.7825 -1.5246 -0.3238
  182MOL0     H24563  11.999   7.708   1.249 -1.3953  0.2454  1.0694
  182MOL0     H24564  12.188   7.866   1.311 -0.7361 -0.2972 -0.1745
  182MOL0     H24565  12.108   7.995   1.217 -2.5708  0.2293 -0.2875
  182MOL0     H24566  12.122   7.810   1.028 -0.4631  1.7901  1.1134
  182MOL0     H24567  12.254   7.739   1.121 -1.2799 -0.4456  2.4227
  182MOL0     H24568  12.453   8.059   0.929 -1.9641  0.6670 -0.3644
  182MOL0     H24569  11.649   7.978   1.255  0.8967 -2.2862  0.2604
  182MOL0     H24570  11.434   8.033   1.317 -1.2301 -0.3666  0.2473
  183MOL0     O24571  11.199   0.162   4.403  0.1565 -0.4417  0.4184
  183MOL0     C24572  11.210   0.277   4.432  0.4744 -0.5795 -0.2887
  183MOL0     O24573  11.115   0.355   4.490 -0.0309  0.7658 -0.4547
  183MOL0     C24574  10.998   0.290   4.503  0.1006  0.7171 -0.0368
  183MOL0     C24575  10.935   0.281   4.625  0.1181  0.2970 -0.0133
  183MOL0     C24576  10.814   0.213   4.637 -0.4601  1.5654  0.2890
  183MOL0     C24577  10.749   0.152   4.529 -1.4076  0.7001 -0.3269
  183MOL0     O24578  10.635   0.085   4.555  0.2810  0.4515  0.2958
  183MOL0     C24579  10.535   0.063   4.454 -0.0161  0.1726 -0.1608
  183MOL0     C24580  10.441  -0.041   4.492  0.0226 -0.3890  0.2740
  183MOL0     C24581  10.375  -0.011   4.636 -0.0680  0.3150 -0.2870
  183MOL0     C24582  10.253  -0.101   4.667  0.1199 -1.2009  0.6542
  183MOL0     C24583  10.135  -0.090   4.567  0.0220 -0.4751 -1.1975
  183MOL0     C24584  10.018  -0.166   4.629 -0.0543  0.7909  1.0497
  183MOL0     C24585   9.898  -0.159   4.538  1.0173  0.1032  0.4791
  183MOL0     C24586   9.793  -0.243   4.603 -0.2154 -0.2772 -0.5884
  183MOL0     N24587   9.666  -0.202   4.546 -0.3976  0.7658  0.7422
  183MOL0     C24588   9.612  -0.245   4.420 -0.6587 -1.3859  0.5151
  183MOL0     C24589   9.495  -0.180   4.412 -0.5270 -0.1404 -0.6133
  183MOL0     C24590   9.408  -0.211   4.293  0.1139 -0.2164 -0.3652
  183MOL0     C24591   9.426  -0.087   4.204 -0.1331  0.7961  0.4043
  183MOL0     C24592   9.315  -0.064   4.096  0.4066  0.3845  0.4875
  183MOL0     C24593   9.181  -0.026   4.160 -0.5333  0.2785 -0.2326
  183MOL0     O24594   9.083   0.011   4.061  0.0856 -0.0542  0.7349
  183MOL0     C24595   8.963   0.039   4.119 -0.2161 -0.5004 -0.0004
  183MOL0     C24596   8.920   0.012   4.245 -0.1602  0.7331 -0.6481
  183MOL0     C24597   8.784   0.030   4.287 -0.3917 -0.1652  0.9322
  183MOL0     C24598   8.765  -0.017   4.429  0.0469 -0.6848  1.1320
  183MOL0     C24599   8.689   0.104   4.203 -0.0082  0.2381 -0.6579
  183MOL0     C24600   8.547   0.123   4.240  0.3832 -1.1731 -0.2931
  183MOL0     O24601   8.495   0.071   4.358 -1.1881  0.2534 -0.3013
  183MOL0     C24602   8.363   0.060   4.364 -0.2655  0.3578 -0.0525
  183MOL0     C24603   8.298  -0.028   4.285  0.6802  0.2042  0.1682
  183MOL0     C24604   8.158  -0.036   4.300 -0.1626  0.0551 -0.1429
  183MOL0     C24605   8.090   0.043   4.396  1.1658 -0.0458  0.3137
  183MOL0     O24606   7.956   0.034   4.393  0.2368  0.0638 -0.1115
  183MOL0     C24607   7.868   0.061   4.509  0.2592 -0.3053  0.8272
  183MOL0     C24608   7.721   0.014   4.490 -0.7662 -0.2734  0.5213
  183MOL0     C24609   7.632   0.065   4.596  0.1951 -0.0013 -0.7081
  183MOL0     C24610   7.495   0.003   4.588  0.2451 -0.2223 -0.0197
  183MOL0     C24611   7.409   0.075   4.690  0.1748  0.1202  0.1426
  183MOL0     C24612   7.261   0.039   4.684 -0.1757  0.9700  0.2091
  183MOL0     C24613   7.232  -0.102   4.734  0.5341 -1.0570  1.0123
  183MOL0     C24614   7.088  -0.150   4.719 -0.8716 -0.0153 -0.1240
  183MOL0    Cl24615   7.056  -0.258   4.853 -0.2074  0.1653 -0.2016
  183MOL0     C24616   8.161   0.127   4.485 -0.1355 -0.2213  0.1908
  183MOL0     C24617   8.303   0.133   4.468  0.2665 -0.5087 -0.8106
  183MOL0     O24618   8.482   0.195   4.167  0.0596  0.2224  0.5683
  183MOL0     C24619   8.743   0.144   4.074 -0.2858  0.6859 -0.2646
  183MOL0     C24620   8.871   0.102   4.028 -0.8788 -0.2588  0.4450
  183MOL0     N24621   9.468  -0.113   4.526  0.2622  0.7314 -0.8278
  183MOL0     N24622   9.569  -0.132   4.607  0.1007  0.6825 -0.5874
  183MOL0     C24623  10.797   0.182   4.393 -0.4939 -0.6101 -0.2797
  183MOL0     C24624  10.923   0.244   4.386  0.0207  0.4385 -0.3427
  183MOL0     C24625  11.337   0.344   4.391 -0.7687 -0.2282  0.6578
  183MOL0     C24626  11.366   0.476   4.425  0.3380 -0.5895 -0.6316
  183MOL0     C24627  11.496   0.527   4.412  0.4150  0.3150 -0.9161
  183MOL0     C24628  11.597   0.463   4.346 -0.1962  0.1454 -0.3044
  183MOL0     O24629  11.716   0.524   4.349  0.1816 -0.0959  0.1931
  183MOL0     C24630  11.828   0.436   4.353 -0.0573 -0.6625  0.3425
  183MOL0     C24631  11.947   0.513   4.417  0.2987  0.0482 -0.2217
  183MOL0     C24632  11.976   0.653   4.371 -0.3639  0.0873  0.0975
  183MOL0     C24633  12.095   0.725   4.440  0.0833 -0.7567  0.7811
  183MOL0     C24634  12.217   0.640   4.445 -0.2056 -0.6012 -0.1830
  183MOL0     C24635  12.301   0.553   4.450  0.4480 -0.0713 -1.0618
  183MOL0     C24636  11.572   0.329   4.303 -0.0831 -0.6077 -0.4026
  183MOL0     C24637  11.444   0.270   4.317 -0.2955 -0.5715  0.0186
  183MOL0     H24638  10.977   0.330   4.713 -1.3586 -1.0457  1.5269
  183MOL0     H24639  10.765   0.199   4.733 -1.6369  0.7382 -0.4105
  183MOL0     H24640  10.481   0.156   4.432 -3.6293 -1.7947 -0.4035
  183MOL0     H24641  10.583   0.017   4.367  2.0535 -1.8745  1.9240
  183MOL0     H24642  10.363  -0.048   4.416 -1.4231  1.4663  1.4694
  183MOL0     H24643  10.486  -0.140   4.494 -0.0205 -0.5146 -2.1182
  183MOL0     H24644  10.458  -0.030   4.705  0.5976  0.5099 -1.0282
  183MOL0     H24645  10.339   0.092   4.637 -1.7611 -0.1040 -3.5016
  183MOL0     H24646  10.285  -0.206   4.666  0.6538 -1.0389 -0.0117
  183MOL0     H24647  10.231  -0.079   4.771  0.2858 -1.2508  0.7005
  183MOL0     H24648  10.102   0.012   4.549  0.2167 -0.2018 -0.0883
  183MOL0     H24649  10.167  -0.140   4.475  2.0649 -2.5842  0.5183
  183MOL0     H24650  10.047  -0.271   4.619 -0.2385  0.7694  0.7067
  183MOL0     H24651   9.986  -0.144   4.731  0.1600 -0.1289  1.3252
  183MOL0     H24652   9.863  -0.056   4.533  3.8335  1.0681 -2.3488
  183MOL0     H24653   9.921  -0.185   4.434 -0.5519 -1.7690  0.5296
  183MOL0     H24654   9.784  -0.211   4.708  1.7340 -0.9173 -0.1840
  183MOL0     H24655   9.803  -0.351   4.587 -1.6146 -0.4844 -0.1875
  183MOL0     H24656   9.651  -0.318   4.350  1.4312 -0.2772  0.4186
  183MOL0     H24657   9.445  -0.304   4.248  1.1574 -1.2111  2.3354
  183MOL0     H24658   9.309  -0.234   4.334  0.5851 -0.0084  0.9238
  183MOL0     H24659   9.523  -0.085   4.153 -0.7378 -0.6732 -0.8964
  183MOL0     H24660   9.426   0.005   4.265  1.2954  1.8494 -1.0876
  183MOL0     H24661   9.307  -0.136   4.015 -1.9948  0.6284  0.4217
  183MOL0     H24662   9.345   0.026   4.041 -0.0322  0.0364 -0.3308
  183MOL0     H24663   9.206   0.054   4.230  1.3292  0.2405 -0.7898
  183MOL0     H24664   9.156  -0.112   4.223 -0.0974 -1.3723 -2.2186
  183MOL0     H24665   8.990  -0.028   4.318  0.0305  0.6122 -0.8919
  183MOL0     H24666   8.855  -0.063   4.469  1.4866  0.4015 -0.7023
  183MOL0     H24667   8.737   0.066   4.494  0.3830 -0.9317  1.5955
  183MOL0     H24668   8.679  -0.084   4.436 -0.4044 -0.4235 -1.1760
  183MOL0     H24669   8.355  -0.078   4.208  1.7790 -0.4616  1.3632
  183MOL0     H24670   8.109  -0.092   4.222  3.4737 -1.1201 -1.8010
  183MOL0     H24671   7.913   0.015   4.597 -2.5055 -1.2497  1.8391
  183MOL0     H24672   7.869   0.167   4.536  0.9380  0.3793 -1.6622
  183MOL0     H24673   7.692   0.069   4.400  0.8101 -0.1233  0.0755
  183MOL0     H24674   7.705  -0.093   4.477  0.7355 -0.4874  0.2103
  183MOL0     H24675   7.618   0.173   4.597 -0.6423  0.1096  4.2788
  183MOL0     H24676   7.672   0.038   4.694  2.1683  3.4408 -0.4141
  183MOL0     H24677   7.453   0.006   4.487  2.3142  0.3066 -0.9026
  183MOL0     H24678   7.496  -0.097   4.633 -2.9243  0.0099  0.8269
  183MOL0     H24679   7.406   0.182   4.668 -1.3735  0.4804  1.8487
  183MOL0     H24680   7.446   0.059   4.792 -0.2052  3.6220  0.9333
  183MOL0     H24681   7.195   0.108   4.737 -0.9064 -0.7021  1.5982
  183MOL0     H24682   7.224   0.047   4.581  0.2572  0.7373  0.0334
  183MOL0     H24683   7.250  -0.102   4.842  0.3832 -2.0502  1.0484
  183MOL0     H24684   7.299  -0.176   4.688  0.0704  0.6582 -2.7384
  183MOL0     H24685   7.070  -0.208   4.628 -0.0690  1.3952 -1.2264
  183MOL0     H24686   7.032  -0.060   4.747  1.8508  1.6349  0.3378
  183MOL0     H24687   8.116   0.191   4.560  2.3407  0.6925  1.0117
  183MOL0     H24688   8.352   0.211   4.526 -0.5005 -1.4792  1.2615
  183MOL0     H24689   8.681   0.208   4.012 -0.1621  2.3853  1.2619
  183MOL0     H24690   8.906   0.128   3.928  1.2681 -1.2834  0.8682
  183MOL0     H24691  10.741   0.145   4.309  0.3744  0.4892 -1.3807
  183MOL0     H24692  10.959   0.266   4.286  1.4356  3.9594  0.7788
  183MOL0     H24693  11.294   0.531   4.484 -0.5677 -0.6184 -1.6787
  183MOL0     H24694  11.521   0.622   4.457 -1.0228  1.2787 -2.0711
  183MOL0     H24695  11.800   0.341   4.400 -1.8905  1.0902  3.0652
  183MOL0     H24696  11.862   0.419   4.251  5.1358 -1.3457  1.9138
  183MOL0     H24697  12.033   0.447   4.408  0.5333  0.2621  0.3669
  183MOL0     H24698  11.924   0.520   4.524  2.3960 -3.1852  0.5912
  183MOL0     H24699  11.884   0.711   4.385 -1.4733 -1.5151 -0.2425
  183MOL0     H24700  11.995   0.650   4.263 -3.2681 -0.6917 -0.4790
  183MOL0     H24701  12.066   0.738   4.545 -0.1698  0.4203  0.5857
  183MOL0     H24702  12.098   0.823   4.390 -3.1367 -2.0479 -2.3774
  183MOL0     H24703  12.370   0.473   4.464 -0.3610 -0.4205  1.2790
  183MOL0     H24704  11.652   0.276   4.252  0.0694  0.1921 -1.0231
  183MOL0     H24705  11.419   0.170   4.282  1.8675 -1.6984  1.4557
  184MOL0     O24706   5.340   9.729   8.492 -0.6572  0.5617 -1.0474
  184MOL0     C24707   5.312   9.775   8.605  0.5360 -0.8484 -0.2428
  184MOL0     O24708   5.374   9.879   8.666 -0.0604 -0.5350 -0.2120
  184MOL0     C24709   5.477   9.955   8.613  0.1210 -0.4935  1.1189
  184MOL0     C24710   5.545   9.942   8.490  0.1911  0.5528  0.3155
  184MOL0     C24711   5.652  10.026   8.463 -0.6099  0.4003 -0.2221
  184MOL0     C24712   5.706  10.113   8.556 -1.0808 -0.6476 -0.2014
  184MOL0     O24713   5.821  10.191   8.532 -0.1233 -0.3375 -0.2396
  184MOL0     C24714   5.915  10.139   8.440 -0.3764 -0.4137  0.6267
  184MOL0     C24715   6.017  10.258   8.431  0.2452  0.4129  0.3078
  184MOL0     C24716   6.149  10.217   8.368 -0.2310  0.2752 -0.0507
  184MOL0     C24717   6.257  10.328   8.359  0.5529 -0.0319  0.9403
  184MOL0     C24718   6.381  10.286   8.277  0.9303 -0.3352  0.2658
  184MOL0     C24719   6.508  10.359   8.310  0.0610 -0.3060 -0.6653
  184MOL0     C24720   6.629  10.306   8.225 -0.2081 -1.4230  0.1921
  184MOL0     C24721   6.765  10.322   8.287 -0.7688  0.1730 -0.2558
  184MOL0     N24722   6.802  10.464   8.285 -0.6438 -0.0908 -0.5771
  184MOL0     C24723   6.843  10.533   8.174 -0.2703  0.3468  0.2812
  184MOL0     C24724   6.823  10.661   8.215  0.1752  0.3507  0.1143
  184MOL0     C24725   6.858  10.799   8.142  0.0643  0.8158 -0.3870
  184MOL0     C24726   6.741  10.846   8.057  0.0715  0.0449 -0.3338
  184MOL0     C24727   6.610  10.825   8.128  0.6147 -0.5998 -0.4468
  184MOL0     C24728   6.492  10.905   8.057 -0.8110  0.3734 -0.7369
  184MOL0     O24729   6.365  10.890   8.116 -0.1015 -0.1228 -0.2020
  184MOL0     C24730   6.297  10.772   8.098 -0.0750  1.1315 -0.3283
  184MOL0     C24731   6.332  10.660   8.024  0.2302 -0.1605 -0.2196
  184MOL0     C24732   6.247  10.551   7.993 -0.4228 -0.4362 -0.3637
  184MOL0     C24733   6.295  10.453   7.893 -0.3538 -0.1916  0.2145
  184MOL0     C24734   6.122  10.544   8.049  0.2161 -0.2582  0.8541
  184MOL0     C24735   6.011  10.443   8.016 -0.2142  0.0830  1.3880
  184MOL0     O24736   5.909  10.429   8.098 -0.3117  0.0032  0.1246
  184MOL0     C24737   5.813  10.336   8.092 -0.1456 -0.0073  0.1993
  184MOL0     C24738   5.698  10.368   8.166  0.3049  1.9357 -0.6153
  184MOL0     C24739   5.595  10.274   8.188  0.3884 -0.1128 -0.8906
  184MOL0     C24740   5.594  10.154   8.122 -0.2893  0.7204  0.2720
  184MOL0     O24741   5.502  10.056   8.133  1.2472  0.7980 -0.3870
  184MOL0     C24742   5.386  10.072   8.214  0.5502  0.2389  0.5983
  184MOL0     C24743   5.295   9.949   8.208 -1.0422 -0.7839  0.5004
  184MOL0     C24744   5.144   9.974   8.251  0.8969 -0.0586  0.2106
  184MOL0     C24745   5.037   9.864   8.212 -0.6483 -0.1285 -0.0251
  184MOL0     C24746   5.070   9.736   8.289  0.0723 -0.0776  0.6243
  184MOL0     C24747   4.992   9.621   8.251  0.8171 -0.6834 -0.1148
  184MOL0     C24748   4.844   9.646   8.246  0.0744 -0.3705  0.4288
  184MOL0     C24749   4.775   9.527   8.188  0.1945  0.2598  0.8392
  184MOL0    Cl24750   4.841   9.463   8.038  0.0166 -0.1943 -0.0333
  184MOL0     C24751   5.700  10.122   8.032  0.5622  0.7367  0.2593
  184MOL0     C24752   5.809  10.215   8.026 -0.3534 -0.3469  0.1370
  184MOL0     O24753   6.020  10.376   7.911  0.5359 -0.1586  0.9066
  184MOL0     C24754   6.082  10.654   8.124 -0.2680 -0.4710  0.3136
  184MOL0     C24755   6.168  10.765   8.142  0.1262 -0.8410 -0.5051
  184MOL0     N24756   6.778  10.664   8.347  0.8757 -0.3232  0.9712
  184MOL0     N24757   6.772  10.544   8.387  0.4009  0.1041 -0.5718
  184MOL0     C24758   5.648  10.120   8.685 -0.1814 -0.9053  0.5681
  184MOL0     C24759   5.537  10.041   8.716 -0.8858 -0.5942 -0.3218
  184MOL0     C24760   5.203   9.702   8.671 -0.7697 -0.1879 -0.9451
  184MOL0     C24761   5.158   9.758   8.794  0.3163 -0.4266 -0.6578
  184MOL0     C24762   5.045   9.703   8.860  0.2572  0.1084  1.0329
  184MOL0     C24763   4.990   9.585   8.811 -0.3138 -0.8322  0.4369
  184MOL0     O24764   4.870   9.534   8.848 -0.2600  0.1434 -0.1681
  184MOL0     C24765   4.791   9.602   8.945  0.4490 -0.4179 -0.7299
  184MOL0     C24766   4.651   9.539   8.964 -0.3570  0.3723 -0.0111
  184MOL0     C24767   4.557   9.640   9.021  1.1554  0.3547 -0.9259
  184MOL0     C24768   4.427   9.574   9.057  0.3007  0.0755  0.7413
  184MOL0     C24769   4.343   9.677   9.115  0.3991 -0.5052  0.6893
  184MOL0     C24770   4.269   9.772   9.138 -0.2335 -0.3943  0.6341
  184MOL0     C24771   5.048   9.522   8.698 -1.0172 -0.1106 -0.6420
  184MOL0     C24772   5.153   9.581   8.626 -0.1921 -1.0624  1.2550
  184MOL0     H24773   5.502   9.883   8.410  0.4186  1.3140 -0.3874
  184MOL0     H24774   5.693  10.006   8.364 -0.8686 -4.2937  0.3792
  184MOL0     H24775   5.960  10.043   8.471  1.1291 -0.6039 -1.8276
  184MOL0     H24776   5.874  10.122   8.340  0.3710 -0.9067  0.3851
  184MOL0     H24777   5.965  10.327   8.363  0.2356  1.4394  1.3333
  184MOL0     H24778   6.034  10.303   8.529  0.4543 -0.3602  0.6263
  184MOL0     H24779   6.186  10.133   8.428 -0.2746 -1.1419 -1.9305
  184MOL0     H24780   6.132  10.183   8.266  0.0781 -0.6107  0.1835
  184MOL0     H24781   6.203  10.415   8.320  1.1088  0.4542  1.2363
  184MOL0     H24782   6.282  10.354   8.463 -2.0583 -0.0225  1.6429
  184MOL0     H24783   6.399  10.180   8.300  0.2011  0.3096  4.5052
  184MOL0     H24784   6.362  10.287   8.169  0.5649  2.2859  0.3071
  184MOL0     H24785   6.503  10.468   8.303  1.9835 -0.2306 -1.3494
  184MOL0     H24786   6.523  10.345   8.417  0.4686 -0.1530 -0.7019
  184MOL0     H24787   6.610  10.199   8.213 -0.5738 -1.3111 -0.2664
  184MOL0     H24788   6.620  10.357   8.128 -0.4969  3.9153  2.6337
  184MOL0     H24789   6.834  10.256   8.235 -2.6460 -1.4936 -0.7435
  184MOL0     H24790   6.749  10.300   8.393  0.1342 -0.1013 -0.1732
  184MOL0     H24791   6.877  10.501   8.076 -3.4370  0.5918 -1.0301
  184MOL0     H24792   6.899  10.861   8.223 -0.3442  0.9134 -0.2545
  184MOL0     H24793   6.941  10.782   8.074 -1.4028  2.4912 -2.7491
  184MOL0     H24794   6.744  10.794   7.961  2.3391 -0.1537 -0.2003
  184MOL0     H24795   6.750  10.954   8.042  1.2124 -0.2748 -2.4535
  184MOL0     H24796   6.614  10.864   8.230  0.1272 -1.8191  0.0571
  184MOL0     H24797   6.590  10.718   8.119  0.7961 -0.5456 -1.5820
  184MOL0     H24798   6.494  10.881   7.950 -1.6385  1.4100 -1.0043
  184MOL0     H24799   6.517  11.011   8.068 -1.0929  0.7215 -2.9963
  184MOL0     H24800   6.431  10.662   7.979 -0.7615  3.5595 -2.7178
  184MOL0     H24801   6.391  10.490   7.857  0.1442  0.5323  2.1641
  184MOL0     H24802   6.295  10.353   7.939 -0.3445 -0.8934 -1.2469
  184MOL0     H24803   6.232  10.438   7.804  0.3749 -2.1653 -0.0209
  184MOL0     H24804   5.696  10.463   8.219 -3.0262  1.7838 -0.2312
  184MOL0     H24805   5.500  10.293   8.237  1.1892 -1.0977  1.1425
  184MOL0     H24806   5.397  10.093   8.321 -3.1315 -1.7645  1.5405
  184MOL0     H24807   5.327  10.151   8.164  2.5983  1.2911 -0.2760
  184MOL0     H24808   5.292   9.920   8.103 -0.4483  3.1457 -0.7757
  184MOL0     H24809   5.340   9.875   8.275 -2.3005  0.2142  2.5563
  184MOL0     H24810   5.100  10.061   8.201  0.0570 -1.6406 -1.9786
  184MOL0     H24811   5.148   9.971   8.360  2.6273 -1.9872  0.1513
  184MOL0     H24812   4.938   9.904   8.236 -1.7194 -1.2097 -2.3107
  184MOL0     H24813   5.048   9.847   8.104 -0.0759  0.7592 -0.1181
  184MOL0     H24814   5.072   9.749   8.398 -0.7615 -2.3909  0.9755
  184MOL0     H24815   5.176   9.716   8.269  0.5134  0.9500  1.8184
  184MOL0     H24816   5.026   9.581   8.155 -1.2857 -3.2002  0.0456
  184MOL0     H24817   5.009   9.550   8.333 -0.0034 -0.3249  0.3768
  184MOL0     H24818   4.813   9.730   8.184 -2.1894 -1.0061  0.5914
  184MOL0     H24819   4.797   9.661   8.344 -0.6570  0.0798  0.0135
  184MOL0     H24820   4.672   9.558   8.165  0.0226 -1.3196 -0.7274
  184MOL0     H24821   4.774   9.435   8.246  3.7842 -2.0851 -2.3656
  184MOL0     H24822   5.703  10.022   7.990 -1.1073  0.9284 -0.4041
  184MOL0     H24823   5.902  10.186   7.978  0.5296 -1.1009  2.1704
  184MOL0     H24824   5.978  10.663   8.154 -0.7292  1.0398 -1.5481
  184MOL0     H24825   6.132  10.859   8.182  2.4184 -0.3693  0.6331
  184MOL0     H24826   5.685  10.190   8.759  0.5890  0.1484 -0.7650
  184MOL0     H24827   5.505  10.055   8.818  2.7548 -1.6539  1.1211
  184MOL0     H24828   5.217   9.842   8.832  0.8441 -0.8519 -0.5230
  184MOL0     H24829   5.002   9.746   8.950 -0.2269 -0.0854  0.9014
  184MOL0     H24830   4.836   9.609   9.045 -1.5475  1.6274  0.0950
  184MOL0     H24831   4.777   9.702   8.905  1.0260 -0.2045 -0.4135
  184MOL0     H24832   4.666   9.453   9.031  1.6175  1.9834  1.7551
  184MOL0     H24833   4.612   9.510   8.866 -0.7803  3.7179 -0.9575
  184MOL0     H24834   4.541   9.704   8.934 -1.6791 -0.0213 -0.7682
  184MOL0     H24835   4.584   9.694   9.113 -1.4307 -0.5637  0.4790
  184MOL0     H24836   4.436   9.494   9.131  1.5831 -1.5614 -1.0626
  184MOL0     H24837   4.360   9.557   8.972  2.3437  2.1166 -1.4469
  184MOL0     H24838   4.187   9.836   9.164  0.0953  0.0080  0.6890
  184MOL0     H24839   5.010   9.429   8.658 -0.7398 -1.2285  1.5827
  184MOL0     H24840   5.194   9.537   8.535  1.1108  2.1173  0.1674
  185MOL0     O24841   1.368   0.326   0.545 -0.0143 -0.1291 -0.3237
  185MOL0     C24842   1.462   0.275   0.615 -0.1119 -0.4026 -0.1267
  185MOL0     O24843   1.500   0.315   0.740 -0.1417 -0.3051  0.2147
  185MOL0     C24844   1.422   0.420   0.789  0.0596 -0.4410 -0.3017
  185MOL0     C24845   1.462   0.549   0.781  0.1354 -0.5719 -0.0895
  185MOL0     C24846   1.377   0.654   0.820 -0.5262  0.4313 -0.1465
  185MOL0     C24847   1.251   0.628   0.872 -0.5935 -0.3299 -0.0906
  185MOL0     O24848   1.170   0.720   0.927 -0.1665 -0.3965  0.4628
  185MOL0     C24849   1.045   0.741   0.858  1.2213  0.1285  0.0394
  185MOL0     C24850   1.057   0.829   0.728  0.1534  0.7155 -0.3896
  185MOL0     C24851   0.917   0.878   0.677  0.1733 -0.5271  0.2404
  185MOL0     C24852   0.921   0.941   0.535 -0.3394 -0.0433 -0.8650
  185MOL0     C24853   0.785   0.982   0.476  0.3442  0.1690 -0.0465
  185MOL0     C24854   0.812   1.059   0.352  0.4339 -0.1705  0.6646
  185MOL0     C24855   0.679   1.113   0.304 -0.7457  0.5382 -0.4741
  185MOL0     C24856   0.692   1.156   0.167 -0.0146 -0.0283 -0.2950
  185MOL0     N24857   0.560   1.150   0.103  0.6537 -0.2269 -0.4240
  185MOL0     C24858   0.443   1.206   0.148  0.1041  0.5964 -0.1013
  185MOL0     C24859   0.346   1.163   0.062  0.7671  0.3268 -0.7218
  185MOL0     C24860   0.197   1.194   0.081 -0.0518 -0.0331 -0.2000
  185MOL0     C24861   0.124   1.088   0.167 -0.3523 -0.3779 -0.4750
  185MOL0     C24862   0.128   1.120   0.317  0.4804  1.0605  0.7407
  185MOL0     C24863   0.064   0.997   0.398  0.0560 -0.2760 -0.4541
  185MOL0     O24864  -0.076   0.966   0.381  0.0650 -0.1513 -0.4657
  185MOL0     C24865  -0.171   1.040   0.441 -0.1786 -0.0796 -0.3038
  185MOL0     C24866  -0.151   1.157   0.509 -0.0102 -0.0098  1.1541
  185MOL0     C24867  -0.253   1.217   0.596  0.5920 -0.0050  0.9872
  185MOL0     C24868  -0.230   1.345   0.665 -0.1990 -0.1858  0.1950
  185MOL0     C24869  -0.382   1.149   0.601 -0.4702  0.9736 -0.1568
  185MOL0     C24870  -0.510   1.182   0.673 -0.1283 -0.6473  0.2609
  185MOL0     O24871  -0.633   1.178   0.615  0.3752  0.2103  0.2201
  185MOL0     C24872  -0.736   1.232   0.685  0.2376  0.3727  0.3664
  185MOL0     C24873  -0.869   1.184   0.667  0.1839 -0.2978  0.2493
  185MOL0     C24874  -0.982   1.253   0.700 -0.2837  0.8485  0.0101
  185MOL0     C24875  -0.968   1.368   0.777  1.3891 -0.1064 -0.8858
  185MOL0     O24876  -1.087   1.416   0.820 -0.1037  0.1528  0.7440
  185MOL0     C24877  -1.088   1.531   0.908  0.1785 -0.2028  0.0300
  185MOL0     C24878  -1.236   1.571   0.931  0.1579  0.0272 -0.1461
  185MOL0     C24879  -1.296   1.473   1.026  0.9052 -0.1846  0.2044
  185MOL0     C24880  -1.445   1.469   1.009 -0.1438 -0.8235 -0.3460
  185MOL0     C24881  -1.508   1.385   1.118  0.6512  0.4400 -0.9086
  185MOL0     C24882  -1.657   1.387   1.098 -0.5970 -0.2037 -0.3731
  185MOL0     C24883  -1.732   1.316   1.206  0.1178 -0.4490  0.3835
  185MOL0     C24884  -1.880   1.285   1.172  0.0343  0.1641 -0.0755
  185MOL0    Cl24885  -1.977   1.431   1.191 -0.0592 -0.2281  0.0141
  185MOL0     C24886  -0.841   1.423   0.801 -0.6919  0.4733 -0.1148
  185MOL0     C24887  -0.727   1.358   0.751 -0.8581 -0.1697  0.2886
  185MOL0     O24888  -0.491   1.216   0.789 -0.2588  0.2895  0.5250
  185MOL0     C24889  -0.401   1.029   0.527  0.3333 -0.4534 -0.8584
  185MOL0     C24890  -0.292   0.980   0.450  0.7511 -0.4550 -0.6725
  185MOL0     N24891   0.409   1.090  -0.040 -0.0288 -1.1834  0.0595
  185MOL0     N24892   0.532   1.072  -0.011 -0.3484 -0.3167 -0.5152
  185MOL0     C24893   1.215   0.497   0.884  0.1232  0.2769 -0.4438
  185MOL0     C24894   1.296   0.392   0.848  0.0639 -0.1205  0.1720
  185MOL0     C24895   1.537   0.156   0.556 -0.3363 -0.3630  0.3406
  185MOL0     C24896   1.490   0.089   0.437 -0.3641 -0.1458  0.2459
  185MOL0     C24897   1.561  -0.024   0.384  0.1045  0.3203 -0.2810
  185MOL0     C24898   1.665  -0.072   0.460 -0.3757 -0.0731  0.7711
  185MOL0     O24899   1.733  -0.184   0.426  0.1195 -0.0314 -0.3443
  185MOL0     C24900   1.701  -0.263   0.311 -0.0278  0.1422  0.3016
  185MOL0     C24901   1.619  -0.387   0.339  0.3824  0.2232 -0.1599
  185MOL0     C24902   1.480  -0.339   0.408  0.1622  0.4153 -0.3501
  185MOL0     C24903   1.386  -0.462   0.407 -0.2286  0.2626 -0.6917
  185MOL0     C24904   1.282  -0.440   0.514  0.4178  0.5355  0.8067
  185MOL0     C24905   1.203  -0.436   0.605 -0.0152 -0.7137 -0.1540
  185MOL0     C24906   1.716  -0.000   0.576  0.3688  0.8449 -0.6435
  185MOL0     C24907   1.650   0.110   0.624 -0.0273 -0.2638  0.7540
  185MOL0     H24908   1.560   0.572   0.741 -0.4918  2.6566 -0.1005
  185MOL0     H24909   1.426   0.748   0.801  2.7653 -1.4168 -1.6522
  185MOL0     H24910   0.983   0.652   0.838  0.0155  1.2104 -1.2392
  185MOL0     H24911   0.988   0.803   0.928  0.9745 -0.1699  0.1109
  185MOL0     H24912   1.119   0.919   0.732 -1.0166  1.5221  0.2761
  185MOL0     H24913   1.097   0.756   0.657  0.1324 -1.0488  1.2989
  185MOL0     H24914   0.838   0.802   0.674  0.5904 -0.9717 -2.0744
  185MOL0     H24915   0.879   0.959   0.740 -0.5609 -1.1898  0.6647
  185MOL0     H24916   0.988   1.028   0.545  0.3564 -0.5475 -1.0427
  185MOL0     H24917   0.974   0.870   0.470  1.2173  2.2788 -2.2845
  185MOL0     H24918   0.722   0.894   0.460  2.0464 -0.5638 -3.8724
  185MOL0     H24919   0.731   1.044   0.548 -0.4654  0.7249 -1.1077
  185MOL0     H24920   0.881   1.139   0.382  1.4955 -0.6005 -0.5562
  185MOL0     H24921   0.871   1.003   0.278  1.0241  0.7076  0.4557
  185MOL0     H24922   0.601   1.037   0.315 -1.7161  1.7111  1.0955
  185MOL0     H24923   0.655   1.194   0.374  2.6268  0.9165  0.4394
  185MOL0     H24924   0.759   1.089   0.111  0.0737 -0.8294  0.7469
  185MOL0     H24925   0.736   1.255   0.151 -0.7521  0.0453 -2.1435
  185MOL0     H24926   0.421   1.259   0.240 -1.0654  0.8429 -0.5095
  185MOL0     H24927   0.184   1.292   0.128 -1.1914 -0.1094 -0.3273
  185MOL0     H24928   0.157   1.202  -0.021  0.8460  2.4262 -0.4390
  185MOL0     H24929   0.182   0.997   0.151  1.1035  0.3949  0.2397
  185MOL0     H24930   0.020   1.069   0.138 -0.8107  1.6046 -0.2547
  185MOL0     H24931   0.086   1.218   0.342 -1.7009  0.0915  1.0551
  185MOL0     H24932   0.234   1.122   0.346  0.9302 -3.6739  0.1936
  185MOL0     H24933   0.083   1.011   0.505 -0.4667 -0.5124 -0.3318
  185MOL0     H24934   0.127   0.909   0.384 -1.5177 -1.8305  1.6673
  185MOL0     H24935  -0.059   1.213   0.501  0.2004 -0.0043  3.2618
  185MOL0     H24936  -0.172   1.333   0.757 -0.7235 -1.0131  0.4341
  185MOL0     H24937  -0.179   1.419   0.603  1.5788  2.2848  4.2068
  185MOL0     H24938  -0.330   1.382   0.688  0.1301  1.0141 -0.2575
  185MOL0     H24939  -0.874   1.088   0.616 -1.0806  0.2168 -0.6485
  185MOL0     H24940  -1.074   1.207   0.663  0.4088 -1.2162  0.6956
  185MOL0     H24941  -1.030   1.517   1.000  2.6134 -1.9372 -1.6552
  185MOL0     H24942  -1.030   1.605   0.853 -0.1901  0.2834  0.2840
  185MOL0     H24943  -1.247   1.673   0.970 -0.4595 -0.6074  1.3868
  185MOL0     H24944  -1.289   1.571   0.836 -0.1695  1.3753  0.0101
  185MOL0     H24945  -1.272   1.497   1.130 -0.2646 -2.5415  1.1006
  185MOL0     H24946  -1.260   1.375   0.992  1.2508  0.8665 -2.7597
  185MOL0     H24947  -1.471   1.574   1.024  1.2704 -0.8330  2.9026
  185MOL0     H24948  -1.475   1.434   0.909 -2.8488 -1.5599  0.6167
  185MOL0     H24949  -1.480   1.434   1.211 -2.4912  1.8371 -0.5815
  185MOL0     H24950  -1.461   1.287   1.108  1.1718  0.8675 -3.5011
  185MOL0     H24951  -1.693   1.491   1.096 -0.6618 -0.1607  1.3972
  185MOL0     H24952  -1.681   1.338   1.004 -1.0604  0.6614 -0.7164
  185MOL0     H24953  -1.725   1.384   1.292  0.8431  0.2054 -0.1840
  185MOL0     H24954  -1.669   1.233   1.242 -0.4843  0.0611  2.8205
  185MOL0     H24955  -1.922   1.214   1.243 -0.3824  0.5192  0.0328
  185MOL0     H24956  -1.887   1.242   1.071  1.7638 -0.8019  0.1681
  185MOL0     H24957  -0.829   1.516   0.855 -2.4968  1.1284 -0.7420
  185MOL0     H24958  -0.633   1.411   0.764 -0.2016 -1.1472 -0.3884
  185MOL0     H24959  -0.495   0.975   0.523 -0.6201  0.8493  1.5232
  185MOL0     H24960  -0.298   0.892   0.387  0.1882 -1.2079  0.4000
  185MOL0     H24961   1.128   0.459   0.936  0.5735 -0.7164 -0.3772
  185MOL0     H24962   1.272   0.288   0.864 -2.7817  0.5254  0.6447
  185MOL0     H24963   1.397   0.115   0.388 -0.3711 -0.9053 -0.1670
  185MOL0     H24964   1.521  -0.079   0.300 -0.3503  0.3754 -0.1029
  185MOL0     H24965   1.652  -0.213   0.226 -1.5444 -0.9598  0.4881
  185MOL0     H24966   1.799  -0.288   0.270 -0.3859 -0.4521 -0.1916
  185MOL0     H24967   1.667  -0.452   0.413 -1.5279  1.0805  1.9810
  185MOL0     H24968   1.609  -0.438   0.243  1.3214 -1.0090  0.3731
  185MOL0     H24969   1.434  -0.270   0.337  0.9590  1.5410  0.1777
  185MOL0     H24970   1.491  -0.289   0.505 -1.5081  0.3185 -0.0836
  185MOL0     H24971   1.429  -0.556   0.443  0.4545  1.2295  1.1218
  185MOL0     H24972   1.345  -0.477   0.306  0.1509  0.7710 -0.9260
  185MOL0     H24973   1.129  -0.432   0.683  2.6174 -0.9451  2.5394
  185MOL0     H24974   1.797  -0.050   0.628 -0.7497 -0.2552  0.0930
  185MOL0     H24975   1.697   0.156   0.710 -2.8022 -1.5833  3.1406
  186MOL0     O24976   9.061   4.056   0.265 -0.3532  0.5333 -0.7067
  186MOL0     C24977   9.103   3.966   0.346  0.3333 -0.2852 -0.7795
  186MOL0     O24978   9.034   3.852   0.383  0.1045 -0.1668 -0.1393
  186MOL0     C24979   8.915   3.810   0.332 -0.1209  0.0710  0.1874
  186MOL0     C24980   8.842   3.726   0.425  0.3271  0.0827 -0.0939
  186MOL0     C24981   8.718   3.681   0.392  0.7782  0.2850  0.3331
  186MOL0     C24982   8.662   3.718   0.270  0.5906 -0.5967  0.5304
  186MOL0     O24983   8.540   3.667   0.244 -0.0600  0.5177  0.3884
  186MOL0     C24984   8.429   3.720   0.319 -0.1376  0.7641  0.0136
  186MOL0     C24985   8.320   3.621   0.325 -0.1454  0.5983 -0.1515
  186MOL0     C24986   8.186   3.681   0.374  0.1792  0.3800  0.6896
  186MOL0     C24987   8.195   3.725   0.523 -0.3072 -0.0375 -0.0440
  186MOL0     C24988   8.051   3.758   0.569  0.6124  0.8951  0.6331
  186MOL0     C24989   8.041   3.844   0.692  0.1445  0.5302 -0.3586
  186MOL0     C24990   8.115   3.793   0.812  0.3923  0.1004 -0.8682
  186MOL0     C24991   8.100   3.880   0.944 -0.6086 -1.1194  0.7712
  186MOL0     N24992   7.961   3.884   0.993 -0.2470  0.6992  0.8120
  186MOL0     C24993   7.883   3.766   1.022 -0.5645 -0.1723  0.0070
  186MOL0     C24994   7.757   3.806   1.039 -0.4498 -0.0823 -0.4670
  186MOL0     C24995   7.651   3.718   1.057  0.9012  0.2756  0.0644
  186MOL0     C24996   7.632   3.661   1.192 -0.1884  0.1088  0.2434
  186MOL0     C24997   7.528   3.550   1.203  0.5467  0.8358  0.0750
  186MOL0     C24998   7.393   3.580   1.151 -0.1118  0.1036  1.3943
  186MOL0     O24999   7.333   3.693   1.223 -0.4935 -0.2431 -0.0410
  186MOL0     C25000   7.192   3.676   1.236 -1.1673  0.0268 -0.0918
  186MOL0     C25001   7.131   3.631   1.350 -1.2768 -0.1604 -0.5376
  186MOL0     C25002   6.986   3.635   1.354 -1.0370  0.7173 -0.7620
  186MOL0     C25003   6.933   3.594   1.484 -0.4733 -0.4333 -0.7087
  186MOL0     C25004   6.909   3.672   1.236  0.5253  0.2927  0.6084
  186MOL0     C25005   6.763   3.684   1.242 -0.1089  0.0881  0.8501
  186MOL0     O25006   6.699   3.757   1.141  0.1596  0.0385 -0.0956
  186MOL0     C25007   6.567   3.795   1.128 -0.4256 -0.2518 -0.4301
  186MOL0     C25008   6.468   3.768   1.219  0.6174  0.1042  0.1709
  186MOL0     C25009   6.338   3.819   1.201  0.1866 -0.1400  0.5549
  186MOL0     C25010   6.302   3.901   1.089  1.3359  0.2014 -0.3509
  186MOL0     O25011   6.176   3.951   1.076  0.5208 -0.9405 -0.6533
  186MOL0     C25012   6.133   4.035   0.963  0.0968  0.2588  0.4583
  186MOL0     C25013   5.981   4.059   0.969 -0.1765  0.7638 -0.2319
  186MOL0     C25014   5.934   4.170   0.875  0.8491  0.3979 -0.3356
  186MOL0     C25015   5.798   4.217   0.914  0.4655  0.4978 -0.7510
  186MOL0     C25016   5.743   4.316   0.811  0.3375 -0.1691 -1.1188
  186MOL0     C25017   5.626   4.398   0.868  0.2046  0.4131  0.3411
  186MOL0     C25018   5.502   4.310   0.894  0.2386  0.2705  0.7663
  186MOL0     C25019   5.395   4.386   0.968 -0.2602 -0.7429 -1.1397
  186MOL0    Cl25020   5.226   4.309   0.970 -0.1288 -0.3697 -0.1471
  186MOL0     C25021   6.408   3.929   0.999 -0.1569  0.6163 -0.0238
  186MOL0     C25022   6.535   3.880   1.017 -0.6016  1.1516  0.5618
  186MOL0     O25023   6.704   3.630   1.335 -0.2419 -0.0808  0.2245
  186MOL0     C25024   6.983   3.717   1.131 -0.2534  0.1572  0.2053
  186MOL0     C25025   7.119   3.723   1.135  0.7825 -0.1849  0.2784
  186MOL0     N25026   7.759   3.943   1.021  0.7270 -0.8118  0.5035
  186MOL0     N25027   7.874   3.982   0.988 -0.6698  0.2108 -1.0232
  186MOL0     C25028   8.735   3.787   0.176  0.1128  0.1749  0.1683
  186MOL0     C25029   8.865   3.828   0.202  0.3272  1.0035 -0.5443
  186MOL0     C25030   9.237   3.985   0.415 -1.0049 -0.0302 -0.2417
  186MOL0     C25031   9.302   3.890   0.492  0.3146  0.0490 -0.3819
  186MOL0     C25032   9.433   3.911   0.547  0.5703 -0.3148  0.6489
  186MOL0     C25033   9.503   4.029   0.536  0.8610 -0.1537  0.5975
  186MOL0     O25034   9.634   4.043   0.565 -1.2547  0.2856  0.3749
  186MOL0     C25035   9.699   4.152   0.500 -0.1085  0.1379 -0.7521
  186MOL0     C25036   9.852   4.140   0.494  0.1818 -0.4554  0.2434
  186MOL0     C25037   9.928   4.087   0.619 -0.0503 -0.2696 -0.1121
  186MOL0     C25038  10.070   4.149   0.630 -0.2400  0.0164  0.4944
  186MOL0     C25039  10.145   4.114   0.749  0.8414 -0.0097 -0.3915
  186MOL0     C25040  10.206   4.088   0.845  0.8252  0.6082  0.2112
  186MOL0     C25041   9.429   4.136   0.476 -0.2038 -1.2465  0.0050
  186MOL0     C25042   9.304   4.118   0.414  0.1583  0.5626 -0.4441
  186MOL0     H25043   8.888   3.701   0.520  3.5828 -0.4972 -1.6650
  186MOL0     H25044   8.666   3.604   0.449  1.4179  0.6344  1.4198
  186MOL0     H25045   8.464   3.741   0.420 -1.6526 -2.6054  1.3968
  186MOL0     H25046   8.395   3.811   0.270 -1.5890  0.4059  0.3225
  186MOL0     H25047   8.308   3.571   0.229 -1.5941  1.5307 -0.4799
  186MOL0     H25048   8.346   3.538   0.392 -2.4426 -0.2299 -0.2233
  186MOL0     H25049   8.156   3.762   0.308  5.1377  0.3635 -2.1208
  186MOL0     H25050   8.112   3.600   0.368  0.4409 -0.1341  3.1279
  186MOL0     H25051   8.252   3.658   0.588  0.8367 -0.8249 -1.7798
  186MOL0     H25052   8.249   3.820   0.520 -1.7789  0.8942  1.3363
  186MOL0     H25053   8.010   3.819   0.488  0.4582 -0.2197 -0.1448
  186MOL0     H25054   7.996   3.664   0.580 -1.0438  0.7714 -5.2622
  186MOL0     H25055   8.071   3.948   0.674 -1.9697  1.5536  1.4131
  186MOL0     H25056   7.937   3.859   0.726  0.5400  1.3274  0.5682
  186MOL0     H25057   8.067   3.697   0.836  1.3148  0.1887  1.5659
  186MOL0     H25058   8.220   3.767   0.800  0.3628  0.2930 -1.5988
  186MOL0     H25059   8.129   3.982   0.915  1.1537 -2.0401 -0.9199
  186MOL0     H25060   8.160   3.855   1.032 -1.3297 -0.3452  1.5018
  186MOL0     H25061   7.911   3.662   1.036 -0.1017  0.0762  1.0626
  186MOL0     H25062   7.566   3.778   1.025  0.3046 -0.1699  0.7866
  186MOL0     H25063   7.659   3.632   0.989  0.2676  1.4323 -1.5353
  186MOL0     H25064   7.586   3.749   1.239 -0.3446  1.4473 -2.2465
  186MOL0     H25065   7.731   3.630   1.227 -0.0091 -0.8087 -1.0289
  186MOL0     H25066   7.515   3.514   1.305  1.9968 -4.1755 -1.2164
  186MOL0     H25067   7.567   3.458   1.159  0.5293  0.2877  1.1937
  186MOL0     H25068   7.332   3.490   1.156 -1.8210  0.9581 -1.8388
  186MOL0     H25069   7.404   3.614   1.048  2.0904  0.2455  1.6129
  186MOL0     H25070   7.194   3.608   1.435  0.0652 -0.0003 -1.4527
  186MOL0     H25071   6.867   3.671   1.523 -0.2128  2.1355 -4.8048
  186MOL0     H25072   6.866   3.508   1.473 -3.4634  1.9296 -1.9842
  186MOL0     H25073   7.013   3.568   1.554  1.4166  0.3425 -2.4622
  186MOL0     H25074   6.502   3.724   1.312 -1.0582 -0.4073  0.5700
  186MOL0     H25075   6.256   3.805   1.271 -0.7267  1.4041 -0.1622
  186MOL0     H25076   6.187   4.130   0.961 -1.1613  1.0534  1.6599
  186MOL0     H25077   6.153   3.988   0.867 -1.9995  1.7634 -0.7962
  186MOL0     H25078   5.919   3.970   0.956 -0.1031  0.2567  2.4566
  186MOL0     H25079   5.956   4.089   1.071 -1.5701 -0.7669 -0.0745
  186MOL0     H25080   5.922   4.124   0.777 -0.2465 -1.9116  0.8228
  186MOL0     H25081   6.003   4.256   0.872 -1.4847  2.4052  0.1453
  186MOL0     H25082   5.729   4.133   0.919 -0.7074  1.4006 -1.2816
  186MOL0     H25083   5.813   4.262   1.012  3.4420 -0.4827 -0.6474
  186MOL0     H25084   5.715   4.249   0.729  0.9940 -2.3629  0.3760
  186MOL0     H25085   5.822   4.385   0.780  1.7039  0.1644  2.5768
  186MOL0     H25086   5.658   4.446   0.961 -0.3706  1.3982  0.0496
  186MOL0     H25087   5.599   4.470   0.791 -1.9185 -0.8145 -0.1224
  186MOL0     H25088   5.527   4.225   0.958 -4.0300 -2.5493 -0.8671
  186MOL0     H25089   5.470   4.275   0.795  0.5118  0.3804  0.6359
  186MOL0     H25090   5.378   4.481   0.917 -0.4977  0.6119  1.2726
  186MOL0     H25091   5.432   4.399   1.070 -1.3272 -1.8501 -0.5816
  186MOL0     H25092   6.400   3.993   0.912  0.8919  1.7843  0.7089
  186MOL0     H25093   6.615   3.910   0.949 -1.3438 -0.2009 -0.9799
  186MOL0     H25094   6.948   3.762   1.039 -0.3274 -0.3776 -0.0318
  186MOL0     H25095   7.178   3.762   1.053 -0.3632  0.9657 -0.0391
  186MOL0     H25096   8.689   3.813   0.082  1.4172  2.5715  0.1162
  186MOL0     H25097   8.922   3.879   0.126 -0.3413  0.8325 -1.1710
  186MOL0     H25098   9.252   3.794   0.504 -1.6811  1.1515  0.7824
  186MOL0     H25099   9.486   3.833   0.600 -0.2756 -0.5605  1.1577
  186MOL0     H25100   9.663   4.186   0.402 -1.3224 -0.4384 -0.5259
  186MOL0     H25101   9.685   4.236   0.569 -0.3452 -1.5301  1.2917
  186MOL0     H25102   9.879   4.243   0.470 -0.9823 -0.4854 -1.4388
  186MOL0     H25103   9.886   4.092   0.402  1.4001 -0.2735  0.5790
  186MOL0     H25104   9.936   3.978   0.615  0.4089 -0.7340  5.5635
  186MOL0     H25105   9.869   4.107   0.709 -0.5270 -0.2519 -0.4228
  186MOL0     H25106  10.053   4.257   0.622 -1.9547 -0.3320 -1.0107
  186MOL0     H25107  10.137   4.109   0.554 -0.0488 -0.8912  1.1273
  186MOL0     H25108  10.255   4.064   0.937  1.9435  1.8661 -0.0277
  186MOL0     H25109   9.466   4.237   0.471  0.8441 -1.6491 -0.5409
  186MOL0     H25110   9.251   4.205   0.377 -0.5314  0.3780  0.0782
  187MOL0     O25111   0.713   3.260   0.315 -0.4989  0.1895  0.3699
  187MOL0     C25112   0.754   3.261   0.202 -0.3747  0.8896  0.3951
  187MOL0     O25113   0.689   3.197   0.101 -0.0393 -0.2592 -0.0317
  187MOL0     C25114   0.569   3.125   0.129  0.5477  0.0889  0.1006
  187MOL0     C25115   0.462   3.159   0.041  0.1526  0.4046 -0.4152
  187MOL0     C25116   0.344   3.089   0.045 -0.0175 -0.2631  0.4736
  187MOL0     C25117   0.318   2.984   0.141  0.2516  0.4458  0.2774
  187MOL0     O25118   0.209   2.904   0.150 -0.1221 -0.1117  0.3353
  187MOL0     C25119   0.115   2.902   0.039  0.0986 -0.5939 -0.0814
  187MOL0     C25120  -0.023   2.975   0.060 -0.0523 -0.2593 -0.1169
  187MOL0     C25121  -0.071   2.938   0.208 -0.1323 -0.1841 -0.4203
  187MOL0     C25122  -0.192   3.018   0.253  0.2520 -0.2171 -0.7520
  187MOL0     C25123  -0.328   2.949   0.204 -0.4729 -0.4575  0.0139
  187MOL0     C25124  -0.437   3.032   0.265 -0.2154  1.1823  0.1076
  187MOL0     C25125  -0.565   2.948   0.243 -0.0580 -0.1338  0.7559
  187MOL0     C25126  -0.683   3.035   0.304  0.1700 -1.0165  0.1325
  187MOL0     N25127  -0.803   2.945   0.288  0.2136  0.9763 -0.1847
  187MOL0     C25128  -0.869   2.896   0.406  0.1702  0.0944  0.4075
  187MOL0     C25129  -0.995   2.859   0.354  0.2221 -0.4937  0.7073
  187MOL0     C25130  -1.120   2.815   0.416  0.4433  0.4419 -0.0170
  187MOL0     C25131  -1.231   2.797   0.313 -0.7499  0.2233 -0.4358
  187MOL0     C25132  -1.351   2.723   0.379  0.2254 -0.0568  0.4111
  187MOL0     C25133  -1.474   2.739   0.280 -0.0547 -0.1279 -0.7079
  187MOL0     O25134  -1.585   2.655   0.309 -0.0301  0.7926 -0.7582
  187MOL0     C25135  -1.695   2.652   0.222  0.3981 -0.3468  0.2769
  187MOL0     C25136  -1.714   2.742   0.113  0.0838 -0.3812  0.5458
  187MOL0     C25137  -1.813   2.720   0.017  0.6377 -0.1072 -0.9180
  187MOL0     C25138  -1.827   2.836  -0.084  0.0454 -1.1726 -0.8101
  187MOL0     C25139  -1.912   2.619   0.039 -0.1509 -0.2836 -0.2994
  187MOL0     C25140  -2.039   2.604  -0.030  0.5750  0.4250  0.3138
  187MOL0     O25141  -2.129   2.517   0.033  0.6934 -0.4888  0.3355
  187MOL0     C25142  -2.249   2.502  -0.035 -0.9297  0.1117 -0.0382
  187MOL0     C25143  -2.370   2.538   0.026 -0.5525  0.1708  0.7463
  187MOL0     C25144  -2.494   2.507  -0.024  0.3056  0.8236  0.0116
  187MOL0     C25145  -2.506   2.438  -0.150  0.1920 -0.2691 -0.4216
  187MOL0     O25146  -2.625   2.400  -0.211 -0.0195 -0.0634 -0.2305
  187MOL0     C25147  -2.756   2.429  -0.156 -0.2920  0.3170 -0.3833
  187MOL0     C25148  -2.855   2.458  -0.279 -0.7789  0.0087 -0.1184
  187MOL0     C25149  -2.996   2.459  -0.224 -0.2924 -0.3190 -0.5074
  187MOL0     C25150  -3.104   2.473  -0.331  0.4264 -0.6972 -0.0826
  187MOL0     C25151  -3.237   2.494  -0.259 -0.5136 -0.8822  0.1142
  187MOL0     C25152  -3.277   2.638  -0.303 -0.8605 -0.3754  0.1533
  187MOL0     C25153  -3.410   2.686  -0.237 -0.0435 -0.4339  1.1807
  187MOL0     C25154  -3.436   2.834  -0.263 -0.9481  0.7260 -0.9383
  187MOL0    Cl25155  -3.296   2.935  -0.199  0.0663  0.3013 -0.2712
  187MOL0     C25156  -2.386   2.407  -0.210 -0.4230 -0.2771 -0.5263
  187MOL0     C25157  -2.262   2.425  -0.154 -0.2152 -0.3554  0.4367
  187MOL0     O25158  -2.061   2.687  -0.123 -0.2248  0.7136 -0.0758
  187MOL0     C25159  -1.889   2.528   0.145  0.6916  0.6962 -0.3717
  187MOL0     C25160  -1.784   2.547   0.238  0.0124  0.0580  0.6321
  187MOL0     N25161  -0.996   2.898   0.220 -1.1739  0.3487 -0.3141
  187MOL0     N25162  -0.891   2.944   0.180 -0.1423  0.9915 -0.6184
  187MOL0     C25163   0.425   2.957   0.230 -0.4093  0.7023  0.3349
  187MOL0     C25164   0.543   3.019   0.217 -0.9836  0.3713  0.8731
  187MOL0     C25165   0.878   3.335   0.166 -0.6736  0.0962  0.0338
  187MOL0     C25166   0.905   3.374   0.030 -0.3570 -0.0394  0.3058
  187MOL0     C25167   1.029   3.436  -0.001  0.3999 -0.3201  0.4860
  187MOL0     C25168   1.126   3.453   0.093 -0.0769  0.3458  0.1205
  187MOL0     O25169   1.246   3.515   0.043  1.0001 -0.4349  0.1430
  187MOL0     C25170   1.356   3.517   0.138 -0.8867  0.2193  0.7672
  187MOL0     C25171   1.481   3.580   0.074 -0.2641 -0.5172 -0.6602
  187MOL0     C25172   1.597   3.583   0.167 -0.5344  0.3912 -0.1569
  187MOL0     C25173   1.677   3.451   0.166  0.0584  1.2468 -0.4729
  187MOL0     C25174   1.783   3.433   0.271  0.0875  0.4983 -0.1013
  187MOL0     C25175   1.869   3.442   0.352 -0.1420  0.2617 -0.0003
  187MOL0     C25176   1.104   3.406   0.218  0.2713 -0.5213 -0.0624
  187MOL0     C25177   0.977   3.365   0.259 -1.2034  0.0624  0.3001
  187MOL0     H25178   0.471   3.236  -0.034 -2.2067  1.4311  0.2637
  187MOL0     H25179   0.271   3.122  -0.028 -1.4866 -0.2792  1.8843
  187MOL0     H25180   0.174   2.928  -0.049  0.8162  1.0905  0.8615
  187MOL0     H25181   0.089   2.798   0.015  1.2134 -1.0657  0.6411
  187MOL0     H25182  -0.002   3.082   0.050  2.3665 -0.5744  0.7964
  187MOL0     H25183  -0.105   2.952  -0.007  0.4218  0.3882 -0.9327
  187MOL0     H25184  -0.091   2.831   0.219  1.0532 -0.1818  2.9231
  187MOL0     H25185   0.006   2.970   0.278 -2.1642  1.8920  1.0512
  187MOL0     H25186  -0.195   3.016   0.363 -0.7720  0.1178 -0.7650
  187MOL0     H25187  -0.190   3.124   0.227  1.0558 -0.1598 -0.4720
  187MOL0     H25188  -0.328   2.956   0.095  1.5859 -0.2472 -0.0225
  187MOL0     H25189  -0.339   2.842   0.225 -0.4244 -0.3924  0.3895
  187MOL0     H25190  -0.414   3.037   0.371  2.4553  1.6990 -0.4273
  187MOL0     H25191  -0.451   3.133   0.226 -0.3230  1.2643  0.3600
  187MOL0     H25192  -0.591   2.942   0.136 -0.6254 -0.2028  0.8935
  187MOL0     H25193  -0.558   2.846   0.281 -2.3995 -0.2554  1.0332
  187MOL0     H25194  -0.696   3.132   0.257 -3.5599 -1.2518  0.3751
  187MOL0     H25195  -0.661   3.050   0.411 -3.0112  0.4337  0.6914
  187MOL0     H25196  -0.836   2.915   0.508 -1.2042 -0.9363  1.0668
  187MOL0     H25197  -1.103   2.714   0.454  0.6733 -0.1710 -1.6732
  187MOL0     H25198  -1.150   2.875   0.503  0.3910 -0.4986  0.6279
  187MOL0     H25199  -1.194   2.730   0.236  0.2372 -1.7255  1.6207
  187MOL0     H25200  -1.272   2.890   0.271  0.7156  0.1691 -2.1039
  187MOL0     H25201  -1.366   2.772   0.475  1.2351  1.1351 -0.0063
  187MOL0     H25202  -1.329   2.619   0.402  1.3250  0.6090  2.6635
  187MOL0     H25203  -1.432   2.704   0.185  1.9500 -0.2285  0.1561
  187MOL0     H25204  -1.511   2.841   0.285 -3.8432 -1.2985 -1.5062
  187MOL0     H25205  -1.657   2.834   0.107  0.4899 -0.5717  1.4307
  187MOL0     H25206  -1.743   2.902  -0.059  0.0724 -1.6196  0.3767
  187MOL0     H25207  -1.808   2.814  -0.189 -1.8403  1.9715 -1.9310
  187MOL0     H25208  -1.923   2.887  -0.075  0.5644 -0.3596  0.5240
  187MOL0     H25209  -2.361   2.592   0.120  0.5410  1.4968 -0.0800
  187MOL0     H25210  -2.577   2.530   0.042  1.0274 -0.8343  1.5859
  187MOL0     H25211  -2.785   2.350  -0.086 -0.0183 -1.1467 -1.8680
  187MOL0     H25212  -2.750   2.520  -0.096  0.8715 -0.7567  1.2215
  187MOL0     H25213  -2.828   2.555  -0.321  0.9353 -0.1735  0.5144
  187MOL0     H25214  -2.836   2.378  -0.351 -2.0696 -0.7640  0.3480
  187MOL0     H25215  -3.008   2.540  -0.151  1.3873 -0.5212  0.0346
  187MOL0     H25216  -3.017   2.362  -0.178  0.7989 -1.1701 -1.7423
  187MOL0     H25217  -3.074   2.560  -0.389  0.4733 -1.6619 -1.5434
  187MOL0     H25218  -3.106   2.382  -0.390  1.9280 -1.0013  0.2911
  187MOL0     H25219  -3.230   2.481  -0.151 -3.1200  2.7415  0.9197
  187MOL0     H25220  -3.309   2.425  -0.303 -0.9824 -0.7208  0.6123
  187MOL0     H25221  -3.198   2.705  -0.268 -1.2151  1.3106 -2.0847
  187MOL0     H25222  -3.289   2.655  -0.410 -0.3473 -0.4772  0.0787
  187MOL0     H25223  -3.395   2.664  -0.131 -0.3421  3.1441  2.0755
  187MOL0     H25224  -3.503   2.638  -0.269 -1.2357  2.5795 -0.2308
  187MOL0     H25225  -3.523   2.873  -0.210 -0.2838 -0.0331  0.8091
  187MOL0     H25226  -3.432   2.846  -0.371  2.2301 -1.5875 -1.2428
  187MOL0     H25227  -2.402   2.348  -0.300 -4.6588 -3.3172  1.8775
  187MOL0     H25228  -2.175   2.387  -0.206 -0.7155 -3.4319  1.6349
  187MOL0     H25229  -1.964   2.452   0.167 -1.1804  1.8675 -2.3751
  187MOL0     H25230  -1.765   2.469   0.312 -0.2771 -0.9283 -0.3048
  187MOL0     H25231   0.410   2.872   0.295  0.2356 -0.7653 -1.3680
  187MOL0     H25232   0.628   2.979   0.271  0.7316 -0.3499 -2.1035
  187MOL0     H25233   0.842   3.363  -0.058  1.1299 -0.3551 -0.7563
  187MOL0     H25234   1.046   3.484  -0.097  1.2922  0.4675  1.0189
  187MOL0     H25235   1.331   3.552   0.238 -2.6311  0.0984  0.4020
  187MOL0     H25236   1.376   3.411   0.161  2.5560  0.9517  1.7483
  187MOL0     H25237   1.458   3.686   0.064 -0.8677 -0.4707  0.9520
  187MOL0     H25238   1.514   3.541  -0.022  2.0302 -0.9545  0.2325
  187MOL0     H25239   1.577   3.614   0.270 -2.0325 -1.9517  0.3378
  187MOL0     H25240   1.661   3.666   0.136 -1.8584  1.5576  0.1540
  187MOL0     H25241   1.724   3.439   0.067 -1.6649  2.7839 -1.5462
  187MOL0     H25242   1.605   3.369   0.169  2.6362 -1.1583  1.0533
  187MOL0     H25243   1.956   3.437   0.415  0.1234  0.4601 -0.3474
  187MOL0     H25244   1.192   3.406   0.283  0.7546  1.2101 -0.6437
  187MOL0     H25245   0.964   3.343   0.365  1.0950  1.1004  0.8680
  188MOL0     O25246  11.241   8.276   2.665  0.1557  0.5915 -0.1539
  188MOL0     C25247  11.343   8.258   2.731  0.2658 -0.0896 -0.0671
  188MOL0     O25248  11.346   8.224   2.868 -1.1062  0.2404  0.4505
  188MOL0     C25249  11.231   8.237   2.939  1.3747  0.2310 -0.2005
  188MOL0     C25250  11.193   8.365   2.977 -0.4211 -0.1707  0.3220
  188MOL0     C25251  11.077   8.381   3.049  0.2095 -0.5785  0.3099
  188MOL0     C25252  10.993   8.273   3.071  0.1210  0.0404 -0.7720
  188MOL0     O25253  10.861   8.278   3.119  0.3055 -0.2346  0.6344
  188MOL0     C25254  10.834   8.386   3.205  0.4036 -0.4248 -0.6697
  188MOL0     C25255  10.697   8.379   3.286 -1.3525  0.3084 -0.2417
  188MOL0     C25256  10.689   8.254   3.368  0.7549 -0.4670 -0.5620
  188MOL0     C25257  10.650   8.127   3.289  0.1667  0.4282 -0.7921
  188MOL0     C25258  10.594   8.019   3.379 -0.5410  0.5780 -0.1828
  188MOL0     C25259  10.449   8.053   3.424 -0.2446  0.3421 -0.0686
  188MOL0     C25260  10.363   7.931   3.456 -0.1889  0.4224 -0.9593
  188MOL0     C25261  10.328   7.841   3.337  0.1343 -0.5973  0.7575
  188MOL0     N25262  10.235   7.906   3.246 -0.2430 -0.6308 -0.9603
  188MOL0     C25263  10.098   7.887   3.243  0.5553 -0.5606 -0.1030
  188MOL0     C25264  10.058   7.978   3.152 -0.5662 -0.9205 -0.3512
  188MOL0     C25265   9.918   7.995   3.103  0.4123  0.3715  0.3447
  188MOL0     C25266   9.888   8.133   3.048 -0.3118 -0.3441  0.7988
  188MOL0     C25267   9.738   8.172   3.053 -0.4464  0.0125  0.3937
  188MOL0     C25268   9.678   8.082   2.944  0.3662 -0.6162  0.4498
  188MOL0     O25269   9.542   8.126   2.924  0.0598  0.4819 -0.0116
  188MOL0     C25270   9.452   8.053   2.847  0.3825 -0.1142  0.6487
  188MOL0     C25271   9.497   7.958   2.752 -0.2360 -0.2830  0.0008
  188MOL0     C25272   9.400   7.901   2.660 -0.4092  0.0170  0.5865
  188MOL0     C25273   9.453   7.800   2.561  0.2848 -0.3751  0.1306
  188MOL0     C25274   9.265   7.938   2.656  0.5886  0.5665  0.7837
  188MOL0     C25275   9.157   7.885   2.566 -0.4616 -0.0086 -0.7370
  188MOL0     O25276   9.025   7.921   2.597  0.1147  0.4250 -0.0218
  188MOL0     C25277   8.924   7.891   2.516  0.0562 -0.2248 -0.0330
  188MOL0     C25278   8.872   7.760   2.491 -0.2311 -0.0879  0.9062
  188MOL0     C25279   8.749   7.744   2.420 -0.4755 -0.7335  0.1643
  188MOL0     C25280   8.683   7.853   2.363 -1.3402 -0.2192  0.7387
  188MOL0     O25281   8.576   7.814   2.286  0.2541 -0.1228  0.0481
  188MOL0     C25282   8.469   7.916   2.266  0.2596  0.4335  0.9460
  188MOL0     C25283   8.335   7.849   2.221 -0.8341  0.1000 -0.1518
  188MOL0     C25284   8.256   7.798   2.342 -0.6401 -0.0937  0.5115
  188MOL0     C25285   8.135   7.718   2.300  0.7754  0.7876 -0.1834
  188MOL0     C25286   8.062   7.669   2.429 -0.4121  0.1028  0.1838
  188MOL0     C25287   7.962   7.556   2.391  0.1491 -0.0690 -0.4769
  188MOL0     C25288   7.920   7.485   2.518 -0.6095 -0.3514 -0.2519
  188MOL0     C25289   7.840   7.365   2.481 -0.0669  0.2541 -0.2833
  188MOL0    Cl25290   7.943   7.243   2.421 -0.3868  0.1711 -0.2546
  188MOL0     C25291   8.743   7.979   2.372  0.7880  0.3512 -0.0850
  188MOL0     C25292   8.858   7.997   2.455  1.0466  0.7443 -0.2845
  188MOL0     O25293   9.181   7.801   2.484 -0.5481 -0.4671 -0.2021
  188MOL0     C25294   9.229   8.039   2.755  0.3858  0.3265 -0.9849
  188MOL0     C25295   9.318   8.093   2.853 -0.3171 -0.5635  0.3315
  188MOL0     N25296  10.162   8.046   3.099 -0.8016  0.0981  0.6506
  188MOL0     N25297  10.265   8.010   3.169 -0.3908  0.6673  0.3586
  188MOL0     C25298  11.035   8.145   3.042 -0.5634  0.0902  0.1883
  188MOL0     C25299  11.164   8.125   2.980  0.8389  0.0739 -0.8587
  188MOL0     C25300  11.477   8.263   2.653  0.4881  0.2363  0.0716
  188MOL0     C25301  11.598   8.271   2.723  0.3744  0.2207  0.1117
  188MOL0     C25302  11.718   8.267   2.643 -1.6202  0.7358 -0.3539
  188MOL0     C25303  11.720   8.258   2.506  0.2356  1.3211 -0.4668
  188MOL0     O25304  11.842   8.250   2.452  0.3013  0.5697 -0.2375
  188MOL0     C25305  11.851   8.286   2.313  0.0234  0.0978  0.3286
  188MOL0     C25306  11.986   8.257   2.256 -0.4274 -1.3522  1.2121
  188MOL0     C25307  12.078   8.371   2.317  1.0093  0.0772  0.1368
  188MOL0     C25308  12.181   8.418   2.216  0.4738 -0.8647 -0.2538
  188MOL0     C25309  12.276   8.519   2.269 -0.4135 -0.4691  0.6725
  188MOL0     C25310  12.352   8.602   2.297  0.1762 -0.3957  0.3532
  188MOL0     C25311  11.598   8.262   2.445 -0.2218  0.4651  0.7411
  188MOL0     C25312  11.479   8.257   2.512 -0.7407  0.8865 -0.2943
  188MOL0     H25313  11.259   8.448   2.954 -0.3379  0.0526  1.3120
  188MOL0     H25314  11.050   8.481   3.083  0.8970 -0.7086  1.2900
  188MOL0     H25315  10.918   8.421   3.265 -0.0930  3.8531 -2.1667
  188MOL0     H25316  10.811   8.473   3.143  0.1513 -0.4705 -0.6448
  188MOL0     H25317  10.693   8.469   3.349 -0.8779 -1.3310  2.2468
  188MOL0     H25318  10.609   8.391   3.221 -0.2793  0.6828 -1.6650
  188MOL0     H25319  10.782   8.237   3.422 -0.8814 -3.4026  1.5958
  188MOL0     H25320  10.614   8.266   3.447  1.3507 -3.6500  0.6389
  188MOL0     H25321  10.574   8.144   3.212 -1.5699  1.3619  1.0520
  188MOL0     H25322  10.739   8.079   3.246  1.0238  1.6789 -0.4584
  188MOL0     H25323  10.587   7.933   3.311 -0.2830 -0.1051  0.6417
  188MOL0     H25324  10.651   7.990   3.468  0.1287 -0.9352 -1.0578
  188MOL0     H25325  10.460   8.112   3.515  1.1691  0.9045 -0.5666
  188MOL0     H25326  10.402   8.110   3.343 -1.0468 -2.1717 -1.4693
  188MOL0     H25327  10.405   7.870   3.537 -1.6418  2.7671  1.7600
  188MOL0     H25328  10.269   7.969   3.498  0.5502 -0.4702  1.7544
  188MOL0     H25329  10.277   7.748   3.366 -0.0172 -0.9095 -0.4621
  188MOL0     H25330  10.425   7.821   3.292  0.6985  3.1588 -0.0190
  188MOL0     H25331  10.028   7.821   3.294 -2.4420  0.7939 -2.1198
  188MOL0     H25332   9.906   7.927   3.018 -1.6564  0.6590  0.3678
  188MOL0     H25333   9.850   7.957   3.179 -2.4091  0.8437 -1.7559
  188MOL0     H25334   9.929   8.153   2.948  1.1594 -0.9581  1.2515
  188MOL0     H25335   9.942   8.215   3.098 -0.0411 -0.9679  1.5536
  188MOL0     H25336   9.722   8.278   3.034  0.6544  0.3722  1.3531
  188MOL0     H25337   9.704   8.151   3.154 -0.3086 -3.1945 -0.0875
  188MOL0     H25338   9.688   7.975   2.961  1.4619 -0.6288 -0.1971
  188MOL0     H25339   9.733   8.099   2.851 -1.3003 -0.3663 -0.5308
  188MOL0     H25340   9.603   7.935   2.749  0.3023  1.9591 -1.1805
  188MOL0     H25341   9.555   7.769   2.585 -0.4746 -2.3576  1.0598
  188MOL0     H25342   9.403   7.703   2.574  0.9803 -0.7805 -0.1389
  188MOL0     H25343   9.440   7.838   2.459  1.7601 -0.2463 -0.0282
  188MOL0     H25344   8.920   7.671   2.531  1.7290 -0.5476 -2.1973
  188MOL0     H25345   8.714   7.642   2.412  0.0231 -1.0649  1.8261
  188MOL0     H25346   8.453   7.986   2.348  0.6005 -0.7375  2.0365
  188MOL0     H25347   8.491   7.981   2.181  0.0127 -2.6490 -1.6536
  188MOL0     H25348   8.276   7.930   2.178 -1.8267  0.5311  1.9087
  188MOL0     H25349   8.348   7.773   2.143 -3.0642  0.8174 -1.3029
  188MOL0     H25350   8.233   7.884   2.405 -2.1929  0.5726 -0.8759
  188MOL0     H25351   8.329   7.743   2.402  1.2383  2.4580  0.7327
  188MOL0     H25352   8.066   7.785   2.248 -1.7244 -1.3009  0.2080
  188MOL0     H25353   8.161   7.632   2.238  2.6633 -0.4706  2.1720
  188MOL0     H25354   8.016   7.759   2.472  3.6451  0.6928  4.0924
  188MOL0     H25355   8.135   7.635   2.504  0.3927  0.0395 -0.6185
  188MOL0     H25356   7.871   7.584   2.336  1.0494  1.0637 -1.4421
  188MOL0     H25357   8.002   7.483   2.320 -0.4906  0.3043 -1.2359
  188MOL0     H25358   7.855   7.553   2.574  0.8930 -0.1322  1.2791
  188MOL0     H25359   7.996   7.447   2.586 -1.6720 -0.0669  1.1453
  188MOL0     H25360   7.774   7.394   2.399 -1.0398 -0.7356  0.1306
  188MOL0     H25361   7.776   7.337   2.565 -0.4534  1.6718 -0.0733
  188MOL0     H25362   8.707   8.066   2.317  2.7968  3.5337  3.1821
  188MOL0     H25363   8.887   8.098   2.479  1.5042  0.3687  0.7973
  188MOL0     H25364   9.133   8.090   2.755 -0.6825 -1.5724  0.8052
  188MOL0     H25365   9.287   8.158   2.934  1.5014  0.0683  0.5711
  188MOL0     H25366  10.970   8.068   3.083 -0.7399  0.4366  0.5673
  188MOL0     H25367  11.206   8.032   2.945 -0.0494  0.4815 -3.2108
  188MOL0     H25368  11.600   8.291   2.830  1.3750 -2.6229  0.6987
  188MOL0     H25369  11.813   8.251   2.693 -1.1977 -1.0104 -1.5964
  188MOL0     H25370  11.788   8.221   2.251 -1.8436  2.2714 -0.1679
  188MOL0     H25371  11.800   8.382   2.302 -0.8866 -0.2149  1.4887
  188MOL0     H25372  11.982   8.278   2.149 -1.6579  1.5345  1.7459
  188MOL0     H25373  12.025   8.156   2.276  0.9988 -0.7002  1.8763
  188MOL0     H25374  12.137   8.326   2.398  3.6700  1.7130 -0.7961
  188MOL0     H25375  12.024   8.453   2.364  4.1040  1.8483  0.8920
  188MOL0     H25376  12.133   8.470   2.132 -0.4701  1.3545  1.5464
  188MOL0     H25377  12.244   8.336   2.183 -1.5086 -2.0199 -1.3824
  188MOL0     H25378  12.438   8.666   2.297  0.5389 -0.7804  2.5499
  188MOL0     H25379  11.590   8.268   2.337 -1.2957  3.3272  0.8909
  188MOL0     H25380  11.385   8.234   2.461  0.1641 -0.4843 -1.4433
  189MOL0     O25381   6.131   1.320   0.101  0.0349 -0.2671 -1.0907
  189MOL0     C25382   6.190   1.410   0.160 -0.6301 -0.0725 -0.2589
  189MOL0     O25383   6.136   1.509   0.240  0.3224 -0.1328 -0.0733
  189MOL0     C25384   5.999   1.496   0.268  0.2063 -0.0343 -0.2074
  189MOL0     C25385   5.966   1.492   0.401 -0.3027 -0.0530 -0.1844
  189MOL0     C25386   5.839   1.462   0.449  0.5503  0.6611  0.8052
  189MOL0     C25387   5.725   1.456   0.361 -0.5916  0.3305 -0.0348
  189MOL0     O25388   5.594   1.437   0.407 -0.4038 -0.3826 -0.0418
  189MOL0     C25389   5.560   1.331   0.503  0.0143  0.0675 -0.1509
  189MOL0     C25390   5.447   1.244   0.450  1.3638 -0.1071  0.4818
  189MOL0     C25391   5.313   1.315   0.468 -0.9982  1.0132  0.0349
  189MOL0     C25392   5.190   1.226   0.428 -0.2538 -0.4433 -0.2674
  189MOL0     C25393   5.056   1.306   0.436  0.1730  0.2541  0.2898
  189MOL0     C25394   4.942   1.246   0.364 -0.2512  0.8966  0.5246
  189MOL0     C25395   4.894   1.126   0.434 -0.0112  0.8268  0.2230
  189MOL0     C25396   4.761   1.077   0.367  0.3154 -0.1828  0.5882
  189MOL0     N25397   4.655   1.178   0.392 -0.0939 -0.1041 -0.9984
  189MOL0     C25398   4.596   1.248   0.302  0.1080  0.7463  0.7999
  189MOL0     C25399   4.506   1.332   0.361  0.5522 -0.0768 -0.3443
  189MOL0     C25400   4.415   1.438   0.309 -0.3439 -0.5956 -0.4441
  189MOL0     C25401   4.269   1.416   0.286  0.2784 -0.0201  0.4808
  189MOL0     C25402   4.242   1.293   0.192 -0.0656  0.1395  0.2703
  189MOL0     C25403   4.097   1.282   0.176 -0.0578 -0.0138 -0.0508
  189MOL0     O25404   4.062   1.145   0.151 -0.0138 -0.1166 -0.0648
  189MOL0     C25405   3.929   1.107   0.169  0.0891  0.1923  0.5922
  189MOL0     C25406   3.915   0.981   0.221  0.2717 -0.4765 -0.9352
  189MOL0     C25407   3.787   0.928   0.240  0.6230 -0.2538 -0.5592
  189MOL0     C25408   3.786   0.778   0.278  0.0820 -0.7420  0.0066
  189MOL0     C25409   3.672   1.008   0.221 -0.0531  1.2828  0.8726
  189MOL0     C25410   3.533   0.954   0.245 -0.2296 -0.4923  0.3310
  189MOL0     O25411   3.436   1.026   0.189 -0.2174  0.5787  0.5508
  189MOL0     C25412   3.324   1.036   0.261 -0.7108  0.1440  0.6505
  189MOL0     C25413   3.306   1.128   0.370 -0.4186 -0.3626 -0.0328
  189MOL0     C25414   3.200   1.119   0.459 -0.4625  0.1587  0.4176
  189MOL0     C25415   3.104   1.012   0.448  0.6506  0.2038 -0.3964
  189MOL0     O25416   2.994   0.979   0.526 -0.3963  0.2287 -0.4666
  189MOL0     C25417   2.945   1.068   0.625 -1.3671  0.1846  0.8206
  189MOL0     C25418   2.833   1.001   0.690 -0.6132  0.2828 -1.1654
  189MOL0     C25419   2.751   1.096   0.787 -0.1343 -0.0639 -0.4853
  189MOL0     C25420   2.633   1.031   0.849 -0.2931 -0.9327 -0.0886
  189MOL0     C25421   2.557   1.126   0.946 -0.9839  0.3436 -0.0275
  189MOL0     C25422   2.412   1.065   0.967  0.3049  0.6885  0.4524
  189MOL0     C25423   2.330   1.142   1.073  0.5713  0.2243 -0.0451
  189MOL0     C25424   2.195   1.070   1.090 -0.4600  0.3784 -0.2417
  189MOL0    Cl25425   2.111   1.126   1.233  0.0309 -0.4730  0.2781
  189MOL0     C25426   3.115   0.929   0.341  0.4574  0.0884 -0.1902
  189MOL0     C25427   3.219   0.941   0.245  0.4390 -0.9740 -0.3502
  189MOL0     O25428   3.521   0.881   0.335 -0.2350  0.2507  0.2930
  189MOL0     C25429   3.693   1.140   0.159  0.2388 -0.8114  0.2737
  189MOL0     C25430   3.819   1.188   0.134 -0.7563 -0.3466  0.0711
  189MOL0     N25431   4.539   1.325   0.497  0.9582  0.2812 -0.1160
  189MOL0     N25432   4.622   1.226   0.513 -0.3852 -0.1041 -0.0230
  189MOL0     C25433   5.750   1.460   0.223 -0.7601  0.7816  0.6075
  189MOL0     C25434   5.884   1.482   0.173 -0.0771  0.3544 -0.5120
  189MOL0     C25435   6.333   1.416   0.124 -0.1742  0.4199 -0.8146
  189MOL0     C25436   6.412   1.525   0.150  1.0661  0.0964 -0.8941
  189MOL0     C25437   6.542   1.540   0.108  0.0852 -0.0213  0.1408
  189MOL0     C25438   6.607   1.436   0.045  0.1298 -1.1495  0.5032
  189MOL0     O25439   6.739   1.453  -0.000 -0.2713 -0.3274  0.0219
  189MOL0     C25440   6.804   1.339  -0.057  0.3526 -0.3478 -0.0619
  189MOL0     C25441   6.956   1.388  -0.085  1.1809  0.7461 -0.8941
  189MOL0     C25442   7.045   1.273  -0.129 -0.1529 -0.2522 -1.0201
  189MOL0     C25443   7.067   1.282  -0.276  0.2849  0.1041 -0.1118
  189MOL0     C25444   7.137   1.164  -0.324  0.4902 -0.0327  0.1897
  189MOL0     C25445   7.189   1.069  -0.371 -0.2607  1.1875 -0.3749
  189MOL0     C25446   6.535   1.320   0.022  0.4762  0.2920  0.0573
  189MOL0     C25447   6.403   1.304   0.072  0.0959  0.2095  0.4467
  189MOL0     H25448   6.049   1.517   0.465 -1.1002 -1.5165  1.4983
  189MOL0     H25449   5.811   1.442   0.552 -2.0970  2.9453  0.6590
  189MOL0     H25450   5.651   1.278   0.533  0.1585  0.3191 -0.1368
  189MOL0     H25451   5.529   1.381   0.596  1.5326  1.2431 -0.2458
  189MOL0     H25452   5.468   1.203   0.350  1.9353 -2.9610  1.6685
  189MOL0     H25453   5.428   1.154   0.510 -1.4783  0.3953  0.4998
  189MOL0     H25454   5.300   1.338   0.575 -2.9294 -1.6569  0.4679
  189MOL0     H25455   5.313   1.410   0.414  1.1488  0.8790 -0.2829
  189MOL0     H25456   5.199   1.176   0.331  0.2466  1.1573 -1.0810
  189MOL0     H25457   5.174   1.142   0.495  2.3671 -0.0875  0.9371
  189MOL0     H25458   5.033   1.307   0.543  1.1816 -0.2823  0.5364
  189MOL0     H25459   5.078   1.405   0.395 -1.6479  1.0480  1.1346
  189MOL0     H25460   4.871   1.329   0.359  0.6895  1.6494 -2.4781
  189MOL0     H25461   4.970   1.234   0.259  0.6789 -2.6000  1.0397
  189MOL0     H25462   4.964   1.044   0.413 -1.9097 -0.7785 -0.0985
  189MOL0     H25463   4.893   1.144   0.542  4.5501  0.0847  0.5914
  189MOL0     H25464   4.740   0.982   0.417  0.3966  1.0674  3.1499
  189MOL0     H25465   4.784   1.075   0.260 -1.0924  3.3193  0.0976
  189MOL0     H25466   4.618   1.237   0.196  0.8176 -0.0835  1.0235
  189MOL0     H25467   4.430   1.515   0.385 -0.4113  0.1047 -1.1236
  189MOL0     H25468   4.457   1.472   0.213 -1.1729 -0.4381 -0.7594
  189MOL0     H25469   4.229   1.503   0.234  2.2597  2.1480  2.3384
  189MOL0     H25470   4.214   1.397   0.378 -1.5146  0.1050 -0.5135
  189MOL0     H25471   4.286   1.205   0.241  0.2999  0.1593 -0.0203
  189MOL0     H25472   4.283   1.322   0.095 -3.3051 -0.3141 -1.3405
  189MOL0     H25473   4.067   1.353   0.097  1.3834  1.5237  0.7157
  189MOL0     H25474   4.045   1.324   0.263 -0.9942 -1.8025  0.2879
  189MOL0     H25475   4.008   0.929   0.243 -0.3446 -3.3483 -4.2666
  189MOL0     H25476   3.881   0.725   0.293  0.5402 -0.1992 -0.9067
  189MOL0     H25477   3.737   0.773   0.376 -0.9383  0.3180 -0.4257
  189MOL0     H25478   3.734   0.718   0.203  3.3445 -3.7666 -0.1281
  189MOL0     H25479   3.383   1.203   0.389  0.3046 -0.9730 -0.4975
  189MOL0     H25480   3.179   1.192   0.537  1.4990  2.4006 -1.0247
  189MOL0     H25481   3.021   1.098   0.698  1.2463 -1.4366 -1.0844
  189MOL0     H25482   2.919   1.160   0.572  2.4949 -0.1751 -2.0949
  189MOL0     H25483   2.761   0.962   0.617 -1.7780  0.5606 -0.2082
  189MOL0     H25484   2.874   0.925   0.758  0.1965  0.8613 -0.9977
  189MOL0     H25485   2.705   1.181   0.737  0.2073  0.1752 -0.3919
  189MOL0     H25486   2.818   1.126   0.868  3.0672 -0.8616 -2.6550
  189MOL0     H25487   2.570   0.999   0.766 -1.0226  2.3964 -0.9552
  189MOL0     H25488   2.672   0.942   0.900  0.7087 -0.0568  0.7357
  189MOL0     H25489   2.543   1.227   0.907  1.2784  0.3375 -1.0472
  189MOL0     H25490   2.617   1.119   1.038 -0.7022 -0.0623 -0.2390
  189MOL0     H25491   2.350   1.074   0.877  0.7383  0.3697  0.1095
  189MOL0     H25492   2.415   0.957   0.987 -3.1749  0.3938  0.0189
  189MOL0     H25493   2.303   1.244   1.046  0.0729  0.1774  0.2553
  189MOL0     H25494   2.387   1.151   1.166 -0.5852 -0.8917  0.8207
  189MOL0     H25495   2.198   0.961   1.081  1.7227  0.3342  0.4170
  189MOL0     H25496   2.137   1.110   1.006  0.0120  0.5376 -0.4972
  189MOL0     H25497   3.034   0.859   0.323  0.2149  0.5676 -0.9832
  189MOL0     H25498   3.218   0.874   0.159 -2.8928 -1.1175 -0.3325
  189MOL0     H25499   3.608   1.201   0.131  1.3412 -0.4161 -2.5637
  189MOL0     H25500   3.822   1.287   0.091  0.2172 -1.3944 -2.4872
  189MOL0     H25501   5.667   1.434   0.157  0.4479 -0.2070 -0.5969
  189MOL0     H25502   5.903   1.485   0.067  2.0459  0.1797 -0.1708
  189MOL0     H25503   6.367   1.612   0.197  1.2151  0.1839 -0.9147
  189MOL0     H25504   6.591   1.636   0.120 -2.9821  1.6949  0.0222
  189MOL0     H25505   6.810   1.254   0.012  3.2908  1.6324  2.3990
  189MOL0     H25506   6.757   1.303  -0.149  1.4883 -4.4515  0.7640
  189MOL0     H25507   6.994   1.417   0.014  0.6623 -1.9492  0.1843
  189MOL0     H25508   6.952   1.472  -0.155  1.2799  1.0735 -0.5105
  189MOL0     H25509   7.011   1.175  -0.096  2.3117 -1.7980 -2.7300
  189MOL0     H25510   7.141   1.286  -0.077 -0.0993  0.7431 -1.3439
  189MOL0     H25511   7.134   1.368  -0.290  1.8506 -1.3664 -2.3078
  189MOL0     H25512   6.986   1.305  -0.345  0.6444  1.0211 -0.2441
  189MOL0     H25513   7.242   0.982  -0.403 -0.3776  0.9294  0.1264
  189MOL0     H25514   6.582   1.228  -0.011 -1.2856 -0.5343 -0.2608
  189MOL0     H25515   6.343   1.215   0.058 -0.0712  0.5804 -1.2919
  190MOL0     O25516   9.334   1.636   4.168  0.0828 -1.2727  0.4208
  190MOL0     C25517   9.357   1.755   4.190  0.1029 -0.3099 -0.5904
  190MOL0     O25518   9.282   1.830   4.280  0.4262  0.3137  0.5828
  190MOL0     C25519   9.150   1.806   4.307 -0.3431 -0.5760 -0.2422
  190MOL0     C25520   9.116   1.786   4.441 -0.0063  0.7847  0.0121
  190MOL0     C25521   8.984   1.789   4.474  0.1784 -0.0906  0.0186
  190MOL0     C25522   8.881   1.800   4.376  0.2754 -0.1137 -1.0968
  190MOL0     O25523   8.755   1.813   4.409  1.0868  0.1041 -0.0604
  190MOL0     C25524   8.654   1.738   4.332 -0.0614  0.5160  0.5318
  190MOL0     C25525   8.527   1.720   4.412  0.1595 -0.2018 -0.2735
  190MOL0     C25526   8.544   1.633   4.536 -0.4286  0.4575 -0.4191
  190MOL0     C25527   8.464   1.675   4.652  0.1566 -0.1919  0.0248
  190MOL0     C25528   8.308   1.669   4.619 -0.0978  0.4670 -0.5091
  190MOL0     C25529   8.218   1.662   4.747 -0.4723 -0.2214  0.2204
  190MOL0     C25530   8.074   1.663   4.690  0.2871 -0.5422 -0.4813
  190MOL0     C25531   7.970   1.651   4.796  0.7471 -0.1585 -0.7481
  190MOL0     N25532   7.961   1.776   4.876 -0.5541  0.1853 -0.5491
  190MOL0     C25533   7.917   1.898   4.821 -0.3885  0.6627  0.8129
  190MOL0     C25534   7.923   1.993   4.921  0.6281  0.4818  1.0000
  190MOL0     C25535   7.904   2.143   4.898 -0.1782  0.7470 -0.2562
  190MOL0     C25536   7.756   2.181   4.857 -0.1372  0.0621 -0.2298
  190MOL0     C25537   7.657   2.167   4.975 -0.2423 -1.6943 -0.2287
  190MOL0     C25538   7.523   2.233   4.940  1.1629 -0.2496 -0.0105
  190MOL0     O25539   7.450   2.250   5.066 -0.9772  0.7407  0.0181
  190MOL0     C25540   7.317   2.291   5.071 -0.2305 -0.7776 -0.5224
  190MOL0     C25541   7.244   2.347   4.965  1.2033 -0.6660  0.6889
  190MOL0     C25542   7.111   2.392   4.988 -0.9537  0.2661 -0.1935
  190MOL0     C25543   7.029   2.420   4.863 -0.3571  0.1163  0.4327
  190MOL0     C25544   7.055   2.387   5.111  0.1512  0.0876  0.3720
  190MOL0     C25545   6.907   2.415   5.131 -0.1383 -1.0888  0.0044
  190MOL0     O25546   6.866   2.540   5.080  0.3990  0.0241 -1.0520
  190MOL0     C25547   6.729   2.568   5.093 -0.2921 -0.2968 -0.4218
  190MOL0     C25548   6.638   2.522   4.993 -0.2695 -0.6317  0.3493
  190MOL0     C25549   6.502   2.562   4.997  0.0462  0.5294 -0.7454
  190MOL0     C25550   6.459   2.659   5.094  0.9819 -0.4026  0.1720
  190MOL0     O25551   6.331   2.702   5.105  0.5260  0.0899  0.3569
  190MOL0     C25552   6.239   2.667   5.000  1.0517 -0.1910 -0.1092
  190MOL0     C25553   6.100   2.726   5.037  1.2022  0.7155 -0.2651
  190MOL0     C25554   6.004   2.698   4.923  0.3328 -0.0380  0.5911
  190MOL0     C25555   5.850   2.730   4.969 -0.0951  0.0239 -0.7478
  190MOL0     C25556   5.758   2.713   4.847 -0.2938 -0.0804 -0.6972
  190MOL0     C25557   5.614   2.755   4.867  0.2390  0.1629 -0.6025
  190MOL0     C25558   5.523   2.682   4.762 -0.6262 -0.0783  0.6174
  190MOL0     C25559   5.375   2.677   4.796 -0.3635 -0.2577 -0.2108
  190MOL0    Cl25560   5.303   2.842   4.802  0.5779 -0.2689 -0.4305
  190MOL0     C25561   6.550   2.700   5.193 -0.1916 -0.5782 -0.1032
  190MOL0     C25562   6.686   2.665   5.184 -0.4996  0.0369  0.1581
  190MOL0     O25563   6.843   2.334   5.192 -1.0779  0.4285  0.3559
  190MOL0     C25564   7.129   2.328   5.223  0.1568 -0.1098  0.0449
  190MOL0     C25565   7.260   2.279   5.199 -1.3873 -0.9106  0.3318
  190MOL0     N25566   7.984   1.933   5.031  0.5049  0.4302  0.0748
  190MOL0     N25567   7.999   1.808   5.001  0.3189  0.2695 -0.3175
  190MOL0     C25568   8.917   1.822   4.242  0.1186  0.2887 -0.1423
  190MOL0     C25569   9.052   1.826   4.209  0.0970 -0.4290 -0.2489
  190MOL0     C25570   9.484   1.819   4.151  0.6254  0.7612 -0.1011
  190MOL0     C25571   9.506   1.955   4.164  0.1348  0.7523  0.3436
  190MOL0     C25572   9.623   2.016   4.118 -0.3362 -0.2218  0.1557
  190MOL0     C25573   9.726   1.947   4.046  0.2943  0.8354  0.1922
  190MOL0     O25574   9.836   2.012   4.001 -0.0262 -0.5189 -0.1055
  190MOL0     C25575   9.923   1.958   3.892  0.5456  0.6160  0.0880
  190MOL0     C25576  10.047   2.043   3.854  0.0889 -1.5243 -0.2773
  190MOL0     C25577  10.162   2.020   3.939 -0.0262  0.1858 -0.5933
  190MOL0     C25578  10.288   2.089   3.897  0.2344 -0.2218  0.1661
  190MOL0     C25579  10.400   2.013   3.953 -0.0640  0.8503 -0.2832
  190MOL0     C25580  10.495   1.962   4.018 -0.6748 -0.2258  0.2696
  190MOL0     C25581   9.694   1.809   4.023 -0.1128 -0.3966  0.4038
  190MOL0     C25582   9.582   1.750   4.086 -0.5285  0.0595  0.5994
  190MOL0     H25583   9.203   1.778   4.505 -0.6363  0.0449  0.7962
  190MOL0     H25584   8.948   1.774   4.575 -1.2256  1.1656 -0.2639
  190MOL0     H25585   8.627   1.787   4.238  1.0700  0.9989  0.4403
  190MOL0     H25586   8.681   1.635   4.306 -4.8549 -0.8333 -0.0466
  190MOL0     H25587   8.500   1.822   4.440 -0.6259  0.0097 -1.7431
  190MOL0     H25588   8.449   1.672   4.354  0.1073 -0.1841 -0.2176
  190MOL0     H25589   8.532   1.526   4.513  1.6968  0.7021 -3.1818
  190MOL0     H25590   8.650   1.625   4.562 -1.0732 -2.7175  1.8201
  190MOL0     H25591   8.470   1.595   4.727  1.2242 -0.5012 -0.3819
  190MOL0     H25592   8.504   1.770   4.690  1.9900 -1.8378  2.5816
  190MOL0     H25593   8.267   1.748   4.555 -0.8115  0.6014  0.1084
  190MOL0     H25594   8.301   1.573   4.566  1.7626  0.4579 -0.8115
  190MOL0     H25595   8.249   1.576   4.808  1.1560  0.2650  0.1108
  190MOL0     H25596   8.226   1.753   4.807 -0.5905  1.5388 -2.2959
  190MOL0     H25597   8.050   1.749   4.626 -1.3531  0.5097  1.4437
  190MOL0     H25598   8.074   1.576   4.623  0.2084  0.2411 -1.5312
  190MOL0     H25599   7.995   1.565   4.859 -2.1528 -0.7375 -0.2427
  190MOL0     H25600   7.874   1.616   4.758 -0.4260  0.1835  1.6713
  190MOL0     H25601   7.883   1.909   4.719  0.0018  0.9975  0.7142
  190MOL0     H25602   7.938   2.184   4.994  1.8300 -4.8140  1.8732
  190MOL0     H25603   7.976   2.178   4.824  0.9147 -0.9728 -0.0731
  190MOL0     H25604   7.722   2.122   4.771  0.3048  0.4543 -0.6773
  190MOL0     H25605   7.765   2.285   4.825 -2.0287  0.1145 -0.6874
  190MOL0     H25606   7.700   2.227   5.056  2.8595 -2.3605 -1.2348
  190MOL0     H25607   7.660   2.064   5.011  1.6634 -1.2174  1.2016
  190MOL0     H25608   7.467   2.171   4.869  0.7430  0.0142  0.0881
  190MOL0     H25609   7.543   2.328   4.891  2.0125 -1.2326 -1.6387
  190MOL0     H25610   7.275   2.357   4.862  2.9190 -1.3764  1.1102
  190MOL0     H25611   6.974   2.514   4.866 -0.5809  0.0420 -1.0409
  190MOL0     H25612   7.095   2.414   4.776 -0.8235  2.7342 -0.1712
  190MOL0     H25613   6.968   2.330   4.849  1.6007 -1.2346  0.1335
  190MOL0     H25614   6.676   2.452   4.919  1.2862 -1.2236  1.6582
  190MOL0     H25615   6.432   2.512   4.932  0.9184 -1.9783  0.1190
  190MOL0     H25616   6.281   2.720   4.914  2.4098  0.9775  1.2056
  190MOL0     H25617   6.222   2.559   4.990 -1.0856  0.1201 -0.3526
  190MOL0     H25618   6.059   2.663   5.116  2.5173 -0.7369 -0.6916
  190MOL0     H25619   6.116   2.834   5.050  1.9513  0.8048 -1.7066
  190MOL0     H25620   5.999   2.592   4.896  1.5710 -0.3639  1.5477
  190MOL0     H25621   6.041   2.745   4.831 -0.0578 -1.6739 -0.4438
  190MOL0     H25622   5.820   2.660   5.047  0.3475 -1.2925 -1.7219
  190MOL0     H25623   5.858   2.831   5.010  1.0118 -0.6301  0.7484
  190MOL0     H25624   5.759   2.606   4.825 -0.3028 -0.6974  1.9239
  190MOL0     H25625   5.819   2.759   4.768 -0.8600  2.0035  0.0060
  190MOL0     H25626   5.584   2.719   4.966  0.1486 -0.7878 -0.9653
  190MOL0     H25627   5.596   2.862   4.863 -3.6248 -0.3624 -1.2921
  190MOL0     H25628   5.550   2.580   4.734  2.3693  0.3818  1.5010
  190MOL0     H25629   5.529   2.744   4.673 -0.0874 -1.6669 -0.4956
  190MOL0     H25630   5.347   2.629   4.891 -1.6380 -1.1216 -0.9936
  190MOL0     H25631   5.324   2.614   4.722 -1.7675  0.5098  0.0595
  190MOL0     H25632   6.524   2.771   5.271 -1.3116 -1.6325  0.5266
  190MOL0     H25633   6.765   2.695   5.253  1.4346  0.8894 -2.2912
  190MOL0     H25634   7.077   2.308   5.316  0.4626 -2.2834 -0.1865
  190MOL0     H25635   7.317   2.228   5.276  0.1877 -0.5243 -0.5356
  190MOL0     H25636   8.835   1.842   4.174 -1.2662  0.0401  1.3768
  190MOL0     H25637   9.088   1.870   4.117  3.3873 -0.3952  0.9233
  190MOL0     H25638   9.448   2.028   4.221  1.6408  0.9156  1.7320
  190MOL0     H25639   9.642   2.119   4.148  1.7600 -0.9028  1.3356
  190MOL0     H25640   9.954   1.854   3.909  2.2456  1.1083  0.1862
  190MOL0     H25641   9.861   1.954   3.802  1.3537  0.7184 -0.4812
  190MOL0     H25642  10.016   2.148   3.861  1.0044 -1.3607  3.1759
  190MOL0     H25643  10.072   2.014   3.751 -1.1375 -1.6381 -0.5655
  190MOL0     H25644  10.181   1.912   3.946 -0.7896  0.1328  1.2190
  190MOL0     H25645  10.152   2.060   4.040  4.2581  3.4190 -1.1789
  190MOL0     H25646  10.298   2.192   3.932  0.1977  0.4077 -1.5470
  190MOL0     H25647  10.301   2.092   3.788 -1.5692 -1.0145 -0.0947
  190MOL0     H25648  10.574   1.917   4.074 -2.1228 -2.1386  0.8969
  190MOL0     H25649   9.757   1.738   3.971 -1.6804 -2.3041  0.9780
  190MOL0     H25650   9.562   1.646   4.063 -0.0578 -0.2043  1.3401
  191MOL0     O25651  10.612   8.743   8.107 -0.0720  0.2113 -0.3814
  191MOL0     C25652  10.718   8.688   8.139  0.0056  0.0635 -0.1608
  191MOL0     O25653  10.799   8.634   8.043  0.3641  0.5295 -0.3586
  191MOL0     C25654  10.755   8.628   7.914  0.1279 -0.1100 -0.3360
  191MOL0     C25655  10.811   8.711   7.831 -0.7646  0.8675 -0.2186
  191MOL0     C25656  10.766   8.703   7.698 -0.1374  0.4089  0.4397
  191MOL0     C25657  10.670   8.616   7.655 -0.2234  0.4403 -0.1779
  191MOL0     O25658  10.634   8.635   7.529 -0.3677  0.8459  0.0011
  191MOL0     C25659  10.544   8.557   7.470 -0.5118 -0.5929  0.6296
  191MOL0     C25660  10.551   8.593   7.313  0.1077 -0.4837  0.0304
  191MOL0     C25661  10.454   8.501   7.239 -0.8146  0.2274 -0.1048
  191MOL0     C25662  10.299   8.542   7.246  0.3487 -0.5444 -0.0163
  191MOL0     C25663  10.229   8.459   7.146  0.9247  0.3732  0.2348
  191MOL0     C25664  10.080   8.490   7.132  0.0607 -0.6155 -1.3502
  191MOL0     C25665  10.011   8.365   7.083 -0.8174 -0.2948  0.2847
  191MOL0     C25666   9.861   8.378   7.064 -0.7676  0.1414  0.3009
  191MOL0     N25667   9.805   8.264   6.988  0.0539 -0.5107 -0.0843
  191MOL0     C25668   9.823   8.242   6.859 -0.6302 -0.7475  0.5805
  191MOL0     C25669   9.751   8.133   6.825 -0.3421 -0.5537  0.0274
  191MOL0     C25670   9.745   8.060   6.696  0.7788  0.4106 -0.4336
  191MOL0     C25671   9.623   8.086   6.609 -0.2210 -0.3697  0.3344
  191MOL0     C25672   9.612   7.998   6.485 -0.6178 -0.1613 -0.5799
  191MOL0     C25673   9.495   8.035   6.391 -0.0987 -0.4353  0.2650
  191MOL0     O25674   9.375   8.021   6.458 -0.5247 -0.4067 -0.8246
  191MOL0     C25675   9.261   8.039   6.394  0.9938  0.2467 -0.4918
  191MOL0     C25676   9.240   8.085   6.263 -0.2049 -0.8291  0.8515
  191MOL0     C25677   9.110   8.100   6.209 -0.7432 -0.2077  0.1086
  191MOL0     C25678   9.099   8.152   6.072  0.2421  0.3500  0.8877
  191MOL0     C25679   8.990   8.074   6.288 -1.7475 -0.0854 -0.1211
  191MOL0     C25680   8.852   8.084   6.239  0.7333 -0.9556  0.4499
  191MOL0     O25681   8.749   8.107   6.329 -0.3922  0.5775 -0.2735
  191MOL0     C25682   8.620   8.086   6.296  0.3770  0.3247 -0.3166
  191MOL0     C25683   8.531   8.180   6.353 -0.5078 -0.0934  0.0979
  191MOL0     C25684   8.391   8.157   6.341  0.7836 -0.4362 -0.0967
  191MOL0     C25685   8.343   8.042   6.271 -0.2038  0.1052  1.1006
  191MOL0     O25686   8.207   8.024   6.267 -0.7539 -0.1645 -0.6816
  191MOL0     C25687   8.158   7.938   6.165  0.2105  0.2212 -0.2895
  191MOL0     C25688   8.003   7.931   6.187 -0.3048 -0.4308  0.1137
  191MOL0     C25689   7.940   7.794   6.174  0.3992 -0.6218  0.5437
  191MOL0     C25690   7.791   7.806   6.175 -0.0833  0.5477 -0.1124
  191MOL0     C25691   7.736   7.667   6.192 -0.0729  0.2496 -0.3217
  191MOL0     C25692   7.578   7.681   6.198 -0.3805 -0.5745  0.2418
  191MOL0     C25693   7.503   7.554   6.150  0.3805  0.1559  0.0927
  191MOL0     C25694   7.541   7.492   6.016 -0.5101  0.6060 -0.0100
  191MOL0    Cl25695   7.514   7.609   5.884  0.3282  0.1136 -0.2334
  191MOL0     C25696   8.440   7.956   6.207 -0.2404 -0.1926 -0.4378
  191MOL0     C25697   8.571   7.977   6.223 -0.1288  0.1832  0.6153
  191MOL0     O25698   8.830   8.077   6.117 -0.5625  0.2371  0.5048
  191MOL0     C25699   9.020   8.029   6.413  0.5483  0.1435 -0.2269
  191MOL0     C25700   9.146   8.001   6.466 -0.5370  0.5854  0.2181
  191MOL0     N25701   9.676   8.106   6.939 -0.4396 -0.2780 -0.1431
  191MOL0     N25702   9.714   8.182   7.041  1.0569  0.5526 -0.8393
  191MOL0     C25703  10.624   8.521   7.744  0.0635 -0.0579  0.9628
  191MOL0     C25704  10.662   8.533   7.878  0.3295 -1.0465 -0.8998
  191MOL0     C25705  10.761   8.707   8.275 -0.0363  0.8610 -0.9646
  191MOL0     C25706  10.672   8.749   8.380 -0.0752  0.2424  0.6481
  191MOL0     C25707  10.710   8.776   8.506 -0.7400  0.5264 -0.5301
  191MOL0     C25708  10.842   8.760   8.544  0.0917 -0.2404 -0.4004
  191MOL0     O25709  10.880   8.779   8.675  0.8218  0.3587 -0.1957
  191MOL0     C25710  10.798   8.843   8.777  0.3108 -0.6886 -0.0237
  191MOL0     C25711  10.888   8.878   8.901  0.7794 -0.3352  0.3251
  191MOL0     C25712  10.922   8.740   8.970 -0.6308 -1.4227 -0.3878
  191MOL0     C25713  10.970   8.755   9.119 -0.3941 -0.2556  0.0956
  191MOL0     C25714  11.082   8.853   9.133  0.5369  0.1747 -0.2038
  191MOL0     C25715  11.173   8.931   9.148 -0.1605  0.0055  0.0468
  191MOL0     C25716  10.934   8.712   8.452  0.7540 -0.0644  0.3398
  191MOL0     C25717  10.898   8.696   8.313  0.0607  0.4463 -0.6793
  191MOL0     H25718  10.874   8.794   7.862 -1.2624 -0.0067  3.5815
  191MOL0     H25719  10.799   8.783   7.632  0.3871 -0.4353 -0.3376
  191MOL0     H25720  10.553   8.452   7.499  2.0756 -0.3957  0.7852
  191MOL0     H25721  10.445   8.580   7.510 -0.2919 -1.5263  1.7856
  191MOL0     H25722  10.527   8.697   7.290  0.3906 -0.8493 -2.0743
  191MOL0     H25723  10.651   8.563   7.279  0.8937 -0.3345  2.0412
  191MOL0     H25724  10.476   8.505   7.132  0.7036  0.7765  0.2069
  191MOL0     H25725  10.461   8.398   7.276 -0.9021  0.4479  0.5167
  191MOL0     H25726  10.260   8.531   7.348  0.9056  0.3967  0.3197
  191MOL0     H25727  10.285   8.647   7.220 -0.7448 -1.3773 -3.1532
  191MOL0     H25728  10.273   8.468   7.047  1.3262  0.5781  0.4314
  191MOL0     H25729  10.238   8.358   7.186  0.1876  1.4168  3.3158
  191MOL0     H25730  10.038   8.524   7.228 -0.1051 -0.3742 -1.5054
  191MOL0     H25731  10.062   8.565   7.055 -0.2551 -1.4035 -2.0490
  191MOL0     H25732  10.049   8.338   6.984 -1.8705 -1.3070  0.1339
  191MOL0     H25733  10.033   8.280   7.149  1.5505 -0.8110 -1.0590
  191MOL0     H25734   9.846   8.464   6.998 -1.0451 -0.3099 -0.2352
  191MOL0     H25735   9.801   8.400   7.152 -0.7909  0.6203  0.1670
  191MOL0     H25736   9.884   8.299   6.790 -0.3560 -2.5504 -0.7334
  191MOL0     H25737   9.829   8.089   6.633  1.0821 -0.0727 -0.2596
  191MOL0     H25738   9.761   7.954   6.722  1.6958  0.5135 -0.5286
  191MOL0     H25739   9.629   8.188   6.572 -1.0958 -1.3175 -2.7586
  191MOL0     H25740   9.524   8.073   6.656  0.0225  0.3719  1.0737
  191MOL0     H25741   9.620   7.890   6.503  0.2242 -0.2059 -1.1890
  191MOL0     H25742   9.697   8.022   6.420  1.3397 -2.4811  0.9461
  191MOL0     H25743   9.488   7.969   6.304 -2.0000 -0.9093  0.7369
  191MOL0     H25744   9.502   8.133   6.343 -1.5309 -0.6968 -0.5417
  191MOL0     H25745   9.326   8.107   6.200 -1.6396  1.0598 -0.5548
  191MOL0     H25746   9.076   8.082   5.992  1.7252 -0.5485  1.2075
  191MOL0     H25747   9.039   8.244   6.068  2.9616  2.2293 -2.6462
  191MOL0     H25748   9.198   8.191   6.045  1.1004 -0.7001  2.3767
  191MOL0     H25749   8.568   8.275   6.391  0.0206 -0.4585  0.5075
  191MOL0     H25750   8.310   8.215   6.382  1.0090 -2.0580  2.9168
  191MOL0     H25751   8.196   7.980   6.072  0.9508 -2.4346 -1.2822
  191MOL0     H25752   8.180   7.832   6.174 -0.9439  0.0300  0.5517
  191MOL0     H25753   7.981   7.960   6.290 -1.3604  1.1432 -0.5125
  191MOL0     H25754   7.946   7.998   6.121 -2.4517 -2.1556  0.1334
  191MOL0     H25755   7.975   7.741   6.262  0.9134  1.0284  1.3812
  191MOL0     H25756   7.963   7.753   6.075 -0.1353  1.0409 -0.3109
  191MOL0     H25757   7.749   7.866   6.255 -2.4853  0.4685 -1.2142
  191MOL0     H25758   7.764   7.851   6.079  0.5664 -0.9745 -1.0609
  191MOL0     H25759   7.766   7.622   6.287 -1.6826  0.1056  0.1464
  191MOL0     H25760   7.761   7.611   6.101  0.3625  3.8181 -2.6011
  191MOL0     H25761   7.546   7.709   6.299 -3.5998  0.2862 -0.8664
  191MOL0     H25762   7.539   7.763   6.136  0.0792 -2.0288 -2.0819
  191MOL0     H25763   7.396   7.577   6.155  0.5786  1.1831 -0.2796
  191MOL0     H25764   7.506   7.473   6.225  2.7372 -0.6201 -0.7559
  191MOL0     H25765   7.467   7.412   6.003 -0.2089 -0.2359  2.7611
  191MOL0     H25766   7.643   7.452   6.012 -1.4304 -2.0037  0.2925
  191MOL0     H25767   8.413   7.872   6.144  0.2549  0.9601 -2.2725
  191MOL0     H25768   8.649   7.915   6.180 -1.7342 -0.9925 -0.7470
  191MOL0     H25769   8.946   8.005   6.489  1.1029 -1.6910 -0.2253
  191MOL0     H25770   9.151   7.975   6.571 -0.1983  0.2744  0.1237
  191MOL0     H25771  10.543   8.455   7.714 -1.2521  0.3208  3.4201
  191MOL0     H25772  10.617   8.473   7.957  0.1903 -0.2848 -0.3887
  191MOL0     H25773  10.573   8.783   8.349  0.8302  1.5522 -1.0184
  191MOL0     H25774  10.637   8.830   8.565 -1.1132 -0.2087 -0.3108
  191MOL0     H25775  10.755   8.936   8.739 -0.4890  0.1911  2.7770
  191MOL0     H25776  10.716   8.779   8.812  0.5585 -1.0009 -0.0068
  191MOL0     H25777  10.818   8.928   8.970 -1.2171 -0.4513 -1.4952
  191MOL0     H25778  10.971   8.946   8.882  0.5254 -0.4751 -1.4300
  191MOL0     H25779  11.002   8.684   8.920  2.6586 -0.8802  3.7326
  191MOL0     H25780  10.833   8.677   8.969  0.1868 -2.6972  1.5598
  191MOL0     H25781  11.005   8.666   9.173  2.9173  0.6835 -0.2779
  191MOL0     H25782  10.899   8.793   9.193  0.3938 -1.1177  1.3360
  191MOL0     H25783  11.250   9.002   9.171  0.4509 -0.2810 -1.0227
  191MOL0     H25784  11.037   8.696   8.483  1.2823  0.7092 -0.9237
  191MOL0     H25785  10.978   8.667   8.245  0.2605 -1.2313  0.2142
  192MOL0     O25786   1.390   2.367   2.654  0.6090  0.2464 -0.9874
  192MOL0     C25787   1.419   2.344   2.767  0.3314  0.0873  0.2070
  192MOL0     O25788   1.326   2.340   2.874  0.5100 -0.0948 -0.4541
  192MOL0     C25789   1.210   2.415   2.851  0.2511 -0.1553 -0.0041
  192MOL0     C25790   1.090   2.355   2.829 -0.2814 -0.0103 -0.5766
  192MOL0     C25791   0.977   2.439   2.800  0.0544  0.7620 -0.3151
  192MOL0     C25792   0.983   2.576   2.806  0.0009 -0.1602 -0.6275
  192MOL0     O25793   0.871   2.647   2.801 -0.0161 -0.0433 -0.1349
  192MOL0     C25794   0.835   2.701   2.925 -0.2927  0.3022 -0.2187
  192MOL0     C25795   0.719   2.790   2.909  0.6474 -0.4375  0.2275
  192MOL0     C25796   0.758   2.932   2.957 -0.2820  0.0246 -0.4772
  192MOL0     C25797   0.639   3.017   2.986 -0.6357  0.1772  0.0022
  192MOL0     C25798   0.680   3.171   2.996  0.2912  0.9699 -0.0506
  192MOL0     C25799   0.689   3.234   2.867 -0.1171 -0.2520 -0.3097
  192MOL0     C25800   0.563   3.263   2.798  0.9540  0.4701  0.8446
  192MOL0     C25801   0.578   3.365   2.677 -0.1513 -0.5415  0.1408
  192MOL0     N25802   0.446   3.399   2.618 -0.1290 -0.2686  0.0002
  192MOL0     C25803   0.360   3.493   2.672 -0.4240 -0.1234 -0.3040
  192MOL0     C25804   0.258   3.483   2.595  0.8212  0.0818  0.0911
  192MOL0     C25805   0.144   3.581   2.618 -0.3850  0.2077  0.5270
  192MOL0     C25806   0.014   3.521   2.583 -0.0329 -0.2013  0.0353
  192MOL0     C25807  -0.112   3.611   2.607 -0.1407 -0.7532 -0.0095
  192MOL0     C25808  -0.233   3.534   2.555 -0.0013  0.6877  0.1275
  192MOL0     O25809  -0.261   3.571   2.422  0.6692  0.5616 -0.2515
  192MOL0     C25810  -0.379   3.526   2.361 -0.3978 -0.1091  0.1499
  192MOL0     C25811  -0.381   3.534   2.221 -0.1078 -0.6235  0.4149
  192MOL0     C25812  -0.506   3.503   2.157 -0.2501  0.0635  0.8463
  192MOL0     C25813  -0.509   3.522   2.005 -0.5947 -0.9626  0.8014
  192MOL0     C25814  -0.614   3.452   2.229  0.4542  0.9678 -0.0882
  192MOL0     C25815  -0.750   3.424   2.189  0.6501 -0.3680  0.0083
  192MOL0     O25816  -0.838   3.375   2.283  0.4613 -0.5034  0.1977
  192MOL0     C25817  -0.971   3.370   2.257 -0.1795 -0.1599 -0.6058
  192MOL0     C25818  -1.050   3.485   2.242 -1.4303 -0.4163 -0.4790
  192MOL0     C25819  -1.182   3.476   2.222 -0.0198  0.2601  0.3325
  192MOL0     C25820  -1.251   3.350   2.228 -0.2983  0.3445  0.0544
  192MOL0     O25821  -1.385   3.352   2.218 -0.3964  0.3863 -0.2838
  192MOL0     C25822  -1.459   3.242   2.179  0.7895 -0.0010  0.4662
  192MOL0     C25823  -1.611   3.273   2.190 -0.1174  0.9655 -0.0729
  192MOL0     C25824  -1.691   3.163   2.272 -0.2254 -0.3052  0.0488
  192MOL0     C25825  -1.850   3.156   2.260  0.2450  0.1685  0.6181
  192MOL0     C25826  -1.901   3.025   2.326 -0.1804  0.4525  0.3447
  192MOL0     C25827  -2.055   3.019   2.321 -0.2901  0.5565 -1.0311
  192MOL0     C25828  -2.120   2.880   2.365 -0.4204 -0.2004 -0.9254
  192MOL0     C25829  -2.252   2.849   2.300 -0.1307  0.4590 -0.1228
  192MOL0    Cl25830  -2.367   2.993   2.272  0.1249 -0.1666  0.0641
  192MOL0     C25831  -1.169   3.238   2.259 -0.2861  0.9250 -0.1442
  192MOL0     C25832  -1.033   3.243   2.262  0.0709 -0.0169  1.3299
  192MOL0     O25833  -0.773   3.453   2.071  0.1358  0.7078 -0.8885
  192MOL0     C25834  -0.603   3.438   2.374 -0.3115  0.1750 -0.2129
  192MOL0     C25835  -0.491   3.481   2.441 -0.9493  0.2480 -0.2932
  192MOL0     N25836   0.281   3.413   2.479  0.2763 -0.9248 -0.2525
  192MOL0     N25837   0.394   3.361   2.493 -0.1793  0.0762 -0.4929
  192MOL0     C25838   1.108   2.631   2.829 -0.4274  0.5611 -1.0192
  192MOL0     C25839   1.219   2.554   2.856 -0.0999 -0.5972 -0.2260
  192MOL0     C25840   1.560   2.308   2.797 -0.1228  0.7177  1.1617
  192MOL0     C25841   1.654   2.279   2.694 -0.3707  0.0798  0.2297
  192MOL0     C25842   1.791   2.267   2.727  0.0077  0.7414  0.9246
  192MOL0     C25843   1.833   2.293   2.858  0.2838  0.0679  0.9180
  192MOL0     O25844   1.972   2.293   2.884 -0.0097  0.3459  0.1998
  192MOL0     C25845   2.010   2.269   3.020 -0.0517  0.7355 -0.0995
  192MOL0     C25846   2.165   2.230   3.022 -0.1609 -0.8479  0.5351
  192MOL0     C25847   2.203   2.116   2.924 -0.0479  0.2974  0.3357
  192MOL0     C25848   2.136   1.981   2.956  0.0034  0.1963  0.5419
  192MOL0     C25849   2.168   1.934   3.091  0.7560  0.5993 -0.2123
  192MOL0     C25850   2.163   1.894   3.206  0.0078 -0.1615  0.3332
  192MOL0     C25851   1.744   2.308   2.964  0.0991  0.3264 -0.8177
  192MOL0     C25852   1.612   2.333   2.929  0.5811  0.7006  0.9945
  192MOL0     H25853   1.083   2.247   2.828  0.5433 -0.0842  0.4156
  192MOL0     H25854   0.884   2.401   2.761 -0.9702  2.6555  0.1912
  192MOL0     H25855   0.797   2.617   2.984 -2.9246 -0.2584 -2.4658
  192MOL0     H25856   0.916   2.758   2.970  1.9304 -0.2548 -3.2028
  192MOL0     H25857   0.695   2.797   2.803  0.3658 -1.1930  0.2337
  192MOL0     H25858   0.639   2.748   2.971  1.9738 -0.6900  1.8507
  192MOL0     H25859   0.811   2.928   3.053 -2.1168 -0.1323  0.5911
  192MOL0     H25860   0.823   2.971   2.879  0.5582 -0.6484 -0.1325
  192MOL0     H25861   0.567   3.006   2.904 -2.0714  1.8660  0.9759
  192MOL0     H25862   0.590   2.980   3.076  2.2454 -1.4015  1.0602
  192MOL0     H25863   0.597   3.225   3.042 -0.7162  0.0795 -0.7815
  192MOL0     H25864   0.763   3.186   3.066  2.0238 -1.8188 -1.3052
  192MOL0     H25865   0.734   3.327   2.900 -0.6804 -0.0391 -0.1221
  192MOL0     H25866   0.756   3.180   2.800 -1.4627 -0.5444 -1.4864
  192MOL0     H25867   0.522   3.168   2.763  0.5106  0.6893  0.7591
  192MOL0     H25868   0.481   3.303   2.859 -0.8220 -0.4368 -0.8578
  192MOL0     H25869   0.641   3.312   2.604 -2.2188 -1.4954 -1.0266
  192MOL0     H25870   0.625   3.459   2.709 -0.4581 -0.5300  0.5543
  192MOL0     H25871   0.359   3.549   2.765 -1.4971 -0.5164 -0.0621
  192MOL0     H25872   0.137   3.622   2.719  3.6904  0.6842  0.7706
  192MOL0     H25873   0.160   3.669   2.556  2.8864  0.1616  1.1600
  192MOL0     H25874   0.004   3.431   2.644 -0.1924 -0.4357 -0.3312
  192MOL0     H25875   0.028   3.489   2.479 -0.8059  0.1361 -0.1801
  192MOL0     H25876  -0.092   3.708   2.561  1.5694 -0.6365  0.8742
  192MOL0     H25877  -0.121   3.623   2.716  2.5078  0.8321  0.1236
  192MOL0     H25878  -0.314   3.565   2.622 -2.2710 -2.1555 -1.0936
  192MOL0     H25879  -0.211   3.428   2.563 -0.6027  0.5159 -0.4304
  192MOL0     H25880  -0.293   3.562   2.164 -0.9325 -1.7724 -1.5187
  192MOL0     H25881  -0.567   3.447   1.950 -1.3359  0.0318  0.1816
  192MOL0     H25882  -0.539   3.626   1.987  1.5163 -0.2232  1.2789
  192MOL0     H25883  -0.407   3.520   1.966 -1.5485  0.6146 -2.0608
  192MOL0     H25884  -1.005   3.583   2.232 -0.1159 -1.0378 -0.8749
  192MOL0     H25885  -1.244   3.561   2.194  0.8919  0.3834 -1.4758
  192MOL0     H25886  -1.443   3.221   2.073  0.1393  1.1699  0.1175
  192MOL0     H25887  -1.425   3.164   2.247  2.6203  0.8524  0.6031
  192MOL0     H25888  -1.636   3.356   2.257 -3.2846 -2.2716  3.2412
  192MOL0     H25889  -1.657   3.293   2.093 -2.3770  0.3487  0.7940
  192MOL0     H25890  -1.675   3.194   2.375  0.1081 -0.9029  0.1839
  192MOL0     H25891  -1.650   3.062   2.263 -2.3497 -1.2096 -0.0775
  192MOL0     H25892  -1.889   3.248   2.305  0.1433  2.0564 -2.9392
  192MOL0     H25893  -1.869   3.174   2.154 -0.1197 -0.1955  0.6203
  192MOL0     H25894  -1.870   3.012   2.430 -2.4650 -0.9153  0.9379
  192MOL0     H25895  -1.869   2.935   2.274 -2.9991 -0.6622  0.3784
  192MOL0     H25896  -2.101   3.104   2.371  1.7685  0.2389  1.6727
  192MOL0     H25897  -2.076   3.027   2.214 -1.3078  2.0302 -0.7462
  192MOL0     H25898  -2.126   2.863   2.473  2.3930 -1.8324 -0.9435
  192MOL0     H25899  -2.051   2.800   2.339 -0.1397 -0.9947  1.9953
  192MOL0     H25900  -2.307   2.774   2.357 -0.0605  0.2061 -0.3843
  192MOL0     H25901  -2.225   2.798   2.207 -1.6814 -1.9262  0.6404
  192MOL0     H25902  -1.212   3.139   2.270  1.3270  0.0197 -1.4632
  192MOL0     H25903  -0.978   3.149   2.273  0.1431 -0.0602  0.6477
  192MOL0     H25904  -0.679   3.421   2.450  2.4448  0.8250  2.9184
  192MOL0     H25905  -0.494   3.470   2.549 -1.1330 -1.7428 -0.4783
  192MOL0     H25906   1.123   2.738   2.834  0.2453  0.4136  1.0872
  192MOL0     H25907   1.314   2.605   2.868  0.7728 -1.9367 -1.1078
  192MOL0     H25908   1.619   2.260   2.593  1.4371 -3.0664  0.0425
  192MOL0     H25909   1.866   2.238   2.654 -0.1874 -0.0182  1.0091
  192MOL0     H25910   1.985   2.357   3.079  0.8904  1.2097 -0.3863
  192MOL0     H25911   1.947   2.192   3.067  2.0559 -0.7049  0.5176
  192MOL0     H25912   2.200   2.201   3.121 -2.4524  0.8662  1.9586
  192MOL0     H25913   2.226   2.317   2.995  0.3121 -1.6761 -1.2269
  192MOL0     H25914   2.311   2.100   2.934 -0.0087 -2.6355 -2.9053
  192MOL0     H25915   2.181   2.145   2.821  1.3927 -0.6713 -0.2736
  192MOL0     H25916   2.177   1.912   2.881 -1.8858 -1.0589  0.5633
  192MOL0     H25917   2.028   1.989   2.935 -0.0217 -2.0975 -0.6406
  192MOL0     H25918   2.166   1.861   3.308 -0.4560  0.0535  0.4164
  192MOL0     H25919   1.775   2.316   3.067  0.1813  0.2353 -0.8352
  192MOL0     H25920   1.545   2.353   3.012 -2.8125  1.4761 -1.7092
  193MOL0     O25921   9.916   2.787   6.780  1.2139  0.0652 -0.7022
  193MOL0     C25922   9.954   2.695   6.707 -0.6020  0.0014 -0.1422
  193MOL0     O25923   9.870   2.624   6.629 -0.0157  0.0063 -0.3572
  193MOL0     C25924   9.737   2.651   6.628  0.0361  1.2902  0.2857
  193MOL0     C25925   9.663   2.761   6.668 -0.5331 -0.5506  0.2175
  193MOL0     C25926   9.526   2.759   6.659 -0.1083  0.0588  0.7744
  193MOL0     C25927   9.459   2.638   6.621 -0.3822  0.3559 -0.6839
  193MOL0     O25928   9.324   2.636   6.631  0.4152 -0.0731  0.0315
  193MOL0     C25929   9.248   2.520   6.602 -0.2311 -0.0792  0.2143
  193MOL0     C25930   9.106   2.552   6.622  0.4677  0.9653  0.4991
  193MOL0     C25931   9.024   2.429   6.580  0.6736 -0.2181 -0.1214
  193MOL0     C25932   8.874   2.464   6.594 -0.0434  1.2129 -0.3014
  193MOL0     C25933   8.776   2.351   6.544 -0.1202  0.3198 -0.4757
  193MOL0     C25934   8.639   2.406   6.559  0.8647  0.1980  0.0871
  193MOL0     C25935   8.532   2.329   6.469  0.3949  0.6143  0.5268
  193MOL0     C25936   8.386   2.379   6.500 -0.3509 -0.2737  0.6425
  193MOL0     N25937   8.284   2.321   6.420 -0.4296 -0.1191 -0.2495
  193MOL0     C25938   8.161   2.384   6.404  0.2414 -0.1170  0.3319
  193MOL0     C25939   8.087   2.304   6.321  0.0909  0.5218  0.0434
  193MOL0     C25940   7.944   2.328   6.288  0.2513 -0.2182  0.5264
  193MOL0     C25941   7.921   2.433   6.175  0.2341  0.2993 -0.1796
  193MOL0     C25942   7.768   2.468   6.149  0.5203 -0.4961  0.3515
  193MOL0     C25943   7.751   2.567   6.035  0.1636  0.1226 -0.0433
  193MOL0     O25944   7.731   2.695   6.082 -0.1768 -0.3496 -0.3767
  193MOL0     C25945   7.606   2.756   6.109  0.5157 -0.4830  0.1939
  193MOL0     C25946   7.498   2.728   6.023 -0.4414  1.0086 -0.1993
  193MOL0     C25947   7.378   2.795   6.048  0.1237  0.4520 -0.3287
  193MOL0     C25948   7.266   2.767   5.943 -0.0940 -0.6734  0.2486
  193MOL0     C25949   7.364   2.886   6.148  0.0782  0.3792 -0.3045
  193MOL0     C25950   7.249   2.976   6.175  0.2766 -0.2257  0.1209
  193MOL0     O25951   7.224   3.013   6.299  0.7842 -0.2225 -0.5198
  193MOL0     C25952   7.103   3.079   6.332  0.1364  0.0064  0.0984
  193MOL0     C25953   6.985   3.093   6.256 -0.3017  0.1117 -0.3430
  193MOL0     C25954   6.873   3.144   6.310  0.5091  0.0604  0.2364
  193MOL0     C25955   6.864   3.181   6.444 -0.3657 -0.0512  0.0381
  193MOL0     O25956   6.753   3.226   6.517 -0.0893 -0.5099 -0.0299
  193MOL0     C25957   6.624   3.243   6.456 -0.0942 -0.3529 -0.4015
  193MOL0     C25958   6.547   3.113   6.458  0.7447 -0.5371  0.1318
  193MOL0     C25959   6.396   3.142   6.480  0.9413  0.0166  0.7921
  193MOL0     C25960   6.315   3.013   6.501  0.1452  0.1817 -0.4912
  193MOL0     C25961   6.185   3.019   6.574 -0.4842 -0.2476 -0.0816
  193MOL0     C25962   6.071   3.096   6.502  0.0471 -0.0732 -0.1017
  193MOL0     C25963   5.976   3.165   6.608  0.2027  0.1733 -0.8170
  193MOL0     C25964   5.859   3.239   6.541 -0.5717 -0.8220 -0.7265
  193MOL0    Cl25965   5.720   3.140   6.514 -0.3218 -0.0822 -0.1868
  193MOL0     C25966   6.978   3.166   6.525  0.3181  0.6411 -0.1207
  193MOL0     C25967   7.089   3.109   6.470 -0.3345  0.3286 -0.8151
  193MOL0     O25968   7.197   3.016   6.075 -0.3843 -0.9001 -0.0134
  193MOL0     C25969   7.465   2.891   6.239 -0.0152 -0.1129  0.4720
  193MOL0     C25970   7.588   2.826   6.221 -0.5736 -0.0041  0.1070
  193MOL0     N25971   8.166   2.198   6.294 -0.5086  1.4191  0.1024
  193MOL0     N25972   8.282   2.204   6.351  0.4498 -0.0860  0.7885
  193MOL0     C25973   9.536   2.534   6.566  0.6065 -0.4977  0.1941
  193MOL0     C25974   9.673   2.542   6.569 -0.2165  0.2407 -0.3296
  193MOL0     C25975  10.098   2.674   6.711  0.0417  0.3478  0.0672
  193MOL0     C25976  10.185   2.771   6.761  0.0189  0.0514  0.0312
  193MOL0     C25977  10.324   2.749   6.767  0.2700  0.2677  0.7106
  193MOL0     C25978  10.377   2.629   6.726  0.5836  0.3979 -0.2285
  193MOL0     O25979  10.513   2.618   6.723  0.7335  0.1577 -0.3593
  193MOL0     C25980  10.573   2.492   6.692  0.1061 -0.0385  0.0088
  193MOL0     C25981  10.726   2.500   6.690  0.4604 -0.4436  0.1795
  193MOL0     C25982  10.780   2.361   6.713  0.1265 -0.0999  0.4813
  193MOL0     C25983  10.935   2.343   6.714  0.0230 -0.1293 -0.3920
  193MOL0     C25984  10.999   2.416   6.826  0.0275  0.2677 -0.6342
  193MOL0     C25985  11.045   2.453   6.928 -0.0235  0.3966  0.4212
  193MOL0     C25986  10.287   2.539   6.664 -0.5257 -0.1183  0.8152
  193MOL0     C25987  10.153   2.563   6.656 -0.1666  0.1448  0.3273
  193MOL0     H25988   9.711   2.851   6.705  0.4197 -0.9311 -0.0374
  193MOL0     H25989   9.452   2.832   6.690 -1.5680 -1.8305  2.0226
  193MOL0     H25990   9.264   2.498   6.496 -1.9021 -0.7268  0.0772
  193MOL0     H25991   9.277   2.441   6.672 -1.9241 -0.9747 -0.0574
  193MOL0     H25992   9.081   2.573   6.726  2.0392  0.0765  1.1036
  193MOL0     H25993   9.075   2.633   6.556 -3.2116 -0.5424  0.1333
  193MOL0     H25994   9.057   2.405   6.478 -0.4268  1.2925 -0.8685
  193MOL0     H25995   9.041   2.340   6.641 -2.0966 -1.1267 -0.5530
  193MOL0     H25996   8.838   2.490   6.694 -1.5488  0.2845 -0.5681
  193MOL0     H25997   8.853   2.557   6.539 -0.9348 -1.0329 -4.1569
  193MOL0     H25998   8.812   2.329   6.443 -0.4577  1.0955 -0.7703
  193MOL0     H25999   8.789   2.260   6.602 -1.9565  0.5573  0.3612
  193MOL0     H26000   8.618   2.386   6.665  4.6562 -0.8589  0.8152
  193MOL0     H26001   8.639   2.511   6.530  2.5151 -0.1420 -1.3469
  193MOL0     H26002   8.555   2.353   6.365  0.1461  1.1159  0.5832
  193MOL0     H26003   8.535   2.221   6.480  0.5730  0.7464  1.9451
  193MOL0     H26004   8.374   2.487   6.490 -2.7098 -0.6053 -0.9244
  193MOL0     H26005   8.360   2.364   6.605  1.7345  1.4796  1.4844
  193MOL0     H26006   8.116   2.471   6.453 -0.2512  0.0432 -0.3871
  193MOL0     H26007   7.903   2.232   6.256 -0.9193  0.9231 -1.6165
  193MOL0     H26008   7.887   2.354   6.378  0.4846 -4.3684  2.1028
  193MOL0     H26009   7.961   2.397   6.080  0.1731 -2.4796  0.7690
  193MOL0     H26010   7.979   2.519   6.210 -0.0204 -0.6756  2.9596
  193MOL0     H26011   7.729   2.515   6.240 -1.2021 -1.2539  0.0357
  193MOL0     H26012   7.711   2.376   6.138 -1.8492  1.0357 -0.9617
  193MOL0     H26013   7.659   2.538   5.983  0.7184 -2.9468  0.4785
  193MOL0     H26014   7.842   2.565   5.974  0.0799  0.3474 -0.1765
  193MOL0     H26015   7.516   2.674   5.931  0.2350 -0.2788  0.6567
  193MOL0     H26016   7.291   2.692   5.867 -0.4923 -0.7060  0.1466
  193MOL0     H26017   7.179   2.728   5.996  0.2630 -1.1637  0.4906
  193MOL0     H26018   7.243   2.863   5.897 -1.0936 -1.1806 -0.3455
  193MOL0     H26019   6.970   3.059   6.154  0.1217  0.6524 -0.5920
  193MOL0     H26020   6.787   3.154   6.244  0.7543 -0.0194 -0.0985
  193MOL0     H26021   6.563   3.307   6.520 -0.5871 -1.3695  0.1688
  193MOL0     H26022   6.622   3.289   6.357  2.3153  3.2859  1.0180
  193MOL0     H26023   6.553   3.072   6.357  0.2757 -1.7169  0.5668
  193MOL0     H26024   6.594   3.047   6.531  1.9603  1.1526  0.9626
  193MOL0     H26025   6.347   3.197   6.399  0.0969 -1.9288 -0.0877
  193MOL0     H26026   6.377   3.199   6.571  1.3125  0.7938  0.3896
  193MOL0     H26027   6.296   2.970   6.402 -0.2336 -0.3166 -0.2055
  193MOL0     H26028   6.385   2.948   6.555  0.3443  0.9594  0.2022
  193MOL0     H26029   6.206   3.058   6.675  3.1015  1.0309 -1.1739
  193MOL0     H26030   6.146   2.918   6.588  1.6898 -1.7746 -3.7062
  193MOL0     H26031   6.124   3.173   6.444 -0.8005  1.7827  1.4556
  193MOL0     H26032   6.018   3.032   6.432 -1.4951  1.3900 -0.3394
  193MOL0     H26033   6.036   3.240   6.661  0.7438 -1.0538  0.3846
  193MOL0     H26034   5.935   3.096   6.682  0.3577  0.1018 -0.7978
  193MOL0     H26035   5.896   3.266   6.442 -3.0180  0.7898 -1.2831
  193MOL0     H26036   5.833   3.328   6.600  0.9358 -1.9144  1.7652
  193MOL0     H26037   6.984   3.179   6.632  1.2783 -2.0896  0.2347
  193MOL0     H26038   7.171   3.096   6.540 -0.0160  1.1613 -1.0316
  193MOL0     H26039   7.457   2.955   6.326  0.0386 -0.4404  0.7233
  193MOL0     H26040   7.679   2.855   6.272  0.6422  0.4646 -2.2034
  193MOL0     H26041   9.483   2.445   6.533 -0.4127  1.0004 -2.5568
  193MOL0     H26042   9.735   2.456   6.543 -3.3327 -1.8083 -1.5379
  193MOL0     H26043  10.147   2.856   6.816 -0.1664  0.1438 -0.2375
  193MOL0     H26044  10.391   2.824   6.808  1.0332  0.9549 -1.6352
  193MOL0     H26045  10.539   2.422   6.769  1.7159  0.4411  1.2052
  193MOL0     H26046  10.545   2.459   6.591  2.4163  2.1377 -1.4639
  193MOL0     H26047  10.759   2.563   6.773 -0.9771 -0.1887  0.5867
  193MOL0     H26048  10.766   2.540   6.596 -2.5906  0.2977 -0.9190
  193MOL0     H26049  10.729   2.293   6.645  0.9574 -1.0121  0.7434
  193MOL0     H26050  10.743   2.323   6.808  1.9741  3.2505  2.7675
  193MOL0     H26051  10.976   2.374   6.617  1.3121 -2.6502 -0.7514
  193MOL0     H26052  10.953   2.236   6.729 -3.4599 -1.0534 -1.7762
  193MOL0     H26053  11.091   2.500   7.013 -0.6453  0.7352  0.5748
  193MOL0     H26054  10.312   2.441   6.623  0.1547 -1.1551  3.5203
  193MOL0     H26055  10.084   2.492   6.613  1.7668 -1.1900 -0.7430
  194MOL0     O26056   3.242   4.341   1.419  0.0448  0.3315  0.5090
  194MOL0     C26057   3.326   4.420   1.364 -0.6316 -0.7446  0.4414
  194MOL0     O26058   3.298   4.554   1.328 -0.4937 -0.9288 -0.6068
  194MOL0     C26059   3.200   4.631   1.390 -0.2331 -0.2320  0.3423
  194MOL0     C26060   3.155   4.615   1.523  0.6142  1.1301 -1.1286
  194MOL0     C26061   3.067   4.702   1.580  0.5477  1.1602  0.2370
  194MOL0     C26062   3.042   4.821   1.516 -0.1031  0.0335 -0.3575
  194MOL0     O26063   2.964   4.903   1.588  0.5768 -0.3868  0.1255
  194MOL0     C26064   2.911   5.019   1.515 -0.0598  0.7872  1.1258
  194MOL0     C26065   2.801   5.085   1.596 -0.2568  0.7100  0.0423
  194MOL0     C26066   2.689   4.979   1.609 -0.8258 -0.3267  0.7114
  194MOL0     C26067   2.567   5.038   1.678  0.7133 -0.5681 -0.2828
  194MOL0     C26068   2.455   4.936   1.690  0.2011  0.0520  0.0378
  194MOL0     C26069   2.333   5.009   1.757  1.4743  0.3870 -0.4056
  194MOL0     C26070   2.205   4.925   1.777 -0.1516 -0.4380  0.0281
  194MOL0     C26071   2.103   5.002   1.864  0.1757 -0.5639 -0.2286
  194MOL0     N26072   1.976   4.925   1.868  0.2998  0.2654  0.0693
  194MOL0     C26073   1.887   4.913   1.771 -0.0247  0.1554 -0.2380
  194MOL0     C26074   1.768   4.854   1.817  0.0693 -0.3861 -0.4341
  194MOL0     C26075   1.652   4.820   1.738  0.9469 -0.0135  0.2329
  194MOL0     C26076   1.526   4.914   1.742 -0.5027  0.0971  0.2886
  194MOL0     C26077   1.455   4.912   1.875  0.7261 -0.6835  0.7339
  194MOL0     C26078   1.302   4.908   1.864  1.1938  0.1448  0.3738
  194MOL0     O26079   1.238   5.007   1.778 -0.0973  0.6530  0.7679
  194MOL0     C26080   1.107   4.978   1.762  0.5239 -0.3897  1.3484
  194MOL0     C26081   1.015   5.069   1.797 -1.7488 -0.2177  0.0206
  194MOL0     C26082   0.875   5.056   1.790 -0.6602 -1.1455 -0.3196
  194MOL0     C26083   0.781   5.175   1.821 -0.4369  0.3374 -0.1489
  194MOL0     C26084   0.835   4.932   1.741  0.1140 -0.1997 -0.3953
  194MOL0     C26085   0.691   4.892   1.735  0.4360  0.3150 -0.5378
  194MOL0     O26086   0.643   4.838   1.611 -0.0809  0.0442 -1.1028
  194MOL0     C26087   0.508   4.813   1.612  0.4111 -0.1283  1.2286
  194MOL0     C26088   0.442   4.690   1.647 -0.2350  0.0126  0.1531
  194MOL0     C26089   0.307   4.688   1.640 -0.0955 -0.0538 -0.0514
  194MOL0     C26090   0.230   4.800   1.593  0.3302  0.4600  0.0999
  194MOL0     O26091   0.095   4.785   1.604  0.1800 -0.1356 -0.4930
  194MOL0     C26092   0.005   4.878   1.542 -0.3592 -0.0002 -0.5005
  194MOL0     C26093  -0.146   4.840   1.543 -0.2104 -0.1769 -0.3108
  194MOL0     C26094  -0.160   4.705   1.472 -0.8230 -0.3254 -0.0504
  194MOL0     C26095  -0.306   4.647   1.456 -0.2109  0.0134 -0.7265
  194MOL0     C26096  -0.375   4.707   1.342 -0.0019  0.0644  0.3671
  194MOL0     C26097  -0.522   4.653   1.329 -0.0992 -0.1507  0.0218
  194MOL0     C26098  -0.597   4.671   1.458 -0.4034 -0.2794  0.1911
  194MOL0     C26099  -0.746   4.709   1.428 -0.2619 -0.5858 -0.1362
  194MOL0    Cl26100  -0.809   4.575   1.327  0.0111 -0.1623 -0.4092
  194MOL0     C26101   0.297   4.917   1.553 -0.2166  0.4831 -0.3059
  194MOL0     C26102   0.433   4.921   1.572  0.3491 -0.1872  0.3523
  194MOL0     O26103   0.620   4.915   1.830  0.4994 -0.4088  0.6755
  194MOL0     C26104   0.924   4.829   1.721  1.0999 -0.1511  0.4760
  194MOL0     C26105   1.057   4.856   1.714  0.3323 -0.5544  0.2454
  194MOL0     N26106   1.787   4.847   1.952 -0.1646 -0.1247  0.2856
  194MOL0     N26107   1.905   4.885   1.981  0.0605 -0.2956 -0.0656
  194MOL0     C26108   3.077   4.835   1.383  0.0458  0.7580 -0.2464
  194MOL0     C26109   3.159   4.743   1.318 -0.1006  0.2775  0.1019
  194MOL0     C26110   3.453   4.362   1.328  0.6077 -0.2560  0.7190
  194MOL0     C26111   3.552   4.442   1.261  0.5003 -0.0904  0.5769
  194MOL0     C26112   3.665   4.374   1.210  0.4676 -0.6013  0.1798
  194MOL0     C26113   3.670   4.236   1.216 -0.1665  0.1570 -0.4670
  194MOL0     O26114   3.772   4.152   1.177 -0.6029 -0.3350 -0.3530
  194MOL0     C26115   3.864   4.215   1.082  0.1193  0.4074  0.0617
  194MOL0     C26116   3.985   4.287   1.142  0.3323  0.8647  0.4395
  194MOL0     C26117   4.079   4.193   1.217 -0.9152  0.4064  0.3782
  194MOL0     C26118   4.226   4.256   1.192 -0.1654 -0.0882  0.2727
  194MOL0     C26119   4.334   4.207   1.281 -0.8294  0.1651  0.2270
  194MOL0     C26120   4.415   4.167   1.363  0.3327  0.3448 -0.3098
  194MOL0     C26121   3.575   4.157   1.276 -0.0458  0.3661 -0.7710
  194MOL0     C26122   3.470   4.220   1.335 -0.3756  0.1645  0.7395
  194MOL0     H26123   3.175   4.523   1.576 -2.4473  0.6575 -0.6030
  194MOL0     H26124   3.036   4.686   1.683  1.1090  0.2494  0.2775
  194MOL0     H26125   2.989   5.095   1.501  1.8774 -0.7444  2.9510
  194MOL0     H26126   2.886   4.994   1.412  0.4759  3.6290  0.2239
  194MOL0     H26127   2.842   5.107   1.695 -3.0771 -0.8790  1.6896
  194MOL0     H26128   2.763   5.171   1.540 -3.5462 -1.1520 -0.8847
  194MOL0     H26129   2.658   4.955   1.507  0.2560  2.9392 -0.4841
  194MOL0     H26130   2.726   4.890   1.661 -0.1421 -0.7315 -0.4363
  194MOL0     H26131   2.598   5.077   1.775 -0.6561  1.4742 -0.6082
  194MOL0     H26132   2.523   5.127   1.631  0.7436 -0.1114  0.5371
  194MOL0     H26133   2.437   4.895   1.590  0.5005 -1.4723  0.5841
  194MOL0     H26134   2.479   4.846   1.748  0.3735 -0.7832 -1.3015
  194MOL0     H26135   2.367   5.043   1.855  0.9721 -2.4798  0.8603
  194MOL0     H26136   2.294   5.089   1.694 -4.1119 -2.7474 -1.6193
  194MOL0     H26137   2.161   4.888   1.684 -0.8211 -0.4823  0.3589
  194MOL0     H26138   2.235   4.835   1.832  1.7379  0.1683  0.0444
  194MOL0     H26139   2.080   5.102   1.823  0.7972 -1.0801 -1.9299
  194MOL0     H26140   2.133   5.017   1.968 -2.3191 -0.0720  0.5045
  194MOL0     H26141   1.899   4.938   1.666 -1.3727 -2.0491 -0.9854
  194MOL0     H26142   1.680   4.820   1.632  0.8752 -0.7353  0.2074
  194MOL0     H26143   1.625   4.719   1.770 -1.7591  1.2863  2.4266
  194MOL0     H26144   1.459   4.883   1.663  1.7808 -1.3615 -1.1965
  194MOL0     H26145   1.564   5.014   1.719  0.6105  0.3388  2.7966
  194MOL0     H26146   1.473   5.008   1.924 -1.7585  0.7255 -0.8822
  194MOL0     H26147   1.489   4.823   1.929  0.2139 -1.3233  0.0123
  194MOL0     H26148   1.255   4.919   1.962 -0.2121 -1.1596 -0.1003
  194MOL0     H26149   1.282   4.806   1.828 -0.3688  0.4694  0.2746
  194MOL0     H26150   1.065   5.154   1.842  1.4183 -0.0898 -3.2650
  194MOL0     H26151   0.756   5.185   1.926 -1.9768  1.8356 -0.6244
  194MOL0     H26152   0.843   5.260   1.790 -1.3361  1.2816  0.6187
  194MOL0     H26153   0.688   5.176   1.764 -1.4036  2.2361  1.3647
  194MOL0     H26154   0.496   4.601   1.680 -0.9872  0.9514  4.4870
  194MOL0     H26155   0.244   4.604   1.668  0.2131 -0.0123  0.7924
  194MOL0     H26156   0.015   4.971   1.598 -1.6923  1.5925 -2.6900
  194MOL0     H26157   0.031   4.907   1.439 -2.7528 -1.2100 -1.5403
  194MOL0     H26158  -0.182   4.854   1.645  3.1927  0.0355  0.9944
  194MOL0     H26159  -0.200   4.912   1.482  2.8197  0.9687 -1.8680
  194MOL0     H26160  -0.105   4.637   1.537 -1.9849  0.9717  2.4569
  194MOL0     H26161  -0.101   4.713   1.379 -0.9215 -1.7884 -0.2580
  194MOL0     H26162  -0.306   4.538   1.451  1.8965 -0.3647  3.3520
  194MOL0     H26163  -0.362   4.678   1.544  1.3061 -0.1531  0.3448
  194MOL0     H26164  -0.322   4.676   1.252  0.3853 -0.6308  0.8253
  194MOL0     H26165  -0.381   4.816   1.351 -1.6696  0.0808 -0.4232
  194MOL0     H26166  -0.579   4.701   1.249  1.0277  4.2451  1.5896
  194MOL0     H26167  -0.503   4.547   1.310 -1.4334 -0.8536  2.1967
  194MOL0     H26168  -0.551   4.751   1.517  2.7381 -0.5116 -1.7544
  194MOL0     H26169  -0.591   4.582   1.523 -2.3341 -1.3267 -0.9658
  194MOL0     H26170  -0.750   4.804   1.373  0.3548  1.0872  2.5393
  194MOL0     H26171  -0.809   4.724   1.515 -0.8877  0.9563 -0.8130
  194MOL0     H26172   0.251   5.014   1.532 -1.0973 -0.3728 -2.6723
  194MOL0     H26173   0.486   5.015   1.564 -1.9219  1.5497  3.7184
  194MOL0     H26174   0.891   4.732   1.684 -1.1220  0.7889 -0.1775
  194MOL0     H26175   1.125   4.776   1.687  1.4342  0.5880 -0.4928
  194MOL0     H26176   3.051   4.923   1.324  1.2949  1.8294  0.7440
  194MOL0     H26177   3.189   4.752   1.214  1.0403 -0.4980  0.3428
  194MOL0     H26178   3.528   4.545   1.240  0.4242 -0.3465 -0.6565
  194MOL0     H26179   3.741   4.422   1.150  0.8962 -0.8301  0.5325
  194MOL0     H26180   3.890   4.136   1.011 -2.6668  2.7944 -4.0323
  194MOL0     H26181   3.821   4.288   1.012  4.2012  2.6502 -0.4268
  194MOL0     H26182   3.947   4.355   1.219  0.5361 -0.3210  1.6317
  194MOL0     H26183   4.035   4.344   1.063  3.7487 -2.1884  0.1164
  194MOL0     H26184   4.068   4.097   1.166 -0.5920  1.3345 -1.5562
  194MOL0     H26185   4.051   4.183   1.322  0.4191 -1.2328  0.6229
  194MOL0     H26186   4.231   4.366   1.189  1.5323 -0.1306 -3.5576
  194MOL0     H26187   4.249   4.234   1.087 -3.0479  1.6993 -0.8555
  194MOL0     H26188   4.483   4.120   1.432 -0.7977  3.1525  3.0216
  194MOL0     H26189   3.586   4.051   1.299  1.0785  0.1517 -2.1804
  194MOL0     H26190   3.395   4.148   1.367 -1.6088  1.9840  2.1209
  195MOL0     O26191   8.751   0.546   3.927 -0.2713  0.8068 -0.3100
  195MOL0     C26192   8.800   0.526   4.041 -0.0574  0.0266  0.0828
  195MOL0     O26193   8.751   0.573   4.159 -0.1253 -1.3378 -0.0477
  195MOL0     C26194   8.636   0.649   4.156 -0.1953  0.6857 -0.5249
  195MOL0     C26195   8.516   0.614   4.097 -0.5336  0.0052  1.0578
  195MOL0     C26196   8.400   0.688   4.115  0.7102  0.6058 -0.0303
  195MOL0     C26197   8.399   0.792   4.207 -0.1879  0.4544 -1.2174
  195MOL0     O26198   8.275   0.837   4.244 -0.0485 -0.9153 -0.0654
  195MOL0     C26199   8.263   0.944   4.341 -0.4997 -0.4602 -0.8677
  195MOL0     C26200   8.116   0.950   4.395 -0.2453 -0.3101 -0.7310
  195MOL0     C26201   8.023   0.976   4.280  0.5225  0.7202 -1.1427
  195MOL0     C26202   7.883   0.933   4.321 -0.0384 -0.7121 -0.3361
  195MOL0     C26203   7.771   0.957   4.222  0.0201  0.7071  0.8584
  195MOL0     C26204   7.642   0.969   4.291 -0.2445  0.0823  0.3090
  195MOL0     C26205   7.519   0.988   4.192  0.0912 -0.8218 -0.8037
  195MOL0     C26206   7.493   0.880   4.086 -0.2564  0.9323 -0.2731
  195MOL0     N26207   7.375   0.896   4.003 -0.5585 -0.0214  0.9556
  195MOL0     C26208   7.243   0.868   4.046 -0.9861 -0.2095  0.8573
  195MOL0     C26209   7.165   0.918   3.941  0.9490 -0.1977 -0.5192
  195MOL0     C26210   7.009   0.933   3.943 -0.6512 -0.3565 -0.1684
  195MOL0     C26211   6.946   0.989   3.818  0.1991 -0.3702 -0.1513
  195MOL0     C26212   6.802   0.940   3.800 -0.3501 -0.0601  0.6708
  195MOL0     C26213   6.747   0.979   3.665  0.3271 -1.2742 -0.0874
  195MOL0     O26214   6.832   0.909   3.565 -0.0601 -0.7978  0.0015
  195MOL0     C26215   6.793   0.785   3.531 -0.4324 -0.4896  0.0646
  195MOL0     C26216   6.849   0.666   3.579 -0.7202  0.3648  0.0005
  195MOL0     C26217   6.807   0.538   3.538  0.2488  0.2391  0.4142
  195MOL0     C26218   6.870   0.420   3.603 -0.8389  0.1922 -0.1992
  195MOL0     C26219   6.687   0.541   3.451 -0.9534  0.7313  0.0363
  195MOL0     C26220   6.625   0.420   3.413  0.3866  0.1546  0.8055
  195MOL0     O26221   6.491   0.418   3.379 -0.1493  0.9204 -0.3821
  195MOL0     C26222   6.426   0.294   3.360 -0.0841  0.1387  0.1530
  195MOL0     C26223   6.304   0.271   3.427 -0.2843  0.7654 -0.3858
  195MOL0     C26224   6.224   0.166   3.383  0.2889 -0.9968  0.6250
  195MOL0     C26225   6.260   0.084   3.274 -0.1742 -0.1617  0.2126
  195MOL0     O26226   6.180  -0.006   3.213  0.5435 -0.3623 -0.0121
  195MOL0     C26227   6.094  -0.073   3.306  0.0695  0.3620  0.2591
  195MOL0     C26228   6.009  -0.157   3.213 -0.1173  0.0117  0.0732
  195MOL0     C26229   5.879  -0.202   3.288 -0.7485  0.8688  0.3166
  195MOL0     C26230   5.764  -0.215   3.186  0.3342  0.4498  0.4662
  195MOL0     C26231   5.647  -0.259   3.270  0.7696 -0.3174  0.2507
  195MOL0     C26232   5.516  -0.258   3.193 -0.1385 -0.6573 -0.4803
  195MOL0     C26233   5.508  -0.342   3.064  0.3395  1.1220  0.2012
  195MOL0     C26234   5.402  -0.292   2.961  0.3953  0.9581 -0.4540
  195MOL0    Cl26235   5.320  -0.431   2.870 -0.1505 -0.4358 -0.3478
  195MOL0     C26236   6.379   0.106   3.206 -0.7086 -0.1304 -0.0865
  195MOL0     C26237   6.458   0.211   3.251 -0.6797 -0.5565 -0.1301
  195MOL0     O26238   6.702   0.331   3.389  0.2282 -0.3299  0.9558
  195MOL0     C26239   6.629   0.660   3.407 -0.0085 -0.2241  0.0313
  195MOL0     C26240   6.683   0.778   3.447 -0.0626 -0.2602  0.4655
  195MOL0     N26241   7.248   0.967   3.845 -0.3650 -0.6009 -0.9349
  195MOL0     N26242   7.375   0.959   3.878  0.6327  0.0848 -0.3602
  195MOL0     C26243   8.518   0.831   4.271  0.1383 -0.5180 -0.1230
  195MOL0     C26244   8.639   0.760   4.239  0.5657 -0.8174  0.5500
  195MOL0     C26245   8.935   0.452   4.041  0.2916 -0.1935  0.5071
  195MOL0     C26246   8.984   0.406   3.921  0.1728  0.7585 -0.2948
  195MOL0     C26247   9.111   0.360   3.909 -0.2012 -0.4655  0.0047
  195MOL0     C26248   9.199   0.330   4.019 -0.0697  0.1372 -0.3554
  195MOL0     O26249   9.325   0.275   4.004 -0.1451  0.5708 -1.2018
  195MOL0     C26250   9.404   0.317   3.896  0.0209 -0.9600 -0.7829
  195MOL0     C26251   9.548   0.271   3.913 -0.0698  0.1088  0.1429
  195MOL0     C26252   9.611   0.344   4.038  0.3750 -0.0026 -0.2755
  195MOL0     C26253   9.746   0.401   4.021  0.3671  0.0252  0.3121
  195MOL0     C26254   9.856   0.300   3.997 -0.0497 -0.6367 -0.0651
  195MOL0     C26255   9.926   0.207   3.973 -0.6189 -0.3325 -0.7365
  195MOL0     C26256   9.143   0.363   4.146 -0.2014  0.1868  0.2666
  195MOL0     C26257   9.020   0.426   4.148 -0.1802  0.3802 -0.3026
  195MOL0     H26258   8.502   0.529   4.032 -4.1917  2.4334 -1.7297
  195MOL0     H26259   8.316   0.637   4.069  1.2544 -0.2462 -0.0939
  195MOL0     H26260   8.334   0.935   4.423 -1.5233  0.7215  0.2075
  195MOL0     H26261   8.286   1.037   4.288 -2.2094 -0.3831 -1.5732
  195MOL0     H26262   8.090   0.865   4.460 -1.9252  1.1218  0.5608
  195MOL0     H26263   8.107   1.032   4.466 -1.7327 -0.3165 -0.8808
  195MOL0     H26264   8.030   1.083   4.260  2.5915  0.5419 -1.5198
  195MOL0     H26265   8.049   0.910   4.197 -1.9299 -0.2883 -1.1935
  195MOL0     H26266   7.881   0.824   4.324  1.4821 -0.8010 -1.2484
  195MOL0     H26267   7.867   0.989   4.414  0.2699  1.2900 -1.4372
  195MOL0     H26268   7.793   1.048   4.165 -2.4377  0.9583  0.1975
  195MOL0     H26269   7.772   0.867   4.160 -0.8099 -0.5231  2.5574
  195MOL0     H26270   7.628   0.875   4.345 -1.3598  1.9659  3.6009
  195MOL0     H26271   7.653   1.050   4.364  0.0395 -0.0888  0.4580
  195MOL0     H26272   7.425   0.996   4.247 -0.0630  1.8011 -1.3103
  195MOL0     H26273   7.550   1.081   4.144  0.0635  0.1863  1.0195
  195MOL0     H26274   7.491   0.785   4.141 -1.1293  0.5801 -0.8844
  195MOL0     H26275   7.578   0.861   4.019  0.7741 -1.6602  1.5866
  195MOL0     H26276   7.200   0.841   4.142 -0.3252  1.9241  1.8211
  195MOL0     H26277   6.970   0.831   3.947 -2.9578  0.4884 -0.0504
  195MOL0     H26278   6.966   0.982   4.030 -1.5848 -0.4713 -0.5511
  195MOL0     H26279   7.014   0.957   3.738 -1.3027  0.7589 -1.9471
  195MOL0     H26280   6.960   1.096   3.833  1.6838 -0.7357  1.3763
  195MOL0     H26281   6.749   0.990   3.881  0.0976 -0.1247  1.0068
  195MOL0     H26282   6.796   0.833   3.822  1.5705 -0.4543 -0.4567
  195MOL0     H26283   6.743   1.087   3.655 -1.4366 -1.4030 -1.0123
  195MOL0     H26284   6.642   0.955   3.645 -0.1040  2.0220 -2.5517
  195MOL0     H26285   6.925   0.684   3.654  1.0724  3.8241 -2.3329
  195MOL0     H26286   6.875   0.438   3.711 -1.0635  1.3744 -0.3738
  195MOL0     H26287   6.812   0.327   3.598  1.5003 -1.4005  0.9161
  195MOL0     H26288   6.969   0.382   3.577 -0.9344  0.5938 -1.1998
  195MOL0     H26289   6.281   0.332   3.515 -1.5401 -1.3901  0.8803
  195MOL0     H26290   6.131   0.142   3.433 -1.1384  1.4395 -0.6365
  195MOL0     H26291   6.163  -0.140   3.357 -1.0592 -0.7545  0.3467
  195MOL0     H26292   6.034  -0.024   3.383 -0.5908 -1.3006  0.8255
  195MOL0     H26293   5.990  -0.100   3.122  2.6255 -0.4984 -0.9034
  195MOL0     H26294   6.068  -0.243   3.182  0.9769  0.4453  0.8795
  195MOL0     H26295   5.843  -0.134   3.366 -2.7371 -1.4680  1.5744
  195MOL0     H26296   5.895  -0.297   3.340 -0.2477  0.3267 -0.7937
  195MOL0     H26297   5.752  -0.126   3.124  0.1367 -1.5440 -2.5446
  195MOL0     H26298   5.780  -0.296   3.115 -5.7059 -1.0394  0.3142
  195MOL0     H26299   5.629  -0.213   3.368  1.0496 -3.3288  1.8316
  195MOL0     H26300   5.665  -0.362   3.300 -0.1527 -0.9903 -1.3900
  195MOL0     H26301   5.447  -0.300   3.267  1.3405  0.2859  1.5142
  195MOL0     H26302   5.488  -0.155   3.169 -0.4154 -0.6767 -0.2556
  195MOL0     H26303   5.469  -0.439   3.097  1.1793  1.4513  2.3243
  195MOL0     H26304   5.602  -0.362   3.012  0.3989  0.9107  0.3872
  195MOL0     H26305   5.450  -0.221   2.893  1.5680 -0.9421 -1.7031
  195MOL0     H26306   5.325  -0.240   3.019  1.4030 -0.4384  2.3096
  195MOL0     H26307   6.423   0.050   3.125  2.2550  3.6051 -1.3965
  195MOL0     H26308   6.545   0.241   3.195 -0.2080  0.7986  1.2515
  195MOL0     H26309   6.531   0.668   3.361 -0.1932  0.3114  0.5085
  195MOL0     H26310   6.637   0.872   3.418  0.9071  0.2152  0.4011
  195MOL0     H26311   8.515   0.916   4.339  0.8205  0.9049 -1.7858
  195MOL0     H26312   8.726   0.790   4.297  2.0682 -0.7888 -1.6245
  195MOL0     H26313   8.926   0.408   3.830  1.4934 -1.3036 -1.2439
  195MOL0     H26314   9.148   0.333   3.810  0.4669  0.0107  0.1203
  195MOL0     H26315   9.369   0.276   3.801 -1.1101  0.7191 -1.1389
  195MOL0     H26316   9.402   0.426   3.889 -1.9597 -0.9531 -0.7380
  195MOL0     H26317   9.615   0.297   3.831  0.0180  1.6718  0.6756
  195MOL0     H26318   9.559   0.163   3.924  0.6941  0.0181 -1.3114
  195MOL0     H26319   9.625   0.266   4.114  3.3109  1.0281  0.3858
  195MOL0     H26320   9.539   0.415   4.080  2.1053  1.8252 -0.2737
  195MOL0     H26321   9.773   0.452   4.114  1.1782 -0.1050  0.1572
  195MOL0     H26322   9.747   0.465   3.932  1.0958 -1.6081 -0.9107
  195MOL0     H26323   9.988   0.126   3.940  0.0051 -1.1565  2.1378
  195MOL0     H26324   9.208   0.336   4.229  1.0230  2.5147  0.1416
  195MOL0     H26325   8.992   0.464   4.245  1.8250  1.2230 -0.0102
  196MOL0     O26326   0.774   1.351   2.824  0.5829 -0.1671 -0.4254
  196MOL0     C26327   0.702   1.394   2.733 -0.8062  0.4449 -0.0050
  196MOL0     O26328   0.585   1.345   2.699 -0.0763  0.8700  0.1683
  196MOL0     C26329   0.511   1.260   2.781 -0.2235  0.7760 -1.0656
  196MOL0     C26330   0.528   1.239   2.918  0.4511 -0.3192 -0.6238
  196MOL0     C26331   0.436   1.149   2.980 -0.5090 -0.1284 -0.3370
  196MOL0     C26332   0.323   1.087   2.914  1.1724  0.1628 -0.1924
  196MOL0     O26333   0.238   0.996   2.972 -0.1528 -0.1510  0.3147
  196MOL0     C26334   0.239   0.969   3.104 -0.3099  0.4487 -0.9683
  196MOL0     C26335   0.118   0.884   3.149 -0.2172 -0.3689 -0.4056
  196MOL0     C26336  -0.013   0.965   3.145  0.3791  0.6297 -0.0002
  196MOL0     C26337  -0.128   0.885   3.208  0.0221 -0.5573  0.4623
  196MOL0     C26338  -0.170   0.758   3.127 -0.7971 -0.4388  0.1491
  196MOL0     C26339  -0.324   0.727   3.140 -0.1837 -0.1221 -0.1573
  196MOL0     C26340  -0.366   0.590   3.095  0.8063 -0.2938  0.1169
  196MOL0     C26341  -0.392   0.619   2.948  0.0312 -1.1936 -0.1270
  196MOL0     N26342  -0.423   0.498   2.870  0.1993 -0.3511 -0.3714
  196MOL0     C26343  -0.559   0.468   2.853  0.6002  0.1387  0.1382
  196MOL0     C26344  -0.560   0.364   2.765 -0.5552  0.3332  0.3152
  196MOL0     C26345  -0.674   0.293   2.700  0.8636  0.1445 -0.7304
  196MOL0     C26346  -0.732   0.390   2.589 -0.8542  1.1155 -0.5600
  196MOL0     C26347  -0.865   0.334   2.544 -1.2006  0.4555  0.1546
  196MOL0     C26348  -0.984   0.370   2.628 -0.2681  0.6020 -0.8405
  196MOL0     O26349  -1.104   0.324   2.560 -0.0117 -0.2952 -0.4950
  196MOL0     C26350  -1.223   0.393   2.582  0.7364 -0.2142  0.0702
  196MOL0     C26351  -1.240   0.524   2.632  0.0638 -0.3736  0.0591
  196MOL0     C26352  -1.369   0.571   2.678  0.9932  0.4197  0.3414
  196MOL0     C26353  -1.371   0.712   2.737  0.0397  0.2127  0.5858
  196MOL0     C26354  -1.482   0.481   2.671  0.8791 -0.4054 -0.2621
  196MOL0     C26355  -1.618   0.503   2.726 -0.5794  0.7574  0.3023
  196MOL0     O26356  -1.701   0.391   2.725 -0.1881 -0.2678 -0.1041
  196MOL0     C26357  -1.840   0.393   2.733  0.4936 -0.0711  0.2461
  196MOL0     C26358  -1.918   0.281   2.778  0.0358 -0.0441 -0.2508
  196MOL0     C26359  -2.053   0.280   2.777  0.1049 -0.4102  0.0108
  196MOL0     C26360  -2.129   0.377   2.719 -0.1593 -0.6013 -0.4752
  196MOL0     O26361  -2.257   0.353   2.692  0.3686 -0.4915 -0.2219
  196MOL0     C26362  -2.340   0.473   2.712 -0.7761 -0.2620  0.4469
  196MOL0     C26363  -2.488   0.432   2.733 -0.3362 -0.2367 -0.5038
  196MOL0     C26364  -2.567   0.398   2.608  0.4005 -0.6171  0.1395
  196MOL0     C26365  -2.688   0.316   2.647  0.1157  0.4484  0.2606
  196MOL0     C26366  -2.791   0.297   2.528 -0.5465  0.9147 -1.0118
  196MOL0     C26367  -2.922   0.225   2.587 -0.2675 -0.2229  0.0529
  196MOL0     C26368  -3.014   0.211   2.468  0.6458  0.1492  0.1599
  196MOL0     C26369  -3.101   0.089   2.488  0.2430 -0.4012 -0.1770
  196MOL0    Cl26370  -3.013  -0.056   2.448  0.3735  0.0829 -0.3104
  196MOL0     C26371  -2.065   0.496   2.681 -0.8365  0.3804  0.1499
  196MOL0     C26372  -1.922   0.502   2.689 -0.4803  0.7365 -0.3438
  196MOL0     O26373  -1.647   0.612   2.771  0.2334  0.1415 -0.3896
  196MOL0     C26374  -1.454   0.355   2.615  0.3135  0.9294 -0.0951
  196MOL0     C26375  -1.334   0.310   2.580 -0.7094 -0.5135  0.9338
  196MOL0     N26376  -0.429   0.337   2.728 -0.2891 -0.2219  0.1824
  196MOL0     N26377  -0.349   0.417   2.789  0.0815  0.3744 -0.3756
  196MOL0     C26378   0.311   1.117   2.787 -0.0587 -0.1646  0.1142
  196MOL0     C26379   0.397   1.210   2.723  1.4497 -0.3426 -0.2187
  196MOL0     C26380   0.762   1.489   2.638  0.8891 -0.3754 -0.1900
  196MOL0     C26381   0.689   1.541   2.528 -0.0209  0.7951  0.2183
  196MOL0     C26382   0.752   1.624   2.433  0.0447  0.7358  0.6537
  196MOL0     C26383   0.881   1.659   2.443  0.5013  0.3530 -0.2354
  196MOL0     O26384   0.929   1.733   2.331  0.2260 -0.6453  0.0205
  196MOL0     C26385   1.065   1.784   2.354 -0.1912  0.0467  0.6647
  196MOL0     C26386   1.127   1.801   2.214 -1.1807 -1.5221 -1.0174
  196MOL0     C26387   1.280   1.825   2.215 -0.4242  0.7468  0.3032
  196MOL0     C26388   1.332   1.851   2.077 -0.0013 -0.1738  0.0090
  196MOL0     C26389   1.479   1.828   2.079 -0.4373 -0.4980 -0.1027
  196MOL0     C26390   1.593   1.802   2.095  0.0483  0.0884  0.6977
  196MOL0     C26391   0.947   1.615   2.556 -0.3828 -0.0571 -0.2926
  196MOL0     C26392   0.890   1.545   2.659  0.2409 -0.2390 -0.6493
  196MOL0     H26393   0.609   1.277   2.980 -1.4926  1.1661  1.1631
  196MOL0     H26394   0.460   1.131   3.084 -0.0087  0.5304 -0.3299
  196MOL0     H26395   0.331   0.917   3.131 -1.2110 -0.1951  1.0279
  196MOL0     H26396   0.242   1.061   3.162 -1.0200 -0.1716  0.0950
  196MOL0     H26397   0.108   0.808   3.071  2.5170 -0.9497 -0.2836
  196MOL0     H26398   0.139   0.833   3.243  3.3910 -1.4122 -1.5902
  196MOL0     H26399   0.004   1.055   3.205  0.0871 -0.1225  1.2424
  196MOL0     H26400  -0.043   0.987   3.042 -1.1722  2.8635  0.8542
  196MOL0     H26401  -0.111   0.858   3.313  2.2950  0.0910  0.3176
  196MOL0     H26402  -0.214   0.953   3.212  0.3192 -0.0612 -1.0592
  196MOL0     H26403  -0.155   0.771   3.019  0.5779 -0.5387  0.3151
  196MOL0     H26404  -0.111   0.677   3.168  1.0600  1.6983  1.9446
  196MOL0     H26405  -0.334   0.719   3.249  1.8172 -3.1035 -0.0956
  196MOL0     H26406  -0.390   0.806   3.104 -1.0494 -1.4212 -1.5197
  196MOL0     H26407  -0.289   0.513   3.105  1.3755  0.1131 -0.9225
  196MOL0     H26408  -0.453   0.550   3.147 -0.0898  0.1483 -0.9972
  196MOL0     H26409  -0.303   0.666   2.905 -1.9050  0.9084 -2.2105
  196MOL0     H26410  -0.480   0.684   2.934  0.4105 -0.0067  2.4576
  196MOL0     H26411  -0.634   0.528   2.903  0.3065  0.1209 -0.2726
  196MOL0     H26412  -0.623   0.206   2.657  4.6307  0.7380  2.0615
  196MOL0     H26413  -0.746   0.269   2.779  2.4328 -0.9745  0.4235
  196MOL0     H26414  -0.665   0.394   2.502 -1.0211 -1.1192 -0.8401
  196MOL0     H26415  -0.746   0.489   2.633  1.1463  1.5576 -0.7831
  196MOL0     H26416  -0.854   0.226   2.534  0.7409  0.5257  1.0209
  196MOL0     H26417  -0.883   0.376   2.445 -4.3256 -0.7873  0.0868
  196MOL0     H26418  -0.983   0.477   2.651  0.5667  0.4029  0.1500
  196MOL0     H26419  -0.969   0.323   2.726  0.4645 -0.8252 -1.6024
  196MOL0     H26420  -1.162   0.593   2.659 -0.3656  0.9913 -1.9888
  196MOL0     H26421  -1.449   0.773   2.691  1.6095  1.6343 -0.3032
  196MOL0     H26422  -1.386   0.704   2.846 -0.8653  0.7728  0.5125
  196MOL0     H26423  -1.272   0.758   2.727  1.8373 -3.3713  0.5406
  196MOL0     H26424  -1.868   0.187   2.801 -1.2686 -0.7128 -0.0892
  196MOL0     H26425  -2.119   0.195   2.795 -1.6066  0.4515 -1.8025
  196MOL0     H26426  -2.307   0.523   2.804  2.3408  1.0178 -1.2339
  196MOL0     H26427  -2.327   0.542   2.629 -0.7966 -3.7528 -2.7047
  196MOL0     H26428  -2.486   0.352   2.807  1.1015  0.9889  0.8475
  196MOL0     H26429  -2.543   0.512   2.784 -3.1489 -1.7896 -0.9114
  196MOL0     H26430  -2.504   0.345   2.536 -1.6533 -0.4134 -1.9034
  196MOL0     H26431  -2.605   0.488   2.558 -3.0220 -1.2283  1.4078
  196MOL0     H26432  -2.647   0.223   2.687  0.0163 -0.0866 -0.8410
  196MOL0     H26433  -2.738   0.365   2.731 -0.4907  2.5580 -1.2635
  196MOL0     H26434  -2.747   0.227   2.456  1.2126  0.0620  0.7971
  196MOL0     H26435  -2.810   0.396   2.485 -0.1683  0.5118 -2.1514
  196MOL0     H26436  -2.905   0.122   2.622 -1.8283 -1.1275 -1.7157
  196MOL0     H26437  -2.967   0.277   2.672  0.9947 -1.0561  1.2790
  196MOL0     H26438  -2.961   0.191   2.375 -0.9846 -2.0306 -0.3557
  196MOL0     H26439  -3.070   0.303   2.447  2.5145  1.4697  0.6940
  196MOL0     H26440  -3.188   0.096   2.421 -0.3669  1.5671  0.7302
  196MOL0     H26441  -3.142   0.075   2.588  1.0716 -0.3839  0.1724
  196MOL0     H26442  -2.115   0.576   2.627 -0.2733  1.7226  1.5376
  196MOL0     H26443  -1.867   0.586   2.649  1.1560 -1.3806 -2.8921
  196MOL0     H26444  -1.535   0.283   2.609  1.9855 -1.1148  0.6088
  196MOL0     H26445  -1.315   0.205   2.558 -1.8031 -0.3261 -1.1469
  196MOL0     H26446   0.228   1.066   2.740  2.2941 -2.0391 -2.3787
  196MOL0     H26447   0.380   1.251   2.624 -1.7476  0.9857  0.7585
  196MOL0     H26448   0.587   1.510   2.508  0.1266  1.9752 -2.8304
  196MOL0     H26449   0.687   1.650   2.350 -2.3036 -0.2322  2.1177
  196MOL0     H26450   1.061   1.887   2.392  0.3544 -0.1366  1.2358
  196MOL0     H26451   1.129   1.720   2.416 -1.1928 -2.4399 -0.7654
  196MOL0     H26452   1.074   1.887   2.173 -1.4660 -0.8461  0.6979
  196MOL0     H26453   1.106   1.707   2.163 -1.9366 -1.4020 -0.9329
  196MOL0     H26454   1.331   1.736   2.252  1.7017  1.3890 -0.8799
  196MOL0     H26455   1.302   1.909   2.281 -2.2199 -1.1609  3.5869
  196MOL0     H26456   1.328   1.958   2.055  2.3093  0.0326  0.3485
  196MOL0     H26457   1.286   1.780   2.007  2.2229 -2.6901  0.9225
  196MOL0     H26458   1.699   1.788   2.091  0.2367  1.3052 -3.3376
  196MOL0     H26459   1.047   1.653   2.573  0.4311 -1.1797 -2.2849
  196MOL0     H26460   0.947   1.507   2.744 -2.5481 -0.1111  1.4255
  197MOL0     O26461   6.346   2.772   7.354 -0.2165 -0.3233 -0.4164
  197MOL0     C26462   6.258   2.830   7.292 -0.1816  0.5881  0.6064
  197MOL0     O26463   6.254   2.853   7.155  0.1140  0.3479 -0.2916
  197MOL0     C26464   6.363   2.807   7.082 -0.4362  0.4029 -0.1412
  197MOL0     C26465   6.502   2.822   7.122  1.3622  0.2039 -0.0216
  197MOL0     C26466   6.605   2.752   7.054 -0.3344  0.0574 -0.2777
  197MOL0     C26467   6.578   2.681   6.937 -0.3229 -0.5209  0.0579
  197MOL0     O26468   6.686   2.616   6.881 -0.1468  0.2941 -0.6579
  197MOL0     C26469   6.674   2.546   6.753  0.0551  0.0836  0.1514
  197MOL0     C26470   6.810   2.523   6.681  0.2672 -0.2948  1.7907
  197MOL0     C26471   6.888   2.414   6.751  0.1865 -0.3916 -0.7578
  197MOL0     C26472   7.023   2.372   6.690  0.2453 -0.6434 -0.8652
  197MOL0     C26473   7.067   2.250   6.761  0.2522  0.6229 -0.2249
  197MOL0     C26474   7.183   2.177   6.683 -0.5330  0.3276 -0.5122
  197MOL0     C26475   7.201   2.035   6.733 -0.5157  0.3116  0.4996
  197MOL0     C26476   7.327   1.964   6.677  0.0596  0.2391  0.4827
  197MOL0     N26477   7.461   2.016   6.725 -0.9171 -0.9253  0.1887
  197MOL0     C26478   7.575   1.960   6.681 -0.1293 -0.3206 -0.0313
  197MOL0     C26479   7.679   2.020   6.750  0.0272 -0.6013  0.0159
  197MOL0     C26480   7.820   1.976   6.753  0.3038 -0.3186  0.5560
  197MOL0     C26481   7.936   2.081   6.777  0.5349  0.4658 -0.5831
  197MOL0     C26482   7.922   2.201   6.687  0.1833 -0.1411  0.2813
  197MOL0     C26483   7.989   2.321   6.742 -0.3156 -1.2514 -0.3325
  197MOL0     O26484   7.963   2.432   6.653  0.7476 -0.8756  0.6862
  197MOL0     C26485   7.834   2.483   6.655  0.1749  0.1973 -0.4161
  197MOL0     C26486   7.732   2.459   6.759  0.0821 -1.0926  0.9027
  197MOL0     C26487   7.609   2.525   6.760  0.1275 -0.4268  0.0458
  197MOL0     C26488   7.529   2.480   6.878  0.1538 -0.0844 -0.1228
  197MOL0     C26489   7.569   2.614   6.655  0.0563  0.3198  0.0313
  197MOL0     C26490   7.442   2.694   6.648 -0.3017  0.3829  0.0284
  197MOL0     O26491   7.368   2.703   6.763 -0.7241 -0.3241  0.1994
  197MOL0     C26492   7.241   2.755   6.753 -0.0256 -0.2052 -0.0275
  197MOL0     C26493   7.162   2.819   6.658 -0.0102  0.0610 -0.3699
  197MOL0     C26494   7.034   2.856   6.694 -0.2947 -0.7121 -0.1415
  197MOL0     C26495   6.977   2.849   6.822 -0.1516  0.2309  0.7529
  197MOL0     O26496   6.854   2.895   6.847 -0.0485 -0.1499 -0.1010
  197MOL0     C26497   6.794   3.009   6.784 -0.2161 -0.3317  0.2578
  197MOL0     C26498   6.668   3.038   6.859  0.4583  1.2772 -0.1169
  197MOL0     C26499   6.627   3.180   6.866 -0.2391 -0.9047 -0.0256
  197MOL0     C26500   6.484   3.200   6.913 -0.0865  0.8112 -0.1753
  197MOL0     C26501   6.448   3.347   6.925 -0.9294  0.4451 -0.7840
  197MOL0     C26502   6.301   3.361   6.978  0.2425  0.3782  0.0660
  197MOL0     C26503   6.196   3.347   6.867 -0.4498  0.3732  0.3929
  197MOL0     C26504   6.060   3.371   6.922  0.3178  0.0817 -0.3656
  197MOL0    Cl26505   5.995   3.254   7.040 -0.5111  1.0773  0.3493
  197MOL0     C26506   7.057   2.788   6.918  0.3842 -0.9130  0.6819
  197MOL0     C26507   7.185   2.744   6.884  0.6629  0.6502 -0.5034
  197MOL0     O26508   7.420   2.743   6.538  0.0617 -0.2727  0.2502
  197MOL0     C26509   7.663   2.626   6.545  0.3625 -0.0355  0.3355
  197MOL0     C26510   7.790   2.566   6.546  0.3117  0.4051  0.1286
  197MOL0     N26511   7.621   2.110   6.840  0.1653  0.5588 -0.1021
  197MOL0     N26512   7.491   2.114   6.816  0.0320  0.6741 -0.6756
  197MOL0     C26513   6.446   2.685   6.887 -0.5121 -0.1029  0.8802
  197MOL0     C26514   6.336   2.746   6.961 -0.3028  0.6735  0.0175
  197MOL0     C26515   6.133   2.859   7.366  0.2235  0.8917 -0.0472
  197MOL0     C26516   6.027   2.932   7.310  0.4031  0.3701  0.4143
  197MOL0     C26517   5.904   2.947   7.373  0.5713  0.2476 -1.0340
  197MOL0     C26518   5.880   2.886   7.503  0.6912  0.0813  0.4277
  197MOL0     O26519   5.753   2.870   7.563 -0.4993  1.0109 -0.0368
  197MOL0     C26520   5.638   2.850   7.475  0.6157 -0.2201  0.4084
  197MOL0     C26521   5.654   2.753   7.359 -0.0916 -0.2762  1.0471
  197MOL0     C26522   5.707   2.618   7.414 -0.1775 -1.0166  0.5931
  197MOL0     C26523   5.706   2.524   7.296 -0.3943  0.2517 -0.1102
  197MOL0     C26524   5.781   2.578   7.176  0.6983  0.2851  0.0588
  197MOL0     C26525   5.841   2.637   7.085  0.3604 -0.0167  0.2758
  197MOL0     C26526   5.988   2.825   7.560 -0.5788  0.4658 -0.4584
  197MOL0     C26527   6.109   2.800   7.489 -0.4352  0.9509 -0.2227
  197MOL0     H26528   6.530   2.882   7.208 -1.7542  1.5723  0.1871
  197MOL0     H26529   6.708   2.757   7.086 -0.1058  0.3943 -1.0517
  197MOL0     H26530   6.612   2.456   6.757 -0.1079  0.0338 -2.2256
  197MOL0     H26531   6.614   2.606   6.685 -0.7211  0.3515  1.0505
  197MOL0     H26532   6.795   2.494   6.577  2.0275  1.3851  0.9866
  197MOL0     H26533   6.879   2.607   6.665  2.9442 -2.4342  1.2620
  197MOL0     H26534   6.909   2.447   6.853 -0.4317  0.0383 -0.7607
  197MOL0     H26535   6.829   2.322   6.750 -0.2833 -0.1223 -2.4842
  197MOL0     H26536   6.996   2.342   6.588 -0.2510 -1.6246 -0.4509
  197MOL0     H26537   7.091   2.458   6.688 -1.8295  1.1451  0.5325
  197MOL0     H26538   7.104   2.288   6.856 -0.1224 -1.2525  0.7350
  197MOL0     H26539   6.992   2.170   6.772  0.3345  0.0999 -2.8148
  197MOL0     H26540   7.160   2.164   6.577 -3.8602  1.1391 -0.0009
  197MOL0     H26541   7.274   2.236   6.704 -1.0142  1.2382 -0.9160
  197MOL0     H26542   7.210   2.021   6.841 -0.6942  0.8063  0.5807
  197MOL0     H26543   7.119   1.974   6.696  1.5206 -1.8281 -0.8166
  197MOL0     H26544   7.321   1.971   6.568 -0.0315 -1.8766  0.3008
  197MOL0     H26545   7.328   1.859   6.709 -2.6611 -0.3072 -0.9993
  197MOL0     H26546   7.589   1.886   6.603  0.9053 -1.2951  1.0207
  197MOL0     H26547   7.846   1.898   6.826  0.9640 -0.5951  0.0413
  197MOL0     H26548   7.836   1.923   6.658 -0.8676  2.5058 -1.3297
  197MOL0     H26549   8.021   2.025   6.738 -0.0164 -0.8455  0.0352
  197MOL0     H26550   7.938   2.104   6.884 -0.2664 -0.6132 -0.3097
  197MOL0     H26551   7.816   2.227   6.679 -0.4796 -0.8356  4.4278
  197MOL0     H26552   7.952   2.179   6.584  1.5772  2.7176 -0.0227
  197MOL0     H26553   8.097   2.303   6.750 -0.1477  0.4826  2.8616
  197MOL0     H26554   7.964   2.348   6.845  1.1844  0.6420 -0.4107
  197MOL0     H26555   7.765   2.396   6.841  2.8031 -1.2382 -0.1941
  197MOL0     H26556   7.437   2.435   6.841  0.6048 -0.9547 -0.2170
  197MOL0     H26557   7.583   2.406   6.938 -0.5131  1.6882  2.8544
  197MOL0     H26558   7.497   2.557   6.948  0.6309 -0.5183  0.5856
  197MOL0     H26559   7.199   2.823   6.556 -1.2206 -1.0758 -0.9035
  197MOL0     H26560   6.976   2.894   6.610  0.4449  0.6583 -0.0652
  197MOL0     H26561   6.861   3.095   6.789  0.6023 -0.9410  0.0553
  197MOL0     H26562   6.777   2.993   6.677  1.7415  2.5877 -0.6324
  197MOL0     H26563   6.582   2.986   6.816  1.4122 -0.0490 -0.4789
  197MOL0     H26564   6.688   3.001   6.960  1.7023 -3.0268 -1.7228
  197MOL0     H26565   6.640   3.229   6.769 -0.6442  0.6547  0.6688
  197MOL0     H26566   6.693   3.229   6.939 -1.1247 -1.2940  1.0817
  197MOL0     H26567   6.411   3.151   6.848 -1.3559  1.6117  0.5867
  197MOL0     H26568   6.474   3.145   7.007 -0.2652 -1.3136 -1.3720
  197MOL0     H26569   6.458   3.397   6.828 -2.7950  2.2239 -0.1356
  197MOL0     H26570   6.505   3.401   7.001 -1.1167  0.1933 -0.4625
  197MOL0     H26571   6.277   3.290   7.057  2.2186 -1.5655 -0.9720
  197MOL0     H26572   6.291   3.460   7.023 -0.8535  1.0043 -1.4628
  197MOL0     H26573   6.206   3.256   6.807 -0.6357  2.3398 -2.7910
  197MOL0     H26574   6.222   3.426   6.797  0.0216  0.2683  0.4474
  197MOL0     H26575   5.989   3.368   6.839 -0.0071 -0.0024 -0.0865
  197MOL0     H26576   6.060   3.476   6.951  2.9440  0.5625 -1.7541
  197MOL0     H26577   7.008   2.775   7.014 -1.2238  1.4871  0.3031
  197MOL0     H26578   7.240   2.685   6.957 -0.2767  2.2124  1.5525
  197MOL0     H26579   7.654   2.692   6.460 -0.5105  0.2782  0.6679
  197MOL0     H26580   7.855   2.592   6.463  1.1648 -0.7692  0.4006
  197MOL0     H26581   6.430   2.643   6.788  1.3608  1.2330 -0.0626
  197MOL0     H26582   6.233   2.736   6.930 -0.3197  0.7130  0.0636
  197MOL0     H26583   6.034   2.970   7.209 -2.5881  2.8404  0.9834
  197MOL0     H26584   5.818   3.001   7.335  0.8458  1.9485  0.6219
  197MOL0     H26585   5.552   2.812   7.531  1.3610 -3.2534 -0.3325
  197MOL0     H26586   5.609   2.949   7.436  0.4605  0.6577  2.6361
  197MOL0     H26587   5.712   2.798   7.278  1.6835  1.1217  2.9930
  197MOL0     H26588   5.552   2.735   7.324 -0.2120 -1.8605  2.1063
  197MOL0     H26589   5.647   2.577   7.495 -0.8118 -2.0292 -0.3545
  197MOL0     H26590   5.812   2.623   7.444  0.0142 -5.0372  1.0864
  197MOL0     H26591   5.599   2.524   7.271 -0.0780  2.2725 -1.7174
  197MOL0     H26592   5.754   2.432   7.330 -0.2739  0.9516  1.7347
  197MOL0     H26593   5.881   2.689   7.000  0.1867  0.0156  0.2135
  197MOL0     H26594   5.977   2.779   7.657  1.3534  1.2606  0.2044
  197MOL0     H26595   6.184   2.727   7.520 -1.5220 -0.3981 -0.6661
  198MOL0     O26596   2.067   1.244   5.912  0.0005 -1.0486  0.7002
  198MOL0     C26597   2.141   1.257   6.010 -0.8390  0.6704 -0.6847
  198MOL0     O26598   2.109   1.280   6.138  0.8242 -0.0946 -0.6975
  198MOL0     C26599   1.977   1.267   6.167  0.1896 -0.5778  0.5193
  198MOL0     C26600   1.891   1.373   6.157 -0.9446 -0.4806  0.7369
  198MOL0     C26601   1.761   1.364   6.204 -0.1344  0.4580  0.5918
  198MOL0     C26602   1.708   1.241   6.248 -0.2833  0.1928  0.4157
  198MOL0     O26603   1.568   1.243   6.278  0.9639 -0.9435 -0.1698
  198MOL0     C26604   1.514   1.134   6.353 -0.4310 -0.4182 -0.1009
  198MOL0     C26605   1.375   1.163   6.413 -0.8810  0.0514  0.6458
  198MOL0     C26606   1.373   1.290   6.498 -0.1072 -0.1987 -0.6194
  198MOL0     C26607   1.237   1.316   6.561  0.0519 -0.0879  0.0399
  198MOL0     C26608   1.233   1.460   6.617  0.4159  0.4024  0.0800
  198MOL0     C26609   1.167   1.469   6.758  1.1161  0.4533 -0.1744
  198MOL0     C26610   1.173   1.604   6.834  0.2956  0.0345 -0.0946
  198MOL0     C26611   1.073   1.707   6.795  0.5208 -0.1877  0.1506
  198MOL0     N26612   0.937   1.653   6.780  0.1384  0.6800 -0.0022
  198MOL0     C26613   0.876   1.631   6.663 -0.0345 -0.5800 -0.8962
  198MOL0     C26614   0.751   1.592   6.701 -1.3104 -0.1789 -0.1977
  198MOL0     C26615   0.642   1.582   6.603  0.7189 -0.6026  0.0783
  198MOL0     C26616   0.646   1.450   6.537 -0.0597 -0.2960 -0.3030
  198MOL0     C26617   0.747   1.416   6.427  0.0887 -0.5159 -0.2831
  198MOL0     C26618   0.730   1.497   6.301  0.4625 -1.2203  0.6012
  198MOL0     O26619   0.773   1.634   6.322 -0.3111 -0.4819  0.1270
  198MOL0     C26620   0.905   1.678   6.300 -0.2189 -0.0464  0.8854
  198MOL0     C26621   0.937   1.818   6.310  0.0407  0.7178  0.7556
  198MOL0     C26622   1.076   1.863   6.283  0.1956 -0.1643  0.5967
  198MOL0     C26623   1.098   2.008   6.266 -0.2471 -0.7083 -0.1870
  198MOL0     C26624   1.174   1.762   6.264 -0.3529  0.1876 -0.2117
  198MOL0     C26625   1.315   1.794   6.242 -0.4140  0.6072 -0.2623
  198MOL0     O26626   1.383   1.723   6.148  0.5916 -0.0362  0.4625
  198MOL0     C26627   1.522   1.726   6.158  0.4489 -0.8778  0.7267
  198MOL0     C26628   1.598   1.760   6.038 -0.0711  1.3834 -0.5326
  198MOL0     C26629   1.742   1.756   6.047 -0.0438  0.8630  0.6776
  198MOL0     C26630   1.806   1.725   6.168  0.2872 -0.1671  0.2596
  198MOL0     O26631   1.941   1.703   6.164  0.0188  0.4249  0.2269
  198MOL0     C26632   2.014   1.791   6.071 -1.3170 -0.1017  0.5752
  198MOL0     C26633   2.162   1.794   6.127  0.0787 -0.9591 -0.3491
  198MOL0     C26634   2.268   1.820   6.016 -0.2883  0.0058 -0.4207
  198MOL0     C26635   2.406   1.800   6.075  0.4443 -0.0340 -0.2443
  198MOL0     C26636   2.447   1.653   6.087  0.2567  0.8570  0.3667
  198MOL0     C26637   2.557   1.632   6.197  0.2080  0.1405 -0.7295
  198MOL0     C26638   2.682   1.714   6.174 -0.6872 -0.1996  1.1318
  198MOL0     C26639   2.777   1.663   6.063  0.1753 -0.3274  0.0610
  198MOL0    Cl26640   2.830   1.498   6.085  0.6284  0.5199 -0.1790
  198MOL0     C26641   1.730   1.697   6.283  0.4143  0.8283  0.0792
  198MOL0     C26642   1.591   1.699   6.278 -0.8902 -0.1716 -0.3692
  198MOL0     O26643   1.358   1.876   6.319 -0.4509  0.5404 -0.2196
  198MOL0     C26644   1.133   1.624   6.260 -1.5270 -0.0935 -0.2256
  198MOL0     C26645   1.001   1.586   6.273 -0.2017  0.4640  0.2217
  198MOL0     N26646   0.739   1.598   6.837  0.2771 -0.2615  0.6468
  198MOL0     N26647   0.853   1.627   6.886  0.0779 -0.4294  0.1872
  198MOL0     C26648   1.787   1.131   6.248 -0.0828  0.2811  0.3307
  198MOL0     C26649   1.927   1.143   6.221  1.1933  0.3948  0.3224
  198MOL0     C26650   2.286   1.239   5.999 -0.2057 -0.4301  1.3231
  198MOL0     C26651   2.345   1.243   5.874  1.0190 -0.3909  0.3525
  198MOL0     C26652   2.480   1.224   5.861  0.5856 -0.3032 -0.2184
  198MOL0     C26653   2.566   1.204   5.972  0.0634 -1.0090  0.0779
  198MOL0     O26654   2.697   1.209   5.965 -0.5431  0.1002  0.1417
  198MOL0     C26655   2.765   1.240   5.836 -0.7041 -0.0133 -0.0926
  198MOL0     C26656   2.924   1.243   5.858 -0.1231  0.4917 -0.1454
  198MOL0     C26657   2.985   1.101   5.878  0.0588 -0.6382  0.9617
  198MOL0     C26658   2.983   1.016   5.743 -0.1519 -1.6173  0.1418
  198MOL0     C26659   2.874   0.929   5.722 -0.1284  0.1711  0.7985
  198MOL0     C26660   2.783   0.844   5.708 -0.0873  0.2640  0.5549
  198MOL0     C26661   2.500   1.206   6.101 -0.9434  0.2814  0.2958
  198MOL0     C26662   2.365   1.213   6.113  1.0890 -0.6960 -0.2277
  198MOL0     H26663   1.922   1.471   6.122  0.2618 -0.4408  1.8136
  198MOL0     H26664   1.695   1.450   6.216 -3.9295 -2.2250  0.7396
  198MOL0     H26665   1.514   1.048   6.286 -4.5840 -1.3397  0.7944
  198MOL0     H26666   1.577   1.105   6.438  0.4628 -2.8349 -1.4923
  198MOL0     H26667   1.322   1.176   6.318  4.7306  0.8722 -2.8777
  198MOL0     H26668   1.343   1.079   6.474 -1.7065  0.0477  0.2164
  198MOL0     H26669   1.438   1.277   6.585 -1.1649  0.4333  0.2878
  198MOL0     H26670   1.405   1.370   6.431  0.3997 -0.7033 -0.9891
  198MOL0     H26671   1.162   1.298   6.483  0.1902 -0.3477 -0.0355
  198MOL0     H26672   1.221   1.249   6.646  2.2213 -4.1261 -2.3995
  198MOL0     H26673   1.337   1.492   6.630  0.3129  0.5469  0.5606
  198MOL0     H26674   1.182   1.524   6.544  1.7163  0.7858 -0.5186
  198MOL0     H26675   1.066   1.428   6.757  1.2192  0.1976 -0.8212
  198MOL0     H26676   1.218   1.392   6.817 -1.8049 -2.2672 -0.8933
  198MOL0     H26677   1.153   1.576   6.938  2.2772 -0.4566  0.1964
  198MOL0     H26678   1.276   1.640   6.825  0.6752 -0.7791  0.7484
  198MOL0     H26679   1.108   1.747   6.700 -1.4733 -1.1162 -1.0262
  198MOL0     H26680   1.067   1.789   6.868 -1.9777 -0.7334  0.6736
  198MOL0     H26681   0.901   1.661   6.562 -0.1994 -1.7918 -1.3164
  198MOL0     H26682   0.544   1.594   6.652  1.2509  0.3192  0.9507
  198MOL0     H26683   0.646   1.670   6.538 -1.3613  0.5655  1.3990
  198MOL0     H26684   0.549   1.435   6.490 -1.1183  0.7405  1.4153
  198MOL0     H26685   0.657   1.369   6.609  0.6822 -0.7458 -0.9178
  198MOL0     H26686   0.750   1.307   6.417 -1.0628 -0.5983  0.0685
  198MOL0     H26687   0.845   1.436   6.471  0.2499  2.1378 -1.6274
  198MOL0     H26688   0.622   1.501   6.283  0.4165 -0.0095  1.0792
  198MOL0     H26689   0.769   1.457   6.207  0.2171 -2.7856  1.1363
  198MOL0     H26690   0.848   1.876   6.333 -1.1554  0.9623 -3.5760
  198MOL0     H26691   1.161   2.048   6.346 -1.6837 -0.0859  0.6653
  198MOL0     H26692   1.145   2.012   6.167 -4.0716 -3.7072 -2.4172
  198MOL0     H26693   1.001   2.058   6.259 -1.3281 -2.7640 -1.1335
  198MOL0     H26694   1.543   1.765   5.945 -1.6241 -0.9552  0.1755
  198MOL0     H26695   1.797   1.750   5.954 -1.4486 -1.3296 -0.0814
  198MOL0     H26696   2.010   1.744   5.973 -0.1693  0.6282  0.1631
  198MOL0     H26697   1.976   1.893   6.063 -1.0512 -0.0674 -0.3642
  198MOL0     H26698   2.168   1.883   6.190  1.7339 -1.4266  0.1951
  198MOL0     H26699   2.172   1.702   6.185  0.9264 -0.7200 -0.1011
  198MOL0     H26700   2.259   1.922   5.977 -4.1083 -0.8574 -2.1271
  198MOL0     H26701   2.258   1.756   5.929  0.0082  0.9446 -1.1679
  198MOL0     H26702   2.481   1.864   6.026 -1.4331  0.2314 -3.0386
  198MOL0     H26703   2.390   1.836   6.177 -1.2084  0.3867 -0.6289
  198MOL0     H26704   2.489   1.617   5.993  0.9529  0.6712  0.7352
  198MOL0     H26705   2.359   1.588   6.096  0.8673 -0.2723 -1.3830
  198MOL0     H26706   2.519   1.664   6.294  5.2947 -0.6618  1.8660
  198MOL0     H26707   2.569   1.523   6.203 -1.7993 -0.2579 -2.7436
  198MOL0     H26708   2.733   1.713   6.271  1.3636 -0.5743  0.0816
  198MOL0     H26709   2.654   1.819   6.162 -0.0527 -0.2982 -1.8793
  198MOL0     H26710   2.867   1.725   6.053  1.4493 -1.9258  1.0469
  198MOL0     H26711   2.721   1.663   5.969 -1.3865  4.5438  0.6946
  198MOL0     H26712   1.781   1.678   6.376 -3.4714  0.0536  2.2797
  198MOL0     H26713   1.538   1.684   6.371  0.9170  0.0623  0.7459
  198MOL0     H26714   1.204   1.550   6.225 -1.1485  0.6474 -1.0560
  198MOL0     H26715   0.981   1.481   6.259 -0.0321  0.1350  2.2188
  198MOL0     H26716   1.753   1.034   6.281 -3.7771  0.9502 -1.0389
  198MOL0     H26717   1.983   1.051   6.225 -0.2730 -0.5252  0.2490
  198MOL0     H26718   2.292   1.258   5.780  0.9675 -3.6671 -0.2368
  198MOL0     H26719   2.515   1.208   5.760 -1.6478  1.7939 -1.4430
  198MOL0     H26720   2.737   1.159   5.768  3.5405 -1.0096 -0.9945
  198MOL0     H26721   2.745   1.339   5.793  1.9027 -0.4956 -2.8459
  198MOL0     H26722   2.950   1.295   5.950 -0.3698  2.8305 -1.3174
  198MOL0     H26723   2.972   1.296   5.775  1.6508  2.1280  1.8135
  198MOL0     H26724   2.921   1.056   5.955 -0.8214  1.0985  1.3098
  198MOL0     H26725   3.087   1.103   5.917  1.1571  3.3195 -1.5120
  198MOL0     H26726   3.076   0.958   5.731  1.5761  1.4132 -2.7000
  198MOL0     H26727   2.975   1.094   5.667  0.5284 -1.4392  0.2432
  198MOL0     H26728   2.702   0.775   5.692  0.4422 -0.3546  0.5164
  198MOL0     H26729   2.567   1.203   6.187 -0.6149 -2.5944  0.0215
  198MOL0     H26730   2.326   1.221   6.214 -1.2984  2.1562 -1.1985
  199MOL0     O26731   4.835   8.383   3.663 -0.4483  1.2733 -0.2605
  199MOL0     C26732   4.727   8.405   3.610 -0.5102  0.5081  0.1227
  199MOL0     O26733   4.637   8.492   3.658  0.1854  0.0377 -0.7769
  199MOL0     C26734   4.666   8.582   3.763 -0.2230  0.1823  0.9512
  199MOL0     C26735   4.686   8.547   3.895  0.1331 -0.5513  0.0078
  199MOL0     C26736   4.721   8.643   3.988  0.7813 -1.2169  0.0480
  199MOL0     C26737   4.735   8.778   3.945 -0.5511  0.7033 -0.2995
  199MOL0     O26738   4.777   8.867   4.046  0.2490 -0.0258  0.0536
  199MOL0     C26739   4.685   8.875   4.156 -0.1953  0.1177 -0.4208
  199MOL0     C26740   4.739   8.962   4.274 -0.2595 -0.5994 -0.8825
  199MOL0     C26741   4.619   8.993   4.368  0.2829 -0.0459  0.1120
  199MOL0     C26742   4.662   9.102   4.472  0.3128 -0.5251 -0.1611
  199MOL0     C26743   4.573   9.110   4.598 -0.7165  0.1995  1.2702
  199MOL0     C26744   4.422   9.092   4.563 -0.0543  1.2534 -0.1039
  199MOL0     C26745   4.345   9.112   4.703 -0.0529  1.7331  0.2947
  199MOL0     C26746   4.194   9.090   4.683 -0.7644  1.1335 -0.0498
  199MOL0     N26747   4.114   9.130   4.797  0.1866  0.1507 -0.8021
  199MOL0     C26748   4.108   9.075   4.922 -0.0987 -0.4893 -0.2595
  199MOL0     C26749   4.048   9.165   5.000  0.3435  0.0317  0.2927
  199MOL0     C26750   4.015   9.156   5.146 -0.5458 -0.0463 -0.1803
  199MOL0     C26751   3.896   9.257   5.178 -0.2217 -0.6890  0.5138
  199MOL0     C26752   3.859   9.249   5.328 -0.1099 -0.3581  0.1060
  199MOL0     C26753   3.714   9.302   5.365 -0.1004  0.1265 -0.5808
  199MOL0     O26754   3.631   9.237   5.269  0.5298 -0.8643 -0.0468
  199MOL0     C26755   3.501   9.209   5.304  0.7579  0.3307  0.3421
  199MOL0     C26756   3.438   9.236   5.431  0.4283  0.4452 -0.7587
  199MOL0     C26757   3.312   9.189   5.462  0.3610 -0.1080  1.2850
  199MOL0     C26758   3.245   9.231   5.586  1.0257 -0.0992 -0.7432
  199MOL0     C26759   3.249   9.105   5.362 -0.0364 -0.4406 -0.0628
  199MOL0     C26760   3.109   9.061   5.376 -0.1111  0.1007 -0.2421
  199MOL0     O26761   3.027   9.059   5.260 -0.1509  0.1237  0.0906
  199MOL0     C26762   2.896   9.022   5.283 -0.7029  0.5462  0.5242
  199MOL0     C26763   2.806   9.095   5.360 -0.3732 -0.5582  0.1473
  199MOL0     C26764   2.679   9.053   5.377  0.1108 -0.3666  0.4559
  199MOL0     C26765   2.630   8.945   5.313  0.2215  0.9337  0.3207
  199MOL0     O26766   2.492   8.930   5.314 -0.1314  0.1928 -0.0587
  199MOL0     C26767   2.428   8.805   5.268  1.3509 -0.1054 -0.1943
  199MOL0     C26768   2.272   8.828   5.287  0.5426  0.5380  1.2155
  199MOL0     C26769   2.197   8.724   5.197  0.2454 -0.2369 -0.2260
  199MOL0     C26770   2.052   8.731   5.239 -0.1557  0.0774  0.2438
  199MOL0     C26771   1.967   8.671   5.133 -0.6096  0.5092 -0.4562
  199MOL0     C26772   1.828   8.636   5.172  0.1179 -0.4295  0.3248
  199MOL0     C26773   1.762   8.603   5.046 -0.4441 -0.2055  0.4157
  199MOL0     C26774   1.617   8.561   5.076 -0.1681 -0.0408 -0.4480
  199MOL0    Cl26775   1.517   8.703   5.073  0.0772 -0.4158 -0.1620
  199MOL0     C26776   2.719   8.878   5.233  0.0810  0.1523  0.0133
  199MOL0     C26777   2.849   8.910   5.218 -0.0544 -0.2876  0.3704
  199MOL0     O26778   3.075   9.033   5.495 -0.0556  0.6788  0.8107
  199MOL0     C26779   3.302   9.080   5.234 -0.3362 -0.7472  0.3491
  199MOL0     C26780   3.427   9.137   5.212  0.7837 -0.0064 -0.3492
  199MOL0     N26781   4.004   9.268   4.922  0.4537 -0.8567  0.6652
  199MOL0     N26782   4.036   9.242   4.799 -0.5425  0.8879  0.6311
  199MOL0     C26783   4.724   8.812   3.813 -1.0678  0.2717 -0.0895
  199MOL0     C26784   4.690   8.716   3.729  0.1417 -0.6382  0.2703
  199MOL0     C26785   4.697   8.336   3.484 -0.3589  0.8047 -0.2616
  199MOL0     C26786   4.793   8.289   3.395 -0.7456  0.2389  0.3635
  199MOL0     C26787   4.765   8.238   3.266 -0.4102  0.4634 -0.2070
  199MOL0     C26788   4.632   8.219   3.230 -0.2225 -1.5070 -0.4348
  199MOL0     O26789   4.620   8.172   3.104  0.4848 -0.5155 -0.3957
  199MOL0     C26790   4.479   8.139   3.067  0.0335 -0.3329  0.0981
  199MOL0     C26791   4.462   8.075   2.924  0.1360 -0.0751  0.2003
  199MOL0     C26792   4.561   8.154   2.832 -0.7085  1.2316 -0.0265
  199MOL0     C26793   4.555   8.120   2.685 -0.0031  0.6234  0.6579
  199MOL0     C26794   4.423   8.169   2.632 -0.5979  0.6576  1.1656
  199MOL0     C26795   4.321   8.225   2.592 -0.4997  0.0813  0.0673
  199MOL0     C26796   4.530   8.255   3.328  0.4172  1.2324  0.2723
  199MOL0     C26797   4.565   8.314   3.446  0.4374  0.4703  0.6289
  199MOL0     H26798   4.668   8.444   3.923 -1.5927 -0.1403  0.5112
  199MOL0     H26799   4.752   8.612   4.087  2.5447 -1.3102 -0.4894
  199MOL0     H26800   4.587   8.908   4.122 -0.2391 -0.5578 -0.9481
  199MOL0     H26801   4.670   8.776   4.200 -3.6682 -0.6384 -2.9310
  199MOL0     H26802   4.811   8.908   4.335 -1.3906 -1.9962 -0.7249
  199MOL0     H26803   4.771   9.059   4.235 -1.1010 -0.0880 -0.3421
  199MOL0     H26804   4.526   9.020   4.316  1.3293 -0.5112 -2.0809
  199MOL0     H26805   4.596   8.902   4.424 -0.9924 -1.5932 -2.7010
  199MOL0     H26806   4.766   9.080   4.499  1.2668  0.4233 -2.7469
  199MOL0     H26807   4.670   9.198   4.420 -1.6689 -0.7083 -0.8908
  199MOL0     H26808   4.601   9.024   4.659 -0.4048 -1.4354 -1.0366
  199MOL0     H26809   4.583   9.211   4.639 -1.2137  0.8979 -0.2287
  199MOL0     H26810   4.395   9.164   4.485  2.8694  2.8857  0.2466
  199MOL0     H26811   4.404   8.990   4.527  1.8330  1.3276 -1.4159
  199MOL0     H26812   4.376   9.037   4.775 -0.0473 -0.5313 -1.9207
  199MOL0     H26813   4.377   9.205   4.751  0.7999  1.1300  0.9221
  199MOL0     H26814   4.174   8.986   4.656 -0.1375  1.3920 -1.5923
  199MOL0     H26815   4.156   9.145   4.596 -3.6460  2.1864  1.7068
  199MOL0     H26816   4.152   8.978   4.944  0.3701 -1.2573 -3.9193
  199MOL0     H26817   3.984   9.054   5.169  2.6162 -0.8060  1.3389
  199MOL0     H26818   4.110   9.176   5.197 -0.7003 -0.1495  0.1523
  199MOL0     H26819   3.806   9.238   5.118  0.6513  1.1633 -1.5351
  199MOL0     H26820   3.925   9.361   5.161  2.6934 -1.3012  1.1326
  199MOL0     H26821   3.932   9.307   5.386 -2.7416 -0.4240  3.8251
  199MOL0     H26822   3.866   9.145   5.361  0.1660 -0.4651 -0.2807
  199MOL0     H26823   3.720   9.410   5.351  0.2978  0.2510  0.4548
  199MOL0     H26824   3.698   9.281   5.472  4.3211  1.5740  0.5980
  199MOL0     H26825   3.483   9.299   5.507 -1.6790 -2.2744  3.1509
  199MOL0     H26826   3.279   9.328   5.624 -1.0974  0.8933 -1.2358
  199MOL0     H26827   3.136   9.239   5.581  1.0087 -0.1717 -0.4910
  199MOL0     H26828   3.264   9.155   5.662  1.9612  0.5895 -0.2638
  199MOL0     H26829   2.842   9.189   5.402 -1.5626  0.0214 -0.0900
  199MOL0     H26830   2.614   9.117   5.435  1.9380 -0.2213  2.4648
  199MOL0     H26831   2.451   8.780   5.164 -2.5812 -3.3759 -0.5190
  199MOL0     H26832   2.461   8.720   5.328 -1.6379 -2.1569 -1.1858
  199MOL0     H26833   2.232   8.825   5.389 -3.0684 -3.1800 -0.0690
  199MOL0     H26834   2.251   8.925   5.241  0.9750 -0.2411 -0.7076
  199MOL0     H26835   2.232   8.620   5.194 -1.1647 -0.8260  1.8022
  199MOL0     H26836   2.217   8.769   5.099 -0.4245  0.7109  0.0617
  199MOL0     H26837   2.028   8.683   5.334 -1.4130  0.0993 -0.0435
  199MOL0     H26838   2.019   8.835   5.233  1.5299  0.5892 -1.0219
  199MOL0     H26839   2.012   8.574   5.108  0.9258  1.4491 -1.5406
  199MOL0     H26840   1.976   8.737   5.047  3.0239 -1.7429 -2.0555
  199MOL0     H26841   1.829   8.558   5.249 -0.2169  1.1273  1.9837
  199MOL0     H26842   1.774   8.719   5.219 -2.1929 -2.0763  0.7405
  199MOL0     H26843   1.808   8.513   5.005 -1.6354 -0.3403 -0.6568
  199MOL0     H26844   1.764   8.686   4.975 -0.7727 -1.9495 -1.7282
  199MOL0     H26845   1.603   8.520   5.176  0.2196 -1.1256 -0.8221
  199MOL0     H26846   1.586   8.477   5.012  0.4102 -4.2808  4.2106
  199MOL0     H26847   2.685   8.803   5.163  2.9827 -0.4296 -0.8838
  199MOL0     H26848   2.922   8.856   5.158 -0.6182 -2.4779  1.5443
  199MOL0     H26849   3.246   9.030   5.156  0.0013  1.0761 -1.1357
  199MOL0     H26850   3.468   9.120   5.113  1.1687 -0.8543 -0.0560
  199MOL0     H26851   4.769   8.908   3.789  1.9660  0.0020  3.5461
  199MOL0     H26852   4.681   8.744   3.624 -1.6691 -0.8900  0.3141
  199MOL0     H26853   4.898   8.303   3.417  0.1159 -3.6644 -0.5478
  199MOL0     H26854   4.842   8.204   3.197 -1.0525 -3.5392  0.7939
  199MOL0     H26855   4.427   8.088   3.148  2.2705 -2.3123  0.4011
  199MOL0     H26856   4.429   8.236   3.066  1.7597  0.7107  2.9315
  199MOL0     H26857   4.356   8.074   2.897  0.1875  1.2436 -0.1265
  199MOL0     H26858   4.484   7.968   2.917  0.2524  0.0309 -4.5544
  199MOL0     H26859   4.665   8.135   2.862 -0.8235  1.3022  0.4228
  199MOL0     H26860   4.542   8.261   2.846  0.3780  1.1730  2.4326
  199MOL0     H26861   4.562   8.013   2.666 -1.6863 -0.1120  3.5244
  199MOL0     H26862   4.631   8.177   2.632 -1.0390 -1.0746 -2.9513
  199MOL0     H26863   4.236   8.286   2.567 -0.4317 -0.9885 -3.1856
  199MOL0     H26864   4.426   8.231   3.304  0.3969  0.5034  1.0448
  199MOL0     H26865   4.475   8.345   3.499 -1.0970  0.3546 -1.7570
  200MOL0     O26866   8.371   1.183   3.307  0.3037  0.0016 -1.2380
  200MOL0     C26867   8.453   1.187   3.402  0.2582 -0.8715 -0.1504
  200MOL0     O26868   8.437   1.128   3.523 -0.5252  0.3273 -0.2978
  200MOL0     C26869   8.305   1.091   3.547  0.2239  0.0461 -0.0579
  200MOL0     C26870   8.253   0.962   3.533 -0.0912 -0.2934  0.3785
  200MOL0     C26871   8.119   0.926   3.531 -0.3346 -0.4913  0.6890
  200MOL0     C26872   8.022   1.031   3.548 -0.4301 -0.3148  0.2117
  200MOL0     O26873   7.890   1.011   3.539 -0.0839  0.6137 -0.4018
  200MOL0     C26874   7.850   0.878   3.564  0.4982  0.4136 -0.5878
  200MOL0     C26875   7.703   0.854   3.603  0.9832  0.4082 -0.3540
  200MOL0     C26876   7.603   0.899   3.501  0.9222 -0.7725  0.0165
  200MOL0     C26877   7.466   0.867   3.546 -0.2782  0.4921  0.6422
  200MOL0     C26878   7.361   0.873   3.432 -0.0158 -0.3990  0.0320
  200MOL0     C26879   7.338   1.009   3.369  0.0300 -0.1051  0.6363
  200MOL0     C26880   7.244   0.992   3.245  0.3249 -0.1133 -0.4293
  200MOL0     C26881   7.093   1.003   3.288  0.5096  0.2498  0.6952
  200MOL0     N26882   7.000   1.017   3.171  0.1337  0.6195  0.0295
  200MOL0     C26883   6.874   0.954   3.169 -0.1809 -0.6176 -0.5479
  200MOL0     C26884   6.813   1.005   3.059  0.2006  0.1309  0.0025
  200MOL0     C26885   6.666   0.988   3.016 -0.2827  0.4039  0.2750
  200MOL0     C26886   6.597   0.863   3.059 -0.2341  0.1970  0.0491
  200MOL0     C26887   6.659   0.726   3.035 -0.9833  0.7472 -0.2740
  200MOL0     C26888   6.555   0.621   3.026 -0.2128  0.3595 -0.1823
  200MOL0     O26889   6.443   0.644   3.110 -0.0155  0.4004 -0.2587
  200MOL0     C26890   6.348   0.547   3.125  0.1380  0.5048 -0.4339
  200MOL0     C26891   6.343   0.436   3.038  0.6772 -0.4290  0.2276
  200MOL0     C26892   6.223   0.361   3.036 -0.6301  0.9225 -0.2439
  200MOL0     C26893   6.227   0.257   2.928  0.1395 -0.2904  0.2461
  200MOL0     C26894   6.116   0.381   3.122  0.5757  0.0309  0.0771
  200MOL0     C26895   5.992   0.310   3.118  0.5091  0.4760 -0.3780
  200MOL0     O26896   5.918   0.303   3.236  0.1191  0.4069  0.0214
  200MOL0     C26897   5.785   0.267   3.222  0.8670  0.1312 -0.1538
  200MOL0     C26898   5.699   0.342   3.144  0.6219  0.5599 -0.6431
  200MOL0     C26899   5.561   0.316   3.143  0.3605 -1.2726 -1.0061
  200MOL0     C26900   5.510   0.219   3.233 -1.0397 -0.0433  0.2702
  200MOL0     O26901   5.381   0.178   3.254  0.8150  0.1070 -0.4412
  200MOL0     C26902   5.277   0.267   3.206  0.3192 -0.2917 -0.0615
  200MOL0     C26903   5.133   0.207   3.221  0.5527  0.6858 -0.2672
  200MOL0     C26904   5.024   0.275   3.144 -0.2041  0.0732 -0.6458
  200MOL0     C26905   4.891   0.224   3.179  0.0090 -0.0136  0.4913
  200MOL0     C26906   4.786   0.270   3.076  1.4191 -0.0657  1.0249
  200MOL0     C26907   4.677   0.352   3.148 -0.0826 -0.4053  0.1948
  200MOL0     C26908   4.558   0.397   3.064 -0.2101  0.5902 -0.1028
  200MOL0     C26909   4.448   0.468   3.142 -1.6048 -0.1111  0.1599
  200MOL0    Cl26910   4.314   0.538   3.063  0.3738 -0.3339 -0.3121
  200MOL0     C26911   5.598   0.147   3.319  0.5334 -0.0646 -0.3447
  200MOL0     C26912   5.734   0.171   3.311 -0.1915 -0.4772  0.2612
  200MOL0     O26913   5.947   0.291   3.005 -0.2705  0.7891 -0.7872
  200MOL0     C26914   6.140   0.477   3.220 -0.0313 -0.3030 -0.2253
  200MOL0     C26915   6.246   0.562   3.221  0.5322  0.0594 -0.0781
  200MOL0     N26916   6.890   1.103   3.003  0.7561 -0.4417 -1.0032
  200MOL0     N26917   7.006   1.098   3.060  0.5927  0.9693  0.5413
  200MOL0     C26918   8.071   1.162   3.571  0.5501 -0.3843 -0.9340
  200MOL0     C26919   8.211   1.196   3.573 -0.0380  0.2769  0.2668
  200MOL0     C26920   8.576   1.277   3.387  0.2129  0.6154  0.5289
  200MOL0     C26921   8.666   1.278   3.491 -0.3003 -0.2633  0.1895
  200MOL0     C26922   8.780   1.357   3.484  0.3241 -0.3604  0.4894
  200MOL0     C26923   8.812   1.426   3.374 -1.0050  0.7403  0.3549
  200MOL0     O26924   8.932   1.493   3.369 -0.2573 -0.4481 -0.1025
  200MOL0     C26925   8.992   1.528   3.249 -0.3222 -0.1567  0.2731
  200MOL0     C26926   9.119   1.601   3.283  0.3498  0.5994 -0.5234
  200MOL0     C26927   9.085   1.746   3.321 -0.7770 -0.3074 -0.0961
  200MOL0     C26928   9.198   1.806   3.404  0.7208  0.1327 -0.6899
  200MOL0     C26929   9.248   1.923   3.344  0.0616  0.3594  0.5559
  200MOL0     C26930   9.321   2.008   3.295 -0.5975  0.3286  0.1785
  200MOL0     C26931   8.722   1.424   3.264  0.4442 -0.1344  0.2201
  200MOL0     C26932   8.605   1.347   3.272 -0.4597 -0.6669 -0.6927
  200MOL0     H26933   8.320   0.885   3.497 -0.8242 -2.4086  3.1776
  200MOL0     H26934   8.108   0.823   3.499  1.1260  0.3264 -2.9954
  200MOL0     H26935   7.864   0.811   3.478 -0.5437  0.7475 -1.0303
  200MOL0     H26936   7.915   0.836   3.641  1.3556 -0.5777 -1.8024
  200MOL0     H26937   7.685   0.747   3.615  2.7180 -0.0378 -1.3961
  200MOL0     H26938   7.683   0.907   3.696 -0.4207  2.7685 -1.9007
  200MOL0     H26939   7.607   1.007   3.481  1.8896 -1.1693 -2.1384
  200MOL0     H26940   7.630   0.853   3.406 -1.2544 -1.1084 -0.5017
  200MOL0     H26941   7.454   0.769   3.594  0.0858  0.7801  1.3378
  200MOL0     H26942   7.435   0.940   3.621 -2.2859  1.2094 -0.7942
  200MOL0     H26943   7.390   0.798   3.358 -2.1280  0.5753 -1.9229
  200MOL0     H26944   7.268   0.846   3.484  0.9250  0.4903  2.3043
  200MOL0     H26945   7.315   1.089   3.439  0.9204 -0.3751  1.2621
  200MOL0     H26946   7.439   1.037   3.337  0.2684 -0.8483  0.7161
  200MOL0     H26947   7.268   1.071   3.172  0.2434  0.9312  0.6567
  200MOL0     H26948   7.253   0.899   3.188  1.6425  0.9484 -2.0496
  200MOL0     H26949   7.084   1.090   3.355 -1.3004 -1.1809  2.4015
  200MOL0     H26950   7.070   0.923   3.359  0.2112  1.4609  2.0407
  200MOL0     H26951   6.818   0.885   3.232 -0.0091 -0.2625  0.0013
  200MOL0     H26952   6.612   1.080   3.041  2.3439  2.7540 -1.9605
  200MOL0     H26953   6.674   0.995   2.908  3.0851  1.2624  0.4598
  200MOL0     H26954   6.498   0.867   3.011 -0.5941  0.8347  0.8360
  200MOL0     H26955   6.584   0.869   3.167  1.6138 -1.0830  0.3935
  200MOL0     H26956   6.730   0.704   3.116  0.1936  0.2499 -1.3926
  200MOL0     H26957   6.721   0.730   2.945  1.1160 -1.5625  0.9359
  200MOL0     H26958   6.601   0.525   3.052  1.8683  0.3929 -3.2077
  200MOL0     H26959   6.529   0.612   2.920  0.1848  1.6843 -0.4139
  200MOL0     H26960   6.416   0.417   2.960 -0.0027 -0.0795 -0.5048
  200MOL0     H26961   6.326   0.216   2.906  0.2963 -0.6797  1.5399
  200MOL0     H26962   6.158   0.174   2.947 -0.1549 -0.0287  0.3225
  200MOL0     H26963   6.191   0.305   2.837  2.4838 -0.8123 -1.0303
  200MOL0     H26964   5.743   0.414   3.076  0.8790 -1.7256 -3.1025
  200MOL0     H26965   5.502   0.360   3.063 -0.9485  1.2114  1.1710
  200MOL0     H26966   5.279   0.361   3.262  1.6371 -0.0176 -0.5290
  200MOL0     H26967   5.299   0.283   3.100  3.2000 -2.5679  0.0525
  200MOL0     H26968   5.140   0.107   3.177 -0.0173  0.5309 -0.0252
  200MOL0     H26969   5.099   0.191   3.324 -0.2737 -0.4575 -0.6975
  200MOL0     H26970   5.051   0.266   3.038  1.1865  3.1221 -0.6554
  200MOL0     H26971   5.027   0.383   3.157  0.3597  0.0112 -0.2019
  200MOL0     H26972   4.895   0.116   3.163  0.7373  0.3726 -2.3778
  200MOL0     H26973   4.873   0.253   3.283  3.0871  1.0051  0.8326
  200MOL0     H26974   4.733   0.182   3.037 -0.5597  0.7927  1.6294
  200MOL0     H26975   4.823   0.341   3.002 -3.0095  1.7561  0.2123
  200MOL0     H26976   4.636   0.293   3.231  0.8347 -2.8048 -0.9642
  200MOL0     H26977   4.716   0.449   3.179 -3.8938  2.1847 -2.2144
  200MOL0     H26978   4.523   0.309   3.010  0.2219 -0.1319  0.7559
  200MOL0     H26979   4.586   0.457   2.977 -2.3497 -0.5222 -1.6586
  200MOL0     H26980   4.493   0.541   3.210  1.4789 -1.6076 -0.0844
  200MOL0     H26981   4.406   0.392   3.209 -0.5387 -1.7422 -0.9238
  200MOL0     H26982   5.559   0.073   3.389 -3.9702  2.3552  0.1034
  200MOL0     H26983   5.815   0.121   3.365 -1.1155  0.8504  3.1042
  200MOL0     H26984   6.067   0.502   3.296  1.3677  2.1100  0.4099
  200MOL0     H26985   6.258   0.649   3.286  2.4765  0.5511 -1.0341
  200MOL0     H26986   8.000   1.240   3.597  0.2634 -0.4635 -1.4635
  200MOL0     H26987   8.244   1.298   3.594 -0.5994 -0.0133  2.8297
  200MOL0     H26988   8.638   1.229   3.584 -0.5472  1.8205  1.2717
  200MOL0     H26989   8.850   1.353   3.567  0.3243 -3.7109  0.4793
  200MOL0     H26990   9.028   1.449   3.183  0.0741 -0.0772  0.3850
  200MOL0     H26991   8.934   1.599   3.190  2.8151  3.0766  0.6772
  200MOL0     H26992   9.182   1.600   3.194 -0.8024 -0.3495 -1.3666
  200MOL0     H26993   9.166   1.545   3.364  0.5815  0.1505 -0.9632
  200MOL0     H26994   8.988   1.750   3.372  0.2173  3.1728  1.7988
  200MOL0     H26995   9.082   1.804   3.228 -0.2648 -0.4747 -0.2234
  200MOL0     H26996   9.276   1.732   3.424  0.6979  0.7690  2.1547
  200MOL0     H26997   9.161   1.830   3.505  2.4538  1.4067 -0.3232
  200MOL0     H26998   9.384   2.087   3.256 -0.2457  0.2381  0.5587
  200MOL0     H26999   8.751   1.483   3.177  0.4598 -0.3242  0.0954
  200MOL0     H27000   8.527   1.340   3.196 -0.3242  1.9126 -1.1555
  201MOL0     O27001   1.255   0.642  10.267 -0.3151 -0.3145  0.1443
  201MOL0     C27002   1.286   0.747  10.222 -0.7120 -0.3870  0.1026
  201MOL0     O27003   1.234   0.867  10.258  0.6386 -0.6242 -0.5055
  201MOL0     C27004   1.117   0.878  10.329  0.4071  0.2512  0.0649
  201MOL0     C27005   1.110   0.965  10.434  0.5181 -0.3483 -1.3432
  201MOL0     C27006   0.992   0.990  10.504 -0.5816  0.6902 -0.5124
  201MOL0     C27007   0.876   0.924  10.470 -0.4375  0.4668 -0.2472
  201MOL0     O27008   0.764   0.954  10.543  0.6762  0.1666  0.1165
  201MOL0     C27009   0.651   0.858  10.552 -0.5262  0.5651 -0.2507
  201MOL0     C27010   0.691   0.717  10.622 -0.0583  0.4715  0.2230
  201MOL0     C27011   0.746   0.737  10.762 -0.1714  0.5496 -0.0626
  201MOL0     C27012   0.844   0.621  10.808  0.3872  0.6596  0.1391
  201MOL0     C27013   0.880   0.626  10.955 -0.4703  0.2445  0.9328
  201MOL0     C27014   0.980   0.747  10.986  0.4570  0.2777 -0.3845
  201MOL0     C27015   1.012   0.761  11.130 -0.2366  0.3177 -0.5149
  201MOL0     C27016   0.904   0.809  11.218 -0.1653 -0.2562  0.0335
  201MOL0     N27017   0.854   0.940  11.173 -0.7514  0.2844  0.1945
  201MOL0     C27018   0.737   0.960  11.108  0.5572 -0.3307  0.0554
  201MOL0     C27019   0.747   1.076  11.048  0.7316 -0.0858  0.1309
  201MOL0     C27020   0.662   1.136  10.949  0.8274  0.4678 -0.0369
  201MOL0     C27021   0.593   1.258  11.004 -0.3360 -0.3869  0.6381
  201MOL0     C27022   0.518   1.340  10.903 -0.3018  0.1979 -0.0758
  201MOL0     C27023   0.397   1.272  10.841  0.5812 -0.2382 -0.1864
  201MOL0     O27024   0.307   1.255  10.950 -0.3123  0.0180  0.1715
  201MOL0     C27025   0.200   1.182  10.923 -0.0905 -0.4049  0.6212
  201MOL0     C27026   0.151   1.109  11.031  0.9798 -1.2310 -0.1842
  201MOL0     C27027   0.040   1.015  11.029 -1.2142 -0.5450 -0.9250
  201MOL0     C27028   0.001   0.942  11.156  0.3212 -0.1486 -0.4623
  201MOL0     C27029  -0.007   0.991  10.897 -0.3884  0.6666 -0.9323
  201MOL0     C27030  -0.135   0.910  10.867 -0.8932 -0.5721  0.6937
  201MOL0     O27031  -0.204   0.932  10.754  0.5191  0.3704  0.0672
  201MOL0     C27032  -0.326   0.868  10.735  0.0550 -0.1492 -0.3597
  201MOL0     C27033  -0.439   0.949  10.728 -0.4655 -0.2424 -0.1624
  201MOL0     C27034  -0.568   0.891  10.715 -0.4213  0.5724  0.0838
  201MOL0     C27035  -0.589   0.758  10.700 -0.6538  0.3762  0.7662
  201MOL0     O27036  -0.711   0.719  10.668 -0.5640  0.9982  0.0239
  201MOL0     C27037  -0.726   0.599  10.589  0.3139 -0.2156 -0.2491
  201MOL0     C27038  -0.881   0.573  10.577  0.1200 -0.3936 -0.3753
  201MOL0     C27039  -0.909   0.552  10.426  0.2527  0.1955  0.3940
  201MOL0     C27040  -1.013   0.446  10.409  1.0103  0.1239  0.9169
  201MOL0     C27041  -1.058   0.432  10.262 -0.8787  0.4610 -0.4642
  201MOL0     C27042  -0.944   0.399  10.170  0.7029 -0.0610  0.5157
  201MOL0     C27043  -0.997   0.388  10.034 -0.7744  0.3145 -0.1247
  201MOL0     C27044  -0.874   0.368   9.936 -0.2037 -0.1057  0.1067
  201MOL0    Cl27045  -0.927   0.393   9.769 -0.3116 -0.1268  0.3322
  201MOL0     C27046  -0.474   0.675  10.715  0.0807 -1.1267 -0.3363
  201MOL0     C27047  -0.346   0.730  10.732 -0.8156  0.0696  0.0319
  201MOL0     O27048  -0.165   0.828  10.952  0.4507 -0.3073  0.6948
  201MOL0     C27049   0.040   1.068  10.788 -0.8231  0.4912  0.3391
  201MOL0     C27050   0.141   1.165  10.800  0.5050  0.7992  0.4467
  201MOL0     N27051   0.866   1.127  11.092  0.1100 -0.3202  0.2422
  201MOL0     N27052   0.931   1.054  11.168 -0.3749  0.7981  0.1911
  201MOL0     C27053   0.879   0.827  10.368 -0.0833 -0.5276 -0.2046
  201MOL0     C27054   1.001   0.803  10.300 -0.9011 -1.0654 -0.0505
  201MOL0     C27055   1.407   0.750  10.133 -1.4339  0.1900  0.5572
  201MOL0     C27056   1.466   0.868  10.089 -0.0856  0.0116  0.2361
  201MOL0     C27057   1.590   0.870  10.031  0.4785  0.3109  0.5880
  201MOL0     C27058   1.664   0.751   9.997 -0.1946  0.5405  0.6929
  201MOL0     O27059   1.780   0.757   9.920  0.1265  0.9196 -0.0578
  201MOL0     C27060   1.894   0.696   9.983  0.2550 -0.2582  0.2234
  201MOL0     C27061   2.001   0.706   9.878 -0.9610 -0.1304 -0.6830
  201MOL0     C27062   1.966   0.657   9.737 -0.2146 -0.2950 -1.3459
  201MOL0     C27063   1.965   0.511   9.717  0.7370  1.2413 -0.3155
  201MOL0     C27064   1.850   0.454   9.777 -0.0450 -0.7976 -0.2558
  201MOL0     C27065   1.770   0.377   9.828 -0.3089 -0.6290 -0.0778
  201MOL0     C27066   1.600   0.634  10.037 -0.3283 -0.4607 -0.1956
  201MOL0     C27067   1.479   0.635  10.104  0.3907  0.0198  1.0797
  201MOL0     H27068   1.205   1.003  10.470  3.0408 -5.1281 -2.2480
  201MOL0     H27069   0.988   1.054  10.592 -0.9377  2.2239 -1.6131
  201MOL0     H27070   0.575   0.911  10.610  2.1711  1.4095  2.8300
  201MOL0     H27071   0.610   0.835  10.454 -2.4291 -2.3054  1.0790
  201MOL0     H27072   0.597   0.660  10.628 -0.2254  0.5703 -1.2960
  201MOL0     H27073   0.768   0.658  10.572 -1.4277 -1.9593  0.7526
  201MOL0     H27074   0.818   0.820  10.758 -0.3523  0.7681  0.9398
  201MOL0     H27075   0.661   0.750  10.830 -2.7485 -3.3144 -2.1821
  201MOL0     H27076   0.787   0.531  10.785 -0.4407  0.8114  1.5177
  201MOL0     H27077   0.943   0.627  10.761  1.9784 -1.5024  2.9015
  201MOL0     H27078   0.796   0.659  11.016 -0.3761  1.6352  0.3246
  201MOL0     H27079   0.923   0.529  10.982  0.0348 -1.2321 -4.2520
  201MOL0     H27080   1.080   0.731  10.944 -0.4797 -1.0702 -2.3090
  201MOL0     H27081   0.938   0.841  10.950  0.9797  0.3524 -0.8061
  201MOL0     H27082   1.051   0.665  11.166 -2.3492 -0.2385  0.4335
  201MOL0     H27083   1.089   0.836  11.151 -0.4069  0.0375  1.2730
  201MOL0     H27084   0.940   0.828  11.320  0.7408 -2.8239  0.2724
  201MOL0     H27085   0.817   0.742  11.224 -1.4127  1.2490 -0.6018
  201MOL0     H27086   0.657   0.887  11.101 -1.0303  0.9842  2.5284
  201MOL0     H27087   0.721   1.150  10.858 -2.7785  2.3105 -2.3430
  201MOL0     H27088   0.585   1.060  10.928  1.1409  0.1486 -0.0487
  201MOL0     H27089   0.663   1.315  11.066  0.2384  1.0598 -1.2567
  201MOL0     H27090   0.527   1.216  11.081  1.6820 -1.6153  1.8144
  201MOL0     H27091   0.584   1.374  10.823  0.4827 -1.7809 -0.3422
  201MOL0     H27092   0.476   1.424  10.959  1.8434 -0.1157  2.1763
  201MOL0     H27093   0.413   1.171  10.801 -2.5362 -1.2260  0.7555
  201MOL0     H27094   0.366   1.341  10.762 -1.1186 -0.3065  0.3772
  201MOL0     H27095   0.207   1.119  11.123 -0.6304  0.0902  0.7074
  201MOL0     H27096   0.032   0.991  11.249 -0.8743 -1.1568  0.5043
  201MOL0     H27097  -0.108   0.945  11.153  0.3150  1.4350  0.4334
  201MOL0     H27098   0.040   0.839  11.158  0.4535 -0.1388  2.6243
  201MOL0     H27099  -0.430   1.056  10.745 -4.2795  0.0297  0.9108
  201MOL0     H27100  -0.654   0.951  10.691  0.2824  0.8873 -1.8672
  201MOL0     H27101  -0.677   0.628  10.496 -0.2996  2.3480  0.1439
  201MOL0     H27102  -0.671   0.518  10.638  0.4301 -0.5327 -0.8983
  201MOL0     H27103  -0.894   0.476  10.628 -1.5090  0.6173  1.2658
  201MOL0     H27104  -0.944   0.651  10.620  4.0071  2.6835  0.3353
  201MOL0     H27105  -0.814   0.527  10.378  0.7196  2.2464  0.1492
  201MOL0     H27106  -0.941   0.647  10.381  1.4972  1.8780  2.8599
  201MOL0     H27107  -0.978   0.348  10.443  1.4846 -0.8543 -2.1171
  201MOL0     H27108  -1.108   0.480  10.450  0.5293 -0.2611  0.1428
  201MOL0     H27109  -1.108   0.524  10.232 -1.3141  0.1364 -0.7456
  201MOL0     H27110  -1.128   0.349  10.256 -0.7587  0.3603 -0.4845
  201MOL0     H27111  -0.877   0.485  10.169 -0.7446  1.1244  0.7733
  201MOL0     H27112  -0.889   0.309  10.199  1.9804  0.7580  0.7054
  201MOL0     H27113  -1.045   0.485  10.020 -2.7385 -0.6800 -0.7235
  201MOL0     H27114  -1.069   0.307  10.016 -1.6835  0.6154  1.9759
  201MOL0     H27115  -0.836   0.268   9.960  4.1220  0.9545 -1.3930
  201MOL0     H27116  -0.789   0.437   9.941 -0.1537  0.3519 -4.0991
  201MOL0     H27117  -0.491   0.568  10.703 -0.4208 -0.8579 -2.4457
  201MOL0     H27118  -0.257   0.667  10.742 -1.0415 -1.1999 -3.9733
  201MOL0     H27119   0.004   1.044  10.689 -3.1970 -0.3664  1.3372
  201MOL0     H27120   0.178   1.217  10.712  0.6507  2.2342  1.3202
  201MOL0     H27121   0.790   0.776  10.334 -2.2091  1.6423  1.6882
  201MOL0     H27122   1.012   0.732  10.218  1.9849 -1.2281  0.3796
  201MOL0     H27123   1.410   0.956  10.118  1.0999  0.2816  1.8571
  201MOL0     H27124   1.639   0.961   9.997  2.8474 -0.3477  1.9557
  201MOL0     H27125   1.928   0.757  10.067 -3.0860  3.1392 -0.6513
  201MOL0     H27126   1.868   0.594  10.014 -0.8434 -0.4192 -1.0951
  201MOL0     H27127   2.090   0.663   9.926 -0.6398 -0.1061 -1.2523
  201MOL0     H27128   2.029   0.809   9.857  2.1386 -0.5409  0.7485
  201MOL0     H27129   2.034   0.711   9.670  1.5242 -0.1776  0.4304
  201MOL0     H27130   1.865   0.690   9.709 -0.8018  2.4782  3.0290
  201MOL0     H27131   2.060   0.465   9.745  0.0023 -1.8918 -2.4366
  201MOL0     H27132   1.964   0.484   9.611  0.9142  1.5709 -0.4036
  201MOL0     H27133   1.706   0.300   9.865 -3.3380  1.4356 -0.5887
  201MOL0     H27134   1.654   0.545  10.006  0.8324  0.3649 -0.6072
  201MOL0     H27135   1.449   0.545  10.157  0.2541 -0.3178  0.4358
  202MOL0     O27136   1.455   9.053   3.563  0.1764 -0.4852 -0.4316
  202MOL0     C27137   1.502   9.120   3.468  0.8524 -0.0761  0.0216
  202MOL0     O27138   1.432   9.161   3.364 -0.3897  0.5388 -0.2592
  202MOL0     C27139   1.297   9.196   3.378 -0.6137  0.1196 -0.2670
  202MOL0     C27140   1.221   9.174   3.259  0.3558 -1.1159  0.3531
  202MOL0     C27141   1.081   9.197   3.261  0.1853  0.0678  0.5205
  202MOL0     C27142   1.026   9.251   3.378  0.8956  0.0296 -0.7883
  202MOL0     O27143   0.885   9.288   3.378 -1.5118 -0.2141 -0.0195
  202MOL0     C27144   0.849   9.393   3.468 -0.8268  0.6428 -0.3607
  202MOL0     C27145   0.731   9.477   3.415 -0.3551 -0.1180  0.9345
  202MOL0     C27146   0.598   9.411   3.432  0.6651 -0.1944  0.2597
  202MOL0     C27147   0.499   9.478   3.333 -0.3006  0.0327 -0.2226
  202MOL0     C27148   0.361   9.418   3.345 -0.2412  0.4416  0.5649
  202MOL0     C27149   0.302   9.427   3.479  0.7297  0.4048  0.1889
  202MOL0     C27150   0.151   9.424   3.482 -0.3552  0.1644  0.4530
  202MOL0     C27151   0.102   9.279   3.461  0.1260 -0.4560  0.3995
  202MOL0     N27152  -0.037   9.266   3.513  0.9217  0.3161  0.2739
  202MOL0     C27153  -0.132   9.187   3.449  0.3882  0.4001 -0.1822
  202MOL0     C27154  -0.256   9.211   3.507 -0.7481 -0.0422 -0.5672
  202MOL0     C27155  -0.379   9.144   3.489 -0.5626 -0.1717 -0.6733
  202MOL0     C27156  -0.453   9.172   3.352 -0.0038 -1.1581 -0.6185
  202MOL0     C27157  -0.586   9.106   3.367  0.7297  0.3677  0.3721
  202MOL0     C27158  -0.663   9.128   3.241 -0.3957 -0.2350 -0.6759
  202MOL0     O27159  -0.790   9.061   3.266  0.0135 -0.2561 -0.1852
  202MOL0     C27160  -0.900   9.096   3.194  0.3292  0.9392  1.3309
  202MOL0     C27161  -1.022   9.065   3.258  0.3003  0.1799 -0.5193
  202MOL0     C27162  -1.149   9.085   3.198  0.0165 -0.2122  0.5979
  202MOL0     C27163  -1.270   9.045   3.270  0.3258  0.0572 -0.1040
  202MOL0     C27164  -1.151   9.126   3.062 -0.1835 -0.5022  0.6416
  202MOL0     C27165  -1.268   9.158   2.983  0.2552 -1.2441 -0.7542
  202MOL0     O27166  -1.241   9.232   2.870  0.1330 -0.0931  0.0068
  202MOL0     C27167  -1.343   9.275   2.787 -0.8029 -0.1124  0.5837
  202MOL0     C27168  -1.327   9.276   2.648  0.4317  1.1855  0.1454
  202MOL0     C27169  -1.438   9.297   2.570  0.3685 -0.8474 -0.1339
  202MOL0     C27170  -1.559   9.334   2.627  1.0353 -0.5541  0.3781
  202MOL0     O27171  -1.661   9.350   2.537  0.1281 -0.7137  0.6001
  202MOL0     C27172  -1.786   9.285   2.560  0.4728  0.3969 -0.3538
  202MOL0     C27173  -1.866   9.295   2.424 -0.3698  0.2095  0.3958
  202MOL0     C27174  -2.022   9.288   2.444 -0.2302  0.3398  0.8631
  202MOL0     C27175  -2.095   9.262   2.311 -0.1350 -0.4236  0.2951
  202MOL0     C27176  -2.251   9.297   2.302 -0.2589 -0.3610 -0.1204
  202MOL0     C27177  -2.317   9.210   2.188  0.5858 -0.0128  0.0059
  202MOL0     C27178  -2.474   9.225   2.207 -0.4113 -0.4674 -0.7135
  202MOL0     C27179  -2.539   9.255   2.081  0.0015  0.4472  0.1522
  202MOL0    Cl27180  -2.489   9.405   2.000  0.4470  0.2734  0.0641
  202MOL0     C27181  -1.580   9.330   2.761  0.1753 -0.4633 -0.2350
  202MOL0     C27182  -1.470   9.306   2.844 -0.3319 -0.3896  0.1843
  202MOL0     O27183  -1.373   9.103   3.013  0.1777 -0.2578 -0.1132
  202MOL0     C27184  -1.027   9.154   3.004 -0.4140  0.3153 -0.1866
  202MOL0     C27185  -0.904   9.141   3.063 -0.2521 -0.1035 -0.3074
  202MOL0     N27186  -0.239   9.306   3.614 -0.4103 -0.1333  0.6179
  202MOL0     N27187  -0.110   9.329   3.611 -0.0733 -0.2356 -0.3173
  202MOL0     C27188   1.109   9.271   3.492  0.1580  0.9785  0.1553
  202MOL0     C27189   1.244   9.243   3.498  0.0982 -0.2861  0.0677
  202MOL0     C27190   1.649   9.137   3.463 -0.1468 -0.4651 -0.2778
  202MOL0     C27191   1.706   9.174   3.343 -0.9622 -0.4207 -1.2137
  202MOL0     C27192   1.841   9.216   3.330 -0.3046 -0.4949  0.4358
  202MOL0     C27193   1.909   9.234   3.450  0.6614 -0.2182  0.2254
  202MOL0     O27194   2.039   9.276   3.438  0.7018  0.3673 -0.0088
  202MOL0     C27195   2.121   9.327   3.550  0.0938 -0.0839  0.7390
  202MOL0     C27196   2.205   9.213   3.598  0.4205 -0.2003  0.0501
  202MOL0     C27197   2.312   9.246   3.694  0.0179 -0.4881  0.1131
  202MOL0     C27198   2.268   9.297   3.828  1.0753  0.3275 -1.4321
  202MOL0     C27199   2.377   9.328   3.916 -0.0251  0.1345 -0.5328
  202MOL0     C27200   2.455   9.345   4.011 -0.3900  0.5958  0.9032
  202MOL0     C27201   1.858   9.202   3.574 -0.2362  0.5549  0.1508
  202MOL0     C27202   1.731   9.142   3.573  0.2347  0.0854 -0.6136
  202MOL0     H27203   1.273   9.134   3.173  2.5596  0.4690  0.8866
  202MOL0     H27204   1.013   9.188   3.178 -1.3519 -0.4132  1.7951
  202MOL0     H27205   0.818   9.351   3.564 -1.4449  2.2533  0.1787
  202MOL0     H27206   0.931   9.459   3.496  0.4348 -0.4220 -1.4288
  202MOL0     H27207   0.727   9.577   3.460 -0.1879 -0.3105  1.3718
  202MOL0     H27208   0.750   9.484   3.307  3.1669 -1.2936  1.3675
  202MOL0     H27209   0.621   9.310   3.397  1.5586 -0.1050  0.5606
  202MOL0     H27210   0.564   9.420   3.536 -1.1647  1.2336 -0.4132
  202MOL0     H27211   0.483   9.586   3.347 -1.2102 -0.1095 -0.0929
  202MOL0     H27212   0.533   9.471   3.230 -0.5073 -1.3195 -0.2116
  202MOL0     H27213   0.293   9.468   3.275  0.7117  0.7676 -0.1501
  202MOL0     H27214   0.384   9.314   3.319  1.6175 -0.3553  4.5601
  202MOL0     H27215   0.333   9.346   3.545 -1.6940 -0.6575  0.1532
  202MOL0     H27216   0.327   9.522   3.526 -2.1724  0.6321  1.5268
  202MOL0     H27217   0.124   9.447   3.585  1.4082  0.8263  0.7989
  202MOL0     H27218   0.104   9.493   3.410  1.1816  2.1011  1.2123
  202MOL0     H27219   0.164   9.201   3.505  1.2773  0.3729  0.3032
  202MOL0     H27220   0.098   9.257   3.354  0.0321  1.6116 -0.0748
  202MOL0     H27221  -0.113   9.110   3.375  4.0388 -0.3804  1.3678
  202MOL0     H27222  -0.363   9.036   3.498  0.4020  0.0440  0.5243
  202MOL0     H27223  -0.442   9.179   3.571  0.4000 -0.5366  0.2506
  202MOL0     H27224  -0.395   9.135   3.267 -0.3498 -0.2978 -1.2452
  202MOL0     H27225  -0.465   9.281   3.357 -0.2109 -1.2233  2.2080
  202MOL0     H27226  -0.634   9.153   3.454  2.5480 -0.4308  1.8740
  202MOL0     H27227  -0.575   8.999   3.384  0.7935  0.1788 -0.7918
  202MOL0     H27228  -0.603   9.082   3.162 -0.9454 -0.2267 -1.1078
  202MOL0     H27229  -0.685   9.233   3.220 -2.0526 -0.4545 -0.1603
  202MOL0     H27230  -1.025   9.028   3.360 -1.4117 -3.4426 -1.7356
  202MOL0     H27231  -1.241   8.993   3.362  1.7029 -2.6152 -1.9321
  202MOL0     H27232  -1.332   9.134   3.285 -1.3142 -1.0763  0.1347
  202MOL0     H27233  -1.338   8.975   3.222 -0.0711 -0.8933  1.7498
  202MOL0     H27234  -1.226   9.262   2.613  0.6721 -2.6430  1.8472
  202MOL0     H27235  -1.433   9.301   2.461 -1.4030 -1.9764 -0.3012
  202MOL0     H27236  -1.781   9.181   2.591 -0.6861  0.8759  1.6224
  202MOL0     H27237  -1.838   9.345   2.635  0.4206 -0.2107  0.0986
  202MOL0     H27238  -1.835   9.375   2.356 -0.9671 -0.0242 -0.1653
  202MOL0     H27239  -1.845   9.205   2.364  0.0611  0.2335  0.5072
  202MOL0     H27240  -2.054   9.375   2.501 -1.0162  0.2356  0.6007
  202MOL0     H27241  -2.056   9.208   2.511  0.0775 -0.7106 -0.1964
  202MOL0     H27242  -2.059   9.318   2.223 -1.6392  0.4856  0.2341
  202MOL0     H27243  -2.069   9.157   2.290  0.9738 -0.2269  0.6171
  202MOL0     H27244  -2.253   9.404   2.281  0.8742 -0.4330 -0.5992
  202MOL0     H27245  -2.289   9.291   2.405  1.2037  1.0252  0.5406
  202MOL0     H27246  -2.282   9.242   2.089  1.3339  0.1720  0.3228
  202MOL0     H27247  -2.298   9.104   2.206 -4.1232 -0.8142  1.4794
  202MOL0     H27248  -2.483   9.314   2.269  0.3372 -0.1722 -1.0079
  202MOL0     H27249  -2.525   9.144   2.260 -1.6697  0.8942  0.2167
  202MOL0     H27250  -2.648   9.249   2.093  0.1231 -4.9621  1.2199
  202MOL0     H27251  -2.513   9.172   2.014  1.0289  1.3942 -0.6682
  202MOL0     H27252  -1.681   9.357   2.789 -0.5990  0.8987 -3.8752
  202MOL0     H27253  -1.489   9.289   2.950  1.8197 -2.7746  0.2628
  202MOL0     H27254  -1.009   9.192   2.904  2.1523  1.0720  0.4880
  202MOL0     H27255  -0.809   9.170   3.021  0.8235 -0.7232  1.5704
  202MOL0     H27256   1.058   9.316   3.576 -2.6420  0.1048 -0.9699
  202MOL0     H27257   1.296   9.258   3.591  0.5186 -3.4567  0.4420
  202MOL0     H27258   1.656   9.163   3.248 -1.0298 -1.4778 -1.0694
  202MOL0     H27259   1.886   9.233   3.233 -2.3882 -1.1862 -0.7217
  202MOL0     H27260   2.183   9.414   3.522  0.7522 -0.3635  1.2895
  202MOL0     H27261   2.064   9.366   3.634 -4.4488 -0.2655 -1.9042
  202MOL0     H27262   2.244   9.174   3.503 -0.1346  1.0873 -0.7249
  202MOL0     H27263   2.142   9.133   3.638  1.6190 -2.7219 -2.6951
  202MOL0     H27264   2.363   9.322   3.634 -1.5203 -0.7421 -1.6173
  202MOL0     H27265   2.389   9.170   3.708 -0.0418 -0.6221 -0.2654
  202MOL0     H27266   2.211   9.221   3.882  1.0633  1.2262 -0.1392
  202MOL0     H27267   2.210   9.388   3.807 -0.7174 -0.7522 -1.4205
  202MOL0     H27268   2.532   9.364   4.083 -0.5581  0.8072  1.0285
  202MOL0     H27269   1.927   9.203   3.658  0.5902  0.6191 -0.5127
  202MOL0     H27270   1.686   9.134   3.672  1.0830  0.5491 -0.1832
  203MOL0     O27271   2.866   0.363   0.191 -0.4342  0.8171 -0.0217
  203MOL0     C27272   2.870   0.258   0.121  0.1703  0.4424 -0.5849
  203MOL0     O27273   2.766   0.191   0.070 -0.1108 -0.2287  0.9100
  203MOL0     C27274   2.644   0.207   0.128  0.3049  0.1389 -0.1603
  203MOL0     C27275   2.617   0.197   0.270  0.1481 -0.7006 -0.2589
  203MOL0     C27276   2.484   0.219   0.325  0.7238  0.2732  0.4556
  203MOL0     C27277   2.373   0.235   0.233 -0.0081 -0.3120 -0.3539
  203MOL0     O27278   2.259   0.228   0.299  0.1653  0.1633  0.7344
  203MOL0     C27279   2.144   0.285   0.235 -0.0338  0.1731 -0.2531
  203MOL0     C27280   2.031   0.282   0.328  0.9064 -0.0079  0.7006
  203MOL0     C27281   1.918   0.366   0.262 -0.0489 -0.3308  1.0337
  203MOL0     C27282   1.796   0.388   0.346 -0.3744  1.1124 -0.0712
  203MOL0     C27283   1.692   0.481   0.282 -0.0091  0.5316  0.1505
  203MOL0     C27284   1.562   0.485   0.362 -0.2696  0.1551  0.2449
  203MOL0     C27285   1.466   0.594   0.307  0.3828 -0.6972  0.6287
  203MOL0     C27286   1.336   0.601   0.391  0.3166  0.8109 -0.1398
  203MOL0     N27287   1.244   0.696   0.334 -0.2457 -0.2474  0.1710
  203MOL0     C27288   1.254   0.839   0.350  0.0698  0.9300  0.4466
  203MOL0     C27289   1.208   0.894   0.231  1.4477  0.3308 -1.5670
  203MOL0     C27290   1.201   1.039   0.199  1.1324  0.1032 -0.0702
  203MOL0     C27291   1.319   1.057   0.109 -0.7297 -0.6696 -0.0415
  203MOL0     C27292   1.310   1.012  -0.031  0.8084  0.0020  0.5600
  203MOL0     C27293   1.423   1.033  -0.129 -0.2329  0.2573 -0.0187
  203MOL0     O27294   1.441   1.169  -0.163  0.2530  0.4258 -0.2235
  203MOL0     C27295   1.516   1.201  -0.271  0.2715 -0.3240  0.2738
  203MOL0     C27296   1.609   1.121  -0.339  0.1276  0.0776  0.3124
  203MOL0     C27297   1.679   1.170  -0.448  0.1467 -0.6625  0.4356
  203MOL0     C27298   1.772   1.074  -0.513  0.6658 -0.2615 -0.5304
  203MOL0     C27299   1.666   1.295  -0.492 -0.4852 -0.8107  1.0987
  203MOL0     C27300   1.737   1.355  -0.612  0.4949 -0.2699  0.4879
  203MOL0     O27301   1.844   1.285  -0.669 -0.4764  0.3470  0.2664
  203MOL0     C27302   1.936   1.339  -0.752 -0.2851  0.1419  0.2185
  203MOL0     C27303   2.012   1.248  -0.828  0.6423 -0.2561  0.4246
  203MOL0     C27304   2.111   1.302  -0.911 -0.9068  0.0566 -0.0920
  203MOL0     C27305   2.132   1.439  -0.940 -0.3398 -0.3263  0.1147
  203MOL0     O27306   2.221   1.497  -1.037  0.1084 -0.8239  0.3995
  203MOL0     C27307   2.276   1.405  -1.134 -0.0294  0.3086 -0.1898
  203MOL0     C27308   2.404   1.341  -1.087 -0.3685  0.6882 -0.9965
  203MOL0     C27309   2.512   1.450  -1.061 -0.6234 -0.3418 -0.2256
  203MOL0     C27310   2.646   1.378  -1.021 -0.3002 -1.3997  0.6677
  203MOL0     C27311   2.764   1.480  -1.015  0.3840 -0.3108 -0.3178
  203MOL0     C27312   2.906   1.425  -1.036 -0.2274 -0.5499  0.5667
  203MOL0     C27313   2.941   1.311  -0.945  0.7044  0.5418  0.5006
  203MOL0     C27314   3.094   1.282  -0.958  0.0716 -0.1199  0.0870
  203MOL0    Cl27315   3.127   1.220  -1.127  0.2251  0.0297 -0.4813
  203MOL0     C27316   2.044   1.524  -0.866  0.2662 -0.2445 -0.0283
  203MOL0     C27317   1.965   1.478  -0.766  0.6852  0.5863 -1.1785
  203MOL0     O27318   1.691   1.458  -0.660 -0.7920 -0.6263  0.0774
  203MOL0     C27319   1.572   1.370  -0.430  0.2561 -0.1150 -0.2242
  203MOL0     C27320   1.499   1.324  -0.325 -0.7907  0.1970 -0.8774
  203MOL0     N27321   1.170   0.788   0.151  1.2344  1.5038  0.1924
  203MOL0     N27322   1.178   0.672   0.215 -0.0762 -0.2192  0.3396
  203MOL0     C27323   2.390   0.234   0.101  0.1077  0.3064  0.3853
  203MOL0     C27324   2.522   0.224   0.051  0.1504  0.9380  0.3141
  203MOL0     C27325   3.000   0.214   0.074  0.8372 -0.0638  0.2871
  203MOL0     C27326   3.021   0.139  -0.044 -0.1195 -0.2133 -0.5427
  203MOL0     C27327   3.145   0.090  -0.074 -0.6838 -0.0669 -0.5244
  203MOL0     C27328   3.261   0.116  -0.002 -1.2823 -0.3969 -0.1864
  203MOL0     O27329   3.391   0.103  -0.052 -0.4570 -0.7679 -0.2366
  203MOL0     C27330   3.490   0.081   0.056 -0.6258 -1.0823  1.0694
  203MOL0     C27331   3.475  -0.067   0.115  0.7112  0.3111  0.0600
  203MOL0     C27332   3.483  -0.177  -0.001 -0.0168 -0.2795 -0.3910
  203MOL0     C27333   3.614  -0.177  -0.074 -0.3077 -0.0077  0.7631
  203MOL0     C27334   3.624  -0.272  -0.180  0.0046  0.5786  0.9171
  203MOL0     C27335   3.626  -0.364  -0.256  0.3481  0.4254 -0.3420
  203MOL0     C27336   3.236   0.183   0.112  0.6367  0.2313 -0.1219
  203MOL0     C27337   3.111   0.237   0.153 -0.3865  0.5191 -0.0690
  203MOL0     H27338   2.705   0.176   0.331  2.4970 -0.2634 -3.2974
  203MOL0     H27339   2.478   0.220   0.434  2.4625 -0.3509  0.5887
  203MOL0     H27340   2.161   0.390   0.211 -2.6040  0.3626 -1.5623
  203MOL0     H27341   2.119   0.235   0.141  1.5293  0.1319 -0.6702
  203MOL0     H27342   1.994   0.184   0.358  1.7796  0.2253  2.7166
  203MOL0     H27343   2.054   0.322   0.427 -0.7491 -0.2036  1.2028
  203MOL0     H27344   1.953   0.466   0.235  0.4029 -0.9801 -0.9347
  203MOL0     H27345   1.888   0.324   0.166 -3.5326  0.2548  1.7491
  203MOL0     H27346   1.742   0.298   0.377 -1.4909  1.7096 -0.2194
  203MOL0     H27347   1.831   0.436   0.437  1.6188 -0.6161  0.1519
  203MOL0     H27348   1.726   0.584   0.272  0.5477  0.2613 -0.8118
  203MOL0     H27349   1.666   0.442   0.183  1.7522 -0.0644 -0.0959
  203MOL0     H27350   1.508   0.392   0.347  0.8293 -0.5266  0.3855
  203MOL0     H27351   1.582   0.499   0.468  0.8996 -1.4150  0.2642
  203MOL0     H27352   1.518   0.689   0.320 -2.8418  1.4366 -0.6899
  203MOL0     H27353   1.442   0.579   0.202  0.5086  0.8346  0.3593
  203MOL0     H27354   1.350   0.605   0.499 -2.1331 -0.2887  0.2837
  203MOL0     H27355   1.279   0.508   0.382 -1.2427  1.7147  0.0755
  203MOL0     H27356   1.301   0.890   0.433 -0.1945  3.1340 -0.6735
  203MOL0     H27357   1.108   1.068   0.150  0.2798  1.1055  2.0604
  203MOL0     H27358   1.198   1.097   0.291 -0.5100 -0.3728  0.2109
  203MOL0     H27359   1.405   1.003   0.149  0.0442  0.6099  0.0904
  203MOL0     H27360   1.344   1.164   0.114  1.0031 -0.9665 -1.5286
  203MOL0     H27361   1.212   1.030  -0.077  0.2576 -1.9978  0.8536
  203MOL0     H27362   1.311   0.903  -0.016  1.0453  0.1788  2.0090
  203MOL0     H27363   1.405   0.970  -0.217  1.5935  1.9369 -1.6988
  203MOL0     H27364   1.519   1.007  -0.083 -0.4743  0.5665  0.6743
  203MOL0     H27365   1.626   1.017  -0.311  0.9708  0.3271  0.7610
  203MOL0     H27366   1.763   0.975  -0.468  2.2181 -0.1360  0.1217
  203MOL0     H27367   1.754   1.067  -0.621 -0.2067  1.0096 -0.4872
  203MOL0     H27368   1.873   1.108  -0.489  0.4561 -1.4095  2.3276
  203MOL0     H27369   2.005   1.141  -0.818  0.8623 -0.1245  2.1918
  203MOL0     H27370   2.169   1.222  -0.955 -0.4272 -0.3870  1.2807
  203MOL0     H27371   2.199   1.334  -1.165 -2.8738  0.5842  4.9923
  203MOL0     H27372   2.295   1.471  -1.219 -0.3342  0.5299 -0.0863
  203MOL0     H27373   2.388   1.288  -0.993  3.0180  1.9964  0.4474
  203MOL0     H27374   2.437   1.268  -1.162 -1.7746 -3.1422  1.7981
  203MOL0     H27375   2.479   1.530  -0.995 -2.5517 -2.1481  1.1054
  203MOL0     H27376   2.523   1.496  -1.160 -1.5487 -1.9992 -1.1571
  203MOL0     H27377   2.647   1.323  -0.926 -0.1659 -0.8472  0.9864
  203MOL0     H27378   2.674   1.306  -1.099  2.4127 -2.6138  2.5921
  203MOL0     H27379   2.756   1.528  -0.917 -0.7936 -2.1995  0.5650
  203MOL0     H27380   2.756   1.565  -1.084  1.8508  1.5918  1.7020
  203MOL0     H27381   2.914   1.376  -1.134  0.8122 -0.1698  0.4511
  203MOL0     H27382   2.979   1.505  -1.023  1.1683 -1.6535 -0.1194
  203MOL0     H27383   2.876   1.225  -0.962 -0.1834  1.3040 -0.0584
  203MOL0     H27384   2.924   1.350  -0.844 -3.0754 -0.9675  0.6176
  203MOL0     H27385   3.123   1.205  -0.885 -2.4466 -1.7711 -0.5357
  203MOL0     H27386   3.155   1.373  -0.949 -0.5027  0.3947 -1.0878
  203MOL0     H27387   2.061   1.632  -0.867 -0.4702 -0.0494  2.2264
  203MOL0     H27388   1.905   1.557  -0.723  2.0069  0.2906  1.4404
  203MOL0     H27389   1.561   1.465  -0.482  1.0773  1.1004  1.7056
  203MOL0     H27390   1.426   1.386  -0.274 -0.5194 -0.3082  0.1416
  203MOL0     H27391   2.302   0.234   0.038  0.4817  2.8386 -0.2676
  203MOL0     H27392   2.533   0.228  -0.057  1.3576 -1.1096  0.3159
  203MOL0     H27393   2.936   0.105  -0.102  0.3578  0.7926 -1.9026
  203MOL0     H27394   3.161   0.027  -0.161  1.9641 -0.8352  0.4246
  203MOL0     H27395   3.581   0.083  -0.005 -0.4409 -2.2753  1.2793
  203MOL0     H27396   3.506   0.161   0.129  0.8094 -0.0093 -0.3283
  203MOL0     H27397   3.379  -0.075   0.167  0.1623 -0.5040 -1.0309
  203MOL0     H27398   3.557  -0.090   0.184  0.9166 -0.8050 -0.5454
  203MOL0     H27399   3.406  -0.157  -0.076  2.2290 -0.2916 -2.8427
  203MOL0     H27400   3.454  -0.271   0.048 -1.5975 -0.2169 -1.1388
  203MOL0     H27401   3.696  -0.185  -0.002  0.4835 -0.0407 -0.1271
  203MOL0     H27402   3.624  -0.083  -0.130  1.7066 -1.4407 -1.5213
  203MOL0     H27403   3.629  -0.443  -0.329  4.1379 -0.7283  0.8128
  203MOL0     H27404   3.313   0.199   0.187  0.5322 -0.2451  0.0850
  203MOL0     H27405   3.113   0.289   0.248 -1.7203  0.2457  0.1335
  204MOL0     O27406  10.809   9.575  10.251  0.1574  0.4337 -0.5155
  204MOL0     C27407  10.884   9.633  10.175 -0.1669  0.5287 -0.4041
  204MOL0     O27408  10.896   9.767  10.151  0.3626  0.9712 -0.1050
  204MOL0     C27409  10.817   9.859  10.207 -0.1883 -0.4631  0.6723
  204MOL0     C27410  10.774   9.861  10.339 -0.8043  0.2313  0.6207
  204MOL0     C27411  10.671   9.950  10.379  0.2961  0.6720 -0.0757
  204MOL0     C27412  10.624  10.049  10.290  0.6486  0.4080 -0.1232
  204MOL0     O27413  10.516  10.129  10.310  0.1773  0.6163  0.0988
  204MOL0     C27414  10.389  10.088  10.366 -0.6779  0.5634  0.2053
  204MOL0     C27415  10.294  10.189  10.320 -0.4053 -0.3668 -0.7511
  204MOL0     C27416  10.341  10.324  10.396 -0.2806  0.6738 -0.1011
  204MOL0     C27417  10.260  10.439  10.338  0.0423 -0.1205 -0.5139
  204MOL0     C27418  10.113  10.427  10.304 -0.3842 -0.0284  0.8082
  204MOL0     C27419  10.025  10.413  10.432 -0.8129 -0.0326 -0.2465
  204MOL0     C27420   9.883  10.397  10.393  0.0872 -0.1618 -0.4821
  204MOL0     C27421   9.782  10.369  10.503  0.2035  0.1278  0.0832
  204MOL0     N27422   9.640  10.380  10.460  0.3680  0.3722 -0.2424
  204MOL0     C27423   9.571  10.497  10.442  0.2161 -0.4875 -0.7589
  204MOL0     C27424   9.451  10.455  10.390 -0.6557 -0.2378 -0.7356
  204MOL0     C27425   9.335  10.549  10.372 -0.3602 -0.4375 -0.2242
  204MOL0     C27426   9.219  10.525  10.474  0.6696 -0.3962 -0.3397
  204MOL0     C27427   9.096  10.622  10.452  0.2176  0.1234  0.2771
  204MOL0     C27428   8.992  10.624  10.568  0.2938  0.2087  0.8160
  204MOL0     O27429   8.935  10.499  10.586  0.2538  0.5601  0.2701
  204MOL0     C27430   8.891  10.494  10.715  0.2841 -0.6237  0.8326
  204MOL0     C27431   8.793  10.585  10.763  0.3411 -0.1465 -0.0674
  204MOL0     C27432   8.743  10.568  10.891  0.1988 -0.5300  0.1783
  204MOL0     C27433   8.641  10.666  10.939  0.2313 -0.4127 -0.2517
  204MOL0     C27434   8.803  10.470  10.974  0.0055 -1.1682 -0.0414
  204MOL0     C27435   8.789  10.477  11.123  0.7218  0.1803 -0.4106
  204MOL0     O27436   8.882  10.401  11.197  0.1042 -0.2150 -0.4381
  204MOL0     C27437   8.857  10.384  11.334 -0.9960  0.3468  0.0018
  204MOL0     C27438   8.913  10.481  11.423  0.0845  0.0365  0.1453
  204MOL0     C27439   8.891  10.465  11.554 -0.3498  0.9369  0.2407
  204MOL0     C27440   8.828  10.355  11.611  0.2260 -0.0054 -0.1853
  204MOL0     O27441   8.827  10.345  11.748 -0.2734 -0.2035 -0.3022
  204MOL0     C27442   8.802  10.218  11.805  0.1355 -0.9666  0.0790
  204MOL0     C27443   8.654  10.216  11.841  0.9079  0.0652 -0.1050
  204MOL0     C27444   8.607  10.352  11.904  0.0765 -0.3709 -0.8218
  204MOL0     C27445   8.467  10.358  11.963  0.4416  0.5777  0.9300
  204MOL0     C27446   8.440  10.464  12.063 -0.0652 -0.0977 -0.2644
  204MOL0     C27447   8.507  10.441  12.200  0.1109 -0.7068 -0.6429
  204MOL0     C27448   8.513  10.562  12.292  0.1403 -0.0223  0.6221
  204MOL0     C27449   8.609  10.532  12.414 -0.1555  0.1255 -0.2393
  204MOL0    Cl27450   8.549  10.380  12.511 -0.0273  0.7267  0.4102
  204MOL0     C27451   8.776  10.259  11.521 -0.2183  0.2927  0.2517
  204MOL0     C27452   8.795  10.273  11.390 -0.4050 -0.1188 -0.5003
  204MOL0     O27453   8.695  10.528  11.178  0.0491  0.2894  0.6487
  204MOL0     C27454   8.891  10.373  10.917 -0.0020  0.2892  0.3236
  204MOL0     C27455   8.941  10.387  10.783  0.1559 -0.1169 -0.0546
  204MOL0     N27456   9.448  10.320  10.378 -0.4743 -0.8635 -1.0986
  204MOL0     N27457   9.562  10.274  10.415  0.4695 -0.4435 -0.4754
  204MOL0     C27458  10.680  10.056  10.161  0.2953 -0.5380  0.2475
  204MOL0     C27459  10.777   9.957  10.120  0.4602 -0.3546 -0.0441
  204MOL0     C27460  10.977   9.545  10.101 -0.1220  0.0543  0.4605
  204MOL0     C27461  10.957   9.403  10.085  0.7756 -0.5787 -0.5035
  204MOL0     C27462  11.052   9.323  10.024  0.2853 -0.0323  0.2441
  204MOL0     C27463  11.178   9.375   9.993  0.7115  0.5022  0.8237
  204MOL0     O27464  11.273   9.282   9.944 -0.0357  0.5791 -0.1224
  204MOL0     C27465  11.387   9.326   9.871 -0.5239 -0.5722  0.3246
  204MOL0     C27466  11.507   9.376   9.960  0.9720  0.6253 -0.1186
  204MOL0     C27467  11.623   9.416   9.864 -0.4181 -0.5245 -0.5753
  204MOL0     C27468  11.751   9.457   9.937  0.5011 -0.7104 -0.5887
  204MOL0     C27469  11.731   9.576  10.028 -0.2302  0.6905  1.0353
  204MOL0     C27470  11.714   9.678  10.103  0.7311  0.5209  0.1456
  204MOL0     C27471  11.202   9.507  10.010  0.3853 -0.4271  0.7117
  204MOL0     C27472  11.106   9.589  10.068 -0.1244 -0.1483 -0.6307
  204MOL0     H27473  10.820   9.784  10.401  0.2808  0.7407  0.4595
  204MOL0     H27474  10.632   9.947  10.480  0.8823 -1.6885  0.1336
  204MOL0     H27475  10.352   9.997  10.317 -1.8451  0.2253  1.6470
  204MOL0     H27476  10.398  10.071  10.474 -0.0980 -0.7587 -0.0210
  204MOL0     H27477  10.301  10.207  10.213  0.3199  1.3826 -0.4458
  204MOL0     H27478  10.193  10.157  10.347 -0.5882  0.2324 -0.6959
  204MOL0     H27479  10.328  10.314  10.505  2.4870 -1.3799  0.1261
  204MOL0     H27480  10.446  10.338  10.372 -0.4284  1.7595 -0.1700
  204MOL0     H27481  10.260  10.520  10.411 -1.5140 -1.4454  1.0311
  204MOL0     H27482  10.313  10.477  10.250 -0.8085  4.0198  0.5557
  204MOL0     H27483  10.090  10.526  10.263  0.3389  0.2642  1.0947
  204MOL0     H27484  10.086  10.356  10.226 -1.0159  1.7379 -0.6511
  204MOL0     H27485  10.051  10.322  10.486  0.0096 -0.0673 -0.6894
  204MOL0     H27486  10.036  10.496  10.502 -2.8138 -1.4122  1.8865
  204MOL0     H27487   9.847  10.484  10.338  0.7230  0.2424 -0.2642
  204MOL0     H27488   9.878  10.309  10.328  1.8013  1.6044 -3.1960
  204MOL0     H27489   9.801  10.433  10.589  3.1233  0.1475 -0.4820
  204MOL0     H27490   9.787  10.263  10.530 -2.0834 -0.7739 -2.5251
  204MOL0     H27491   9.597  10.598  10.471 -2.7706 -0.1623  1.2557
  204MOL0     H27492   9.369  10.652  10.375 -1.5481 -0.0514  1.2874
  204MOL0     H27493   9.288  10.537  10.274 -0.9245  3.3208 -0.5669
  204MOL0     H27494   9.253  10.552  10.574  0.3265  2.7693 -0.9575
  204MOL0     H27495   9.188  10.421  10.480  2.5668 -0.9283  4.1223
  204MOL0     H27496   9.047  10.585  10.361  2.7638  0.9238 -1.5470
  204MOL0     H27497   9.125  10.727  10.448 -1.4623  0.5748 -1.2425
  204MOL0     H27498   8.918  10.702  10.548  2.5246  2.0274 -0.9768
  204MOL0     H27499   9.052  10.668  10.648  1.1718  2.5615 -0.9938
  204MOL0     H27500   8.760  10.666  10.699 -2.7297 -2.1613 -1.2472
  204MOL0     H27501   8.686  10.744  11.002 -0.7183  0.2681 -0.3934
  204MOL0     H27502   8.598  10.722  10.856  2.8672  2.1292 -0.0972
  204MOL0     H27503   8.553  10.626  10.989  0.4719 -2.9260 -1.6719
  204MOL0     H27504   8.963  10.571  11.386  1.2783 -0.6639 -0.0077
  204MOL0     H27505   8.933  10.531  11.629 -2.4999  1.8951  0.6784
  204MOL0     H27506   8.828  10.130  11.745 -2.0644 -2.8630  1.7040
  204MOL0     H27507   8.858  10.206  11.898  1.7988 -0.5388 -0.8450
  204MOL0     H27508   8.599  10.200  11.748  0.5193  1.8079 -0.2014
  204MOL0     H27509   8.638  10.136  11.914  0.9669  1.4779  1.5488
  204MOL0     H27510   8.598  10.420  11.819  0.2347 -0.0530 -0.5829
  204MOL0     H27511   8.661  10.392  11.990 -2.9129 -0.9517  1.5175
  204MOL0     H27512   8.395  10.380  11.883 -0.5734  0.5420  1.8034
  204MOL0     H27513   8.453  10.261  12.012  0.9876 -0.0662 -0.1758
  204MOL0     H27514   8.332  10.478  12.075  0.3624  1.7574  2.0041
  204MOL0     H27515   8.469  10.565  12.032 -0.8689  0.4229  0.6474
  204MOL0     H27516   8.444  10.369  12.253  0.9488  1.0593  3.0663
  204MOL0     H27517   8.602  10.396  12.168 -0.1694  0.6761 -3.8421
  204MOL0     H27518   8.409  10.584  12.317  0.6829  2.9781  0.5610
  204MOL0     H27519   8.552  10.649  12.239  3.9156 -1.8454  0.0428
  204MOL0     H27520   8.606  10.607  12.493 -0.0120 -0.5017  0.3755
  204MOL0     H27521   8.710  10.513  12.374 -0.2412  2.9818 -2.0744
  204MOL0     H27522   8.731  10.168  11.561  1.0348 -0.4174  0.0732
  204MOL0     H27523   8.749  10.198  11.326  1.3289 -0.2717 -1.6494
  204MOL0     H27524   8.922  10.290  10.978  0.5794  0.8693  0.8315
  204MOL0     H27525   9.015  10.321  10.739  0.5654  1.4791 -1.9237
  204MOL0     H27526  10.643  10.126  10.087  0.8142 -0.4985  0.0230
  204MOL0     H27527  10.821   9.960  10.021  0.1568  1.9015 -0.1696
  204MOL0     H27528  10.875   9.345  10.127  1.8408 -0.9293  1.1855
  204MOL0     H27529  11.044   9.215  10.021 -0.4305  0.0377 -0.7380
  204MOL0     H27530  11.423   9.241   9.812 -1.4031 -0.4700 -0.3789
  204MOL0     H27531  11.357   9.406   9.803  1.1251 -1.1160 -1.1206
  204MOL0     H27532  11.546   9.290  10.015  0.2773 -1.5218 -2.8225
  204MOL0     H27533  11.478   9.465  10.017 -3.6998  0.0436 -1.1653
  204MOL0     H27534  11.589   9.495   9.796  2.0986 -1.1283 -2.7330
  204MOL0     H27535  11.645   9.333   9.796  0.4359 -1.5248  0.8642
  204MOL0     H27536  11.818   9.486   9.855  0.0217 -1.3376 -1.2165
  204MOL0     H27537  11.787   9.378  10.004  1.9057  0.7910  0.5063
  204MOL0     H27538  11.684   9.766  10.156  1.8844  0.9027  0.1765
  204MOL0     H27539  11.290   9.557   9.971  0.4891 -1.5962 -0.6313
  204MOL0     H27540  11.116   9.697  10.073 -2.1522  0.0668 -0.4163
  205MOL0     O27541   2.487  10.900   1.875 -0.3832  0.0382 -0.2157
  205MOL0     C27542   2.565  10.839   1.957  0.8829 -0.0745 -0.1735
  205MOL0     O27543   2.516  10.766   2.068 -0.3630 -0.2381 -0.0694
  205MOL0     C27544   2.385  10.738   2.098  1.1723  0.0853 -0.2909
  205MOL0     C27545   2.293  10.696   2.007 -0.5528  0.2417 -0.1012
  205MOL0     C27546   2.160  10.653   2.038 -0.3380 -1.0633  0.3102
  205MOL0     C27547   2.111  10.668   2.173  0.0519  0.4370 -0.6816
  205MOL0     O27548   1.984  10.631   2.216  0.2677 -0.2108  0.0588
  205MOL0     C27549   1.882  10.636   2.124  0.7526 -0.3972 -0.0472
  205MOL0     C27550   1.756  10.573   2.189  0.0457  0.1941  0.6283
  205MOL0     C27551   1.629  10.604   2.111 -0.5970 -0.5826  0.5216
  205MOL0     C27552   1.517  10.521   2.173 -0.3411  0.2851  0.5346
  205MOL0     C27553   1.389  10.536   2.096  0.0871 -0.4447 -0.6135
  205MOL0     C27554   1.283  10.438   2.147  0.0217  0.0367 -0.5802
  205MOL0     C27555   1.146  10.466   2.084  0.1901  0.4013 -0.0374
  205MOL0     C27556   1.060  10.349   2.130  0.4493 -0.3726  0.2832
  205MOL0     N27557   0.918  10.369   2.122  0.0759  0.1088 -0.5255
  205MOL0     C27558   0.845  10.489   2.108  0.2620 -0.7209 -0.3815
  205MOL0     C27559   0.714  10.454   2.136  0.0399 -0.1749 -0.1188
  205MOL0     C27560   0.593  10.534   2.130  0.1641 -0.5669 -0.7146
  205MOL0     C27561   0.493  10.493   2.242  0.4681 -0.0885  0.3304
  205MOL0     C27562   0.359  10.548   2.228 -0.4242  0.7711  0.2657
  205MOL0     C27563   0.293  10.473   2.112  1.2521  0.2993 -0.5774
  205MOL0     O27564   0.156  10.508   2.119  0.2449 -0.0068 -0.2322
  205MOL0     C27565   0.073  10.435   2.040  0.2468 -0.2255  1.2442
  205MOL0     C27566   0.100  10.323   1.956 -0.1723  0.0833 -0.9120
  205MOL0     C27567  -0.007  10.263   1.881 -0.0220  0.7664  0.2221
  205MOL0     C27568   0.025  10.141   1.787 -0.1028 -1.0438  0.3447
  205MOL0     C27569  -0.140  10.306   1.896  0.4368 -0.5871 -0.2819
  205MOL0     C27570  -0.254  10.245   1.819  0.4755 -0.4711  0.2842
  205MOL0     O27571  -0.377  10.287   1.873  0.6812  0.1431 -0.3835
  205MOL0     C27572  -0.485  10.206   1.834 -0.2681  0.0556 -0.6772
  205MOL0     C27573  -0.487  10.078   1.879 -0.9023  0.1835 -0.3207
  205MOL0     C27574  -0.586   9.990   1.841 -0.2058 -0.3210  0.4197
  205MOL0     C27575  -0.697  10.038   1.759 -0.2304 -0.0747 -0.1676
  205MOL0     O27576  -0.796   9.947   1.734  0.0317  0.1857 -0.0662
  205MOL0     C27577  -0.922   9.975   1.660  0.2147  0.1570 -0.2044
  205MOL0     C27578  -1.032  10.034   1.748  0.4860 -0.9527 -0.1385
  205MOL0     C27579  -1.171  10.027   1.673 -0.3713 -0.2849 -0.0220
  205MOL0     C27580  -1.281  10.057   1.769 -0.8406  0.2319  0.1176
  205MOL0     C27581  -1.412  10.077   1.688  0.0093 -0.1979  1.1362
  205MOL0     C27582  -1.522  10.017   1.764  0.3946  0.7973 -0.8275
  205MOL0     C27583  -1.663   9.999   1.696  0.8285 -0.2234 -0.4212
  205MOL0     C27584  -1.773   9.992   1.804  0.4744  0.4326 -1.1043
  205MOL0    Cl27585  -1.927   9.992   1.721 -0.2047 -0.0528 -0.1781
  205MOL0     C27586  -0.695  10.165   1.721  0.2066 -0.6947 -0.0210
  205MOL0     C27587  -0.590  10.253   1.755 -0.8421  0.4009  0.7991
  205MOL0     O27588  -0.229  10.185   1.715 -0.0985  0.0102  1.6713
  205MOL0     C27589  -0.172  10.413   1.987  0.1200  1.1204  0.0500
  205MOL0     C27590  -0.064  10.472   2.060 -0.4557  0.1925 -0.6219
  205MOL0     N27591   0.712  10.321   2.159 -0.5052  1.6120 -0.0929
  205MOL0     N27592   0.829  10.274   2.165 -0.3647  0.3557  0.3270
  205MOL0     C27593   2.203  10.707   2.269 -0.9297 -0.0025  0.0715
  205MOL0     C27594   2.337  10.743   2.230 -0.0316  0.2024  0.3330
  205MOL0     C27595   2.710  10.850   1.953 -0.4238  1.1223 -0.5883
  205MOL0     C27596   2.794  10.805   2.065  0.1236  0.1668 -0.5545
  205MOL0     C27597   2.937  10.797   2.054  0.4738 -0.9170  0.4892
  205MOL0     C27598   2.997  10.850   1.946  0.5819  0.0538 -0.6798
  205MOL0     O27599   3.137  10.848   1.950 -0.4018  0.3047  0.4551
  205MOL0     C27600   3.203  10.922   1.840 -0.0913  0.8381  0.1371
  205MOL0     C27601   3.355  10.895   1.832  0.2520 -0.3515  0.0015
  205MOL0     C27602   3.420  10.985   1.951  0.1236 -0.0587  0.5628
  205MOL0     C27603   3.568  10.987   1.925  1.1158 -0.4675 -0.7440
  205MOL0     C27604   3.629  10.857   1.954 -0.0821  0.2202 -0.4019
  205MOL0     C27605   3.674  10.747   1.973  0.4495 -0.8746  0.3033
  205MOL0     C27606   2.920  10.907   1.847 -0.9185  0.2865  0.0851
  205MOL0     C27607   2.782  10.921   1.853 -0.3366  0.2348 -0.1531
  205MOL0     H27608   2.340  10.686   1.910  0.9446  1.3391  0.4643
  205MOL0     H27609   2.091  10.601   1.972  1.2032 -1.2765 -1.2095
  205MOL0     H27610   1.865  10.736   2.082  1.7575 -0.8669 -1.6980
  205MOL0     H27611   1.909  10.566   2.044  0.4052 -2.0130  1.2175
  205MOL0     H27612   1.771  10.465   2.202  0.6263  0.1200 -0.4842
  205MOL0     H27613   1.747  10.608   2.292 -0.5653 -0.1508  0.6981
  205MOL0     H27614   1.593  10.704   2.137 -3.6322 -1.0724 -1.2810
  205MOL0     H27615   1.639  10.585   2.004 -1.7919  0.7162  0.1507
  205MOL0     H27616   1.548  10.417   2.172 -2.4175 -0.3819 -0.2657
  205MOL0     H27617   1.502  10.554   2.276 -0.5349  4.5140 -0.6662
  205MOL0     H27618   1.362  10.641   2.114  4.1150  0.8462 -1.0392
  205MOL0     H27619   1.402  10.520   1.989  2.0860  0.4976 -0.5668
  205MOL0     H27620   1.309  10.334   2.123 -0.6340 -0.7865  1.9931
  205MOL0     H27621   1.284  10.453   2.255  2.6816  1.8034 -0.7632
  205MOL0     H27622   1.108  10.562   2.119  0.2881 -0.3684  2.3299
  205MOL0     H27623   1.146  10.468   1.974 -2.5003  0.4251 -0.1064
  205MOL0     H27624   1.082  10.334   2.236 -0.0778  1.6761  0.7189
  205MOL0     H27625   1.093  10.255   2.084 -1.6065 -0.8843 -0.2253
  205MOL0     H27626   0.888  10.583   2.074  2.0522 -0.6952  1.7163
  205MOL0     H27627   0.620  10.639   2.148 -1.5479 -0.5132  2.1937
  205MOL0     H27628   0.549  10.515   2.031  0.3778 -1.4950 -0.6382
  205MOL0     H27629   0.513  10.530   2.344 -1.1301 -3.2573  1.9335
  205MOL0     H27630   0.491  10.385   2.257  0.5176 -0.1790 -0.3189
  205MOL0     H27631   0.361  10.657   2.215 -1.6954  0.9750  1.4971
  205MOL0     H27632   0.299  10.531   2.317  0.7417  1.5672  1.2364
  205MOL0     H27633   0.303  10.369   2.145  0.9747  0.9338  1.6717
  205MOL0     H27634   0.343  10.497   2.018  1.0070  1.5155 -0.4144
  205MOL0     H27635   0.201  10.282   1.955 -0.7262 -1.3373 -0.9146
  205MOL0     H27636   0.038  10.177   1.685  1.5014 -2.1549  0.1130
  205MOL0     H27637   0.122  10.093   1.807  1.1143  1.0644 -0.1542
  205MOL0     H27638  -0.050  10.062   1.789 -1.3880  0.1543  0.4362
  205MOL0     H27639  -0.411  10.039   1.945  0.4912  2.8032 -0.2337
  205MOL0     H27640  -0.577   9.892   1.887  0.4365  1.1273  3.6092
  205MOL0     H27641  -0.902  10.034   1.570  0.2158 -0.8874 -0.9040
  205MOL0     H27642  -0.949   9.875   1.625  0.1613  0.8073 -2.1302
  205MOL0     H27643  -1.045   9.982   1.844  1.2184 -0.0346  0.4764
  205MOL0     H27644  -1.016  10.138   1.776 -0.3302 -0.5612 -1.0522
  205MOL0     H27645  -1.183   9.927   1.631  0.7392  0.2061 -1.5964
  205MOL0     H27646  -1.173  10.106   1.597  0.5249  0.1037  0.3439
  205MOL0     H27647  -1.294   9.967   1.829 -0.0684 -0.4112 -0.6440
  205MOL0     H27648  -1.255  10.145   1.828  3.1290 -1.2470  0.8913
  205MOL0     H27649  -1.410  10.027   1.591 -4.3813 -1.6467  1.5506
  205MOL0     H27650  -1.430  10.184   1.673 -1.4410 -0.5498  0.1850
  205MOL0     H27651  -1.499   9.919   1.807 -2.1285  1.0142  1.2567
  205MOL0     H27652  -1.540  10.071   1.857  0.7313 -1.9743  0.9578
  205MOL0     H27653  -1.663   9.911   1.632  1.7637 -0.8491  0.4071
  205MOL0     H27654  -1.676  10.085   1.630  0.8536  1.9054  2.1721
  205MOL0     H27655  -1.772  10.078   1.871 -1.9670 -1.2133  1.2502
  205MOL0     H27656  -1.765   9.901   1.865 -0.4307  1.7448  1.0817
  205MOL0     H27657  -0.775  10.208   1.662  0.6780 -2.3338 -1.9528
  205MOL0     H27658  -0.588  10.356   1.720 -1.6508  0.0871 -0.2160
  205MOL0     H27659  -0.277  10.438   2.000  0.3358  1.9753  0.1789
  205MOL0     H27660  -0.079  10.544   2.140 -0.3646 -0.1349 -0.3069
  205MOL0     H27661   2.184  10.699   2.375  1.8039 -0.7911  0.5888
  205MOL0     H27662   2.406  10.769   2.310  0.2901 -1.2262  0.5367
  205MOL0     H27663   2.757  10.771   2.161 -2.8440  4.3175  0.0794
  205MOL0     H27664   3.004  10.771   2.135  2.1924 -0.9702 -0.8882
  205MOL0     H27665   3.160  10.904   1.741  3.5350 -1.6964 -1.1995
  205MOL0     H27666   3.182  11.028   1.859 -1.1616  0.6850 -0.1541
  205MOL0     H27667   3.402  10.927   1.739  0.2618  0.0554  0.1412
  205MOL0     H27668   3.378  10.788   1.840 -1.4362 -0.7008  0.6395
  205MOL0     H27669   3.401  10.937   2.047  1.6428 -0.4655  0.6891
  205MOL0     H27670   3.394  11.091   1.942 -1.1445 -0.2441  1.8501
  205MOL0     H27671   3.614  11.069   1.981  0.5088  0.4661 -1.6047
  205MOL0     H27672   3.591  11.009   1.821  1.2557  0.3431 -0.5507
  205MOL0     H27673   3.733  10.659   1.989 -1.9568 -2.2835  2.3621
  205MOL0     H27674   2.959  10.911   1.746 -0.3578  1.7825  0.3440
  205MOL0     H27675   2.719  10.961   1.774  0.8207 -1.3844 -1.9967
  206MOL0     O27676   0.657   6.341   3.969  0.3177  0.1781 -0.1770
  206MOL0     C27677   0.762   6.347   3.903 -0.0851 -0.9079 -0.1899
  206MOL0     O27678   0.773   6.389   3.777  0.3534  0.0337  0.6280
  206MOL0     C27679   0.661   6.409   3.706 -0.4591  0.0992  0.1392
  206MOL0     C27680   0.582   6.515   3.729  0.2249  0.0042 -0.3656
  206MOL0     C27681   0.456   6.515   3.661  0.5953  0.1335 -0.0022
  206MOL0     C27682   0.424   6.422   3.556  0.8375 -0.2518  0.5139
  206MOL0     O27683   0.291   6.414   3.514  0.0980 -0.5422 -0.5487
  206MOL0     C27684   0.241   6.317   3.414  0.4796 -0.8132 -0.2143
  206MOL0     C27685   0.102   6.356   3.351 -0.7164  0.2745 -0.2737
  206MOL0     C27686  -0.016   6.319   3.447 -0.6691  0.5195 -0.9749
  206MOL0     C27687  -0.151   6.360   3.401  0.1890  0.0114 -0.0474
  206MOL0     C27688  -0.271   6.327   3.489 -0.5025 -0.3369  0.1761
  206MOL0     C27689  -0.395   6.405   3.436  0.3538  0.3402  0.1618
  206MOL0     C27690  -0.510   6.372   3.526  0.3292  0.1214 -0.1280
  206MOL0     C27691  -0.646   6.457   3.494 -0.3857  0.6723  0.0811
  206MOL0     N27692  -0.759   6.391   3.565  0.1689  0.4042 -0.6179
  206MOL0     C27693  -0.819   6.423   3.689 -0.4112  0.0547 -0.4645
  206MOL0     C27694  -0.906   6.319   3.712 -0.4281 -0.0804 -0.6119
  206MOL0     C27695  -0.992   6.301   3.830  0.6339  0.4207  0.7272
  206MOL0     C27696  -1.136   6.293   3.774 -0.3370 -0.2036 -0.4201
  206MOL0     C27697  -1.229   6.349   3.890  0.1565 -0.3731  0.8984
  206MOL0     C27698  -1.391   6.354   3.872 -0.2158  0.0776  0.1926
  206MOL0     O27699  -1.428   6.412   3.743 -1.0000 -0.8318 -0.9142
  206MOL0     C27700  -1.566   6.419   3.712 -0.3433  0.3237 -0.0192
  206MOL0     C27701  -1.668   6.387   3.800 -1.2295 -0.6163 -0.0449
  206MOL0     C27702  -1.809   6.412   3.763 -0.6527 -0.2439  0.2137
  206MOL0     C27703  -1.909   6.393   3.873  0.8544 -0.3290 -0.7250
  206MOL0     C27704  -1.836   6.449   3.627  0.3304 -0.9851  0.0467
  206MOL0     C27705  -1.973   6.484   3.583  0.1824  0.0137  0.0642
  206MOL0     O27706  -1.991   6.491   3.446 -0.2435 -0.4344  0.2624
  206MOL0     C27707  -2.108   6.533   3.387 -0.9436 -0.8015 -0.4457
  206MOL0     C27708  -2.235   6.473   3.415 -0.2117 -0.5697 -0.3635
  206MOL0     C27709  -2.353   6.515   3.346 -0.8022  0.1116  0.8741
  206MOL0     C27710  -2.341   6.608   3.240  0.1590 -0.3903 -0.3445
  206MOL0     O27711  -2.446   6.635   3.157  0.5896 -0.1371 -0.5383
  206MOL0     C27712  -2.505   6.763   3.177 -0.2235  0.7040 -0.4028
  206MOL0     C27713  -2.638   6.773   3.106  0.6467  0.1547 -1.2311
  206MOL0     C27714  -2.740   6.685   3.180 -0.0120  0.6978 -0.7075
  206MOL0     C27715  -2.884   6.723   3.149  1.0686  0.0699 -0.0583
  206MOL0     C27716  -2.970   6.617   3.205  0.1719 -0.4801 -0.6531
  206MOL0     C27717  -3.109   6.659   3.191  0.3472  0.4803  0.6851
  206MOL0     C27718  -3.214   6.552   3.226 -0.2575  0.0171 -0.6358
  206MOL0     C27719  -3.364   6.598   3.198  0.5001  0.0700 -0.5193
  206MOL0    Cl27720  -3.399   6.771   3.222 -0.1964  0.8915  0.0326
  206MOL0     C27721  -2.218   6.675   3.213  0.0928  1.0935 -0.3589
  206MOL0     C27722  -2.105   6.623   3.275  0.5248  0.2381 -0.3618
  206MOL0     O27723  -2.059   6.516   3.668  0.2569 -0.2156 -0.4825
  206MOL0     C27724  -1.726   6.465   3.541 -0.0007  0.1935 -1.0452
  206MOL0     C27725  -1.597   6.457   3.585  0.0025  1.1441 -0.9820
  206MOL0     N27726  -0.901   6.236   3.608 -0.5653 -0.8420  0.1977
  206MOL0     N27727  -0.811   6.275   3.521 -0.1659 -0.5052  0.2032
  206MOL0     C27728   0.508   6.322   3.531  0.2149  0.4275 -0.6481
  206MOL0     C27729   0.629   6.319   3.601 -0.7580  0.3990 -0.2500
  206MOL0     C27730   0.888   6.323   3.985 -0.7098 -0.0706 -0.4346
  206MOL0     C27731   0.889   6.300   4.128 -0.2219  0.0250  0.0748
  206MOL0     C27732   1.011   6.288   4.197 -0.6662 -0.1267  0.6664
  206MOL0     C27733   1.129   6.298   4.128  1.0040 -0.7867 -0.2436
  206MOL0     O27734   1.247   6.292   4.205  0.2580 -0.0904 -0.4549
  206MOL0     C27735   1.378   6.335   4.151  0.1717 -0.1366 -0.5095
  206MOL0     C27736   1.474   6.342   4.268  0.8281  0.5580 -0.4820
  206MOL0     C27737   1.505   6.202   4.327 -1.2534  0.4640  0.3292
  206MOL0     C27738   1.639   6.202   4.399  0.0613 -0.8987 -0.0503
  206MOL0     C27739   1.754   6.215   4.305  0.3312 -0.0778  0.5243
  206MOL0     C27740   1.847   6.225   4.226  0.2939 -0.0041  0.4294
  206MOL0     C27741   1.134   6.311   3.989  1.5573 -0.1996 -0.5689
  206MOL0     C27742   1.011   6.323   3.921  0.4121  0.6595  0.8094
  206MOL0     H27743   0.612   6.584   3.807 -0.5109 -0.6581  0.5276
  206MOL0     H27744   0.380   6.588   3.686 -1.0162 -1.4036 -0.2270
  206MOL0     H27745   0.307   6.319   3.327 -0.9458  2.4921 -1.3631
  206MOL0     H27746   0.235   6.213   3.449 -2.3005 -1.2703 -1.7996
  206MOL0     H27747   0.114   6.462   3.330  2.2262  0.4860  1.8818
  206MOL0     H27748   0.081   6.292   3.264  2.0258 -0.0737 -0.7739
  206MOL0     H27749  -0.011   6.210   3.459  3.3686  0.5249 -1.1415
  206MOL0     H27750   0.014   6.363   3.543  2.7402 -1.2778 -1.0372
  206MOL0     H27751  -0.150   6.469   3.389 -1.9945 -0.1124 -1.8659
  206MOL0     H27752  -0.179   6.307   3.310  0.9108 -0.6742  0.1181
  206MOL0     H27753  -0.298   6.221   3.494 -2.7433  0.0169 -2.3808
  206MOL0     H27754  -0.235   6.347   3.590 -1.9889  1.2157  0.4611
  206MOL0     H27755  -0.376   6.513   3.436 -1.4505  0.6895 -1.0655
  206MOL0     H27756  -0.415   6.373   3.334 -1.7253 -5.2063  1.9313
  206MOL0     H27757  -0.535   6.268   3.501 -0.3886  0.0573  0.7991
  206MOL0     H27758  -0.494   6.377   3.634  0.7294 -0.8367 -0.1357
  206MOL0     H27759  -0.661   6.449   3.386 -0.5713 -0.0308  0.1581
  206MOL0     H27760  -0.630   6.563   3.516 -0.6825  0.8025 -0.3295
  206MOL0     H27761  -0.808   6.518   3.741  1.1855  1.8055 -3.6305
  206MOL0     H27762  -0.973   6.202   3.873 -1.4905 -0.6307 -0.6087
  206MOL0     H27763  -0.974   6.381   3.903  1.4393  0.6031  0.3467
  206MOL0     H27764  -1.160   6.191   3.743 -0.4410 -0.9323  1.8506
  206MOL0     H27765  -1.146   6.367   3.694 -1.7872  1.2019  0.9757
  206MOL0     H27766  -1.198   6.444   3.935  3.5244 -1.6350  1.4853
  206MOL0     H27767  -1.225   6.276   3.971 -4.1430 -3.6549 -1.4142
  206MOL0     H27768  -1.425   6.420   3.952  0.2317 -2.5274  2.7086
  206MOL0     H27769  -1.430   6.256   3.900  0.3018 -0.2139 -0.0827
  206MOL0     H27770  -1.637   6.357   3.900  0.4750 -2.0396 -0.9432
  206MOL0     H27771  -1.993   6.327   3.849  0.1694  1.1327 -2.6504
  206MOL0     H27772  -1.855   6.343   3.954 -0.0532  0.0307  0.1400
  206MOL0     H27773  -1.947   6.489   3.911 -0.2374 -1.4205  1.0933
  206MOL0     H27774  -2.246   6.401   3.495 -0.7783 -0.1975 -0.1003
  206MOL0     H27775  -2.450   6.468   3.359 -0.4759 -0.5994  0.8070
  206MOL0     H27776  -2.524   6.784   3.283 -0.3579 -0.0317 -0.2746
  206MOL0     H27777  -2.435   6.839   3.140  0.1084  1.4101  1.5459
  206MOL0     H27778  -2.675   6.876   3.115  3.1411  1.3821 -3.6919
  206MOL0     H27779  -2.638   6.740   3.002 -0.6501  0.0638 -1.2242
  206MOL0     H27780  -2.718   6.684   3.287 -0.7494 -3.4178 -0.3934
  206MOL0     H27781  -2.728   6.578   3.157 -0.0383  0.9518 -1.9785
  206MOL0     H27782  -2.905   6.823   3.188  2.0465  0.0390  0.5674
  206MOL0     H27783  -2.896   6.733   3.040 -0.8499  3.1054  0.2939
  206MOL0     H27784  -2.941   6.593   3.308  0.7801  1.7279 -0.2581
  206MOL0     H27785  -2.959   6.531   3.138 -1.1503  1.5934 -3.7171
  206MOL0     H27786  -3.124   6.746   3.256 -1.9164  0.2606  0.5471
  206MOL0     H27787  -3.112   6.690   3.086  2.0366 -1.6352 -0.0524
  206MOL0     H27788  -3.199   6.518   3.329 -0.2416 -0.9450 -0.9473
  206MOL0     H27789  -3.190   6.471   3.156 -0.6661 -0.7116  0.0496
  206MOL0     H27790  -3.439   6.537   3.250 -0.3455  1.4297 -0.1020
  206MOL0     H27791  -3.384   6.569   3.094 -0.2321  0.3017 -0.4480
  206MOL0     H27792  -2.216   6.753   3.137  0.5704 -0.5014 -2.0649
  206MOL0     H27793  -2.002   6.649   3.252  0.5310 -1.0579 -2.0124
  206MOL0     H27794  -1.734   6.493   3.436  3.3467 -0.5466 -1.6273
  206MOL0     H27795  -1.514   6.477   3.519  0.2008 -2.4204 -1.9713
  206MOL0     H27796   0.492   6.232   3.472 -0.2927 -0.9941  1.5489
  206MOL0     H27797   0.696   6.234   3.583  0.1826  1.0034  0.3236
  206MOL0     H27798   0.795   6.314   4.180 -0.1011  1.8518 -0.1500
  206MOL0     H27799   1.011   6.275   4.305  2.4603  3.1438  1.2644
  206MOL0     H27800   1.415   6.279   4.064  0.6691 -0.9723  0.2229
  206MOL0     H27801   1.364   6.432   4.103 -0.6893  0.1141  0.2462
  206MOL0     H27802   1.425   6.402   4.346 -3.4132  1.4040 -3.4422
  206MOL0     H27803   1.565   6.390   4.230  2.4686 -2.1834 -0.2854
  206MOL0     H27804   1.501   6.123   4.252  2.1939  0.2724  0.1850
  206MOL0     H27805   1.435   6.182   4.409  0.0736  1.1533  1.6902
  206MOL0     H27806   1.660   6.113   4.459 -0.0784  0.3186  1.8708
  206MOL0     H27807   1.646   6.275   4.480  1.1069 -3.0311  1.9145
  206MOL0     H27808   1.921   6.241   4.150  1.0209 -0.3267  1.0451
  206MOL0     H27809   1.231   6.311   3.940  1.0527 -1.2832 -1.6150
  206MOL0     H27810   1.020   6.333   3.813 -1.8235 -2.6237  0.1877
  207MOL0     O27811   5.094   8.215   8.037  0.1054  0.0380  0.1473
  207MOL0     C27812   5.020   8.116   8.032 -0.1044  1.0820  0.0487
  207MOL0     O27813   4.892   8.108   8.073  0.1001  0.2702 -0.6522
  207MOL0     C27814   4.821   8.189   8.160 -0.4344 -0.4076 -0.1675
  207MOL0     C27815   4.680   8.175   8.155  0.6386 -0.5251 -0.8619
  207MOL0     C27816   4.593   8.242   8.242 -0.4036  0.0012 -0.0209
  207MOL0     C27817   4.659   8.322   8.339  0.2972  0.8210  0.5902
  207MOL0     O27818   4.592   8.394   8.435  0.0578 -0.7845  0.3188
  207MOL0     C27819   4.460   8.363   8.485  0.1064 -0.1677 -0.5069
  207MOL0     C27820   4.356   8.463   8.435 -0.4075 -0.2370 -0.1762
  207MOL0     C27821   4.221   8.403   8.451  0.3416 -0.2673 -0.9608
  207MOL0     C27822   4.109   8.507   8.431 -0.5054 -0.0336  0.2958
  207MOL0     C27823   3.967   8.449   8.411 -0.4259  0.1506 -0.3707
  207MOL0     C27824   3.868   8.555   8.349  0.6454 -0.1858 -0.2783
  207MOL0     C27825   3.725   8.500   8.348 -0.5037  0.7497  0.1358
  207MOL0     C27826   3.626   8.597   8.273  0.0106  0.6298 -0.0364
  207MOL0     N27827   3.599   8.728   8.332 -0.4180 -0.2993  0.2406
  207MOL0     C27828   3.478   8.769   8.391 -0.0560  0.2083 -0.6854
  207MOL0     C27829   3.500   8.893   8.436 -0.5555 -0.1339  0.3637
  207MOL0     C27830   3.409   8.978   8.525 -0.2010 -0.6019  0.8928
  207MOL0     C27831   3.265   9.007   8.478  0.2456 -0.0353 -0.2536
  207MOL0     C27832   3.207   9.139   8.548 -0.0769  0.0600  0.1442
  207MOL0     C27833   3.070   9.164   8.487  0.4804  1.2054 -0.0165
  207MOL0     O27834   2.978   9.065   8.526  0.2811 -0.4888  0.8214
  207MOL0     C27835   2.838   9.094   8.512  0.4364  0.4986  0.1978
  207MOL0     C27836   2.790   9.205   8.454  0.4324 -0.0258  0.3250
  207MOL0     C27837   2.651   9.217   8.440  0.3905  0.6439 -0.7326
  207MOL0     C27838   2.602   9.346   8.380  0.6393  0.3832 -0.4035
  207MOL0     C27839   2.559   9.109   8.466 -0.5693  0.7996  0.0125
  207MOL0     C27840   2.423   9.101   8.415 -0.5420  0.0551 -0.0803
  207MOL0     O27841   2.335   9.030   8.498 -0.7928  0.5647 -0.2453
  207MOL0     C27842   2.205   9.034   8.475  0.3247  0.1443  0.3982
  207MOL0     C27843   2.140   9.161   8.469 -0.1301 -0.3492  0.8680
  207MOL0     C27844   1.998   9.164   8.451 -0.2860 -0.0075 -1.5706
  207MOL0     C27845   1.921   9.043   8.442  0.9126 -0.4781 -0.0235
  207MOL0     O27846   1.783   9.061   8.429  0.0773  0.1152  0.2234
  207MOL0     C27847   1.698   8.950   8.463  0.9697 -0.1172 -0.3427
  207MOL0     C27848   1.546   8.999   8.464  0.1042 -0.0510  0.4249
  207MOL0     C27849   1.465   8.896   8.534  0.8638 -0.6292 -0.0211
  207MOL0     C27850   1.317   8.939   8.524 -0.6556  0.9597  0.2145
  207MOL0     C27851   1.249   8.835   8.615 -0.1680  0.0558  1.2464
  207MOL0     C27852   1.273   8.863   8.764  0.3809 -0.3314  0.5462
  207MOL0     C27853   1.168   8.781   8.836  0.5223 -0.4483 -0.1615
  207MOL0     C27854   1.152   8.818   8.977 -0.0215 -0.5115  0.4572
  207MOL0    Cl27855   1.301   8.794   9.070 -0.0935  0.2730  0.1737
  207MOL0     C27856   1.992   8.919   8.448 -0.3265 -0.2962  0.3848
  207MOL0     C27857   2.125   8.916   8.466 -0.4781  0.3322 -0.4052
  207MOL0     O27858   2.393   9.138   8.305  0.5139 -0.4588  0.1699
  207MOL0     C27859   2.614   8.994   8.525  0.3305 -0.9567 -0.5364
  207MOL0     C27860   2.752   8.990   8.558  0.7063  0.1628 -0.3600
  207MOL0     N27861   3.632   8.924   8.411 -0.3839 -0.2388  0.4761
  207MOL0     N27862   3.691   8.827   8.346 -0.1188 -0.0685 -0.2331
  207MOL0     C27863   4.797   8.337   8.343 -0.3493  0.3567 -0.1943
  207MOL0     C27864   4.882   8.271   8.258 -0.2087  0.1581 -0.1946
  207MOL0     C27865   5.077   7.989   7.970  1.2260 -0.0866 -0.5778
  207MOL0     C27866   4.990   7.877   7.944  0.4345  0.9726 -0.6809
  207MOL0     C27867   5.046   7.755   7.902 -0.4950  0.2696  0.8684
  207MOL0     C27868   5.183   7.741   7.867 -0.1699 -1.0892 -0.2563
  207MOL0     O27869   5.226   7.613   7.817  0.0190  0.6060 -0.4069
  207MOL0     C27870   5.355   7.609   7.751 -0.1442  0.8991  0.4165
  207MOL0     C27871   5.338   7.688   7.614 -0.9418  0.1164 -0.2969
  207MOL0     C27872   5.477   7.724   7.547  0.5400 -0.1485  0.1570
  207MOL0     C27873   5.436   7.810   7.420  0.1841  0.0221 -0.2433
  207MOL0     C27874   5.448   7.947   7.447  0.0320  0.2258 -0.3522
  207MOL0     C27875   5.467   8.067   7.463  0.1942  0.5333 -0.0810
  207MOL0     C27876   5.260   7.850   7.902  0.2181  0.1302  0.5033
  207MOL0     C27877   5.211   7.964   7.952 -0.2607  0.3362 -0.2306
  207MOL0     H27878   4.626   8.112   8.086 -3.1532  0.5906  0.7961
  207MOL0     H27879   4.485   8.236   8.235 -0.4538  1.3527 -0.7761
  207MOL0     H27880   4.429   8.260   8.465 -0.4799  0.2497 -1.9024
  207MOL0     H27881   4.453   8.372   8.593 -0.2191 -1.6402 -0.3775
  207MOL0     H27882   4.363   8.556   8.493  1.4877  0.6124 -1.6541
  207MOL0     H27883   4.361   8.479   8.327  1.0741 -0.7110 -0.1953
  207MOL0     H27884   4.213   8.318   8.383 -3.1924 -2.0097  1.3387
  207MOL0     H27885   4.218   8.369   8.555  1.5643  2.1220 -0.0700
  207MOL0     H27886   4.100   8.583   8.508 -1.5136 -0.3655  0.5248
  207MOL0     H27887   4.137   8.573   8.348 -2.4000  0.4013 -0.0669
  207MOL0     H27888   3.972   8.367   8.339  1.0857 -1.0007  0.9569
  207MOL0     H27889   3.941   8.406   8.509  0.1539 -0.1973 -0.3624
  207MOL0     H27890   3.876   8.648   8.407  3.9792  1.9666 -3.6420
  207MOL0     H27891   3.900   8.578   8.247  0.1256  1.6041 -0.0875
  207MOL0     H27892   3.722   8.399   8.306 -0.7292  0.9630 -0.3686
  207MOL0     H27893   3.688   8.488   8.451  0.2387 -0.0047  0.3335
  207MOL0     H27894   3.531   8.543   8.271  0.3618 -0.0512 -2.3239
  207MOL0     H27895   3.656   8.612   8.168  0.0234  0.5192 -0.0487
  207MOL0     H27896   3.384   8.714   8.396  0.7678 -1.1518  1.7343
  207MOL0     H27897   3.394   8.931   8.623 -0.3592 -1.1365  0.6150
  207MOL0     H27898   3.465   9.068   8.553 -1.4364 -0.5987  3.6901
  207MOL0     H27899   3.209   8.921   8.517  0.5692 -1.2026 -2.2583
  207MOL0     H27900   3.253   9.016   8.370  0.3406 -1.7171 -0.4423
  207MOL0     H27901   3.272   9.221   8.515 -2.1769  1.0481 -1.7668
  207MOL0     H27902   3.202   9.144   8.657  2.6161  0.6393  0.3210
  207MOL0     H27903   3.084   9.168   8.378 -0.7188  0.7525 -0.2088
  207MOL0     H27904   3.027   9.263   8.509  0.9361  1.2069  0.8763
  207MOL0     H27905   2.848   9.283   8.406 -2.2255  1.3849 -0.8306
  207MOL0     H27906   2.580   9.343   8.273 -1.0057 -0.5124 -0.0846
  207MOL0     H27907   2.514   9.376   8.439  0.6517  1.1055 -0.7349
  207MOL0     H27908   2.662   9.436   8.399 -2.2234  2.9365 -2.3590
  207MOL0     H27909   2.191   9.257   8.464  0.9606 -0.7893  2.5939
  207MOL0     H27910   1.944   9.257   8.440 -1.3308 -0.1785  1.3411
  207MOL0     H27911   1.705   8.861   8.400  1.7963 -1.3237  1.3830
  207MOL0     H27912   1.719   8.912   8.563  1.0219  1.1856  0.1582
  207MOL0     H27913   1.537   9.096   8.513  1.2295 -0.3874  1.3265
  207MOL0     H27914   1.519   9.011   8.358 -1.3177  0.6306  0.8381
  207MOL0     H27915   1.494   8.890   8.639  1.9556  1.0514 -0.1945
  207MOL0     H27916   1.471   8.799   8.485  0.6612 -0.6999  0.0921
  207MOL0     H27917   1.304   9.038   8.568 -0.4213  0.5544  1.2224
  207MOL0     H27918   1.279   8.930   8.422  0.4733 -0.2843 -0.1241
  207MOL0     H27919   1.284   8.735   8.590 -2.7861 -0.2878 -1.6564
  207MOL0     H27920   1.143   8.837   8.589  0.1993  1.6516 -0.3965
  207MOL0     H27921   1.373   8.824   8.788 -0.5001 -6.4198 -3.4594
  207MOL0     H27922   1.265   8.971   8.780 -0.2943  0.1681 -2.4614
  207MOL0     H27923   1.191   8.675   8.827  1.8750  0.0157 -4.4502
  207MOL0     H27924   1.075   8.781   8.778  1.3452  4.0210 -1.9367
  207MOL0     H27925   1.077   8.762   9.033 -0.5883 -0.6910 -0.4515
  207MOL0     H27926   1.120   8.923   8.986 -4.5702 -1.8488  4.3029
  207MOL0     H27927   1.929   8.833   8.429  0.1178 -0.5667  0.1128
  207MOL0     H27928   2.165   8.816   8.478 -2.4647 -0.3606  1.1567
  207MOL0     H27929   2.553   8.908   8.549 -1.2761 -0.1860 -1.6896
  207MOL0     H27930   2.788   8.917   8.629  1.1846  0.9888  0.2630
  207MOL0     H27931   4.841   8.408   8.412  0.2230 -0.4577  0.2964
  207MOL0     H27932   4.989   8.284   8.267 -0.0439 -2.0378  2.2042
  207MOL0     H27933   4.884   7.887   7.966  0.7715  3.5920  0.0614
  207MOL0     H27934   4.976   7.674   7.887 -1.6642  1.3164  0.5008
  207MOL0     H27935   5.436   7.648   7.814  1.3887 -0.3058 -0.7214
  207MOL0     H27936   5.378   7.503   7.743  1.6744  1.2435  0.5876
  207MOL0     H27937   5.302   7.787   7.643 -1.8249 -1.1254  3.4121
  207MOL0     H27938   5.267   7.636   7.548  0.8471 -3.6907  0.4909
  207MOL0     H27939   5.526   7.631   7.517  2.1629  0.2809  1.3369
  207MOL0     H27940   5.540   7.775   7.621  0.9165 -0.7928  0.2861
  207MOL0     H27941   5.333   7.782   7.393  0.1060 -2.1961  1.9582
  207MOL0     H27942   5.496   7.787   7.331 -0.0196 -2.5703  0.1893
  207MOL0     H27943   5.503   8.166   7.482  2.6774 -0.6880  2.3330
  207MOL0     H27944   5.368   7.847   7.891  0.2700  1.8750  0.3140
  207MOL0     H27945   5.270   8.045   7.994 -2.8409  2.2938 -0.1038
  208MOL0     O27946   9.619   5.782   3.652  0.1963  0.2994 -0.6961
  208MOL0     C27947   9.696   5.687   3.669 -0.1361  0.3324  0.4899
  208MOL0     O27948   9.715   5.604   3.776  0.7491  0.2849 -0.3607
  208MOL0     C27949   9.632   5.616   3.885  0.0964 -0.1310 -0.6395
  208MOL0     C27950   9.492   5.634   3.883  0.5520  0.0862  0.3486
  208MOL0     C27951   9.410   5.637   3.998 -0.6827  0.4089 -0.1032
  208MOL0     C27952   9.477   5.615   4.121  0.3025 -0.2608 -0.5962
  208MOL0     O27953   9.399   5.622   4.237  0.3102  0.1062 -0.1703
  208MOL0     C27954   9.428   5.546   4.357 -0.7111  0.5773  0.2590
  208MOL0     C27955   9.311   5.525   4.455 -0.1098 -0.2712 -0.4191
  208MOL0     C27956   9.174   5.484   4.395 -0.1797 -0.5994 -0.4002
  208MOL0     C27957   9.101   5.413   4.504 -0.6707  1.7133 -0.6080
  208MOL0     C27958   8.978   5.338   4.453 -0.8020  0.0162 -0.5686
  208MOL0     C27959   8.884   5.289   4.561  0.4377 -0.0698 -0.1690
  208MOL0     C27960   8.778   5.203   4.497 -0.7106  0.9959 -0.3663
  208MOL0     C27961   8.667   5.151   4.594  0.0216  0.3555 -0.0571
  208MOL0     N27962   8.593   5.269   4.651 -0.1067 -0.4585 -0.1441
  208MOL0     C27963   8.503   5.344   4.576  0.3288  0.7730 -0.3215
  208MOL0     C27964   8.447   5.423   4.676  0.4907 -0.2627 -0.1156
  208MOL0     C27965   8.332   5.524   4.636 -0.4428  0.6119 -0.2109
  208MOL0     C27966   8.201   5.494   4.702  0.6186 -0.0933 -0.4280
  208MOL0     C27967   8.132   5.363   4.670  1.2990  0.7119 -0.2316
  208MOL0     C27968   8.117   5.351   4.517  0.7018  0.6788 -0.2584
  208MOL0     O27969   7.996   5.283   4.479  0.0664  0.5371 -0.3907
  208MOL0     C27970   8.008   5.213   4.363  0.2207  0.4477  0.1521
  208MOL0     C27971   8.070   5.259   4.246  0.2026 -0.9915 -0.1256
  208MOL0     C27972   8.073   5.179   4.129 -0.5350 -0.3857  0.7753
  208MOL0     C27973   8.157   5.241   4.016 -0.1167  0.7148  0.1200
  208MOL0     C27974   8.012   5.053   4.127 -0.1443 -0.0879 -0.4747
  208MOL0     C27975   8.014   4.961   4.008  0.0745  0.0082  0.0606
  208MOL0     O27976   7.933   4.857   4.017 -0.3424  0.1041 -0.2308
  208MOL0     C27977   7.920   4.763   3.925 -0.6317  0.4038  1.2589
  208MOL0     C27978   7.951   4.775   3.791 -0.2610 -0.3133  0.8650
  208MOL0     C27979   7.916   4.673   3.694  0.3592 -0.5143 -0.1179
  208MOL0     C27980   7.859   4.553   3.741  0.0490  0.2325 -0.1237
  208MOL0     O27981   7.832   4.461   3.645  0.3566 -0.2814 -0.1955
  208MOL0     C27982   7.700   4.394   3.647  0.8208  0.2907 -0.8871
  208MOL0     C27983   7.645   4.336   3.517  0.0557  0.1247  0.4118
  208MOL0     C27984   7.639   4.439   3.396  0.5484  0.8658  0.2821
  208MOL0     C27985   7.578   4.385   3.271  0.0102  0.0052 -0.8021
  208MOL0     C27986   7.423   4.376   3.280 -0.5016  0.1672  0.3572
  208MOL0     C27987   7.348   4.510   3.279  0.8072  0.9069 -0.5531
  208MOL0     C27988   7.200   4.481   3.283  0.2811  0.4492 -0.0471
  208MOL0     C27989   7.118   4.607   3.256 -0.2980 -0.4841 -0.7422
  208MOL0    Cl27990   7.124   4.731   3.389 -0.2713 -0.0954  0.1062
  208MOL0     C27991   7.833   4.534   3.872  0.5304 -0.0620 -0.5108
  208MOL0     C27992   7.857   4.644   3.967 -0.3227 -0.3639 -0.9566
  208MOL0     O27993   8.095   4.985   3.917  0.6141  0.1700 -0.1363
  208MOL0     C27994   7.943   5.014   4.239  0.4020 -0.4381  0.3445
  208MOL0     C27995   7.953   5.083   4.359 -0.0662  0.2781 -0.0753
  208MOL0     N27996   8.495   5.400   4.801  0.1550  0.2650  0.8446
  208MOL0     N27997   8.582   5.302   4.784 -0.0326  0.2177 -0.0540
  208MOL0     C27998   9.616   5.599   4.127  0.4166  0.1536 -0.8150
  208MOL0     C27999   9.689   5.604   4.011  0.5386  0.4113  0.1598
  208MOL0     C28000   9.789   5.655   3.558 -0.2801 -1.0658 -0.6452
  208MOL0     C28001   9.795   5.738   3.446 -0.2607 -0.0261  0.4375
  208MOL0     C28002   9.876   5.698   3.339 -0.7616  0.1058  0.0242
  208MOL0     C28003   9.950   5.587   3.342  0.1412  0.5374  0.2889
  208MOL0     O28004  10.041   5.546   3.247  0.2037 -0.0916 -1.0867
  208MOL0     C28005  10.103   5.648   3.165 -0.2757  0.1664  0.3785
  208MOL0     C28006  10.221   5.580   3.095 -0.2244 -0.4299 -0.7410
  208MOL0     C28007  10.304   5.686   3.026 -0.9935 -0.6986 -1.2171
  208MOL0     C28008  10.419   5.621   2.960  0.0410 -0.1285  0.9124
  208MOL0     C28009  10.542   5.619   3.038  0.1132  1.0344  0.3211
  208MOL0     C28010  10.635   5.623   3.114 -0.4906 -0.0965 -0.6118
  208MOL0     C28011   9.953   5.501   3.454  0.5927  0.0271  0.2300
  208MOL0     C28012   9.867   5.534   3.560 -1.0404 -1.1703 -0.1093
  208MOL0     H28013   9.438   5.646   3.790  1.7090  2.6066 -0.0670
  208MOL0     H28014   9.302   5.639   3.994 -0.8869 -0.4752  2.7608
  208MOL0     H28015   9.457   5.445   4.329 -2.8433  0.5765 -2.3039
  208MOL0     H28016   9.504   5.599   4.416 -0.7353  1.8541 -0.8105
  208MOL0     H28017   9.349   5.458   4.533 -0.2349 -0.5266 -0.5739
  208MOL0     H28018   9.290   5.622   4.500  1.6707  1.6395 -3.3500
  208MOL0     H28019   9.118   5.572   4.362  0.8786  1.0475  1.9264
  208MOL0     H28020   9.196   5.413   4.315  0.6470  1.7909 -2.3939
  208MOL0     H28021   9.179   5.348   4.545 -0.1334  2.5993 -0.2021
  208MOL0     H28022   9.070   5.480   4.585 -2.4691 -0.5909  0.7529
  208MOL0     H28023   8.922   5.404   4.386  1.2655  2.3140 -0.1369
  208MOL0     H28024   9.021   5.254   4.397  0.3034 -1.9943  2.9685
  208MOL0     H28025   8.939   5.214   4.619 -1.0641 -1.2967 -0.2872
  208MOL0     H28026   8.826   5.366   4.614  0.0215  0.4899 -1.3984
  208MOL0     H28027   8.734   5.254   4.411 -1.3744 -1.6176 -1.6912
  208MOL0     H28028   8.825   5.110   4.463 -1.1972  0.0720  1.3772
  208MOL0     H28029   8.727   5.110   4.676 -1.9185 -0.2911  1.1118
  208MOL0     H28030   8.607   5.084   4.532  0.9905  0.6911 -1.4066
  208MOL0     H28031   8.487   5.345   4.469 -0.6257 -0.0858 -0.2126
  208MOL0     H28032   8.364   5.620   4.677  0.2904  0.9747 -1.5873
  208MOL0     H28033   8.314   5.521   4.528 -4.5576 -1.0452  0.3241
  208MOL0     H28034   8.143   5.579   4.667 -0.4021 -0.4025  0.4649
  208MOL0     H28035   8.207   5.502   4.811 -0.5318  1.8950 -0.4747
  208MOL0     H28036   8.035   5.358   4.720  2.0133 -1.5479  1.0821
  208MOL0     H28037   8.187   5.282   4.719  0.1578  1.6428  2.8045
  208MOL0     H28038   8.205   5.295   4.482  0.3932  0.3640 -0.5312
  208MOL0     H28039   8.114   5.449   4.468 -1.9861 -0.0779 -1.7781
  208MOL0     H28040   8.122   5.354   4.253  1.9525 -1.7072 -2.1142
  208MOL0     H28041   8.168   5.348   4.033  2.1342  0.9819 -2.3919
  208MOL0     H28042   8.254   5.191   4.019 -0.9543 -0.9779  1.1029
  208MOL0     H28043   8.101   5.233   3.922  0.0759 -0.2182  0.0715
  208MOL0     H28044   7.994   4.867   3.752 -2.3597  0.2026 -0.3809
  208MOL0     H28045   7.926   4.680   3.587 -1.1095 -1.0773 -0.3193
  208MOL0     H28046   7.696   4.314   3.721  2.5755  1.4340  0.5329
  208MOL0     H28047   7.633   4.472   3.683  0.1612 -0.7239  0.1549
  208MOL0     H28048   7.703   4.251   3.479  0.1779 -0.1853  1.2704
  208MOL0     H28049   7.543   4.302   3.535 -0.0151  0.7764  1.3192
  208MOL0     H28050   7.746   4.457   3.379  1.3636 -2.3320  1.3448
  208MOL0     H28051   7.585   4.532   3.411 -1.8577  0.0822 -2.5785
  208MOL0     H28052   7.611   4.443   3.184  3.3507  0.3414  0.5394
  208MOL0     H28053   7.612   4.282   3.258  1.2711  0.1572  1.0566
  208MOL0     H28054   7.395   4.324   3.372  1.5414 -0.2858  0.7745
  208MOL0     H28055   7.397   4.314   3.193 -1.0169  0.5286  0.2513
  208MOL0     H28056   7.374   4.572   3.365  1.3066 -1.2726  0.9400
  208MOL0     H28057   7.378   4.567   3.191 -1.9418  0.5293 -1.8699
  208MOL0     H28058   7.187   4.443   3.384 -2.0069  2.5935  0.5440
  208MOL0     H28059   7.166   4.406   3.211  0.0317  0.0752  0.4587
  208MOL0     H28060   7.016   4.570   3.241 -1.7678  2.4733  0.9960
  208MOL0     H28061   7.153   4.648   3.161  1.3365  0.7881  0.3697
  208MOL0     H28062   7.784   4.440   3.896  1.6319 -1.3888 -3.0469
  208MOL0     H28063   7.846   4.646   4.075  1.8958 -0.8031 -0.6702
  208MOL0     H28064   7.892   4.918   4.237  0.5463 -0.5556  1.5812
  208MOL0     H28065   7.901   5.059   4.451  0.8017  1.3921  0.7205
  208MOL0     H28066   9.671   5.597   4.221  1.1670  1.9995 -1.1754
  208MOL0     H28067   9.795   5.589   4.027  0.4210 -0.2094  0.4001
  208MOL0     H28068   9.746   5.834   3.433  3.7230  1.9336 -2.2442
  208MOL0     H28069   9.869   5.757   3.249  1.5034  1.2002  0.4940
  208MOL0     H28070  10.034   5.686   3.089 -1.8195 -0.3461  1.4761
  208MOL0     H28071  10.127   5.735   3.225 -1.2317 -0.6413  1.9945
  208MOL0     H28072  10.194   5.490   3.039  1.7276 -1.4174 -0.1625
  208MOL0     H28073  10.273   5.545   3.184  1.0899 -1.6594 -1.9516
  208MOL0     H28074  10.343   5.762   3.095 -0.9179 -1.6281 -0.2151
  208MOL0     H28075  10.247   5.736   2.948  0.2051 -1.0254 -2.3396
  208MOL0     H28076  10.450   5.664   2.865 -0.2267  1.4884  1.5241
  208MOL0     H28077  10.390   5.517   2.944 -3.0511  0.8865 -0.8936
  208MOL0     H28078  10.708   5.595   3.187 -1.1102 -1.4695 -0.4776
  208MOL0     H28079  10.000   5.404   3.452  2.7616  1.0370 -0.7735
  208MOL0     H28080   9.866   5.453   3.633  1.8230  0.9252  2.5132
  209MOL0     O28081   3.066   3.447   9.960 -0.5092 -0.8064  0.2052
  209MOL0     C28082   3.137   3.361  10.007  0.2601  0.3017  0.0192
  209MOL0     O28083   3.094   3.231  10.044 -0.1501 -0.6921  0.3830
  209MOL0     C28084   2.961   3.199  10.054  0.1465 -0.4435  0.0525
  209MOL0     C28085   2.937   3.063  10.065 -0.2789  0.3261 -0.0630
  209MOL0     C28086   2.814   3.009  10.091 -0.2600  0.1619 -0.3748
  209MOL0     C28087   2.708   3.097  10.129 -0.1808 -0.1742 -0.4400
  209MOL0     O28088   2.583   3.067  10.176  0.5974  0.0245 -0.6720
  209MOL0     C28089   2.553   2.927  10.208 -0.0306  0.2122  0.0512
  209MOL0     C28090   2.507   2.845  10.088  0.6319 -0.7543 -0.0107
  209MOL0     C28091   2.377   2.905  10.042  0.0564 -0.4414 -0.9001
  209MOL0     C28092   2.388   3.020   9.935  0.9035  0.0311  0.1434
  209MOL0     C28093   2.265   3.098   9.904 -0.2682  0.0715  0.3572
  209MOL0     C28094   2.143   3.003   9.876  0.3682 -0.2127  0.1158
  209MOL0     C28095   2.020   3.092   9.805  0.4412 -0.1817  0.3107
  209MOL0     C28096   2.059   3.178   9.687 -0.0375  0.9062  0.3991
  209MOL0     N28097   1.940   3.252   9.650 -0.1657  0.4894  0.5085
  209MOL0     C28098   1.857   3.329   9.733 -1.0496  0.6734  0.4295
  209MOL0     C28099   1.755   3.367   9.654  0.8638  0.4218 -0.5194
  209MOL0     C28100   1.647   3.443   9.725 -0.8664  0.4410 -0.2349
  209MOL0     C28101   1.508   3.419   9.673 -0.8479 -0.3933 -0.1104
  209MOL0     C28102   1.417   3.535   9.714 -0.0749  0.2927  0.1803
  209MOL0     C28103   1.270   3.502   9.693  0.1095  0.6542 -0.5355
  209MOL0     O28104   1.177   3.612   9.678 -0.3092 -0.3729 -0.4769
  209MOL0     C28105   1.047   3.589   9.656  0.7404 -0.5647 -0.8753
  209MOL0     C28106   0.979   3.468   9.642 -0.2846 -0.4860 -0.1112
  209MOL0     C28107   0.842   3.461   9.606 -0.1311  0.0949  1.4092
  209MOL0     C28108   0.792   3.322   9.561 -0.0131  0.0939 -0.4996
  209MOL0     C28109   0.758   3.575   9.608  0.7901 -0.2905  0.7237
  209MOL0     C28110   0.617   3.575   9.574  0.8862 -0.7901  0.1599
  209MOL0     O28111   0.568   3.711   9.558  0.7892  0.0418  0.1961
  209MOL0     C28112   0.447   3.741   9.507  0.1042  0.4643  0.8781
  209MOL0     C28113   0.340   3.657   9.491  0.3696 -1.0092  1.3382
  209MOL0     C28114   0.227   3.704   9.427  0.2159  0.5409  0.1372
  209MOL0     C28115   0.212   3.834   9.390  0.3803 -0.2576  0.5273
  209MOL0     O28116   0.100   3.880   9.319 -0.0087  0.3254  0.2486
  209MOL0     C28117   0.004   3.935   9.405 -0.2927  0.5394 -0.4505
  209MOL0     C28118  -0.120   3.984   9.320 -0.4774  0.2462  0.6772
  209MOL0     C28119  -0.236   3.881   9.327  0.3454 -0.1699  0.2058
  209MOL0     C28120  -0.364   3.920   9.252 -0.0246 -0.1769  0.4968
  209MOL0     C28121  -0.469   3.811   9.250  0.2076 -0.0089 -0.0887
  209MOL0     C28122  -0.595   3.871   9.181 -0.4585 -0.0988  0.1620
  209MOL0     C28123  -0.715   3.775   9.194 -0.4194  0.8026 -0.4439
  209MOL0     C28124  -0.829   3.815   9.107 -0.6128  0.6558  0.1497
  209MOL0    Cl28125  -0.919   3.945   9.191  0.5081  0.2343  0.1887
  209MOL0     C28126   0.315   3.925   9.412  0.0145 -0.7483 -0.4492
  209MOL0     C28127   0.438   3.867   9.463  0.1192  0.4155  0.4261
  209MOL0     O28128   0.546   3.471   9.556  0.4125 -0.5526 -0.4162
  209MOL0     C28129   0.827   3.702   9.624 -0.0930 -0.1960  0.1736
  209MOL0     C28130   0.966   3.713   9.646  0.2469  0.1387 -0.9920
  209MOL0     N28131   1.774   3.322   9.528  0.1180  0.4972  0.3953
  209MOL0     N28132   1.886   3.255   9.524  0.3625  0.4073 -0.0245
  209MOL0     C28133   2.740   3.238  10.123  0.3503  0.9389 -0.6389
  209MOL0     C28134   2.860   3.288  10.089 -0.1600  0.2419 -0.2438
  209MOL0     C28135   3.283   3.388   9.999 -0.4404 -0.3127  0.3681
  209MOL0     C28136   3.326   3.514   9.958 -0.4459  0.5544  1.4699
  209MOL0     C28137   3.462   3.543   9.952  0.4008 -0.6418 -0.0452
  209MOL0     C28138   3.559   3.447   9.979  1.1248  0.5100 -0.3379
  209MOL0     O28139   3.687   3.484   9.973 -0.7559 -0.4171 -0.5753
  209MOL0     C28140   3.784   3.380   9.985  0.2226  0.2390 -0.3882
  209MOL0     C28141   3.909   3.451   9.940  0.7715 -0.6703  0.0241
  209MOL0     C28142   4.020   3.358   9.937 -0.2535  0.7114  0.2683
  209MOL0     C28143   4.112   3.334  10.061  1.1266  0.0215  0.6093
  209MOL0     C28144   4.187   3.446  10.103 -0.7075 -0.0745 -0.8577
  209MOL0     C28145   4.252   3.535  10.158 -0.3406 -1.0127  0.7075
  209MOL0     C28146   3.517   3.314  10.011 -0.6984 -0.3799 -0.0638
  209MOL0     C28147   3.380   3.289  10.030 -0.0050 -0.9517  0.2441
  209MOL0     H28148   3.018   2.991  10.067 -0.8720 -0.3514  0.5830
  209MOL0     H28149   2.797   2.902  10.093 -0.8419  0.2594  0.8222
  209MOL0     H28150   2.635   2.868  10.249  0.4111  1.5434  1.1826
  209MOL0     H28151   2.468   2.918  10.277 -1.6018 -1.7422 -1.9973
  209MOL0     H28152   2.583   2.852  10.010 -0.6783  1.6728 -1.1563
  209MOL0     H28153   2.490   2.739  10.111  1.1222 -0.5425  1.4333
  209MOL0     H28154   2.308   2.831   9.999  1.0641 -1.4892 -0.7658
  209MOL0     H28155   2.316   2.948  10.122  0.0744 -1.0835 -0.5282
  209MOL0     H28156   2.471   3.088   9.958 -0.5165  1.8828 -0.0099
  209MOL0     H28157   2.429   2.979   9.843 -2.1949  5.0176 -3.9951
  209MOL0     H28158   2.235   3.170   9.981 -3.1940 -3.6661  3.1021
  209MOL0     H28159   2.289   3.145   9.808 -0.9294  2.9768  1.5191
  209MOL0     H28160   2.176   2.918   9.817 -2.4073 -2.2511  1.2655
  209MOL0     H28161   2.102   2.961   9.969  0.5783 -0.3453  0.1505
  209MOL0     H28162   1.943   3.024   9.766  1.5636 -0.5529 -1.3708
  209MOL0     H28163   1.973   3.154   9.882 -1.0070 -0.5829 -0.2038
  209MOL0     H28164   2.091   3.111   9.606 -0.1440 -0.4559  1.4484
  209MOL0     H28165   2.139   3.250   9.707  2.8720 -1.1683 -2.5473
  209MOL0     H28166   1.885   3.353   9.835 -0.1509 -0.0823  0.3787
  209MOL0     H28167   1.658   3.423   9.832 -1.6240 -1.9506 -0.5352
  209MOL0     H28168   1.676   3.548   9.712  2.0356 -0.4723 -2.6033
  209MOL0     H28169   1.465   3.327   9.714 -0.3979 -0.6567 -0.2122
  209MOL0     H28170   1.491   3.413   9.565  0.0405 -0.7722 -0.2326
  209MOL0     H28171   1.448   3.625   9.659  0.0566 -0.4705 -1.0212
  209MOL0     H28172   1.432   3.554   9.821  1.1060  0.7222 -0.0414
  209MOL0     H28173   1.242   3.452   9.786  0.9504  2.7444  0.9314
  209MOL0     H28174   1.259   3.435   9.607 -4.8556  2.3355 -1.4739
  209MOL0     H28175   1.046   3.382   9.639  0.1995 -0.1415  0.5118
  209MOL0     H28176   0.883   3.264   9.546  0.0166  0.7770 -3.4412
  209MOL0     H28177   0.718   3.278   9.629  2.4401  0.8960  2.9477
  209MOL0     H28178   0.751   3.334   9.461 -0.7767  1.1889 -0.0836
  209MOL0     H28179   0.346   3.552   9.519  0.9447 -0.7127  2.3250
  209MOL0     H28180   0.149   3.633   9.398 -0.5992  1.3300  0.3322
  209MOL0     H28181  -0.018   3.860   9.481  1.8683  0.0454 -0.2433
  209MOL0     H28182   0.047   4.024   9.453 -0.2555 -0.9454  2.5446
  209MOL0     H28183  -0.156   4.081   9.356 -0.9534  1.1618 -2.0418
  209MOL0     H28184  -0.096   3.992   9.214  0.0067  1.9110  0.8901
  209MOL0     H28185  -0.257   3.866   9.434 -1.5563 -3.9858 -0.5581
  209MOL0     H28186  -0.206   3.783   9.290  1.0507  1.0246 -2.6553
  209MOL0     H28187  -0.394   4.012   9.302  2.0005  0.4210  0.7256
  209MOL0     H28188  -0.336   3.937   9.148 -0.6614 -1.6469  0.0614
  209MOL0     H28189  -0.484   3.786   9.356 -1.8695 -0.0322 -0.3541
  209MOL0     H28190  -0.452   3.718   9.194 -1.9394 -0.1643 -0.5705
  209MOL0     H28191  -0.630   3.965   9.224 -2.1426 -1.6286  2.3915
  209MOL0     H28192  -0.567   3.882   9.076  0.2203 -1.6332  0.1505
  209MOL0     H28193  -0.750   3.763   9.297  1.9727 -0.9615  0.2435
  209MOL0     H28194  -0.677   3.677   9.162  1.4103  0.3705  2.6827
  209MOL0     H28195  -0.889   3.728   9.079 -1.8629  1.4120  0.3841
  209MOL0     H28196  -0.785   3.841   9.010  1.1403 -1.7851  0.1881
  209MOL0     H28197   0.308   4.031   9.386  1.2808  0.3719  3.1768
  209MOL0     H28198   0.521   3.935   9.474  1.2937 -0.5892 -1.6275
  209MOL0     H28199   0.783   3.801   9.638  2.8626  0.9146  2.8108
  209MOL0     H28200   1.020   3.807   9.650  0.0813  0.2088  1.9404
  209MOL0     H28201   2.665   3.310  10.152 -1.7296 -1.1204 -0.6326
  209MOL0     H28202   2.868   3.396  10.090 -1.7330  0.3816  0.5741
  209MOL0     H28203   3.257   3.596   9.940 -0.1943  0.3891 -0.3721
  209MOL0     H28204   3.506   3.639   9.928 -2.3402  0.2474 -2.0900
  209MOL0     H28205   3.804   3.355  10.090 -0.0396 -0.3620 -0.4783
  209MOL0     H28206   3.753   3.295   9.924  0.6864  0.6077 -1.1451
  209MOL0     H28207   3.924   3.538  10.004 -0.9229 -1.2645  1.3234
  209MOL0     H28208   3.898   3.480   9.835 -1.2206  0.7310  0.5573
  209MOL0     H28209   4.091   3.377   9.856  3.4394 -3.6410  2.0919
  209MOL0     H28210   3.975   3.263   9.908  0.3994 -0.0475  1.7024
  209MOL0     H28211   4.175   3.249  10.031  0.7836  0.5085 -1.7449
  209MOL0     H28212   4.038   3.308  10.136 -2.0324 -1.0128 -2.5786
  209MOL0     H28213   4.320   3.599  10.211 -1.1255  0.7792 -0.3408
  209MOL0     H28214   3.590   3.237  10.034 -0.6784  0.0912  1.6188
  209MOL0     H28215   3.351   3.190  10.063  0.6205 -1.7174 -1.4161
  210MOL0     O28216  11.316   9.113   3.124  0.1681 -0.0376 -0.2570
  210MOL0     C28217  11.379   9.024   3.066 -0.2217  0.9510 -0.1000
  210MOL0     O28218  11.336   8.889   3.042  0.7455 -0.4777  0.4266
  210MOL0     C28219  11.216   8.862   3.094 -0.3192  0.2245  0.1300
  210MOL0     C28220  11.195   8.864   3.226  0.3764 -0.2681 -0.2252
  210MOL0     C28221  11.068   8.841   3.283  0.0214 -0.5373 -0.2586
  210MOL0     C28222  10.960   8.815   3.201  0.1520  0.0003  1.1847
  210MOL0     O28223  10.833   8.797   3.256 -0.7678 -0.3463 -0.3123
  210MOL0     C28224  10.722   8.772   3.172 -0.0833  0.5967  0.7995
  210MOL0     C28225  10.602   8.742   3.253  0.0937  0.7119 -0.4289
  210MOL0     C28226  10.491   8.696   3.162  0.5655 -0.0415  0.0815
  210MOL0     C28227  10.371   8.661   3.252 -0.1463 -0.1331 -0.3666
  210MOL0     C28228  10.245   8.638   3.170  1.2635 -0.6083 -0.1290
  210MOL0     C28229  10.118   8.602   3.250  0.4505  0.6517  0.2828
  210MOL0     C28230   9.998   8.549   3.170  0.4356 -0.2657 -1.0715
  210MOL0     C28231   9.959   8.644   3.056 -0.4575 -0.1756 -0.3013
  210MOL0     N28232   9.826   8.631   3.013 -0.1079  0.6085 -0.0641
  210MOL0     C28233   9.715   8.687   3.080  0.6649 -0.4290  0.1353
  210MOL0     C28234   9.608   8.614   3.053  0.0501  0.4787  0.4614
  210MOL0     C28235   9.467   8.619   3.101  0.0057 -0.2062  0.0410
  210MOL0     C28236   9.364   8.658   2.997 -0.4358  0.4721 -1.0946
  210MOL0     C28237   9.222   8.660   3.050 -0.0071 -0.0057 -0.3928
  210MOL0     C28238   9.126   8.749   2.974  0.6711 -0.3019  0.2864
  210MOL0     O28239   8.989   8.720   3.014 -0.7704 -0.4350  0.5250
  210MOL0     C28240   8.882   8.768   2.948  0.0084  0.0942  0.4000
  210MOL0     C28241   8.758   8.736   2.985  0.4316  0.0874  0.2041
  210MOL0     C28242   8.639   8.791   2.931 -0.2621 -0.1939 -0.1356
  210MOL0     C28243   8.507   8.750   2.990  0.0336  0.1393  0.5280
  210MOL0     C28244   8.652   8.887   2.830 -0.2916  0.0070 -0.0839
  210MOL0     C28245   8.541   8.940   2.741 -0.0102 -0.5372  0.0705
  210MOL0     O28246   8.571   9.008   2.632 -0.0011  0.4836  0.0847
  210MOL0     C28247   8.484   9.059   2.534 -0.2508 -0.5765 -0.1029
  210MOL0     C28248   8.545   9.115   2.425 -0.6978 -0.0862 -0.2600
  210MOL0     C28249   8.472   9.173   2.326  0.6443 -0.0921  0.8189
  210MOL0     C28250   8.329   9.153   2.322 -0.2026  0.2075 -0.0022
  210MOL0     O28251   8.247   9.211   2.230  0.3579  0.1334  0.4947
  210MOL0     C28252   8.318   9.239   2.105  0.5249 -0.2052  0.5778
  210MOL0     C28253   8.214   9.260   1.998  0.3956 -0.4660  0.7921
  210MOL0     C28254   8.141   9.133   1.962  0.3727  0.6090 -0.4054
  210MOL0     C28255   8.048   9.161   1.844 -0.6237  0.1576 -0.1584
  210MOL0     C28256   7.957   9.046   1.824 -0.4531 -0.1539  0.7158
  210MOL0     C28257   7.894   9.046   1.678  0.2092 -0.0275 -0.2984
  210MOL0     C28258   7.805   9.168   1.651 -0.6319  0.3425  0.7458
  210MOL0     C28259   7.684   9.134   1.574  1.2687  0.4384  0.4037
  210MOL0    Cl28260   7.573   9.050   1.691 -0.1713  0.2550 -0.2497
  210MOL0     C28261   8.267   9.090   2.424 -0.3106 -0.4254 -0.2729
  210MOL0     C28262   8.344   9.048   2.530 -0.1070 -0.2933 -0.1789
  210MOL0     O28263   8.427   8.951   2.796  0.5008 -0.4922  0.3586
  210MOL0     C28264   8.782   8.913   2.783  0.1812  0.1775  0.0282
  210MOL0     C28265   8.893   8.861   2.854 -0.4416 -0.9750  0.1458
  210MOL0     N28266   9.654   8.519   2.960 -0.0028 -0.1212 -0.4006
  210MOL0     N28267   9.781   8.531   2.932 -0.3497 -1.1657  0.1831
  210MOL0     C28268  10.986   8.800   3.061  0.3086  0.2807  0.2041
  210MOL0     C28269  11.112   8.815   3.010  0.0623  0.4415 -0.1230
  210MOL0     C28270  11.519   9.061   3.030 -0.3181  0.4314 -0.2772
  210MOL0     C28271  11.573   9.189   3.049 -0.4483 -0.2410 -1.1506
  210MOL0     C28272  11.706   9.223   3.019 -0.5670  0.3761  0.6699
  210MOL0     C28273  11.793   9.127   2.966  0.1130  0.2526  0.2073
  210MOL0     O28274  11.920   9.166   2.938  0.5205 -0.4414  0.2377
  210MOL0     C28275  12.010   9.077   2.865 -0.5358 -0.3708  0.5746
  210MOL0     C28276  12.120   9.169   2.789 -0.3862 -0.7518  0.3432
  210MOL0     C28277  12.204   9.095   2.689  0.6766  0.3945 -0.2446
  210MOL0     C28278  12.280   8.983   2.750 -0.2643 -0.7759  0.1345
  210MOL0     C28279  12.402   9.031   2.818  0.4221 -0.6854  0.5519
  210MOL0     C28280  12.500   9.072   2.872  0.3188 -0.3355  0.2830
  210MOL0     C28281  11.737   8.997   2.955  0.4433  0.9398 -0.3387
  210MOL0     C28282  11.606   8.960   2.989 -0.3162  0.3353  0.2158
  210MOL0     H28283  11.267   8.891   3.303 -0.3097  0.6963  0.0975
  210MOL0     H28284  11.054   8.852   3.390  3.6394  1.0319  0.2037
  210MOL0     H28285  10.701   8.856   3.105 -1.7916 -1.0053 -0.7776
  210MOL0     H28286  10.734   8.684   3.108 -1.4288  1.7959 -1.2602
  210MOL0     H28287  10.630   8.668   3.328  0.2143  1.6419  0.4676
  210MOL0     H28288  10.576   8.842   3.291  0.1768  1.9499 -3.3560
  210MOL0     H28289  10.466   8.780   3.096 -2.9215  0.2988  1.5976
  210MOL0     H28290  10.522   8.604   3.111  2.5259 -0.2541  1.5517
  210MOL0     H28291  10.398   8.567   3.302 -0.3145 -0.7326 -1.3627
  210MOL0     H28292  10.357   8.745   3.320  0.1857 -0.1751 -0.2415
  210MOL0     H28293  10.229   8.737   3.125 -0.8258 -0.3066  1.1014
  210MOL0     H28294  10.261   8.566   3.090  2.3769  1.2661 -1.6574
  210MOL0     H28295  10.147   8.519   3.315  0.5225 -1.3328 -2.1189
  210MOL0     H28296  10.100   8.684   3.320 -2.6171 -2.4115  3.4424
  210MOL0     H28297  10.022   8.446   3.139 -1.0120 -1.3898  1.2372
  210MOL0     H28298   9.920   8.533   3.245  1.5638 -0.5190  0.0975
  210MOL0     H28299  10.026   8.628   2.971 -1.9441  0.0835 -1.5514
  210MOL0     H28300   9.978   8.750   3.076 -1.5947 -0.0156 -0.0376
  210MOL0     H28301   9.728   8.767   3.152  3.7886 -0.1094 -0.6703
  210MOL0     H28302   9.439   8.515   3.122  1.0948 -1.2061 -3.0229
  210MOL0     H28303   9.463   8.693   3.182 -0.2072  0.5626 -0.6629
  210MOL0     H28304   9.390   8.596   2.910  3.7776  0.0895  0.2351
  210MOL0     H28305   9.395   8.754   2.954  0.0968  0.6057 -0.4222
  210MOL0     H28306   9.227   8.705   3.149  2.3192  5.8704 -2.6784
  210MOL0     H28307   9.183   8.558   3.045  0.0443  0.0024 -1.2710
  210MOL0     H28308   9.124   8.723   2.867  0.3129  0.8554 -0.0025
  210MOL0     H28309   9.140   8.857   2.983  0.2919 -0.2683  0.5077
  210MOL0     H28310   8.762   8.660   3.062  0.8081  0.5516  0.6605
  210MOL0     H28311   8.431   8.735   2.913  1.4074 -0.3124 -0.7874
  210MOL0     H28312   8.514   8.651   3.038 -2.2991 -0.7775 -0.8670
  210MOL0     H28313   8.472   8.821   3.065 -0.0552 -0.5568  1.1636
  210MOL0     H28314   8.652   9.130   2.437 -0.7356  0.3406 -0.4857
  210MOL0     H28315   8.523   9.241   2.258 -0.5109  0.9207  0.9331
  210MOL0     H28316   8.381   9.328   2.119  2.2151 -1.4252  1.1265
  210MOL0     H28317   8.388   9.163   2.068 -0.4217 -0.7136 -0.2027
  210MOL0     H28318   8.141   9.338   2.023  1.4123  1.2131 -1.1832
  210MOL0     H28319   8.266   9.295   1.909  0.9210 -2.2141  0.3655
  210MOL0     H28320   8.091   9.090   2.049  3.0162  2.2389  2.1241
  210MOL0     H28321   8.202   9.049   1.928 -2.7802 -1.4843 -1.3141
  210MOL0     H28322   7.986   9.250   1.858 -0.4795  0.2979 -0.4057
  210MOL0     H28323   8.105   9.178   1.752 -0.8919 -0.4630 -0.4484
  210MOL0     H28324   7.879   9.068   1.898  0.2861  3.6311  0.5704
  210MOL0     H28325   8.015   8.958   1.852  1.6184  0.7593 -0.5018
  210MOL0     H28326   7.978   9.033   1.608  0.7066 -0.7130  0.4058
  210MOL0     H28327   7.845   8.950   1.660  0.4887 -0.5440  1.5026
  210MOL0     H28328   7.855   9.226   1.574 -0.7641 -0.2416  0.2090
  210MOL0     H28329   7.790   9.223   1.744  0.8882  1.0511  0.5916
  210MOL0     H28330   7.708   9.066   1.491 -1.8267  1.1523 -1.2151
  210MOL0     H28331   7.639   9.223   1.530 -1.2482 -1.7576 -1.8934
  210MOL0     H28332   8.162   9.063   2.421  0.3440 -3.2370 -2.2827
  210MOL0     H28333   8.284   9.014   2.615 -1.1064 -0.4918 -0.9449
  210MOL0     H28334   8.802   8.982   2.702  3.3972 -1.4136 -0.6803
  210MOL0     H28335   8.989   8.880   2.808 -1.9102 -0.1194 -2.9024
  210MOL0     H28336  10.910   8.766   2.992 -0.0682  0.2698  0.6170
  210MOL0     H28337  11.126   8.804   2.903 -1.7627 -2.6562 -0.1488
  210MOL0     H28338  11.506   9.269   3.079  0.0222  0.0940 -0.9755
  210MOL0     H28339  11.746   9.322   3.034 -1.9708  0.7474  2.2457
  210MOL0     H28340  12.059   9.013   2.938  1.5133 -0.8715 -1.1641
  210MOL0     H28341  11.953   9.015   2.796  0.1002  0.6961 -0.9578
  210MOL0     H28342  12.186   9.210   2.865 -1.4708 -1.5527  1.7743
  210MOL0     H28343  12.068   9.247   2.733  0.3608  0.3868  1.1849
  210MOL0     H28344  12.268   9.166   2.636 -0.5271  0.2629 -1.9639
  210MOL0     H28345  12.139   9.066   2.606  0.4915  3.3435 -1.2438
  210MOL0     H28346  12.307   8.918   2.666  1.3279 -1.4507  1.1119
  210MOL0     H28347  12.238   8.936   2.840  0.7197  1.2145  1.7255
  210MOL0     H28348  12.584   9.125   2.912 -0.6519  2.4494 -1.0463
  210MOL0     H28349  11.793   8.911   2.918  1.5896  0.9636  1.2603
  210MOL0     H28350  11.573   8.857   2.980 -0.2963  0.3215  0.3017
  211MOL0     O28351   5.886  10.760   2.179  0.2216 -0.0188 -0.9425
  211MOL0     C28352   5.952  10.704   2.094 -0.3915  0.6243  0.6108
  211MOL0     O28353   5.929  10.718   1.961  0.7151 -0.8904  0.2861
  211MOL0     C28354   5.820  10.789   1.911 -0.5766  0.4479 -0.2670
  211MOL0     C28355   5.709  10.724   1.843  1.1312 -0.0468  0.5816
  211MOL0     C28356   5.605  10.806   1.806  0.5937 -0.2252  1.1604
  211MOL0     C28357   5.600  10.937   1.817  0.1828  0.4831  0.1491
  211MOL0     O28358   5.503  11.024   1.768  0.1049  0.1475 -0.6783
  211MOL0     C28359   5.381  10.968   1.717 -0.4901  0.0230  0.7393
  211MOL0     C28360   5.270  11.074   1.708  0.0047 -0.1458 -0.9357
  211MOL0     C28361   5.136  10.997   1.701  0.1953 -1.2950 -0.0876
  211MOL0     C28362   5.024  11.094   1.669  0.6918  0.0353  0.3271
  211MOL0     C28363   4.879  11.037   1.657 -0.5970  0.2401 -0.7193
  211MOL0     C28364   4.807  11.022   1.791 -0.4678 -0.0334  0.7832
  211MOL0     C28365   4.747  11.157   1.833 -0.0344  0.0430  0.8893
  211MOL0     C28366   4.643  11.157   1.940 -0.0654  0.3252 -0.3293
  211MOL0     N28367   4.501  11.145   1.885  0.6898  0.4594 -0.2001
  211MOL0     C28368   4.408  11.242   1.875 -0.9690 -0.4113 -0.2588
  211MOL0     C28369   4.294  11.189   1.835  0.3120 -0.6647 -0.5645
  211MOL0     C28370   4.165  11.258   1.797  0.6551 -0.2275  0.1329
  211MOL0     C28371   4.070  11.273   1.916  0.2981 -0.8091  0.1604
  211MOL0     C28372   3.939  11.331   1.864  0.1093  0.0262 -0.0731
  211MOL0     C28373   3.831  11.331   1.976 -0.7304  0.5515  0.5134
  211MOL0     O28374   3.705  11.389   1.927 -0.1519 -0.4572  0.5142
  211MOL0     C28375   3.606  11.375   2.015  0.3847  0.6011 -0.2307
  211MOL0     C28376   3.477  11.425   1.981 -1.0323  0.0938  0.0907
  211MOL0     C28377   3.369  11.394   2.057 -0.5909 -0.0275  0.9023
  211MOL0     C28378   3.235  11.436   1.997 -0.1564  0.9372  0.3955
  211MOL0     C28379   3.384  11.336   2.184  0.4554 -0.6771  0.1900
  211MOL0     C28380   3.268  11.301   2.269  0.7700  0.0099 -0.0032
  211MOL0     O28381   3.279  11.333   2.400 -0.6340  0.1568  0.3464
  211MOL0     C28382   3.161  11.333   2.477  0.0566 -1.0197  0.0024
  211MOL0     C28383   3.048  11.390   2.420  0.8263 -0.1448  0.1912
  211MOL0     C28384   2.935  11.407   2.504  0.0496 -0.1008  0.7971
  211MOL0     C28385   2.924  11.345   2.626 -0.4617 -0.0894 -0.0966
  211MOL0     O28386   2.799  11.342   2.691 -0.4365  0.4270 -0.2569
  211MOL0     C28387   2.798  11.265   2.820  0.2673  0.1061  0.1455
  211MOL0     C28388   2.658  11.263   2.888  0.2424  0.8729  0.0381
  211MOL0     C28389   2.574  11.149   2.848 -0.3863  0.8317 -0.3513
  211MOL0     C28390   2.435  11.153   2.899  0.2010 -0.2165 -0.0649
  211MOL0     C28391   2.363  11.033   2.839  0.3624 -0.2434  0.2711
  211MOL0     C28392   2.248  10.988   2.937 -0.0450 -0.5134  0.0214
  211MOL0     C28393   2.111  10.983   2.868 -0.6134  0.2959  0.0934
  211MOL0     C28394   2.012  10.977   2.965  1.0096 -0.7968 -0.1195
  211MOL0    Cl28395   1.962  10.815   3.009 -0.3816  0.2442  0.5885
  211MOL0     C28396   3.040  11.285   2.677 -0.9646  0.0764  0.3217
  211MOL0     C28397   3.162  11.269   2.602  0.4601 -0.9985 -0.1320
  211MOL0     O28398   3.169  11.240   2.213 -0.1067 -0.0228  0.4531
  211MOL0     C28399   3.511  11.316   2.238  0.2679 -0.2956  0.5460
  211MOL0     C28400   3.621  11.326   2.152  0.0518 -0.0245  0.0162
  211MOL0     N28401   4.313  11.055   1.855 -0.7724 -0.6681  0.0309
  211MOL0     N28402   4.440  11.027   1.874  0.6224  0.5561 -0.1558
  211MOL0     C28403   5.716  11.003   1.872  0.8919 -0.0475  0.1477
  211MOL0     C28404   5.823  10.927   1.924  0.4012 -0.7433  0.7290
  211MOL0     C28405   6.055  10.613   2.137 -0.4788 -0.2614  0.2612
  211MOL0     C28406   6.095  10.495   2.082  0.0618  0.5989 -0.2057
  211MOL0     C28407   6.186  10.403   2.137 -0.0077 -0.1513  0.4911
  211MOL0     C28408   6.243  10.435   2.258  0.1417  0.0517  0.0311
  211MOL0     O28409   6.341  10.349   2.306  0.6964  0.2229  0.8312
  211MOL0     C28410   6.385  10.378   2.439  0.3175  0.4737 -0.3207
  211MOL0     C28411   6.471  10.257   2.493  0.0690  0.4014  0.5704
  211MOL0     C28412   6.611  10.256   2.406 -0.2670 -0.6673 -0.4892
  211MOL0     C28413   6.715  10.159   2.460 -0.0030 -0.1239 -0.1996
  211MOL0     C28414   6.853  10.189   2.410 -0.4245  0.4881  0.6672
  211MOL0     C28415   6.955  10.214   2.349 -0.9317 -0.1332  0.0665
  211MOL0     C28416   6.214  10.558   2.316  0.5748  1.1041 -0.8100
  211MOL0     C28417   6.118  10.639   2.264 -0.1505 -0.6957  0.1615
  211MOL0     H28418   5.715  10.616   1.845 -0.2917 -0.1282  2.2653
  211MOL0     H28419   5.519  10.750   1.769  2.0185 -2.3137  0.8295
  211MOL0     H28420   5.390  10.922   1.618  2.0102  3.1675 -0.6846
  211MOL0     H28421   5.346  10.891   1.787 -0.6905  0.5861  1.2680
  211MOL0     H28422   5.278  11.146   1.790  1.1321 -0.4752 -0.7350
  211MOL0     H28423   5.279  11.135   1.618 -0.2915  0.6652 -0.4252
  211MOL0     H28424   5.135  10.929   1.615 -0.8389 -0.6922 -0.5778
  211MOL0     H28425   5.116  10.943   1.794 -1.4530 -1.0698 -0.2684
  211MOL0     H28426   5.012  11.189   1.723 -0.0734  2.3862 -3.6103
  211MOL0     H28427   5.039  11.118   1.564 -3.5543 -2.3323 -1.0622
  211MOL0     H28428   4.831  11.116   1.599  3.3352  2.6361 -1.1006
  211MOL0     H28429   4.866  10.946   1.598  0.6822 -1.0196  0.8133
  211MOL0     H28430   4.723  10.952   1.791 -0.2148 -0.4173 -1.6676
  211MOL0     H28431   4.874  10.986   1.869  2.5891 -1.7771 -2.3899
  211MOL0     H28432   4.834  11.212   1.872  0.5750 -0.8393  0.8256
  211MOL0     H28433   4.712  11.221   1.752  0.6073 -1.3039 -0.5197
  211MOL0     H28434   4.648  11.249   1.999 -0.1965  0.9475 -1.2564
  211MOL0     H28435   4.672  11.080   2.011 -0.1660  1.3817  0.8937
  211MOL0     H28436   4.424  11.349   1.865 -1.0135 -0.5131 -1.4709
  211MOL0     H28437   4.193  11.354   1.753  1.3328 -0.3202  0.3418
  211MOL0     H28438   4.118  11.186   1.730 -2.6447  0.3256  1.6520
  211MOL0     H28439   4.114  11.346   1.985 -3.5605  0.2156  1.8115
  211MOL0     H28440   4.061  11.176   1.965 -1.9887 -0.0720  1.3767
  211MOL0     H28441   3.908  11.276   1.774 -3.1410  0.0211  0.9391
  211MOL0     H28442   3.954  11.435   1.833 -4.1883  0.3569 -1.7705
  211MOL0     H28443   3.866  11.396   2.056 -1.0833  1.0719  0.2526
  211MOL0     H28444   3.811  11.229   2.011 -2.9614  0.7053 -0.1873
  211MOL0     H28445   3.470  11.466   1.881  2.8235 -3.0147 -1.7537
  211MOL0     H28446   3.182  11.510   2.058 -1.6616 -0.5525  0.9750
  211MOL0     H28447   3.246  11.469   1.893 -3.1252 -1.2486 -0.7701
  211MOL0     H28448   3.159  11.357   1.990 -1.6843  2.3170  0.7882
  211MOL0     H28449   3.056  11.434   2.322  1.5271 -0.8104 -0.0566
  211MOL0     H28450   2.833  11.436   2.479  0.0247  0.5337  1.5864
  211MOL0     H28451   2.851  11.170   2.806 -0.1736 -0.0377 -0.5860
  211MOL0     H28452   2.862  11.310   2.897  1.3507 -2.8608  1.1334
  211MOL0     H28453   2.677  11.244   2.994 -3.6725  0.9501  0.9339
  211MOL0     H28454   2.604  11.359   2.885 -0.9207  0.2843  1.0406
  211MOL0     H28455   2.619  11.053   2.874 -1.0235  0.3960 -0.8245
  211MOL0     H28456   2.561  11.137   2.740 -0.6018  0.5215 -0.2948
  211MOL0     H28457   2.431  11.151   3.008 -0.4473  0.3339 -0.0673
  211MOL0     H28458   2.392  11.251   2.875  0.7411  0.3756  1.2828
  211MOL0     H28459   2.435  10.951   2.837  1.7826  0.9424 -2.1344
  211MOL0     H28460   2.327  11.052   2.738  5.3361 -2.5649 -2.2906
  211MOL0     H28461   2.266  10.884   2.966 -3.7805 -0.8862  1.5454
  211MOL0     H28462   2.255  11.045   3.030  1.6496 -0.5673 -0.0326
  211MOL0     H28463   2.101  10.898   2.799  0.5751  0.8046 -0.7368
  211MOL0     H28464   2.097  11.072   2.806 -0.4993 -0.0018 -0.3668
  211MOL0     H28465   1.920  11.012   2.917 -1.7802 -0.4900  4.8710
  211MOL0     H28466   2.035  11.041   3.050  2.6687  0.6198 -1.5349
  211MOL0     H28467   3.044  11.243   2.777  3.0908  1.2917  0.8608
  211MOL0     H28468   3.252  11.226   2.644  1.4921  2.7160  1.8373
  211MOL0     H28469   3.523  11.293   2.343 -1.2261 -0.3373  0.7222
  211MOL0     H28470   3.714  11.308   2.204 -1.2722  0.9971  2.9505
  211MOL0     H28471   5.710  11.111   1.879  0.5797 -0.1331  1.4543
  211MOL0     H28472   5.903  10.983   1.971  0.4834  1.5301 -1.8410
  211MOL0     H28473   6.052  10.477   1.984  0.4680  1.5045 -0.5607
  211MOL0     H28474   6.217  10.320   2.074  0.5236  1.2375 -1.1363
  211MOL0     H28475   6.436  10.475   2.443  1.8509 -0.3122 -0.2856
  211MOL0     H28476   6.298  10.387   2.505  1.2615 -0.4199  1.1018
  211MOL0     H28477   6.409  10.169   2.471  1.0800  0.0904 -1.3372
  211MOL0     H28478   6.508  10.255   2.596  0.9653  0.8810  0.2691
  211MOL0     H28479   6.658  10.354   2.417  3.3915 -2.4803  2.2401
  211MOL0     H28480   6.585  10.225   2.304 -1.8445 -1.2233  0.0515
  211MOL0     H28481   6.689  10.054   2.441 -1.6034  0.2265 -0.0688
  211MOL0     H28482   6.714  10.167   2.569 -0.3102 -0.1398 -0.2002
  211MOL0     H28483   7.048  10.246   2.308 -0.4000  1.3963  2.2643
  211MOL0     H28484   6.233  10.577   2.421  0.8545 -0.2470 -0.5939
  211MOL0     H28485   6.082  10.722   2.323 -1.6799 -1.5896  0.5242
  212MOL0     O28486   5.528  10.527   5.007 -0.0859  0.5869 -0.1557
  212MOL0     C28487   5.507  10.407   5.031 -1.0174 -0.1876  0.1904
  212MOL0     O28488   5.392  10.336   5.017  0.1511 -0.2053  0.0498
  212MOL0     C28489   5.288  10.385   4.944  0.1529 -0.0798 -0.2592
  212MOL0     C28490   5.167  10.325   4.966 -0.1055 -0.2884  0.2552
  212MOL0     C28491   5.056  10.360   4.896  0.0821  0.5033  0.0259
  212MOL0     C28492   5.061  10.468   4.809  0.2836 -0.1608  0.1014
  212MOL0     O28493   4.953  10.491   4.724  1.0010  0.2592 -0.0316
  212MOL0     C28494   4.935  10.604   4.651  0.0634 -0.3488 -0.9590
  212MOL0     C28495   4.789  10.608   4.611  0.0017  0.0911 -0.0080
  212MOL0     C28496   4.687  10.608   4.726  0.6412 -0.0190  1.2769
  212MOL0     C28497   4.537  10.570   4.672 -0.0831  0.3514 -1.0851
  212MOL0     C28498   4.426  10.580   4.781  0.7117 -0.1226  0.2150
  212MOL0     C28499   4.288  10.568   4.717  0.5342  0.2972  0.0536
  212MOL0     C28500   4.173  10.610   4.810  0.1012  0.3369 -0.0584
  212MOL0     C28501   4.030  10.578   4.763 -0.0768 -0.1805 -0.1399
  212MOL0     N28502   4.007  10.551   4.625 -0.3247  0.8151 -0.2124
  212MOL0     C28503   4.065  10.440   4.573  0.3208 -0.4410 -0.0768
  212MOL0     C28504   4.053  10.460   4.440  0.0066 -0.3801  0.2993
  212MOL0     C28505   4.097  10.371   4.326 -0.3872  0.1793  0.0470
  212MOL0     C28506   4.243  10.401   4.288 -0.1378 -0.2685  0.5485
  212MOL0     C28507   4.295  10.311   4.171 -0.0243  0.1151  0.0959
  212MOL0     C28508   4.446  10.298   4.161 -0.2701 -0.4363  0.7098
  212MOL0     O28509   4.505  10.228   4.274 -0.3430  0.1180  0.3216
  212MOL0     C28510   4.643  10.242   4.296  0.3269 -0.0811  1.8567
  212MOL0     C28511   4.738  10.286   4.195 -0.1493  0.3649  0.0192
  212MOL0     C28512   4.879  10.285   4.218 -0.6798  0.6173  0.1140
  212MOL0     C28513   4.957  10.312   4.099 -0.2124  0.5463 -0.6691
  212MOL0     C28514   4.924  10.266   4.349 -0.8274 -1.1993  0.1947
  212MOL0     C28515   5.074  10.259   4.387 -0.6523 -0.8258  0.0153
  212MOL0     O28516   5.109  10.283   4.519  0.0489  0.6125  0.4876
  212MOL0     C28517   5.235  10.248   4.563 -0.0719  0.1234  0.3616
  212MOL0     C28518   5.238  10.175   4.678  0.4296  0.2682  0.0959
  212MOL0     C28519   5.361  10.130   4.732 -0.1464 -0.5901  0.1472
  212MOL0     C28520   5.475  10.183   4.678  0.1390 -1.0526  0.5761
  212MOL0     O28521   5.587  10.145   4.739 -0.1193 -0.1667 -0.2234
  212MOL0     C28522   5.709  10.137   4.656  0.1470  0.0132  0.4331
  212MOL0     C28523   5.818  10.226   4.719 -0.2132  0.1953 -0.4948
  212MOL0     C28524   5.800  10.377   4.692  0.4080 -0.9502  0.4952
  212MOL0     C28525   5.904  10.447   4.791  0.4980 -0.2091  0.2804
  212MOL0     C28526   5.859  10.592   4.782 -0.3647 -0.5094  0.1883
  212MOL0     C28527   5.955  10.690   4.847  0.2456  0.4512 -0.0827
  212MOL0     C28528   6.099  10.694   4.816 -0.1323  0.6039  0.0413
  212MOL0     C28529   6.131  10.678   4.663  0.7957  0.4906  0.6579
  212MOL0    Cl28530   6.300  10.738   4.626 -0.3139 -0.3268 -0.2390
  212MOL0     C28531   5.470  10.263   4.561 -0.5779  0.3287 -0.5374
  212MOL0     C28532   5.352  10.297   4.499  0.2654  0.3310 -0.3437
  212MOL0     O28533   5.155  10.224   4.299  0.5105 -0.0073  0.6564
  212MOL0     C28534   4.830  10.244   4.448 -0.0983  0.5166 -0.3215
  212MOL0     C28535   4.692  10.232   4.426 -0.4629  0.3396 -0.8026
  212MOL0     N28536   3.990  10.577   4.423 -0.4139 -0.2334  0.5942
  212MOL0     N28537   3.957  10.640   4.534  1.5371  0.3577  0.1853
  212MOL0     C28538   5.184  10.534   4.781  0.1393 -0.1023 -0.1006
  212MOL0     C28539   5.301  10.488   4.836  0.2722  0.1361 -0.2205
  212MOL0     C28540   5.633  10.337   5.071 -0.0803 -0.3638  0.8289
  212MOL0     C28541   5.734  10.409   5.139  0.4109  0.6402 -0.5830
  212MOL0     C28542   5.851  10.340   5.183 -0.1469 -0.1793  0.0601
  212MOL0     C28543   5.870  10.205   5.154  0.1104 -0.1717  0.9294
  212MOL0     O28544   5.970  10.123   5.173 -0.4333  1.1367  0.2557
  212MOL0     C28545   6.071  10.170   5.260 -0.5949  0.3186  0.2803
  212MOL0     C28546   6.202  10.195   5.175  0.5984  0.5180  0.5185
  212MOL0     C28547   6.307  10.300   5.235  0.9236  0.1110  0.1330
  212MOL0     C28548   6.429  10.296   5.138  0.4773  0.1832 -0.1432
  212MOL0     C28549   6.505  10.422   5.164 -0.0185  0.5017 -0.1769
  212MOL0     C28550   6.555  10.531   5.184 -0.0341 -0.2417 -0.1928
  212MOL0     C28551   5.764  10.138   5.095 -0.6412 -0.4265  0.5915
  212MOL0     C28552   5.649  10.203   5.051  0.2310 -0.3095  0.2306
  212MOL0     H28553   5.157  10.253   5.047 -1.7801 -1.6748 -1.1351
  212MOL0     H28554   4.970  10.298   4.917 -0.3620  0.1157 -2.6587
  212MOL0     H28555   4.951  10.690   4.717 -1.0102  0.5023 -1.7731
  212MOL0     H28556   5.005  10.593   4.568  0.3637 -1.3512 -0.5887
  212MOL0     H28557   4.765  10.700   4.557 -0.5490  0.4709  0.8652
  212MOL0     H28558   4.770  10.525   4.543  2.2155 -0.4831 -0.0011
  212MOL0     H28559   4.722  10.539   4.804  3.0407  0.9267  1.1276
  212MOL0     H28560   4.671  10.707   4.771 -0.8969  0.0680  0.6013
  212MOL0     H28561   4.510  10.629   4.584 -0.6526  1.9098  0.0885
  212MOL0     H28562   4.542  10.465   4.642  1.0969  0.5722 -1.7198
  212MOL0     H28563   4.420  10.497   4.852 -3.6528 -0.4659 -0.2480
  212MOL0     H28564   4.433  10.681   4.822 -0.6487  0.8949 -1.8798
  212MOL0     H28565   4.284  10.644   4.639  2.1211  0.4778  0.1227
  212MOL0     H28566   4.290  10.468   4.673  0.4794  0.4580 -0.3200
  212MOL0     H28567   4.184  10.565   4.909  3.1291 -1.5127 -1.0878
  212MOL0     H28568   4.191  10.716   4.826  2.6920  0.3171 -2.0740
  212MOL0     H28569   3.969  10.662   4.797 -1.5149 -2.3263  3.1675
  212MOL0     H28570   3.983  10.500   4.825  0.1666  1.3658  2.1226
  212MOL0     H28571   4.108  10.353   4.621 -0.0658 -1.1345 -0.9448
  212MOL0     H28572   4.086  10.267   4.355 -0.5093 -0.8703 -3.3652
  212MOL0     H28573   4.036  10.396   4.239  0.7530  0.3836 -0.7228
  212MOL0     H28574   4.309  10.390   4.375 -1.4141  0.1498  1.6108
  212MOL0     H28575   4.245  10.501   4.244 -1.2919 -0.9664 -1.1674
  212MOL0     H28576   4.252  10.353   4.080  0.4248  0.5088  0.0638
  212MOL0     H28577   4.269  10.207   4.192  1.1055  0.2380  2.4127
  212MOL0     H28578   4.486  10.398   4.147  2.3007 -1.2060  2.0520
  212MOL0     H28579   4.463  10.233   4.074 -0.8344 -3.2838  2.5990
  212MOL0     H28580   4.701  10.306   4.095 -2.0400 -0.6384  0.4639
  212MOL0     H28581   5.045  10.374   4.118 -0.9378  1.4574 -0.1873
  212MOL0     H28582   4.985  10.214   4.060  1.4421  1.1265 -1.0451
  212MOL0     H28583   4.896  10.365   4.026 -0.6725  0.5510 -0.2856
  212MOL0     H28584   5.149  10.140   4.730  1.4329 -0.2458  1.5472
  212MOL0     H28585   5.362  10.077   4.826 -4.4202  1.0355  1.3656
  212MOL0     H28586   5.739  10.032   4.670 -0.5285 -0.3862 -0.9000
  212MOL0     H28587   5.694  10.151   4.549 -3.1488  0.0054  0.7782
  212MOL0     H28588   5.827  10.198   4.825  2.2897  0.9297 -0.4408
  212MOL0     H28589   5.918  10.200   4.684 -0.3967 -1.0810 -0.1003
  212MOL0     H28590   5.695  10.400   4.712 -0.1628 -1.3287 -1.7801
  212MOL0     H28591   5.820  10.407   4.589 -3.2570  0.2823  0.0224
  212MOL0     H28592   5.897  10.417   4.896  0.6857  0.0257  0.3602
  212MOL0     H28593   6.008  10.430   4.764  0.8038 -3.4655  2.8800
  212MOL0     H28594   5.760  10.602   4.826 -0.1041  0.5051  0.5592
  212MOL0     H28595   5.862  10.625   4.678  3.9533  1.9494  0.8478
  212MOL0     H28596   5.921  10.789   4.813  0.8125  1.1121  1.1954
  212MOL0     H28597   5.946  10.681   4.956  3.3404  3.7354  0.6502
  212MOL0     H28598   6.143  10.618   4.881  0.3524  0.7193 -0.1428
  212MOL0     H28599   6.139  10.788   4.855 -0.9598 -0.2971  3.3877
  212MOL0     H28600   6.060  10.725   4.595  1.3686 -0.7164 -0.8245
  212MOL0     H28601   6.129  10.572   4.636 -1.9211  1.3381 -3.2478
  212MOL0     H28602   5.563  10.306   4.524 -0.0742 -0.1913  0.1002
  212MOL0     H28603   5.349  10.343   4.400  0.7168  0.7187 -0.1784
  212MOL0     H28604   4.864  10.231   4.550 -1.7733 -0.4713  0.1556
  212MOL0     H28605   4.624  10.220   4.510 -0.2290 -1.9408 -0.8821
  212MOL0     H28606   5.176  10.611   4.705  0.7226  0.4352  0.3695
  212MOL0     H28607   5.394  10.536   4.806  0.0903  1.4304  1.1258
  212MOL0     H28608   5.735  10.515   5.162  0.6157  0.3222  0.9270
  212MOL0     H28609   5.925  10.398   5.237  1.2124 -0.0150 -1.9042
  212MOL0     H28610   6.043  10.260   5.315 -1.0772  0.5229 -0.3003
  212MOL0     H28611   6.092  10.101   5.343  1.7832 -0.8462 -1.1507
  212MOL0     H28612   6.168  10.243   5.083  2.8838  2.3569  0.5715
  212MOL0     H28613   6.251  10.099   5.155 -1.1434 -0.3108 -0.0501
  212MOL0     H28614   6.343  10.277   5.336 -0.0888  0.6323  0.6270
  212MOL0     H28615   6.244  10.388   5.248  1.7794  0.4326  2.4097
  212MOL0     H28616   6.396  10.295   5.033  0.0653 -1.4684 -0.0274
  212MOL0     H28617   6.489  10.205   5.146  0.4568 -0.0028 -1.6959
  212MOL0     H28618   6.608  10.622   5.205 -0.0157 -0.6743  1.8888
  212MOL0     H28619   5.772  10.030   5.088  1.7656 -0.3015  0.6354
  212MOL0     H28620   5.563  10.149   5.014 -1.1801 -0.0679  2.9114
  213MOL0     O28621   6.201   4.227   9.397  0.0108 -0.3646  0.4822
  213MOL0     C28622   6.180   4.247   9.516  0.3541  0.0929  0.7398
  213MOL0     O28623   6.270   4.258   9.615  0.0619  0.7431  0.7192
  213MOL0     C28624   6.398   4.222   9.587  0.9469  1.1472  0.1795
  213MOL0     C28625   6.431   4.090   9.545 -0.3110 -0.2618 -0.0497
  213MOL0     C28626   6.561   4.051   9.518 -0.5195 -0.7905  0.7104
  213MOL0     C28627   6.665   4.147   9.520  1.1846 -0.5206  0.4935
  213MOL0     O28628   6.799   4.141   9.489 -0.4254 -0.2822  0.9278
  213MOL0     C28629   6.873   4.018   9.523  0.1998 -0.8621 -0.3948
  213MOL0     C28630   6.873   3.920   9.412 -0.9047 -0.8237  0.5462
  213MOL0     C28631   6.986   3.823   9.420 -0.7557  0.3185  0.2099
  213MOL0     C28632   7.116   3.889   9.384  0.1531 -0.7909 -0.2518
  213MOL0     C28633   7.231   3.789   9.356  0.1452  0.6230  0.5102
  213MOL0     C28634   7.358   3.881   9.343 -0.1113 -0.2576 -0.7250
  213MOL0     C28635   7.482   3.787   9.323 -0.1559  0.2413  0.7467
  213MOL0     C28636   7.614   3.865   9.331  0.6799  0.2510  0.3432
  213MOL0     N28637   7.632   3.907   9.465  0.7074  0.3926 -0.0208
  213MOL0     C28638   7.660   3.841   9.575 -0.2449 -0.0609  0.1530
  213MOL0     C28639   7.681   3.929   9.679 -1.0827 -0.3689 -0.5085
  213MOL0     C28640   7.694   3.892   9.825  0.3196  0.1591 -0.2245
  213MOL0     C28641   7.603   3.979   9.916  0.2746 -0.8491 -0.4067
  213MOL0     C28642   7.647   3.960  10.063  0.1538 -1.1187  0.9183
  213MOL0     C28643   7.570   4.063  10.151 -0.0233  0.5014 -0.4118
  213MOL0     O28644   7.426   4.045  10.145 -0.6390  0.2111 -0.1320
  213MOL0     C28645   7.345   4.143  10.195  0.4478  0.3393  0.3257
  213MOL0     C28646   7.377   4.241  10.288 -0.4423 -0.0436  0.1767
  213MOL0     C28647   7.282   4.326  10.346  0.0083 -0.5820 -0.1084
  213MOL0     C28648   7.330   4.437  10.431 -1.2821  0.0880  0.5190
  213MOL0     C28649   7.145   4.313  10.317 -0.7890  0.6880 -0.3454
  213MOL0     C28650   7.041   4.414  10.369 -0.8030 -0.3207  0.4740
  213MOL0     O28651   6.924   4.408  10.302 -0.3767 -0.6974 -0.1778
  213MOL0     C28652   6.819   4.484  10.347 -0.3151 -0.1964  0.2192
  213MOL0     C28653   6.790   4.614  10.293 -0.0860  1.0357  0.0432
  213MOL0     C28654   6.663   4.670  10.331  0.1711  0.3210 -0.2651
  213MOL0     C28655   6.582   4.600  10.423  1.0064 -0.5307 -0.9799
  213MOL0     O28656   6.454   4.646  10.456  0.4866  0.5481 -0.6637
  213MOL0     C28657   6.419   4.784  10.429  0.2153  0.7132 -0.8981
  213MOL0     C28658   6.321   4.829  10.530  0.0851  0.1541 -0.0592
  213MOL0     C28659   6.291   4.976  10.513  0.2053 -0.1307  1.2713
  213MOL0     C28660   6.210   5.017  10.633 -0.4678 -0.0005 -0.1668
  213MOL0     C28661   6.183   5.169  10.634  0.2209  0.7883 -0.5516
  213MOL0     C28662   6.308   5.249  10.685 -0.3487 -0.7648  0.6923
  213MOL0     C28663   6.287   5.408  10.709 -1.1673  0.0735 -0.3349
  213MOL0     C28664   6.228   5.473  10.586  0.3542 -0.4478 -0.5596
  213MOL0    Cl28665   6.240   5.661  10.599 -0.1138 -0.1684  0.1164
  213MOL0     C28666   6.632   4.487  10.488 -0.4925  0.3428 -0.1531
  213MOL0     C28667   6.748   4.421  10.449 -0.2841 -0.7551  0.1730
  213MOL0     O28668   7.065   4.487  10.460 -0.7129  0.1713  0.4030
  213MOL0     C28669   7.115   4.219  10.212  0.2401  0.9457 -0.2077
  213MOL0     C28670   7.211   4.138  10.147 -0.2315 -0.4549 -0.9078
  213MOL0     N28671   7.658   4.058   9.634 -0.3252  0.5723 -0.1557
  213MOL0     N28672   7.634   4.043   9.509  0.5788  0.0307  1.1543
  213MOL0     C28673   6.632   4.273   9.574  0.7152 -0.0987  0.6370
  213MOL0     C28674   6.505   4.309   9.610  0.7166 -0.3274  0.6025
  213MOL0     C28675   6.047   4.303   9.538 -0.1564  0.0521 -0.0693
  213MOL0     C28676   5.972   4.351   9.425  0.0844 -0.1811  0.4089
  213MOL0     C28677   5.853   4.419   9.450 -0.3481 -0.4406 -0.3326
  213MOL0     C28678   5.798   4.424   9.579  0.3757  0.4715  1.5764
  213MOL0     O28679   5.670   4.479   9.615  0.0565  0.1222 -0.2995
  213MOL0     C28680   5.601   4.553   9.510  0.6084 -0.0645  0.1986
  213MOL0     C28681   5.475   4.621   9.565 -0.5285  0.1219 -0.4793
  213MOL0     C28682   5.496   4.724   9.676 -0.6195  0.8218 -0.3784
  213MOL0     C28683   5.429   4.861   9.651  0.4519  0.0309 -0.2761
  213MOL0     C28684   5.280   4.861   9.630 -0.9961 -0.2606 -0.4232
  213MOL0     C28685   5.168   4.832   9.601  0.3348 -0.7322 -0.1745
  213MOL0     C28686   5.875   4.383   9.688  0.3840  0.2499  0.4382
  213MOL0     C28687   5.993   4.312   9.670 -0.1203  0.4450 -0.7774
  213MOL0     H28688   6.351   4.018   9.531 -0.5861  0.2284 -1.1434
  213MOL0     H28689   6.581   3.950   9.481  0.6226  0.5571 -2.7640
  213MOL0     H28690   6.975   4.052   9.548  0.1133  0.2073 -1.3967
  213MOL0     H28691   6.837   3.966   9.612  0.6600 -0.0306  0.3058
  213MOL0     H28692   6.783   3.859   9.409 -0.4135 -1.5542  0.4299
  213MOL0     H28693   6.880   3.981   9.321  0.4752 -0.2027  1.0390
  213MOL0     H28694   6.994   3.774   9.517  0.6438  3.7421  1.9736
  213MOL0     H28695   6.967   3.739   9.352 -0.4274 -0.5391  1.1709
  213MOL0     H28696   7.107   3.954   9.297 -0.9024  0.7953  0.9770
  213MOL0     H28697   7.157   3.946   9.468 -1.9547 -0.3787  0.5596
  213MOL0     H28698   7.246   3.711   9.432  4.2377 -2.1792 -2.7413
  213MOL0     H28699   7.224   3.731   9.263  2.7127 -1.4184  1.4676
  213MOL0     H28700   7.355   3.936   9.248  1.2592  2.7765  0.8428
  213MOL0     H28701   7.370   3.949   9.428 -2.8089 -1.3922  0.6818
  213MOL0     H28702   7.483   3.714   9.404  1.1504  0.7260  1.2020
  213MOL0     H28703   7.473   3.732   9.229  3.0267  0.7509  0.0117
  213MOL0     H28704   7.624   3.944   9.256 -1.8243 -0.8389 -1.2502
  213MOL0     H28705   7.694   3.792   9.315  0.4910 -0.1171  1.0279
  213MOL0     H28706   7.662   3.734   9.590 -0.2076 -0.0009  0.5964
  213MOL0     H28707   7.671   3.786   9.837 -3.2893  0.5007 -2.4879
  213MOL0     H28708   7.798   3.905   9.856 -0.1104 -2.5339  2.7876
  213MOL0     H28709   7.494   3.965   9.918  0.2276 -0.4394  0.8185
  213MOL0     H28710   7.621   4.083   9.885 -0.6925 -0.8939 -1.1764
  213MOL0     H28711   7.755   3.963  10.079  0.6353  0.2077 -1.9095
  213MOL0     H28712   7.614   3.860  10.091 -2.2639 -0.9907 -1.0920
  213MOL0     H28713   7.592   4.166  10.121  0.7477  0.0799 -1.3649
  213MOL0     H28714   7.605   4.054  10.254  1.4321  0.2309 -0.9100
  213MOL0     H28715   7.479   4.244  10.326 -0.7421 -2.7389  1.3465
  213MOL0     H28716   7.287   4.535  10.408 -0.5904  0.2468 -0.1504
  213MOL0     H28717   7.312   4.412  10.536 -4.0854 -0.6057 -0.0617
  213MOL0     H28718   7.438   4.452  10.418 -1.4377 -0.8361 -3.0394
  213MOL0     H28719   6.842   4.663  10.212  0.4349 -2.4135 -1.8901
  213MOL0     H28720   6.641   4.759  10.272 -0.0818 -1.1405 -2.4977
  213MOL0     H28721   6.507   4.848  10.430  0.5901  0.2339 -2.2152
  213MOL0     H28722   6.375   4.793  10.329  0.1737  0.3345 -0.9183
  213MOL0     H28723   6.231   4.775  10.499 -1.0908  1.9104  0.1290
  213MOL0     H28724   6.345   4.799  10.632 -0.9216  1.2138  0.5165
  213MOL0     H28725   6.231   5.003  10.427 -0.6503 -1.3663  1.4483
  213MOL0     H28726   6.386   5.031  10.510  0.5773 -0.8024  0.2811
  213MOL0     H28727   6.115   4.964  10.638  0.7169 -2.2884 -0.5892
  213MOL0     H28728   6.273   4.995  10.719  0.6691  2.2405 -0.3576
  213MOL0     H28729   6.108   5.194  10.709 -0.9811  1.7021 -2.0052
  213MOL0     H28730   6.140   5.201  10.539 -0.1432 -0.1876 -0.7301
  213MOL0     H28731   6.333   5.200  10.780 -0.8250 -0.5167  0.9533
  213MOL0     H28732   6.392   5.241  10.616  0.6131  0.6761  1.6558
  213MOL0     H28733   6.380   5.460  10.735  0.4156 -1.1332 -3.1582
  213MOL0     H28734   6.217   5.434  10.788 -0.7024  1.6492 -0.4190
  213MOL0     H28735   6.124   5.445  10.567  0.8013 -2.2938 -0.4887
  213MOL0     H28736   6.293   5.449  10.501  0.1712  0.9449 -1.1229
  213MOL0     H28737   6.568   4.441  10.562  3.0588 -1.9788  1.7399
  213MOL0     H28738   6.780   4.333  10.504  1.1706  1.5574  3.2636
  213MOL0     H28739   7.016   4.207  10.169  0.0006 -1.0803  0.7792
  213MOL0     H28740   7.177   4.063  10.075  4.0283 -3.3073 -0.2993
  213MOL0     H28741   6.708   4.349   9.590  2.5855 -1.5495 -0.8110
  213MOL0     H28742   6.497   4.410   9.648  1.3826  0.1659 -0.5397
  213MOL0     H28743   6.001   4.352   9.321  1.5433  1.6873  0.8001
  213MOL0     H28744   5.790   4.467   9.375  1.3540  3.3898  0.4558
  213MOL0     H28745   5.667   4.633   9.475  0.0728  0.3766  0.1822
  213MOL0     H28746   5.571   4.490   9.425 -2.4850  1.2046  0.2093
  213MOL0     H28747   5.410   4.542   9.601  0.4441 -1.4008 -1.9342
  213MOL0     H28748   5.430   4.667   9.477 -0.4862  2.5783  0.6944
  213MOL0     H28749   5.601   4.749   9.692 -0.6127  1.2171 -0.9973
  213MOL0     H28750   5.445   4.690   9.767 -1.1595  0.6481 -0.7382
  213MOL0     H28751   5.475   4.910   9.564 -1.8182 -1.3907 -2.4056
  213MOL0     H28752   5.446   4.936   9.728 -2.2524  0.7333 -0.2586
  213MOL0     H28753   5.072   4.806   9.562  0.9126 -0.2972 -1.9650
  213MOL0     H28754   5.837   4.382   9.789 -1.9152 -1.6311 -0.3584
  213MOL0     H28755   6.041   4.267   9.756 -0.4244 -0.3624 -1.0214
  214MOL0     O28756   4.790   2.531   6.047 -0.3144  0.6032 -0.2230
  214MOL0     C28757   4.731   2.594   6.137 -0.3802 -0.8317 -0.4827
  214MOL0     O28758   4.614   2.571   6.188  0.3135  0.2380 -0.4995
  214MOL0     C28759   4.546   2.477   6.125  0.1798  0.1640  1.0687
  214MOL0     C28760   4.562   2.345   6.164 -0.6605  0.3716  0.3773
  214MOL0     C28761   4.475   2.249   6.114  0.7440  0.6303  0.0850
  214MOL0     C28762   4.372   2.282   6.023 -0.4342 -0.6804  0.2177
  214MOL0     O28763   4.290   2.193   5.959  0.5394 -0.4162  0.6920
  214MOL0     C28764   4.310   2.051   5.971  0.2739 -0.4617 -0.3774
  214MOL0     C28765   4.176   1.987   5.947  0.3297 -0.1578  0.2314
  214MOL0     C28766   4.143   1.981   5.799 -0.0641 -0.0965  0.1645
  214MOL0     C28767   3.996   1.984   5.769  0.2164 -0.8555  0.4587
  214MOL0     C28768   3.949   1.946   5.616 -0.6735 -0.2720 -1.2210
  214MOL0     C28769   3.987   2.059   5.530  0.2207 -0.7998  0.4281
  214MOL0     C28770   3.917   2.202   5.562 -0.0291  1.1411  0.3914
  214MOL0     C28771   3.768   2.200   5.515  0.8247 -0.4397  0.3710
  214MOL0     N28772   3.714   2.332   5.546  0.7666 -0.1761 -0.1905
  214MOL0     C28773   3.658   2.365   5.661  0.4755 -0.9670 -0.0171
  214MOL0     C28774   3.598   2.484   5.630 -1.3759  0.8253 -0.3683
  214MOL0     C28775   3.544   2.580   5.736  0.4843 -0.3966  0.2833
  214MOL0     C28776   3.390   2.589   5.725 -0.6576  0.4901 -1.1608
  214MOL0     C28777   3.328   2.469   5.805 -0.6830 -1.0288 -0.3570
  214MOL0     C28778   3.175   2.478   5.813  0.5149  0.5213  0.8573
  214MOL0     O28779   3.134   2.355   5.879  0.4248 -0.3403  0.0121
  214MOL0     C28780   2.998   2.317   5.862 -0.2058  0.0664 -0.1995
  214MOL0     C28781   2.891   2.403   5.847  0.9552  0.9013  0.3526
  214MOL0     C28782   2.758   2.350   5.832 -0.6633  1.0930  0.3943
  214MOL0     C28783   2.651   2.449   5.809  0.0921  0.9300  0.2312
  214MOL0     C28784   2.736   2.210   5.842 -0.0314 -0.4247  0.2153
  214MOL0     C28785   2.603   2.147   5.829 -0.3708  0.5479 -0.5849
  214MOL0     O28786   2.490   2.220   5.859 -0.1172  0.1407  0.1759
  214MOL0     C28787   2.364   2.178   5.830 -1.0104  0.3621 -0.2683
  214MOL0     C28788   2.327   2.075   5.745  0.2965  0.2405 -0.2316
  214MOL0     C28789   2.193   2.046   5.714 -0.1613  0.4416 -0.6715
  214MOL0     C28790   2.089   2.117   5.769 -0.0669  0.5212 -0.0004
  214MOL0     O28791   1.957   2.094   5.745  0.0826  0.5797 -0.7900
  214MOL0     C28792   1.931   1.998   5.641 -0.2721 -0.2851 -0.2030
  214MOL0     C28793   1.781   1.999   5.611  0.0671  0.8435 -0.1857
  214MOL0     C28794   1.744   1.895   5.501  1.1528  0.0656  0.0687
  214MOL0     C28795   1.595   1.919   5.476  0.2177  0.1469 -0.3747
  214MOL0     C28796   1.536   1.795   5.403  0.6887 -0.1211 -0.0330
  214MOL0     C28797   1.377   1.804   5.405 -0.0761 -0.1992  0.2976
  214MOL0     C28798   1.309   1.838   5.528 -0.8972 -0.2239 -1.0598
  214MOL0     C28799   1.156   1.830   5.518  0.6531 -0.1544 -0.5199
  214MOL0    Cl28800   1.097   1.969   5.409 -0.1685  0.0278  0.2493
  214MOL0     C28801   2.121   2.221   5.853  0.2670 -0.4561 -0.6174
  214MOL0     C28802   2.256   2.245   5.889 -0.2651 -0.5281  0.1551
  214MOL0     O28803   2.605   2.023   5.816  0.0109  0.2033 -0.1389
  214MOL0     C28804   2.851   2.127   5.863 -0.0025 -0.3093 -0.5359
  214MOL0     C28805   2.982   2.176   5.862 -0.4022  0.1211 -0.8560
  214MOL0     N28806   3.637   2.527   5.499  0.1438 -0.0623 -0.1972
  214MOL0     N28807   3.698   2.425   5.456 -0.1769 -0.2697  0.2895
  214MOL0     C28808   4.358   2.416   5.988  0.0697  0.3246 -1.1723
  214MOL0     C28809   4.436   2.515   6.040 -0.6993 -0.4138  0.1106
  214MOL0     C28810   4.812   2.707   6.191  0.0797  0.2392 -0.5554
  214MOL0     C28811   4.917   2.762   6.120  0.2240  0.3185 -0.9884
  214MOL0     C28812   4.987   2.864   6.183 -0.5813  0.8069 -0.4394
  214MOL0     C28813   4.960   2.913   6.316  1.1419 -0.1533 -0.9403
  214MOL0     O28814   5.050   2.998   6.370 -0.0648  0.0612 -0.8426
  214MOL0     C28815   5.053   3.035   6.508 -0.3799 -0.1338 -0.3546
  214MOL0     C28816   5.118   2.917   6.591  0.6358 -0.2255  0.1719
  214MOL0     C28817   5.137   2.964   6.737 -0.3445 -0.2533  0.1290
  214MOL0     C28818   5.289   2.976   6.767 -0.1867  0.1305 -0.2362
  214MOL0     C28819   5.338   3.116   6.741  0.4834 -0.1393 -0.0182
  214MOL0     C28820   5.390   3.222   6.714 -0.0633  0.8937 -0.3012
  214MOL0     C28821   4.845   2.862   6.381 -0.1587  0.6431 -0.4512
  214MOL0     C28822   4.768   2.765   6.312 -0.3797  0.1278 -0.6527
  214MOL0     H28823   4.645   2.321   6.231 -0.4368 -0.3008 -0.1250
  214MOL0     H28824   4.501   2.148   6.143  2.4497  1.1360  0.4143
  214MOL0     H28825   4.384   2.011   5.901 -0.4441 -2.3090 -0.1413
  214MOL0     H28826   4.337   2.026   6.074  0.0126 -0.0310 -0.2061
  214MOL0     H28827   4.166   1.885   5.985  1.4367 -1.1500 -1.9613
  214MOL0     H28828   4.103   2.049   6.000  0.7953 -0.6301  1.4606
  214MOL0     H28829   4.184   2.060   5.735 -0.8406 -0.5851 -0.9824
  214MOL0     H28830   4.189   1.890   5.759 -1.5769 -1.7194  1.9416
  214MOL0     H28831   3.941   1.917   5.835 -1.3063 -0.6305 -0.5312
  214MOL0     H28832   3.962   2.081   5.808  0.7476 -1.5601  2.8643
  214MOL0     H28833   4.010   1.859   5.591  0.1242 -0.1401  0.1769
  214MOL0     H28834   3.843   1.918   5.619 -1.3049  1.5502  3.9192
  214MOL0     H28835   4.095   2.077   5.539 -0.1741  1.2933  1.5873
  214MOL0     H28836   3.976   2.037   5.423 -2.5773 -2.3001  0.9267
  214MOL0     H28837   3.927   2.236   5.666 -1.6093 -1.0252  1.3315
  214MOL0     H28838   3.965   2.282   5.505 -0.0056 -0.6850 -2.3774
  214MOL0     H28839   3.717   2.131   5.583 -0.0954  2.4657  2.8572
  214MOL0     H28840   3.763   2.183   5.407  0.0317 -0.9903  0.4843
  214MOL0     H28841   3.667   2.307   5.753 -0.1591 -0.1367  0.5954
  214MOL0     H28842   3.565   2.554   5.840  1.3324 -1.9376 -0.2333
  214MOL0     H28843   3.586   2.678   5.713 -1.5386  1.0168  2.1995
  214MOL0     H28844   3.358   2.580   5.621 -0.4580  0.5185 -1.2255
  214MOL0     H28845   3.364   2.689   5.762  1.0641  1.1186 -1.5582
  214MOL0     H28846   3.377   2.458   5.902  1.1482  0.9784 -0.9711
  214MOL0     H28847   3.346   2.376   5.749  1.4827 -2.4325  2.4152
  214MOL0     H28848   3.152   2.477   5.706  1.8845 -0.5366  0.5365
  214MOL0     H28849   3.138   2.567   5.865 -0.5627  1.0194 -0.6860
  214MOL0     H28850   2.908   2.509   5.860  1.4897  0.7490  0.9370
  214MOL0     H28851   2.594   2.432   5.718 -1.9301  1.2287  1.3904
  214MOL0     H28852   2.584   2.449   5.896  1.1054 -0.6672  1.0630
  214MOL0     H28853   2.693   2.551   5.803 -0.9375  1.3130 -0.6462
  214MOL0     H28854   2.403   2.017   5.693  1.1662 -2.3755  3.5560
  214MOL0     H28855   2.178   1.961   5.647  0.3419 -0.8199  0.7744
  214MOL0     H28856   1.985   2.015   5.547  1.6893  0.6664  1.0348
  214MOL0     H28857   1.957   1.897   5.674 -0.0184 -0.6011 -1.3207
  214MOL0     H28858   1.723   1.964   5.697  0.1939  0.5521 -0.2156
  214MOL0     H28859   1.745   2.100   5.589 -2.3675 -0.0184 -0.4233
  214MOL0     H28860   1.760   1.791   5.529 -0.6468  0.3926  2.6740
  214MOL0     H28861   1.791   1.909   5.403 -0.8015 -1.5733 -1.1699
  214MOL0     H28862   1.554   1.920   5.578 -1.2873 -0.3993 -0.9413
  214MOL0     H28863   1.570   2.010   5.421 -0.2559  0.4444  0.3204
  214MOL0     H28864   1.559   1.700   5.452  0.8924 -0.5300 -0.9027
  214MOL0     H28865   1.580   1.798   5.303  1.3681  4.0693  0.1820
  214MOL0     H28866   1.353   1.884   5.334 -1.4541 -0.2073  0.7246
  214MOL0     H28867   1.337   1.709   5.367 -1.1727 -0.4718  2.0322
  214MOL0     H28868   1.340   1.937   5.565 -1.9680 -0.6194  1.0292
  214MOL0     H28869   1.336   1.773   5.612 -0.8684  0.7494 -0.2977
  214MOL0     H28870   1.116   1.843   5.619  0.4677  0.5467 -0.6748
  214MOL0     H28871   1.114   1.742   5.469  1.4355  0.0137 -1.5331
  214MOL0     H28872   2.046   2.285   5.898 -0.8646 -0.4362 -2.4397
  214MOL0     H28873   2.267   2.315   5.971  0.3670 -1.8325  1.2140
  214MOL0     H28874   2.841   2.019   5.877 -0.8026 -0.3360 -1.2046
  214MOL0     H28875   3.067   2.110   5.875  0.0442  1.0271  1.2897
  214MOL0     H28876   4.274   2.434   5.922 -0.6400 -2.8175 -1.2668
  214MOL0     H28877   4.435   2.622   6.023  0.3563  0.1516  2.9501
  214MOL0     H28878   4.963   2.702   6.043  1.0676 -1.4524  0.8096
  214MOL0     H28879   5.080   2.902   6.140  0.5114  1.4506  2.3027
  214MOL0     H28880   5.109   3.129   6.504  0.4999 -0.6799 -1.7184
  214MOL0     H28881   4.958   3.060   6.556 -0.2914 -0.4459 -0.0204
  214MOL0     H28882   5.215   2.901   6.543  3.0912  0.3401  4.4695
  214MOL0     H28883   5.052   2.830   6.588  1.4354 -0.8668 -3.1037
  214MOL0     H28884   5.105   2.884   6.806  0.8669  0.4258  1.5240
  214MOL0     H28885   5.077   3.052   6.763  3.5522  1.5487  4.3298
  214MOL0     H28886   5.359   2.906   6.723 -1.1012 -1.4623  0.7400
  214MOL0     H28887   5.293   2.954   6.874 -0.8030  0.2503 -0.1811
  214MOL0     H28888   5.424   3.317   6.678  0.4687  1.1281  0.7571
  214MOL0     H28889   4.828   2.891   6.485  0.8595  0.0256 -0.0978
  214MOL0     H28890   4.681   2.727   6.366 -0.3754  1.9745  0.7690
  215MOL0     O28891   7.692   8.641   5.980  0.0854  0.4081  0.9580
  215MOL0     C28892   7.715   8.590   5.870 -0.0358 -0.0975  0.7433
  215MOL0     O28893   7.627   8.519   5.786  0.6694 -0.0443 -0.0984
  215MOL0     C28894   7.492   8.490   5.812  0.2481  0.5609  0.4864
  215MOL0     C28895   7.450   8.360   5.761  0.5135 -1.0559 -0.9694
  215MOL0     C28896   7.317   8.319   5.784  0.4255  0.1169  0.6797
  215MOL0     C28897   7.232   8.400   5.855 -0.7289  0.6731  0.4966
  215MOL0     O28898   7.107   8.356   5.881 -0.9732 -0.3894  0.2263
  215MOL0     C28899   7.025   8.341   5.766 -0.5347 -0.6258  0.3372
  215MOL0     C28900   6.889   8.397   5.791  0.1899 -1.1037  0.3803
  215MOL0     C28901   6.788   8.338   5.698 -0.1198 -0.1896  0.4764
  215MOL0     C28902   6.646   8.385   5.718  0.1702  1.0812 -0.7688
  215MOL0     C28903   6.549   8.308   5.633 -0.0799  0.4411  0.1995
  215MOL0     C28904   6.552   8.375   5.495 -0.0938  0.8886 -0.2464
  215MOL0     C28905   6.450   8.490   5.481 -0.0615  0.4421 -0.2746
  215MOL0     C28906   6.432   8.520   5.331  0.4837 -0.0990 -0.1698
  215MOL0     N28907   6.349   8.646   5.311  0.2611  0.9867  0.1643
  215MOL0     C28908   6.216   8.653   5.301  1.2652 -0.1204 -0.8457
  215MOL0     C28909   6.187   8.782   5.317 -0.4202  0.3718 -0.8554
  215MOL0     C28910   6.058   8.820   5.376  0.2808 -0.5796  0.6383
  215MOL0     C28911   5.949   8.820   5.267 -0.2744 -0.2981 -1.2004
  215MOL0     C28912   5.919   8.971   5.241  0.2304  0.4821  0.4236
  215MOL0     C28913   5.784   8.988   5.165  0.3094  0.2209  0.4922
  215MOL0     O28914   5.740   9.125   5.178  0.7715 -0.3343 -0.5331
  215MOL0     C28915   5.649   9.165   5.089  0.4173 -0.5940  0.8526
  215MOL0     C28916   5.519   9.194   5.137 -0.2481  0.6883 -0.2947
  215MOL0     C28917   5.415   9.242   5.056 -0.2850 -0.4440 -0.5617
  215MOL0     C28918   5.285   9.270   5.131  0.1610 -0.9668  0.5092
  215MOL0     C28919   5.446   9.264   4.920  0.4893 -0.7399 -0.5412
  215MOL0     C28920   5.336   9.297   4.826 -0.6339  0.2317  0.0885
  215MOL0     O28921   5.214   9.238   4.855  0.2627  0.0214 -0.6022
  215MOL0     C28922   5.109   9.295   4.785  0.2231 -0.2833 -0.4049
  215MOL0     C28923   5.028   9.390   4.847 -0.2578  0.2892  0.2827
  215MOL0     C28924   4.920   9.450   4.786  0.1000  0.5487  0.6895
  215MOL0     C28925   4.891   9.420   4.651  0.4777 -0.5442 -0.5292
  215MOL0     O28926   4.777   9.469   4.585 -0.5262 -0.2990  0.4609
  215MOL0     C28927   4.672   9.508   4.668  0.2360 -0.0188  0.2465
  215MOL0     C28928   4.562   9.543   4.575 -0.2406 -0.0844 -0.2096
  215MOL0     C28929   4.427   9.526   4.663  0.6558  0.5753  0.7657
  215MOL0     C28930   4.310   9.605   4.599  1.2318  0.2341  0.4844
  215MOL0     C28931   4.172   9.592   4.667  0.1422 -0.4153 -0.2300
  215MOL0     C28932   4.188   9.577   4.815  0.1839  0.7212  0.4540
  215MOL0     C28933   4.048   9.596   4.881 -0.2480  0.5765 -0.1614
  215MOL0     C28934   4.023   9.739   4.921  0.1165  0.4401 -0.3477
  215MOL0    Cl28935   4.141   9.786   5.048 -0.1470  0.0240 -0.1501
  215MOL0     C28936   4.972   9.332   4.581  0.0576  0.3008 -0.3356
  215MOL0     C28937   5.084   9.269   4.649 -0.2559  0.4539 -0.1343
  215MOL0     O28938   5.354   9.388   4.742  1.1020  0.9891 -0.7271
  215MOL0     C28939   5.580   9.235   4.871 -0.4857  0.0340 -0.0103
  215MOL0     C28940   5.680   9.192   4.952 -0.0479 -0.2244 -0.3996
  215MOL0     N28941   6.306   8.851   5.317 -0.0000 -0.3807  0.8437
  215MOL0     N28942   6.399   8.765   5.326  0.3638 -0.4805 -0.0603
  215MOL0     C28943   7.279   8.518   5.920 -0.5307 -0.5407  0.3738
  215MOL0     C28944   7.413   8.563   5.896 -0.4631  0.5341 -0.4416
  215MOL0     C28945   7.856   8.597   5.813  0.1208  0.9039  0.0530
  215MOL0     C28946   7.873   8.552   5.677 -0.4674  1.1912 -0.7407
  215MOL0     C28947   8.004   8.537   5.622 -0.0317 -0.5288 -0.1360
  215MOL0     C28948   8.118   8.569   5.701  0.2696 -0.2673  0.1845
  215MOL0     O28949   8.245   8.573   5.646  0.2850  0.3629  0.4742
  215MOL0     C28950   8.263   8.482   5.527 -0.1290 -0.0063  0.4870
  215MOL0     C28951   8.418   8.442   5.509  0.4829  0.1548 -0.1772
  215MOL0     C28952   8.471   8.363   5.625 -0.2468 -0.2085  0.0329
  215MOL0     C28953   8.627   8.348   5.610  0.5310 -0.6015 -1.1648
  215MOL0     C28954   8.688   8.254   5.709  0.0329  0.6814  0.0128
  215MOL0     C28955   8.752   8.184   5.789 -0.8487 -0.9119  0.3714
  215MOL0     C28956   8.106   8.611   5.834  1.4213 -0.1495  0.3039
  215MOL0     C28957   7.972   8.625   5.888 -0.0092 -0.6409 -0.0591
  215MOL0     H28958   7.519   8.303   5.699 -0.1065 -2.3939 -0.4678
  215MOL0     H28959   7.272   8.229   5.742  0.7252  1.0796 -1.9270
  215MOL0     H28960   7.055   8.378   5.668 -1.7553 -1.6822 -0.4708
  215MOL0     H28961   7.007   8.233   5.762  0.1214 -0.7162 -0.4792
  215MOL0     H28962   6.864   8.378   5.896  1.2675 -3.2631  0.3111
  215MOL0     H28963   6.897   8.504   5.771 -4.2667 -0.9641 -1.8379
  215MOL0     H28964   6.823   8.363   5.597  0.9268 -0.2641  0.8050
  215MOL0     H28965   6.791   8.229   5.707 -3.9182 -0.7888 -2.7076
  215MOL0     H28966   6.617   8.361   5.820  0.8781 -2.2031 -1.2182
  215MOL0     H28967   6.638   8.494   5.705 -1.5336  0.9859 -0.7100
  215MOL0     H28968   6.588   8.206   5.623 -0.6283  0.2760 -0.3106
  215MOL0     H28969   6.447   8.302   5.671 -1.4711  1.2139 -3.0698
  215MOL0     H28970   6.645   8.429   5.473  0.0096  0.9385  0.3015
  215MOL0     H28971   6.533   8.299   5.419 -1.0182  1.6425 -0.7944
  215MOL0     H28972   6.354   8.461   5.524  1.0685 -3.4429  0.0620
  215MOL0     H28973   6.482   8.585   5.525 -2.5646  1.5572 -0.7378
  215MOL0     H28974   6.380   8.433   5.291 -2.4240  1.8943 -1.0519
  215MOL0     H28975   6.530   8.532   5.283  1.1750 -0.1554  1.1873
  215MOL0     H28976   6.131   8.587   5.306  0.1997  1.2934  2.1025
  215MOL0     H28977   6.036   8.750   5.457  2.1196 -0.2462  1.4801
  215MOL0     H28978   6.067   8.919   5.421 -0.0389 -0.4932  0.5133
  215MOL0     H28979   5.858   8.776   5.310  0.2681  0.7487  1.2047
  215MOL0     H28980   5.983   8.767   5.178  0.3284 -3.5059  0.7613
  215MOL0     H28981   6.000   9.018   5.183 -1.4507  0.9436 -1.6922
  215MOL0     H28982   5.895   9.008   5.341 -1.1888  2.5782 -0.6155
  215MOL0     H28983   5.712   8.912   5.198  0.1975 -0.4232 -1.1269
  215MOL0     H28984   5.783   8.970   5.057  3.0156 -1.1313  0.6051
  215MOL0     H28985   5.510   9.167   5.241  1.9596 -1.2593 -0.5369
  215MOL0     H28986   5.313   9.297   5.233  1.2501  1.9977 -0.4381
  215MOL0     H28987   5.233   9.357   5.089 -0.2105 -1.9439 -1.1448
  215MOL0     H28988   5.220   9.183   5.126 -0.4646 -0.6064  2.0640
  215MOL0     H28989   5.043   9.398   4.954 -2.9372  0.7559  0.7125
  215MOL0     H28990   4.863   9.526   4.839  1.0806  0.8004  1.4026
  215MOL0     H28991   4.641   9.427   4.735 -2.9499  3.0632  2.8698
  215MOL0     H28992   4.708   9.597   4.721 -1.7321  1.5653 -0.9411
  215MOL0     H28993   4.587   9.644   4.541  1.2497 -0.2748  0.2561
  215MOL0     H28994   4.556   9.483   4.483 -0.7296 -0.1575 -0.1319
  215MOL0     H28995   4.451   9.565   4.762  1.9829  1.4861  0.1111
  215MOL0     H28996   4.405   9.419   4.670  3.7274 -0.3098 -1.2213
  215MOL0     H28997   4.345   9.708   4.604  0.2610  0.4990  3.0876
  215MOL0     H28998   4.296   9.565   4.498  0.0254  4.2986 -1.1845
  215MOL0     H28999   4.123   9.502   4.627 -2.0526  0.4585  0.3643
  215MOL0     H29000   4.111   9.682   4.654 -0.5685 -0.7360  0.7848
  215MOL0     H29001   4.233   9.482   4.845  1.6668  0.2862 -2.7777
  215MOL0     H29002   4.262   9.651   4.846 -0.3182  1.2839  0.3154
  215MOL0     H29003   4.039   9.536   4.972 -0.3385  1.2826  0.3050
  215MOL0     H29004   3.971   9.562   4.812 -0.9063  0.1969  0.7331
  215MOL0     H29005   3.926   9.733   4.972  0.4873  0.5665  0.3780
  215MOL0     H29006   4.010   9.806   4.835 -2.3182 -0.0313 -0.4191
  215MOL0     H29007   4.959   9.295   4.480 -0.3258 -0.6042  0.0407
  215MOL0     H29008   5.143   9.192   4.601 -0.9965 -0.2340  0.0478
  215MOL0     H29009   5.598   9.244   4.764 -0.6922 -2.6461 -0.3409
  215MOL0     H29010   5.776   9.148   4.926  0.7544  0.7953  0.7160
  215MOL0     H29011   7.203   8.577   5.969 -1.1024 -1.6998  0.9112
  215MOL0     H29012   7.442   8.658   5.940 -0.7422  0.3741  0.0905
  215MOL0     H29013   7.790   8.509   5.623  1.0872 -1.5696 -1.1387
  215MOL0     H29014   8.013   8.499   5.522 -1.5864  0.0236 -0.5236
  215MOL0     H29015   8.222   8.389   5.567  1.0467 -0.0095  1.7437
  215MOL0     H29016   8.224   8.526   5.435  3.9326  0.0217 -1.4693
  215MOL0     H29017   8.471   8.537   5.498 -1.0410  1.1285  0.5071
  215MOL0     H29018   8.429   8.385   5.417 -0.7952 -0.4528  0.0139
  215MOL0     H29019   8.434   8.261   5.611  0.9311 -0.6862  0.2756
  215MOL0     H29020   8.440   8.400   5.723 -1.3525  2.1174 -1.0982
  215MOL0     H29021   8.679   8.444   5.622  0.4108 -0.5257 -1.2442
  215MOL0     H29022   8.654   8.302   5.514  1.5142 -0.6502 -0.8730
  215MOL0     H29023   8.805   8.115   5.852 -0.7369 -1.0345  0.1450
  215MOL0     H29024   8.187   8.648   5.897  1.0833  1.6268 -0.2378
  215MOL0     H29025   7.962   8.669   5.987  2.4282 -1.0065  0.4176
  216MOL0     O29026   4.433   5.188   5.431  0.3042 -0.6489  0.1622
  216MOL0     C29027   4.430   5.265   5.333 -0.6239 -0.2754  0.0758
  216MOL0     O29028   4.319   5.293   5.264  0.0924 -0.5546  0.5649
  216MOL0     C29029   4.205   5.223   5.273 -0.5668  0.5002 -0.6381
  216MOL0     C29030   4.069   5.273   5.305 -0.2357 -0.0593 -0.0143
  216MOL0     C29031   3.960   5.190   5.328 -0.1759  0.1781  0.6163
  216MOL0     C29032   3.972   5.052   5.310 -0.5600 -0.5339  0.0132
  216MOL0     O29033   3.856   4.977   5.325 -0.4808  0.2075  0.0783
  216MOL0     C29034   3.828   4.873   5.225  0.2205  0.0851  0.1312
  216MOL0     C29035   3.684   4.814   5.236  0.1279 -0.4179  0.2478
  216MOL0     C29036   3.575   4.918   5.208  0.0955 -0.1580  0.2446
  216MOL0     C29037   3.563   5.035   5.297  0.7093  0.3263 -0.5736
  216MOL0     C29038   3.424   5.100   5.295  0.0899 -0.6340 -0.7245
  216MOL0     C29039   3.321   5.010   5.374  0.2741  0.1930 -0.7640
  216MOL0     C29040   3.167   5.050   5.395  0.2689 -0.6097  0.3790
  216MOL0     C29041   3.112   5.077   5.260  0.2168  0.4355  0.6104
  216MOL0     N29042   2.975   5.117   5.265 -0.8018  0.6014  0.1240
  216MOL0     C29043   2.862   5.058   5.212  0.2153 -0.9273  0.1340
  216MOL0     C29044   2.767   5.149   5.244 -0.1533  0.6787  0.6745
  216MOL0     C29045   2.624   5.136   5.221  0.7242 -0.0255 -0.6183
  216MOL0     C29046   2.557   5.264   5.168 -0.2762 -0.1671 -0.2120
  216MOL0     C29047   2.419   5.247   5.092  0.1637 -0.7024  0.8189
  216MOL0     C29048   2.323   5.135   5.148  0.9633 -0.4709 -0.7196
  216MOL0     O29049   2.185   5.167   5.106 -0.3512  0.6277  0.6764
  216MOL0     C29050   2.108   5.257   5.170  0.2668 -0.1361 -0.0237
  216MOL0     C29051   1.996   5.292   5.098  0.3592  0.5869  0.6854
  216MOL0     C29052   1.903   5.390   5.140 -0.7288 -0.0775 -0.0969
  216MOL0     C29053   1.766   5.426   5.068 -1.0101  0.5020 -0.2974
  216MOL0     C29054   1.934   5.451   5.271  0.2134 -0.0883  0.1308
  216MOL0     C29055   1.833   5.552   5.340  0.2975  0.4306 -0.0254
  216MOL0     O29056   1.709   5.504   5.375 -0.1439 -0.8172  0.4757
  216MOL0     C29057   1.630   5.580   5.459  0.3497 -0.4518  0.5898
  216MOL0     C29058   1.493   5.585   5.417  0.5916 -0.8009 -0.4506
  216MOL0     C29059   1.395   5.660   5.484 -0.4577  0.4784  0.0829
  216MOL0     C29060   1.429   5.715   5.609  0.1093 -0.1849 -0.7384
  216MOL0     O29061   1.339   5.787   5.692 -0.7093 -0.0604  0.3722
  216MOL0     C29062   1.204   5.792   5.651 -0.2821  0.3606  0.0620
  216MOL0     C29063   1.112   5.870   5.739  0.2246  0.7658 -0.6851
  216MOL0     C29064   0.963   5.869   5.697 -0.0078  0.8257 -0.5104
  216MOL0     C29065   0.930   5.959   5.578  0.1708  0.0729  0.1266
  216MOL0     C29066   0.783   5.937   5.534 -0.4070 -0.2390  0.3650
  216MOL0     C29067   0.764   6.001   5.397 -0.1424 -0.3240 -0.3391
  216MOL0     C29068   0.613   6.014   5.362  0.1053 -0.9925 -0.2452
  216MOL0     C29069   0.605   6.099   5.240  0.6940  0.4142  0.5358
  216MOL0    Cl29070   0.437   6.138   5.178  0.2278  0.2529  0.0991
  216MOL0     C29071   1.561   5.710   5.651  0.0487 -0.7552 -0.5561
  216MOL0     C29072   1.663   5.642   5.580  0.5792 -0.7154 -0.0717
  216MOL0     O29073   1.870   5.668   5.357  0.2341 -0.1635 -0.5159
  216MOL0     C29074   2.046   5.413   5.340 -0.8823 -0.0376  0.2915
  216MOL0     C29075   2.134   5.318   5.293  0.3996 -1.0189 -0.2469
  216MOL0     N29076   2.831   5.260   5.301 -0.1884 -0.1221 -0.2904
  216MOL0     N29077   2.952   5.237   5.320 -0.1351  0.5843 -0.2552
  216MOL0     C29078   4.097   4.993   5.272  0.8337 -0.2448  0.6401
  216MOL0     C29079   4.210   5.079   5.251 -0.0080 -0.4647  1.1505
  216MOL0     C29080   4.552   5.341   5.298 -0.8981 -0.7380 -0.8332
  216MOL0     C29081   4.689   5.328   5.364  0.1048  0.0615  0.9329
  216MOL0     C29082   4.798   5.413   5.322  0.1024 -0.4645  0.5136
  216MOL0     C29083   4.778   5.519   5.222 -0.5660  0.0120  0.5029
  216MOL0     O29084   4.866   5.610   5.172  0.0648  0.1337 -0.5399
  216MOL0     C29085   5.007   5.591   5.205 -0.0722 -0.2250  0.2203
  216MOL0     C29086   5.060   5.475   5.120  0.2965  0.5037 -0.4393
  216MOL0     C29087   5.037   5.507   4.971 -0.4770 -0.7363  0.1209
  216MOL0     C29088   5.133   5.618   4.923 -0.2570  0.4234 -0.1509
  216MOL0     C29089   5.148   5.622   4.777  1.0142  0.0391  0.1480
  216MOL0     C29090   5.179   5.628   4.662  0.9788 -0.5666  0.1011
  216MOL0     C29091   4.647   5.536   5.166  0.0929  0.4972 -0.4380
  216MOL0     C29092   4.541   5.447   5.200 -0.2372  0.3818  0.6010
  216MOL0     H29093   4.046   5.376   5.332 -0.4949 -0.5237  1.6157
  216MOL0     H29094   3.860   5.211   5.366 -0.2767 -1.7060  1.5036
  216MOL0     H29095   3.837   4.909   5.122  1.5382  0.0193  0.2070
  216MOL0     H29096   3.897   4.787   5.230  1.2056  0.9290  2.7607
  216MOL0     H29097   3.668   4.740   5.157  1.7251  0.3712 -0.8493
  216MOL0     H29098   3.669   4.772   5.336 -0.5293  2.4560  1.4637
  216MOL0     H29099   3.584   4.961   5.108  2.6267  4.0145  1.9716
  216MOL0     H29100   3.486   4.855   5.216  0.6039 -1.2330 -1.8412
  216MOL0     H29101   3.596   5.013   5.399  2.6079  0.8521 -1.0356
  216MOL0     H29102   3.639   5.103   5.257  0.8853  0.3158 -0.2558
  216MOL0     H29103   3.426   5.189   5.358 -4.0233  0.3402 -1.6698
  216MOL0     H29104   3.385   5.131   5.197 -0.8999 -0.0221 -0.1555
  216MOL0     H29105   3.312   4.910   5.331  1.0078 -1.2777  2.2387
  216MOL0     H29106   3.367   4.984   5.470 -2.1958  1.8772  1.0387
  216MOL0     H29107   3.101   4.967   5.422 -3.1831  0.4493 -3.7610
  216MOL0     H29108   3.145   5.125   5.471 -4.2677  0.1985 -1.4338
  216MOL0     H29109   3.111   4.987   5.197  3.5259  0.9160 -0.3147
  216MOL0     H29110   3.163   5.156   5.203  0.2008 -1.3930 -2.1305
  216MOL0     H29111   2.852   4.972   5.146  1.6651 -0.1225 -1.1999
  216MOL0     H29112   2.603   5.059   5.145 -2.6941 -0.5811  0.6933
  216MOL0     H29113   2.571   5.096   5.308  2.0127  0.1844  0.2784
  216MOL0     H29114   2.629   5.309   5.100 -1.1937  2.4859  0.4666
  216MOL0     H29115   2.554   5.340   5.247  0.4289  0.6121 -0.9197
  216MOL0     H29116   2.443   5.236   4.986 -0.4692  0.2511  0.5729
  216MOL0     H29117   2.362   5.340   5.098  0.5332 -0.5108  1.4236
  216MOL0     H29118   2.336   5.140   5.257  1.0644  1.5330 -0.7804
  216MOL0     H29119   2.358   5.036   5.119  0.8428 -0.2011 -1.8317
  216MOL0     H29120   1.986   5.241   5.003  0.4894 -2.0619  2.0039
  216MOL0     H29121   1.707   5.508   5.110 -0.6998  1.0145 -0.8550
  216MOL0     H29122   1.800   5.454   4.968  2.8267 -0.9559  0.4429
  216MOL0     H29123   1.698   5.341   5.078 -1.0606  0.7732  2.5120
  216MOL0     H29124   1.454   5.531   5.330  1.9834  0.7182 -2.0819
  216MOL0     H29125   1.293   5.670   5.446 -0.0198 -0.0112 -1.2772
  216MOL0     H29126   1.197   5.842   5.553 -1.5034  1.9734  0.9220
  216MOL0     H29127   1.154   5.695   5.656 -0.5897  0.3286 -2.2529
  216MOL0     H29128   1.121   5.820   5.836  0.6094 -2.4497 -2.2379
  216MOL0     H29129   1.149   5.970   5.764  0.5208  0.3041  0.8224
  216MOL0     H29130   0.903   5.894   5.784  1.7631  3.1815  0.1364
  216MOL0     H29131   0.941   5.767   5.664 -0.3141  1.0945 -1.1699
  216MOL0     H29132   0.948   6.064   5.603  1.0532 -0.2244  0.7896
  216MOL0     H29133   0.999   5.934   5.497  1.6356  0.4942  1.1956
  216MOL0     H29134   0.724   5.978   5.616  0.7361  0.9337  0.6297
  216MOL0     H29135   0.756   5.831   5.534 -1.5389  0.0295  1.5733
  216MOL0     H29136   0.799   6.105   5.394  0.2748 -0.3593  1.9136
  216MOL0     H29137   0.820   5.941   5.325 -0.9132 -0.2548 -1.0081
  216MOL0     H29138   0.556   6.072   5.435  0.2970 -0.3875 -0.5709
  216MOL0     H29139   0.572   5.914   5.345 -1.2996 -0.0886 -2.6295
  216MOL0     H29140   0.659   6.061   5.152  2.6230  1.8032  1.0531
  216MOL0     H29141   0.652   6.196   5.259  0.6492  0.9126 -1.5642
  216MOL0     H29142   1.594   5.761   5.741 -2.0382 -1.0935  0.4431
  216MOL0     H29143   1.760   5.620   5.623  0.3855 -1.7783 -0.1747
  216MOL0     H29144   2.061   5.465   5.435  1.1300 -2.2556  1.2835
  216MOL0     H29145   2.221   5.293   5.353 -0.8519  1.1936  2.8018
  216MOL0     H29146   4.099   4.886   5.256  0.3551 -0.5486  2.4436
  216MOL0     H29147   4.296   5.028   5.210  0.2413 -0.2141  1.3588
  216MOL0     H29148   4.707   5.263   5.448 -3.1980 -0.9145  0.9893
  216MOL0     H29149   4.900   5.407   5.359  1.0569 -1.4781 -2.0095
  216MOL0     H29150   5.065   5.684   5.202  1.6001 -1.2318 -2.1276
  216MOL0     H29151   5.021   5.573   5.312 -1.3145  1.4332  0.7081
  216MOL0     H29152   4.995   5.387   5.130  0.3069  0.6518  1.1233
  216MOL0     H29153   5.163   5.444   5.137 -0.1402  0.4053  2.5726
  216MOL0     H29154   4.933   5.532   4.950 -0.9442 -2.4973  0.1630
  216MOL0     H29155   5.045   5.417   4.910 -0.5060  1.2184 -2.9821
  216MOL0     H29156   5.231   5.594   4.965 -0.0633 -2.4281 -1.9441
  216MOL0     H29157   5.104   5.718   4.957 -0.2501 -0.3598  2.3861
  216MOL0     H29158   5.224   5.618   4.565 -0.8161 -3.5358 -0.5637
  216MOL0     H29159   4.624   5.594   5.078 -1.0328 -0.8403 -1.0556
  216MOL0     H29160   4.461   5.483   5.136  0.1869  0.8945  0.3525
  217MOL0     O29161   2.273   1.796   5.343  0.5091 -0.5296  0.2067
  217MOL0     C29162   2.320   1.779   5.233 -0.8351  0.7349  1.0313
  217MOL0     O29163   2.245   1.771   5.115 -0.2956 -0.0559  0.2198
  217MOL0     C29164   2.123   1.718   5.122 -0.0149  0.1925 -1.1695
  217MOL0     C29165   2.109   1.581   5.145  0.4477 -0.0490  0.0365
  217MOL0     C29166   1.979   1.522   5.147 -0.1716  0.8804 -0.0605
  217MOL0     C29167   1.868   1.599   5.137  0.1080 -0.3345  0.0274
  217MOL0     O29168   1.736   1.566   5.165 -0.5340 -0.0906 -0.8390
  217MOL0     C29169   1.699   1.433   5.191  1.0651 -0.0102 -0.1389
  217MOL0     C29170   1.567   1.426   5.266 -0.4879  0.2904  0.3471
  217MOL0     C29171   1.448   1.482   5.187  0.3885  0.6067  0.1557
  217MOL0     C29172   1.322   1.454   5.263  0.6682  0.1826 -0.0857
  217MOL0     C29173   1.196   1.518   5.205 -0.1247  0.6009  0.1331
  217MOL0     C29174   1.080   1.501   5.298 -0.3204  0.4361 -0.0977
  217MOL0     C29175   0.963   1.582   5.253  0.2875  0.4515  0.0918
  217MOL0     C29176   0.843   1.544   5.327  1.0842 -0.4330 -0.2088
  217MOL0     N29177   0.775   1.656   5.393  0.6871 -0.3845 -0.4242
  217MOL0     C29178   0.646   1.661   5.442  0.5801  0.2043  0.6913
  217MOL0     C29179   0.632   1.777   5.508 -1.2311  0.5902  0.4535
  217MOL0     C29180   0.520   1.811   5.594 -0.2937 -0.1275  0.1401
  217MOL0     C29181   0.394   1.817   5.514  0.9831  0.3324 -0.3128
  217MOL0     C29182   0.283   1.892   5.602  1.3031  0.7229 -0.4314
  217MOL0     C29183   0.147   1.849   5.552 -0.3214 -0.9221  0.9558
  217MOL0     O29184   0.052   1.937   5.611  0.5152  0.1491  0.1129
  217MOL0     C29185  -0.085   1.899   5.595 -0.1468  0.9306 -0.2849
  217MOL0     C29186  -0.172   2.003   5.618  0.1448  0.8759 -0.5951
  217MOL0     C29187  -0.312   1.992   5.602 -1.2808 -1.1774 -0.3288
  217MOL0     C29188  -0.391   2.121   5.631  0.1520 -0.0979  0.0655
  217MOL0     C29189  -0.367   1.864   5.578  0.3181 -0.3441 -0.4293
  217MOL0     C29190  -0.510   1.839   5.568  0.6284  0.1373  0.2487
  217MOL0     O29191  -0.543   1.714   5.588  0.7865  0.9470  0.3414
  217MOL0     C29192  -0.661   1.677   5.645 -0.0859  1.0808 -0.8269
  217MOL0     C29193  -0.687   1.543   5.652 -0.7194  0.4507  0.8813
  217MOL0     C29194  -0.801   1.492   5.719 -0.6205  0.1050  0.5193
  217MOL0     C29195  -0.893   1.575   5.775 -0.5485 -0.3851 -0.1027
  217MOL0     O29196  -1.000   1.513   5.836  0.6535 -0.2783 -0.4237
  217MOL0     C29197  -1.116   1.518   5.747 -0.1042 -0.1650  0.5625
  217MOL0     C29198  -1.248   1.473   5.813 -0.2105 -0.1012  0.0649
  217MOL0     C29199  -1.243   1.338   5.889  0.3125 -0.2811 -0.0044
  217MOL0     C29200  -1.389   1.331   5.947  0.6759  0.1148 -0.0407
  217MOL0     C29201  -1.411   1.207   6.030 -0.0448  0.2408  0.0245
  217MOL0     C29202  -1.547   1.207   6.087  0.0074 -0.5139  0.8677
  217MOL0     C29203  -1.535   1.299   6.213  0.1966 -0.6477 -0.0974
  217MOL0     C29204  -1.655   1.281   6.303  0.3315 -0.9877  0.0572
  217MOL0    Cl29205  -1.640   1.126   6.381  0.2840  0.0040 -0.0582
  217MOL0     C29206  -0.860   1.717   5.782 -0.6562 -0.0019 -0.2061
  217MOL0     C29207  -0.752   1.767   5.709 -0.1586  0.8811 -0.5951
  217MOL0     O29208  -0.585   1.923   5.521 -0.4261  0.4254 -0.5231
  217MOL0     C29209  -0.278   1.761   5.546 -0.3132  0.7430  0.0348
  217MOL0     C29210  -0.138   1.771   5.559  0.0405  0.0842  0.4832
  217MOL0     N29211   0.749   1.844   5.498  0.7781 -0.5298 -0.0439
  217MOL0     N29212   0.832   1.774   5.437 -0.7213  0.2422  1.2844
  217MOL0     C29213   1.881   1.736   5.117 -0.6859 -0.6417 -0.1461
  217MOL0     C29214   2.010   1.796   5.099  0.3465  0.4092 -0.5692
  217MOL0     C29215   2.466   1.781   5.216  0.4608 -0.1356 -0.5373
  217MOL0     C29216   2.525   1.828   5.100  0.7273 -0.0735 -0.4042
  217MOL0     C29217   2.661   1.828   5.082 -0.6410  0.4980  0.0630
  217MOL0     C29218   2.747   1.799   5.186 -0.5281  0.0387  0.1100
  217MOL0     O29219   2.884   1.824   5.182 -0.4656  0.4723 -0.4669
  217MOL0     C29220   2.934   1.893   5.067  0.1925 -0.1007 -0.3351
  217MOL0     C29221   3.082   1.911   5.069 -0.6243 -0.4481  0.0664
  217MOL0     C29222   3.174   1.779   5.094  0.1799 -0.2518  0.3924
  217MOL0     C29223   3.327   1.811   5.094 -0.2291  0.0115 -0.3180
  217MOL0     C29224   3.355   1.937   5.167  0.4658 -0.3717  1.2805
  217MOL0     C29225   3.372   2.033   5.234  0.7383 -0.7233 -0.2837
  217MOL0     C29226   2.690   1.757   5.305 -0.4018 -0.1576  0.2921
  217MOL0     C29227   2.553   1.748   5.324 -0.3641 -0.5366 -0.1492
  217MOL0     H29228   2.201   1.529   5.169  0.6768  0.0159 -0.6593
  217MOL0     H29229   1.965   1.418   5.176  0.1243  1.1551  1.1192
  217MOL0     H29230   1.685   1.377   5.098  3.8180 -0.2626 -0.4805
  217MOL0     H29231   1.767   1.384   5.260 -0.2321 -0.7764  0.6346
  217MOL0     H29232   1.550   1.321   5.291  1.3948 -0.1456 -0.0180
  217MOL0     H29233   1.572   1.476   5.363 -1.5497  1.9484 -0.4175
  217MOL0     H29234   1.452   1.591   5.182 -2.3319  0.8229  0.8603
  217MOL0     H29235   1.443   1.437   5.088 -0.1507  0.8882  0.0495
  217MOL0     H29236   1.295   1.349   5.279 -3.3602  1.0612  0.1753
  217MOL0     H29237   1.331   1.499   5.363  1.0327 -1.0487  0.4551
  217MOL0     H29238   1.207   1.625   5.186 -3.7946  0.9665 -0.6010
  217MOL0     H29239   1.178   1.471   5.108  0.5273  2.2881 -0.8594
  217MOL0     H29240   1.051   1.397   5.312  0.5903  0.3762  1.6586
  217MOL0     H29241   1.124   1.527   5.395  0.5203  0.7566 -0.5542
  217MOL0     H29242   0.978   1.690   5.259 -0.7399  0.8231 -2.5431
  217MOL0     H29243   0.951   1.545   5.151  0.8274 -1.0501  0.5403
  217MOL0     H29244   0.853   1.465   5.402 -2.1613 -0.7365  0.0842
  217MOL0     H29245   0.775   1.502   5.252  0.8348  0.8191 -0.7104
  217MOL0     H29246   0.571   1.582   5.445  0.4285  0.3659  1.5906
  217MOL0     H29247   0.502   1.752   5.685  0.2934  1.2432  1.1787
  217MOL0     H29248   0.545   1.911   5.630  0.4407  0.7880 -2.7159
  217MOL0     H29249   0.369   1.715   5.484 -0.9865  0.9446 -0.9507
  217MOL0     H29250   0.406   1.879   5.424  0.7202 -0.0911 -0.6431
  217MOL0     H29251   0.298   1.999   5.613 -1.6448  1.1496  0.0706
  217MOL0     H29252   0.282   1.866   5.708 -0.8330  2.2818 -0.0098
  217MOL0     H29253   0.128   1.747   5.587  0.5583 -1.6095 -0.4916
  217MOL0     H29254   0.133   1.847   5.443 -3.4605  1.7862  1.1628
  217MOL0     H29255  -0.130   2.097   5.652  2.4055 -0.0210 -0.7437
  217MOL0     H29256  -0.330   2.211   5.623 -0.8026  0.5884  0.3054
  217MOL0     H29257  -0.470   2.128   5.555  0.7291 -1.3508 -0.6940
  217MOL0     H29258  -0.441   2.101   5.726  0.0937 -3.4249 -0.5442
  217MOL0     H29259  -0.606   1.481   5.615  0.6432  0.8875  2.9640
  217MOL0     H29260  -0.827   1.387   5.707  2.6415 -0.7309 -0.3553
  217MOL0     H29261  -1.129   1.615   5.697 -1.3789  1.5446  3.9130
  217MOL0     H29262  -1.103   1.452   5.661 -1.1713  0.8008 -0.3799
  217MOL0     H29263  -1.275   1.553   5.882 -1.7539  2.4794 -3.2362
  217MOL0     H29264  -1.323   1.480   5.734  1.3204  1.5719 -1.3327
  217MOL0     H29265  -1.173   1.331   5.973 -4.1328 -0.4591  4.1410
  217MOL0     H29266  -1.232   1.252   5.823 -0.8012 -0.9329  0.6237
  217MOL0     H29267  -1.400   1.416   6.016 -3.2096 -0.7701  0.6590
  217MOL0     H29268  -1.467   1.342   5.872  0.8161 -1.4705 -0.4374
  217MOL0     H29269  -1.339   1.196   6.111  0.8604 -1.1835 -0.9266
  217MOL0     H29270  -1.403   1.124   5.959  1.7054  0.1566  0.2698
  217MOL0     H29271  -1.623   1.245   6.018 -1.9229 -1.3920  2.3926
  217MOL0     H29272  -1.565   1.100   6.105  0.7092 -0.7096  0.4117
  217MOL0     H29273  -1.542   1.399   6.170 -2.2489 -0.5316  0.4454
  217MOL0     H29274  -1.440   1.284   6.265  1.6524 -0.3378 -2.5395
  217MOL0     H29275  -1.744   1.288   6.239  0.2490 -0.3047  0.2343
  217MOL0     H29276  -1.656   1.353   6.385  1.4143  0.7612 -1.4025
  217MOL0     H29277  -0.918   1.783   5.845 -0.2638 -2.8948  3.5725
  217MOL0     H29278  -0.737   1.874   5.707  0.6975  0.8699  2.0179
  217MOL0     H29279  -0.322   1.666   5.518  1.8456 -0.7172  1.2395
  217MOL0     H29280  -0.099   1.674   5.528 -2.1934 -0.4845 -0.7663
  217MOL0     H29281   1.785   1.787   5.115 -1.1483 -1.5013 -0.7715
  217MOL0     H29282   2.027   1.901   5.077 -0.1305  0.1525 -2.3410
  217MOL0     H29283   2.456   1.874   5.030 -0.8738  1.0447  1.7959
  217MOL0     H29284   2.703   1.874   4.993 -2.3692  0.2303 -0.9355
  217MOL0     H29285   2.920   1.827   4.980 -0.5604 -0.9501  0.4095
  217MOL0     H29286   2.883   1.989   5.055 -0.0875 -0.0982  0.7731
  217MOL0     H29287   3.102   1.995   5.136 -0.5896 -0.6536  0.3130
  217MOL0     H29288   3.120   1.945   4.972  1.3688 -0.4459  0.8108
  217MOL0     H29289   3.159   1.698   5.023 -0.3076 -0.8800  1.1969
  217MOL0     H29290   3.151   1.738   5.193  0.7299  0.8188  0.9884
  217MOL0     H29291   3.366   1.823   4.992 -1.6793  1.7075 -0.7260
  217MOL0     H29292   3.380   1.732   5.148  0.1786  0.8518  0.5457
  217MOL0     H29293   3.402   2.117   5.293  0.4360 -1.8019  1.4543
  217MOL0     H29294   2.759   1.722   5.381  0.1110  0.8335  0.2891
  217MOL0     H29295   2.517   1.712   5.419  2.7335  1.9106  2.1949
  218MOL0     O29296   2.118   6.564  10.826  0.1842  0.3302 -0.2768
  218MOL0     C29297   2.153   6.588  10.941 -0.8864 -0.7757 -0.0397
  218MOL0     O29298   2.081   6.579  11.054 -0.1034 -0.2896 -0.2095
  218MOL0     C29299   1.945   6.552  11.056 -0.4572 -0.2574 -1.2874
  218MOL0     C29300   1.874   6.464  10.978  0.4554 -0.1859 -0.6028
  218MOL0     C29301   1.737   6.445  10.991 -0.5130 -0.0136 -0.5181
  218MOL0     C29302   1.669   6.527  11.082  0.5371 -0.6982  0.9025
  218MOL0     O29303   1.533   6.523  11.108  0.2191 -0.4077 -0.0037
  218MOL0     C29304   1.454   6.409  11.060 -0.2835 -0.3636 -0.0216
  218MOL0     C29305   1.321   6.404  11.142  0.1712  1.2217  0.8542
  218MOL0     C29306   1.250   6.275  11.119  0.0990  0.4403  0.3253
  218MOL0     C29307   1.126   6.235  11.209 -0.1326 -0.2139 -0.1773
  218MOL0     C29308   0.997   6.307  11.155 -1.1278  0.0604 -0.5077
  218MOL0     C29309   0.865   6.271  11.234  0.6463 -0.5880 -0.1929
  218MOL0     C29310   0.747   6.350  11.187 -0.2862  0.7519 -0.2333
  218MOL0     C29311   0.743   6.504  11.212 -0.2763  1.1429 -0.0009
  218MOL0     N29312   0.616   6.568  11.199  0.8073 -0.3800 -0.9539
  218MOL0     C29313   0.513   6.537  11.274  0.2613 -1.2077  0.1009
  218MOL0     C29314   0.407   6.608  11.232  0.7204 -0.2133  1.8573
  218MOL0     C29315   0.273   6.621  11.307 -0.7514  0.3193  0.2562
  218MOL0     C29316   0.261   6.752  11.383  0.4105 -0.1771  0.1952
  218MOL0     C29317   0.360   6.775  11.498 -0.2981 -0.4764  0.5399
  218MOL0     C29318   0.328   6.906  11.568 -0.1518 -0.5174 -0.1845
  218MOL0     O29319   0.196   6.903  11.634  0.1689  0.7758  0.7112
  218MOL0     C29320   0.175   6.931  11.768  0.8057  0.4100 -0.2627
  218MOL0     C29321   0.256   7.019  11.844 -0.0703 -0.6784  0.7275
  218MOL0     C29322   0.247   7.053  11.973  0.2963  0.2394 -0.5902
  218MOL0     C29323   0.349   7.156  12.020  0.2002  0.7380 -0.0949
  218MOL0     C29324   0.149   6.992  12.051 -0.1100  0.3208 -0.3147
  218MOL0     C29325   0.118   7.025  12.193  0.6450 -0.7913  1.0172
  218MOL0     O29326   0.032   6.950  12.256  0.9090 -0.1099 -0.7213
  218MOL0     C29327   0.026   6.955  12.389 -0.7247  1.1585  0.5947
  218MOL0     C29328   0.133   6.970  12.469  0.6109 -0.3145  0.1494
  218MOL0     C29329   0.115   6.953  12.610 -0.6862 -0.1344  0.1786
  218MOL0     C29330  -0.009   6.946  12.669 -0.5562  0.2548  0.2912
  218MOL0     O29331  -0.026   6.949  12.802  0.3096 -0.3496  0.3910
  218MOL0     C29332  -0.031   7.084  12.854 -0.7379  0.6162  0.8797
  218MOL0     C29333  -0.160   7.158  12.809 -0.5504 -0.3450  0.9017
  218MOL0     C29334  -0.289   7.095  12.857 -1.0681 -0.5273  0.0410
  218MOL0     C29335  -0.407   7.190  12.863  0.7428  0.3008 -0.8272
  218MOL0     C29336  -0.525   7.131  12.934  0.1331  0.1841  0.8633
  218MOL0     C29337  -0.638   7.232  12.931  0.5833  0.9612 -0.3717
  218MOL0     C29338  -0.771   7.153  12.961  0.1974  0.1580 -0.8993
  218MOL0     C29339  -0.887   7.250  12.978  0.1520 -0.2385  0.0387
  218MOL0    Cl29340  -1.035   7.160  13.043  0.1272  0.0299  0.1189
  218MOL0     C29341  -0.117   6.923  12.586 -0.5842 -0.1002 -0.3771
  218MOL0     C29342  -0.097   6.927  12.449  0.5481 -0.3121  0.0462
  218MOL0     O29343   0.171   7.131  12.238  0.2448 -0.4309  0.0679
  218MOL0     C29344   0.080   6.886  11.988 -0.8670 -0.4817  0.1633
  218MOL0     C29345   0.084   6.858  11.849 -0.1098  0.5816 -0.7242
  218MOL0     N29346   0.458   6.703  11.142  0.0516 -0.8678  0.4387
  218MOL0     N29347   0.586   6.677  11.122  0.0959  0.2651 -0.3043
  218MOL0     C29348   1.731   6.629  11.156 -0.8735 -0.1425  0.1139
  218MOL0     C29349   1.868   6.641  11.145 -0.5692  0.2669  0.0269
  218MOL0     C29350   2.294   6.621  10.965  0.5918  0.0361 -0.0677
  218MOL0     C29351   2.397   6.571  10.884  0.8870  0.6981 -0.1572
  218MOL0     C29352   2.527   6.605  10.906 -0.0082  0.0468 -0.0259
  218MOL0     C29353   2.566   6.683  11.017 -0.1266  0.1733  0.1792
  218MOL0     O29354   2.703   6.693  11.031  0.4014 -1.1061  0.3269
  218MOL0     C29355   2.754   6.801  11.115  0.0591 -0.8422 -0.4760
  218MOL0     C29356   2.744   6.768  11.271 -0.7524  0.5550  0.0667
  218MOL0     C29357   2.826   6.641  11.296 -0.6196 -0.1953  0.4622
  218MOL0     C29358   2.830   6.616  11.449  0.7775  0.1347  0.3957
  218MOL0     C29359   2.916   6.503  11.478 -0.1175 -0.4833 -0.4176
  218MOL0     C29360   2.983   6.414  11.513 -0.9330 -0.2034 -0.6092
  218MOL0     C29361   2.463   6.735  11.101  0.0936 -0.4383  0.0063
  218MOL0     C29362   2.330   6.706  11.071 -0.3254 -1.4225 -0.6854
  218MOL0     H29363   1.921   6.392  10.911  0.6263 -1.1577  0.5262
  218MOL0     H29364   1.688   6.367  10.933  1.5188 -1.2457 -0.6734
  218MOL0     H29365   1.425   6.431  10.957  0.0732 -0.9980 -0.2635
  218MOL0     H29366   1.507   6.314  11.047 -0.4612 -0.2568 -1.7336
  218MOL0     H29367   1.353   6.420  11.246 -1.7099  5.2975  0.9709
  218MOL0     H29368   1.247   6.480  11.115 -1.3459 -1.1594 -2.3777
  218MOL0     H29369   1.222   6.270  11.013  1.7668  1.2601 -0.1851
  218MOL0     H29370   1.323   6.198  11.142 -0.8488 -1.0192 -1.3360
  218MOL0     H29371   1.120   6.127  11.198  1.1577 -0.6245  2.4349
  218MOL0     H29372   1.139   6.263  11.314 -0.4634 -0.5695 -0.0374
  218MOL0     H29373   1.013   6.415  11.158 -0.8369  0.0112 -0.3399
  218MOL0     H29374   0.989   6.269  11.052  0.5448  1.1254 -1.0720
  218MOL0     H29375   0.829   6.169  11.218  1.0126 -0.7891  0.2448
  218MOL0     H29376   0.876   6.294  11.341 -3.3129  0.6740  0.1332
  218MOL0     H29377   0.743   6.334  11.079 -1.8354 -0.7683  0.0117
  218MOL0     H29378   0.662   6.311  11.244  0.3670 -0.4143 -0.0150
  218MOL0     H29379   0.798   6.544  11.126  1.6911 -2.0309 -0.4151
  218MOL0     H29380   0.802   6.533  11.299 -1.2653  1.0837  0.6997
  218MOL0     H29381   0.503   6.470  11.358 -1.8774 -0.3092  0.6136
  218MOL0     H29382   0.185   6.612  11.243  1.3486 -2.0676 -2.5748
  218MOL0     H29383   0.262   6.538  11.377  0.7581  0.5704  0.8324
  218MOL0     H29384   0.161   6.764  11.424 -0.0839  3.4881 -1.6182
  218MOL0     H29385   0.264   6.839  11.316  0.1140  0.6417  1.2052
  218MOL0     H29386   0.457   6.786  11.449  0.0119 -0.9496  1.0299
  218MOL0     H29387   0.367   6.692  11.569  0.7615 -0.5325  0.3832
  218MOL0     H29388   0.316   6.980  11.487  0.4247  0.1901  0.3595
  218MOL0     H29389   0.412   6.932  11.633  0.2735 -2.4883  0.0885
  218MOL0     H29390   0.326   7.067  11.776 -1.8603 -0.8177 -1.3320
  218MOL0     H29391   0.303   7.252  12.041 -0.3806  0.5206 -0.3558
  218MOL0     H29392   0.398   7.121  12.112  0.8087  0.4657 -0.5122
  218MOL0     H29393   0.434   7.166  11.952  1.3062 -1.6730  0.7988
  218MOL0     H29394   0.226   6.972  12.413 -1.0564  1.5681 -2.7784
  218MOL0     H29395   0.200   6.944  12.676  0.1252 -1.9244 -1.0412
  218MOL0     H29396  -0.021   7.090  12.963  1.0335  2.6657  0.6801
  218MOL0     H29397   0.057   7.130  12.809 -0.0316 -0.3733  1.2253
  218MOL0     H29398  -0.147   7.263  12.836 -0.5357 -0.1894  0.2937
  218MOL0     H29399  -0.168   7.160  12.700 -1.4963  2.2582  0.9618
  218MOL0     H29400  -0.269   7.053  12.956  3.6965  0.0332 -0.4627
  218MOL0     H29401  -0.316   7.013  12.790  3.4286 -2.7863  0.6634
  218MOL0     H29402  -0.406   7.286  12.914 -1.3855  0.3489 -0.7901
  218MOL0     H29403  -0.437   7.212  12.760 -1.7948  0.6532 -0.0668
  218MOL0     H29404  -0.505   7.090  13.034 -1.3684 -1.8382  0.3679
  218MOL0     H29405  -0.559   7.039  12.888 -1.3117  1.2060 -0.1856
  218MOL0     H29406  -0.617   7.306  13.009  2.1884  0.9308 -0.7507
  218MOL0     H29407  -0.643   7.288  12.837 -1.1813  0.5541 -0.5510
  218MOL0     H29408  -0.765   7.095  13.054  0.1330  2.8442  0.8828
  218MOL0     H29409  -0.789   7.087  12.876  4.1543  0.6535 -2.3453
  218MOL0     H29410  -0.913   7.288  12.879  1.6656  5.2143  1.3626
  218MOL0     H29411  -0.870   7.342  13.035  1.2429  1.7382 -3.2195
  218MOL0     H29412  -0.203   6.897  12.647  2.1483 -2.8222  2.7485
  218MOL0     H29413  -0.193   6.920  12.398  1.0190  2.0579 -1.2977
  218MOL0     H29414   0.006   6.836  12.049 -1.0147  0.1892  0.5495
  218MOL0     H29415   0.019   6.785  11.802 -1.3742  0.1188  1.5569
  218MOL0     H29416   1.682   6.697  11.225 -1.6266  0.8538 -1.3229
  218MOL0     H29417   1.919   6.713  11.207  1.5007 -1.6984  0.7689
  218MOL0     H29418   2.370   6.508  10.800 -2.1428 -0.9970  1.8867
  218MOL0     H29419   2.609   6.569  10.846 -0.0484 -1.1096  0.5960
  218MOL0     H29420   2.858   6.793  11.083  0.3030  1.1541 -0.2938
  218MOL0     H29421   2.719   6.899  11.083  2.0497 -0.6456 -2.2483
  218MOL0     H29422   2.641   6.746  11.300 -0.6678  0.3335  0.2004
  218MOL0     H29423   2.784   6.849  11.332  1.7583 -0.9101  0.5119
  218MOL0     H29424   2.928   6.664  11.263 -0.6369  0.9533  1.1433
  218MOL0     H29425   2.792   6.556  11.236 -0.6882  0.6819 -0.7685
  218MOL0     H29426   2.726   6.598  11.480  1.3152 -0.0128  2.2513
  218MOL0     H29427   2.875   6.702  11.499  2.4378 -1.4037  1.7011
  218MOL0     H29428   3.049   6.335  11.543 -0.7577 -0.3940 -1.4664
  218MOL0     H29429   2.498   6.811  11.170 -1.1270  0.7082 -0.6012
  218MOL0     H29430   2.257   6.763  11.128  0.8515 -0.9331  0.3738
  219MOL0     O29431   6.458   9.936   0.259 -0.0552 -0.2189  0.4158
  219MOL0     C29432   6.551   9.977   0.193  0.5067 -0.5415  0.4388
  219MOL0     O29433   6.535  10.018   0.063 -0.5593 -0.2450  0.4227
  219MOL0     C29434   6.404  10.048   0.017 -0.6508  0.6090  0.2117
  219MOL0     C29435   6.376  10.024  -0.117 -0.4346 -0.4977  0.6867
  219MOL0     C29436   6.260  10.059  -0.176  0.1543 -0.3346  0.1467
  219MOL0     C29437   6.162  10.134  -0.112  0.2246  0.4854  1.0683
  219MOL0     O29438   6.050  10.167  -0.180 -0.2593 -0.4310 -0.5475
  219MOL0     C29439   5.933  10.106  -0.129 -0.3484  0.4691 -0.6097
  219MOL0     C29440   5.825  10.081  -0.242  0.7899  0.4335 -0.1191
  219MOL0     C29441   5.693  10.029  -0.191  0.4547  0.1160 -0.2791
  219MOL0     C29442   5.699   9.892  -0.132  0.5060  0.2427 -0.6400
  219MOL0     C29443   5.576   9.855  -0.060  0.5311  0.6959  0.4809
  219MOL0     C29444   5.590   9.709   0.001 -0.3742  0.1221  0.2805
  219MOL0     C29445   5.468   9.653   0.066  0.4582  0.0099  0.2401
  219MOL0     C29446   5.415   9.736   0.182 -0.6023  0.1342 -0.2936
  219MOL0     N29447   5.292   9.670   0.244 -0.4790  1.2934  0.3128
  219MOL0     C29448   5.174   9.654   0.176  0.2516 -0.4040 -0.3972
  219MOL0     C29449   5.094   9.576   0.246  0.5798  0.3613  0.3559
  219MOL0     C29450   4.959   9.534   0.194 -0.5549 -0.7369  0.5710
  219MOL0     C29451   4.858   9.515   0.300 -0.3667 -0.3432 -0.7449
  219MOL0     C29452   4.848   9.637   0.386  0.6675  0.1668  0.1979
  219MOL0     C29453   4.702   9.660   0.421 -0.5086  0.1878 -0.7689
  219MOL0     O29454   4.632   9.745   0.326 -0.2820 -0.2107  0.3598
  219MOL0     C29455   4.505   9.794   0.358  0.1454  0.9856 -0.3394
  219MOL0     C29456   4.447   9.777   0.480 -0.8270 -0.1311 -0.2411
  219MOL0     C29457   4.327   9.832   0.519  0.3854  0.1404  0.2875
  219MOL0     C29458   4.276   9.821   0.659  0.1158 -0.2634  0.0021
  219MOL0     C29459   4.247   9.901   0.414  0.0855  0.1531  0.3224
  219MOL0     C29460   4.111   9.948   0.427  0.2149 -0.5935 -0.1635
  219MOL0     O29461   4.028   9.899   0.526 -0.1895  0.2599 -0.0234
  219MOL0     C29462   3.911   9.959   0.557  1.0772 -0.0290  0.8127
  219MOL0     C29463   3.878  10.097   0.551 -0.1654 -0.9209 -0.5754
  219MOL0     C29464   3.745  10.142   0.583 -0.5213 -0.6608 -0.8502
  219MOL0     C29465   3.642  10.048   0.611 -0.8681  0.7428  0.6895
  219MOL0     O29466   3.519  10.103   0.643 -0.6384 -0.2701  0.1452
  219MOL0     C29467   3.393  10.044   0.602  0.2492  0.1595 -0.5086
  219MOL0     C29468   3.286  10.104   0.695 -0.1536 -1.1029 -0.2505
  219MOL0     C29469   3.141  10.077   0.631 -0.2022  1.1607 -0.5361
  219MOL0     C29470   3.031  10.161   0.705  0.4320  0.0869  0.7303
  219MOL0     C29471   2.882  10.152   0.650  0.1041 -0.1531 -1.0420
  219MOL0     C29472   2.834  10.002   0.634 -0.4593 -0.6249  0.0902
  219MOL0     C29473   2.696   9.992   0.577  0.0099  0.3937 -1.0868
  219MOL0     C29474   2.590  10.074   0.657 -0.4547 -0.7054  1.4933
  219MOL0    Cl29475   2.595  10.053   0.830 -0.2424 -0.1614  0.0897
  219MOL0     C29476   3.675   9.910   0.619  0.7306  0.1011 -0.4876
  219MOL0     C29477   3.803   9.864   0.592 -0.9092 -0.4518 -0.2199
  219MOL0     O29478   4.080  10.040   0.348  0.6890 -0.1190 -1.2072
  219MOL0     C29479   4.300   9.911   0.284 -0.0243 -0.1267 -0.5347
  219MOL0     C29480   4.437   9.858   0.258  0.3488  0.0294 -0.3502
  219MOL0     N29481   5.161   9.545   0.366 -0.3434 -0.3684  0.1074
  219MOL0     N29482   5.270   9.609   0.363 -0.0018 -0.0241  0.0921
  219MOL0     C29483   6.184  10.168   0.026  0.1664 -0.4951  0.4554
  219MOL0     C29484   6.305  10.126   0.090 -0.4475 -0.3069  0.2148
  219MOL0     C29485   6.684   9.936   0.247 -0.4283 -0.1148  1.1054
  219MOL0     C29486   6.784   9.916   0.149 -0.2338 -0.2571 -0.0642
  219MOL0     C29487   6.909   9.889   0.196  0.0882 -0.3793 -0.4101
  219MOL0     C29488   6.945   9.882   0.334  0.2581 -0.2645  0.0501
  219MOL0     O29489   7.065   9.834   0.383 -0.4452 -0.3708  0.4391
  219MOL0     C29490   7.188   9.846   0.326 -0.4070  0.3168  0.2349
  219MOL0     C29491   7.222   9.986   0.279  0.1444  0.1063  0.1397
  219MOL0     C29492   7.374  10.037   0.277 -0.0922  0.5886  0.3459
  219MOL0     C29493   7.456  10.009   0.404 -0.5773  0.5879  0.2066
  219MOL0     C29494   7.591  10.055   0.389 -0.0256 -0.5315  0.4784
  219MOL0     C29495   7.703  10.098   0.378  0.2440  0.0269 -0.1698
  219MOL0     C29496   6.839   9.906   0.423 -0.4942 -0.3499 -0.2548
  219MOL0     C29497   6.710   9.936   0.381  0.1548  0.4653  0.2696
  219MOL0     H29498   6.456   9.976  -0.172 -0.1947 -0.8916  1.3740
  219MOL0     H29499   6.253  10.015  -0.275  2.7727  0.7998 -0.6266
  219MOL0     H29500   5.961  10.010  -0.086  0.4214  0.6869 -0.6055
  219MOL0     H29501   5.891  10.173  -0.053  0.7963  0.6129 -0.0754
  219MOL0     H29502   5.811  10.180  -0.286 -3.0395  1.1101  2.0836
  219MOL0     H29503   5.873  10.019  -0.317 -0.2511  0.0073 -0.4512
  219MOL0     H29504   5.658  10.090  -0.108 -0.0005 -0.3348 -0.1357
  219MOL0     H29505   5.618  10.031  -0.271  0.6434 -0.2208 -0.4692
  219MOL0     H29506   5.693   9.820  -0.214 -0.5584 -0.7494  0.2704
  219MOL0     H29507   5.787   9.880  -0.068 -0.9720 -1.4148  1.2118
  219MOL0     H29508   5.560   9.926   0.022  1.2875 -1.3569  2.5252
  219MOL0     H29509   5.501   9.852  -0.139  3.0516  1.6712 -2.1279
  219MOL0     H29510   5.618   9.641  -0.080 -0.0764 -1.4334  1.6559
  219MOL0     H29511   5.679   9.713   0.064 -0.0411 -0.7968 -0.1148
  219MOL0     H29512   5.392   9.650  -0.013  2.4441 -0.2596 -1.7739
  219MOL0     H29513   5.487   9.551   0.100  3.1737  0.0724 -0.8077
  219MOL0     H29514   5.396   9.838   0.146 -0.2608  0.5630  0.6978
  219MOL0     H29515   5.496   9.723   0.255  2.2825  2.2554 -2.8489
  219MOL0     H29516   5.168   9.692   0.074  1.8701 -0.5059 -0.5686
  219MOL0     H29517   4.930   9.611   0.122  1.5268  0.7019  1.1790
  219MOL0     H29518   4.983   9.432   0.161  2.1472 -0.2972  0.9359
  219MOL0     H29519   4.872   9.423   0.357  1.2805 -0.3657 -1.1160
  219MOL0     H29520   4.759   9.509   0.255 -0.6451  1.4810 -0.4233
  219MOL0     H29521   4.876   9.724   0.327 -4.1378  1.8410 -0.0473
  219MOL0     H29522   4.900   9.628   0.482 -0.2107  2.3527  0.9441
  219MOL0     H29523   4.704   9.721   0.513  1.4352  0.7897 -1.1631
  219MOL0     H29524   4.642   9.570   0.437 -0.7306  0.6361  1.2860
  219MOL0     H29525   4.500   9.727   0.561  0.8189  0.1550 -1.0857
  219MOL0     H29526   4.239   9.914   0.703  0.2430  0.1286 -0.7021
  219MOL0     H29527   4.195   9.748   0.667 -0.0403  0.1135  3.1395
  219MOL0     H29528   4.359   9.797   0.726  0.4078 -0.1298 -0.3044
  219MOL0     H29529   3.962  10.162   0.530 -0.8770 -0.7388 -3.2059
  219MOL0     H29530   3.722  10.247   0.600 -1.9320 -0.6907 -2.3526
  219MOL0     H29531   3.383  10.071   0.496 -4.8638  1.0103 -0.0587
  219MOL0     H29532   3.390   9.935   0.601  0.2883  0.1350  0.5270
  219MOL0     H29533   3.287  10.087   0.803 -1.6627  0.1940 -0.0043
  219MOL0     H29534   3.295  10.212   0.683  2.1269 -1.2898 -0.6201
  219MOL0     H29535   3.113   9.974   0.651  2.8191  0.2877 -0.2775
  219MOL0     H29536   3.141  10.087   0.522  2.4929  1.0505 -0.6217
  219MOL0     H29537   3.045  10.134   0.810  1.9613  0.0154  0.5227
  219MOL0     H29538   3.057  10.267   0.703 -0.0146  0.3431  3.9635
  219MOL0     H29539   2.864  10.213   0.562  0.9821  0.0940 -1.0599
  219MOL0     H29540   2.819  10.192   0.730 -0.6465 -2.3204 -0.4581
  219MOL0     H29541   2.904   9.959   0.562 -0.4319  2.2348 -1.7346
  219MOL0     H29542   2.836   9.958   0.734 -1.1988  0.4385  0.5977
  219MOL0     H29543   2.666   9.886   0.577 -0.4564  0.4324 -3.8848
  219MOL0     H29544   2.700  10.030   0.474  0.4965  0.3673 -1.0800
  219MOL0     H29545   2.490  10.055   0.618 -0.6749  0.9677  1.1864
  219MOL0     H29546   2.613  10.180   0.644  1.2649 -1.0543  1.3819
  219MOL0     H29547   3.596   9.843   0.651 -0.1042 -0.6403 -3.7187
  219MOL0     H29548   3.830   9.760   0.604  1.7878  0.2860  1.0041
  219MOL0     H29549   4.248   9.950   0.196  2.6618  3.3968 -0.8252
  219MOL0     H29550   4.484   9.855   0.160  0.6510  0.2010 -0.2132
  219MOL0     H29551   6.104  10.212   0.085  1.1173 -0.9512  2.1633
  219MOL0     H29552   6.325  10.158   0.192  2.9672 -2.6596  0.4708
  219MOL0     H29553   6.783   9.913   0.041  0.1317  1.2669 -0.1278
  219MOL0     H29554   6.986   9.879   0.119  0.4373  0.7420 -0.2322
  219MOL0     H29555   7.269   9.814   0.392 -0.9464 -2.5129 -0.3780
  219MOL0     H29556   7.192   9.777   0.242  0.2207  2.5286 -1.6778
  219MOL0     H29557   7.165  10.047   0.350  0.3003 -0.3604  0.6698
  219MOL0     H29558   7.178  10.004   0.180  0.6836 -0.3618 -0.1872
  219MOL0     H29559   7.371  10.146   0.268  0.4594  0.6227  0.5343
  219MOL0     H29560   7.420   9.996   0.186 -0.3355 -0.8368  0.8286
  219MOL0     H29561   7.451   9.904   0.432 -3.7357  0.3326 -0.8915
  219MOL0     H29562   7.417  10.060   0.494 -0.4919 -0.0218  0.5938
  219MOL0     H29563   7.803  10.136   0.379  0.0161  0.6441 -0.3172
  219MOL0     H29564   6.871   9.913   0.527  0.1790  4.7133 -0.5490
  219MOL0     H29565   6.631   9.971   0.446  0.8022  1.5865  0.4694
  220MOL0     O29566   3.444   1.934   8.166  0.4491  0.2601  0.5216
  220MOL0     C29567   3.520   2.007   8.101 -0.2239 -0.0086 -0.0676
  220MOL0     O29568   3.483   2.106   8.011  0.0934 -0.2692  0.0717
  220MOL0     C29569   3.352   2.142   7.988 -0.1120 -0.2989 -0.2331
  220MOL0     C29570   3.248   2.156   8.080  0.1853  0.9634  0.4274
  220MOL0     C29571   3.114   2.194   8.056 -0.2950  0.0034  0.2036
  220MOL0     C29572   3.080   2.218   7.923 -0.9972  0.0850 -0.4121
  220MOL0     O29573   2.952   2.261   7.891 -0.4727  0.5043  0.3470
  220MOL0     C29574   2.902   2.216   7.760 -0.1972  0.4488 -0.2218
  220MOL0     C29575   2.749   2.190   7.759  0.0620 -1.0023  0.3544
  220MOL0     C29576   2.716   2.067   7.844 -0.0901 -0.2832  0.4822
  220MOL0     C29577   2.573   2.041   7.801  0.0690  0.1745  0.7065
  220MOL0     C29578   2.539   1.910   7.870  0.7739  0.0454 -0.3745
  220MOL0     C29579   2.384   1.870   7.842 -0.7689 -0.3336  0.5558
  220MOL0     C29580   2.362   1.723   7.896  0.1194 -0.3159 -0.0024
  220MOL0     C29581   2.259   1.647   7.817  0.0556 -0.5496 -1.0150
  220MOL0     N29582   2.133   1.708   7.827  0.4358 -0.0595 -0.6291
  220MOL0     C29583   2.049   1.709   7.941 -0.4404  0.4371 -0.1500
  220MOL0     C29584   1.926   1.738   7.892  0.2996  0.3641  0.8479
  220MOL0     C29585   1.809   1.762   7.968  1.3888  0.1408 -0.4611
  220MOL0     C29586   1.783   1.909   8.015  0.0827 -0.0978 -0.5337
  220MOL0     C29587   1.695   1.992   7.914  1.2581  0.9331  0.1609
  220MOL0     C29588   1.548   1.995   7.965 -0.4295  0.0897  1.3500
  220MOL0     O29589   1.542   2.085   8.072 -0.2441  0.5068 -0.0171
  220MOL0     C29590   1.422   2.129   8.117 -0.2861 -0.3365 -0.1589
  220MOL0     C29591   1.434   2.216   8.229  0.2236  0.5061  0.4640
  220MOL0     C29592   1.322   2.282   8.276  0.0911 -0.8914  0.1205
  220MOL0     C29593   1.326   2.353   8.410  0.5620 -0.0603 -0.2925
  220MOL0     C29594   1.198   2.254   8.214  1.2069 -0.3246 -0.2464
  220MOL0     C29595   1.075   2.328   8.252  0.3445 -0.1218 -0.2811
  220MOL0     O29596   1.025   2.318   8.381 -0.3383  0.7416  0.8540
  220MOL0     C29597   0.918   2.396   8.406  1.4900  0.2417  0.0927
  220MOL0     C29598   0.925   2.521   8.459 -0.6419  0.2534 -0.0652
  220MOL0     C29599   0.808   2.602   8.472  0.4043  0.6179 -0.0983
  220MOL0     C29600   0.690   2.557   8.423 -0.1340  0.3677  0.5154
  220MOL0     O29601   0.585   2.631   8.443  0.3728 -0.3911 -0.5869
  220MOL0     C29602   0.453   2.579   8.451 -1.5829 -0.0420  0.2137
  220MOL0     C29603   0.346   2.682   8.477 -0.3612  0.2519 -0.1345
  220MOL0     C29604   0.214   2.616   8.507  0.3170  1.2317  0.5601
  220MOL0     C29605   0.129   2.706   8.590 -0.3979  0.1497  0.1885
  220MOL0     C29606  -0.005   2.640   8.630 -0.5814  1.0239 -0.4751
  220MOL0     C29607  -0.080   2.726   8.731  0.0169  0.2768 -0.7421
  220MOL0     C29608  -0.200   2.646   8.760 -0.2521 -0.0676 -0.1679
  220MOL0     C29609  -0.274   2.711   8.878 -0.1299 -0.1203  0.5350
  220MOL0    Cl29610  -0.423   2.626   8.922  0.9506  0.4507  0.2074
  220MOL0     C29611   0.686   2.436   8.354  0.1376  0.6660 -0.3728
  220MOL0     C29612   0.792   2.348   8.355  0.0659  0.1274  0.5683
  220MOL0     O29613   1.036   2.402   8.169  0.6091 -0.4146  0.4425
  220MOL0     C29614   1.181   2.156   8.114 -0.2726 -0.2286 -0.4701
  220MOL0     C29615   1.297   2.102   8.060  0.2131 -0.7366  0.1626
  220MOL0     N29616   1.937   1.767   7.761 -0.6062  0.4331  0.4181
  220MOL0     N29617   2.061   1.756   7.725  0.1847 -0.0078  0.1636
  220MOL0     C29618   3.185   2.212   7.825 -1.3294 -0.0722  0.5802
  220MOL0     C29619   3.312   2.182   7.857  0.0673  0.4283 -0.1786
  220MOL0     C29620   3.668   1.983   8.128  0.4618  0.0834 -0.3810
  220MOL0     C29621   3.714   1.890   8.216 -0.3582  0.4003  0.2530
  220MOL0     C29622   3.847   1.865   8.241 -0.0565  0.4817  0.4877
  220MOL0     C29623   3.944   1.938   8.162  0.2237  0.1506 -1.0280
  220MOL0     O29624   4.081   1.936   8.181 -0.5578  0.6226 -0.4245
  220MOL0     C29625   4.133   1.831   8.274 -0.0320  0.6818 -0.9158
  220MOL0     C29626   4.284   1.835   8.291 -0.3316  0.4134 -1.3022
  220MOL0     C29627   4.334   1.772   8.431  0.1571 -0.8093  0.2336
  220MOL0     C29628   4.485   1.774   8.442 -0.1269 -0.7405 -0.2917
  220MOL0     C29629   4.533   1.917   8.471 -0.0401  0.6519  0.0072
  220MOL0     C29630   4.574   2.034   8.474  0.5000  0.0811  0.7495
  220MOL0     C29631   3.898   2.028   8.066  0.1407  1.0183 -0.4926
  220MOL0     C29632   3.765   2.044   8.040  0.2430  0.5033  0.1554
  220MOL0     H29633   3.270   2.126   8.182 -2.3994  1.7300  1.2920
  220MOL0     H29634   3.034   2.204   8.129 -0.0081  1.4078  0.3579
  220MOL0     H29635   2.933   2.295   7.691  0.2129 -0.2963 -0.9164
  220MOL0     H29636   2.948   2.118   7.743 -0.7177 -0.1073  1.4019
  220MOL0     H29637   2.704   2.283   7.797  0.0904 -0.8719  0.0679
  220MOL0     H29638   2.715   2.171   7.657  0.2639  1.6600 -0.2886
  220MOL0     H29639   2.789   1.985   7.840 -1.3903 -1.5995  1.9012
  220MOL0     H29640   2.717   2.087   7.952 -2.6573 -0.1746  0.5428
  220MOL0     H29641   2.510   2.126   7.828  1.1934  0.5441  2.2981
  220MOL0     H29642   2.549   2.018   7.697 -2.5495 -0.4113  1.3659
  220MOL0     H29643   2.594   1.836   7.812  2.3637  1.8307 -1.2293
  220MOL0     H29644   2.553   1.902   7.978  1.4357 -2.3313 -0.5723
  220MOL0     H29645   2.311   1.942   7.879 -0.9673  0.3902 -1.1485
  220MOL0     H29646   2.371   1.877   7.734 -0.5882 -0.3432  0.5326
  220MOL0     H29647   2.456   1.670   7.875 -0.3545 -0.2328 -2.7774
  220MOL0     H29648   2.346   1.719   8.004  2.2789  0.5633  0.4149
  220MOL0     H29649   2.254   1.542   7.848  1.3753 -0.1021  0.8947
  220MOL0     H29650   2.297   1.651   7.715  1.7134 -2.3491 -0.5240
  220MOL0     H29651   2.083   1.694   8.043 -0.8769 -2.0956 -0.3031
  220MOL0     H29652   1.715   1.726   7.924  1.1781 -2.5813  1.8988
  220MOL0     H29653   1.830   1.702   8.057  0.4426  1.6683  0.8547
  220MOL0     H29654   1.879   1.959   8.030  1.9419 -2.6648 -2.9714
  220MOL0     H29655   1.727   1.898   8.108  0.5965 -1.4180 -0.3675
  220MOL0     H29656   1.695   1.938   7.819 -0.2891 -1.1473  1.2721
  220MOL0     H29657   1.726   2.095   7.892  0.5511  1.3467  1.0043
  220MOL0     H29658   1.520   1.895   7.999 -1.2158  0.4417  1.7776
  220MOL0     H29659   1.498   2.016   7.870  1.5082 -0.3457  0.1745
  220MOL0     H29660   1.529   2.238   8.277  0.5199 -0.4157  0.3089
  220MOL0     H29661   1.426   2.352   8.454  0.8818 -0.5275 -1.0034
  220MOL0     H29662   1.286   2.453   8.390 -0.5377 -0.6964 -1.4970
  220MOL0     H29663   1.270   2.296   8.484  3.2795  0.8786  2.7088
  220MOL0     H29664   1.023   2.566   8.475  0.1115 -1.0996 -0.7190
  220MOL0     H29665   0.820   2.702   8.513 -0.8033  0.5465  0.4704
  220MOL0     H29666   0.427   2.529   8.358  1.4533 -0.7519 -0.3637
  220MOL0     H29667   0.450   2.504   8.531 -0.3130 -0.9216 -0.5359
  220MOL0     H29668   0.379   2.741   8.563 -0.8384 -1.9827  1.6891
  220MOL0     H29669   0.338   2.750   8.392  2.6507 -0.2552 -0.9218
  220MOL0     H29670   0.228   2.529   8.573 -0.5741 -2.4150 -3.6069
  220MOL0     H29671   0.167   2.592   8.412  1.0662  1.4172  0.1397
  220MOL0     H29672   0.188   2.718   8.681  0.3435 -6.2717  1.0689
  220MOL0     H29673   0.106   2.797   8.535 -0.7635 -1.4734 -2.5388
  220MOL0     H29674   0.023   2.544   8.676 -0.0310 -0.6057 -3.9204
  220MOL0     H29675  -0.052   2.621   8.533  2.0211  0.5467 -1.7433
  220MOL0     H29676  -0.018   2.745   8.819  2.0184  2.3220 -2.4704
  220MOL0     H29677  -0.104   2.823   8.687 -1.2657 -0.3002 -1.3430
  220MOL0     H29678  -0.177   2.543   8.789  0.2409  0.2469  0.5695
  220MOL0     H29679  -0.257   2.644   8.666  0.1029 -0.7371 -0.3730
  220MOL0     H29680  -0.286   2.817   8.857 -2.0581 -0.5173 -0.6253
  220MOL0     H29681  -0.213   2.712   8.970  0.5069 -1.2209  0.1502
  220MOL0     H29682   0.591   2.403   8.312  1.2396  0.2938 -2.7058
  220MOL0     H29683   0.787   2.261   8.291  0.2877  1.0408 -0.7122
  220MOL0     H29684   1.079   2.146   8.077 -0.8589  1.6077  0.5220
  220MOL0     H29685   1.287   2.038   7.973 -0.8872 -2.8281  1.7277
  220MOL0     H29686   3.169   2.230   7.719 -0.8233  0.9189  0.6573
  220MOL0     H29687   3.394   2.187   7.786  1.2092 -0.3510  1.0281
  220MOL0     H29688   3.639   1.823   8.255 -0.6826  0.2546 -0.6076
  220MOL0     H29689   3.877   1.781   8.303  3.0173  0.0612 -1.3653
  220MOL0     H29690   4.089   1.845   8.373 -1.3431  1.3740 -1.5786
  220MOL0     H29691   4.120   1.731   8.232  1.2138  0.3296 -0.5092
  220MOL0     H29692   4.305   1.942   8.304  1.3230 -0.0914  0.6879
  220MOL0     H29693   4.329   1.779   8.208 -2.4902 -0.5008 -1.9105
  220MOL0     H29694   4.298   1.669   8.443  0.2791 -0.5939  3.1333
  220MOL0     H29695   4.295   1.833   8.512  0.3580  0.0670 -0.3176
  220MOL0     H29696   4.528   1.740   8.347  1.7543 -2.2490  1.0006
  220MOL0     H29697   4.537   1.703   8.508  1.3792 -0.9109 -1.5850
  220MOL0     H29698   4.605   2.134   8.496 -0.9826  1.0803 -1.2864
  220MOL0     H29699   3.977   2.075   8.008  1.7648 -1.5032 -0.4895
  220MOL0     H29700   3.732   2.100   7.953 -2.1315 -0.2857  0.4719
  221MOL0     O29701   5.861   0.738   8.418 -1.0387  0.0106 -0.0359
  221MOL0     C29702   5.831   0.731   8.537  0.5031  0.6215 -0.3590
  221MOL0     O29703   5.706   0.710   8.580  0.8587 -0.5867 -0.3632
  221MOL0     C29704   5.622   0.638   8.503 -0.1959  0.0854 -0.0820
  221MOL0     C29705   5.658   0.533   8.414  0.0949 -0.6365 -0.4401
  221MOL0     C29706   5.555   0.463   8.357  0.6681 -0.1124  0.2104
  221MOL0     C29707   5.423   0.491   8.368 -0.0232 -0.3950  0.3095
  221MOL0     O29708   5.324   0.424   8.297 -0.1345 -0.3670 -0.4889
  221MOL0     C29709   5.362   0.344   8.184 -0.4507 -0.1070 -0.8905
  221MOL0     C29710   5.245   0.287   8.106 -0.4070  0.2165 -0.0426
  221MOL0     C29711   5.148   0.195   8.173  0.1689  0.2579  0.5394
  221MOL0     C29712   5.101   0.090   8.068 -0.4610  0.0902  0.2925
  221MOL0     C29713   4.967   0.025   8.106 -0.0494  0.3377  0.4290
  221MOL0     C29714   4.928  -0.093   8.021 -0.2485  0.4630 -0.1292
  221MOL0     C29715   4.801  -0.176   8.063  0.4772 -0.1577 -0.2457
  221MOL0     C29716   4.818  -0.273   8.184  0.4908 -0.2652 -0.2865
  221MOL0     N29717   4.711  -0.379   8.198  0.2965 -0.2762 -0.9086
  221MOL0     C29718   4.664  -0.433   8.315 -0.2150 -0.0203 -0.3932
  221MOL0     C29719   4.573  -0.521   8.279 -0.5590  0.1447  0.1495
  221MOL0     C29720   4.491  -0.603   8.379 -0.2291  0.2185  0.3102
  221MOL0     C29721   4.342  -0.604   8.345 -0.0547 -0.6557  0.3602
  221MOL0     C29722   4.257  -0.703   8.421 -0.3896  0.1591 -0.2432
  221MOL0     C29723   4.297  -0.847   8.406 -0.4714  0.3995 -0.1628
  221MOL0     O29724   4.253  -0.913   8.282  0.3381  0.4454  0.3791
  221MOL0     C29725   4.132  -0.982   8.271 -0.1747 -0.4810 -0.2614
  221MOL0     C29726   4.101  -1.037   8.151  0.5544  0.6850  0.3055
  221MOL0     C29727   3.974  -1.094   8.125 -0.2536  0.1946  0.0166
  221MOL0     C29728   3.942  -1.111   7.984  0.3491  0.0547 -0.0575
  221MOL0     C29729   3.882  -1.116   8.233  0.0114 -0.5149  0.5001
  221MOL0     C29730   3.748  -1.174   8.209 -0.1356  0.4253 -0.6504
  221MOL0     O29731   3.664  -1.153   8.322 -0.4007 -0.4818  0.9375
  221MOL0     C29732   3.531  -1.160   8.306 -0.2500  0.4692 -0.0698
  221MOL0     C29733   3.462  -1.161   8.179 -0.6459 -0.5532 -0.4165
  221MOL0     C29734   3.328  -1.195   8.168  1.6194 -0.5922  0.2627
  221MOL0     C29735   3.262  -1.230   8.283  0.8751  0.5123  0.0916
  221MOL0     O29736   3.137  -1.282   8.270 -0.0526 -0.4754  0.0497
  221MOL0     C29737   3.110  -1.408   8.329 -0.4572  0.2398 -0.7250
  221MOL0     C29738   3.006  -1.491   8.257  0.4763  0.2826 -0.7559
  221MOL0     C29739   2.870  -1.424   8.261 -0.2098  0.6583 -0.8090
  221MOL0     C29740   2.812  -1.425   8.403 -0.4733  0.2048 -0.0431
  221MOL0     C29741   2.661  -1.383   8.392  0.1646  0.0133 -0.2413
  221MOL0     C29742   2.613  -1.312   8.522 -0.2981  0.1069 -0.5502
  221MOL0     C29743   2.465  -1.290   8.527  1.0730 -0.4593  0.1301
  221MOL0     C29744   2.379  -1.411   8.570  0.4417 -1.2935  0.1788
  221MOL0    Cl29745   2.404  -1.453   8.737  0.0647 -0.0914 -0.2074
  221MOL0     C29746   3.323  -1.208   8.414  0.3145  0.4043 -0.1820
  221MOL0     C29747   3.458  -1.177   8.419  0.2833 -0.4533  0.6325
  221MOL0     O29748   3.727  -1.258   8.118  0.6207  0.4724  0.0869
  221MOL0     C29749   3.910  -1.045   8.350 -0.4603  0.5719 -0.3599
  221MOL0     C29750   4.036  -0.986   8.369  0.4985 -0.3215  0.0211
  221MOL0     N29751   4.561  -0.524   8.144 -0.6380  0.1986  0.0494
  221MOL0     N29752   4.651  -0.437   8.094  0.0213  0.4879 -1.0569
  221MOL0     C29753   5.391   0.606   8.446  0.2666 -0.7884  0.4913
  221MOL0     C29754   5.483   0.676   8.518 -0.2843  0.1966  0.7230
  221MOL0     C29755   5.930   0.756   8.633 -0.7358 -0.7025 -0.3620
  221MOL0     C29756   5.920   0.839   8.745 -0.4516  0.4186 -0.1496
  221MOL0     C29757   6.031   0.852   8.826 -0.3332 -0.4139 -0.2071
  221MOL0     C29758   6.157   0.800   8.802  0.0768  0.8393 -0.7202
  221MOL0     O29759   6.247   0.822   8.901  0.1848  0.0187 -0.2811
  221MOL0     C29760   6.380   0.817   8.863 -0.0063  0.1403  0.0737
  221MOL0     C29761   6.467   0.907   8.943 -0.0068  0.4977 -0.0297
  221MOL0     C29762   6.615   0.873   8.911 -0.4719  0.1486 -0.2499
  221MOL0     C29763   6.716   0.930   9.014  0.5486 -0.0907  0.5230
  221MOL0     C29764   6.852   0.928   8.958  0.0804  0.5695  0.0439
  221MOL0     C29765   6.964   0.924   8.906 -0.9586  0.7784 -0.4460
  221MOL0     C29766   6.169   0.732   8.686 -0.3754  0.0754  0.2160
  221MOL0     C29767   6.063   0.716   8.604  0.0651 -0.1640 -0.3288
  221MOL0     H29768   5.763   0.523   8.388  0.2557  2.1098 -1.1816
  221MOL0     H29769   5.583   0.387   8.284 -1.5229 -0.5577 -0.2415
  221MOL0     H29770   5.440   0.391   8.123 -1.1083  0.5038 -1.2871
  221MOL0     H29771   5.410   0.253   8.221 -0.0820 -1.4014 -4.2429
  221MOL0     H29772   5.179   0.372   8.086 -0.7747  0.4094  1.8172
  221MOL0     H29773   5.278   0.249   8.008  1.8881 -1.2636  1.2161
  221MOL0     H29774   5.196   0.145   8.258  2.4427  0.7625 -0.3869
  221MOL0     H29775   5.066   0.252   8.219  1.1353  1.3457  0.9627
  221MOL0     H29776   5.083   0.139   7.972  1.5188 -0.1305 -0.2393
  221MOL0     H29777   5.178   0.013   8.057 -0.5444  0.3298 -2.6104
  221MOL0     H29778   4.984  -0.006   8.210 -1.4529 -3.8169 -0.3882
  221MOL0     H29779   4.878   0.089   8.106 -0.9156 -0.7697  2.7241
  221MOL0     H29780   4.899  -0.053   7.923 -2.2373  1.7557  0.9048
  221MOL0     H29781   5.015  -0.159   8.012 -1.0558 -0.9680  1.8285
  221MOL0     H29782   4.708  -0.121   8.082 -0.4453 -1.3389 -1.1583
  221MOL0     H29783   4.791  -0.235   7.971  3.0058  0.4012 -0.9524
  221MOL0     H29784   4.820  -0.221   8.281 -2.2213  2.3460 -1.5057
  221MOL0     H29785   4.908  -0.335   8.171  0.6201  0.2280 -1.8371
  221MOL0     H29786   4.699  -0.410   8.415 -4.8541  0.8561  1.2854
  221MOL0     H29787   4.533  -0.704   8.383 -3.9222 -1.4142  2.7652
  221MOL0     H29788   4.497  -0.543   8.469 -1.6610  3.4403 -1.5645
  221MOL0     H29789   4.336  -0.639   8.241 -2.7724  2.1870 -0.5792
  221MOL0     H29790   4.298  -0.504   8.345 -0.5283 -0.8657  0.6866
  221MOL0     H29791   4.151  -0.694   8.396 -0.4973 -2.7593 -1.0932
  221MOL0     H29792   4.271  -0.677   8.527  0.8375  2.1520 -0.8288
  221MOL0     H29793   4.258  -0.901   8.494  0.7173 -0.4470 -0.1330
  221MOL0     H29794   4.406  -0.855   8.401 -0.4780  1.0490 -2.0992
  221MOL0     H29795   4.165  -1.021   8.065  0.3328  2.3882  0.4351
  221MOL0     H29796   3.839  -1.082   7.962 -0.1148 -1.8623 -0.5986
  221MOL0     H29797   4.003  -1.052   7.915 -1.4169  0.8904 -0.9862
  221MOL0     H29798   3.942  -1.217   7.957  1.5660  0.2471 -0.8816
  221MOL0     H29799   3.517  -1.154   8.086 -2.7650 -0.0702 -1.7053
  221MOL0     H29800   3.286  -1.202   8.069  1.4643 -2.0330  0.4215
  221MOL0     H29801   3.197  -1.474   8.325 -1.8860 -1.7161 -0.6642
  221MOL0     H29802   3.077  -1.391   8.432 -1.1406  4.2655 -1.4387
  221MOL0     H29803   3.026  -1.511   8.151 -0.4352  0.3921 -0.9519
  221MOL0     H29804   3.000  -1.589   8.306 -0.4747  0.9643  0.5483
  221MOL0     H29805   2.802  -1.464   8.186  2.2060 -0.7707 -2.3916
  221MOL0     H29806   2.885  -1.318   8.237 -0.8216  1.5165  2.0853
  221MOL0     H29807   2.822  -1.526   8.441  1.4611  0.5812  0.5621
  221MOL0     H29808   2.868  -1.358   8.469  0.9922  0.9870 -1.9571
  221MOL0     H29809   2.598  -1.471   8.379 -0.1993  0.2446 -0.0859
  221MOL0     H29810   2.647  -1.318   8.305  0.7084 -1.6302 -1.6164
  221MOL0     H29811   2.652  -1.366   8.609 -0.4086 -0.6415 -0.9630
  221MOL0     H29812   2.654  -1.211   8.532  0.0389  0.0514 -1.3559
  221MOL0     H29813   2.445  -1.263   8.423  0.5971 -0.8496  0.1150
  221MOL0     H29814   2.448  -1.203   8.590 -0.1873  0.4555 -1.4049
  221MOL0     H29815   2.409  -1.493   8.503 -2.1992 -0.3095 -2.4389
  221MOL0     H29816   2.276  -1.380   8.550  1.6171  2.1246 -1.2672
  221MOL0     H29817   3.265  -1.232   8.502 -1.8603  1.8408 -1.1073
  221MOL0     H29818   3.502  -1.177   8.518 -1.8247 -1.5471  1.6480
  221MOL0     H29819   3.847  -1.062   8.436 -0.6699  0.8058 -0.4651
  221MOL0     H29820   4.063  -0.940   8.464 -1.1437  3.8173 -1.3075
  221MOL0     H29821   5.290   0.639   8.468  1.2279  1.4942  1.8274
  221MOL0     H29822   5.452   0.760   8.578 -1.0496  1.8540 -1.8173
  221MOL0     H29823   5.826   0.890   8.766 -0.3643  1.4236 -1.9423
  221MOL0     H29824   6.001   0.907   8.914  0.3385 -2.3580  1.3055
  221MOL0     H29825   6.415   0.714   8.874  2.9123  0.8606 -1.5291
  221MOL0     H29826   6.392   0.842   8.757  0.6848  0.8037  0.3042
  221MOL0     H29827   6.454   0.888   9.050 -1.1690 -1.5869 -0.4912
  221MOL0     H29828   6.442   1.011   8.922 -4.6936  0.0037  1.8813
  221MOL0     H29829   6.629   0.906   8.808 -2.1595 -2.7793 -1.5487
  221MOL0     H29830   6.621   0.763   8.911 -2.4860 -0.0033 -0.1886
  221MOL0     H29831   6.711   0.875   9.108 -1.9514  0.4912  0.8071
  221MOL0     H29832   6.685   1.034   9.031  1.7137  0.5670 -1.1759
  221MOL0     H29833   7.064   0.925   8.868 -1.1061 -1.5686 -1.0551
  221MOL0     H29834   6.266   0.700   8.647 -0.5100  0.2461 -0.2646
  221MOL0     H29835   6.080   0.661   8.511 -2.2939 -0.0477 -0.8947
  222MOL0     O29836  10.420   5.289   0.117  0.0484 -0.0346 -0.9327
  222MOL0     C29837  10.401   5.387   0.191 -0.1507 -0.2346  0.0984
  222MOL0     O29838  10.278   5.425   0.247  0.0546 -0.1388 -0.1500
  222MOL0     C29839  10.168   5.351   0.245  0.0331  1.2957  0.1971
  222MOL0     C29840  10.177   5.209   0.248  0.0597  0.8365  0.8230
  222MOL0     C29841  10.057   5.136   0.254  0.3139 -0.2854  0.7186
  222MOL0     C29842   9.934   5.203   0.248 -0.2224  0.6123 -0.4181
  222MOL0     O29843   9.817   5.138   0.251  0.0571  0.2402  0.4717
  222MOL0     C29844   9.739   5.151   0.139  0.0143  0.2503  0.1978
  222MOL0     C29845   9.614   5.056   0.166  0.3042 -0.0267 -0.6260
  222MOL0     C29846   9.513   5.109   0.267 -0.0550 -0.5344 -0.7325
  222MOL0     C29847   9.380   5.028   0.282 -0.1759 -0.9819  0.2186
  222MOL0     C29848   9.292   5.093   0.388  0.2315 -0.2344  0.1853
  222MOL0     C29849   9.167   5.009   0.431  0.2676 -0.3951  0.0216
  222MOL0     C29850   9.075   4.968   0.318 -0.0460  0.1213  0.3062
  222MOL0     C29851   8.947   4.914   0.385 -0.8827 -0.5554  0.1490
  222MOL0     N29852   8.854   4.859   0.289  0.0935  0.3074 -0.1859
  222MOL0     C29853   8.823   4.921   0.173  0.0886  1.0034  0.4576
  222MOL0     C29854   8.729   4.838   0.116  0.2094  0.3339  0.3634
  222MOL0     C29855   8.685   4.839  -0.031  0.3198  0.6646  0.5778
  222MOL0     C29856   8.542   4.792  -0.052 -0.6203 -0.6300 -0.4701
  222MOL0     C29857   8.521   4.639  -0.078 -0.5039 -0.1562  0.2155
  222MOL0     C29858   8.382   4.594  -0.123  0.0576  0.4343  0.4306
  222MOL0     O29859   8.342   4.657  -0.243  0.2245 -0.3915  0.1272
  222MOL0     C29860   8.386   4.602  -0.356 -0.0241  0.5937  0.5023
  222MOL0     C29861   8.324   4.491  -0.414  0.0270 -0.0246 -1.0497
  222MOL0     C29862   8.360   4.442  -0.542 -0.4179  0.0848  0.3653
  222MOL0     C29863   8.281   4.320  -0.583  0.1943  0.0836  0.2408
  222MOL0     C29864   8.467   4.498  -0.616 -0.1242  0.4881 -0.0547
  222MOL0     C29865   8.514   4.446  -0.751 -0.3177 -0.3970 -0.7630
  222MOL0     O29866   8.610   4.520  -0.802 -0.0746  0.5520  0.0382
  222MOL0     C29867   8.694   4.478  -0.900  0.6090 -1.0386 -1.0382
  222MOL0     C29868   8.810   4.401  -0.858  0.2885 -0.6975 -0.3738
  222MOL0     C29869   8.905   4.369  -0.954 -0.3093 -0.6931 -0.6035
  222MOL0     C29870   8.895   4.418  -1.086 -0.7519  0.6973  0.2318
  222MOL0     O29871   8.978   4.380  -1.189  0.9531 -1.0125 -0.0157
  222MOL0     C29872   9.082   4.287  -1.174 -0.6613  1.0862 -0.4870
  222MOL0     C29873   9.182   4.302  -1.289  0.2538 -0.5949 -0.3858
  222MOL0     C29874   9.132   4.279  -1.431 -0.1087  0.4578 -1.2089
  222MOL0     C29875   9.084   4.136  -1.459  0.2609 -0.3015 -0.3932
  222MOL0     C29876   9.056   4.119  -1.606  0.3944 -0.3650  0.6325
  222MOL0     C29877   9.053   3.975  -1.650  1.0781 -0.8531 -0.4194
  222MOL0     C29878   8.969   3.876  -1.569 -0.4861  0.4154 -0.4365
  222MOL0     C29879   8.828   3.914  -1.552  0.1177  0.1183 -0.4692
  222MOL0    Cl29880   8.751   3.767  -1.486 -0.5209  0.1430  0.5462
  222MOL0     C29881   8.791   4.495  -1.125  0.5925 -0.2846  0.2717
  222MOL0     C29882   8.690   4.527  -1.039  0.4906  0.8557 -0.3012
  222MOL0     O29883   8.460   4.350  -0.800  0.5952 -0.4071  0.5922
  222MOL0     C29884   8.518   4.618  -0.556 -1.3432 -0.0068 -0.9203
  222MOL0     C29885   8.482   4.659  -0.428  0.1031  0.1662 -0.2525
  222MOL0     N29886   8.704   4.727   0.204 -0.5752  0.1910  0.2577
  222MOL0     N29887   8.780   4.738   0.305  0.8443 -0.2299 -0.5563
  222MOL0     C29888   9.928   5.342   0.246 -0.1215 -0.0173 -1.1221
  222MOL0     C29889  10.046   5.410   0.238  0.4200 -0.0626  1.0330
  222MOL0     C29890  10.518   5.481   0.202  0.4590 -0.2741  0.4460
  222MOL0     C29891  10.496   5.598   0.284 -0.8465 -0.1512  0.6231
  222MOL0     C29892  10.603   5.680   0.302  0.2271 -0.2667  0.7775
  222MOL0     C29893  10.731   5.668   0.241 -0.1024  0.2956  0.3974
  222MOL0     O29894  10.825   5.765   0.273  0.2938  0.0928  0.0334
  222MOL0     C29895  10.954   5.767   0.220 -0.2779  0.1771 -0.3013
  222MOL0     C29896  10.954   5.820   0.075  0.0973 -0.3631  0.5830
  222MOL0     C29897  11.090   5.787   0.010 -0.2111  0.4255 -0.5411
  222MOL0     C29898  11.098   5.823  -0.144 -0.6195 -0.2143 -0.3130
  222MOL0     C29899  11.077   5.697  -0.220 -0.6143  0.2282  0.9788
  222MOL0     C29900  11.045   5.594  -0.285 -0.3014 -0.8003 -0.4052
  222MOL0     C29901  10.756   5.548   0.176 -0.6720  0.2412 -0.1099
  222MOL0     C29902  10.650   5.455   0.154 -0.5123  0.2558  0.2604
  222MOL0     H29903  10.276   5.164   0.248  0.2904  1.2040 -2.1186
  222MOL0     H29904  10.060   5.030   0.277  0.8049 -0.8818 -1.7877
  222MOL0     H29905   9.702   5.252   0.120  3.2377  1.7184  0.9179
  222MOL0     H29906   9.793   5.112   0.052  3.8449 -0.1364  2.5109
  222MOL0     H29907   9.562   5.028   0.074 -0.6125 -1.9971  0.4233
  222MOL0     H29908   9.655   4.965   0.212 -0.5999 -0.0241  0.2297
  222MOL0     H29909   9.560   5.109   0.365  1.0367 -0.9677 -1.2337
  222MOL0     H29910   9.484   5.210   0.237 -0.5490 -1.8023 -5.3761
  222MOL0     H29911   9.323   5.035   0.189  1.5066 -1.0932 -0.8737
  222MOL0     H29912   9.391   4.924   0.311 -2.4617 -1.8991 -1.9119
  222MOL0     H29913   9.345   5.123   0.479  0.1797 -0.5990  0.3351
  222MOL0     H29914   9.260   5.185   0.339 -0.3751 -0.1277  0.7721
  222MOL0     H29915   9.207   4.923   0.484  0.0790 -0.3488  0.2407
  222MOL0     H29916   9.107   5.057   0.508  0.1630  1.2814 -1.0515
  222MOL0     H29917   9.053   5.052   0.252  0.3806  1.3500  1.6655
  222MOL0     H29918   9.107   4.884   0.256 -1.5999  0.2297 -0.6812
  222MOL0     H29919   8.886   4.996   0.424 -1.3676 -0.1738 -1.3188
  222MOL0     H29920   8.969   4.845   0.467  2.0427  1.8077  1.5411
  222MOL0     H29921   8.880   5.008   0.141  3.2303 -1.3134 -0.7776
  222MOL0     H29922   8.683   4.941  -0.070 -1.5339 -0.0843 -1.4941
  222MOL0     H29923   8.755   4.772  -0.080  1.1574 -0.0192  2.6328
  222MOL0     H29924   8.514   4.835  -0.149 -1.9851  1.2638  0.7018
  222MOL0     H29925   8.473   4.830   0.023  3.5171 -0.1306  3.5116
  222MOL0     H29926   8.533   4.597   0.022  1.5925  0.0368  0.0937
  222MOL0     H29927   8.604   4.591  -0.132  0.6266 -0.9367  2.5479
  222MOL0     H29928   8.318   4.628  -0.042 -0.1398  0.0035  0.4532
  222MOL0     H29929   8.383   4.485  -0.129 -1.4011  0.1295  3.8007
  222MOL0     H29930   8.242   4.444  -0.361  1.4886 -1.8602 -0.3365
  222MOL0     H29931   8.181   4.301  -0.543 -0.6218  1.2438 -1.1319
  222MOL0     H29932   8.259   4.340  -0.689 -0.2406  1.8718  0.6276
  222MOL0     H29933   8.332   4.223  -0.578 -1.2642 -0.6693  1.0955
  222MOL0     H29934   8.814   4.380  -0.752 -3.0229  0.3442  0.0736
  222MOL0     H29935   8.986   4.311  -0.909 -1.9901 -0.9231  2.3858
  222MOL0     H29936   9.134   4.314  -1.082 -2.0471  2.9016 -0.1732
  222MOL0     H29937   9.030   4.190  -1.177  0.8838  0.2253 -0.4410
  222MOL0     H29938   9.217   4.405  -1.280  0.7294 -0.8280  0.5486
  222MOL0     H29939   9.265   4.232  -1.274 -1.6731 -2.5037  2.3155
  222MOL0     H29940   9.225   4.305  -1.483  0.1550 -2.1445 -2.1902
  222MOL0     H29941   9.059   4.354  -1.466 -2.5205 -0.8465  0.7409
  222MOL0     H29942   9.163   4.072  -1.419 -0.7340 -0.1848  1.8835
  222MOL0     H29943   8.994   4.118  -1.400  0.1833  1.1115 -0.0586
  222MOL0     H29944   9.141   4.162  -1.659  0.2096 -0.2916  0.3955
  222MOL0     H29945   8.965   4.175  -1.626  0.9333  1.5608  3.0592
  222MOL0     H29946   9.024   3.954  -1.753 -1.5721  0.1501  0.0349
  222MOL0     H29947   9.156   3.940  -1.642  1.3687  0.0720 -0.0849
  222MOL0     H29948   9.016   3.861  -1.471  2.2432 -2.0775 -1.9903
  222MOL0     H29949   8.980   3.783  -1.624 -0.4224  0.3561 -0.3232
  222MOL0     H29950   8.779   3.932  -1.648  0.8329  0.4110 -0.7916
  222MOL0     H29951   8.815   4.000  -1.486 -1.2704 -1.4083  1.3472
  222MOL0     H29952   8.794   4.530  -1.228  0.4836 -2.4983 -0.5562
  222MOL0     H29953   8.605   4.585  -1.074 -0.2743 -0.2584 -0.3487
  222MOL0     H29954   8.598   4.665  -0.612 -0.2478 -0.7077  0.0150
  222MOL0     H29955   8.540   4.743  -0.390 -0.3748  0.1359  0.5545
  222MOL0     H29956   9.832   5.392   0.247  0.3238  0.9680  1.4600
  222MOL0     H29957  10.033   5.517   0.222 -0.0411 -0.4887 -2.2797
  222MOL0     H29958  10.399   5.630   0.319 -1.5382  0.6634 -1.8663
  222MOL0     H29959  10.591   5.773   0.357  1.3801  1.8612 -2.2870
  222MOL0     H29960  11.022   5.831   0.278 -1.2185  0.3640  0.6232
  222MOL0     H29961  10.997   5.666   0.213 -1.3692 -0.4366  1.3864
  222MOL0     H29962  10.951   5.930   0.079  0.0464 -0.2416 -1.6963
  222MOL0     H29963  10.875   5.784   0.008 -0.1672  1.5216 -0.1819
  222MOL0     H29964  11.109   5.680   0.021 -1.2707  0.2283 -0.5106
  222MOL0     H29965  11.171   5.840   0.061 -1.2758 -0.3958  2.2301
  222MOL0     H29966  11.189   5.877  -0.169 -0.4558 -0.3318  0.0204
  222MOL0     H29967  11.006   5.880  -0.160 -0.5830  0.9921  3.0379
  222MOL0     H29968  11.030   5.504  -0.341  1.7247 -0.2142 -2.0214
  222MOL0     H29969  10.853   5.518   0.136 -0.8207  1.0466 -1.1038
  222MOL0     H29970  10.668   5.362   0.101 -0.3815  1.0683 -1.1726
  223MOL0     O29971   8.970   7.443   6.737 -0.5093 -0.0371  0.4336
  223MOL0     C29972   9.027   7.355   6.799  0.5250  0.2467 -0.5323
  223MOL0     O29973   9.009   7.221   6.779  0.1318  0.4141 -0.6200
  223MOL0     C29974   8.942   7.198   6.666  0.1291 -0.5322  0.5546
  223MOL0     C29975   9.021   7.178   6.553 -0.2394  0.7672 -0.0306
  223MOL0     C29976   8.958   7.158   6.433  0.0649 -0.0072 -0.0097
  223MOL0     C29977   8.820   7.144   6.420 -0.0162  0.7791 -0.2693
  223MOL0     O29978   8.774   7.096   6.298 -0.1354 -1.1958 -0.2653
  223MOL0     C29979   8.639   7.113   6.252 -1.6019  0.2889 -0.1508
  223MOL0     C29980   8.618   7.003   6.144  0.7843  0.5658 -0.0043
  223MOL0     C29981   8.476   7.010   6.078 -0.0927 -0.2828 -1.1134
  223MOL0     C29982   8.463   6.918   5.958  0.2111 -0.6135 -0.6520
  223MOL0     C29983   8.326   6.928   5.906  0.0895  0.1523 -0.7766
  223MOL0     C29984   8.219   6.885   6.001 -0.0148 -0.7869  0.6353
  223MOL0     C29985   8.080   6.858   5.931  0.0730  0.3439 -0.4246
  223MOL0     C29986   8.071   6.714   5.885  0.6653  0.7073  0.3970
  223MOL0     N29987   7.932   6.677   5.847 -0.1298 -0.1101 -0.5331
  223MOL0     C29988   7.840   6.757   5.787  1.4143 -0.4361 -0.5493
  223MOL0     C29989   7.726   6.677   5.785  0.4177 -0.1746  0.3080
  223MOL0     C29990   7.588   6.728   5.761  0.6701  0.3560 -0.0389
  223MOL0     C29991   7.506   6.736   5.895 -0.8592  0.3768 -0.3316
  223MOL0     C29992   7.356   6.772   5.857  0.2683  0.2474  0.2042
  223MOL0     C29993   7.275   6.769   5.989 -0.5298 -0.0187 -0.1328
  223MOL0     O29994   7.140   6.789   5.952 -0.1814 -0.1506 -0.1142
  223MOL0     C29995   7.050   6.799   6.056 -0.2620 -0.1232 -0.3290
  223MOL0     C29996   7.080   6.790   6.192  0.2679 -0.4065  0.1162
  223MOL0     C29997   6.975   6.770   6.281  0.4310  1.2546  0.4287
  223MOL0     C29998   7.015   6.770   6.430  0.5671  0.7462  0.2498
  223MOL0     C29999   6.838   6.764   6.238 -0.5054 -0.7558  0.4488
  223MOL0     C30000   6.729   6.712   6.330 -0.1530 -0.1535  0.6001
  223MOL0     O30001   6.600   6.768   6.298 -0.0575 -0.0174 -0.1301
  223MOL0     C30002   6.514   6.756   6.403  0.0236  0.0330  0.2384
  223MOL0     C30003   6.535   6.779   6.539 -0.9264  0.2971 -0.0340
  223MOL0     C30004   6.429   6.774   6.629  0.7889  0.3413 -0.0296
  223MOL0     C30005   6.297   6.733   6.579  0.3761  0.1401  0.0509
  223MOL0     O30006   6.182   6.747   6.657  0.1419 -0.1857 -0.0603
  223MOL0     C30007   6.192   6.691   6.790 -0.5401 -0.3376  0.2555
  223MOL0     C30008   6.050   6.648   6.828  0.5643 -0.7949  0.4493
  223MOL0     C30009   5.967   6.780   6.816 -0.5342  0.7630 -0.1682
  223MOL0     C30010   5.818   6.766   6.880  0.4891  0.2506 -0.3563
  223MOL0     C30011   5.730   6.879   6.844 -0.1309 -0.6158  0.2702
  223MOL0     C30012   5.800   7.017   6.860  0.2720 -0.5067  0.2685
  223MOL0     C30013   5.688   7.138   6.858  0.4353 -0.7062  0.1644
  223MOL0     C30014   5.742   7.265   6.808 -0.4041  0.2163 -0.6333
  223MOL0    Cl30015   5.627   7.402   6.818  0.5130  0.0929 -0.5258
  223MOL0     C30016   6.287   6.707   6.437  0.3936  0.3803 -0.0536
  223MOL0     C30017   6.392   6.723   6.350  0.0399  0.5015 -1.1256
  223MOL0     O30018   6.756   6.634   6.428  0.4085  0.3927  0.4030
  223MOL0     C30019   6.809   6.796   6.102  0.9435  0.4410 -0.1507
  223MOL0     C30020   6.919   6.812   6.021  0.3470 -0.6012 -0.1003
  223MOL0     N30021   7.753   6.557   5.845 -0.8608 -0.8476  0.2425
  223MOL0     N30022   7.875   6.556   5.864 -1.1107 -0.0653 -0.0892
  223MOL0     C30023   8.739   7.162   6.535  0.9742  0.4909  0.0921
  223MOL0     C30024   8.800   7.198   6.655 -0.0998  0.7829 -0.5144
  223MOL0     C30025   9.110   7.402   6.909 -0.0776 -0.4489  0.5192
  223MOL0     C30026   9.118   7.546   6.941  0.8907 -0.4893  0.0471
  223MOL0     C30027   9.193   7.576   7.055 -0.1778 -0.2349  0.0885
  223MOL0     C30028   9.268   7.480   7.121 -0.3298 -0.0576 -0.0180
  223MOL0     O30029   9.346   7.493   7.235  0.7030 -0.2702 -0.2727
  223MOL0     C30030   9.394   7.631   7.250 -0.0985  0.3755  0.6157
  223MOL0     C30031   9.490   7.620   7.367  0.7282 -0.5954 -0.8379
  223MOL0     C30032   9.596   7.516   7.357  0.6329  0.0249 -0.8646
  223MOL0     C30033   9.726   7.575   7.418 -0.5764 -0.0341  1.2305
  223MOL0     C30034   9.842   7.482   7.391  0.5398  1.0583 -0.5324
  223MOL0     C30035   9.930   7.413   7.338  0.1412  0.2549 -0.2977
  223MOL0     C30036   9.267   7.350   7.079  0.2292 -0.3516 -0.0256
  223MOL0     C30037   9.184   7.305   6.981 -0.0741  0.6252  0.2517
  223MOL0     H30038   9.129   7.176   6.537 -0.4747 -3.4503 -2.6627
  223MOL0     H30039   9.020   7.138   6.347 -0.9991 -3.3896 -0.1370
  223MOL0     H30040   8.562   7.105   6.329  0.3575 -2.7913  1.7162
  223MOL0     H30041   8.629   7.212   6.208  2.4593  1.3583  0.9141
  223MOL0     H30042   8.689   7.015   6.061  0.9397 -0.5811 -0.0531
  223MOL0     H30043   8.638   6.904   6.186  0.8318 -0.0425 -1.3922
  223MOL0     H30044   8.412   6.971   6.158  2.7853 -1.1205  0.9304
  223MOL0     H30045   8.429   7.107   6.055 -3.1073 -1.7509 -1.6627
  223MOL0     H30046   8.534   6.959   5.885  0.9079  1.3095  0.9928
  223MOL0     H30047   8.493   6.816   5.982  0.2632 -0.5233 -0.3228
  223MOL0     H30048   8.308   7.030   5.871 -3.3897  0.1009  0.5082
  223MOL0     H30049   8.321   6.853   5.827 -1.3836 -2.9489  2.0250
  223MOL0     H30050   8.250   6.800   6.064 -0.7570 -0.7596  1.0550
  223MOL0     H30051   8.195   6.966   6.071 -3.1536 -0.7522 -0.3406
  223MOL0     H30052   8.002   6.888   6.002  2.5234  0.3049  2.4945
  223MOL0     H30053   8.070   6.922   5.843 -2.0508 -0.2917 -0.6981
  223MOL0     H30054   8.114   6.640   5.953  3.8813  2.9984  1.0716
  223MOL0     H30055   8.132   6.714   5.794 -0.9672 -1.1559 -0.7863
  223MOL0     H30056   7.850   6.861   5.757 -0.4584 -0.7126 -2.3645
  223MOL0     H30057   7.602   6.829   5.723  1.4016 -0.4718 -2.1373
  223MOL0     H30058   7.542   6.663   5.686 -1.2338  1.5946  0.0006
  223MOL0     H30059   7.561   6.791   5.972  3.8808 -2.7513 -1.0855
  223MOL0     H30060   7.503   6.634   5.936  1.4900  1.2042  2.2099
  223MOL0     H30061   7.317   6.699   5.785  0.3068  0.2068  0.2246
  223MOL0     H30062   7.364   6.875   5.820 -1.0565  0.3742  0.2195
  223MOL0     H30063   7.314   6.849   6.054  1.9893 -0.7288 -0.6944
  223MOL0     H30064   7.284   6.671   6.037 -2.1644  1.7771  4.4141
  223MOL0     H30065   7.183   6.783   6.225  1.4980  0.7914 -3.0312
  223MOL0     H30066   6.996   6.671   6.472 -2.8955  1.4073  0.5448
  223MOL0     H30067   7.121   6.794   6.443  1.4210 -0.2316 -3.5105
  223MOL0     H30068   6.950   6.841   6.481  0.6538  1.9366 -1.2145
  223MOL0     H30069   6.632   6.810   6.575 -1.3137  0.0235  1.2962
  223MOL0     H30070   6.444   6.817   6.728 -0.1811  3.2501 -1.0517
  223MOL0     H30071   6.253   6.601   6.809  1.4686  1.2115  1.7158
  223MOL0     H30072   6.223   6.766   6.863 -1.3675  0.1709  0.0859
  223MOL0     H30073   6.026   6.571   6.754 -1.1165  0.4315 -0.3382
  223MOL0     H30074   6.047   6.607   6.929  3.0546  0.7710  1.2666
  223MOL0     H30075   5.959   6.809   6.711 -0.5957  0.3413 -0.2814
  223MOL0     H30076   6.024   6.857   6.870  0.3630  0.4120 -0.5850
  223MOL0     H30077   5.771   6.676   6.838  0.9557  0.4295 -1.2894
  223MOL0     H30078   5.817   6.759   6.989 -0.6408  2.4501 -0.1646
  223MOL0     H30079   5.635   6.874   6.898  0.8227  2.0742  2.4557
  223MOL0     H30080   5.694   6.882   6.741 -0.8626  1.2636  0.5354
  223MOL0     H30081   5.854   7.023   6.955 -0.0379  0.1683  0.4095
  223MOL0     H30082   5.872   7.026   6.778  2.3419 -1.7848  1.8453
  223MOL0     H30083   5.649   7.141   6.960 -0.3499  1.6945 -0.1294
  223MOL0     H30084   5.608   7.110   6.789  1.4317  1.3520 -2.0066
  223MOL0     H30085   5.761   7.256   6.701  0.3487 -0.1947 -0.4777
  223MOL0     H30086   5.839   7.285   6.855 -1.9856  2.3832  2.0164
  223MOL0     H30087   6.195   6.668   6.396 -0.2269  3.1439 -1.4640
  223MOL0     H30088   6.384   6.722   6.242  1.7718  2.1962 -1.3179
  223MOL0     H30089   6.707   6.793   6.064  0.4461 -2.7428  1.0690
  223MOL0     H30090   6.887   6.824   5.918  0.5109  1.1317  0.0206
  223MOL0     H30091   8.632   7.147   6.540  0.6518  1.4003 -2.4419
  223MOL0     H30092   8.740   7.237   6.736  0.4043 -0.9947  0.7734
  223MOL0     H30093   9.051   7.616   6.891 -0.1196  0.5540  2.7185
  223MOL0     H30094   9.195   7.678   7.093 -2.5376 -0.4445  0.8901
  223MOL0     H30095   9.450   7.675   7.167  2.0179 -1.1655  1.1188
  223MOL0     H30096   9.310   7.697   7.272 -0.4243  0.8804 -1.8545
  223MOL0     H30097   9.427   7.602   7.455  0.8033  1.9545 -0.1756
  223MOL0     H30098   9.542   7.714   7.386 -0.0014 -0.2565 -0.4802
  223MOL0     H30099   9.618   7.478   7.257 -1.7060 -1.2564 -0.9588
  223MOL0     H30100   9.561   7.433   7.420  1.4015 -0.3373 -0.9007
  223MOL0     H30101   9.718   7.602   7.524  0.8989  5.4954  0.2551
  223MOL0     H30102   9.754   7.670   7.372  0.3927 -1.6755 -1.8743
  223MOL0     H30103  10.005   7.358   7.286 -0.6091  1.3796 -2.6886
  223MOL0     H30104   9.327   7.271   7.123  2.0798  1.6873  1.3089
  223MOL0     H30105   9.189   7.201   6.952  0.7432  0.7791 -0.1853
  224MOL0     O30106   6.052   4.899   8.242  0.0331  0.1621  0.0882
  224MOL0     C30107   6.099   4.978   8.326 -1.0363 -0.5594  0.2269
  224MOL0     O30108   6.044   5.094   8.375 -0.0297  0.0695 -0.8652
  224MOL0     C30109   5.917   5.132   8.333  0.0624  0.4210  0.8850
  224MOL0     C30110   5.909   5.266   8.285  0.8770  0.7374  0.4236
  224MOL0     C30111   5.781   5.302   8.241  0.0357 -0.3877 -0.9513
  224MOL0     C30112   5.676   5.209   8.231  0.2241 -0.6599  0.6759
  224MOL0     O30113   5.571   5.247   8.151  0.2667  0.5941 -0.6553
  224MOL0     C30114   5.439   5.219   8.198 -0.1942 -0.5412 -0.7124
  224MOL0     C30115   5.334   5.279   8.100  0.0322 -0.0057  0.6292
  224MOL0     C30116   5.194   5.221   8.128 -0.1616  0.1365 -0.4371
  224MOL0     C30117   5.095   5.295   8.042 -0.1260 -0.6777 -0.5112
  224MOL0     C30118   4.955   5.240   8.055  1.4710  0.2128  0.9597
  224MOL0     C30119   4.856   5.332   7.980 -0.1754  0.2827 -0.4094
  224MOL0     C30120   4.710   5.295   8.017  0.3721 -0.3804 -0.6187
  224MOL0     C30121   4.665   5.171   7.945 -0.1309 -0.5823 -0.3240
  224MOL0     N30122   4.517   5.159   7.953  0.0547 -0.6190  0.3768
  224MOL0     C30123   4.442   5.094   8.047 -0.0735  0.1816  0.3729
  224MOL0     C30124   4.314   5.132   8.007  0.5060  0.8073  0.2479
  224MOL0     C30125   4.188   5.091   8.071 -0.2670 -0.1998  0.4794
  224MOL0     C30126   4.161   4.938   8.075 -0.5038 -0.4783  0.3751
  224MOL0     C30127   4.064   4.900   8.178  0.3031  0.1179 -0.2231
  224MOL0     C30128   3.937   4.978   8.196  0.0722  0.2789 -0.9356
  224MOL0     O30129   3.849   4.998   8.079  0.2279  0.3277 -0.5736
  224MOL0     C30130   3.720   5.006   8.118  0.4363 -0.0610 -0.6620
  224MOL0     C30131   3.649   4.895   8.160 -0.2640  1.0459 -0.1922
  224MOL0     C30132   3.510   4.889   8.172  0.3360  0.4501  0.1775
  224MOL0     C30133   3.445   4.750   8.190  0.2951 -0.0697 -0.4811
  224MOL0     C30134   3.439   5.013   8.151 -0.0829  0.7676  0.9166
  224MOL0     C30135   3.291   5.023   8.148  0.4953  0.1699 -0.2442
  224MOL0     O30136   3.210   4.927   8.203  0.1465  0.1883 -0.5065
  224MOL0     C30137   3.074   4.919   8.172  0.4491  0.6282  0.1812
  224MOL0     C30138   3.037   4.829   8.074  0.0575 -0.2119  0.3611
  224MOL0     C30139   2.897   4.825   8.038  0.2270 -0.0575  0.3475
  224MOL0     C30140   2.798   4.907   8.092  0.4419 -0.5073  0.2408
  224MOL0     O30141   2.670   4.914   8.033 -0.1326 -0.7819  0.3029
  224MOL0     C30142   2.650   5.054   7.998  0.1739 -0.0603  0.1016
  224MOL0     C30143   2.505   5.069   7.942 -0.2762 -0.4462 -0.1747
  224MOL0     C30144   2.401   5.018   8.040  0.4337 -0.0112  0.8225
  224MOL0     C30145   2.249   5.057   8.013 -0.2599 -0.1718  0.1672
  224MOL0     C30146   2.133   5.012   8.109  0.4611  1.1297  0.4263
  224MOL0     C30147   2.134   5.043   8.255 -0.0537 -0.0305  0.0271
  224MOL0     C30148   2.139   5.196   8.294 -0.3966 -0.1127  0.9455
  224MOL0     C30149   2.127   5.212   8.448 -0.1939  0.2780 -0.1321
  224MOL0    Cl30150   2.140   5.380   8.507 -0.0528 -0.4587 -0.1567
  224MOL0     C30151   2.845   4.996   8.193 -0.3783  0.1177 -1.2832
  224MOL0     C30152   2.980   4.997   8.238  0.4263 -0.7174  0.8823
  224MOL0     O30153   3.246   5.132   8.113  0.0909  0.1651  0.0339
  224MOL0     C30154   3.513   5.133   8.133  0.5338 -0.2766 -0.0847
  224MOL0     C30155   3.645   5.124   8.110 -1.0941  0.5633 -0.0462
  224MOL0     N30156   4.316   5.200   7.887 -0.3275  0.3226  0.2129
  224MOL0     N30157   4.436   5.211   7.856 -0.1010 -0.1519  1.0694
  224MOL0     C30158   5.692   5.077   8.272 -0.1345  0.2509 -0.1531
  224MOL0     C30159   5.809   5.050   8.331  0.4340  0.0490  0.2950
  224MOL0     C30160   6.233   4.929   8.386  0.1169  0.7100  0.0750
  224MOL0     C30161   6.313   5.000   8.472  0.0022 -0.1914 -0.1682
  224MOL0     C30162   6.433   4.952   8.521  0.1637 -0.0752 -0.5085
  224MOL0     C30163   6.486   4.835   8.470  0.2102  0.5896 -0.5032
  224MOL0     O30164   6.612   4.788   8.501 -1.0262  0.0996  0.5999
  224MOL0     C30165   6.718   4.878   8.522  0.6628 -0.3477 -0.1614
  224MOL0     C30166   6.800   4.909   8.395 -0.3223  0.5506  0.7004
  224MOL0     C30167   6.924   4.994   8.396 -0.2088 -0.8161  0.0192
  224MOL0     C30168   7.032   4.926   8.472  0.5002  0.4591  0.2360
  224MOL0     C30169   7.153   5.003   8.469  0.6142  0.1065 -0.7184
  224MOL0     C30170   7.254   5.057   8.451  0.7060 -0.5148  0.6436
  224MOL0     C30171   6.405   4.754   8.393 -0.0480  0.1694  0.4680
  224MOL0     C30172   6.273   4.797   8.361  0.1490  0.0080  0.4912
  224MOL0     H30173   6.000   5.326   8.279  0.3952  1.5036  0.6579
  224MOL0     H30174   5.769   5.398   8.192 -0.3634 -0.0011 -0.1079
  224MOL0     H30175   5.419   5.112   8.190 -0.1365 -0.5000 -1.4218
  224MOL0     H30176   5.420   5.262   8.297  0.4584  0.4109 -0.9840
  224MOL0     H30177   5.335   5.388   8.113 -1.7548  0.4503 -2.2077
  224MOL0     H30178   5.364   5.268   7.996 -3.0215  1.3075 -0.5215
  224MOL0     H30179   5.203   5.120   8.090  0.4657  0.6044 -1.5693
  224MOL0     H30180   5.167   5.219   8.234 -1.5014  1.2796 -0.7338
  224MOL0     H30181   5.086   5.397   8.078  1.5482 -0.8351  0.4383
  224MOL0     H30182   5.118   5.290   7.935 -0.4134  0.7094 -0.6473
  224MOL0     H30183   4.948   5.135   8.024 -0.9095  0.4309  0.5678
  224MOL0     H30184   4.933   5.241   8.163 -2.9193  3.6786  0.3067
  224MOL0     H30185   4.870   5.433   8.019 -2.9583 -0.5428  3.1992
  224MOL0     H30186   4.876   5.319   7.873 -0.9497 -0.6963 -0.4488
  224MOL0     H30187   4.701   5.279   8.125  0.5398 -0.1421 -0.5690
  224MOL0     H30188   4.641   5.377   7.998  3.3538  2.2861 -0.6639
  224MOL0     H30189   4.714   5.078   7.974  0.4747 -0.3477 -0.5851
  224MOL0     H30190   4.684   5.191   7.839 -0.8144  3.8973  0.1723
  224MOL0     H30191   4.465   5.044   8.141 -0.6365 -3.8791 -1.4360
  224MOL0     H30192   4.202   5.147   8.164  2.6225 -1.0322  0.6669
  224MOL0     H30193   4.109   5.136   8.010 -1.2482  0.1718  1.9864
  224MOL0     H30194   4.257   4.887   8.080  0.6898  1.7634  2.0613
  224MOL0     H30195   4.110   4.908   7.983 -2.3545  1.6923  0.5976
  224MOL0     H30196   4.117   4.889   8.273 -0.2394 -1.0091 -0.0307
  224MOL0     H30197   4.025   4.798   8.168  1.8570 -0.7927  2.0273
  224MOL0     H30198   3.958   5.077   8.237 -0.7266  0.3962 -0.7983
  224MOL0     H30199   3.881   4.924   8.273 -1.0772 -2.7072 -3.6136
  224MOL0     H30200   3.699   4.798   8.160 -0.4234  0.9632  0.0698
  224MOL0     H30201   3.501   4.670   8.141  0.7641 -1.7417  2.5320
  224MOL0     H30202   3.418   4.723   8.292  1.4761  1.9820  0.4466
  224MOL0     H30203   3.353   4.746   8.132 -0.5693 -0.1237  0.8505
  224MOL0     H30204   3.110   4.773   8.018 -0.4837 -1.0603  0.4895
  224MOL0     H30205   2.864   4.757   7.960 -1.1507  0.5186  0.3977
  224MOL0     H30206   2.655   5.120   8.085  1.0898 -1.2579  0.9918
  224MOL0     H30207   2.714   5.083   7.913  0.2766  0.7882  0.4584
  224MOL0     H30208   2.490   5.176   7.928  0.5248 -0.3548 -0.3596
  224MOL0     H30209   2.491   5.022   7.844 -1.6514  2.4617 -1.4897
  224MOL0     H30210   2.429   5.061   8.136  4.0128  1.2274 -0.5870
  224MOL0     H30211   2.412   4.909   8.042  0.5510  0.0087  1.2751
  224MOL0     H30212   2.235   5.164   7.997  2.4193 -0.0535 -2.4997
  224MOL0     H30213   2.232   5.015   7.913 -0.5876 -1.3410  0.6978
  224MOL0     H30214   2.132   4.903   8.099 -1.0521  1.1453  0.1786
  224MOL0     H30215   2.040   5.048   8.064  0.1267 -1.6514 -1.3428
  224MOL0     H30216   2.038   5.011   8.296 -0.0059  0.8697  0.8801
  224MOL0     H30217   2.214   4.988   8.306 -0.1211  0.3381  0.5418
  224MOL0     H30218   2.061   5.253   8.242  1.0784 -1.0162 -2.5873
  224MOL0     H30219   2.232   5.245   8.264 -0.0099 -1.3483  0.0521
  224MOL0     H30220   2.212   5.154   8.485  0.7106  1.3109 -0.4822
  224MOL0     H30221   2.028   5.172   8.467  0.8909 -2.3981  0.3641
  224MOL0     H30222   2.785   5.067   8.250  0.4028 -1.9004  2.3437
  224MOL0     H30223   3.024   5.047   8.324  0.6608 -2.2443  1.7006
  224MOL0     H30224   3.460   5.225   8.109  1.0861 -0.3990 -1.9538
  224MOL0     H30225   3.698   5.217   8.092 -2.5910  1.6201  0.7853
  224MOL0     H30226   5.609   5.006   8.273 -0.8293  0.9864  3.1603
  224MOL0     H30227   5.820   4.955   8.383  4.4445  1.1119  1.7160
  224MOL0     H30228   6.292   5.104   8.496 -0.0276 -0.0025 -0.9967
  224MOL0     H30229   6.479   5.017   8.595 -2.3220  1.5044 -0.2572
  224MOL0     H30230   6.682   4.978   8.550  0.0194 -0.8847  0.9775
  224MOL0     H30231   6.776   4.846   8.609  0.9676 -1.6376 -0.8179
  224MOL0     H30232   6.736   4.954   8.318  1.0125  1.3522  0.0189
  224MOL0     H30233   6.831   4.810   8.362  0.3417 -0.0052  2.8479
  224MOL0     H30234   6.895   5.081   8.456 -2.1537 -3.1374  2.7291
  224MOL0     H30235   6.941   5.024   8.292 -4.0284 -0.2866 -0.5987
  224MOL0     H30236   7.066   4.835   8.421  1.1299  0.6331  0.3371
  224MOL0     H30237   6.999   4.904   8.574  1.4351  3.8287  1.4132
  224MOL0     H30238   7.348   5.090   8.413 -0.2676  3.3275  1.0526
  224MOL0     H30239   6.445   4.659   8.361 -0.1522  0.3748 -0.2853
  224MOL0     H30240   6.218   4.732   8.294  2.0924  1.8775 -3.2529
  225MOL0     O30241   6.890   7.696  11.224  0.1770 -0.1351 -0.0934
  225MOL0     C30242   6.886   7.631  11.331 -0.0113 -0.5431 -0.5188
  225MOL0     O30243   6.789   7.545  11.379  0.3251  1.0499  0.3025
  225MOL0     C30244   6.698   7.480  11.295  0.1164 -0.3670 -0.5549
  225MOL0     C30245   6.704   7.478  11.155 -0.3175 -0.2110  1.1236
  225MOL0     C30246   6.607   7.410  11.074 -0.0351 -0.3360 -0.2047
  225MOL0     C30247   6.497   7.350  11.143  0.4203 -0.0343 -0.1949
  225MOL0     O30248   6.412   7.287  11.054 -0.5583  0.0776  0.4612
  225MOL0     C30249   6.275   7.295  11.081  0.8293 -0.5162  0.6308
  225MOL0     C30250   6.207   7.436  11.067  0.3320  0.5594 -0.2430
  225MOL0     C30251   6.054   7.433  11.065 -0.4402 -0.3271  0.1623
  225MOL0     C30252   5.991   7.361  11.185 -0.6714 -0.5683 -0.8968
  225MOL0     C30253   5.845   7.392  11.198  0.8979 -0.1122  0.3289
  225MOL0     C30254   5.794   7.360  11.332 -0.9171 -0.1565  0.4537
  225MOL0     C30255   5.642   7.370  11.354  0.3141  0.3269 -0.7815
  225MOL0     C30256   5.556   7.288  11.264 -0.2604  0.1895  0.2297
  225MOL0     N30257   5.411   7.297  11.287  0.2971  0.3467 -0.3572
  225MOL0     C30258   5.328   7.186  11.296 -0.4209 -0.6611 -0.4098
  225MOL0     C30259   5.208   7.239  11.313  0.5067  0.8011 -0.7125
  225MOL0     C30260   5.080   7.162  11.338  0.3093  0.3991  0.0594
  225MOL0     C30261   4.961   7.255  11.347  0.4027 -0.0324 -1.0463
  225MOL0     C30262   4.833   7.174  11.364 -0.7848 -0.2001 -0.0935
  225MOL0     C30263   4.709   7.270  11.370 -0.2615 -0.2118 -0.8951
  225MOL0     O30264   4.597   7.183  11.361 -0.0607 -0.8688 -0.2628
  225MOL0     C30265   4.484   7.244  11.409 -0.1510 -0.1375  0.0760
  225MOL0     C30266   4.441   7.375  11.382  0.0218 -1.7867  0.2938
  225MOL0     C30267   4.322   7.432  11.418 -0.5091  0.3888  0.5774
  225MOL0     C30268   4.292   7.574  11.361 -0.2939 -0.3246  0.5676
  225MOL0     C30269   4.245   7.365  11.524 -0.5448 -0.2931  0.0751
  225MOL0     C30270   4.125   7.414  11.590 -0.1329 -0.5939 -0.2171
  225MOL0     O30271   4.075   7.333  11.686  0.0016 -0.1827 -0.4190
  225MOL0     C30272   3.947   7.360  11.731  0.6782  0.7313  0.1373
  225MOL0     C30273   3.905   7.482  11.774  0.3778 -0.5984 -0.1887
  225MOL0     C30274   3.771   7.506  11.829 -0.1403  0.3070 -0.2663
  225MOL0     C30275   3.682   7.399  11.826  0.1317  0.0879  0.0683
  225MOL0     O30276   3.552   7.413  11.874 -0.2634  0.0783 -0.1461
  225MOL0     C30277   3.506   7.516  11.961 -0.2282  0.6790  0.2987
  225MOL0     C30278   3.366   7.484  11.998 -0.7895 -1.6768  0.0821
  225MOL0     C30279   3.299   7.559  12.117 -0.9876 -0.0562 -0.1366
  225MOL0     C30280   3.250   7.695  12.087  0.6093 -0.4032 -0.8780
  225MOL0     C30281   3.119   7.704  12.017 -0.2988 -0.9787 -0.0811
  225MOL0     C30282   3.085   7.854  12.001 -0.5668  0.1004  0.4805
  225MOL0     C30283   2.961   7.876  11.904 -0.7653  0.1810  0.0329
  225MOL0     C30284   2.931   8.024  11.891  0.4178 -0.3236 -0.9758
  225MOL0    Cl30285   2.847   8.101  12.030 -0.7149 -0.1739 -0.0011
  225MOL0     C30286   3.729   7.276  11.781 -0.7332 -0.8397 -0.7010
  225MOL0     C30287   3.859   7.255  11.738  0.7892 -0.6684  0.3089
  225MOL0     O30288   4.067   7.505  11.534 -0.0051 -1.2336  0.1613
  225MOL0     C30289   4.291   7.232  11.556 -0.1572 -0.6905 -0.5909
  225MOL0     C30290   4.405   7.170  11.502 -0.6950  0.0386 -0.0906
  225MOL0     N30291   5.216   7.372  11.305  0.7200  0.0028  0.7909
  225MOL0     N30292   5.334   7.408  11.297 -0.3747  0.3981 -1.6604
  225MOL0     C30293   6.487   7.353  11.285  0.0903 -0.0561  0.4514
  225MOL0     C30294   6.589   7.416  11.356 -0.4787 -0.1102  0.3514
  225MOL0     C30295   6.999   7.650  11.422  0.7121  0.5852 -0.1543
  225MOL0     C30296   7.092   7.757  11.416  0.1035 -0.1418  0.6847
  225MOL0     C30297   7.207   7.766  11.499 -0.1959  0.3631 -0.4309
  225MOL0     C30298   7.219   7.680  11.613 -0.2229  0.0607 -0.1130
  225MOL0     O30299   7.332   7.707  11.697 -0.4747 -0.2884  0.1830
  225MOL0     C30300   7.350   7.611  11.807 -0.9309 -0.1794 -0.3379
  225MOL0     C30301   7.395   7.473  11.763 -0.0943  0.1334 -0.5553
  225MOL0     C30302   7.536   7.467  11.693  0.9098 -0.1515  0.2710
  225MOL0     C30303   7.563   7.327  11.631 -1.3719  0.0634  0.5903
  225MOL0     C30304   7.567   7.210  11.725  0.7284  0.3279 -0.1880
  225MOL0     C30305   7.580   7.113  11.801  1.0305  0.0758 -0.4541
  225MOL0     C30306   7.110   7.586  11.630 -0.7457 -0.3661 -1.2715
  225MOL0     C30307   7.009   7.568  11.540  0.2814  0.8545 -0.1379
  225MOL0     H30308   6.796   7.518  11.115 -0.1446 -1.3665  0.3050
  225MOL0     H30309   6.610   7.397  10.966 -3.7202 -2.5587 -0.2265
  225MOL0     H30310   6.223   7.227  11.012 -3.8306  0.1705  3.0467
  225MOL0     H30311   6.254   7.251  11.179  1.7766 -0.2064  0.9852
  225MOL0     H30312   6.248   7.503  11.143  4.7995  1.3466 -2.9568
  225MOL0     H30313   6.246   7.485  10.977  2.8678  1.0903  1.0544
  225MOL0     H30314   6.023   7.538  11.053  1.1917  0.4945  2.4146
  225MOL0     H30315   6.030   7.391  10.967  0.2599  1.8530 -1.0154
  225MOL0     H30316   6.019   7.256  11.178 -0.2079 -0.5888  0.7179
  225MOL0     H30317   6.035   7.404  11.276  0.3333 -3.5295  0.1131
  225MOL0     H30318   5.830   7.498  11.177  4.1182  0.2169 -0.8601
  225MOL0     H30319   5.797   7.332  11.120  0.5300 -0.5506  0.8883
  225MOL0     H30320   5.827   7.259  11.356  0.1551  0.2206  0.6083
  225MOL0     H30321   5.851   7.421  11.401 -0.5916 -2.6794  2.5759
  225MOL0     H30322   5.625   7.327  11.452  1.9032 -0.7776 -0.9505
  225MOL0     H30323   5.615   7.476  11.354 -1.3483 -0.0657  0.1116
  225MOL0     H30324   5.588   7.184  11.250  0.0571  0.3921 -0.6654
  225MOL0     H30325   5.576   7.332  11.165 -2.2200 -1.1784 -0.8510
  225MOL0     H30326   5.367   7.084  11.293  2.8226  0.3348  1.9145
  225MOL0     H30327   5.078   7.095  11.252  0.1372  1.4010 -0.7403
  225MOL0     H30328   5.087   7.105  11.431 -0.8624  2.2761  1.3909
  225MOL0     H30329   4.947   7.325  11.264 -1.8981 -0.3517 -1.0129
  225MOL0     H30330   4.964   7.312  11.440 -1.4011 -0.6692 -0.5419
  225MOL0     H30331   4.825   7.109  11.451 -1.6493 -1.8267 -1.3394
  225MOL0     H30332   4.834   7.106  11.279  0.7369 -0.8314  0.3954
  225MOL0     H30333   4.713   7.337  11.284  1.3833 -0.8123 -1.3346
  225MOL0     H30334   4.713   7.327  11.463  1.3181  0.6838 -1.4781
  225MOL0     H30335   4.503   7.431  11.312  0.3003 -0.4602  1.5498
  225MOL0     H30336   4.329   7.654  11.426  3.3410 -0.5740 -0.9422
  225MOL0     H30337   4.345   7.592  11.267 -0.8087  0.5421  0.4291
  225MOL0     H30338   4.184   7.588  11.352 -0.0335  2.7212  1.0931
  225MOL0     H30339   3.971   7.569  11.771 -1.2110  0.6407 -1.2199
  225MOL0     H30340   3.748   7.606  11.862 -2.2252 -0.2503  0.0916
  225MOL0     H30341   3.570   7.520  12.050 -0.3851  3.6457  0.3858
  225MOL0     H30342   3.506   7.610  11.905 -2.2149 -0.9617 -2.7413
  225MOL0     H30343   3.304   7.480  11.908  1.0874 -1.5462 -1.2730
  225MOL0     H30344   3.360   7.380  12.032 -2.3946 -2.1300 -1.4357
  225MOL0     H30345   3.387   7.578  12.178 -2.3219  1.7022  1.3319
  225MOL0     H30346   3.217   7.509  12.170  0.5178 -2.7494 -0.1260
  225MOL0     H30347   3.231   7.752  12.178  0.6657 -1.3517 -0.2518
  225MOL0     H30348   3.329   7.749  12.034  2.5764 -0.6660  1.5764
  225MOL0     H30349   3.050   7.647  12.080 -2.3911  0.7356 -0.6943
  225MOL0     H30350   3.124   7.657  11.918 -1.3162  1.0792 -1.1891
  225MOL0     H30351   3.062   7.897  12.099  0.7275  0.6776  0.5582
  225MOL0     H30352   3.173   7.898  11.953  0.0933 -1.2802  0.3523
  225MOL0     H30353   2.868   7.839  11.948  0.0112  0.5362  2.0600
  225MOL0     H30354   2.982   7.827  11.808  0.5070  1.6288 -0.4633
  225MOL0     H30355   2.863   8.031  11.805 -0.0083  0.1439 -0.5969
  225MOL0     H30356   3.019   8.085  11.871  0.0302  0.9985  1.1214
  225MOL0     H30357   3.658   7.194  11.787 -0.8717 -0.7204 -0.6975
  225MOL0     H30358   3.897   7.157  11.713 -0.7426 -2.3945  4.0189
  225MOL0     H30359   4.233   7.178  11.630 -1.9246  1.1372 -0.5750
  225MOL0     H30360   4.438   7.070  11.529  0.5319 -0.2877 -2.5473
  225MOL0     H30361   6.414   7.291  11.334 -0.2848 -1.2170 -1.5053
  225MOL0     H30362   6.581   7.407  11.464 -0.8797 -1.3324  0.2326
  225MOL0     H30363   7.094   7.822  11.328  3.4758 -1.2364 -0.1627
  225MOL0     H30364   7.290   7.835  11.486  2.5229 -1.7995  3.4559
  225MOL0     H30365   7.424   7.651  11.877 -0.2036 -3.0990  0.7104
  225MOL0     H30366   7.249   7.605  11.849 -0.9591 -0.2771 -0.4204
  225MOL0     H30367   7.327   7.421  11.695 -0.7170  1.3142 -0.8794
  225MOL0     H30368   7.409   7.417  11.856  1.3876  0.0814 -0.7930
  225MOL0     H30369   7.607   7.490  11.773 -2.1900 -0.0963  3.2272
  225MOL0     H30370   7.537   7.541  11.612 -2.2054 -1.0675 -0.7306
  225MOL0     H30371   7.663   7.325  11.587 -1.9788 -1.1599 -0.8235
  225MOL0     H30372   7.487   7.302  11.556  1.2147 -3.1678 -1.2318
  225MOL0     H30373   7.582   7.039  11.878 -1.6942  0.1054 -0.2740
  225MOL0     H30374   7.101   7.522  11.718  2.8738 -1.1769 -1.3090
  225MOL0     H30375   6.934   7.492  11.556 -0.0121  1.1529 -0.0874
  226MOL0     O30376   8.688   0.448   7.363 -0.1207 -0.5334 -0.1434
  226MOL0     C30377   8.697   0.329   7.356 -0.0423 -0.2782  0.1534
  226MOL0     O30378   8.615   0.238   7.405 -0.3418  0.4079 -0.5995
  226MOL0     C30379   8.508   0.271   7.487 -0.6136 -0.5771  0.1154
  226MOL0     C30380   8.382   0.310   7.438  0.6363  0.1134 -0.5472
  226MOL0     C30381   8.279   0.334   7.527 -0.0946  0.7035 -0.0077
  226MOL0     C30382   8.305   0.323   7.664  0.3395  0.1396 -0.0812
  226MOL0     O30383   8.214   0.351   7.768 -0.5827  0.0949  0.1311
  226MOL0     C30384   8.086   0.404   7.734  0.6163 -1.0668 -0.1489
  226MOL0     C30385   8.026   0.451   7.859  0.1672  0.4591  0.4720
  226MOL0     C30386   8.121   0.538   7.945  0.0755  0.5939  0.5696
  226MOL0     C30387   8.037   0.614   8.054 -0.2728  0.3460  0.7326
  226MOL0     C30388   8.128   0.678   8.153 -0.8682  1.4950  0.6353
  226MOL0     C30389   8.176   0.572   8.254  0.1387 -0.6911  0.5908
  226MOL0     C30390   8.263   0.631   8.374 -0.4725 -0.7617  0.2100
  226MOL0     C30391   8.325   0.522   8.464  1.1662 -0.5078 -0.1251
  226MOL0     N30392   8.218   0.468   8.560  0.4177 -0.5502  0.0743
  226MOL0     C30393   8.153   0.338   8.542 -1.4741 -0.5866  0.2508
  226MOL0     C30394   8.085   0.331   8.655 -0.2305  0.5885  0.8565
  226MOL0     C30395   7.982   0.225   8.683  0.5938  0.5277  0.7354
  226MOL0     C30396   7.845   0.273   8.671 -0.0075 -0.0674 -0.0136
  226MOL0     C30397   7.753   0.174   8.727  0.4189  0.4655 -0.1195
  226MOL0     C30398   7.612   0.231   8.749  0.1294  0.1504  0.1390
  226MOL0     O30399   7.516   0.129   8.749  0.7655 -0.3969  0.2077
  226MOL0     C30400   7.379   0.164   8.745 -1.0351  0.3376  0.1739
  226MOL0     C30401   7.341   0.291   8.717  0.0511  0.0064 -0.7503
  226MOL0     C30402   7.217   0.339   8.694 -0.4292 -0.2252  0.8225
  226MOL0     C30403   7.196   0.481   8.642  0.8035  0.2757 -0.5389
  226MOL0     C30404   7.112   0.247   8.697  0.6177 -0.6625  0.2086
  226MOL0     C30405   6.967   0.287   8.683  0.3944  0.2295  0.4725
  226MOL0     O30406   6.935   0.389   8.604  0.6057 -0.6077  0.0387
  226MOL0     C30407   6.806   0.410   8.566 -0.6417 -0.5307  0.6213
  226MOL0     C30408   6.708   0.459   8.655  0.1015  0.5457  0.9694
  226MOL0     C30409   6.574   0.465   8.608  0.0770  0.2889  0.2852
  226MOL0     C30410   6.546   0.430   8.477 -0.4204 -0.4248  0.2786
  226MOL0     O30411   6.417   0.432   8.431 -0.4640 -0.3877 -0.4610
  226MOL0     C30412   6.387   0.308   8.361  0.5076  0.1503  0.2733
  226MOL0     C30413   6.242   0.278   8.395 -0.2003  0.2632 -0.4788
  226MOL0     C30414   6.232   0.246   8.546 -0.6935 -0.2348 -0.8867
  226MOL0     C30415   6.081   0.240   8.579 -0.5282 -0.2026 -0.9156
  226MOL0     C30416   6.035   0.243   8.732 -0.4918  0.1969  0.0433
  226MOL0     C30417   5.887   0.215   8.766 -0.2125  0.9637 -0.9667
  226MOL0     C30418   5.786   0.321   8.721 -0.1471  0.6269  0.0272
  226MOL0     C30419   5.775   0.443   8.812 -0.5728  0.1725  0.7492
  226MOL0    Cl30420   5.691   0.406   8.963  0.2825  0.1029  0.0790
  226MOL0     C30421   6.655   0.399   8.391 -0.5645  0.7101  0.7135
  226MOL0     C30422   6.785   0.383   8.433  0.4065 -0.1619  0.1669
  226MOL0     O30423   6.884   0.224   8.751 -1.2015  0.0456  0.2396
  226MOL0     C30424   7.143   0.112   8.737 -0.9808 -0.0843  0.8226
  226MOL0     C30425   7.276   0.071   8.753  0.3884  0.5339 -1.0792
  226MOL0     N30426   8.123   0.428   8.745 -0.8380 -0.0427  0.1538
  226MOL0     N30427   8.212   0.507   8.689  0.0204  0.6484  0.0638
  226MOL0     C30428   8.429   0.288   7.709 -0.4088 -0.2552 -0.5138
  226MOL0     C30429   8.529   0.258   7.623 -0.0110  0.2218  0.0726
  226MOL0     C30430   8.811   0.278   7.272  1.3865  0.8717  0.0813
  226MOL0     C30431   8.850   0.146   7.277 -0.0906  0.2736  0.2064
  226MOL0     C30432   8.968   0.100   7.224 -0.3775  0.1045 -0.1632
  226MOL0     C30433   9.045   0.183   7.139  0.7330 -0.3954  0.3583
  226MOL0     O30434   9.163   0.149   7.069 -0.2669 -0.2220  0.3957
  226MOL0     C30435   9.148   0.041   6.977 -0.3520 -1.4116 -0.2574
  226MOL0     C30436   9.260   0.071   6.876 -0.3081 -0.7098 -0.4221
  226MOL0     C30437   9.223   0.008   6.736 -0.6131  0.9414  0.6776
  226MOL0     C30438   9.286   0.085   6.620  0.1461 -0.0322  0.3777
  226MOL0     C30439   9.425   0.050   6.601  0.1028 -0.1477  0.2045
  226MOL0     C30440   9.542   0.009   6.578  0.2411 -0.5900  0.2794
  226MOL0     C30441   9.000   0.313   7.119 -0.4467  0.0456 -0.5765
  226MOL0     C30442   8.888   0.361   7.188 -0.2333  0.8937  0.1111
  226MOL0     H30443   8.368   0.316   7.331  2.4830  1.1816 -0.7680
  226MOL0     H30444   8.180   0.347   7.484 -0.5814 -1.6877  0.2506
  226MOL0     H30445   8.084   0.497   7.677  2.9004  0.6057  2.2426
  226MOL0     H30446   8.024   0.330   7.683  1.0873 -0.4982 -1.5761
  226MOL0     H30447   7.939   0.514   7.840  0.5475  1.2587  1.3568
  226MOL0     H30448   7.979   0.367   7.911 -1.3902  0.8787 -0.1860
  226MOL0     H30449   8.198   0.477   7.992 -0.6142  0.2013  1.2184
  226MOL0     H30450   8.174   0.607   7.879  2.0506 -0.3396  1.1256
  226MOL0     H30451   7.973   0.688   8.005 -2.1156 -0.2688  2.0806
  226MOL0     H30452   7.966   0.539   8.088 -2.2312  0.8313 -1.9808
  226MOL0     H30453   8.206   0.737   8.104  3.1650 -2.2226  1.9424
  226MOL0     H30454   8.063   0.748   8.205 -0.4623  1.7457  0.8075
  226MOL0     H30455   8.086   0.531   8.300 -1.0586  0.0013 -1.0446
  226MOL0     H30456   8.232   0.497   8.199  2.0382  1.0516  0.0080
  226MOL0     H30457   8.340   0.686   8.318 -1.4868  1.3434  0.7720
  226MOL0     H30458   8.201   0.691   8.441  0.6336 -0.1931  0.7483
  226MOL0     H30459   8.398   0.570   8.531  0.4076  1.1643 -0.4591
  226MOL0     H30460   8.363   0.442   8.400  1.7287 -0.4938  0.1789
  226MOL0     H30461   8.136   0.281   8.451 -1.3181 -1.2045  0.6062
  226MOL0     H30462   8.001   0.130   8.631 -0.7795 -0.9878  2.8029
  226MOL0     H30463   8.000   0.192   8.786  3.4219  2.0572  0.8347
  226MOL0     H30464   7.822   0.295   8.566 -1.3782 -1.7929 -0.1305
  226MOL0     H30465   7.844   0.364   8.731  2.1917  0.4657 -0.6781
  226MOL0     H30466   7.784   0.126   8.819 -1.2201 -1.5710 -0.5572
  226MOL0     H30467   7.747   0.098   8.649 -0.1929  2.7419 -2.4542
  226MOL0     H30468   7.603   0.296   8.662  0.7872 -0.8351 -0.6855
  226MOL0     H30469   7.612   0.292   8.840  2.6796 -0.8822  0.9409
  226MOL0     H30470   7.418   0.367   8.710  0.5989 -0.5413 -0.8122
  226MOL0     H30471   7.178   0.478   8.534  0.5577 -1.2108 -0.4759
  226MOL0     H30472   7.110   0.527   8.692 -0.2373 -0.2418 -1.7976
  226MOL0     H30473   7.288   0.533   8.671  1.6000 -2.2210  1.7594
  226MOL0     H30474   6.738   0.489   8.755  1.1273 -3.2369  1.9533
  226MOL0     H30475   6.491   0.495   8.671 -2.6363 -2.1190 -1.8845
  226MOL0     H30476   6.404   0.326   8.255  0.9784  0.3433  0.3815
  226MOL0     H30477   6.447   0.221   8.389  2.4610  1.0966 -0.8143
  226MOL0     H30478   6.194   0.372   8.369 -1.7832  0.3502  2.3087
  226MOL0     H30479   6.202   0.198   8.331  1.3798  0.1741 -1.4222
  226MOL0     H30480   6.274   0.327   8.606  2.4960 -0.0285 -3.1360
  226MOL0     H30481   6.287   0.158   8.581  1.3617  1.7646  1.2106
  226MOL0     H30482   6.036   0.328   8.534 -1.4094  1.2876  2.5674
  226MOL0     H30483   6.042   0.152   8.527  0.1703  1.1258 -3.8862
  226MOL0     H30484   6.054   0.346   8.762 -0.5054  0.0977  0.4062
  226MOL0     H30485   6.107   0.175   8.781 -0.6757 -1.2432 -1.5754
  226MOL0     H30486   5.855   0.121   8.720  0.0775 -0.3600  1.4100
  226MOL0     H30487   5.873   0.214   8.874 -0.4000  2.3253 -0.9604
  226MOL0     H30488   5.688   0.273   8.709  1.0358 -1.4806 -1.9640
  226MOL0     H30489   5.810   0.352   8.619 -0.9111 -0.8303 -0.6395
  226MOL0     H30490   5.717   0.519   8.760  0.8680  0.7714 -0.0516
  226MOL0     H30491   5.879   0.471   8.834  0.4067 -2.2262 -0.3684
  226MOL0     H30492   6.632   0.376   8.287  1.3282 -0.1481  0.4382
  226MOL0     H30493   6.870   0.355   8.372  1.5825 -1.3249  2.2410
  226MOL0     H30494   7.059   0.044   8.754  0.0837 -1.2238  1.6633
  226MOL0     H30495   7.289  -0.033   8.780  0.7910  1.6514  4.1106
  226MOL0     H30496   8.434   0.276   7.816 -2.3012 -2.3445 -0.5783
  226MOL0     H30497   8.624   0.218   7.656  0.7008  1.7083 -0.1464
  226MOL0     H30498   8.797   0.069   7.332 -0.3555 -0.1255 -0.5978
  226MOL0     H30499   9.000  -0.003   7.241  0.2840  0.0396 -1.6175
  226MOL0     H30500   9.179  -0.054   7.022  1.4017 -0.1619  1.2842
  226MOL0     H30501   9.055   0.031   6.920 -0.7496 -1.3224  0.3713
  226MOL0     H30502   9.357   0.031   6.904 -0.7573 -1.4294  0.1162
  226MOL0     H30503   9.280   0.179   6.866  3.6296 -1.2145  0.4581
  226MOL0     H30504   9.115   0.016   6.724 -0.3788  0.4838 -2.6755
  226MOL0     H30505   9.256  -0.095   6.718  4.8322  2.0912  2.0707
  226MOL0     H30506   9.271   0.192   6.636  2.0480  0.8006 -2.5547
  226MOL0     H30507   9.229   0.071   6.527 -0.3493  1.4763  0.4197
  226MOL0     H30508   9.644  -0.019   6.558 -0.5718 -3.1418 -0.7827
  226MOL0     H30509   9.051   0.375   7.046 -0.2002  0.3841 -0.1233
  226MOL0     H30510   8.859   0.463   7.167  3.1571  1.3612 -3.3927
  227MOL0     O30511   7.074   1.362   7.746 -0.6441  0.5246 -0.5543
  227MOL0     C30512   7.131   1.425   7.836 -0.4171 -0.4664 -0.1853
  227MOL0     O30513   7.070   1.506   7.920 -0.5805  0.0659 -0.1315
  227MOL0     C30514   6.949   1.555   7.888 -0.4737 -0.1570 -0.3510
  227MOL0     C30515   6.870   1.599   7.993  0.2823  0.6706  0.3380
  227MOL0     C30516   6.741   1.655   7.981 -0.0068 -0.9599 -0.0113
  227MOL0     C30517   6.695   1.674   7.845 -0.0255  0.5226 -0.1579
  227MOL0     O30518   6.565   1.711   7.834  0.3270  0.1295 -0.5570
  227MOL0     C30519   6.529   1.786   7.713 -0.0285  0.3418  0.2947
  227MOL0     C30520   6.404   1.870   7.713 -0.2490 -0.3957  1.2939
  227MOL0     C30521   6.282   1.783   7.749 -0.4732 -0.2305 -0.1006
  227MOL0     C30522   6.154   1.869   7.743  0.0107 -0.0671 -0.2047
  227MOL0     C30523   6.028   1.794   7.796 -0.1201  0.2573  0.9972
  227MOL0     C30524   5.897   1.876   7.765  0.4290 -0.4000  0.1957
  227MOL0     C30525   5.766   1.800   7.764  0.0730 -0.1446  0.6608
  227MOL0     C30526   5.648   1.892   7.787 -0.5418  0.0662 -0.5700
  227MOL0     N30527   5.534   1.806   7.805  0.3840 -0.2377 -0.2963
  227MOL0     C30528   5.517   1.697   7.893 -0.0587 -0.0594 -0.3622
  227MOL0     C30529   5.389   1.658   7.887  0.6936  0.2134  0.0716
  227MOL0     C30530   5.326   1.529   7.943 -0.9866 -0.7813  0.7233
  227MOL0     C30531   5.187   1.497   7.893  0.6386 -0.0111 -0.1878
  227MOL0     C30532   5.132   1.362   7.923  0.0597  0.1358  0.3277
  227MOL0     C30533   4.989   1.329   7.875  0.6742  0.2036 -0.1794
  227MOL0     O30534   4.945   1.203   7.926 -0.3286 -0.1550  0.1203
  227MOL0     C30535   4.830   1.144   7.880  0.6735 -0.0040  0.4562
  227MOL0     C30536   4.816   1.008   7.906  0.3762 -0.3268  0.5284
  227MOL0     C30537   4.700   0.935   7.877 -0.7610 -0.8478  0.1912
  227MOL0     C30538   4.682   0.797   7.927 -0.1758  0.1715 -0.0945
  227MOL0     C30539   4.591   1.011   7.814  0.0862  0.5008  0.1564
  227MOL0     C30540   4.459   0.953   7.782  0.5006  0.9758 -0.1701
  227MOL0     O30541   4.354   1.028   7.820 -0.4269  0.1077 -0.7919
  227MOL0     C30542   4.231   0.960   7.822  0.0600 -1.0843  0.2016
  227MOL0     C30543   4.212   0.848   7.900  0.0227 -0.2474  0.2781
  227MOL0     C30544   4.089   0.788   7.906  0.1984  0.5343 -0.0908
  227MOL0     C30545   3.987   0.827   7.824 -0.6609 -0.4584  0.5011
  227MOL0     O30546   3.870   0.756   7.816  0.3467 -0.7949 -0.2044
  227MOL0     C30547   3.833   0.661   7.918  0.0310  0.2382  0.3384
  227MOL0     C30548   3.682   0.643   7.934  0.1164  0.6270 -0.1362
  227MOL0     C30549   3.614   0.615   7.802 -0.1047  0.7629 -0.1690
  227MOL0     C30550   3.481   0.542   7.834 -0.8379 -0.6748 -0.0606
  227MOL0     C30551   3.381   0.632   7.910 -0.9255  0.5471 -0.3384
  227MOL0     C30552   3.254   0.556   7.935 -0.3102  0.1946  0.4183
  227MOL0     C30553   3.143   0.648   7.990 -0.0634 -0.3546 -1.1535
  227MOL0     C30554   3.078   0.735   7.880 -0.2732 -0.0492 -0.9423
  227MOL0    Cl30555   2.948   0.822   7.973 -0.2427 -0.2901 -0.0265
  227MOL0     C30556   4.012   0.924   7.731  0.1515  0.6000  0.0294
  227MOL0     C30557   4.130   0.996   7.731  0.1191  0.1302  0.3292
  227MOL0     O30558   4.454   0.837   7.733  0.0163 -0.1914  0.6184
  227MOL0     C30559   4.609   1.144   7.786 -0.0407  0.3960 -0.4879
  227MOL0     C30560   4.732   1.206   7.809 -0.0042  0.1864 -0.3691
  227MOL0     N30561   5.324   1.743   7.796  0.2600 -1.0630 -0.6995
  227MOL0     N30562   5.409   1.831   7.750  0.5185  0.1164 -0.4282
  227MOL0     C30563   6.772   1.635   7.736 -0.6694 -0.4073 -0.4709
  227MOL0     C30564   6.900   1.577   7.760 -0.1988 -0.1364 -0.1400
  227MOL0     C30565   7.279   1.403   7.847  0.1985  0.5494 -0.9846
  227MOL0     C30566   7.353   1.491   7.925 -0.6646 -0.5178 -0.4731
  227MOL0     C30567   7.496   1.475   7.930 -0.1219  0.2244 -0.0062
  227MOL0     C30568   7.558   1.361   7.873  0.1433  0.5998 -0.5731
  227MOL0     O30569   7.690   1.334   7.853  0.6043 -0.5333 -0.6447
  227MOL0     C30570   7.788   1.411   7.927 -0.0532 -0.3226  0.0823
  227MOL0     C30571   7.919   1.341   7.910 -1.0552  0.4146  0.2840
  227MOL0     C30572   7.951   1.299   7.768  0.1497 -0.2340 -0.3304
  227MOL0     C30573   8.069   1.205   7.770 -0.4011  0.1556  0.4074
  227MOL0     C30574   8.196   1.255   7.830 -0.6018  0.6705 -0.5842
  227MOL0     C30575   8.302   1.303   7.869 -0.0717 -0.5022  0.4239
  227MOL0     C30576   7.474   1.289   7.789 -0.1289  0.0051 -0.2508
  227MOL0     C30577   7.341   1.310   7.769  0.2030 -0.3360  0.2549
  227MOL0     H30578   6.917   1.585   8.090  0.1869 -0.5132  0.2286
  227MOL0     H30579   6.681   1.677   8.068 -0.0397  1.6930 -0.6014
  227MOL0     H30580   6.612   1.854   7.694 -1.2507  1.5737 -0.8302
  227MOL0     H30581   6.515   1.716   7.630  0.1316  0.4388  0.1869
  227MOL0     H30582   6.427   1.950   7.784  3.4787  0.0844 -0.2392
  227MOL0     H30583   6.398   1.912   7.612  1.2774  2.2551  2.2249
  227MOL0     H30584   6.269   1.691   7.691 -0.4741  0.6935 -1.6351
  227MOL0     H30585   6.297   1.743   7.849  2.1032 -1.8671 -1.0182
  227MOL0     H30586   6.171   1.944   7.820 -0.8454  0.3619 -0.4257
  227MOL0     H30587   6.145   1.921   7.648  0.9978 -0.8729 -0.7662
  227MOL0     H30588   6.026   1.701   7.739 -0.0065 -0.5825  2.3208
  227MOL0     H30589   6.041   1.771   7.902 -0.0033  0.6637  1.0719
  227MOL0     H30590   5.899   1.951   7.846  1.8153 -1.0582  0.8200
  227MOL0     H30591   5.909   1.940   7.677 -1.5483  1.7551  1.3901
  227MOL0     H30592   5.756   1.756   7.665 -0.8392 -0.3130  0.8270
  227MOL0     H30593   5.783   1.731   7.848  1.0634  0.1662  0.7295
  227MOL0     H30594   5.626   1.938   7.690  0.1752 -3.4731 -2.5921
  227MOL0     H30595   5.659   1.965   7.867  0.3396  0.3825 -0.9597
  227MOL0     H30596   5.588   1.649   7.959 -0.1802  1.1607  0.7077
  227MOL0     H30597   5.395   1.445   7.928 -1.3701 -1.0092  0.2082
  227MOL0     H30598   5.317   1.536   8.052  1.5727  0.4747  0.9284
  227MOL0     H30599   5.188   1.497   7.784 -2.1627  2.2639 -0.3396
  227MOL0     H30600   5.113   1.569   7.930 -1.3625 -2.1460  0.2606
  227MOL0     H30601   5.141   1.344   8.030 -0.2205 -0.0418  0.3217
  227MOL0     H30602   5.201   1.292   7.874  1.0890  1.1771  0.2303
  227MOL0     H30603   4.980   1.326   7.766  0.3392  0.6315 -0.1657
  227MOL0     H30604   4.924   1.399   7.927  0.7458 -1.7921  2.8351
  227MOL0     H30605   4.898   0.975   7.969  0.8188  1.1975  0.7918
  227MOL0     H30606   4.769   0.753   7.975 -0.8217 -0.0275  0.9199
  227MOL0     H30607   4.599   0.805   7.998  2.7721  1.2254  3.5424
  227MOL0     H30608   4.646   0.730   7.848 -0.7425 -1.1012  1.1841
  227MOL0     H30609   4.288   0.817   7.971 -0.3756  0.6606  1.1401
  227MOL0     H30610   4.072   0.702   7.969 -1.0102 -0.4868 -1.7477
  227MOL0     H30611   3.884   0.569   7.885  1.3488  1.0996 -0.1232
  227MOL0     H30612   3.875   0.685   8.016  0.2210  1.2316  0.0245
  227MOL0     H30613   3.666   0.560   8.004 -0.3790  1.4950  0.8012
  227MOL0     H30614   3.628   0.731   7.972 -0.2617 -0.0208  0.8942
  227MOL0     H30615   3.681   0.549   7.746  2.3722  1.3471  1.8875
  227MOL0     H30616   3.585   0.703   7.745 -0.4396  0.8129  0.0729
  227MOL0     H30617   3.432   0.506   7.743  0.6135 -0.8092 -0.8084
  227MOL0     H30618   3.510   0.455   7.894 -1.7169  1.3018  3.5219
  227MOL0     H30619   3.371   0.725   7.853  1.3460  1.8126  1.1458
  227MOL0     H30620   3.406   0.679   8.006  1.2446  1.9640 -1.5029
  227MOL0     H30621   3.206   0.515   7.846  0.0280  0.1011  0.2795
  227MOL0     H30622   3.260   0.482   8.015 -3.7523 -0.2191  0.4292
  227MOL0     H30623   3.172   0.714   8.072 -2.9341 -0.4907  0.1005
  227MOL0     H30624   3.063   0.586   8.031 -1.0222  1.1901 -0.6043
  227MOL0     H30625   3.027   0.671   7.807  1.4440 -3.1210  0.3731
  227MOL0     H30626   3.140   0.802   7.819 -0.8638 -0.5264 -2.0959
  227MOL0     H30627   3.939   0.933   7.651 -0.0579  0.4240  0.2011
  227MOL0     H30628   4.148   1.078   7.663 -0.7164  0.0356 -0.0183
  227MOL0     H30629   4.527   1.209   7.759  0.3616  1.8865  1.6574
  227MOL0     H30630   4.737   1.313   7.792  0.6902  0.2670  0.2875
  227MOL0     H30631   6.740   1.649   7.633  2.1353  1.3391 -1.1994
  227MOL0     H30632   6.956   1.546   7.673  1.9957 -2.0302  1.7897
  227MOL0     H30633   7.303   1.573   7.976 -1.7465 -1.4455 -0.0047
  227MOL0     H30634   7.548   1.554   7.984 -1.3421 -0.1090  1.7414
  227MOL0     H30635   7.793   1.508   7.877 -2.2287 -0.4007 -0.3930
  227MOL0     H30636   7.772   1.425   8.034  0.6361 -0.8089  0.2576
  227MOL0     H30637   7.930   1.262   7.985 -0.2345  1.9259  1.7906
  227MOL0     H30638   7.994   1.414   7.940  1.1595 -2.3314  2.0144
  227MOL0     H30639   7.978   1.383   7.703  1.9294 -1.2619 -1.0063
  227MOL0     H30640   7.867   1.244   7.725  0.7710 -3.2349  1.9491
  227MOL0     H30641   8.098   1.173   7.670 -0.7521  0.0525  0.3395
  227MOL0     H30642   8.031   1.122   7.831 -2.4148 -0.6331 -1.7674
  227MOL0     H30643   8.392   1.351   7.902 -0.4909  0.7057 -0.1436
  227MOL0     H30644   7.528   1.213   7.733 -1.2911  0.4168 -2.0411
  227MOL0     H30645   7.295   1.248   7.693 -0.8714  0.8280 -0.0807
  228MOL0     O30646   0.625   3.241   4.333 -0.2062 -0.6478  0.3743
  228MOL0     C30647   0.702   3.280   4.422 -0.2978  0.8265  0.9807
  228MOL0     O30648   0.692   3.391   4.489  0.2809  0.0114 -0.5587
  228MOL0     C30649   0.573   3.456   4.476 -0.7925 -0.1005  0.2797
  228MOL0     C30650   0.511   3.499   4.593 -0.4430  0.2023  0.6111
  228MOL0     C30651   0.392   3.566   4.584 -0.2361  0.4199 -0.5886
  228MOL0     C30652   0.336   3.606   4.467 -0.3616  0.3296  0.3380
  228MOL0     O30653   0.241   3.702   4.472 -0.4221  1.4925  0.2356
  228MOL0     C30654   0.151   3.715   4.360 -0.3549  0.0736  0.6333
  228MOL0     C30655   0.045   3.810   4.414  0.3991  0.2835 -0.0232
  228MOL0     C30656  -0.077   3.788   4.333  0.3593 -0.0410  0.3106
  228MOL0     C30657  -0.180   3.886   4.379 -0.4382 -0.5980 -0.0831
  228MOL0     C30658  -0.314   3.872   4.314  0.5497 -0.2529 -0.9104
  228MOL0     C30659  -0.434   3.948   4.391 -1.1388  0.0172 -0.2208
  228MOL0     C30660  -0.573   3.922   4.339 -0.3017 -0.5559  0.3088
  228MOL0     C30661  -0.673   4.028   4.393  0.9660 -0.2223  0.4975
  228MOL0     N30662  -0.809   3.991   4.347  0.3378 -0.1175 -0.5056
  228MOL0     C30663  -0.853   3.860   4.314  0.1677  0.4978  1.1206
  228MOL0     C30664  -0.982   3.878   4.264 -1.1555 -0.8857  0.2363
  228MOL0     C30665  -1.080   3.772   4.224  0.8136  0.6100  0.2234
  228MOL0     C30666  -1.148   3.703   4.344 -0.0255 -0.5755 -0.4931
  228MOL0     C30667  -1.238   3.578   4.317  0.4177 -0.0262  0.3915
  228MOL0     C30668  -1.367   3.625   4.256 -0.7075  0.0141  0.4937
  228MOL0     O30669  -1.451   3.513   4.216 -0.1972 -0.2710  0.4100
  228MOL0     C30670  -1.580   3.531   4.165 -0.3391 -0.5775  0.1266
  228MOL0     C30671  -1.646   3.422   4.122  0.2911 -0.6090  0.4958
  228MOL0     C30672  -1.775   3.428   4.061 -0.0920  1.4623  0.0259
  228MOL0     C30673  -1.846   3.302   4.005  0.0109  0.4384 -0.7059
  228MOL0     C30674  -1.831   3.560   4.060  0.0384 -0.0822 -0.0002
  228MOL0     C30675  -1.963   3.595   4.013  0.3378  0.5701 -0.5993
  228MOL0     O30676  -2.055   3.615   4.109  0.2383 -0.3974  0.2567
  228MOL0     C30677  -2.198   3.616   4.092 -0.7256 -0.3811 -0.3098
  228MOL0     C30678  -2.257   3.614   4.215 -0.4683 -0.3078  0.1392
  228MOL0     C30679  -2.385   3.581   4.231  0.7386 -0.5691  0.3015
  228MOL0     C30680  -2.462   3.560   4.115 -0.5554  0.1887 -0.1789
  228MOL0     O30681  -2.590   3.513   4.138 -0.4181 -0.3071  0.3473
  228MOL0     C30682  -2.698   3.519   4.038 -0.4448 -0.6836 -0.6704
  228MOL0     C30683  -2.824   3.561   4.117 -0.0699 -0.5674 -0.5218
  228MOL0     C30684  -2.927   3.646   4.034 -0.2120  0.1573 -0.2589
  228MOL0     C30685  -3.056   3.562   4.023 -0.2907  0.0624  0.1146
  228MOL0     C30686  -3.140   3.543   4.145 -0.0133  0.3798  0.1503
  228MOL0     C30687  -3.239   3.431   4.135 -0.5874 -0.1433  0.1216
  228MOL0     C30688  -3.357   3.466   4.036 -0.5658  0.5006  0.0943
  228MOL0     C30689  -3.464   3.357   4.065  1.2293  0.3243 -0.7212
  228MOL0    Cl30690  -3.582   3.351   3.931  0.3073 -0.0428  0.0834
  228MOL0     C30691  -2.405   3.565   3.982  0.2386 -0.6783  0.1086
  228MOL0     C30692  -2.267   3.601   3.969  0.0911 -0.0971 -0.8956
  228MOL0     O30693  -1.983   3.596   3.889 -0.7569 -0.4538  0.1837
  228MOL0     C30694  -1.760   3.676   4.105 -0.0120 -0.6801  0.1151
  228MOL0     C30695  -1.627   3.663   4.147 -0.1781  0.0926 -0.9858
  228MOL0     N30696  -1.008   4.020   4.266  0.8328 -0.9568  0.2267
  228MOL0     N30697  -0.907   4.085   4.316 -0.5512  0.1915 -0.5099
  228MOL0     C30698   0.398   3.560   4.346 -1.0468 -1.0680 -1.1155
  228MOL0     C30699   0.524   3.500   4.347 -0.0132  0.2788 -0.5909
  228MOL0     C30700   0.817   3.193   4.458 -0.0621 -0.2860  0.8422
  228MOL0     C30701   0.851   3.083   4.384 -0.2620  0.0624 -0.5101
  228MOL0     C30702   0.949   2.991   4.431 -0.4976 -0.1785  0.5382
  228MOL0     C30703   1.029   3.029   4.546  0.2838  0.3999  0.0420
  228MOL0     O30704   1.144   2.973   4.592  0.5402 -0.4698  0.5258
  228MOL0     C30705   1.210   2.889   4.500 -0.6520  0.3658 -0.8413
  228MOL0     C30706   1.366   2.909   4.502 -0.1500  0.3885  0.8606
  228MOL0     C30707   1.433   2.816   4.394 -0.5699  0.0079  0.4532
  228MOL0     C30708   1.573   2.879   4.357  0.3038 -0.1882 -0.5484
  228MOL0     C30709   1.659   2.792   4.287 -0.3387  0.8081  1.1945
  228MOL0     C30710   1.722   2.701   4.236  0.1688 -0.5020  0.4308
  228MOL0     C30711   1.004   3.143   4.609 -0.5121 -0.5733  0.9086
  228MOL0     C30712   0.895   3.227   4.575  0.0774  0.3456 -0.0610
  228MOL0     H30713   0.562   3.477   4.686  2.0613 -0.5859 -0.8579
  228MOL0     H30714   0.336   3.593   4.673 -0.0764 -1.2705  0.0729
  228MOL0     H30715   0.193   3.754   4.267 -0.2821  0.3977  0.8008
  228MOL0     H30716   0.110   3.617   4.333  2.7851 -1.1281 -0.1518
  228MOL0     H30717   0.018   3.776   4.515 -0.5269 -3.2546 -1.3041
  228MOL0     H30718   0.074   3.915   4.417 -0.0918  0.4179  0.0517
  228MOL0     H30719  -0.051   3.806   4.228  0.1252 -1.4624 -0.0020
  228MOL0     H30720  -0.119   3.689   4.350 -1.3734  0.3916 -1.1941
  228MOL0     H30721  -0.194   3.861   4.485 -1.0427 -2.6934 -0.6106
  228MOL0     H30722  -0.137   3.987   4.378 -0.8564 -0.4233 -0.8602
  228MOL0     H30723  -0.312   3.921   4.216 -0.9090 -0.9561 -1.3222
  228MOL0     H30724  -0.343   3.767   4.304  0.9488 -0.1932 -3.3391
  228MOL0     H30725  -0.431   3.930   4.499  0.6726 -2.6704 -0.6073
  228MOL0     H30726  -0.418   4.055   4.372  1.3731  0.2072  2.2599
  228MOL0     H30727  -0.575   3.930   4.230 -0.3955 -1.5782  0.2304
  228MOL0     H30728  -0.593   3.819   4.370  0.8950 -1.3302 -1.3539
  228MOL0     H30729  -0.634   4.124   4.359 -1.9118  0.6776 -0.6051
  228MOL0     H30730  -0.680   4.048   4.501 -1.3684  1.2850  0.1364
  228MOL0     H30731  -0.803   3.764   4.325 -0.6970  0.1404  2.1579
  228MOL0     H30732  -1.158   3.804   4.154 -2.6513 -2.4546  2.3325
  228MOL0     H30733  -1.039   3.691   4.164  1.6066  2.2836 -1.5984
  228MOL0     H30734  -1.213   3.778   4.391 -2.1287 -2.1857 -0.6993
  228MOL0     H30735  -1.069   3.677   4.415  1.0523  1.2313 -0.9439
  228MOL0     H30736  -1.259   3.524   4.410 -0.6104  0.1101  0.2442
  228MOL0     H30737  -1.194   3.500   4.255 -0.7647 -1.0734  0.8150
  228MOL0     H30738  -1.334   3.673   4.164 -0.4160 -3.2062 -1.2313
  228MOL0     H30739  -1.419   3.699   4.317 -0.5340  1.7599 -1.3969
  228MOL0     H30740  -1.609   3.320   4.133 -1.3635 -1.7645 -2.8956
  228MOL0     H30741  -1.787   3.210   4.010 -0.8988 -0.1824 -1.1773
  228MOL0     H30742  -1.943   3.296   4.056  0.0700  1.8474 -0.4047
  228MOL0     H30743  -1.866   3.313   3.898  0.3231  0.1675 -0.7905
  228MOL0     H30744  -2.194   3.626   4.302  0.4673 -0.6838 -0.4739
  228MOL0     H30745  -2.423   3.581   4.332  1.4722  0.2703  0.5927
  228MOL0     H30746  -2.681   3.594   3.960  0.1211 -0.5678 -0.4417
  228MOL0     H30747  -2.706   3.420   3.992  0.6473 -1.4608  0.7398
  228MOL0     H30748  -2.858   3.464   4.155 -1.5218  0.6980  1.6536
  228MOL0     H30749  -2.794   3.621   4.203  0.8011 -0.3281 -0.9795
  228MOL0     H30750  -2.887   3.650   3.932 -0.0275 -2.0395 -0.3183
  228MOL0     H30751  -2.950   3.737   4.090  0.6887 -0.5120  1.2704
  228MOL0     H30752  -3.108   3.611   3.941  0.7973 -0.1496 -0.7200
  228MOL0     H30753  -3.023   3.464   3.987  1.4654 -1.0763  4.1632
  228MOL0     H30754  -3.196   3.635   4.163  1.4517  1.0281  1.7816
  228MOL0     H30755  -3.081   3.524   4.236 -4.1441  0.6747  3.1740
  228MOL0     H30756  -3.193   3.339   4.099 -2.4827 -0.6943 -1.0303
  228MOL0     H30757  -3.280   3.412   4.234 -3.9924  1.8016 -0.7393
  228MOL0     H30758  -3.323   3.463   3.932  0.4135 -1.4377  0.4171
  228MOL0     H30759  -3.397   3.566   4.057  2.4786  1.5563  1.5661
  228MOL0     H30760  -3.525   3.374   4.154 -1.4958  0.6608 -2.5280
  228MOL0     H30761  -3.423   3.256   4.074  1.3733  0.3384 -1.1895
  228MOL0     H30762  -2.461   3.552   3.890 -1.1244  0.7452  0.6836
  228MOL0     H30763  -2.220   3.609   3.872 -1.7582 -1.2801 -1.9471
  228MOL0     H30764  -1.802   3.776   4.102  3.2497  0.8672  0.7599
  228MOL0     H30765  -1.557   3.745   4.163  0.9681 -0.7927 -1.2810
  228MOL0     H30766   0.360   3.593   4.249 -0.3898  1.1575 -0.6803
  228MOL0     H30767   0.576   3.470   4.257  1.9758 -0.5977  0.7570
  228MOL0     H30768   0.797   3.052   4.296 -2.2228  0.2627  0.5707
  228MOL0     H30769   0.968   2.899   4.377  0.4386  0.8992 -1.0630
  228MOL0     H30770   1.197   2.785   4.531 -0.9338  1.3142  2.7014
  228MOL0     H30771   1.182   2.911   4.397  2.6040  2.6269 -1.3911
  228MOL0     H30772   1.411   2.865   4.592  1.8087 -3.7128 -1.8066
  228MOL0     H30773   1.379   3.017   4.494 -2.3009  0.6970  0.9108
  228MOL0     H30774   1.378   2.827   4.301  1.2915 -0.5761 -0.7879
  228MOL0     H30775   1.437   2.709   4.418 -0.8827  0.1983  1.3888
  228MOL0     H30776   1.620   2.910   4.451  0.0661 -0.3161 -0.3862
  228MOL0     H30777   1.560   2.969   4.296  1.6583  1.0471  0.8894
  228MOL0     H30778   1.777   2.637   4.169  0.8954  1.2231 -0.6985
  228MOL0     H30779   1.069   3.162   4.694  0.3989 -3.5605  0.9771
  228MOL0     H30780   0.880   3.321   4.629  1.8294  2.6942 -3.3072
  229MOL0     O30781   2.352   1.701   2.481 -0.7700  0.6333  0.2041
  229MOL0     C30782   2.358   1.751   2.592 -0.7258  0.0653  0.1443
  229MOL0     O30783   2.272   1.731   2.699 -0.0234 -0.3776 -0.7591
  229MOL0     C30784   2.150   1.681   2.673 -0.4157 -0.2010 -0.7697
  229MOL0     C30785   2.074   1.716   2.562 -0.2444 -0.4264  0.0137
  229MOL0     C30786   1.946   1.659   2.541 -0.0158  0.8813  0.0440
  229MOL0     C30787   1.896   1.553   2.616 -0.8265  0.9805 -0.3697
  229MOL0     O30788   1.780   1.497   2.579 -0.1421  0.2058  0.1585
  229MOL0     C30789   1.730   1.407   2.679  0.7043  0.0282  0.2336
  229MOL0     C30790   1.593   1.361   2.620 -1.1396  0.1368  0.3560
  229MOL0     C30791   1.490   1.464   2.661  0.1590  0.3026 -0.5066
  229MOL0     C30792   1.357   1.439   2.602  0.1910 -0.0066 -0.7706
  229MOL0     C30793   1.291   1.310   2.663  0.3311 -0.4453  1.0790
  229MOL0     C30794   1.138   1.309   2.610  0.5839 -0.3401 -0.4695
  229MOL0     C30795   1.138   1.271   2.467  0.1113 -0.2674 -0.1772
  229MOL0     C30796   1.009   1.303   2.382  0.0912 -0.6384  0.8724
  229MOL0     N30797   0.887   1.222   2.399 -0.5709 -0.0793  0.3331
  229MOL0     C30798   0.769   1.226   2.328  0.6709 -0.6463  0.2243
  229MOL0     C30799   0.687   1.148   2.392  0.7911  0.3073 -0.5820
  229MOL0     C30800   0.541   1.130   2.371  0.0728  0.2719  1.4636
  229MOL0     C30801   0.485   0.997   2.420  0.8959 -0.4243 -0.5720
  229MOL0     C30802   0.353   0.952   2.345  0.2291  0.1877  0.0154
  229MOL0     C30803   0.320   0.804   2.370  0.8418  0.4364  0.7484
  229MOL0     O30804   0.187   0.780   2.315 -0.2604  0.9815 -0.0812
  229MOL0     C30805   0.074   0.820   2.398 -0.3205 -0.4559  0.5484
  229MOL0     C30806   0.079   0.845   2.538  0.3777 -0.3169  0.6722
  229MOL0     C30807  -0.044   0.856   2.617 -0.6403  0.4993  0.1196
  229MOL0     C30808  -0.031   0.874   2.767 -0.1849 -0.0182  0.5302
  229MOL0     C30809  -0.169   0.843   2.557  0.2004 -0.2126  0.8793
  229MOL0     C30810  -0.302   0.870   2.613  0.0514  0.9304  0.9760
  229MOL0     O30811  -0.406   0.873   2.525 -0.8711  0.3545  0.1076
  229MOL0     C30812  -0.537   0.895   2.561 -0.3076  0.4018 -0.3384
  229MOL0     C30813  -0.569   0.989   2.658  0.2060  0.1416  0.2458
  229MOL0     C30814  -0.695   1.001   2.710  0.2117  0.3594 -0.3703
  229MOL0     C30815  -0.801   0.931   2.652 -0.4921  0.1021  0.4821
  229MOL0     O30816  -0.923   0.971   2.691  0.3942  0.2230  0.0076
  229MOL0     C30817  -0.998   1.030   2.583 -0.3749 -0.5534  0.1340
  229MOL0     C30818  -1.129   1.088   2.645  1.0498 -0.3629 -0.0071
  229MOL0     C30819  -1.232   1.135   2.537 -0.4099  0.1505 -0.4259
  229MOL0     C30820  -1.354   1.182   2.598  0.1029  0.0158 -0.7739
  229MOL0     C30821  -1.458   1.243   2.496  0.5624  0.1019  0.6687
  229MOL0     C30822  -1.467   1.398   2.491 -0.5051 -0.9780 -0.4496
  229MOL0     C30823  -1.571   1.452   2.389  0.6269 -0.2647  0.5960
  229MOL0     C30824  -1.565   1.602   2.373 -0.6214 -0.8117 -0.3934
  229MOL0    Cl30825  -1.608   1.681   2.518 -0.2253  0.0175  0.4080
  229MOL0     C30826  -0.775   0.819   2.563 -0.4549  0.0741  0.6387
  229MOL0     C30827  -0.643   0.796   2.513 -0.2040  0.4905  0.0138
  229MOL0     O30828  -0.316   0.859   2.732  0.3167  0.8523 -0.3154
  229MOL0     C30829  -0.162   0.825   2.411 -0.1352  0.1616  1.2124
  229MOL0     C30830  -0.046   0.812   2.337  0.1093  1.3580 -0.2428
  229MOL0     N30831   0.741   1.103   2.508  0.2120 -0.5188  0.5407
  229MOL0     N30832   0.857   1.150   2.508 -1.1992  0.6696  0.5500
  229MOL0     C30833   1.986   1.500   2.720  0.2889  0.2715  0.1742
  229MOL0     C30834   2.109   1.566   2.743 -0.6373 -0.5341  0.4195
  229MOL0     C30835   2.480   1.824   2.637 -0.9531  0.0470 -0.1485
  229MOL0     C30836   2.582   1.850   2.545  0.5244  0.9723 -0.4236
  229MOL0     C30837   2.693   1.919   2.578 -0.0604  0.4115 -0.1726
  229MOL0     C30838   2.707   1.976   2.702  0.3623  0.6652  0.5924
  229MOL0     O30839   2.820   2.045   2.720 -0.1003 -0.2280  0.3679
  229MOL0     C30840   2.833   2.141   2.828  0.1975  0.0518 -0.2059
  229MOL0     C30841   2.962   2.226   2.819 -0.2309 -0.0104 -0.5696
  229MOL0     C30842   3.088   2.141   2.839  0.9864 -0.0330  0.1067
  229MOL0     C30843   3.093   2.069   2.971  0.4008 -0.3993  0.5649
  229MOL0     C30844   3.131   2.162   3.080  0.7002  0.4236  0.4930
  229MOL0     C30845   3.169   2.238   3.167  0.5574 -0.2433  0.6552
  229MOL0     C30846   2.612   1.940   2.801 -0.1003  0.8831  0.1637
  229MOL0     C30847   2.501   1.871   2.765  0.0723  1.1017 -0.3043
  229MOL0     H30848   2.095   1.806   2.505 -0.4874 -0.1697  0.3289
  229MOL0     H30849   1.878   1.703   2.469 -0.9533  0.8841  0.9156
  229MOL0     H30850   1.798   1.322   2.690  0.5989  0.0082  0.7748
  229MOL0     H30851   1.724   1.453   2.778 -1.4380 -3.3081  1.8298
  229MOL0     H30852   1.599   1.362   2.511 -2.5407  0.8879  0.2579
  229MOL0     H30853   1.561   1.267   2.664 -1.7529  0.8609  1.5126
  229MOL0     H30854   1.476   1.473   2.769  1.3266 -0.0565 -0.3066
  229MOL0     H30855   1.528   1.561   2.625 -0.8878  0.7264 -0.4920
  229MOL0     H30856   1.294   1.524   2.630 -0.9778 -1.6662  2.0513
  229MOL0     H30857   1.371   1.436   2.493 -2.1224  3.1343 -1.2912
  229MOL0     H30858   1.358   1.226   2.641  1.8420  1.3093 -1.6510
  229MOL0     H30859   1.287   1.319   2.772 -0.8337 -4.0403  1.4507
  229MOL0     H30860   1.062   1.247   2.659 -1.5222  1.1504 -1.7138
  229MOL0     H30861   1.097   1.409   2.619 -1.2474 -1.1069  0.1770
  229MOL0     H30862   1.217   1.326   2.415 -0.4814  1.5033  0.7239
  229MOL0     H30863   1.152   1.164   2.448 -2.2218 -0.4249 -1.5122
  229MOL0     H30864   1.035   1.292   2.276 -4.0203  3.0275 -0.8194
  229MOL0     H30865   0.979   1.407   2.399  0.2312 -0.4072 -0.1984
  229MOL0     H30866   0.741   1.266   2.231  0.0467  0.4487  0.8370
  229MOL0     H30867   0.488   1.213   2.420 -5.2096 -0.8532 -1.5894
  229MOL0     H30868   0.523   1.137   2.264 -1.4541  1.6496  1.7695
  229MOL0     H30869   0.455   1.022   2.523  0.8537  1.1591 -0.9487
  229MOL0     H30870   0.560   0.917   2.414 -0.7341 -1.9729 -0.8705
  229MOL0     H30871   0.361   0.959   2.236  0.2015  1.5757  0.0817
  229MOL0     H30872   0.272   1.019   2.376 -1.0330 -1.3625  0.2374
  229MOL0     H30873   0.312   0.768   2.473 -0.9554  0.4413  0.6507
  229MOL0     H30874   0.379   0.739   2.306 -2.0519  0.6227 -2.4033
  229MOL0     H30875   0.176   0.867   2.580  0.0507  1.8685  0.4004
  229MOL0     H30876  -0.078   0.793   2.823 -2.1887  0.5259 -0.2712
  229MOL0     H30877   0.075   0.880   2.791  0.0251 -1.1436 -0.0727
  229MOL0     H30878  -0.076   0.971   2.792 -0.8854 -0.6169  1.7106
  229MOL0     H30879  -0.499   1.063   2.697  0.1448  1.9122 -2.6984
  229MOL0     H30880  -0.724   1.075   2.785  2.3813 -1.2080  2.1652
  229MOL0     H30881  -0.944   1.116   2.542 -0.5607 -0.8661 -0.7937
  229MOL0     H30882  -1.034   0.962   2.505  0.5183 -1.1793  0.2667
  229MOL0     H30883  -1.183   1.018   2.710  0.2731  1.3468  1.2697
  229MOL0     H30884  -1.111   1.172   2.713 -1.0794  0.3903 -0.2747
  229MOL0     H30885  -1.262   1.050   2.475  0.6824 -1.0742  0.6385
  229MOL0     H30886  -1.189   1.212   2.472 -2.1425  0.5708 -1.1443
  229MOL0     H30887  -1.404   1.099   2.650  1.3439 -0.8707 -0.9590
  229MOL0     H30888  -1.336   1.262   2.671 -4.4330  1.2173 -0.6221
  229MOL0     H30889  -1.556   1.202   2.524 -0.8100  0.9693 -2.4904
  229MOL0     H30890  -1.438   1.202   2.397  1.9207  1.2330  0.4400
  229MOL0     H30891  -1.503   1.439   2.586 -2.9059  0.2215 -1.7738
  229MOL0     H30892  -1.366   1.437   2.480  0.9522 -2.7844  4.3025
  229MOL0     H30893  -1.673   1.426   2.419  0.6589  0.7485  1.6548
  229MOL0     H30894  -1.550   1.408   2.291 -2.5472 -0.5688 -0.0426
  229MOL0     H30895  -1.627   1.635   2.289 -0.0965  1.3295 -0.0016
  229MOL0     H30896  -1.460   1.618   2.348  0.2448 -2.7386  1.6287
  229MOL0     H30897  -0.850   0.746   2.534  0.0233 -0.6339  1.1527
  229MOL0     H30898  -0.633   0.726   2.431 -0.6529 -2.2917  2.1449
  229MOL0     H30899  -0.255   0.814   2.355 -0.9308 -1.1910  2.7182
  229MOL0     H30900  -0.058   0.791   2.231  0.5834  2.9560 -0.6371
  229MOL0     H30901   1.970   1.426   2.798  0.2417  0.6551  0.5338
  229MOL0     H30902   2.171   1.514   2.815 -2.8691 -1.8696  1.4715
  229MOL0     H30903   2.568   1.811   2.445 -1.6546  2.1864 -0.6616
  229MOL0     H30904   2.765   1.932   2.498 -0.1252 -0.1200 -0.3212
  229MOL0     H30905   2.752   2.212   2.810  0.1242 -0.1076 -0.5096
  229MOL0     H30906   2.818   2.098   2.927  0.6355  0.2096 -0.0685
  229MOL0     H30907   2.960   2.299   2.900 -1.6091 -1.3000  0.6025
  229MOL0     H30908   2.978   2.276   2.722 -0.9295 -0.7671 -1.0883
  229MOL0     H30909   3.168   2.213   2.820  1.6844  0.0051  2.7268
  229MOL0     H30910   3.095   2.064   2.762 -1.9286 -0.8867  0.5531
  229MOL0     H30911   3.181   2.004   2.973  2.7998  2.4500  5.0354
  229MOL0     H30912   3.007   2.009   3.000  0.0420  0.1689  0.6889
  229MOL0     H30913   3.205   2.305   3.242  2.3475 -0.6240  0.1971
  229MOL0     H30914   2.617   1.983   2.900 -4.1473  1.5458  0.2734
  229MOL0     H30915   2.421   1.872   2.838 -2.7404  1.1831 -3.1591
  230MOL0     O30916   1.421   2.754   2.187  0.0844  0.0278  0.0819
  230MOL0     C30917   1.425   2.863   2.246  0.5113  0.2433 -0.5043
  230MOL0     O30918   1.319   2.942   2.266  0.1145 -0.7519  0.1733
  230MOL0     C30919   1.196   2.881   2.257 -0.0532  0.0717 -0.6589
  230MOL0     C30920   1.161   2.792   2.362 -0.0300 -1.0481 -0.2231
  230MOL0     C30921   1.042   2.722   2.357 -0.2131 -0.2680 -0.4510
  230MOL0     C30922   0.951   2.741   2.255 -0.0919  0.0368  0.6648
  230MOL0     O30923   0.834   2.675   2.264  0.3331 -0.1273  0.3259
  230MOL0     C30924   0.797   2.628   2.133  0.7365  0.4236 -0.1238
  230MOL0     C30925   0.677   2.526   2.146  1.1538 -0.3000 -0.1233
  230MOL0     C30926   0.668   2.462   2.280  1.0354  1.0386  0.0564
  230MOL0     C30927   0.538   2.375   2.285  0.1695  0.2469 -0.0838
  230MOL0     C30928   0.491   2.347   2.425 -0.3936 -0.9278 -0.0217
  230MOL0     C30929   0.346   2.290   2.435  0.1455  0.1133  0.2192
  230MOL0     C30930   0.295   2.268   2.583 -0.1062  0.0544  0.5704
  230MOL0     C30931   0.169   2.185   2.591  0.0715  0.2880  0.2847
  230MOL0     N30932   0.117   2.192   2.728  0.5540  0.3877 -0.5136
  230MOL0     C30933   0.182   2.143   2.839  0.9377 -0.6652  0.5858
  230MOL0     C30934   0.110   2.176   2.947 -0.2357 -0.3293  0.4858
  230MOL0     C30935   0.128   2.124   3.081 -0.0546 -0.4488 -0.2807
  230MOL0     C30936   0.046   1.989   3.100  0.3321 -0.6809  0.9665
  230MOL0     C30937  -0.109   1.993   3.083 -0.1951 -0.0064  0.3524
  230MOL0     C30938  -0.181   1.862   3.121  0.4533 -0.0813  0.0387
  230MOL0     O30939  -0.162   1.826   3.259  0.1772  0.7207 -0.3297
  230MOL0     C30940  -0.247   1.733   3.306  0.2231  0.0904 -0.9922
  230MOL0     C30941  -0.193   1.612   3.364  0.1929  0.4204 -0.2645
  230MOL0     C30942  -0.265   1.517   3.438  0.7570  0.6819  0.7840
  230MOL0     C30943  -0.187   1.399   3.496 -0.0527  0.0078  0.2693
  230MOL0     C30944  -0.413   1.534   3.439 -0.6277  0.9487  0.0640
  230MOL0     C30945  -0.509   1.438   3.499 -0.0188 -0.8519  0.2622
  230MOL0     O30946  -0.642   1.482   3.519  0.3434 -0.3875  0.4416
  230MOL0     C30947  -0.734   1.385   3.546  0.1580 -0.3358 -0.5252
  230MOL0     C30948  -0.837   1.413   3.634 -0.4801 -0.1751 -0.6105
  230MOL0     C30949  -0.934   1.313   3.658 -0.6759  0.2745 -0.3409
  230MOL0     C30950  -0.928   1.188   3.591  0.1081 -0.4492  0.2617
  230MOL0     O30951  -1.016   1.086   3.612  0.3138 -0.1735 -0.7127
  230MOL0     C30952  -1.027   1.054   3.749  0.0547 -0.2125 -0.2696
  230MOL0     C30953  -1.137   0.949   3.762 -0.1460  0.0623 -0.2813
  230MOL0     C30954  -1.270   1.020   3.722 -0.5123  0.2229 -0.3186
  230MOL0     C30955  -1.390   0.929   3.718  0.4795  0.3685  0.0449
  230MOL0     C30956  -1.516   0.998   3.660 -0.8557  0.7655  0.4154
  230MOL0     C30957  -1.631   0.899   3.627  0.1142  0.5705 -0.8477
  230MOL0     C30958  -1.766   0.970   3.590 -0.7593  0.5033  0.0982
  230MOL0     C30959  -1.829   1.056   3.705 -0.3128 -0.2254 -0.1508
  230MOL0    Cl30960  -1.998   1.118   3.673  0.5163 -0.0618 -0.3317
  230MOL0     C30961  -0.830   1.172   3.492 -0.2480  0.1870 -0.0449
  230MOL0     C30962  -0.736   1.271   3.467  0.2688 -0.2919  0.3072
  230MOL0     O30963  -0.469   1.335   3.550 -0.3466  0.3883  1.0797
  230MOL0     C30964  -0.474   1.647   3.376  0.7508 -0.3550  0.6040
  230MOL0     C30965  -0.388   1.750   3.317 -0.0121  0.0887  0.5706
  230MOL0     N30966   0.001   2.256   2.897  0.5027 -0.6182  1.5675
  230MOL0     N30967   0.006   2.267   2.770 -0.0020  0.5948  0.5700
  230MOL0     C30968   0.977   2.849   2.163 -0.0909 -0.3261 -1.0599
  230MOL0     C30969   1.102   2.915   2.167 -0.1182  0.1464  0.1769
  230MOL0     C30970   1.558   2.916   2.276  0.0844  0.2272 -0.3307
  230MOL0     C30971   1.674   2.841   2.270  0.6058  0.3131 -0.7039
  230MOL0     C30972   1.801   2.890   2.311 -0.4116 -0.3616 -0.4625
  230MOL0     C30973   1.823   3.027   2.345  0.4120  0.1057 -1.0555
  230MOL0     O30974   1.936   3.090   2.395 -0.1275 -0.0163  0.3496
  230MOL0     C30975   2.057   3.016   2.397 -0.5206 -0.7499  0.2589
  230MOL0     C30976   2.166   3.094   2.477 -0.9177 -0.5521 -0.4944
  230MOL0     C30977   2.299   3.041   2.466 -0.5372  0.3990  0.1177
  230MOL0     C30978   2.409   3.125   2.541 -0.0810  0.6433  0.0673
  230MOL0     C30979   2.383   3.092   2.685  0.9220 -0.0823  0.7007
  230MOL0     C30980   2.352   3.068   2.797 -0.3961  0.5288 -0.2352
  230MOL0     C30981   1.706   3.101   2.333 -0.0067 -0.2569  0.3443
  230MOL0     C30982   1.577   3.052   2.310 -1.0279  0.3960 -0.6737
  230MOL0     H30983   1.220   2.783   2.453  0.7905 -1.6087 -0.8019
  230MOL0     H30984   1.019   2.645   2.430  2.5876 -2.2164 -1.4580
  230MOL0     H30985   0.773   2.705   2.059 -1.0573 -0.9531 -1.0474
  230MOL0     H30986   0.878   2.568   2.090  0.4065  0.1644 -0.3903
  230MOL0     H30987   0.585   2.572   2.109  1.7441  1.3679  0.3926
  230MOL0     H30988   0.704   2.448   2.074  1.8406  0.1863 -0.4039
  230MOL0     H30989   0.752   2.401   2.316  0.9324  2.1998  2.4596
  230MOL0     H30990   0.662   2.543   2.354 -0.4034 -0.3601  1.5460
  230MOL0     H30991   0.449   2.417   2.237  0.2271 -0.4955 -0.8675
  230MOL0     H30992   0.544   2.277   2.236 -1.7513  1.3862 -2.8628
  230MOL0     H30993   0.557   2.271   2.469  0.2405 -0.0307  0.6072
  230MOL0     H30994   0.506   2.441   2.479  2.3014 -0.4433 -1.4506
  230MOL0     H30995   0.275   2.360   2.392 -1.7246  0.0823  2.9557
  230MOL0     H30996   0.341   2.191   2.387 -1.4736 -0.5965  1.6971
  230MOL0     H30997   0.385   2.232   2.635  0.9650  1.8551  0.0632
  230MOL0     H30998   0.268   2.364   2.628 -2.5354 -0.6408  0.6934
  230MOL0     H30999   0.198   2.084   2.561  0.3140  1.0096 -2.1156
  230MOL0     H31000   0.083   2.205   2.526  0.7356 -2.0489 -1.4730
  230MOL0     H31001   0.270   2.079   2.842  2.0578  0.8178  0.8717
  230MOL0     H31002   0.234   2.107   3.104 -0.1668 -1.3202 -0.3754
  230MOL0     H31003   0.091   2.202   3.148 -0.5387  0.7164 -1.8627
  230MOL0     H31004   0.063   1.970   3.207 -0.3298  0.3853  1.2725
  230MOL0     H31005   0.085   1.900   3.050  0.0198 -0.5843  0.5507
  230MOL0     H31006  -0.123   2.012   2.977  0.0520 -1.8684 -0.0491
  230MOL0     H31007  -0.164   2.067   3.142 -2.2295 -1.0920 -0.0657
  230MOL0     H31008  -0.140   1.790   3.049 -1.7045  0.3793 -1.7527
  230MOL0     H31009  -0.288   1.876   3.103  0.7931  0.7771 -1.4707
  230MOL0     H31010  -0.085   1.603   3.361  0.4699  2.1906  2.0145
  230MOL0     H31011  -0.205   1.394   3.604  1.6690  0.0228  0.5703
  230MOL0     H31012  -0.221   1.305   3.450  0.2154  0.0411  0.0029
  230MOL0     H31013  -0.079   1.405   3.481 -0.0747  1.3004  0.5169
  230MOL0     H31014  -0.821   1.496   3.703 -1.3555 -0.3445 -0.1921
  230MOL0     H31015  -1.010   1.336   3.732 -2.3130  1.4223 -2.2842
  230MOL0     H31016  -0.929   1.020   3.784  1.6043  4.5907  0.7752
  230MOL0     H31017  -1.061   1.138   3.811 -0.3705  0.3627 -1.2541
  230MOL0     H31018  -1.107   0.864   3.701  3.4954  1.7344 -1.0512
  230MOL0     H31019  -1.140   0.917   3.867  4.2608  0.4343  0.1560
  230MOL0     H31020  -1.271   1.056   3.619 -2.4350 -3.6968 -1.8662
  230MOL0     H31021  -1.282   1.107   3.787  0.9848  0.7249 -0.6545
  230MOL0     H31022  -1.360   0.846   3.655 -1.3232 -0.5899  0.3775
  230MOL0     H31023  -1.417   0.899   3.819 -1.4194 -0.3423 -0.6316
  230MOL0     H31024  -1.496   1.058   3.571  0.4492 -0.5521 -0.2213
  230MOL0     H31025  -1.551   1.067   3.738 -2.0475  0.1161  0.4913
  230MOL0     H31026  -1.601   0.830   3.548 -1.2452 -1.2614  0.1681
  230MOL0     H31027  -1.642   0.840   3.718 -1.9397 -3.4816 -3.4149
  230MOL0     H31028  -1.832   0.884   3.578  1.0388 -0.8452 -0.6254
  230MOL0     H31029  -1.749   1.024   3.496  1.1676  1.6152  1.0142
  230MOL0     H31030  -1.766   1.146   3.712 -0.6598  0.0322 -0.2926
  230MOL0     H31031  -1.835   0.997   3.796  1.0097  1.5534  1.1742
  230MOL0     H31032  -0.837   1.079   3.436 -1.3572  0.9358 -1.2205
  230MOL0     H31033  -0.660   1.241   3.395 -1.1935 -0.5903 -1.1755
  230MOL0     H31034  -0.578   1.654   3.348  0.8143 -2.0253 -0.1686
  230MOL0     H31035  -0.435   1.838   3.274 -3.1178 -0.3890  2.6428
  230MOL0     H31036   0.909   2.874   2.082 -3.9913  0.7218  2.1690
  230MOL0     H31037   1.131   2.982   2.087  2.7664 -1.6333 -0.3828
  230MOL0     H31038   1.665   2.736   2.244 -1.2281  0.2078  0.2052
  230MOL0     H31039   1.885   2.822   2.316  0.5332  0.6930 -1.6043
  230MOL0     H31040   2.046   2.917   2.442  1.3228  0.0434  2.6860
  230MOL0     H31041   2.092   2.999   2.295  0.7038  3.0835 -0.1325
  230MOL0     H31042   2.127   3.071   2.577  0.2001 -0.1757  0.0438
  230MOL0     H31043   2.157   3.201   2.456 -1.8693 -0.3714  0.7489
  230MOL0     H31044   2.320   3.023   2.360 -0.2374  0.0530  0.2354
  230MOL0     H31045   2.309   2.945   2.516 -0.7724  0.8162  0.9875
  230MOL0     H31046   2.406   3.233   2.524  1.5365  0.7450  0.2714
  230MOL0     H31047   2.507   3.088   2.509 -0.9086 -3.6593  1.7405
  230MOL0     H31048   2.315   3.041   2.894  0.3425  0.9574  0.1803
  230MOL0     H31049   1.717   3.202   2.371  0.2570  0.6632 -2.0033
  230MOL0     H31050   1.494   3.121   2.304 -1.1817  0.2942  0.1500
  231MOL0     O31051   1.866   0.873   4.149 -0.7599 -0.6832  0.1556
  231MOL0     C31052   1.943   0.837   4.065 -0.7062 -0.0338  1.3199
  231MOL0     O31053   1.910   0.771   3.948  0.6110 -0.3047 -0.6302
  231MOL0     C31054   1.779   0.734   3.914  0.7105  0.2834  0.6334
  231MOL0     C31055   1.668   0.814   3.947 -0.4303 -0.0824 -0.8192
  231MOL0     C31056   1.545   0.761   3.910 -1.0458 -0.2169 -0.5924
  231MOL0     C31057   1.534   0.637   3.847  0.6044 -0.5412 -0.3465
  231MOL0     O31058   1.410   0.586   3.792  0.0958  0.0220 -0.8459
  231MOL0     C31059   1.297   0.673   3.773  0.2333 -0.3926 -0.2297
  231MOL0     C31060   1.178   0.594   3.724 -0.3439 -0.8757  0.3661
  231MOL0     C31061   1.192   0.524   3.583  0.4480 -0.0537 -0.5125
  231MOL0     C31062   1.050   0.474   3.544 -0.4965  0.1108  0.5502
  231MOL0     C31063   1.073   0.383   3.430 -0.3843 -0.2810 -0.4026
  231MOL0     C31064   0.945   0.366   3.344  0.3590 -0.0954  0.2272
  231MOL0     C31065   0.826   0.296   3.415 -0.7540  0.9860 -0.2167
  231MOL0     C31066   0.865   0.168   3.475 -0.3829  0.1256 -0.5418
  231MOL0     N31067   0.749   0.087   3.528  0.1010 -0.4297  0.2602
  231MOL0     C31068   0.658   0.132   3.615  0.3020  0.3262  0.9263
  231MOL0     C31069   0.567   0.035   3.617 -1.0424  0.4528 -0.2238
  231MOL0     C31070   0.435   0.052   3.675  0.8798 -0.4303  0.4471
  231MOL0     C31071   0.432   0.029   3.824  0.3267 -0.2918  0.9228
  231MOL0     C31072   0.290   0.029   3.886  0.4827 -0.4858 -0.1467
  231MOL0     C31073   0.233   0.179   3.904  0.6653  0.4093  0.1248
  231MOL0     O31074   0.116   0.181   3.989  0.1975  0.9494 -0.1270
  231MOL0     C31075   0.003   0.126   3.938  0.2140 -0.3810 -0.2329
  231MOL0     C31076  -0.082   0.056   4.028 -0.1919 -0.1862 -0.8474
  231MOL0     C31077  -0.201  -0.004   3.979  0.0501 -0.4055  0.3715
  231MOL0     C31078  -0.289  -0.079   4.082  0.2026 -0.0367  0.4284
  231MOL0     C31079  -0.229  -0.010   3.841 -1.1095 -0.3139 -0.1835
  231MOL0     C31080  -0.355  -0.068   3.776 -0.1641 -0.0294  0.1859
  231MOL0     O31081  -0.349  -0.083   3.637  0.1545 -0.1422  0.7378
  231MOL0     C31082  -0.461  -0.129   3.571 -0.2861 -0.4339  1.2204
  231MOL0     C31083  -0.581  -0.067   3.581 -0.9550 -0.3935  0.9064
  231MOL0     C31084  -0.691  -0.106   3.500 -0.9319 -0.0609  0.3222
  231MOL0     C31085  -0.677  -0.216   3.415  0.1002 -0.2997 -0.3395
  231MOL0     O31086  -0.778  -0.245   3.336 -0.5355 -1.1879  0.2790
  231MOL0     C31087  -0.775  -0.334   3.220 -0.1830  0.3111 -0.3561
  231MOL0     C31088  -0.918  -0.382   3.172  0.2105  0.6522 -0.0771
  231MOL0     C31089  -0.890  -0.472   3.044  1.0157 -0.0842  0.5289
  231MOL0     C31090  -1.017  -0.534   2.989  0.9762 -0.1396 -0.2094
  231MOL0     C31091  -1.119  -0.420   2.952 -1.0561 -0.1820 -0.5606
  231MOL0     C31092  -1.229  -0.463   2.856 -0.4002 -0.1412 -0.2827
  231MOL0     C31093  -1.331  -0.549   2.922 -0.3000  0.3910 -0.2677
  231MOL0     C31094  -1.436  -0.579   2.825 -0.3665  0.2774 -0.2380
  231MOL0    Cl31095  -1.557  -0.701   2.872  0.2169 -0.2683 -0.1364
  231MOL0     C31096  -0.559  -0.288   3.425 -0.1502 -0.4192 -0.1764
  231MOL0     C31097  -0.452  -0.241   3.499  0.0615  0.4538 -0.1388
  231MOL0     O31098  -0.454  -0.085   3.843  0.5374 -0.4680 -0.8862
  231MOL0     C31099  -0.128   0.045   3.755 -0.0015  0.3316  0.5825
  231MOL0     C31100  -0.017   0.117   3.801 -0.3347 -0.3226  0.2097
  231MOL0     N31101   0.605  -0.068   3.525  0.1521 -0.6694  0.2454
  231MOL0     N31102   0.721  -0.037   3.483  0.2370 -0.0911 -0.0693
  231MOL0     C31103   1.646   0.575   3.802  0.0369 -0.6439  0.5201
  231MOL0     C31104   1.763   0.626   3.825 -0.7593 -0.2484 -0.4743
  231MOL0     C31105   2.086   0.862   4.078 -0.3883  0.5541 -0.1801
  231MOL0     C31106   2.139   0.989   4.125  0.0816  0.6399  0.5586
  231MOL0     C31107   2.276   1.004   4.134 -0.2519 -0.3067  0.0167
  231MOL0     C31108   2.365   0.909   4.097 -0.1972  0.2780 -0.3197
  231MOL0     O31109   2.497   0.942   4.094  0.2909 -0.3925  0.2778
  231MOL0     C31110   2.600   0.847   4.127 -0.1688  0.0271 -0.0895
  231MOL0     C31111   2.742   0.905   4.088  0.5267  0.6020 -0.1757
  231MOL0     C31112   2.754   0.902   3.933 -0.6060  0.3684 -0.0299
  231MOL0     C31113   2.896   0.897   3.892  1.0425 -0.8876  0.2896
  231MOL0     C31114   2.953   1.035   3.895 -0.3343  0.5216 -0.0276
  231MOL0     C31115   3.011   1.145   3.919 -0.6713  0.0420  0.2060
  231MOL0     C31116   2.319   0.787   4.055  0.0848  0.1772 -0.1801
  231MOL0     C31117   2.180   0.763   4.050  0.0844 -0.3168  0.4185
  231MOL0     H31118   1.669   0.903   4.009  0.1104 -1.8194  1.8054
  231MOL0     H31119   1.454   0.817   3.932 -0.2910  1.4324 -1.5301
  231MOL0     H31120   1.266   0.715   3.869 -0.3991 -2.1474  0.3771
  231MOL0     H31121   1.328   0.754   3.706  1.0256 -0.1289  0.4369
  231MOL0     H31122   1.146   0.531   3.807 -1.4511 -0.9948 -0.1291
  231MOL0     H31123   1.092   0.660   3.707 -1.0907 -2.3320 -2.0554
  231MOL0     H31124   1.229   0.600   3.513  1.3010 -1.7694 -2.0223
  231MOL0     H31125   1.268   0.447   3.596  0.0696  0.1607  5.7775
  231MOL0     H31126   0.990   0.432   3.626 -2.6284  1.5453 -0.1917
  231MOL0     H31127   0.991   0.552   3.497  2.7878  0.6183 -3.1944
  231MOL0     H31128   1.152   0.428   3.368  2.7657  0.1135  3.4515
  231MOL0     H31129   1.111   0.286   3.462  1.8244  1.4872  2.8727
  231MOL0     H31130   0.892   0.458   3.320 -1.0937 -0.3971  2.0624
  231MOL0     H31131   0.977   0.323   3.248 -0.2685 -0.4147  0.1547
  231MOL0     H31132   0.775   0.356   3.491 -3.9224  1.4291 -2.4778
  231MOL0     H31133   0.759   0.270   3.332  0.5192  1.9218 -1.5983
  231MOL0     H31134   0.936   0.190   3.556 -1.2023  0.7380  0.0244
  231MOL0     H31135   0.915   0.112   3.396  0.2659 -0.0966  0.0168
  231MOL0     H31136   0.667   0.224   3.671 -0.5919  1.2339 -0.3478
  231MOL0     H31137   0.407   0.158   3.671  1.1300 -0.3371  1.0735
  231MOL0     H31138   0.364  -0.000   3.610  0.0649  2.3580 -1.0820
  231MOL0     H31139   0.500   0.106   3.864 -1.8344  1.4665  1.4290
  231MOL0     H31140   0.478  -0.066   3.852 -1.5358 -0.9079  2.0824
  231MOL0     H31141   0.299  -0.018   3.984 -0.5232  1.9654  1.2072
  231MOL0     H31142   0.222  -0.027   3.820  0.4369  1.9425 -2.2950
  231MOL0     H31143   0.212   0.215   3.803 -1.5378 -0.4131  0.2303
  231MOL0     H31144   0.308   0.247   3.945 -0.8883  2.1074  0.2940
  231MOL0     H31145  -0.051   0.047   4.132 -2.9525  1.0830  0.1663
  231MOL0     H31146  -0.331  -0.167   4.031  0.6518  2.0976 -4.1278
  231MOL0     H31147  -0.240  -0.113   4.174 -0.1583 -0.5941  0.4233
  231MOL0     H31148  -0.378  -0.016   4.093  1.6977  2.6989 -1.9267
  231MOL0     H31149  -0.580   0.024   3.640  1.4158 -0.9110  1.7971
  231MOL0     H31150  -0.778  -0.043   3.487 -0.8615 -0.2878 -1.4226
  231MOL0     H31151  -0.732  -0.293   3.128  2.6660 -1.4987  0.0452
  231MOL0     H31152  -0.715  -0.423   3.241 -1.4991 -0.0485  2.2177
  231MOL0     H31153  -0.967  -0.444   3.247 -1.7832  1.3603 -0.7138
  231MOL0     H31154  -0.977  -0.292   3.149 -1.6736  0.1849  2.4589
  231MOL0     H31155  -0.806  -0.541   3.048  2.7588  1.9413  0.4301
  231MOL0     H31156  -0.849  -0.402   2.971 -0.8608  0.2538 -0.2629
  231MOL0     H31157  -0.993  -0.587   2.897 -1.3783 -1.3625 -0.1890
  231MOL0     H31158  -1.061  -0.596   3.067  0.2303  0.7395  0.0956
  231MOL0     H31159  -1.065  -0.343   2.896 -1.6793  0.6162 -0.0865
  231MOL0     H31160  -1.154  -0.377   3.047  0.5114 -1.6232  0.7451
  231MOL0     H31161  -1.281  -0.373   2.822  1.7110  1.7405  1.1638
  231MOL0     H31162  -1.194  -0.524   2.772  0.0678  0.5340 -0.5874
  231MOL0     H31163  -1.369  -0.515   3.019 -1.8261 -1.5479 -0.1189
  231MOL0     H31164  -1.287  -0.642   2.956 -1.3689  0.4184  1.2820
  231MOL0     H31165  -1.392  -0.621   2.734 -0.7459  2.1792 -1.3663
  231MOL0     H31166  -1.482  -0.484   2.796  0.7539  0.3149 -2.0117
  231MOL0     H31167  -0.553  -0.376   3.362 -2.2772  0.7452 -2.1413
  231MOL0     H31168  -0.367  -0.309   3.503 -0.7150 -0.7137 -2.1531
  231MOL0     H31169  -0.141   0.030   3.649 -0.6922  2.1635  0.3624
  231MOL0     H31170   0.043   0.171   3.729  0.7079  0.6317  1.7410
  231MOL0     H31171   1.649   0.485   3.740 -1.3897  0.2183 -0.8454
  231MOL0     H31172   1.855   0.595   3.777  0.2715  1.5115  0.2699
  231MOL0     H31173   2.077   1.068   4.165 -1.3176 -0.8362  1.4423
  231MOL0     H31174   2.311   1.087   4.194  1.7910  0.2545 -1.8233
  231MOL0     H31175   2.606   0.826   4.234  1.5621 -0.2600 -0.2088
  231MOL0     H31176   2.589   0.752   4.075  0.7646 -0.6535  0.9130
  231MOL0     H31177   2.817   0.846   4.143  0.1089  1.8378  1.8286
  231MOL0     H31178   2.748   1.011   4.114 -1.0148  0.8647 -0.7964
  231MOL0     H31179   2.697   0.974   3.873 -1.1522 -0.6470 -0.7679
  231MOL0     H31180   2.720   0.800   3.914  1.9929 -1.5800  4.3406
  231MOL0     H31181   2.906   0.866   3.787  2.0826  1.4921 -0.4005
  231MOL0     H31182   2.958   0.827   3.948  1.9542  0.5348  1.1517
  231MOL0     H31183   3.053   1.241   3.938 -0.1315 -0.0342 -0.5499
  231MOL0     H31184   2.389   0.710   4.025  0.5980  1.1374 -1.5674
  231MOL0     H31185   2.138   0.668   4.017 -0.7007 -0.4397  1.7141
  232MOL0     O31186   9.667   1.885   6.948  0.4741  0.0317  0.0167
  232MOL0     C31187   9.712   1.870   7.060  0.1380 -0.4185  0.4392
  232MOL0     O31188   9.632   1.853   7.174  0.1932  0.2838  0.1692
  232MOL0     C31189   9.494   1.851   7.155  0.1815  0.5511 -0.3939
  232MOL0     C31190   9.416   1.967   7.152 -0.3728 -0.8207  0.1641
  232MOL0     C31191   9.278   1.960   7.126 -0.4151  0.0525 -1.0505
  232MOL0     C31192   9.216   1.835   7.105 -0.0426 -0.1738  0.1325
  232MOL0     O31193   9.083   1.805   7.089  0.4787 -0.2598 -0.2099
  232MOL0     C31194   8.998   1.919   7.076  0.0463 -1.3542 -0.6183
  232MOL0     C31195   8.864   1.880   7.028  0.2204 -0.2135 -0.3772
  232MOL0     C31196   8.793   1.989   6.941  0.1187 -0.4365 -0.2919
  232MOL0     C31197   8.740   2.095   7.041 -0.6768 -0.6787  0.0276
  232MOL0     C31198   8.696   2.226   6.960 -0.9904 -0.0632 -1.0733
  232MOL0     C31199   8.576   2.197   6.867  0.5234 -0.0873 -0.2260
  232MOL0     C31200   8.459   2.125   6.949  0.2082 -0.1376 -1.3146
  232MOL0     C31201   8.326   2.170   6.902 -0.1389 -0.9051 -0.0189
  232MOL0     N31202   8.302   2.308   6.952 -0.1992 -0.2402  0.0697
  232MOL0     C31203   8.236   2.346   7.068 -0.6868  0.4341 -0.6733
  232MOL0     C31204   8.220   2.483   7.053 -0.1481 -0.4442  0.7263
  232MOL0     C31205   8.161   2.574   7.159  0.1889 -0.1357 -0.1545
  232MOL0     C31206   8.013   2.574   7.169 -0.2522  0.1297  0.3312
  232MOL0     C31207   7.957   2.675   7.276  0.5785 -0.3753 -0.0794
  232MOL0     C31208   7.826   2.617   7.322 -0.2109  0.6069  0.6407
  232MOL0     O31209   7.787   2.703   7.427 -0.7006  0.4161  0.0011
  232MOL0     C31210   7.675   2.672   7.496 -0.2069  1.3434 -0.1597
  232MOL0     C31211   7.650   2.738   7.611 -0.0872 -0.4255  0.6024
  232MOL0     C31212   7.539   2.728   7.693 -0.9326  0.0704  0.3069
  232MOL0     C31213   7.513   2.831   7.795  0.3983 -0.0445 -0.3360
  232MOL0     C31214   7.452   2.623   7.663 -0.1389 -0.4469 -0.3135
  232MOL0     C31215   7.328   2.598   7.750 -0.8961  0.0607  1.0320
  232MOL0     O31216   7.313   2.669   7.872 -0.7471  0.4012  0.4999
  232MOL0     C31217   7.202   2.661   7.949  0.3156  1.0841  0.1739
  232MOL0     C31218   7.066   2.627   7.915 -0.6105  0.4882  0.1893
  232MOL0     C31219   6.966   2.618   8.010  1.4946  0.8225 -0.5640
  232MOL0     C31220   6.996   2.654   8.143  0.3570 -0.1891 -0.4674
  232MOL0     O31221   6.895   2.653   8.239 -1.0285  0.3760  0.3603
  232MOL0     C31222   6.800   2.764   8.232  0.0761 -0.3279 -0.2506
  232MOL0     C31223   6.668   2.701   8.184 -0.7272  0.1102  0.0593
  232MOL0     C31224   6.603   2.621   8.295  0.0339 -0.1492  0.1622
  232MOL0     C31225   6.548   2.709   8.411 -0.0636 -0.5416  0.5972
  232MOL0     C31226   6.488   2.624   8.524  1.0030 -0.0427 -0.6210
  232MOL0     C31227   6.408   2.709   8.618 -0.4333 -0.2868  0.1306
  232MOL0     C31228   6.270   2.736   8.562 -0.4575 -0.4949 -0.4670
  232MOL0     C31229   6.216   2.874   8.617  0.5923  1.1520 -0.4658
  232MOL0    Cl31230   6.252   2.886   8.796 -0.0184  0.1487  0.3892
  232MOL0     C31231   7.124   2.698   8.180 -0.6544  0.2772 -0.0057
  232MOL0     C31232   7.223   2.697   8.082  0.6303 -0.7583 -0.5227
  232MOL0     O31233   7.242   2.522   7.698 -0.1305  0.4727 -0.3761
  232MOL0     C31234   7.479   2.553   7.544  0.8227 -0.5633  0.1769
  232MOL0     C31235   7.579   2.575   7.457 -0.9363  0.0602 -0.3272
  232MOL0     N31236   8.267   2.531   6.938 -0.9909  0.0534  0.5504
  232MOL0     N31237   8.317   2.423   6.878  0.1735 -0.5879 -0.4922
  232MOL0     C31238   9.297   1.720   7.089  0.4477 -0.2507 -0.2095
  232MOL0     C31239   9.433   1.728   7.116  0.9323  0.5831  0.1551
  232MOL0     C31240   9.865   1.866   7.073  0.1361 -0.5246  0.6399
  232MOL0     C31241   9.938   1.917   6.967  0.1946  0.2722  0.1337
  232MOL0     C31242  10.075   1.914   6.969 -0.2633 -0.0028 -0.1345
  232MOL0     C31243  10.144   1.880   7.083  0.0389 -0.1007 -0.2077
  232MOL0     O31244  10.278   1.873   7.088 -0.1449  0.2814  0.2687
  232MOL0     C31245  10.347   1.791   6.986  0.0453 -0.3280  0.8625
  232MOL0     C31246  10.338   1.639   7.006 -1.4413 -0.1309  0.5463
  232MOL0     C31247  10.195   1.594   7.026 -0.7494  0.0027 -0.0664
  232MOL0     C31248  10.189   1.440   7.029  0.6339  0.3729 -0.2194
  232MOL0     C31249  10.049   1.411   7.041  0.7640 -0.6890  0.1152
  232MOL0     C31250   9.929   1.399   7.081  0.0979 -0.0659  0.2344
  232MOL0     C31251  10.074   1.857   7.202  1.1249 -0.4275 -0.3454
  232MOL0     C31252   9.934   1.850   7.191  0.2294 -0.0935 -0.6026
  232MOL0     H31253   9.467   2.058   7.182  1.5579 -2.2918  1.6134
  232MOL0     H31254   9.220   2.051   7.138  0.8942  0.6465  1.3641
  232MOL0     H31255   8.980   1.980   7.165  2.5588  1.2369 -1.7506
  232MOL0     H31256   9.037   1.992   7.005  2.7023 -5.9554 -4.4500
  232MOL0     H31257   8.869   1.796   6.958  1.5718 -1.1456  0.7845
  232MOL0     H31258   8.807   1.839   7.112  2.9708 -1.3940  1.0405
  232MOL0     H31259   8.864   2.040   6.875 -2.3965  1.8917 -1.4096
  232MOL0     H31260   8.721   1.945   6.871  0.7210  1.9945 -2.6272
  232MOL0     H31261   8.658   2.047   7.095 -2.1736  0.3469 -1.2586
  232MOL0     H31262   8.822   2.119   7.109 -0.5532 -0.7820 -0.0837
  232MOL0     H31263   8.678   2.305   7.033 -0.0137  0.1331 -1.0257
  232MOL0     H31264   8.783   2.261   6.903 -0.2148 -0.0781  0.0756
  232MOL0     H31265   8.543   2.297   6.838 -0.1899 -0.5820 -1.1864
  232MOL0     H31266   8.610   2.132   6.786  0.2668  0.7737 -1.0424
  232MOL0     H31267   8.465   2.016   6.941 -0.9512 -0.5548  1.9682
  232MOL0     H31268   8.472   2.147   7.056 -0.2084  1.3002 -1.5356
  232MOL0     H31269   8.249   2.102   6.939 -0.2445 -0.3870  0.7193
  232MOL0     H31270   8.323   2.161   6.793  0.6943 -2.2646  0.0408
  232MOL0     H31271   8.200   2.286   7.152  1.5543  0.8015  0.6196
  232MOL0     H31272   8.206   2.553   7.257 -1.3272 -1.5397  0.2776
  232MOL0     H31273   8.189   2.673   7.122 -0.0867 -0.7605 -2.1761
  232MOL0     H31274   8.003   2.472   7.207  1.2703 -0.6677 -1.2600
  232MOL0     H31275   7.958   2.595   7.077 -0.4775 -0.1352  0.4063
  232MOL0     H31276   7.945   2.779   7.241 -3.0393 -1.4535 -2.6767
  232MOL0     H31277   8.026   2.685   7.360  0.3627 -0.6642  0.1312
  232MOL0     H31278   7.846   2.516   7.357  2.3595  1.6857  2.6463
  232MOL0     H31279   7.756   2.612   7.238  0.9203  3.1868 -0.5968
  232MOL0     H31280   7.719   2.813   7.649 -0.2949  0.1393 -0.1276
  232MOL0     H31281   7.411   2.870   7.783  1.2100  3.1493  1.8331
  232MOL0     H31282   7.515   2.795   7.898 -1.0498  0.0605 -0.2500
  232MOL0     H31283   7.580   2.917   7.782  2.7160 -2.0852 -3.2015
  232MOL0     H31284   7.050   2.594   7.812 -1.1058  2.1268 -0.2925
  232MOL0     H31285   6.868   2.581   7.980  1.0418  1.5241  0.0287
  232MOL0     H31286   6.800   2.806   8.333  1.4634  0.2135 -0.4552
  232MOL0     H31287   6.837   2.839   8.162  0.2237  2.5537  2.6801
  232MOL0     H31288   6.597   2.773   8.144  0.1985  0.5120 -0.9063
  232MOL0     H31289   6.689   2.635   8.098  4.1192 -1.7211  2.2517
  232MOL0     H31290   6.669   2.548   8.343 -1.2802 -0.4930  1.5083
  232MOL0     H31291   6.527   2.563   8.242 -1.1820 -0.1684  1.8577
  232MOL0     H31292   6.623   2.776   8.454  2.0610 -0.6193 -2.7206
  232MOL0     H31293   6.474   2.780   8.372 -0.1240 -0.5071  0.7712
  232MOL0     H31294   6.578   2.590   8.576 -0.2363 -0.4648  1.3523
  232MOL0     H31295   6.441   2.531   8.489 -1.0397  0.3100  0.9828
  232MOL0     H31296   6.391   2.651   8.709 -2.3688 -0.4187 -0.2739
  232MOL0     H31297   6.468   2.799   8.639  1.0885 -1.2885  0.2637
  232MOL0     H31298   6.200   2.664   8.606  0.8974 -0.1992  2.3935
  232MOL0     H31299   6.266   2.738   8.453  1.2223  2.1945 -0.5680
  232MOL0     H31300   6.109   2.869   8.595  0.4933  2.1818 -0.2817
  232MOL0     H31301   6.260   2.955   8.558  0.7045  0.6091 -1.1419
  232MOL0     H31302   7.148   2.711   8.285 -0.9841 -0.8199  0.2231
  232MOL0     H31303   7.322   2.727   8.115 -0.6336  0.3237  2.5990
  232MOL0     H31304   7.407   2.474   7.525  1.1725 -0.5768 -1.1968
  232MOL0     H31305   7.587   2.530   7.359 -1.0471 -3.3382  1.0869
  232MOL0     H31306   9.248   1.623   7.079 -1.9836  0.7612  0.9603
  232MOL0     H31307   9.503   1.646   7.126  1.5807  1.1743  0.5799
  232MOL0     H31308   9.887   1.957   6.880 -1.7345  0.6329  1.3663
  232MOL0     H31309  10.128   1.937   6.877  2.1225 -0.2822  1.0886
  232MOL0     H31310  10.305   1.812   6.887  1.4849  3.6539  0.9196
  232MOL0     H31311  10.449   1.831   6.988  0.4775 -1.3864  3.4933
  232MOL0     H31312  10.398   1.614   7.094 -0.7536 -0.1426  0.0804
  232MOL0     H31313  10.375   1.577   6.924 -3.2854 -0.9076  0.2484
  232MOL0     H31314  10.131   1.632   6.946 -1.2563  2.6085  1.4621
  232MOL0     H31315  10.158   1.623   7.125 -1.8131 -0.8017 -0.2027
  232MOL0     H31316  10.248   1.402   7.113  0.0590  0.8258  0.3962
  232MOL0     H31317  10.231   1.407   6.934 -0.7070 -1.3418 -0.2780
  232MOL0     H31318   9.830   1.375   7.113 -1.5776  0.4561 -3.8246
  232MOL0     H31319  10.131   1.839   7.293  3.5273  2.4625 -1.1135
  232MOL0     H31320   9.864   1.835   7.272 -1.2157  3.0682 -1.1312
  233MOL0     O31321   6.968   9.298   0.665 -0.0948 -0.2674  0.4156
  233MOL0     C31322   7.008   9.345   0.773  0.4859 -1.0012  0.1495
  233MOL0     O31323   6.931   9.369   0.882 -0.4450  0.4249  0.0101
  233MOL0     C31324   6.791   9.351   0.883 -0.1969 -0.1568  0.7255
  233MOL0     C31325   6.742   9.310   1.002  0.1110 -0.3580  0.3473
  233MOL0     C31326   6.610   9.306   1.020 -0.5184  0.0111  0.3313
  233MOL0     C31327   6.520   9.320   0.915  0.2100  0.4611 -0.1028
  233MOL0     O31328   6.379   9.311   0.932 -0.3811 -0.3290 -0.6528
  233MOL0     C31329   6.336   9.222   1.038  0.4508 -0.1072 -0.0329
  233MOL0     C31330   6.188   9.209   1.023  0.0902 -0.3766  0.5698
  233MOL0     C31331   6.163   9.107   0.901 -1.3479  0.3954 -1.1782
  233MOL0     C31332   6.199   8.959   0.939 -0.6482 -1.0377 -0.3417
  233MOL0     C31333   6.105   8.866   0.862  0.0243  0.2482  0.3317
  233MOL0     C31334   6.143   8.885   0.710 -0.1158  0.1046  0.1665
  233MOL0     C31335   6.074   8.774   0.625 -1.2069 -0.5814 -0.1984
  233MOL0     C31336   6.116   8.776   0.474  0.1131  0.1191  0.0616
  233MOL0     N31337   6.090   8.648   0.408  0.6324  0.1196  0.0884
  233MOL0     C31338   6.178   8.543   0.411  0.1166 -0.6581 -0.1004
  233MOL0     C31339   6.110   8.443   0.351 -0.4915 -0.0501  0.6185
  233MOL0     C31340   6.174   8.307   0.315 -0.7043  0.4684  0.0089
  233MOL0     C31341   6.088   8.193   0.380  0.2927 -0.4392  0.2027
  233MOL0     C31342   6.149   8.064   0.328  0.2533  0.0253 -0.6148
  233MOL0     C31343   6.302   8.033   0.336 -0.3120  0.1626  0.5815
  233MOL0     O31344   6.342   8.050   0.467 -0.5653 -0.7100 -0.5521
  233MOL0     C31345   6.476   8.057   0.499  0.0961 -0.2534  0.0848
  233MOL0     C31346   6.589   8.038   0.411  0.2808 -0.5115 -0.5328
  233MOL0     C31347   6.720   8.020   0.461  0.1915  0.0048  1.3575
  233MOL0     C31348   6.825   7.973   0.355 -0.3487 -0.7730  0.2912
  233MOL0     C31349   6.749   8.042   0.597  0.4733  0.7620 -0.4174
  233MOL0     C31350   6.895   8.047   0.657  0.3175  0.2998  0.5180
  233MOL0     O31351   6.906   8.118   0.767 -0.1023 -0.9080 -0.6330
  233MOL0     C31352   7.008   8.105   0.858  0.4293 -0.2109  0.1828
  233MOL0     C31353   7.002   7.996   0.946 -0.0752 -0.4463 -0.0837
  233MOL0     C31354   7.107   7.982   1.045  0.6236 -0.5593  0.3992
  233MOL0     C31355   7.211   8.075   1.062 -0.0721 -0.8279  0.7636
  233MOL0     O31356   7.302   8.056   1.152  0.0901 -0.2294  0.0769
  233MOL0     C31357   7.268   8.100   1.283  0.8739 -0.1973 -0.1431
  233MOL0     C31358   7.376   8.043   1.372  0.1438 -0.3015 -0.4965
  233MOL0     C31359   7.388   8.116   1.502 -0.4636  0.4297  0.2008
  233MOL0     C31360   7.498   8.043   1.584  0.6002  0.6327  0.2745
  233MOL0     C31361   7.504   8.096   1.733  0.6986  0.4191 -0.3741
  233MOL0     C31362   7.638   8.051   1.796  0.1292  1.2710  0.2265
  233MOL0     C31363   7.678   8.119   1.926  0.3414  1.1529  1.4551
  233MOL0     C31364   7.558   8.127   2.023 -0.1678 -0.1374 -0.7978
  233MOL0    Cl31365   7.616   8.209   2.168  0.2392 -0.1297  0.0935
  233MOL0     C31366   7.205   8.185   0.970  0.5024 -0.1118  0.8265
  233MOL0     C31367   7.105   8.195   0.874 -0.3021  0.2520  0.8197
  233MOL0     O31368   6.978   7.972   0.614 -0.6344 -0.2359 -0.8289
  233MOL0     C31369   6.640   8.066   0.687 -0.2508 -0.3455 -0.4246
  233MOL0     C31370   6.508   8.080   0.635 -0.9333  0.5390 -0.1952
  233MOL0     N31371   5.987   8.483   0.315 -0.4726  0.2025 -0.1175
  233MOL0     N31372   5.975   8.607   0.343  0.0465  0.7855  0.0729
  233MOL0     C31373   6.575   9.350   0.793  0.9321  0.0961 -0.7391
  233MOL0     C31374   6.712   9.363   0.773  1.2754  0.0137 -0.3226
  233MOL0     C31375   7.151   9.365   0.793 -0.7864 -0.5275 -0.0452
  233MOL0     C31376   7.242   9.320   0.698  0.2270 -0.2786  0.4739
  233MOL0     C31377   7.384   9.342   0.706 -0.5393 -0.9167  0.1454
  233MOL0     C31378   7.436   9.400   0.824  0.4840  0.2813  0.2231
  233MOL0     O31379   7.575   9.404   0.841 -0.4313  0.5108 -0.3635
  233MOL0     C31380   7.662   9.353   0.740 -0.0665  0.4883 -0.2877
  233MOL0     C31381   7.815   9.344   0.774 -0.9087  0.3862  0.5609
  233MOL0     C31382   7.848   9.243   0.878 -0.2363  0.5355  0.3940
  233MOL0     C31383   8.003   9.227   0.903 -0.0054 -0.0311 -0.6019
  233MOL0     C31384   8.090   9.250   0.787 -0.0984  0.0759 -0.1299
  233MOL0     C31385   8.160   9.247   0.691 -1.1171 -0.7677 -0.4639
  233MOL0     C31386   7.344   9.444   0.923 -0.0410  0.8959 -0.4080
  233MOL0     C31387   7.210   9.426   0.903  0.3433  0.6085  0.1857
  233MOL0     H31388   6.816   9.305   1.082  1.8130 -0.3636 -1.1816
  233MOL0     H31389   6.570   9.293   1.120  2.2838 -2.6645  1.2366
  233MOL0     H31390   6.391   9.128   1.042  1.9394  0.5806 -2.3963
  233MOL0     H31391   6.352   9.266   1.137 -2.5920 -0.9857  0.9642
  233MOL0     H31392   6.160   9.172   1.122  4.0417 -0.1626  1.9470
  233MOL0     H31393   6.141   9.301   0.988 -0.9136 -2.0390 -2.9122
  233MOL0     H31394   6.057   9.111   0.876 -1.4229 -2.2998 -1.6167
  233MOL0     H31395   6.213   9.135   0.808 -1.9152  3.1409 -0.7349
  233MOL0     H31396   6.303   8.944   0.912 -0.8551  0.8026 -2.5157
  233MOL0     H31397   6.183   8.947   1.046  1.0197 -0.5499 -0.0115
  233MOL0     H31398   6.109   8.764   0.901  1.1189  0.0341 -0.3049
  233MOL0     H31399   6.000   8.893   0.879 -0.5115 -2.1226  1.1467
  233MOL0     H31400   6.103   8.980   0.674 -1.0004  0.5660  2.2480
  233MOL0     H31401   6.252   8.882   0.703  0.0215  2.1408  0.9914
  233MOL0     H31402   6.095   8.673   0.664 -1.2632 -1.0254 -1.2753
  233MOL0     H31403   5.965   8.785   0.621 -1.1042  0.1943 -0.9014
  233MOL0     H31404   6.223   8.799   0.465  0.4534 -0.1299  2.6982
  233MOL0     H31405   6.065   8.858   0.421  0.4124 -0.4382 -1.1307
  233MOL0     H31406   6.281   8.542   0.445  0.1430  0.8745 -0.0603
  233MOL0     H31407   6.177   8.291   0.206 -0.1042 -1.0934  0.2247
  233MOL0     H31408   6.279   8.299   0.344  0.4225  1.8987 -3.1445
  233MOL0     H31409   5.984   8.207   0.350  1.3448  2.7355 -2.6660
  233MOL0     H31410   6.106   8.185   0.488  3.5048  0.9072 -0.1091
  233MOL0     H31411   6.122   8.052   0.223 -1.4196 -0.7074 -0.1277
  233MOL0     H31412   6.097   7.981   0.378 -2.1058  1.6160 -0.2600
  233MOL0     H31413   6.357   8.098   0.267 -1.3249  1.4064  0.9246
  233MOL0     H31414   6.328   7.934   0.297 -0.0270  0.2127  0.6413
  233MOL0     H31415   6.574   8.029   0.304 -2.8230  1.7061 -0.4197
  233MOL0     H31416   6.854   7.870   0.380  3.0734 -0.3408 -1.4548
  233MOL0     H31417   6.788   7.972   0.252 -0.2725  0.2763  0.2428
  233MOL0     H31418   6.918   8.030   0.346 -0.0550 -1.6545 -3.9985
  233MOL0     H31419   6.925   7.920   0.930 -1.1121  0.5520  0.0581
  233MOL0     H31420   7.097   7.891   1.103 -2.5952  0.0770  1.0498
  233MOL0     H31421   7.253   8.209   1.284 -0.7790 -0.4017 -0.4646
  233MOL0     H31422   7.169   8.063   1.309  0.0507  0.9022 -1.5343
  233MOL0     H31423   7.360   7.938   1.396 -1.1851  0.0813  0.3982
  233MOL0     H31424   7.472   8.072   1.328  1.3145  0.8865  2.5605
  233MOL0     H31425   7.286   8.126   1.542 -0.1678 -0.0437  1.0929
  233MOL0     H31426   7.424   8.217   1.480 -1.1204  0.6950  0.3136
  233MOL0     H31427   7.485   7.934   1.587  1.1645  0.3174 -3.7743
  233MOL0     H31428   7.592   8.056   1.530 -1.1819 -0.1245 -3.2962
  233MOL0     H31429   7.420   8.066   1.797 -0.7152  0.2219 -2.2344
  233MOL0     H31430   7.497   8.206   1.733  0.8233  0.4689  1.5723
  233MOL0     H31431   7.642   7.943   1.807 -1.7742  1.0077 -1.1359
  233MOL0     H31432   7.706   8.064   1.711 -1.0392 -0.3201 -1.0228
  233MOL0     H31433   7.709   8.222   1.907  1.4578  0.8910  1.7774
  233MOL0     H31434   7.768   8.075   1.969  0.9356 -1.2567 -1.8277
  233MOL0     H31435   7.526   8.026   2.049 -0.3275  0.5992  2.3259
  233MOL0     H31436   7.473   8.189   1.993 -0.4199  0.3052  0.7044
  233MOL0     H31437   7.278   8.265   0.980  1.6133 -0.9252 -0.4499
  233MOL0     H31438   7.110   8.273   0.798 -0.4287 -0.8960 -0.3994
  233MOL0     H31439   6.665   8.072   0.793  1.1743 -2.0631 -0.6225
  233MOL0     H31440   6.428   8.108   0.702  0.9702 -0.3835  2.6441
  233MOL0     H31441   6.518   9.367   0.702  2.5338  1.4688 -1.5292
  233MOL0     H31442   6.733   9.391   0.670  2.5999 -1.1106 -0.3857
  233MOL0     H31443   7.202   9.278   0.606  0.7202 -0.8921  0.5369
  233MOL0     H31444   7.447   9.309   0.624  0.6291 -1.7977  1.3641
  233MOL0     H31445   7.628   9.251   0.718  3.0559 -0.3924 -1.4656
  233MOL0     H31446   7.647   9.423   0.658 -0.7506 -0.9367 -1.4233
  233MOL0     H31447   7.856   9.442   0.803  0.9728 -0.0221 -0.5728
  233MOL0     H31448   7.854   9.312   0.677 -2.3861  0.5443 -0.1171
  233MOL0     H31449   7.806   9.145   0.853 -1.0248  0.9875 -0.1027
  233MOL0     H31450   7.788   9.273   0.965  0.4670 -1.8467  1.8070
  233MOL0     H31451   8.023   9.125   0.939 -0.1577 -0.4472 -1.6597
  233MOL0     H31452   8.030   9.298   0.981  0.9622 -0.2700 -0.7103
  233MOL0     H31453   8.246   9.244   0.626  1.9393  0.5693  3.1418
  233MOL0     H31454   7.375   9.490   1.016 -1.7908 -0.6703  1.0281
  233MOL0     H31455   7.143   9.456   0.984 -2.9268 -4.4386 -0.1972
  234MOL0     O31456   7.160   4.822   8.069 -0.3520  0.3831 -0.2290
  234MOL0     C31457   7.241   4.762   7.998 -0.3012 -0.8773 -0.9254
  234MOL0     O31458   7.231   4.718   7.867  0.0218  0.3149  0.4275
  234MOL0     C31459   7.112   4.732   7.811 -0.4071  0.6235  0.3551
  234MOL0     C31460   7.050   4.859   7.799  0.6975 -0.5546 -0.5953
  234MOL0     C31461   6.938   4.871   7.717 -0.1847 -0.3244 -0.6814
  234MOL0     C31462   6.880   4.756   7.649 -0.0130 -0.3771  0.1412
  234MOL0     O31463   6.770   4.758   7.560 -0.2828  0.1050  0.2004
  234MOL0     C31464   6.748   4.873   7.487 -0.6498  0.0155 -0.4185
  234MOL0     C31465   6.661   4.842   7.372  0.5625 -0.0454 -0.4384
  234MOL0     C31466   6.502   4.839   7.405 -0.4870 -0.7538  0.4923
  234MOL0     C31467   6.414   4.835   7.286 -0.1782  0.2898 -0.1907
  234MOL0     C31468   6.408   4.965   7.204 -0.0065  0.7924  0.3467
  234MOL0     C31469   6.353   4.936   7.060  0.2811 -0.2359  0.3809
  234MOL0     C31470   6.212   4.881   7.064  0.3982 -0.9830 -0.1784
  234MOL0     C31471   6.119   5.005   7.057 -0.4542  0.1742  0.5169
  234MOL0     N31472   5.971   4.976   7.057  0.2832 -0.2259  0.4016
  234MOL0     C31473   5.915   4.856   6.999  0.1258 -0.4437 -0.5958
  234MOL0     C31474   5.786   4.860   7.017 -0.0239  0.0535  0.2290
  234MOL0     C31475   5.687   4.763   6.964  0.9429  0.2734  0.5106
  234MOL0     C31476   5.696   4.735   6.815  0.3464 -0.0795  0.1137
  234MOL0     C31477   5.594   4.635   6.768  0.9599  0.6319  0.2592
  234MOL0     C31478   5.459   4.701   6.748 -0.3786 -1.3326 -0.3181
  234MOL0     O31479   5.371   4.601   6.704 -1.0325  0.5275  0.4790
  234MOL0     C31480   5.235   4.623   6.696 -0.2910 -0.3304  0.2379
  234MOL0     C31481   5.177   4.740   6.669  0.1498 -0.3515 -0.3589
  234MOL0     C31482   5.036   4.759   6.656 -0.7789 -0.1606  0.1734
  234MOL0     C31483   5.006   4.902   6.646 -0.1431 -0.2817 -0.6659
  234MOL0     C31484   4.951   4.642   6.647  0.1810  0.3560 -0.2670
  234MOL0     C31485   4.800   4.649   6.630  0.0153 -0.2622 -0.1162
  234MOL0     O31486   4.743   4.773   6.644 -0.3484  0.7451 -0.9162
  234MOL0     C31487   4.600   4.773   6.638  0.0600  0.5269 -0.5090
  234MOL0     C31488   4.545   4.750   6.512  0.0132  0.2403 -0.1650
  234MOL0     C31489   4.406   4.754   6.498 -0.5645 -0.8905  0.3265
  234MOL0     C31490   4.317   4.774   6.605 -0.1436  0.8866  0.1063
  234MOL0     O31491   4.182   4.779   6.590  0.5078 -0.4001 -0.4093
  234MOL0     C31492   4.094   4.764   6.703 -0.1169  0.0945  0.6180
  234MOL0     C31493   3.966   4.703   6.658  0.5807  0.8112 -0.6175
  234MOL0     C31494   3.858   4.808   6.618 -0.9115 -0.2914 -0.4655
  234MOL0     C31495   3.738   4.739   6.562 -0.6488  0.6261 -0.2948
  234MOL0     C31496   3.605   4.827   6.573  0.1469  0.2761  0.9722
  234MOL0     C31497   3.490   4.759   6.487 -0.2031 -0.1831  0.2692
  234MOL0     C31498   3.374   4.859   6.489  0.3338  0.2465 -0.2757
  234MOL0     C31499   3.242   4.794   6.467  0.6709  0.3640 -0.2319
  234MOL0    Cl31500   3.099   4.905   6.451 -0.4682  0.0291  0.2861
  234MOL0     C31501   4.378   4.779   6.736  0.5325  0.1772 -0.4121
  234MOL0     C31502   4.516   4.782   6.754 -0.5465  0.0968  0.2013
  234MOL0     O31503   4.736   4.543   6.641  0.0358  0.0157 -0.4999
  234MOL0     C31504   5.014   4.520   6.651 -0.1954  0.1328 -0.1992
  234MOL0     C31505   5.155   4.508   6.677  0.4348  0.4025 -0.3745
  234MOL0     N31506   5.757   4.967   7.091  0.2375  0.1285  0.1176
  234MOL0     N31507   5.865   5.038   7.113 -0.1536 -0.2793  0.6897
  234MOL0     C31508   6.937   4.631   7.675  0.4711  0.5682 -0.6264
  234MOL0     C31509   7.052   4.621   7.759 -0.5806 -0.9313  0.4050
  234MOL0     C31510   7.368   4.733   8.062 -0.0885 -0.5212 -0.8532
  234MOL0     C31511   7.465   4.655   7.998 -0.0903  0.1106 -0.6219
  234MOL0     C31512   7.604   4.638   8.042  0.1467  0.2687 -0.3650
  234MOL0     C31513   7.636   4.703   8.173 -0.2069  0.0572  0.0658
  234MOL0     O31514   7.765   4.685   8.206  0.0912  0.3933 -0.5037
  234MOL0     C31515   7.827   4.735   8.323  0.2216  0.3796  0.2140
  234MOL0     C31516   7.855   4.881   8.318 -0.0461 -0.4816  0.5751
  234MOL0     C31517   7.963   4.917   8.206  0.1717  0.3718  0.4648
  234MOL0     C31518   8.096   4.859   8.248 -0.1045  0.4689 -0.0145
  234MOL0     C31519   8.200   4.906   8.155  0.4403 -0.4457  0.0812
  234MOL0     C31520   8.295   4.943   8.088 -0.5707 -0.0068  0.0218
  234MOL0     C31521   7.534   4.773   8.243  0.3464 -0.1615 -0.5776
  234MOL0     C31522   7.403   4.778   8.187  0.3108 -0.3023  0.0162
  234MOL0     H31523   7.087   4.943   7.858 -1.5336  0.5544 -0.6489
  234MOL0     H31524   6.909   4.972   7.694  1.3439  0.5048  0.7982
  234MOL0     H31525   6.703   4.951   7.549  0.9005  0.2851  0.4218
  234MOL0     H31526   6.847   4.907   7.456  0.1101  0.0290  1.8742
  234MOL0     H31527   6.678   4.917   7.293 -2.4636  0.7360 -0.4729
  234MOL0     H31528   6.689   4.744   7.333  1.7528 -1.1605  2.9064
  234MOL0     H31529   6.486   4.748   7.463 -0.0333 -2.0683 -1.3589
  234MOL0     H31530   6.484   4.931   7.462 -0.1135  0.0464 -0.6435
  234MOL0     H31531   6.430   4.751   7.218  0.5045  0.2313  0.0357
  234MOL0     H31532   6.322   4.802   7.335  0.8449 -1.7692  0.4747
  234MOL0     H31533   6.351   5.046   7.249  0.7258  1.1617  0.6135
  234MOL0     H31534   6.509   4.996   7.179 -0.4095  1.2905 -0.7102
  234MOL0     H31535   6.352   5.032   7.008 -0.4209 -0.3027  0.2642
  234MOL0     H31536   6.422   4.881   6.996 -1.1901  0.4428 -1.8803
  234MOL0     H31537   6.197   4.817   6.977 -1.7219 -0.9554  0.1284
  234MOL0     H31538   6.185   4.833   7.158 -0.2980  0.1356  0.2155
  234MOL0     H31539   6.142   5.058   6.964 -0.0392 -1.7025 -0.4949
  234MOL0     H31540   6.133   5.068   7.146  1.7574 -1.9113  1.7564
  234MOL0     H31541   5.968   4.786   6.935  0.9538  0.8935 -1.4431
  234MOL0     H31542   5.711   4.667   7.010 -1.5595 -1.3561 -1.3407
  234MOL0     H31543   5.585   4.785   6.994  2.0794  3.0868  2.8404
  234MOL0     H31544   5.799   4.708   6.790  1.7607  3.7053  1.1822
  234MOL0     H31545   5.681   4.831   6.764 -1.4950  0.4704  1.5585
  234MOL0     H31546   5.586   4.554   6.841 -1.3378 -0.6427 -1.3195
  234MOL0     H31547   5.619   4.590   6.672 -0.7335  0.2417 -0.0226
  234MOL0     H31548   5.466   4.788   6.682  1.6855 -1.4764 -0.3684
  234MOL0     H31549   5.431   4.746   6.844  0.2687  0.7217 -1.0194
  234MOL0     H31550   5.239   4.829   6.668 -2.6107  1.7984  1.9102
  234MOL0     H31551   5.082   4.976   6.670  0.2836 -0.1524 -2.2736
  234MOL0     H31552   4.971   4.920   6.543  1.4559  0.7700 -1.0617
  234MOL0     H31553   4.916   4.912   6.707  0.7462 -1.9033  0.9827
  234MOL0     H31554   4.619   4.738   6.433  0.7047  4.1183 -0.3066
  234MOL0     H31555   4.367   4.749   6.397  1.4295  2.2172 -0.7582
  234MOL0     H31556   4.124   4.696   6.783 -2.8025 -1.0806  0.7470
  234MOL0     H31557   4.065   4.859   6.750 -0.1956 -1.2025  3.4071
  234MOL0     H31558   3.990   4.622   6.589 -2.4633 -0.5085 -0.3111
  234MOL0     H31559   3.928   4.652   6.746 -2.1876  1.8168 -1.1199
  234MOL0     H31560   3.906   4.880   6.551 -0.3659 -1.1659 -1.0357
  234MOL0     H31561   3.823   4.858   6.709 -2.4312 -0.1786 -1.0693
  234MOL0     H31562   3.768   4.718   6.459  1.2104  0.5368  0.2314
  234MOL0     H31563   3.717   4.643   6.610  1.4278  0.4787  0.4214
  234MOL0     H31564   3.629   4.924   6.528  0.0967 -0.7326 -1.3563
  234MOL0     H31565   3.565   4.842   6.674 -1.2699 -2.2730  0.8636
  234MOL0     H31566   3.522   4.744   6.384  1.5217 -1.1414  0.8873
  234MOL0     H31567   3.461   4.661   6.527 -3.9703  0.6894  0.0844
  234MOL0     H31568   3.377   4.923   6.400 -0.1464 -2.2708 -2.2409
  234MOL0     H31569   3.385   4.924   6.576  0.1685 -2.1626  1.6570
  234MOL0     H31570   3.211   4.730   6.550 -1.3821  1.7621  0.1381
  234MOL0     H31571   3.245   4.737   6.373 -1.3413  1.5189 -1.0417
  234MOL0     H31572   4.317   4.791   6.824 -0.1404 -3.4398 -0.2485
  234MOL0     H31573   4.556   4.776   6.855  1.4075  0.1752 -0.5258
  234MOL0     H31574   4.967   4.425   6.630  0.4939  0.2133 -2.4054
  234MOL0     H31575   5.200   4.410   6.667 -0.0812 -0.0391  1.4264
  234MOL0     H31576   6.893   4.554   7.612  2.3210 -1.4711  0.4739
  234MOL0     H31577   7.098   4.524   7.776  1.5122  0.2040  1.7625
  234MOL0     H31578   7.432   4.615   7.902  0.6010  0.1483 -0.8788
  234MOL0     H31579   7.679   4.576   7.994 -0.1714 -0.6922  0.3631
  234MOL0     H31580   7.756   4.722   8.405  0.5015  1.5675  0.6623
  234MOL0     H31581   7.921   4.686   8.347  2.2807  2.1259 -3.4451
  234MOL0     H31582   7.902   4.904   8.414  0.4331 -2.0494  0.7507
  234MOL0     H31583   7.763   4.939   8.315 -1.4704 -2.6636 -1.0227
  234MOL0     H31584   7.980   5.026   8.209 -0.2131  0.4198  0.9412
  234MOL0     H31585   7.936   4.899   8.102 -0.0314  0.3664  0.5183
  234MOL0     H31586   8.105   4.750   8.258  2.9061  0.4644 -1.6184
  234MOL0     H31587   8.131   4.887   8.348 -0.7842 -1.5284  0.8366
  234MOL0     H31588   8.379   4.956   8.023 -2.7492 -0.9369 -3.2310
  234MOL0     H31589   7.560   4.800   8.345 -1.7062 -0.9882  0.2162
  234MOL0     H31590   7.331   4.834   8.246 -0.2818 -0.8908 -0.1438
  235MOL0     O31591  11.197   9.701   6.044  0.2554 -0.3216 -0.5654
  235MOL0     C31592  11.239   9.702   6.159  0.3758 -0.2839  0.2296
  235MOL0     O31593  11.167   9.737   6.266 -0.2518  0.5080  0.9723
  235MOL0     C31594  11.035   9.751   6.264  0.3888 -0.5465  0.3215
  235MOL0     C31595  10.943   9.705   6.166  0.4568  0.1574  0.4886
  235MOL0     C31596  10.809   9.721   6.188  0.3714  0.2987  0.0452
  235MOL0     C31597  10.761   9.763   6.310 -0.3162  0.3068  0.3273
  235MOL0     O31598  10.629   9.784   6.332 -0.0969 -0.4948 -0.7895
  235MOL0     C31599  10.554   9.676   6.273  0.4286 -0.4257  0.0681
  235MOL0     C31600  10.420   9.669   6.351  0.0648  0.3944 -0.6936
  235MOL0     C31601  10.358   9.813   6.323  0.6500 -0.6051 -0.1165
  235MOL0     C31602  10.201   9.803   6.333 -0.8478  0.3677  0.1437
  235MOL0     C31603  10.139   9.944   6.345 -0.0629  0.1257  0.3674
  235MOL0     C31604   9.989   9.930   6.340  0.7102  0.2486 -0.5014
  235MOL0     C31605   9.913  10.066   6.353 -0.3181  0.4426 -0.2177
  235MOL0     C31606   9.762  10.029   6.345  0.3153 -1.0752  0.0806
  235MOL0     N31607   9.683  10.154   6.351  0.4871 -0.1627  0.2165
  235MOL0     C31608   9.658  10.220   6.466 -0.5200  0.1683  0.5981
  235MOL0     C31609   9.622  10.347   6.423 -0.5703  0.1929  0.0991
  235MOL0     C31610   9.578  10.468   6.505 -0.0392 -0.2089  0.0152
  235MOL0     C31611   9.452  10.452   6.593 -0.1649  0.3333  0.5915
  235MOL0     C31612   9.330  10.439   6.506  0.2104  0.1081  0.0959
  235MOL0     C31613   9.304  10.576   6.446 -0.1823  0.6066 -0.2159
  235MOL0     O31614   9.178  10.577   6.369 -0.0627 -0.3793 -1.1579
  235MOL0     C31615   9.071  10.624   6.430  0.4779 -0.1830  0.5820
  235MOL0     C31616   9.051  10.619   6.565 -0.2307 -0.5569  0.1484
  235MOL0     C31617   8.939  10.692   6.620 -0.5607 -0.8031  0.5436
  235MOL0     C31618   8.916  10.722   6.769  0.6101  0.0888 -0.2614
  235MOL0     C31619   8.841  10.743   6.535 -1.7731 -0.3113  0.0396
  235MOL0     C31620   8.722  10.819   6.575 -0.1436  0.6072  0.7311
  235MOL0     O31621   8.632  10.766   6.653 -0.2715  0.4302 -0.3864
  235MOL0     C31622   8.512  10.835   6.657  0.7780 -0.0926 -0.5495
  235MOL0     C31623   8.501  10.947   6.731 -0.0675 -0.1252  0.6409
  235MOL0     C31624   8.379  11.007   6.743 -0.1948 -0.4935 -0.2570
  235MOL0     C31625   8.263  10.966   6.685  0.7074  0.1042  0.5420
  235MOL0     O31626   8.147  11.038   6.711  0.0458  0.4955 -0.1098
  235MOL0     C31627   8.021  10.963   6.723  0.3347 -0.2075  0.0809
  235MOL0     C31628   7.979  10.975   6.863 -0.4348 -0.4275 -0.4268
  235MOL0     C31629   7.832  10.929   6.880 -0.1143 -0.8025  1.0432
  235MOL0     C31630   7.729  11.031   6.831 -0.7076 -0.9633  0.6723
  235MOL0     C31631   7.600  10.997   6.904 -0.3039  0.4236  0.3362
  235MOL0     C31632   7.481  11.087   6.858  0.5080 -0.4220  1.1143
  235MOL0     C31633   7.353  11.059   6.949  0.1254 -0.7335  0.6405
  235MOL0     C31634   7.274  10.939   6.897  0.2789 -0.1787  0.5768
  235MOL0    Cl31635   7.131  10.903   7.004 -0.1116 -0.2167 -0.0974
  235MOL0     C31636   8.272  10.854   6.597 -0.0422 -0.1724  0.7268
  235MOL0     C31637   8.400  10.792   6.588 -0.1317  0.0259  0.2893
  235MOL0     O31638   8.706  10.927   6.510 -0.2737  0.4583 -0.3516
  235MOL0     C31639   8.858  10.725   6.397 -0.1021  0.9343  0.1956
  235MOL0     C31640   8.974  10.668   6.344  0.0315 -0.0220 -0.0564
  235MOL0     N31641   9.622  10.350   6.284 -0.6876  0.4440 -0.3836
  235MOL0     N31642   9.640  10.229   6.240 -1.1275 -0.2437 -0.5725
  235MOL0     C31643  10.853   9.816   6.401  0.2479 -0.0837  0.0326
  235MOL0     C31644  10.989   9.809   6.384 -0.2475  0.0304  0.3276
  235MOL0     C31645  11.387   9.676   6.196  0.2300  0.1326  0.2474
  235MOL0     C31646  11.488   9.663   6.097 -0.7602 -1.0513  0.6515
  235MOL0     C31647  11.623   9.641   6.129 -0.0074  0.0019 -0.7478
  235MOL0     C31648  11.668   9.635   6.267 -0.0458 -0.4602  0.6258
  235MOL0     O31649  11.802   9.621   6.301  0.3884  0.4633 -0.4478
  235MOL0     C31650  11.907   9.585   6.209  0.6597 -0.1506  0.6448
  235MOL0     C31651  12.013   9.519   6.287  0.3076 -0.4054  0.1815
  235MOL0     C31652  12.134   9.477   6.190 -0.0418  0.3501  0.4597
  235MOL0     C31653  12.240   9.393   6.264  0.0370 -0.0838  0.1178
  235MOL0     C31654  12.299   9.459   6.378 -0.2771 -0.5549  0.0462
  235MOL0     C31655  12.340   9.498   6.483  0.5774 -0.5682  0.7430
  235MOL0     C31656  11.568   9.650   6.369 -0.1437  0.2916  0.4273
  235MOL0     C31657  11.432   9.665   6.329 -0.7194 -0.1518 -0.1043
  235MOL0     H31658  10.974   9.656   6.075  0.5190 -0.4527  0.8376
  235MOL0     H31659  10.750   9.683   6.105 -2.8464  3.1165  0.8263
  235MOL0     H31660  10.539   9.705   6.169  2.1897 -2.9008 -0.9727
  235MOL0     H31661  10.609   9.583   6.288  1.3473  0.1815  0.6102
  235MOL0     H31662  10.357   9.584   6.323  0.5818 -0.2068 -0.0533
  235MOL0     H31663  10.431   9.663   6.460  1.4737 -1.8220 -0.8924
  235MOL0     H31664  10.397   9.880   6.401  1.1461 -2.1609  1.0264
  235MOL0     H31665  10.374   9.861   6.226 -0.3634  0.2667  0.1305
  235MOL0     H31666  10.168   9.750   6.242  1.4689 -1.0334  0.0135
  235MOL0     H31667  10.186   9.747   6.426  1.7431  1.6073  1.4080
  235MOL0     H31668  10.174   9.996   6.435  0.1173  1.0034 -0.1995
  235MOL0     H31669  10.172  10.006   6.261 -1.4468 -0.9632 -1.0438
  235MOL0     H31670   9.964   9.872   6.250  0.5447  1.0966 -1.0080
  235MOL0     H31671   9.968   9.868   6.428  0.5839 -1.4344 -1.6570
  235MOL0     H31672   9.942  10.107   6.450  2.5404 -1.5473 -0.1093
  235MOL0     H31673   9.953  10.137   6.279  0.9669  1.6593  1.5560
  235MOL0     H31674   9.729   9.951   6.415  1.9287 -2.5480 -0.7436
  235MOL0     H31675   9.740   9.985   6.247  1.8490 -1.7744  0.0202
  235MOL0     H31676   9.670  10.182   6.567 -1.7627  1.7192  1.3704
  235MOL0     H31677   9.668  10.484   6.566 -0.2432  0.8977  0.0328
  235MOL0     H31678   9.563  10.552   6.437  1.9757 -0.2912 -0.5994
  235MOL0     H31679   9.445  10.531   6.669 -2.3559 -0.1244  0.9414
  235MOL0     H31680   9.470  10.355   6.641  0.3398  1.0511  1.9024
  235MOL0     H31681   9.242  10.411   6.565  1.3305 -3.0197  0.4514
  235MOL0     H31682   9.349  10.363   6.429 -3.4669  2.0265 -3.1063
  235MOL0     H31683   9.389  10.609   6.386  0.5120 -0.7628 -0.0399
  235MOL0     H31684   9.293  10.652   6.523  0.1700  2.3751 -1.8289
  235MOL0     H31685   9.128  10.588   6.635  1.9027  1.6426 -1.0479
  235MOL0     H31686   8.866  10.815   6.798 -2.5524 -1.2579 -0.9969
  235MOL0     H31687   8.843  10.649   6.806  1.7665 -1.7226 -1.3827
  235MOL0     H31688   9.004  10.710   6.833 -0.6098  3.7032  2.4043
  235MOL0     H31689   8.587  10.977   6.790  1.8254  0.6334 -2.2485
  235MOL0     H31690   8.364  11.089   6.813 -2.5586 -1.3156  0.2806
  235MOL0     H31691   7.940  11.013   6.669  2.4171  1.9383 -1.2575
  235MOL0     H31692   8.029  10.859   6.689  1.0345 -0.4972  1.0896
  235MOL0     H31693   8.051  10.926   6.929  0.0144  2.8658  1.7821
  235MOL0     H31694   7.974  11.080   6.896  0.5083  0.8044 -3.7866
  235MOL0     H31695   7.802  10.912   6.984 -1.9743  1.0384  0.8649
  235MOL0     H31696   7.820  10.826   6.845  0.3403 -1.9731  3.9843
  235MOL0     H31697   7.761  11.127   6.871  2.2986 -2.2524  1.6573
  235MOL0     H31698   7.722  11.022   6.722  0.5665  0.2390  0.4632
  235MOL0     H31699   7.614  11.002   7.012  3.3466  1.9283 -0.0687
  235MOL0     H31700   7.571  10.899   6.864 -2.8106 -0.4591  3.8510
  235MOL0     H31701   7.505  11.193   6.869 -3.0901  0.2557  4.6659
  235MOL0     H31702   7.441  11.055   6.762 -3.7895 -0.2235  2.6328
  235MOL0     H31703   7.290  11.148   6.938 -1.0617 -1.8507 -2.9315
  235MOL0     H31704   7.380  11.034   7.052  2.2284 -1.3062  0.0159
  235MOL0     H31705   7.345  10.855   6.897  1.1279  0.4577  3.0217
  235MOL0     H31706   7.238  10.967   6.797  0.0811  0.5511  0.8494
  235MOL0     H31707   8.192  10.830   6.528 -0.5799  0.6478  1.0452
  235MOL0     H31708   8.402  10.699   6.531 -0.5135 -2.0750  3.4394
  235MOL0     H31709   8.779  10.766   6.335  1.3954  2.6932 -0.6323
  235MOL0     H31710   8.990  10.677   6.237 -0.6029  0.9158 -0.0830
  235MOL0     H31711  10.812   9.853   6.494  0.4948 -0.6944  0.3910
  235MOL0     H31712  11.063   9.845   6.455  0.0553  2.1362 -0.9729
  235MOL0     H31713  11.449   9.674   5.997 -0.6226 -1.0336  0.6004
  235MOL0     H31714  11.697   9.623   6.052 -0.6666 -0.6968 -1.2331
  235MOL0     H31715  11.877   9.514   6.132 -1.9675 -1.2308  2.5107
  235MOL0     H31716  11.952   9.672   6.161  0.6665 -1.9771 -3.0076
  235MOL0     H31717  11.975   9.432   6.342  0.3948 -0.7679 -0.3270
  235MOL0     H31718  12.055   9.590   6.359  3.5902 -0.5526 -1.4134
  235MOL0     H31719  12.193   9.561   6.153  1.0107  0.1982  1.7006
  235MOL0     H31720  12.097   9.427   6.100  1.3721 -0.7952  0.4823
  235MOL0     H31721  12.321   9.377   6.192  0.6082  0.2439  0.6803
  235MOL0     H31722  12.204   9.293   6.291  2.1514 -1.6960 -2.5275
  235MOL0     H31723  12.364   9.524   6.585  0.2846  2.5320  0.1232
  235MOL0     H31724  11.611   9.650   6.469 -0.3278 -0.3034  0.5143
  235MOL0     H31725  11.355   9.677   6.405 -1.4467 -0.5471 -0.7611
  236MOL0     O31726   2.594   6.887   8.012  1.2492 -0.5027 -0.5142
  236MOL0     C31727   2.669   6.931   7.927  0.0531 -0.2604  0.5940
  236MOL0     O31728   2.681   7.056   7.886 -0.1546 -0.1891  0.3840
  236MOL0     C31729   2.616   7.145   7.958 -0.4451  0.7911  0.6984
  236MOL0     C31730   2.494   7.196   7.918 -0.0833 -0.2964 -0.0587
  236MOL0     C31731   2.441   7.285   8.011 -0.1529 -0.1857  0.0793
  236MOL0     C31732   2.509   7.339   8.122 -0.2741  0.6433  0.3410
  236MOL0     O31733   2.454   7.433   8.194 -0.6009  0.7873 -0.4769
  236MOL0     C31734   2.377   7.395   8.309  0.0994  0.2713 -0.3902
  236MOL0     C31735   2.230   7.397   8.283  0.1440  0.3417 -0.3234
  236MOL0     C31736   2.151   7.375   8.408  0.7890 -0.4254  0.4930
  236MOL0     C31737   2.031   7.273   8.392 -0.4504  0.4278 -0.1173
  236MOL0     C31738   1.912   7.308   8.300  0.0381 -0.1086  0.1903
  236MOL0     C31739   1.773   7.250   8.343 -0.3862 -1.0434  0.2160
  236MOL0     C31740   1.764   7.102   8.369  0.4644 -0.5414 -0.4123
  236MOL0     C31741   1.829   6.993   8.272 -0.5927  0.0632 -0.4019
  236MOL0     N31742   1.761   6.987   8.140  0.4944 -0.3750  0.1397
  236MOL0     C31743   1.721   7.089   8.053 -0.2511 -0.9690 -0.4405
  236MOL0     C31744   1.682   7.025   7.942 -0.4282  0.1317  0.1212
  236MOL0     C31745   1.617   7.097   7.832 -0.4782  0.3710 -0.1572
  236MOL0     C31746   1.496   7.027   7.788  0.3847  0.6404  0.9853
  236MOL0     C31747   1.439   7.091   7.658 -0.3681 -0.2573 -0.2026
  236MOL0     C31748   1.297   7.059   7.641  0.1187 -0.5634 -0.5062
  236MOL0     O31749   1.246   7.162   7.549 -0.4903 -0.1807  0.2296
  236MOL0     C31750   1.114   7.156   7.505  0.2618 -0.0561 -0.6067
  236MOL0     C31751   1.027   7.049   7.539  0.1396  0.1199  0.5396
  236MOL0     C31752   0.899   7.046   7.480 -0.2516 -0.2360  0.7251
  236MOL0     C31753   0.815   6.928   7.514 -0.0385  0.0924  0.2577
  236MOL0     C31754   0.864   7.155   7.393 -0.3189  0.0148 -0.8383
  236MOL0     C31755   0.729   7.162   7.329 -0.1423 -0.4909 -0.3708
  236MOL0     O31756   0.695   7.278   7.294  0.4815  0.1697 -0.1476
  236MOL0     C31757   0.569   7.307   7.246  0.4179  0.2661  0.1289
  236MOL0     C31758   0.553   7.352   7.115  0.3369  1.3274 -0.1570
  236MOL0     C31759   0.422   7.372   7.065  0.8580 -0.4661  0.9573
  236MOL0     C31760   0.300   7.326   7.136 -0.4796 -0.2945  0.2801
  236MOL0     O31761   0.170   7.331   7.078 -0.0099 -0.1432  0.2525
  236MOL0     C31762   0.061   7.285   7.151  0.3641 -0.6975  0.1891
  236MOL0     C31763  -0.058   7.296   7.064 -0.3155 -1.4094 -1.3056
  236MOL0     C31764  -0.184   7.245   7.136  0.3654  0.6091 -0.7786
  236MOL0     C31765  -0.322   7.266   7.063  0.3594 -0.1929  0.9284
  236MOL0     C31766  -0.441   7.212   7.131 -0.4652  0.1689 -0.3476
  236MOL0     C31767  -0.562   7.216   7.040  0.1641  0.1850 -0.9129
  236MOL0     C31768  -0.688   7.135   7.073  0.9495 -0.5157  0.0569
  236MOL0     C31769  -0.673   7.006   7.157  0.8490 -0.2646 -0.0275
  236MOL0    Cl31770  -0.826   6.918   7.175 -0.3422 -0.1034 -0.2381
  236MOL0     C31771   0.328   7.293   7.275  0.1803 -0.8369  0.3725
  236MOL0     C31772   0.459   7.298   7.324  0.4544 -0.7746  0.1466
  236MOL0     O31773   0.680   7.056   7.304  0.3682  0.1443  0.1286
  236MOL0     C31774   0.961   7.247   7.349  0.0057 -0.1502 -0.2093
  236MOL0     C31775   1.076   7.254   7.423  0.1745 -0.2030 -0.5629
  236MOL0     N31776   1.699   6.889   7.958 -0.8791 -0.0944  0.5466
  236MOL0     N31777   1.749   6.869   8.075 -0.2313  0.5044  0.2904
  236MOL0     C31778   2.643   7.295   8.145  0.3972  0.1971  0.1468
  236MOL0     C31779   2.689   7.185   8.067 -0.1880  0.0469  0.5111
  236MOL0     C31780   2.758   6.829   7.867 -0.0336  0.0281 -0.6812
  236MOL0     C31781   2.811   6.844   7.733  0.1219  0.4418 -0.5776
  236MOL0     C31782   2.915   6.759   7.691 -0.5986 -0.4968 -0.0972
  236MOL0     C31783   2.973   6.664   7.780  0.0690 -0.1922 -0.0558
  236MOL0     O31784   3.084   6.595   7.761  0.3997 -0.7428 -0.2724
  236MOL0     C31785   3.146   6.578   7.634  0.3176 -0.0914  0.1551
  236MOL0     C31786   3.289   6.544   7.668 -0.7569 -0.5803  0.0467
  236MOL0     C31787   3.382   6.560   7.543 -0.3111 -0.4086 -0.0537
  236MOL0     C31788   3.528   6.512   7.569  0.3381 -0.5608  0.1677
  236MOL0     C31789   3.527   6.364   7.573 -0.5563 -0.1948 -0.4453
  236MOL0     C31790   3.516   6.243   7.582  0.1901  0.1132  0.0410
  236MOL0     C31791   2.909   6.645   7.905 -0.2015 -0.5652 -1.1466
  236MOL0     C31792   2.798   6.718   7.948  0.3441  0.0850 -0.4755
  236MOL0     H31793   2.437   7.153   7.836 -1.0324 -1.4777  1.1676
  236MOL0     H31794   2.343   7.325   7.990 -0.7347 -1.5941 -0.0007
  236MOL0     H31795   2.393   7.291   8.339 -0.8358  0.4524  0.8379
  236MOL0     H31796   2.389   7.459   8.397 -1.9504  0.7455 -0.4133
  236MOL0     H31797   2.191   7.491   8.243  2.3647  2.2786  1.7327
  236MOL0     H31798   2.212   7.317   8.211 -1.6985  0.4265 -0.0053
  236MOL0     H31799   2.220   7.335   8.484  0.6940 -1.1719  0.1898
  236MOL0     H31800   2.116   7.473   8.443 -0.0168 -0.5553  0.0671
  236MOL0     H31801   2.071   7.173   8.372  1.4153  1.0185  0.4387
  236MOL0     H31802   1.996   7.262   8.495  0.8216 -1.3676  0.1789
  236MOL0     H31803   1.895   7.416   8.297 -2.4379 -0.4558 -0.6878
  236MOL0     H31804   1.942   7.275   8.200 -2.2856  1.5090 -1.1453
  236MOL0     H31805   1.739   7.306   8.430  1.6143  0.7441 -0.0678
  236MOL0     H31806   1.709   7.272   8.257  0.8393  0.8593 -0.2750
  236MOL0     H31807   1.810   7.098   8.468  1.5388 -0.8173 -0.9016
  236MOL0     H31808   1.656   7.085   8.368  0.2360  0.7816 -0.7637
  236MOL0     H31809   1.830   6.893   8.317 -1.1121  1.5386  3.2649
  236MOL0     H31810   1.933   7.018   8.249 -0.0102 -4.3338 -4.0340
  236MOL0     H31811   1.702   7.194   8.071 -0.9557 -1.2795  0.7060
  236MOL0     H31812   1.585   7.196   7.865  0.0770  1.3043 -2.2407
  236MOL0     H31813   1.689   7.117   7.752  2.4827  0.7508  2.3723
  236MOL0     H31814   1.425   7.038   7.871  0.5240 -2.5751  1.6594
  236MOL0     H31815   1.506   6.920   7.767 -2.4078  0.6368 -0.9551
  236MOL0     H31816   1.495   7.059   7.569 -0.2428 -1.5103  0.2984
  236MOL0     H31817   1.450   7.193   7.695  0.2686 -1.3224  2.7895
  236MOL0     H31818   1.243   7.058   7.737  0.6395 -1.7311 -0.2017
  236MOL0     H31819   1.283   6.958   7.600 -3.7730 -0.1541 -0.5648
  236MOL0     H31820   1.061   6.970   7.605  1.1909 -0.5801 -0.7898
  236MOL0     H31821   0.881   6.858   7.566  3.7339  1.9258 -1.7025
  236MOL0     H31822   0.734   6.943   7.587 -1.1249 -1.0699 -0.6640
  236MOL0     H31823   0.773   6.875   7.428 -0.8227  3.1923 -1.3950
  236MOL0     H31824   0.633   7.369   7.044 -0.4986  0.2766 -1.4055
  236MOL0     H31825   0.412   7.411   6.965 -2.2517 -0.7941  1.0411
  236MOL0     H31826   0.073   7.180   7.179  0.7512 -1.3063 -2.1200
  236MOL0     H31827   0.050   7.346   7.242 -0.8913 -0.5169 -0.0589
  236MOL0     H31828  -0.079   7.403   7.049  3.3671 -0.2270  0.7516
  236MOL0     H31829  -0.043   7.250   6.966 -3.0414  1.9764 -3.5754
  236MOL0     H31830  -0.184   7.295   7.233  3.8968 -3.7475  1.9216
  236MOL0     H31831  -0.171   7.138   7.156 -5.1750 -0.0831  0.5870
  236MOL0     H31832  -0.336   7.372   7.040 -0.4304 -0.4252  0.3058
  236MOL0     H31833  -0.310   7.221   6.964  1.5495  3.3579 -0.7124
  236MOL0     H31834  -0.461   7.272   7.220 -2.0203 -0.3629 -0.3117
  236MOL0     H31835  -0.424   7.113   7.173 -1.7999  0.9078  2.1372
  236MOL0     H31836  -0.579   7.324   7.028  3.1516  0.8067 -0.2713
  236MOL0     H31837  -0.540   7.195   6.935 -0.1692 -0.1919 -0.9087
  236MOL0     H31838  -0.742   7.122   6.979 -3.2855  0.0258  2.1351
  236MOL0     H31839  -0.752   7.206   7.127 -1.5999 -1.1298 -1.9242
  236MOL0     H31840  -0.635   7.034   7.255 -0.8277 -1.8829  1.1647
  236MOL0     H31841  -0.606   6.934   7.108  1.3143 -1.2365  1.9305
  236MOL0     H31842   0.247   7.281   7.345  0.0343  4.0675  1.3670
  236MOL0     H31843   0.474   7.282   7.431  1.1396  3.1812  0.8094
  236MOL0     H31844   0.945   7.319   7.269 -1.9888 -0.3920 -0.0847
  236MOL0     H31845   1.142   7.334   7.391  1.1219 -0.6818  0.1480
  236MOL0     H31846   2.709   7.340   8.219  2.3823 -2.7175  0.3258
  236MOL0     H31847   2.789   7.147   8.088 -0.5355 -0.4044  1.3880
  236MOL0     H31848   2.770   6.918   7.665  0.1526 -1.3468 -2.6223
  236MOL0     H31849   2.965   6.782   7.597  2.2176  0.6718  1.5344
  236MOL0     H31850   3.097   6.500   7.574  1.6295 -1.0448  0.2807
  236MOL0     H31851   3.156   6.673   7.581  1.6670  1.6662  3.2764
  236MOL0     H31852   3.281   6.444   7.711 -1.4137 -0.7000 -0.3333
  236MOL0     H31853   3.335   6.610   7.743 -0.8548 -0.6099  0.1332
  236MOL0     H31854   3.386   6.666   7.516 -1.1831 -0.0131  1.3037
  236MOL0     H31855   3.342   6.506   7.456 -2.7353  0.4017  0.4628
  236MOL0     H31856   3.559   6.559   7.663 -1.8532  2.1663 -0.3503
  236MOL0     H31857   3.592   6.552   7.489  1.0898  0.1004  1.0786
  236MOL0     H31858   3.525   6.136   7.578  0.2629  0.0959  0.5382
  236MOL0     H31859   2.941   6.575   7.982 -3.7776  0.1925  1.2787
  236MOL0     H31860   2.745   6.708   8.042 -4.2393 -2.2292 -2.9828
  237MOL0     O31861   4.121   8.862   6.480  0.3272  0.0134  0.2114
  237MOL0     C31862   4.137   8.738   6.466  0.4586  0.5853  0.4961
  237MOL0     O31863   4.049   8.655   6.405  0.3450 -0.4345  0.4696
  237MOL0     C31864   3.922   8.697   6.387  0.2169 -0.5374  0.0478
  237MOL0     C31865   3.818   8.659   6.476 -0.2674 -0.9510  0.0544
  237MOL0     C31866   3.685   8.698   6.454 -0.1362 -0.0076 -0.5579
  237MOL0     C31867   3.656   8.789   6.348  0.0566  0.6128  0.0213
  237MOL0     O31868   3.523   8.820   6.336 -0.9606 -0.5406 -0.2616
  237MOL0     C31869   3.473   8.862   6.210 -0.0860  0.4065 -0.3795
  237MOL0     C31870   3.337   8.799   6.195  0.3385 -0.0482  0.1890
  237MOL0     C31871   3.246   8.840   6.320  0.0671 -0.7630 -0.0499
  237MOL0     C31872   3.110   8.773   6.315 -0.7199 -0.1497  0.0713
  237MOL0     C31873   3.031   8.844   6.203 -0.6684 -0.3916 -0.4371
  237MOL0     C31874   2.891   8.777   6.192 -0.2416  0.0732 -0.3271
  237MOL0     C31875   2.807   8.849   6.092  0.0287 -0.6657  0.0241
  237MOL0     C31876   2.759   8.982   6.147  0.4105 -0.6027 -0.6268
  237MOL0     N31877   2.663   9.035   6.049 -0.1894 -0.4016 -1.0634
  237MOL0     C31878   2.687   9.080   5.931 -0.5149  0.2790  0.2935
  237MOL0     C31879   2.577   9.153   5.892  0.0652  0.3978  0.0987
  237MOL0     C31880   2.558   9.219   5.764 -0.1980  0.3283 -0.1288
  237MOL0     C31881   2.419   9.251   5.704 -0.7954  0.5061  1.3368
  237MOL0     C31882   2.429   9.323   5.565 -0.1964  0.1337 -1.0950
  237MOL0     C31883   2.350   9.448   5.577  0.7372 -0.7917 -0.0399
  237MOL0     O31884   2.356   9.515   5.454 -0.4120 -0.3534 -0.2093
  237MOL0     C31885   2.277   9.626   5.443  0.8082  0.0278 -0.4816
  237MOL0     C31886   2.204   9.632   5.328  0.2390  0.0436  0.1426
  237MOL0     C31887   2.104   9.730   5.304 -0.0181  0.0444 -0.4449
  237MOL0     C31888   2.026   9.723   5.176 -0.3438 -0.6471  0.4138
  237MOL0     C31889   2.089   9.829   5.410  0.1252  0.3993 -0.2170
  237MOL0     C31890   1.979   9.936   5.392 -0.1175  0.6844 -0.9856
  237MOL0     O31891   1.922   9.952   5.511 -0.3206 -0.1808 -0.1243
  237MOL0     C31892   1.808  10.013   5.526  0.4939 -0.5827  0.6002
  237MOL0     C31893   1.803  10.132   5.607 -0.4016  1.3316  0.3205
  237MOL0     C31894   1.685  10.203   5.606 -0.4665  0.1421 -1.7226
  237MOL0     C31895   1.567  10.175   5.540 -0.1576  0.3786  0.2272
  237MOL0     O31896   1.468  10.269   5.547  0.0849  0.0452  0.7928
  237MOL0     C31897   1.390  10.279   5.426  0.8296  0.3778 -0.0562
  237MOL0     C31898   1.286  10.389   5.432 -0.0825 -0.4191 -0.1790
  237MOL0     C31899   1.211  10.398   5.300 -0.6322 -1.4167  0.7263
  237MOL0     C31900   1.115  10.521   5.290  0.0848 -0.4226  0.1544
  237MOL0     C31901   0.991  10.476   5.218 -0.2212 -0.2778  0.1829
  237MOL0     C31902   0.875  10.573   5.237 -1.0236  0.2819 -0.3036
  237MOL0     C31903   0.749  10.544   5.158 -0.2530  0.1534  0.3710
  237MOL0     C31904   0.626  10.521   5.250 -0.2680 -0.2509 -0.4121
  237MOL0    Cl31905   0.487  10.494   5.144 -0.0818  0.2440 -0.5020
  237MOL0     C31906   1.575  10.060   5.460 -0.3985  0.0744  0.1156
  237MOL0     C31907   1.691   9.985   5.445 -0.3503 -0.7578  0.3429
  237MOL0     O31908   1.940   9.980   5.284 -0.2032 -0.1642 -0.2175
  237MOL0     C31909   2.162   9.826   5.536  0.5300  0.6418  0.5180
  237MOL0     C31910   2.256   9.722   5.548 -0.1543 -0.5082  0.5802
  237MOL0     N31911   2.479   9.130   5.987  0.0165 -0.5030 -0.4001
  237MOL0     N31912   2.538   9.068   6.084 -0.4646  0.5999  0.0634
  237MOL0     C31913   3.755   8.835   6.263 -0.1147  0.1972 -0.0406
  237MOL0     C31914   3.885   8.778   6.280  0.5291  0.0803  0.5260
  237MOL0     C31915   4.259   8.677   6.514 -1.5579 -0.4038  0.4498
  237MOL0     C31916   4.290   8.542   6.529 -0.0747  0.5172  0.3087
  237MOL0     C31917   4.413   8.487   6.572 -0.0527 -0.7537 -1.0349
  237MOL0     C31918   4.519   8.574   6.603  1.0326  0.0448  0.4206
  237MOL0     O31919   4.640   8.521   6.659 -0.1958  0.2289  0.1246
  237MOL0     C31920   4.743   8.543   6.565  0.0452 -0.5103 -0.4581
  237MOL0     C31921   4.759   8.443   6.443 -0.7401 -1.0428 -0.4490
  237MOL0     C31922   4.736   8.303   6.485 -0.3661  1.0722  0.4224
  237MOL0     C31923   4.731   8.207   6.365 -0.5523 -0.1176 -0.2292
  237MOL0     C31924   4.674   8.074   6.392 -0.3553  0.5116  0.2402
  237MOL0     C31925   4.645   7.957   6.400 -0.2498 -0.3521 -0.4394
  237MOL0     C31926   4.494   8.711   6.594 -0.4174 -0.0735  0.5523
  237MOL0     C31927   4.376   8.763   6.547  1.8791  1.2625 -0.1265
  237MOL0     H31928   3.843   8.596   6.561  1.1135  0.8134  1.0056
  237MOL0     H31929   3.601   8.657   6.509 -0.3366  2.2697  0.9724
  237MOL0     H31930   3.456   8.970   6.210  2.0201  0.7921 -0.0550
  237MOL0     H31931   3.544   8.838   6.130  1.7602  0.3735  1.1958
  237MOL0     H31932   3.302   8.848   6.104 -0.2658  3.1977  2.0075
  237MOL0     H31933   3.343   8.691   6.176 -2.8427 -0.5481  1.4809
  237MOL0     H31934   3.290   8.818   6.418  1.1833  0.7626 -0.1624
  237MOL0     H31935   3.245   8.949   6.305  2.2835 -0.8436 -1.2284
  237MOL0     H31936   3.123   8.669   6.284 -2.8468 -0.4417 -0.0306
  237MOL0     H31937   3.057   8.781   6.411  0.0669 -1.2038  0.6121
  237MOL0     H31938   3.015   8.952   6.210  2.3952  0.0634  1.4215
  237MOL0     H31939   3.077   8.819   6.107  1.5327 -0.0153  0.4708
  237MOL0     H31940   2.902   8.670   6.169  1.5922 -0.4891  2.5831
  237MOL0     H31941   2.829   8.791   6.281 -0.6204 -0.8588 -0.4300
  237MOL0     H31942   2.866   8.868   6.002 -0.9113  2.8610 -0.0050
  237MOL0     H31943   2.721   8.789   6.061 -0.8328  1.0922 -1.1910
  237MOL0     H31944   2.836   9.059   6.159 -1.3575  0.9305  1.6628
  237MOL0     H31945   2.704   8.973   6.242 -0.2174 -0.8244 -1.0074
  237MOL0     H31946   2.781   9.076   5.877  1.0020 -1.8823  2.8352
  237MOL0     H31947   2.610   9.315   5.763  1.3912 -0.4926 -1.3182
  237MOL0     H31948   2.604   9.151   5.691 -1.1253 -1.0732  0.5406
  237MOL0     H31949   2.364   9.319   5.771 -1.3695  3.1371 -1.5688
  237MOL0     H31950   2.353   9.164   5.696 -0.2079  0.1594  0.0226
  237MOL0     H31951   2.385   9.254   5.492 -0.8951 -0.6159  0.0103
  237MOL0     H31952   2.529   9.361   5.543 -0.4068  1.4535  0.0990
  237MOL0     H31953   2.392   9.502   5.663  1.9163  0.4960 -1.3661
  237MOL0     H31954   2.243   9.438   5.592  0.6442  0.4957  0.2298
  237MOL0     H31955   2.233   9.568   5.245  1.0661  0.3292  0.1981
  237MOL0     H31956   1.920   9.713   5.202  0.3058 -4.3634  2.3886
  237MOL0     H31957   2.044   9.808   5.110  1.0685  0.5073  2.2123
  237MOL0     H31958   2.051   9.624   5.136  0.1134 -0.1474 -0.5673
  237MOL0     H31959   1.891  10.154   5.666 -1.2891 -0.3469  2.3685
  237MOL0     H31960   1.685  10.292   5.667 -1.6869 -1.9695  1.6091
  237MOL0     H31961   1.462  10.302   5.347 -1.1059  0.1049 -1.9981
  237MOL0     H31962   1.335  10.186   5.413 -3.0977  2.2794  1.2267
  237MOL0     H31963   1.214  10.371   5.513 -0.8881  3.4391  0.1327
  237MOL0     H31964   1.331  10.485   5.460  1.0410 -0.9679 -0.0429
  237MOL0     H31965   1.155  10.304   5.289  0.3652 -1.7363 -2.5827
  237MOL0     H31966   1.278  10.404   5.214 -2.5868  3.0292 -0.8116
  237MOL0     H31967   1.083  10.553   5.390 -0.8560 -4.1855  1.2392
  237MOL0     H31968   1.161  10.605   5.238  2.2011 -0.0338  2.4442
  237MOL0     H31969   0.962  10.378   5.256  1.0803 -0.9858 -0.5978
  237MOL0     H31970   1.016  10.467   5.112  2.5927  1.6405  0.5582
  237MOL0     H31971   0.847  10.563   5.342 -1.3368 -1.7886 -0.5577
  237MOL0     H31972   0.900  10.678   5.216  1.4124 -0.5750 -2.2807
  237MOL0     H31973   0.758  10.445   5.112 -0.9640  0.0482  0.4568
  237MOL0     H31974   0.728  10.638   5.105  4.0355  2.1730  1.7791
  237MOL0     H31975   0.619  10.610   5.313  1.3816 -0.8058  0.6475
  237MOL0     H31976   0.649  10.438   5.318  1.0621  0.7930  0.4673
  237MOL0     H31977   1.491  10.013   5.409  1.8793 -0.4938 -3.4483
  237MOL0     H31978   1.691   9.899   5.378  0.6770 -1.4034  1.1410
  237MOL0     H31979   2.141   9.886   5.624 -1.3670 -2.1107  2.0984
  237MOL0     H31980   2.315   9.713   5.638  4.4198  1.5245 -1.8217
  237MOL0     H31981   3.722   8.906   6.187 -1.5982  2.6416  2.6943
  237MOL0     H31982   3.967   8.803   6.214  0.5880 -1.1414  0.1139
  237MOL0     H31983   4.213   8.469   6.508 -0.4292  0.4621  1.6781
  237MOL0     H31984   4.422   8.379   6.580 -0.1915 -0.7628 -1.0133
  237MOL0     H31985   4.740   8.651   6.547 -3.2799  0.9504  5.9960
  237MOL0     H31986   4.835   8.525   6.623 -0.2160  1.0470  0.5078
  237MOL0     H31987   4.859   8.460   6.401 -1.5026 -1.0161 -2.3546
  237MOL0     H31988   4.680   8.470   6.372 -1.3657 -1.9250 -0.1047
  237MOL0     H31989   4.643   8.287   6.539 -0.9297 -2.3605 -1.2840
  237MOL0     H31990   4.825   8.279   6.543 -1.8706 -0.0533  2.3679
  237MOL0     H31991   4.830   8.194   6.321 -0.0561  0.1569  0.7704
  237MOL0     H31992   4.668   8.260   6.293 -1.7102 -0.2850  0.6314
  237MOL0     H31993   4.591   7.867   6.418  1.2090 -1.3801 -1.0130
  237MOL0     H31994   4.565   8.786   6.628 -2.6841  2.2752  0.4088
  237MOL0     H31995   4.357   8.870   6.557 -0.0827  0.8232  1.6540
  238MOL0     O31996  10.983   7.528   1.721  0.5948  0.2637  0.3833
  238MOL0     C31997  11.051   7.455   1.786  0.1138  0.0183  0.7814
  238MOL0     O31998  11.003   7.359   1.873  0.3212  0.2298  0.1723
  238MOL0     C31999  10.871   7.370   1.914  0.1977 -0.5052  0.1590
  238MOL0     C32000  10.810   7.493   1.952  0.5434 -0.3661  0.6866
  238MOL0     C32001  10.682   7.487   2.010  0.1000  1.6082  0.2942
  238MOL0     C32002  10.617   7.369   2.041 -1.0530  0.1543 -0.1683
  238MOL0     O32003  10.498   7.380   2.106 -0.4091  0.4051  0.3948
  238MOL0     C32004  10.383   7.324   2.041 -0.2624  0.1350  0.2097
  238MOL0     C32005  10.248   7.358   2.100  0.3842  0.2545 -0.1431
  238MOL0     C32006  10.135   7.280   2.045 -0.2709 -0.6787  0.5446
  238MOL0     C32007  10.018   7.279   2.136  0.7313  0.2930 -0.3726
  238MOL0     C32008   9.886   7.233   2.080 -0.4397  0.4423 -0.1864
  238MOL0     C32009   9.774   7.214   2.183 -0.4735 -0.3769  1.3043
  238MOL0     C32010   9.651   7.163   2.111 -0.3289  1.3042 -0.1086
  238MOL0     C32011   9.522   7.167   2.214  0.7719  0.0985  0.2627
  238MOL0     N32012   9.415   7.082   2.159  0.5193 -0.5293 -0.0690
  238MOL0     C32013   9.282   7.115   2.169  1.2280 -1.1066  0.7180
  238MOL0     C32014   9.211   7.028   2.096 -0.9781 -0.5256  0.7373
  238MOL0     C32015   9.053   7.023   2.069  0.4796 -0.3468 -0.5051
  238MOL0     C32016   9.002   7.128   1.972 -0.1354  0.1838  0.4166
  238MOL0     C32017   8.879   7.077   1.898 -0.3336  0.2781  0.5234
  238MOL0     C32018   8.753   7.072   1.981 -0.3098 -0.0268 -0.6917
  238MOL0     O32019   8.649   7.024   1.889  0.7292  0.1263 -0.4132
  238MOL0     C32020   8.518   7.067   1.907 -0.0835  0.8967 -0.4038
  238MOL0     C32021   8.466   7.128   2.023  0.6391  0.0381  0.4107
  238MOL0     C32022   8.326   7.163   2.035 -0.0931  0.1621 -0.0596
  238MOL0     C32023   8.276   7.220   2.165  0.8260 -0.2497  0.0427
  238MOL0     C32024   8.239   7.126   1.933  0.2254 -1.0356 -0.3260
  238MOL0     C32025   8.102   7.160   1.939  0.5855 -0.1845 -0.6450
  238MOL0     O32026   8.055   7.282   1.972 -0.8795  0.3161 -0.1482
  238MOL0     C32027   7.921   7.299   1.961  0.5812  0.2909 -1.0367
  238MOL0     C32028   7.844   7.336   2.082 -0.8688 -0.6832  0.2028
  238MOL0     C32029   7.711   7.366   2.067 -0.3227  0.1807  0.3827
  238MOL0     C32030   7.645   7.347   1.947 -0.4734 -0.0665  0.3592
  238MOL0     O32031   7.515   7.391   1.932 -0.1201 -0.0037 -0.2633
  238MOL0     C32032   7.537   7.521   1.867  0.0059  0.8935  1.1264
  238MOL0     C32033   7.412   7.567   1.797  0.0361  0.1651 -0.4402
  238MOL0     C32034   7.313   7.633   1.898  0.2752  0.0707  0.1805
  238MOL0     C32035   7.257   7.532   1.994  0.3178  0.0127  0.7420
  238MOL0     C32036   7.141   7.583   2.079 -0.2805  0.0486 -0.6724
  238MOL0     C32037   7.014   7.581   2.016  0.2701 -0.6714 -0.3348
  238MOL0     C32038   6.953   7.442   1.997  0.1400 -0.8664 -1.0966
  238MOL0     C32039   6.855   7.452   1.870 -0.1654 -0.7010  0.0097
  238MOL0    Cl32040   6.719   7.573   1.904 -0.1838 -0.1517  0.0127
  238MOL0     C32041   7.711   7.292   1.835  0.5717  0.4770 -0.7371
  238MOL0     C32042   7.852   7.272   1.843  0.6082  0.4637 -0.3107
  238MOL0     O32043   8.032   7.058   1.923  0.4587 -0.9341 -0.5718
  238MOL0     C32044   8.288   7.060   1.819 -0.0496  0.4971 -0.1384
  238MOL0     C32045   8.423   7.029   1.808  0.4933 -0.2375  0.5577
  238MOL0     N32046   9.303   6.945   2.038 -0.5934 -0.4802 -0.5315
  238MOL0     N32047   9.426   6.970   2.086  0.3828  0.2259  0.2527
  238MOL0     C32048  10.671   7.243   2.000  0.4220  0.8159  0.7442
  238MOL0     C32049  10.803   7.249   1.942  0.1380  0.5910 -0.2693
  238MOL0     C32050  11.195   7.437   1.745  0.0716 -0.7501 -0.4165
  238MOL0     C32051  11.283   7.349   1.812  0.0166 -0.7147 -0.7732
  238MOL0     C32052  11.417   7.337   1.782 -0.6666 -0.6510  0.0097
  238MOL0     C32053  11.465   7.410   1.670  0.0600  0.2865 -0.3556
  238MOL0     O32054  11.590   7.390   1.619 -0.7522  0.2925  0.6676
  238MOL0     C32055  11.625   7.419   1.483 -0.5994  0.6756  0.7950
  238MOL0     C32056  11.765   7.382   1.433  1.0257 -0.1944 -0.4962
  238MOL0     C32057  11.786   7.226   1.439 -0.0027  0.1426  1.2716
  238MOL0     C32058  11.698   7.145   1.341  0.0147 -0.3126  0.2066
  238MOL0     C32059  11.737   7.154   1.198 -0.5877  0.5722  0.0471
  238MOL0     C32060  11.774   7.159   1.085 -0.0419  0.0559  0.3628
  238MOL0     C32061  11.381   7.511   1.609 -0.4484  0.4542  0.3864
  238MOL0     C32062  11.256   7.520   1.644 -0.2640  0.4450  0.4904
  238MOL0     H32063  10.846   7.594   1.940  2.4379 -1.0334  0.3920
  238MOL0     H32064  10.644   7.581   2.050  1.2814  1.1902  2.5407
  238MOL0     H32065  10.395   7.353   1.936 -0.3295  2.2285  0.7385
  238MOL0     H32066  10.395   7.216   2.047 -0.2687  0.1441  0.3925
  238MOL0     H32067  10.253   7.351   2.209 -0.4427  2.9016  0.1288
  238MOL0     H32068  10.235   7.466   2.092  2.7142  0.9281  3.2005
  238MOL0     H32069  10.100   7.323   1.951 -2.8075 -4.9279 -0.7166
  238MOL0     H32070  10.164   7.177   2.022  1.4549 -0.6704  2.3305
  238MOL0     H32071  10.035   7.214   2.223 -0.4645 -0.3295 -0.5868
  238MOL0     H32072  10.007   7.386   2.155 -0.3337  0.5613 -2.2424
  238MOL0     H32073   9.853   7.301   2.001 -2.6751 -2.6295 -2.1263
  238MOL0     H32074   9.908   7.138   2.030 -1.7135 -0.2074  0.4256
  238MOL0     H32075   9.813   7.141   2.254  1.9475 -0.1416  0.3101
  238MOL0     H32076   9.753   7.311   2.229 -2.4958 -0.2266  0.1751
  238MOL0     H32077   9.635   7.221   2.019 -1.8490  1.8664  0.4734
  238MOL0     H32078   9.664   7.058   2.085 -0.2921  0.7837  1.8704
  238MOL0     H32079   9.488   7.271   2.217  2.4760  0.6874  0.7283
  238MOL0     H32080   9.554   7.129   2.311 -1.0628 -2.5736 -0.0885
  238MOL0     H32081   9.246   7.196   2.232  1.7555 -1.5548  1.6188
  238MOL0     H32082   9.035   6.921   2.035 -2.4371  0.2320 -0.9374
  238MOL0     H32083   9.001   7.032   2.164 -1.4201  0.7919 -1.5838
  238MOL0     H32084   9.085   7.145   1.902  3.6589 -2.5743  3.7343
  238MOL0     H32085   8.983   7.228   2.012 -0.1356  0.7539 -0.9447
  238MOL0     H32086   8.893   6.977   1.856  0.6856  0.7107 -0.1952
  238MOL0     H32087   8.850   7.133   1.808  1.6427 -0.4108 -0.5853
  238MOL0     H32088   8.727   7.167   2.029 -2.0956 -1.1701  0.7222
  238MOL0     H32089   8.770   7.007   2.067  1.8773  1.7158  0.3021
  238MOL0     H32090   8.530   7.137   2.110  1.2793 -3.0280  0.3725
  238MOL0     H32091   8.236   7.319   2.140  1.4161 -0.7711 -3.4612
  238MOL0     H32092   8.201   7.154   2.210  2.3490 -1.3297  1.0942
  238MOL0     H32093   8.353   7.223   2.242  0.4909  1.5411  0.3563
  238MOL0     H32094   7.887   7.354   2.180 -0.9671 -1.2562  0.3558
  238MOL0     H32095   7.661   7.408   2.154  1.5375 -3.2515  3.3519
  238MOL0     H32096   7.573   7.597   1.937 -3.6875  0.7459  3.4446
  238MOL0     H32097   7.611   7.520   1.786 -0.5517  2.6781  0.5591
  238MOL0     H32098   7.434   7.633   1.713 -0.7015 -1.7466 -2.2119
  238MOL0     H32099   7.363   7.483   1.747  0.8887 -0.6591  0.0676
  238MOL0     H32100   7.231   7.678   1.841  0.6882  0.6660  0.0410
  238MOL0     H32101   7.367   7.709   1.954  2.0408  0.0533 -1.3823
  238MOL0     H32102   7.221   7.444   1.941 -2.5762 -0.1231  2.7344
  238MOL0     H32103   7.333   7.492   2.061 -0.4014  1.4068  2.4763
  238MOL0     H32104   7.176   7.681   2.113  2.7001 -0.5052 -1.8506
  238MOL0     H32105   7.134   7.518   2.167 -0.4441  1.4337  0.3695
  238MOL0     H32106   6.941   7.629   2.082  0.1193 -1.5388  0.1424
  238MOL0     H32107   7.026   7.640   1.925  3.1366  0.9000  0.9263
  238MOL0     H32108   6.895   7.410   2.084  0.2450 -0.7371 -0.9766
  238MOL0     H32109   7.032   7.372   1.969  1.2819  0.7437 -2.0574
  238MOL0     H32110   6.814   7.353   1.848 -0.8832  0.2202 -3.3681
  238MOL0     H32111   6.907   7.488   1.781 -1.3058 -1.6690 -1.0834
  238MOL0     H32112   7.663   7.273   1.740 -2.5212  1.0002  0.5734
  238MOL0     H32113   7.916   7.239   1.762  1.4888  1.4782 -0.0495
  238MOL0     H32114   8.215   7.033   1.743  0.1547  0.7818 -0.4361
  238MOL0     H32115   8.460   6.976   1.721  1.3283 -1.4682  1.6368
  238MOL0     H32116  10.621   7.153   2.032  0.7798  1.2073  2.5298
  238MOL0     H32117  10.852   7.159   1.905  0.4635  0.4219  0.5557
  238MOL0     H32118  11.234   7.278   1.878 -0.1540 -0.7809 -0.9698
  238MOL0     H32119  11.484   7.269   1.834  0.4016  0.7421  0.5391
  238MOL0     H32120  11.550   7.374   1.416  1.6210  1.1530 -2.2440
  238MOL0     H32121  11.609   7.524   1.459 -1.1894  0.2974 -0.5811
  238MOL0     H32122  11.834   7.421   1.508  1.9507 -0.2271 -1.3144
  238MOL0     H32123  11.787   7.428   1.336 -1.0806 -0.8362 -1.3483
  238MOL0     H32124  11.775   7.194   1.543  0.1662  2.5388  2.0893
  238MOL0     H32125  11.891   7.210   1.410  0.6059  3.1383  1.5296
  238MOL0     H32126  11.592   7.171   1.349  0.3908  0.9399  1.3308
  238MOL0     H32127  11.713   7.040   1.369  1.5074  0.1780  1.3441
  238MOL0     H32128  11.798   7.182   0.984 -1.0851  1.3523  0.3732
  238MOL0     H32129  11.422   7.568   1.526  2.0739 -3.7879 -1.5899
  238MOL0     H32130  11.197   7.583   1.578  1.8736  3.5469  1.3200
  239MOL0     O32131  11.039   4.294   2.291 -0.1698  0.2483 -1.1459
  239MOL0     C32132  11.003   4.381   2.368 -0.6455 -0.1382 -0.8371
  239MOL0     O32133  10.885   4.436   2.383  0.5636 -0.2759 -0.0205
  239MOL0     C32134  10.776   4.411   2.305  0.4648  0.8184 -0.1301
  239MOL0     C32135  10.775   4.330   2.192 -0.0437 -0.0126  0.6242
  239MOL0     C32136  10.659   4.296   2.123  0.4111 -0.2911 -0.1714
  239MOL0     C32137  10.539   4.356   2.163  0.0105  0.4421  0.3310
  239MOL0     O32138  10.421   4.342   2.090 -0.2204 -0.7415  0.5382
  239MOL0     C32139  10.397   4.225   2.008 -1.0983  0.4096  0.6257
  239MOL0     C32140  10.256   4.200   1.939 -0.2657  0.2807  0.1998
  239MOL0     C32141  10.139   4.196   2.034  0.7324  0.1900  0.9547
  239MOL0     C32142  10.003   4.176   1.967  0.6431  0.5504  0.2534
  239MOL0     C32143   9.921   4.307   1.954 -1.2907 -0.1903  0.1539
  239MOL0     C32144   9.811   4.280   1.856 -0.3558  0.8509  0.5973
  239MOL0     C32145   9.693   4.379   1.874  0.8569  0.0251  1.0783
  239MOL0     C32146   9.589   4.357   1.761  0.3091  0.0745  0.0333
  239MOL0     N32147   9.453   4.412   1.798 -0.3665 -0.5243  0.6707
  239MOL0     C32148   9.382   4.372   1.903  0.1945 -0.6909 -0.7132
  239MOL0     C32149   9.295   4.476   1.924  0.1573 -0.0292 -0.8876
  239MOL0     C32150   9.182   4.471   2.029 -0.5956 -0.2088 -0.0789
  239MOL0     C32151   9.063   4.385   1.985 -0.5266 -0.2590  0.4392
  239MOL0     C32152   9.003   4.420   1.844  0.5995 -0.0618  0.0651
  239MOL0     C32153   8.965   4.569   1.833 -0.6130  0.8154 -0.7593
  239MOL0     O32154   8.883   4.633   1.934  0.0892  0.3373 -0.4844
  239MOL0     C32155   8.749   4.608   1.931 -0.3526 -0.0187  0.0019
  239MOL0     C32156   8.682   4.610   2.054 -0.4155  0.3231 -0.1668
  239MOL0     C32157   8.551   4.593   2.072  0.2599  0.0871 -0.8057
  239MOL0     C32158   8.503   4.602   2.212 -0.5250  0.3481  0.2754
  239MOL0     C32159   8.476   4.571   1.956 -0.2849  0.5835 -0.0080
  239MOL0     C32160   8.334   4.540   1.960 -0.1363  0.9832 -0.5074
  239MOL0     O32161   8.293   4.430   2.031  0.3671 -0.5061  0.0418
  239MOL0     C32162   8.163   4.385   2.009 -1.1349 -0.6190  0.0255
  239MOL0     C32163   8.063   4.455   2.086  0.3208  0.2663  0.8384
  239MOL0     C32164   7.932   4.419   2.065 -0.0265 -0.5177  0.6311
  239MOL0     C32165   7.888   4.345   1.958 -1.2831 -0.6295  0.6835
  239MOL0     O32166   7.755   4.324   1.939 -0.5879  0.0832  0.7465
  239MOL0     C32167   7.694   4.334   1.807 -0.0355  0.2476  0.1687
  239MOL0     C32168   7.550   4.373   1.823  0.1452  0.6049  0.4410
  239MOL0     C32169   7.497   4.438   1.695 -0.0759 -0.6813  1.0247
  239MOL0     C32170   7.364   4.509   1.706  0.5643  0.9159 -0.3354
  239MOL0     C32171   7.298   4.538   1.566  0.4287 -0.5866  0.7191
  239MOL0     C32172   7.146   4.557   1.585 -0.0247 -0.4672 -0.5658
  239MOL0     C32173   7.085   4.647   1.472 -0.0812 -0.5453  0.5206
  239MOL0     C32174   6.936   4.645   1.455 -0.3157  0.3405  0.6032
  239MOL0    Cl32175   6.855   4.763   1.352  0.1816  0.0334  0.0422
  239MOL0     C32176   7.984   4.274   1.883 -0.1408  0.4952 -0.3733
  239MOL0     C32177   8.117   4.298   1.913 -0.5705 -0.9039 -0.1158
  239MOL0     O32178   8.263   4.606   1.880 -0.7440  0.1258  0.2039
  239MOL0     C32179   8.531   4.565   1.830  0.9790 -0.2314  0.0783
  239MOL0     C32180   8.669   4.584   1.815  1.1041  0.0180  0.4250
  239MOL0     N32181   9.318   4.572   1.826 -0.1057  0.2250  0.5644
  239MOL0     N32182   9.414   4.534   1.753 -0.4314  0.4808 -0.4749
  239MOL0     C32183  10.537   4.453   2.267 -0.9341 -0.0141  0.4453
  239MOL0     C32184  10.660   4.482   2.332 -0.0193 -0.5454 -0.1155
  239MOL0     C32185  11.111   4.437   2.457 -0.5811  0.5666  0.1918
  239MOL0     C32186  11.081   4.493   2.581  0.6665 -0.7340  0.0245
  239MOL0     C32187  11.184   4.537   2.668  0.6022 -0.6835 -0.3539
  239MOL0     C32188  11.325   4.524   2.636  0.3476  0.1673  0.5130
  239MOL0     O32189  11.411   4.574   2.730  0.2667 -0.2710 -0.1651
  239MOL0     C32190  11.557   4.552   2.707 -0.1792  0.1346  0.4746
  239MOL0     C32191  11.598   4.407   2.751 -0.0829 -1.1751  0.6960
  239MOL0     C32192  11.750   4.379   2.737 -0.9772  0.4902  0.5370
  239MOL0     C32193  11.841   4.457   2.836  0.2179 -0.0004 -0.1066
  239MOL0     C32194  11.966   4.391   2.838  0.2878 -0.4186 -0.2515
  239MOL0     C32195  12.078   4.360   2.814  0.2822  0.3716 -0.3276
  239MOL0     C32196  11.354   4.458   2.515 -0.2428 -0.1570  0.7422
  239MOL0     C32197  11.250   4.417   2.431  0.7588  0.8320 -0.3141
  239MOL0     H32198  10.859   4.282   2.144 -0.0768  2.2251 -1.9190
  239MOL0     H32199  10.669   4.245   2.028  0.6364  2.0055 -1.4502
  239MOL0     H32200  10.474   4.235   1.930  0.4269 -2.3151  1.6311
  239MOL0     H32201  10.431   4.138   2.065  3.8082  2.0824  0.7465
  239MOL0     H32202  10.233   4.288   1.878 -1.2274 -1.8262 -2.6692
  239MOL0     H32203  10.254   4.109   1.879 -0.0994 -1.8653  3.1891
  239MOL0     H32204  10.153   4.127   2.117 -1.8058  2.7387  3.7803
  239MOL0     H32205  10.131   4.290   2.090 -0.7773  0.4246  0.3937
  239MOL0     H32206  10.004   4.119   1.874  0.3030 -0.9586  1.1413
  239MOL0     H32207   9.939   4.107   2.023 -3.0299  1.8677 -1.9832
  239MOL0     H32208   9.874   4.329   2.050 -1.7368  0.9657 -0.3108
  239MOL0     H32209   9.982   4.392   1.922  0.1799 -0.8979  0.9933
  239MOL0     H32210   9.846   4.262   1.754 -0.6743 -2.4874  0.9700
  239MOL0     H32211   9.760   4.186   1.880 -2.2731  1.7944  0.3618
  239MOL0     H32212   9.644   4.359   1.970 -0.0369  1.9571  1.0855
  239MOL0     H32213   9.721   4.485   1.880  0.0272  0.5334 -2.0168
  239MOL0     H32214   9.574   4.250   1.744  0.1430 -0.0104  0.6901
  239MOL0     H32215   9.635   4.413   1.679  3.4139 -2.7069 -0.3508
  239MOL0     H32216   9.383   4.281   1.962 -0.1443  1.0339  2.1852
  239MOL0     H32217   9.221   4.429   2.122 -0.5981 -1.2226 -0.5144
  239MOL0     H32218   9.153   4.573   2.053  3.2645  1.1240 -0.2739
  239MOL0     H32219   8.982   4.404   2.056 -0.9195  1.5556 -0.4096
  239MOL0     H32220   9.079   4.277   1.988 -1.1677 -0.3433  1.1210
  239MOL0     H32221   8.920   4.353   1.817  0.5805  0.5287 -1.4666
  239MOL0     H32222   9.080   4.407   1.768  0.4128  0.7786 -0.2731
  239MOL0     H32223   8.909   4.587   1.741 -1.1771  0.4936 -0.4822
  239MOL0     H32224   9.056   4.624   1.808  0.6738 -0.9277 -0.1166
  239MOL0     H32225   8.734   4.627   2.148 -1.0349 -0.3557  0.3058
  239MOL0     H32226   8.529   4.704   2.241 -0.2767  1.5007 -3.4058
  239MOL0     H32227   8.398   4.573   2.219  0.2391 -2.3303  2.1020
  239MOL0     H32228   8.552   4.525   2.272  1.9457  1.4827 -0.1717
  239MOL0     H32229   8.086   4.536   2.155 -2.3039  0.6921  1.3266
  239MOL0     H32230   7.852   4.456   2.128 -0.5482 -0.5549 -0.0148
  239MOL0     H32231   7.741   4.416   1.752  1.9049  1.2308  3.0391
  239MOL0     H32232   7.703   4.238   1.755  1.6037  0.3461  0.2238
  239MOL0     H32233   7.490   4.285   1.851  0.2597  0.8133  1.3468
  239MOL0     H32234   7.542   4.432   1.914  0.0594 -1.2665  1.7022
  239MOL0     H32235   7.489   4.356   1.622 -1.9126 -3.1547  3.7844
  239MOL0     H32236   7.579   4.503   1.661  1.1759 -2.1569  1.1008
  239MOL0     H32237   7.299   4.446   1.767  2.3357 -0.9404 -0.2797
  239MOL0     H32238   7.383   4.605   1.756  0.6669  0.5907  0.2530
  239MOL0     H32239   7.319   4.459   1.493  1.7526  1.3410 -1.1008
  239MOL0     H32240   7.339   4.634   1.533 -0.1522  0.1165  1.9594
  239MOL0     H32241   7.083   4.470   1.604 -2.3749  1.4010  0.7196
  239MOL0     H32242   7.137   4.623   1.672 -2.8561 -1.0042 -0.3400
  239MOL0     H32243   7.140   4.626   1.380  0.7355 -0.7940  1.0516
  239MOL0     H32244   7.091   4.752   1.502 -1.1938  0.1518 -1.5147
  239MOL0     H32245   6.896   4.661   1.556 -0.0287  1.6620  0.5279
  239MOL0     H32246   6.906   4.543   1.428 -0.4983  0.3386  0.8109
  239MOL0     H32247   7.954   4.211   1.800 -1.8722  3.4289 -2.1525
  239MOL0     H32248   8.194   4.257   1.849  2.3523  2.5397  0.8490
  239MOL0     H32249   8.472   4.552   1.740 -0.8560 -0.3741  1.2364
  239MOL0     H32250   8.703   4.599   1.713 -1.0906 -1.0953 -0.5525
  239MOL0     H32251  10.445   4.500   2.299  0.4762  1.3313  2.7954
  239MOL0     H32252  10.668   4.557   2.410 -2.7713 -1.1180  0.8250
  239MOL0     H32253  10.985   4.507   2.629  0.5774  0.2923 -0.4360
  239MOL0     H32254  11.143   4.572   2.762  1.3238 -0.8783  0.0355
  239MOL0     H32255  11.591   4.570   2.604  1.6829  0.8350  1.1540
  239MOL0     H32256  11.613   4.633   2.756  0.5197 -0.3677  0.5301
  239MOL0     H32257  11.552   4.332   2.686 -1.0729 -0.4854  0.5689
  239MOL0     H32258  11.574   4.383   2.855 -0.1824 -0.1139  0.9378
  239MOL0     H32259  11.771   4.398   2.631 -1.1017 -0.2779  0.3716
  239MOL0     H32260  11.760   4.271   2.752 -2.9365  0.1214 -0.5004
  239MOL0     H32261  11.804   4.452   2.939  1.3262 -3.1451  0.2409
  239MOL0     H32262  11.850   4.558   2.794 -2.9770  0.4471  0.0534
  239MOL0     H32263  12.181   4.331   2.809  0.3625 -0.1422  2.5983
  239MOL0     H32264  11.454   4.429   2.484  0.0227  0.4295  1.0219
  239MOL0     H32265  11.276   4.368   2.338 -0.6250  0.8564 -0.7459
  240MOL0     O32266   3.963   5.133   0.061  0.0565 -0.1185  0.1401
  240MOL0     C32267   4.003   5.036   0.124  1.0038 -0.2744  0.5488
  240MOL0     O32268   3.923   4.949   0.196  0.0719  0.0117 -0.3193
  240MOL0     C32269   3.795   4.916   0.158  0.0523 -0.0114 -0.2123
  240MOL0     C32270   3.759   4.926   0.025 -0.3587  0.1796  0.3110
  240MOL0     C32271   3.634   4.904  -0.015  1.0816  0.1914 -0.2044
  240MOL0     C32272   3.537   4.850   0.069 -0.4422  0.2484  0.0554
  240MOL0     O32273   3.419   4.819   0.015 -0.0508  0.0886  0.1700
  240MOL0     C32274   3.327   4.753   0.099 -0.3036  0.3415 -0.6089
  240MOL0     C32275   3.215   4.696   0.008  0.4818 -0.5313  1.2172
  240MOL0     C32276   3.138   4.809  -0.063  0.1890 -0.2988 -0.3706
  240MOL0     C32277   2.998   4.758  -0.111 -0.2556  0.4965 -0.3323
  240MOL0     C32278   2.946   4.871  -0.192  0.3807  0.1761  0.5945
  240MOL0     C32279   2.799   4.847  -0.244 -0.2067 -0.6177  0.1324
  240MOL0     C32280   2.793   4.730  -0.348 -0.0036  0.1651 -0.1485
  240MOL0     C32281   2.651   4.730  -0.415 -0.9524 -0.5020 -0.2839
  240MOL0     N32282   2.547   4.729  -0.310 -0.2946  0.8847  0.2100
  240MOL0     C32283   2.448   4.817  -0.279 -0.3361  0.5313  0.6290
  240MOL0     C32284   2.369   4.759  -0.184 -0.7809 -0.0866 -0.0803
  240MOL0     C32285   2.239   4.812  -0.135  0.1976  0.3190 -0.0161
  240MOL0     C32286   2.124   4.768  -0.228  0.7050 -0.0127 -0.5374
  240MOL0     C32287   2.121   4.837  -0.369  0.5531 -0.4930 -0.3259
  240MOL0     C32288   2.013   4.775  -0.452 -0.6264 -0.0538  0.5230
  240MOL0     O32289   1.892   4.794  -0.387 -0.2080 -0.3811  0.2461
  240MOL0     C32290   1.777   4.739  -0.436 -0.6509  0.5738  0.6748
  240MOL0     C32291   1.763   4.668  -0.554 -0.2611  0.0374 -0.7076
  240MOL0     C32292   1.650   4.605  -0.598 -0.5112 -0.5142 -0.2248
  240MOL0     C32293   1.668   4.506  -0.710 -0.3909 -0.6606 -0.3350
  240MOL0     C32294   1.532   4.628  -0.527  0.0901  0.7145 -0.2030
  240MOL0     C32295   1.399   4.566  -0.563 -0.0990  0.2315  0.5647
  240MOL0     O32296   1.329   4.531  -0.456  0.4629  0.1087  0.5639
  240MOL0     C32297   1.203   4.477  -0.476 -0.5212  0.8213 -0.0413
  240MOL0     C32298   1.190   4.336  -0.443 -0.9880 -0.2237  0.0677
  240MOL0     C32299   1.070   4.272  -0.465 -0.2755 -0.0863 -0.4383
  240MOL0     C32300   0.958   4.340  -0.509  0.1859 -0.0914  0.2783
  240MOL0     O32301   0.838   4.286  -0.544  0.5316 -0.1496 -0.4739
  240MOL0     C32302   0.767   4.205  -0.457  0.8185  0.1494  0.5273
  240MOL0     C32303   0.621   4.207  -0.490  0.5108  0.2981 -0.5839
  240MOL0     C32304   0.551   4.346  -0.489  0.0692  0.8974 -1.0882
  240MOL0     C32305   0.402   4.317  -0.490 -0.8694 -1.3356 -0.8357
  240MOL0     C32306   0.310   4.441  -0.464 -0.0161  0.6916 -0.5014
  240MOL0     C32307   0.163   4.412  -0.495  1.0804  0.3688  0.8149
  240MOL0     C32308   0.064   4.524  -0.483 -1.1901  0.1544 -0.2906
  240MOL0     C32309  -0.081   4.494  -0.534 -0.0940  0.0189  0.3744
  240MOL0    Cl32310  -0.173   4.403  -0.410 -0.1650  0.5814  0.4640
  240MOL0     C32311   0.971   4.476  -0.545  0.1803 -0.0768  0.0527
  240MOL0     C32312   1.095   4.536  -0.536  0.0384  0.0000 -0.8537
  240MOL0     O32313   1.362   4.567  -0.679  0.1257 -0.3419  0.6731
  240MOL0     C32314   1.540   4.711  -0.412  0.1768  0.5371  1.2200
  240MOL0     C32315   1.662   4.770  -0.371 -0.0926  0.1753 -0.1787
  240MOL0     N32316   2.429   4.642  -0.147  0.0100  0.3696  0.6096
  240MOL0     N32317   2.530   4.624  -0.219  0.0807  0.3129  0.2785
  240MOL0     C32318   3.567   4.826   0.202 -0.4026 -0.2891  0.5187
  240MOL0     C32319   3.699   4.864   0.244  0.1183  0.0630 -0.2776
  240MOL0     C32320   4.149   5.032   0.136 -0.0171  0.4047 -0.0720
  240MOL0     C32321   4.219   5.009   0.257  1.1930  0.0386  0.5293
  240MOL0     C32322   4.358   5.025   0.265 -0.3729  0.3396  0.2585
  240MOL0     C32323   4.435   5.061   0.149 -0.4704 -0.5162  0.1264
  240MOL0     O32324   4.569   5.083   0.139  0.0667  0.6711  0.1323
  240MOL0     C32325   4.656   5.030   0.238 -0.0382  0.2656  0.0775
  240MOL0     C32326   4.788   5.105   0.233  1.1584 -0.6898 -0.7421
  240MOL0     C32327   4.908   5.038   0.295 -0.4502  0.5803 -0.9055
  240MOL0     C32328   5.047   5.111   0.276 -0.2979  0.8835 -0.4920
  240MOL0     C32329   5.148   5.013   0.321  0.5723  0.2743  0.4261
  240MOL0     C32330   5.221   4.922   0.355  0.2441 -0.2733 -0.2716
  240MOL0     C32331   4.357   5.082   0.038 -0.2754 -0.0771  0.0210
  240MOL0     C32332   4.219   5.062   0.024 -0.2795 -0.7081 -0.5601
  240MOL0     H32333   3.825   4.957  -0.054 -2.5755  0.1022 -1.6718
  240MOL0     H32334   3.602   4.914  -0.119 -3.8392 -0.6313  0.9673
  240MOL0     H32335   3.376   4.671   0.151  1.3433  3.3070  2.9329
  240MOL0     H32336   3.278   4.818   0.172  0.1901 -1.9821  1.9213
  240MOL0     H32337   3.249   4.628  -0.070 -0.0329 -0.4039  0.8742
  240MOL0     H32338   3.144   4.639   0.068  1.7219 -1.8144  1.5006
  240MOL0     H32339   3.138   4.899  -0.000  1.8995 -0.9573  0.6486
  240MOL0     H32340   3.200   4.835  -0.149  1.4323 -1.1671  0.2281
  240MOL0     H32341   2.999   4.667  -0.170  0.2063  0.9817 -1.0900
  240MOL0     H32342   2.931   4.759  -0.024 -0.7054  0.9973 -0.6719
  240MOL0     H32343   2.946   4.961  -0.130 -0.5641  1.0805 -0.6615
  240MOL0     H32344   3.006   4.880  -0.283 -0.4106  1.0969  0.1426
  240MOL0     H32345   2.731   4.840  -0.159  0.4503  0.8483  0.8139
  240MOL0     H32346   2.780   4.936  -0.305  1.1832 -0.7695 -0.5610
  240MOL0     H32347   2.875   4.739  -0.419  1.7819  1.2330  1.9064
  240MOL0     H32348   2.810   4.630  -0.305 -2.2763 -0.2171 -0.0070
  240MOL0     H32349   2.642   4.642  -0.479 -0.4779  0.1591 -1.2900
  240MOL0     H32350   2.638   4.823  -0.472  0.5306 -0.6792 -0.9555
  240MOL0     H32351   2.438   4.909  -0.335  0.4922  0.4728  0.3687
  240MOL0     H32352   2.203   4.767  -0.042  0.2346 -1.1499 -0.6808
  240MOL0     H32353   2.245   4.921  -0.139  0.2352  0.2928 -3.3360
  240MOL0     H32354   2.028   4.793  -0.183  1.2934  0.9705  0.2241
  240MOL0     H32355   2.126   4.659  -0.236  3.0069 -0.0220 -0.6347
  240MOL0     H32356   2.213   4.819  -0.426 -0.4791 -2.6288 -1.4430
  240MOL0     H32357   2.106   4.945  -0.376  0.8010 -0.5232 -1.8787
  240MOL0     H32358   2.026   4.669  -0.474 -2.0633 -0.4486  1.4748
  240MOL0     H32359   2.015   4.827  -0.549 -0.0879 -0.0791  0.5166
  240MOL0     H32360   1.855   4.667  -0.611  0.3153  1.4670  0.1436
  240MOL0     H32361   1.664   4.551  -0.810  2.2531 -1.6727 -1.0028
  240MOL0     H32362   1.772   4.476  -0.696  0.9753  3.1199 -1.2220
  240MOL0     H32363   1.600   4.420  -0.713 -3.0340  1.3081 -2.7785
  240MOL0     H32364   1.271   4.290  -0.387 -1.6927  0.2179  1.5112
  240MOL0     H32365   1.064   4.167  -0.441  2.3285 -0.2608 -0.2388
  240MOL0     H32366   0.804   4.102  -0.454  0.6475  0.0611 -0.3299
  240MOL0     H32367   0.774   4.257  -0.361 -0.1075  1.0431  0.1248
  240MOL0     H32368   0.610   4.167  -0.591  2.5088 -1.6538 -0.1093
  240MOL0     H32369   0.561   4.136  -0.432  0.8594 -0.1135 -0.7229
  240MOL0     H32370   0.586   4.410  -0.571 -2.1204  2.4642 -0.8870
  240MOL0     H32371   0.570   4.394  -0.393 -0.3572 -0.0700 -0.5012
  240MOL0     H32372   0.379   4.268  -0.585  0.9828 -2.2473 -0.8672
  240MOL0     H32373   0.382   4.256  -0.402 -0.2593  0.0594  0.3123
  240MOL0     H32374   0.351   4.521  -0.525  1.3356  1.3456  1.1778
  240MOL0     H32375   0.325   4.477  -0.362  0.9182  2.4387 -1.2281
  240MOL0     H32376   0.151   4.373  -0.597 -1.0148  0.1986  1.0688
  240MOL0     H32377   0.135   4.329  -0.429 -0.1057 -0.5638 -0.7726
  240MOL0     H32378   0.109   4.605  -0.542 -0.9307 -0.1259 -0.4776
  240MOL0     H32379   0.063   4.552  -0.377 -2.3639 -0.0961 -0.2176
  240MOL0     H32380  -0.074   4.438  -0.628  0.7195 -0.5186  0.7429
  240MOL0     H32381  -0.136   4.586  -0.556 -1.9652 -1.4856 -1.7210
  240MOL0     H32382   0.877   4.522  -0.577  0.3236  1.2030  1.3963
  240MOL0     H32383   1.116   4.632  -0.583  4.0592 -0.7315 -0.9461
  240MOL0     H32384   1.452   4.695  -0.349  1.0580 -1.9523  1.9474
  240MOL0     H32385   1.675   4.832  -0.283  2.3679  1.3829 -1.2799
  240MOL0     H32386   3.495   4.786   0.272 -0.8900 -0.2390  0.0479
  240MOL0     H32387   3.714   4.852   0.351 -0.4294 -0.3640 -0.2489
  240MOL0     H32388   4.167   5.005   0.353 -0.8486 -1.4536 -0.5537
  240MOL0     H32389   4.417   5.008   0.354  0.9214  3.0493  0.0245
  240MOL0     H32390   4.611   5.050   0.335 -1.1922 -0.0547 -0.3745
  240MOL0     H32391   4.667   4.925   0.208  0.8089  0.5707 -0.7492
  240MOL0     H32392   4.764   5.196   0.288  0.8972 -0.8245 -0.6328
  240MOL0     H32393   4.814   5.116   0.127 -0.2457 -0.6233 -1.1002
  240MOL0     H32394   4.905   4.941   0.244 -2.0747  1.7220 -3.1533
  240MOL0     H32395   4.890   5.036   0.403  1.8478  1.5885 -0.4472
  240MOL0     H32396   5.041   5.203   0.335 -0.3654  0.7110 -0.2232
  240MOL0     H32397   5.070   5.136   0.172 -1.2319 -3.2255 -1.8857
  240MOL0     H32398   5.282   4.840   0.390  2.8181  0.7816 -2.0154
  240MOL0     H32399   4.406   5.099  -0.057 -3.3076 -0.2462 -1.6919
  240MOL0     H32400   4.176   5.071  -0.075  0.2253 -0.4973 -0.7654
  241MOL0     O32401   5.873  11.056   4.658 -0.2926 -0.1059 -0.3844
  241MOL0     C32402   5.946  11.138   4.604 -1.0568 -0.0430  0.0858
  241MOL0     O32403   5.907  11.239   4.535 -0.6426  0.2560  0.7199
  241MOL0     C32404   5.770  11.272   4.526 -0.8509  1.1148  0.7746
  241MOL0     C32405   5.681  11.258   4.623  0.5948 -0.2463 -0.3000
  241MOL0     C32406   5.547  11.296   4.603  0.2071  0.8039 -0.2931
  241MOL0     C32407   5.499  11.353   4.483  0.4593  0.8476 -0.2358
  241MOL0     O32408   5.375  11.412   4.459 -0.2517 -0.0788 -0.2017
  241MOL0     C32409   5.276  11.407   4.562  0.6499  0.0202  0.2377
  241MOL0     C32410   5.154  11.489   4.524  0.0565 -0.0806 -0.2778
  241MOL0     C32411   5.044  11.490   4.642 -0.4202  0.4507  0.3364
  241MOL0     C32412   4.914  11.537   4.579  0.3917 -0.2619 -0.2846
  241MOL0     C32413   4.810  11.536   4.689 -0.3918  0.4404  0.2883
  241MOL0     C32414   4.734  11.404   4.717 -0.7824 -0.4402  0.2106
  241MOL0     C32415   4.632  11.409   4.829 -0.1786 -0.1432  0.1162
  241MOL0     C32416   4.503  11.484   4.790 -1.2422 -0.5455 -0.3670
  241MOL0     N32417   4.387  11.419   4.854 -0.3225  0.3028 -0.7152
  241MOL0     C32418   4.357  11.285   4.841  0.5794  0.5553  0.7243
  241MOL0     C32419   4.277  11.247   4.944  0.7600 -0.0688 -0.3381
  241MOL0     C32420   4.235  11.105   4.967 -0.1407  0.0395  0.1686
  241MOL0     C32421   4.113  11.067   4.887 -0.0333 -0.3367 -0.4805
  241MOL0     C32422   3.975  11.085   4.953 -0.2895  0.2386  1.5001
  241MOL0     C32423   3.860  10.994   4.873 -0.2532  0.3460  0.3830
  241MOL0     O32424   3.842  11.051   4.741  0.2183 -0.7101 -0.5480
  241MOL0     C32425   3.721  11.019   4.687 -0.5341 -0.1699  0.5078
  241MOL0     C32426   3.660  10.894   4.675 -0.1484  0.9941  0.0586
  241MOL0     C32427   3.534  10.871   4.624 -0.8958 -0.0293 -0.3715
  241MOL0     C32428   3.485  10.729   4.646 -0.3661  0.3076 -0.5790
  241MOL0     C32429   3.451  10.978   4.579 -0.6482 -0.6408 -0.1387
  241MOL0     C32430   3.307  10.979   4.527  0.1590  0.1566 -0.9187
  241MOL0     O32431   3.269  11.088   4.467  0.3753  0.2075  0.7174
  241MOL0     C32432   3.152  11.111   4.402  0.0345 -0.3368 -0.0750
  241MOL0     C32433   3.159  11.219   4.308 -0.4107 -0.2599 -0.6069
  241MOL0     C32434   3.045  11.264   4.237 -0.4935  0.0199  0.3586
  241MOL0     C32435   2.923  11.204   4.253 -0.3451 -0.2293 -0.6479
  241MOL0     O32436   2.813  11.237   4.186 -0.1073 -0.1263 -0.0524
  241MOL0     C32437   2.811  11.359   4.104 -0.4060  0.7116  0.9911
  241MOL0     C32438   2.674  11.358   4.026 -0.2718 -0.3466  0.3162
  241MOL0     C32439   2.563  11.428   4.105 -0.0172  0.2268  0.3268
  241MOL0     C32440   2.439  11.439   4.017  0.1812 -0.3600  0.2353
  241MOL0     C32441   2.325  11.513   4.093 -0.0281  0.3458 -0.3532
  241MOL0     C32442   2.212  11.543   3.990 -0.0151  0.3521  0.5036
  241MOL0     C32443   2.131  11.668   4.023  0.2553 -0.3078 -0.3035
  241MOL0     C32444   2.032  11.691   3.904  0.0760 -0.3705 -0.5492
  241MOL0    Cl32445   1.881  11.607   3.963  0.2388  0.1906  0.4321
  241MOL0     C32446   2.915  11.102   4.343  0.7716  0.7285 -0.6641
  241MOL0     C32447   3.022  11.047   4.424 -0.4314  0.2863  0.1593
  241MOL0     O32448   3.241  10.876   4.531  0.0851 -0.4503  0.2041
  241MOL0     C32449   3.514  11.104   4.588  0.3028 -0.0612  0.3861
  241MOL0     C32450   3.642  11.118   4.641  0.2666  0.4195  0.2223
  241MOL0     N32451   4.262  11.362   5.021  0.0445  1.3737  0.3218
  241MOL0     N32452   4.337  11.450   4.976 -0.8757  0.2001 -0.2715
  241MOL0     C32453   5.596  11.370   4.386  0.5843 -0.6850  0.6839
  241MOL0     C32454   5.731  11.338   4.409  0.4341  0.2873 -0.4568
  241MOL0     C32455   6.090  11.137   4.634 -0.6296 -0.2797  0.2586
  241MOL0     C32456   6.183  11.198   4.545 -0.4081  0.0059 -0.1691
  241MOL0     C32457   6.320  11.200   4.574 -0.3462  0.8233  0.2476
  241MOL0     C32458   6.367  11.127   4.682 -0.1137  0.4933  0.2949
  241MOL0     O32459   6.497  11.121   4.717 -0.3245 -0.3694  0.5234
  241MOL0     C32460   6.576  11.037   4.632 -0.7894 -0.4702  0.4555
  241MOL0     C32461   6.687  10.973   4.714 -0.0154  0.2899 -0.1991
  241MOL0     C32462   6.635  10.874   4.826  0.1936  0.1517 -0.8576
  241MOL0     C32463   6.665  10.723   4.804  0.2804  0.6338  0.7461
  241MOL0     C32464   6.633  10.677   4.665 -0.4541  0.6485 -0.6752
  241MOL0     C32465   6.626  10.628   4.555  1.9842 -0.0044  1.0076
  241MOL0     C32466   6.280  11.051   4.760  0.2157  0.3957 -0.2134
  241MOL0     C32467   6.138  11.063   4.746 -1.0804  0.5222 -0.2839
  241MOL0     H32468   5.708  11.201   4.711  2.1432 -0.5074 -0.9213
  241MOL0     H32469   5.473  11.279   4.681 -0.5313 -0.0741 -1.1582
  241MOL0     H32470   5.243  11.305   4.583 -0.5095 -0.2907 -2.6255
  241MOL0     H32471   5.309  11.444   4.660 -1.2205  0.4998  0.7268
  241MOL0     H32472   5.177  11.595   4.510 -0.2573  0.4110  2.2774
  241MOL0     H32473   5.111  11.445   4.434 -0.6051  1.3005 -0.6631
  241MOL0     H32474   5.037  11.388   4.680  2.5597  0.7040  1.8113
  241MOL0     H32475   5.067  11.554   4.728 -0.4621  0.5550  0.2702
  241MOL0     H32476   4.929  11.639   4.543  2.0909 -0.6511 -0.7911
  241MOL0     H32477   4.881  11.471   4.498 -1.6570 -0.4917  0.6843
  241MOL0     H32478   4.864  11.550   4.782  0.7365 -3.0740  0.3122
  241MOL0     H32479   4.747  11.625   4.676  1.3945  1.5887 -0.9809
  241MOL0     H32480   4.683  11.365   4.628  0.0020 -2.3656  0.5546
  241MOL0     H32481   4.809  11.330   4.747  0.0087  0.6201  0.9263
  241MOL0     H32482   4.609  11.305   4.853 -1.4785 -0.1834 -1.1861
  241MOL0     H32483   4.667  11.454   4.922 -1.3113 -1.4954  1.2273
  241MOL0     H32484   4.489  11.474   4.682 -0.9178 -2.1837 -0.2963
  241MOL0     H32485   4.505  11.588   4.822 -0.3174 -0.1472 -1.6608
  241MOL0     H32486   4.379  11.227   4.751  0.6699  0.4626  0.8050
  241MOL0     H32487   4.311  11.029   4.945  1.5436  1.7429 -0.1522
  241MOL0     H32488   4.210  11.093   5.073 -0.1695 -1.6195  0.0085
  241MOL0     H32489   4.123  10.959   4.879 -2.1912 -0.5160 -1.8108
  241MOL0     H32490   4.107  11.098   4.782  1.4525 -1.8027 -1.0312
  241MOL0     H32491   3.954  11.192   4.950  1.8391  0.7086  1.5862
  241MOL0     H32492   3.974  11.050   5.057  0.2419 -1.4305  0.9818
  241MOL0     H32493   3.769  11.004   4.933 -0.0397  0.6744  0.6528
  241MOL0     H32494   3.891  10.891   4.855 -0.1186  0.4193  0.1948
  241MOL0     H32495   3.704  10.805   4.720 -0.5656  1.4568  1.4282
  241MOL0     H32496   3.391  10.741   4.700  1.0151  2.7445  1.5163
  241MOL0     H32497   3.456  10.689   4.549 -0.4108 -1.4113  0.1022
  241MOL0     H32498   3.553  10.657   4.692  1.9058  2.1123 -0.9195
  241MOL0     H32499   3.256  11.266   4.295  0.2283 -0.8406  1.6320
  241MOL0     H32500   3.080  11.347   4.177  4.3753 -1.8188  0.1284
  241MOL0     H32501   2.824  11.454   4.156  0.1336  0.5776  1.1030
  241MOL0     H32502   2.883  11.357   4.022 -1.8158  2.6622 -0.3982
  241MOL0     H32503   2.700  11.428   3.947 -2.0096  1.5974  1.3642
  241MOL0     H32504   2.651  11.257   3.992 -0.5211  0.3583 -1.7251
  241MOL0     H32505   2.601  11.527   4.131  2.5027  0.8778 -4.5607
  241MOL0     H32506   2.543  11.382   4.202 -0.7211 -1.7067 -0.6582
  241MOL0     H32507   2.469  11.489   3.925 -0.5992 -0.5477 -0.1228
  241MOL0     H32508   2.409  11.340   3.981  2.2115  0.3471 -3.9646
  241MOL0     H32509   2.358  11.612   4.125 -0.6332  0.3395  0.3019
  241MOL0     H32510   2.275  11.466   4.178 -2.0048 -2.0912 -2.7013
  241MOL0     H32511   2.246  11.544   3.887 -1.6403 -2.7567 -0.2047
  241MOL0     H32512   2.129  11.472   3.998 -1.6196  2.1368  0.3393
  241MOL0     H32513   2.187  11.755   4.058  1.2327 -1.4532  1.1200
  241MOL0     H32514   2.069  11.637   4.107 -0.8818 -0.5813 -1.2110
  241MOL0     H32515   2.070  11.669   3.804 -0.5727  0.2923 -0.9434
  241MOL0     H32516   2.012  11.799   3.903 -2.1681 -0.7311  0.0211
  241MOL0     H32517   2.819  11.055   4.360 -0.0085  2.4324 -0.2119
  241MOL0     H32518   2.992  10.961   4.483  2.0159  0.1911  1.3616
  241MOL0     H32519   3.462  11.193   4.554  1.6940  1.2025  1.4529
  241MOL0     H32520   3.682  11.217   4.658 -0.2298  0.4903  1.0617
  241MOL0     H32521   5.566  11.421   4.295  0.2041 -0.0172  1.1739
  241MOL0     H32522   5.791  11.359   4.320 -1.1764  2.9739 -1.0449
  241MOL0     H32523   6.144  11.241   4.453 -1.5667  0.9776  0.7369
  241MOL0     H32524   6.387  11.258   4.511 -1.2116  0.1821 -1.3158
  241MOL0     H32525   6.522  10.954   4.584  0.7189 -1.8712  1.0512
  241MOL0     H32526   6.614  11.112   4.563 -1.4111 -2.0718 -1.7373
  241MOL0     H32527   6.739  11.058   4.759  0.1774  0.5174 -0.8348
  241MOL0     H32528   6.764  10.928   4.652  0.6891 -1.4052  1.7960
  241MOL0     H32529   6.528  10.894   4.842  0.3147  0.1069  0.0527
  241MOL0     H32530   6.695  10.908   4.910  0.6309  0.2251 -1.1948
  241MOL0     H32531   6.590  10.675   4.868  1.0017 -0.7285  0.6061
  241MOL0     H32532   6.763  10.689   4.840  0.2120 -1.6781 -0.9729
  241MOL0     H32533   6.609  10.581   4.460 -0.0336  1.6090  0.4821
  241MOL0     H32534   6.326  10.986   4.834  2.3825  0.8690 -1.0628
  241MOL0     H32535   6.068  11.009   4.809  0.0729  0.5311  1.0489
  242MOL0     O32536  10.346   9.535   1.484  1.1829  1.1265 -0.1216
  242MOL0     C32537  10.407   9.564   1.381  0.9282 -0.4013  0.0917
  242MOL0     O32538  10.353   9.548   1.257 -0.1309  0.6064  0.0382
  242MOL0     C32539  10.227   9.490   1.241 -0.3172 -1.5264  0.2504
  242MOL0     C32540  10.217   9.353   1.270  0.1427  0.4291  0.3174
  242MOL0     C32541  10.087   9.290   1.269  0.0377 -0.3830 -0.8774
  242MOL0     C32542   9.974   9.362   1.234 -1.0629 -0.9541 -0.1249
  242MOL0     O32543   9.862   9.291   1.229  0.1064 -0.4267  0.2103
  242MOL0     C32544   9.750   9.358   1.175  0.7139 -0.4346  0.1200
  242MOL0     C32545   9.633   9.262   1.175 -0.3162 -0.4310  0.0694
  242MOL0     C32546   9.508   9.299   1.088 -0.2229  0.4133  0.8960
  242MOL0     C32547   9.527   9.236   0.953  0.5032 -0.1005  0.8509
  242MOL0     C32548   9.401   9.287   0.877  0.3798  0.0340 -0.5096
  242MOL0     C32549   9.407   9.252   0.733 -0.3434 -0.4078 -0.2596
  242MOL0     C32550   9.270   9.278   0.666  0.6175  0.7333  0.0808
  242MOL0     C32551   9.265   9.257   0.517  0.5899  0.1689 -0.3580
  242MOL0     N32552   9.142   9.309   0.460 -0.0366  0.1206  0.1514
  242MOL0     C32553   9.100   9.443   0.444  0.1710  0.5930 -0.4541
  242MOL0     C32554   8.992   9.437   0.365 -0.1021  0.3919  0.0236
  242MOL0     C32555   8.895   9.546   0.319 -1.3007 -0.0363  0.0018
  242MOL0     C32556   8.798   9.611   0.420  0.6235 -0.8138  0.6829
  242MOL0     C32557   8.699   9.698   0.345  0.2689  0.9467 -0.1743
  242MOL0     C32558   8.770   9.813   0.277 -0.4746  0.6931 -0.0075
  242MOL0     O32559   8.696   9.923   0.259 -1.0400 -0.7263 -0.0314
  242MOL0     C32560   8.572   9.903   0.200  0.7444  0.0533  0.5829
  242MOL0     C32561   8.565   9.882   0.061 -0.1118  0.3722  0.0187
  242MOL0     C32562   8.451   9.861  -0.015  0.2231 -0.6939  0.6405
  242MOL0     C32563   8.462   9.861  -0.172 -0.2316  0.0932 -0.5824
  242MOL0     C32564   8.331   9.844   0.057 -0.4056 -0.2122  0.0078
  242MOL0     C32565   8.198   9.842  -0.011  0.4628  0.6051  0.4308
  242MOL0     O32566   8.085   9.852   0.071  0.7207 -0.0070  0.5419
  242MOL0     C32567   7.971   9.781   0.048 -0.1471 -0.3552  0.2338
  242MOL0     C32568   7.945   9.647   0.083 -1.0650 -0.7803  0.4495
  242MOL0     C32569   7.835   9.583   0.037 -0.5097  0.0819 -0.0019
  242MOL0     C32570   7.739   9.647  -0.033 -0.4174 -0.8472  0.5971
  242MOL0     O32571   7.618   9.591  -0.078  0.2775 -0.4693 -0.1278
  242MOL0     C32572   7.622   9.450  -0.088  0.1162  0.5537 -0.6310
  242MOL0     C32573   7.505   9.393  -0.162 -0.1180  0.2416 -0.4127
  242MOL0     C32574   7.519   9.238  -0.168 -0.2185 -1.0441 -0.6374
  242MOL0     C32575   7.459   9.186  -0.294 -0.8340 -0.8388 -0.0009
  242MOL0     C32576   7.299   9.187  -0.304  1.0028  0.5960  0.2863
  242MOL0     C32577   7.213   9.143  -0.180  0.2016 -0.3935 -0.4703
  242MOL0     C32578   7.075   9.102  -0.226 -0.6993  0.6854 -0.2688
  242MOL0     C32579   6.970   9.101  -0.110 -0.0102  0.6084  0.1855
  242MOL0    Cl32580   6.941   9.268  -0.029 -0.0662  0.5825  0.1984
  242MOL0     C32581   7.761   9.786  -0.060  0.8249 -0.9543 -0.4246
  242MOL0     C32582   7.869   9.854  -0.011  0.3478  0.4474  0.7756
  242MOL0     O32583   8.191   9.837  -0.138 -0.8122 -0.7765 -0.0244
  242MOL0     C32584   8.339   9.845   0.200 -0.0560 -0.7676  1.3704
  242MOL0     C32585   8.455   9.883   0.274  0.6629 -0.1377 -0.0461
  242MOL0     N32586   8.960   9.301   0.343 -0.0299 -0.1420  0.2648
  242MOL0     N32587   9.051   9.227   0.400  0.7756  0.0994 -0.1938
  242MOL0     C32588   9.989   9.493   1.184 -0.3127 -0.1674  0.2980
  242MOL0     C32589  10.112   9.561   1.206  0.3050 -0.3142 -0.4296
  242MOL0     C32590  10.540   9.629   1.386  0.0798  0.4857 -0.8931
  242MOL0     C32591  10.619   9.621   1.502 -0.8398  0.5202 -0.3078
  242MOL0     C32592  10.738   9.697   1.513 -0.3974  0.0919  0.2235
  242MOL0     C32593  10.777   9.781   1.400  0.6022 -0.2336 -0.0549
  242MOL0     O32594  10.898   9.857   1.408  0.1440  0.6480 -0.6669
  242MOL0     C32595  10.953   9.907   1.531  0.3434 -1.0666  0.1175
  242MOL0     C32596  11.068   9.818   1.583  0.2157  0.0854  0.2484
  242MOL0     C32597  11.186   9.800   1.486  0.0201 -0.4009 -0.5381
  242MOL0     C32598  11.294   9.918   1.491 -0.3534 -0.1392 -0.4079
  242MOL0     C32599  11.372   9.938   1.366 -0.2094 -0.4808 -0.0377
  242MOL0     C32600  11.437   9.961   1.268 -0.6116  0.8928  0.1016
  242MOL0     C32601  10.696   9.792   1.293 -0.7091 -0.2111 -0.0304
  242MOL0     C32602  10.584   9.715   1.280  0.0577  0.0665  0.7657
  242MOL0     H32603  10.308   9.300   1.295  0.6668  1.9413  1.7940
  242MOL0     H32604  10.089   9.191   1.316 -1.1083 -0.2384 -0.4970
  242MOL0     H32605   9.722   9.445   1.237  1.8592 -1.1460  1.7116
  242MOL0     H32606   9.751   9.382   1.069 -1.9072  3.2154  0.7269
  242MOL0     H32607   9.664   9.161   1.144 -1.3985 -0.9449  0.5801
  242MOL0     H32608   9.594   9.260   1.278 -0.7378 -1.2397 -0.0950
  242MOL0     H32609   9.422   9.264   1.147 -2.3850  3.8200  0.0822
  242MOL0     H32610   9.500   9.407   1.076 -2.1418  0.3726  1.3379
  242MOL0     H32611   9.620   9.271   0.907 -1.2719  1.2134 -2.0114
  242MOL0     H32612   9.523   9.129   0.973  0.0025 -0.0574  0.9961
  242MOL0     H32613   9.315   9.241   0.926 -0.4134  3.8986  2.2287
  242MOL0     H32614   9.389   9.395   0.888  2.6512  0.1469  2.3511
  242MOL0     H32615   9.493   9.302   0.686 -1.1754  1.4109  0.0655
  242MOL0     H32616   9.432   9.146   0.724 -0.4517 -0.4461 -0.0985
  242MOL0     H32617   9.189   9.223   0.714 -0.3555  2.0494 -0.0053
  242MOL0     H32618   9.251   9.385   0.679 -1.3274  0.3380  0.7981
  242MOL0     H32619   9.282   9.150   0.499 -3.1491 -0.8602  1.1983
  242MOL0     H32620   9.346   9.319   0.477 -2.3677  3.2021 -2.1474
  242MOL0     H32621   9.142   9.536   0.480  0.6440 -0.1660  1.0602
  242MOL0     H32622   8.963   9.615   0.268 -0.0912 -0.2022  1.3392
  242MOL0     H32623   8.825   9.505   0.245 -2.2586  0.4164  0.6382
  242MOL0     H32624   8.860   9.663   0.494  0.2682 -0.4883  0.7517
  242MOL0     H32625   8.736   9.532   0.462 -1.0703 -2.0018 -3.5131
  242MOL0     H32626   8.630   9.737   0.420 -2.8749 -1.0575 -1.7974
  242MOL0     H32627   8.641   9.639   0.273 -0.7806  3.0236 -1.1122
  242MOL0     H32628   8.805   9.775   0.181  0.2168  1.5328 -0.0991
  242MOL0     H32629   8.860   9.834   0.336 -1.3016 -2.3043  2.5980
  242MOL0     H32630   8.658   9.889   0.006  0.0856 -0.6989  0.2083
  242MOL0     H32631   8.411   9.947  -0.216  0.3771 -0.0856 -1.6622
  242MOL0     H32632   8.569   9.863  -0.194 -0.1099  1.4157  0.0395
  242MOL0     H32633   8.412   9.773  -0.213 -1.8325  0.0513  1.2961
  242MOL0     H32634   8.021   9.598   0.143 -2.0523  0.1139  2.5350
  242MOL0     H32635   7.826   9.478   0.065  1.1378 -0.0525  0.1250
  242MOL0     H32636   7.706   9.421  -0.152  0.0740  2.8198 -1.8256
  242MOL0     H32637   7.630   9.400   0.009 -1.7479  0.1525 -0.6443
  242MOL0     H32638   7.416   9.427  -0.110  0.6797  0.4908  0.8484
  242MOL0     H32639   7.506   9.439  -0.262  1.5755  0.5142 -0.2981
  242MOL0     H32640   7.462   9.203  -0.082 -2.2909  1.4947 -0.8210
  242MOL0     H32641   7.624   9.209  -0.156 -0.1840 -0.7141 -0.1238
  242MOL0     H32642   7.489   9.246  -0.380 -1.3715  2.2453  1.7800
  242MOL0     H32643   7.498   9.087  -0.320  2.6936  0.3969  0.0264
  242MOL0     H32644   7.284   9.121  -0.391  2.2048 -0.1721  0.6408
  242MOL0     H32645   7.273   9.290  -0.326  0.3017  0.3436 -0.1102
  242MOL0     H32646   7.265   9.073  -0.114  1.1684  1.7977  1.2288
  242MOL0     H32647   7.209   9.232  -0.116 -0.3934 -1.1811  0.6050
  242MOL0     H32648   7.090   9.006  -0.277 -0.2963  1.3133 -1.3697
  242MOL0     H32649   7.034   9.174  -0.297  0.1240  0.8919 -0.5511
  242MOL0     H32650   7.007   9.028  -0.037 -1.3880 -0.6311 -0.3087
  242MOL0     H32651   6.871   9.064  -0.137 -0.2627  0.0542  1.7211
  242MOL0     H32652   7.673   9.825  -0.110  1.2166 -1.3474 -1.4519
  242MOL0     H32653   7.892   9.955  -0.045 -2.1592  0.8439  0.0733
  242MOL0     H32654   8.254   9.825   0.264 -0.8488  0.6326  0.8110
  242MOL0     H32655   8.456   9.890   0.382  1.3440  2.3493 -0.1446
  242MOL0     H32656   9.901   9.525   1.129 -0.9380 -1.4653  0.4810
  242MOL0     H32657  10.108   9.669   1.193 -0.7703 -0.3751 -0.6998
  242MOL0     H32658  10.586   9.556   1.583  0.2476 -0.9734 -1.0180
  242MOL0     H32659  10.803   9.688   1.600  3.7216  1.9519 -2.3066
  242MOL0     H32660  10.987  10.005   1.495 -2.3705  0.1571  0.6422
  242MOL0     H32661  10.883   9.926   1.613  0.2779  0.6482 -0.3063
  242MOL0     H32662  11.034   9.715   1.598  2.4129 -1.1952 -2.5720
  242MOL0     H32663  11.117   9.847   1.676  0.7976  0.7977 -0.2674
  242MOL0     H32664  11.139   9.783   1.388  2.0620  1.5079 -1.9523
  242MOL0     H32665  11.249   9.716   1.517 -0.6942 -0.3264  1.2275
  242MOL0     H32666  11.357   9.892   1.576 -2.3432 -1.4084  0.7735
  242MOL0     H32667  11.255  10.016   1.517  0.3232 -0.2442  1.0558
  242MOL0     H32668  11.487   9.986   1.176 -3.2019  2.9703 -0.9151
  242MOL0     H32669  10.720   9.857   1.209  3.2654 -0.0030  1.0305
  242MOL0     H32670  10.527   9.719   1.188  0.9200 -1.3041  0.1330
  243MOL0     O32671   3.224   2.770   1.567  1.0902 -0.6971  0.1950
  243MOL0     C32672   3.257   2.810   1.452  0.7874 -0.0644  1.8006
  243MOL0     O32673   3.381   2.794   1.380 -0.3802  0.6289 -1.0138
  243MOL0     C32674   3.471   2.708   1.431 -0.5348  0.2159 -0.4844
  243MOL0     C32675   3.432   2.569   1.465  0.0331 -0.0792  0.1205
  243MOL0     C32676   3.529   2.480   1.505  0.5852 -0.6205  0.1733
  243MOL0     C32677   3.659   2.523   1.518  0.7891 -0.3248  0.4471
  243MOL0     O32678   3.750   2.426   1.553  0.8429 -0.5633 -0.2271
  243MOL0     C32679   3.877   2.465   1.611  1.0304 -0.0743  0.3457
  243MOL0     C32680   3.979   2.356   1.624  0.9358  0.7730  0.0992
  243MOL0     C32681   3.920   2.230   1.681  0.4549  0.1491 -0.7782
  243MOL0     C32682   3.901   2.231   1.830  0.1319  0.6523 -0.2697
  243MOL0     C32683   3.840   2.101   1.869 -0.8364 -0.3602  0.6556
  243MOL0     C32684   3.853   2.091   2.024  0.4231  0.1707  0.1255
  243MOL0     C32685   3.794   1.962   2.084  0.1294  0.7525 -0.3938
  243MOL0     C32686   3.668   1.900   2.028  0.1124 -0.3784  0.3288
  243MOL0     N32687   3.540   1.954   2.068  0.3630  0.0807  0.0741
  243MOL0     C32688   3.445   2.014   1.992 -0.6610 -0.3845 -0.4577
  243MOL0     C32689   3.353   2.054   2.080  0.3792 -0.4314 -1.0439
  243MOL0     C32690   3.224   2.117   2.048 -0.2655 -0.3329  0.1728
  243MOL0     C32691   3.118   2.013   2.007 -0.1216 -0.4213  0.4837
  243MOL0     C32692   3.099   1.899   2.116  0.0394 -0.0080  0.1950
  243MOL0     C32693   2.984   1.816   2.073 -0.0817 -0.2503  0.6444
  243MOL0     O32694   2.864   1.886   2.122 -0.4605  0.0381 -0.5597
  243MOL0     C32695   2.734   1.841   2.112 -0.7108 -0.4264  0.6761
  243MOL0     C32696   2.635   1.919   2.169  0.0145 -0.0711 -0.5188
  243MOL0     C32697   2.501   1.883   2.135  0.5823 -0.2016 -0.8002
  243MOL0     C32698   2.392   1.980   2.179 -0.2036 -0.2220 -0.2213
  243MOL0     C32699   2.472   1.765   2.059  0.4977 -0.1458  0.3750
  243MOL0     C32700   2.330   1.728   2.036  0.1539  0.6924 -0.3528
  243MOL0     O32701   2.233   1.751   2.131  0.0992  0.6503  0.3400
  243MOL0     C32702   2.114   1.690   2.120  0.8844 -0.3779 -0.2144
  243MOL0     C32703   2.065   1.616   2.228  0.3219  0.2226  0.6725
  243MOL0     C32704   1.949   1.544   2.215 -0.3720  0.6675  0.0664
  243MOL0     C32705   1.861   1.558   2.105 -0.4865  0.5742  0.4289
  243MOL0     O32706   1.746   1.488   2.094  0.3224  0.1624 -0.5522
  243MOL0     C32707   1.707   1.401   2.208  0.1856  0.3612 -0.7806
  243MOL0     C32708   1.581   1.336   2.174 -0.8895  0.9096 -0.9379
  243MOL0     C32709   1.460   1.431   2.150 -0.6242  0.0275  0.3036
  243MOL0     C32710   1.341   1.361   2.107  0.0707  0.4613  0.2286
  243MOL0     C32711   1.213   1.455   2.088 -0.2262  0.7197 -0.0939
  243MOL0     C32712   1.103   1.379   2.006  0.0493 -0.7141 -0.8118
  243MOL0     C32713   0.972   1.467   1.979 -1.1999  0.1882 -0.5408
  243MOL0     C32714   0.867   1.394   1.884  0.4717 -0.3047 -0.1772
  243MOL0    Cl32715   0.806   1.238   1.945  0.0526 -0.0649 -0.1574
  243MOL0     C32716   1.907   1.643   2.000 -0.7405  0.2450 -0.4377
  243MOL0     C32717   2.033   1.706   2.004 -0.2758  0.5739  0.1392
  243MOL0     O32718   2.313   1.660   1.935 -0.2400 -0.4164 -0.0757
  243MOL0     C32719   2.575   1.680   2.022  0.4124 -0.4010 -0.9337
  243MOL0     C32720   2.705   1.718   2.053  0.6800 -0.1690 -0.3082
  243MOL0     N32721   3.388   2.010   2.205 -0.6379 -0.3761 -0.7442
  243MOL0     N32722   3.497   1.947   2.197 -0.6931  0.9884  0.3414
  243MOL0     C32723   3.692   2.650   1.484 -0.8332 -0.5840  0.3582
  243MOL0     C32724   3.604   2.747   1.442  0.5725  0.2905 -0.5897
  243MOL0     C32725   3.152   2.878   1.367  0.2069 -0.6745  0.6575
  243MOL0     C32726   3.017   2.865   1.392  0.5826 -0.1969 -0.0262
  243MOL0     C32727   2.917   2.948   1.321  0.0435  0.0423 -0.0186
  243MOL0     C32728   2.959   3.043   1.223  0.3504  0.2851 -0.1161
  243MOL0     O32729   2.873   3.123   1.152  0.0229  0.3215  0.0530
  243MOL0     C32730   2.738   3.092   1.149 -0.4069 -0.7846  0.0047
  243MOL0     C32731   2.660   3.176   1.045 -0.0979 -0.8535  0.5007
  243MOL0     C32732   2.710   3.127   0.911  0.3606  0.4138 -0.2236
  243MOL0     C32733   2.637   3.201   0.791 -0.4887 -0.2594 -0.5379
  243MOL0     C32734   2.678   3.130   0.672  0.1126 -0.0590  0.2693
  243MOL0     C32735   2.708   3.089   0.562 -0.1449 -0.4802  0.2751
  243MOL0     C32736   3.097   3.053   1.196  0.2465  0.1635 -0.0684
  243MOL0     C32737   3.186   2.973   1.262 -0.0090  0.6966 -0.9025
  243MOL0     H32738   3.331   2.529   1.458 -0.0905  0.4258 -1.4925
  243MOL0     H32739   3.501   2.375   1.517 -0.9019 -0.1968  0.5748
  243MOL0     H32740   3.922   2.538   1.543 -2.0769 -1.0063 -2.9943
  243MOL0     H32741   3.862   2.510   1.709  2.0252 -0.1209  0.5309
  243MOL0     H32742   4.013   2.326   1.524 -2.0763  0.6474 -0.9864
  243MOL0     H32743   4.063   2.391   1.684  3.6899 -0.6073 -2.6268
  243MOL0     H32744   3.827   2.202   1.632  1.1286 -0.0815 -1.9673
  243MOL0     H32745   3.999   2.156   1.663  0.0153  0.0242 -2.3527
  243MOL0     H32746   3.996   2.255   1.879  0.6386 -0.2438 -0.7896
  243MOL0     H32747   3.832   2.312   1.855 -0.8295  0.0593 -0.9393
  243MOL0     H32748   3.736   2.100   1.834 -0.2697 -3.1045 -1.2452
  243MOL0     H32749   3.893   2.021   1.817 -1.9513 -0.7700  0.1027
  243MOL0     H32750   3.957   2.107   2.053  1.2222  0.3871 -2.6032
  243MOL0     H32751   3.797   2.173   2.070 -1.1768  0.4755 -2.1550
  243MOL0     H32752   3.878   1.893   2.075  0.5189  1.3404 -1.3567
  243MOL0     H32753   3.777   1.973   2.191  0.1864 -1.0803 -0.1533
  243MOL0     H32754   3.676   1.793   2.051  2.7422  0.2410  2.9555
  243MOL0     H32755   3.683   1.903   1.920  2.3550  1.2232  0.6163
  243MOL0     H32756   3.445   2.022   1.884 -0.0274 -1.0004 -0.5105
  243MOL0     H32757   3.191   2.163   2.141  1.9098  2.4703 -0.3188
  243MOL0     H32758   3.236   2.208   1.989  2.4983 -1.0078 -0.4580
  243MOL0     H32759   3.141   1.960   1.914  0.1681  2.3707 -1.1556
  243MOL0     H32760   3.023   2.064   1.984  1.2508  0.9495 -2.7622
  243MOL0     H32761   3.078   1.938   2.216 -0.9344  0.0809 -0.0368
  243MOL0     H32762   3.194   1.844   2.108  0.5195  0.7695  0.4428
  243MOL0     H32763   2.995   1.725   2.134  0.9850  1.2677  2.8511
  243MOL0     H32764   2.983   1.800   1.965 -0.1249  1.8608  0.2926
  243MOL0     H32765   2.659   2.006   2.229  2.2886  2.2958 -4.3887
  243MOL0     H32766   2.439   2.079   2.172  1.7373 -1.1097 -0.2088
  243MOL0     H32767   2.303   1.987   2.115  0.9689  0.8788 -1.8293
  243MOL0     H32768   2.356   1.968   2.281  0.9830  5.3953  1.1902
  243MOL0     H32769   2.125   1.612   2.319 -0.3584  2.3631  1.2596
  243MOL0     H32770   1.920   1.478   2.297 -1.8947 -0.0640 -1.0096
  243MOL0     H32771   1.775   1.317   2.221  1.2931  1.6800  3.6225
  243MOL0     H32772   1.694   1.460   2.299  0.4112  0.1819 -0.6304
  243MOL0     H32773   1.595   1.278   2.082 -0.3341  1.2740 -1.0882
  243MOL0     H32774   1.555   1.274   2.260 -2.0376  2.6788  0.0459
  243MOL0     H32775   1.490   1.503   2.074  2.0993 -1.3528 -0.0680
  243MOL0     H32776   1.434   1.481   2.243 -3.6621 -0.2463 -0.3162
  243MOL0     H32777   1.368   1.320   2.010  2.8170 -0.7356  1.4164
  243MOL0     H32778   1.318   1.280   2.177  1.0641  0.4677  0.5756
  243MOL0     H32779   1.236   1.544   2.029 -1.4269 -0.9071 -3.2632
  243MOL0     H32780   1.174   1.480   2.187  0.8996 -0.6238  0.7154
  243MOL0     H32781   1.130   1.344   1.906 -0.0642 -1.9732 -0.4248
  243MOL0     H32782   1.068   1.290   2.060 -2.0005  0.9429  0.7554
  243MOL0     H32783   0.992   1.564   1.933 -1.5999  0.5142 -0.0355
  243MOL0     H32784   0.935   1.483   2.081  3.5497 -1.7012  1.7720
  243MOL0     H32785   0.908   1.376   1.785 -0.0663  0.1510 -0.4898
  243MOL0     H32786   0.780   1.457   1.863  0.7723  0.3326  0.4546
  243MOL0     H32787   1.850   1.653   1.908  0.3393 -2.2167 -1.4590
  243MOL0     H32788   2.064   1.765   1.918  0.3830 -1.0560 -0.8018
  243MOL0     H32789   2.572   1.589   1.963 -0.7102  0.3337 -2.0479
  243MOL0     H32790   2.792   1.665   2.016  0.4879  0.2385 -1.3619
  243MOL0     H32791   3.795   2.684   1.492 -1.5304  1.6592  0.5280
  243MOL0     H32792   3.622   2.852   1.422  1.1910 -0.2080 -3.0161
  243MOL0     H32793   2.988   2.783   1.457  0.3916  0.2702  0.4821
  243MOL0     H32794   2.816   2.927   1.354  1.1454 -2.6611  2.0454
  243MOL0     H32795   2.737   2.983   1.135  0.9113 -0.8004 -0.0877
  243MOL0     H32796   2.692   3.127   1.242  0.7160  1.9390 -0.3810
  243MOL0     H32797   2.683   3.282   1.059 -1.5450 -0.6626  1.7437
  243MOL0     H32798   2.552   3.168   1.058 -0.5189  0.9434 -1.3209
  243MOL0     H32799   2.682   3.021   0.910  0.0850  0.4555  0.9882
  243MOL0     H32800   2.819   3.127   0.901  0.6243  2.3096  1.8685
  243MOL0     H32801   2.657   3.308   0.802 -0.9708 -0.4127  3.5090
  243MOL0     H32802   2.528   3.197   0.797 -0.7023  3.0662 -0.4276
  243MOL0     H32803   2.743   3.050   0.469  1.4741  0.9153  0.2599
  243MOL0     H32804   3.135   3.123   1.123 -1.2211  1.9952  0.8280
  243MOL0     H32805   3.293   2.969   1.242  0.3979 -0.1178  1.1620
  244MOL0     O32806   7.562   8.692   9.480 -0.1624 -0.7424 -0.3376
  244MOL0     C32807   7.587   8.772   9.385 -0.0617  0.2837 -0.2469
  244MOL0     O32808   7.497   8.858   9.335 -0.1298  0.0474 -0.6015
  244MOL0     C32809   7.364   8.845   9.381  0.0697  0.5299 -0.8928
  244MOL0     C32810   7.283   8.795   9.283  0.3670  0.7660  0.1184
  244MOL0     C32811   7.144   8.778   9.315  0.0565 -0.4180  0.0041
  244MOL0     C32812   7.092   8.825   9.432 -0.1334 -0.0780  0.2376
  244MOL0     O32813   6.954   8.809   9.427  0.4888  0.1181 -0.2939
  244MOL0     C32814   6.890   8.842   9.553  0.5644 -0.0695  0.2022
  244MOL0     C32815   6.739   8.860   9.540 -0.4100 -0.1657  1.0730
  244MOL0     C32816   6.657   8.737   9.506  0.0003 -0.7643 -0.1232
  244MOL0     C32817   6.502   8.774   9.488 -0.3748  0.2753 -0.1602
  244MOL0     C32818   6.437   8.632   9.458  0.1357  0.1802 -0.6581
  244MOL0     C32819   6.291   8.654   9.444  0.4310  0.1020 -0.5741
  244MOL0     C32820   6.218   8.527   9.402 -0.9845 -0.2738 -0.1621
  244MOL0     C32821   6.065   8.543   9.384  0.4504  0.4613  0.2706
  244MOL0     N32822   6.009   8.413   9.412 -0.0144  0.0024  0.4784
  244MOL0     C32823   5.884   8.384   9.467  0.1121 -0.1087 -0.3850
  244MOL0     C32824   5.853   8.261   9.419 -0.2826  0.2520 -0.1717
  244MOL0     C32825   5.724   8.186   9.457  0.8032  0.9265 -0.4842
  244MOL0     C32826   5.752   8.032   9.463  0.2600 -0.5298 -0.6147
  244MOL0     C32827   5.653   7.968   9.565  0.1398 -0.4640  0.6062
  244MOL0     C32828   5.506   7.989   9.532 -0.4254 -0.4434  0.0609
  244MOL0     O32829   5.468   7.973   9.399 -0.5966  0.4083  0.4761
  244MOL0     C32830   5.334   7.986   9.362 -1.0910 -0.4069 -1.3066
  244MOL0     C32831   5.310   7.959   9.230 -0.8604  0.1964  0.2145
  244MOL0     C32832   5.180   7.957   9.180  0.2246 -0.7217 -0.6448
  244MOL0     C32833   5.160   7.909   9.039  0.3471  0.4717  0.6776
  244MOL0     C32834   5.072   7.994   9.265 -0.2055  0.6251  0.1046
  244MOL0     C32835   4.924   7.978   9.237 -0.4210 -0.0803 -0.4416
  244MOL0     O32836   4.837   8.015   9.342 -0.4394 -0.1649 -0.3004
  244MOL0     C32837   4.701   7.989   9.327 -0.3277 -0.3337 -0.4015
  244MOL0     C32838   4.618   8.082   9.260 -0.4106  0.4771  0.3408
  244MOL0     C32839   4.479   8.070   9.256 -0.4461  0.3297 -0.1336
  244MOL0     C32840   4.413   7.963   9.329 -0.5072 -0.4998  0.4102
  244MOL0     O32841   4.277   7.942   9.323  0.5284  0.6639 -0.1833
  244MOL0     C32842   4.189   8.061   9.331 -0.3542 -0.1798 -0.0485
  244MOL0     C32843   4.130   8.089   9.184 -0.5605  0.3765 -0.6256
  244MOL0     C32844   4.044   8.216   9.178 -0.7078  0.6390 -0.4769
  244MOL0     C32845   3.925   8.210   9.272  0.4374 -0.2304 -0.6866
  244MOL0     C32846   3.804   8.265   9.200  0.4249 -0.2177  0.2262
  244MOL0     C32847   3.680   8.259   9.293  0.9202 -0.3700 -0.6274
  244MOL0     C32848   3.563   8.309   9.204 -0.4491  0.4086 -0.0238
  244MOL0     C32849   3.437   8.326   9.283  0.6249  0.0079 -1.3158
  244MOL0    Cl32850   3.326   8.416   9.181 -0.1932  0.0165 -0.2002
  244MOL0     C32851   4.495   7.881   9.403 -0.1306  0.0324  0.3301
  244MOL0     C32852   4.635   7.884   9.396 -0.1205 -0.7071 -0.1525
  244MOL0     O32853   4.882   7.938   9.127  0.2191 -0.8047 -0.1744
  244MOL0     C32854   5.108   8.036   9.399  0.7920  0.0075  0.4915
  244MOL0     C32855   5.234   8.026   9.455 -0.1863 -0.0642  0.7641
  244MOL0     N32856   5.960   8.215   9.340  0.7806 -0.5188  0.3170
  244MOL0     N32857   6.041   8.304   9.333 -0.3616 -0.5051  0.6534
  244MOL0     C32858   7.164   8.870   9.535 -0.0336 -0.7123  0.3429
  244MOL0     C32859   7.307   8.877   9.514  0.3354 -0.0943  0.2395
  244MOL0     C32860   7.716   8.758   9.315 -0.2307 -0.2175  0.6841
  244MOL0     C32861   7.815   8.683   9.363 -0.3755  1.2725 -0.0319
  244MOL0     C32862   7.943   8.670   9.311 -0.8156 -0.2715  0.4587
  244MOL0     C32863   7.969   8.730   9.191 -0.7264  0.1078  0.3779
  244MOL0     O32864   8.095   8.722   9.144  0.7365  0.9079  0.7624
  244MOL0     C32865   8.142   8.841   9.087 -0.2172 -0.4094 -0.4612
  244MOL0     C32866   8.287   8.818   9.056  0.2457 -0.8242 -0.1600
  244MOL0     C32867   8.380   8.834   9.175  0.5923  0.8942  0.5710
  244MOL0     C32868   8.411   8.985   9.210  0.8864  0.1932  0.9546
  244MOL0     C32869   8.489   9.038   9.098 -0.3427  0.4308  1.3011
  244MOL0     C32870   8.560   9.080   9.010  0.3463 -0.1815  0.0798
  244MOL0     C32871   7.869   8.817   9.140 -0.4960  0.2746  0.7049
  244MOL0     C32872   7.749   8.828   9.201 -0.2755 -0.4024  0.5580
  244MOL0     H32873   7.336   8.770   9.192  0.8664  1.5253  0.1895
  244MOL0     H32874   7.084   8.740   9.233 -4.5895  1.2172  2.2850
  244MOL0     H32875   6.909   8.759   9.622  0.9629  1.1628  1.6395
  244MOL0     H32876   6.919   8.936   9.601 -1.7739  0.3256  0.9750
  244MOL0     H32877   6.711   8.879   9.644 -0.2870 -0.6629  1.2035
  244MOL0     H32878   6.728   8.945   9.473 -0.5144 -0.3246  0.8883
  244MOL0     H32879   6.695   8.698   9.411  1.3194  0.8012 -0.2980
  244MOL0     H32880   6.661   8.662   9.585 -1.8852 -1.8112 -0.9739
  244MOL0     H32881   6.461   8.822   9.578  3.3734  0.3892  1.6603
  244MOL0     H32882   6.483   8.838   9.401 -3.7998 -1.3759 -0.8175
  244MOL0     H32883   6.486   8.586   9.372  0.1667  0.4355 -0.7779
  244MOL0     H32884   6.450   8.570   9.547 -1.2586  0.5918 -0.1471
  244MOL0     H32885   6.252   8.699   9.536 -0.8992  1.5658 -1.8196
  244MOL0     H32886   6.270   8.723   9.362  0.0544  2.9544  1.7824
  244MOL0     H32887   6.260   8.478   9.314 -1.3413 -0.3296 -0.3043
  244MOL0     H32888   6.243   8.469   9.491  1.7668  0.7739 -0.1584
  244MOL0     H32889   6.040   8.577   9.283 -2.6070 -1.2734  0.3235
  244MOL0     H32890   6.032   8.623   9.452  1.4976  0.0463  1.3122
  244MOL0     H32891   5.834   8.445   9.542 -0.7921 -1.0017 -0.2413
  244MOL0     H32892   5.691   8.211   9.558  0.4798 -1.2220  0.0043
  244MOL0     H32893   5.644   8.207   9.386 -1.8139  3.1414  2.8261
  244MOL0     H32894   5.855   8.016   9.495  0.5100  1.5771 -0.2605
  244MOL0     H32895   5.746   7.982   9.366  1.1242 -0.0325 -0.9320
  244MOL0     H32896   5.668   8.002   9.668  0.4197 -0.8642  0.6977
  244MOL0     H32897   5.685   7.864   9.569  0.9992 -0.2147  0.4521
  244MOL0     H32898   5.479   8.094   9.548 -0.1787  0.0844 -2.6257
  244MOL0     H32899   5.445   7.918   9.588  0.7688 -2.6656 -1.2862
  244MOL0     H32900   5.384   7.935   9.155  0.8987  1.1213  1.5618
  244MOL0     H32901   5.095   7.984   8.994 -0.1632  0.5960  1.5818
  244MOL0     H32902   5.255   7.898   8.987 -0.4948  0.0599 -0.8321
  244MOL0     H32903   5.117   7.809   9.039  0.6252  0.3505 -0.4358
  244MOL0     H32904   4.663   8.167   9.210 -0.9995 -0.1602 -1.3420
  244MOL0     H32905   4.426   8.139   9.191  1.8203  1.7449 -0.5949
  244MOL0     H32906   4.102   8.043   9.394 -0.9903  0.8825 -0.5917
  244MOL0     H32907   4.243   8.142   9.380 -1.8809  1.3405 -0.7742
  244MOL0     H32908   4.215   8.104   9.116 -0.3070 -0.8658 -0.6186
  244MOL0     H32909   4.090   7.992   9.151  1.6323 -1.3610  1.4374
  244MOL0     H32910   4.017   8.242   9.075  2.0085  1.3143 -1.1208
  244MOL0     H32911   4.114   8.295   9.207  1.6474 -1.0502 -1.2369
  244MOL0     H32912   3.887   8.110   9.296 -1.2100  0.9354  2.0481
  244MOL0     H32913   3.930   8.272   9.362  0.9634 -0.1895 -0.7416
  244MOL0     H32914   3.798   8.204   9.109  4.0449  1.3597 -1.3066
  244MOL0     H32915   3.825   8.368   9.167 -0.4136 -0.8745 -2.6995
  244MOL0     H32916   3.659   8.157   9.327 -2.0887  0.1307 -0.6733
  244MOL0     H32917   3.698   8.324   9.380 -0.9949 -0.8637  0.2103
  244MOL0     H32918   3.538   8.244   9.120  0.6364 -0.0430 -0.0112
  244MOL0     H32919   3.593   8.408   9.169  0.3281  0.0663 -0.3286
  244MOL0     H32920   3.453   8.381   9.376 -1.4773 -0.7979 -0.4348
  244MOL0     H32921   3.391   8.231   9.311 -1.6260  1.9029  2.0895
  244MOL0     H32922   4.444   7.806   9.462 -3.3747 -0.3866 -2.6592
  244MOL0     H32923   4.692   7.812   9.454 -1.2456 -1.2298  0.3377
  244MOL0     H32924   5.025   8.063   9.464 -1.0707  0.2459 -1.8514
  244MOL0     H32925   5.242   8.037   9.562  0.6324  2.4570  0.5182
  244MOL0     H32926   7.134   8.891   9.637  0.5960 -0.5585  0.5026
  244MOL0     H32927   7.377   8.896   9.594 -1.3740  0.7283  1.5931
  244MOL0     H32928   7.812   8.631   9.458  2.4624  2.3479  0.7752
  244MOL0     H32929   8.000   8.591   9.359  3.1584  0.8068 -1.9887
  244MOL0     H32930   8.092   8.850   8.990  0.6186  1.1908 -0.7812
  244MOL0     H32931   8.129   8.935   9.142 -0.7923  1.4221 -3.4609
  244MOL0     H32932   8.314   8.874   8.966 -1.8734 -0.0051 -0.3617
  244MOL0     H32933   8.296   8.716   9.020 -0.6914 -0.2127 -2.3225
  244MOL0     H32934   8.469   8.778   9.143 -1.4649 -0.7331 -2.8993
  244MOL0     H32935   8.342   8.768   9.253 -1.6709  0.8157 -0.5282
  244MOL0     H32936   8.467   8.989   9.303 -0.5131  3.4626  1.7628
  244MOL0     H32937   8.322   9.047   9.221  0.6587  0.0397  0.0722
  244MOL0     H32938   8.626   9.116   8.933  1.9830 -1.9345  0.5989
  244MOL0     H32939   7.887   8.866   9.045 -0.3768 -0.9750  0.0620
  244MOL0     H32940   7.674   8.891   9.154 -1.5797 -1.5768  0.9882
  245MOL0     O32941   6.534   4.845   4.047  0.2900 -0.1009 -0.5874
  245MOL0     C32942   6.641   4.841   3.985 -0.4108 -0.8520 -0.0277
  245MOL0     O32943   6.650   4.830   3.846 -0.2203 -0.0937  0.1940
  245MOL0     C32944   6.531   4.802   3.779  0.6823  0.0447  0.8318
  245MOL0     C32945   6.510   4.674   3.725 -0.3653 -0.7186 -0.8754
  245MOL0     C32946   6.393   4.648   3.653 -0.5381 -0.5089  0.3380
  245MOL0     C32947   6.297   4.751   3.629 -0.0423 -1.1684  0.1185
  245MOL0     O32948   6.174   4.736   3.561  1.2511 -0.1724 -0.0993
  245MOL0     C32949   6.179   4.645   3.450  0.2641 -0.5311  0.3909
  245MOL0     C32950   6.026   4.617   3.417 -0.8125 -0.2029 -0.6715
  245MOL0     C32951   5.965   4.508   3.504 -0.1865  0.1573 -0.8431
  245MOL0     C32952   6.011   4.371   3.469 -0.7189 -0.4681  0.8720
  245MOL0     C32953   5.993   4.264   3.578  0.3465 -0.4527 -0.0045
  245MOL0     C32954   5.846   4.227   3.618 -0.5449 -0.0213 -0.0553
  245MOL0     C32955   5.839   4.102   3.710  0.0498 -0.1969 -0.1144
  245MOL0     C32956   5.696   4.082   3.762  0.0138  0.5996 -0.0897
  245MOL0     N32957   5.613   4.029   3.659  0.6149 -0.6111 -0.8599
  245MOL0     C32958   5.605   3.898   3.623  0.5107 -0.1248  0.7515
  245MOL0     C32959   5.501   3.888   3.529 -0.1354 -0.2555  1.0977
  245MOL0     C32960   5.454   3.752   3.485  0.4876 -0.1745  0.0961
  245MOL0     C32961   5.311   3.760   3.424  0.4680  0.0226  0.5698
  245MOL0     C32962   5.243   3.628   3.434  0.4468  0.1472  0.8946
  245MOL0     C32963   5.099   3.644   3.383 -0.5155 -1.0252  0.1146
  245MOL0     O32964   5.044   3.750   3.454  0.7051 -0.5274 -0.3955
  245MOL0     C32965   4.907   3.766   3.438  0.3133 -0.2571 -0.6742
  245MOL0     C32966   4.831   3.690   3.343 -0.2036 -0.6593 -0.4492
  245MOL0     C32967   4.696   3.719   3.327  0.9646 -0.6860 -0.6481
  245MOL0     C32968   4.633   3.632   3.222 -1.2431  0.6379 -0.4106
  245MOL0     C32969   4.631   3.811   3.415  0.0716 -0.0511 -0.2636
  245MOL0     C32970   4.481   3.827   3.407 -0.4845 -0.1585 -0.5655
  245MOL0     O32971   4.413   3.805   3.291 -0.0360 -0.4512 -0.6649
  245MOL0     C32972   4.273   3.808   3.292 -0.3665 -0.2872  1.0948
  245MOL0     C32973   4.179   3.800   3.401  0.1026 -0.4306 -0.0173
  245MOL0     C32974   4.045   3.793   3.365  0.8246 -0.8807 -0.0236
  245MOL0     C32975   3.993   3.779   3.236 -0.1119  0.1253 -0.1980
  245MOL0     O32976   3.859   3.756   3.219  0.4820  0.3268  0.4548
  245MOL0     C32977   3.805   3.759   3.081  0.0941  1.4324  0.2678
  245MOL0     C32978   3.656   3.712   3.084 -0.4423 -0.4524 -0.3110
  245MOL0     C32979   3.630   3.554   3.071  0.4620 -0.4234 -1.1633
  245MOL0     C32980   3.487   3.525   3.041 -0.2453  0.9714 -0.0123
  245MOL0     C32981   3.468   3.374   3.017  1.3815 -0.4135  0.1993
  245MOL0     C32982   3.330   3.341   2.968 -0.0772 -0.3390  0.2922
  245MOL0     C32983   3.223   3.357   3.077  0.6790  0.0701 -0.4221
  245MOL0     C32984   3.082   3.305   3.035 -0.6225  0.1214 -0.1454
  245MOL0    Cl32985   3.071   3.125   3.017 -0.0464 -0.1769 -0.5400
  245MOL0     C32986   4.091   3.784   3.134 -0.0016 -1.0560 -0.4632
  245MOL0     C32987   4.226   3.796   3.163  0.5913  0.5071  0.1090
  245MOL0     O32988   4.431   3.864   3.511  0.5711 -0.1770  0.3990
  245MOL0     C32989   4.707   3.886   3.505 -0.4375 -0.6979 -0.3494
  245MOL0     C32990   4.844   3.866   3.514  0.0251  1.0201 -0.8125
  245MOL0     N32991   5.467   4.017   3.500 -0.4689  0.4105  0.1934
  245MOL0     N32992   5.520   4.102   3.584  0.0803  0.5254 -0.4791
  245MOL0     C32993   6.328   4.882   3.678 -0.1802 -0.7186  0.6219
  245MOL0     C32994   6.446   4.906   3.751  0.2880  0.1724 -0.5902
  245MOL0     C32995   6.767   4.858   4.061  0.1484  0.2931 -0.1454
  245MOL0     C32996   6.772   4.829   4.194  0.2913 -0.2212 -0.2440
  245MOL0     C32997   6.893   4.845   4.264  0.5171  0.2228  0.9212
  245MOL0     C32998   7.011   4.900   4.205  0.1012  0.4891  0.4533
  245MOL0     O32999   7.126   4.922   4.273 -0.3455  0.4174 -0.2744
  245MOL0     C33000   7.117   4.976   4.400  0.7955 -0.2951 -0.6377
  245MOL0     C33001   7.122   5.136   4.399  0.3852  0.0100 -0.2675
  245MOL0     C33002   7.262   5.186   4.338  1.3025  0.8306 -0.6113
  245MOL0     C33003   7.375   5.155   4.432 -0.4914 -0.5210 -0.3307
  245MOL0     C33004   7.508   5.191   4.369 -0.7573 -0.6029 -0.1201
  245MOL0     C33005   7.614   5.221   4.316  1.2891 -0.4438  0.6868
  245MOL0     C33006   7.008   4.917   4.065 -0.3362  0.0181  0.1624
  245MOL0     C33007   6.885   4.894   3.992  0.3601  0.6590  0.1450
  245MOL0     H33008   6.578   4.597   3.759 -0.4392 -0.4508 -0.0943
  245MOL0     H33009   6.384   4.541   3.635  0.0268 -0.8311  1.8309
  245MOL0     H33010   6.227   4.698   3.367 -0.4234  0.4256  0.5765
  245MOL0     H33011   6.231   4.550   3.460  0.9456 -0.7025 -3.3963
  245MOL0     H33012   5.969   4.708   3.440  0.8911  0.3983  1.5817
  245MOL0     H33013   6.022   4.594   3.310 -0.7184 -2.9996 -0.1329
  245MOL0     H33014   6.000   4.521   3.607  0.6587  0.9223 -1.2084
  245MOL0     H33015   5.857   4.513   3.489 -0.1232  1.8680 -0.9114
  245MOL0     H33016   5.956   4.336   3.381  0.9949 -1.0942 -0.0029
  245MOL0     H33017   6.117   4.367   3.441 -1.3193 -0.6185 -1.6884
  245MOL0     H33018   6.023   4.167   3.537 -0.7979 -0.9131  0.2126
  245MOL0     H33019   6.053   4.289   3.667 -0.4161  2.3096 -0.1737
  245MOL0     H33020   5.799   4.318   3.656  1.8444  1.0538  0.5045
  245MOL0     H33021   5.803   4.198   3.521  0.0038  2.0079 -0.9623
  245MOL0     H33022   5.879   4.009   3.669 -1.4078 -1.5019  1.3047
  245MOL0     H33023   5.900   4.121   3.798  0.1627 -1.3398  0.0654
  245MOL0     H33024   5.666   4.182   3.790  2.3100  1.9045 -1.8480
  245MOL0     H33025   5.695   4.017   3.849 -3.5668  1.7517  0.8667
  245MOL0     H33026   5.648   3.804   3.657 -0.6829 -0.8711  0.2696
  245MOL0     H33027   5.523   3.701   3.417  0.5193 -1.3820  0.9959
  245MOL0     H33028   5.443   3.700   3.581 -1.6289  0.5103  0.2784
  245MOL0     H33029   5.332   3.787   3.320  1.9459  1.0775  1.1066
  245MOL0     H33030   5.253   3.837   3.475  1.2236  0.5196  0.6966
  245MOL0     H33031   5.244   3.597   3.539  0.7221 -0.7566  0.6426
  245MOL0     H33032   5.296   3.557   3.369 -1.0013 -0.2777  0.1448
  245MOL0     H33033   5.038   3.555   3.400 -1.5058 -0.4026 -0.1282
  245MOL0     H33034   5.105   3.664   3.276 -0.0563 -0.9862  0.1423
  245MOL0     H33035   4.877   3.605   3.293  2.3170 -1.2169  2.4520
  245MOL0     H33036   4.600   3.702   3.144  1.4537  0.9457 -1.3742
  245MOL0     H33037   4.698   3.554   3.182 -2.3998 -1.9123  2.3139
  245MOL0     H33038   4.545   3.583   3.266 -2.3056  2.0463 -0.8680
  245MOL0     H33039   4.212   3.801   3.504 -0.1906  0.8607  0.0799
  245MOL0     H33040   3.973   3.795   3.447  2.3347 -2.4163  1.3990
  245MOL0     H33041   3.801   3.863   3.049 -1.7371  2.2069  2.6815
  245MOL0     H33042   3.869   3.693   3.021 -1.8273 -1.0802  0.7942
  245MOL0     H33043   3.619   3.740   3.183 -0.5870 -0.8683 -0.2473
  245MOL0     H33044   3.594   3.762   3.009  0.7069 -1.2130 -1.8303
  245MOL0     H33045   3.663   3.496   3.157 -1.4877 -1.4254 -1.0408
  245MOL0     H33046   3.689   3.509   2.991 -0.9441 -1.1015 -1.8499
  245MOL0     H33047   3.422   3.561   3.122 -2.8480 -1.8599 -0.6422
  245MOL0     H33048   3.456   3.580   2.952 -2.0511 -1.5022 -1.0421
  245MOL0     H33049   3.480   3.322   3.112 -1.6717 -0.4683  0.6682
  245MOL0     H33050   3.539   3.332   2.946 -1.6861 -2.0947 -2.1442
  245MOL0     H33051   3.315   3.388   2.870 -1.3790  1.5087  1.3239
  245MOL0     H33052   3.354   3.236   2.947  1.6276  0.1158 -0.2685
  245MOL0     H33053   3.230   3.465   3.092  0.4078 -0.2984  3.3544
  245MOL0     H33054   3.250   3.318   3.176 -1.6764 -1.9076 -0.4578
  245MOL0     H33055   3.044   3.368   2.954  1.9828 -1.1483 -2.5430
  245MOL0     H33056   3.028   3.321   3.129  1.1399  3.0841  0.5023
  245MOL0     H33057   4.064   3.786   3.029 -1.0213  2.6733 -0.2609
  245MOL0     H33058   4.305   3.795   3.088  0.8164 -0.1586  0.3564
  245MOL0     H33059   4.656   3.945   3.581  2.0305  0.7181  0.3237
  245MOL0     H33060   4.903   3.909   3.595 -0.1659 -0.4300  0.1348
  245MOL0     H33061   6.254   4.955   3.648  2.1642  0.5626 -2.5801
  245MOL0     H33062   6.467   5.003   3.794 -2.2295  1.0181 -1.0901
  245MOL0     H33063   6.681   4.801   4.245 -1.1042  0.0171 -2.4747
  245MOL0     H33064   6.888   4.801   4.363 -0.3987 -1.0485  0.3261
  245MOL0     H33065   7.027   4.959   4.460  1.0143  1.2985  0.1973
  245MOL0     H33066   7.198   4.930   4.459  0.1990 -0.1147  0.3550
  245MOL0     H33067   7.114   5.191   4.493  2.7691  0.7305 -0.4144
  245MOL0     H33068   7.043   5.157   4.326 -0.7964 -2.6103  0.1553
  245MOL0     H33069   7.254   5.293   4.316 -0.3541  0.6039 -1.2364
  245MOL0     H33070   7.280   5.143   4.239 -0.9796  0.4824 -0.9253
  245MOL0     H33071   7.384   5.047   4.449 -0.3354  0.0642  4.3569
  245MOL0     H33072   7.360   5.207   4.526  1.4889  0.5341 -0.5385
  245MOL0     H33073   7.707   5.247   4.270  0.9783 -0.4636  0.0353
  245MOL0     H33074   7.100   4.934   4.011 -0.3444 -1.3580 -0.3050
  245MOL0     H33075   6.896   4.903   3.885  0.3367 -0.8748  0.0049
  246MOL0     O33076   9.921   6.682   9.218 -0.2124  0.6161 -0.2774
  246MOL0     C33077   9.993   6.771   9.250  0.1659  0.0257 -0.5098
  246MOL0     O33078  10.105   6.752   9.334 -0.2213 -0.3304 -0.3615
  246MOL0     C33079  10.129   6.627   9.380 -0.1098 -0.1545  0.4027
  246MOL0     C33080  10.244   6.549   9.345  0.0952  0.4445  1.3711
  246MOL0     C33081  10.271   6.421   9.396 -0.3504 -0.1311 -0.2568
  246MOL0     C33082  10.185   6.363   9.485 -0.6413  0.6197  0.1801
  246MOL0     O33083  10.194   6.252   9.562  0.5886  0.5272  0.6279
  246MOL0     C33084  10.298   6.156   9.525  0.7513  0.1221 -0.4232
  246MOL0     C33085  10.435   6.203   9.576 -0.2881 -0.7967  1.1768
  246MOL0     C33086  10.550   6.111   9.552  0.6362 -0.1506 -0.1906
  246MOL0     C33087  10.600   6.085   9.401 -0.0339  0.3030 -0.1596
  246MOL0     C33088  10.727   6.007   9.404 -0.0449 -0.4286  0.4131
  246MOL0     C33089  10.713   5.852   9.443  0.6871 -0.1185 -0.1905
  246MOL0     C33090  10.844   5.778   9.415  0.6998  0.3775 -0.3165
  246MOL0     C33091  10.822   5.633   9.392  0.7239 -0.6645  0.2282
  246MOL0     N33092  10.814   5.565   9.519  0.6491 -0.3026 -0.2731
  246MOL0     C33093  10.921   5.525   9.594  0.1954  0.1433  0.2097
  246MOL0     C33094  10.868   5.465   9.699 -0.3160 -0.0100  1.0242
  246MOL0     C33095  10.945   5.422   9.819  0.2935  0.1556 -0.3858
  246MOL0     C33096  11.057   5.313   9.780 -0.3727 -0.4621 -0.7992
  246MOL0     C33097  11.000   5.168   9.773  0.1034  0.0859  0.3509
  246MOL0     C33098  10.906   5.142   9.650 -0.0676  0.1866 -0.1968
  246MOL0     O33099  10.973   5.157   9.520  0.4687  0.5298 -0.3646
  246MOL0     C33100  10.889   5.187   9.414  0.0907  0.4385 -0.6228
  246MOL0     C33101  10.931   5.263   9.304 -0.4924 -0.7536  0.0072
  246MOL0     C33102  10.854   5.297   9.197  0.4105  0.3434 -0.2289
  246MOL0     C33103  10.925   5.345   9.072  0.3284  0.0842 -0.1814
  246MOL0     C33104  10.715   5.268   9.199  0.3457 -0.3028  0.2424
  246MOL0     C33105  10.625   5.300   9.090 -0.1389  0.6173  0.6390
  246MOL0     O33106  10.523   5.216   9.059 -0.3658  0.1374  0.4847
  246MOL0     C33107  10.413   5.277   9.007 -0.3744  0.7519 -0.1881
  246MOL0     C33108  10.406   5.353   8.891 -0.0577 -0.5793  0.2221
  246MOL0     C33109  10.286   5.415   8.848 -1.3033 -0.1325  0.5571
  246MOL0     C33110  10.172   5.392   8.928 -0.3390 -0.0012  0.1221
  246MOL0     O33111  10.046   5.450   8.903  0.0648 -0.5195 -0.6084
  246MOL0     C33112  10.016   5.554   9.000  0.5758 -0.8444  0.3474
  246MOL0     C33113   9.996   5.689   8.913 -0.2182 -0.2702 -0.0943
  246MOL0     C33114   9.953   5.813   8.978  0.3977 -0.4087  0.1148
  246MOL0     C33115   9.799   5.806   9.001 -0.1620 -0.5968  0.3597
  246MOL0     C33116   9.736   5.947   9.026  0.0643  0.0580 -0.6292
  246MOL0     C33117   9.606   5.916   9.082  0.0823 -0.8791 -0.3084
  246MOL0     C33118   9.531   6.050   9.109  0.7011  0.1402  0.4839
  246MOL0     C33119   9.379   6.027   9.134 -0.5173  1.1697 -0.2186
  246MOL0    Cl33120   9.305   6.192   9.140 -0.3225 -0.2381 -0.1319
  246MOL0     C33121  10.176   5.306   9.046  0.7136 -0.0051  0.2315
  246MOL0     C33122  10.293   5.240   9.076 -0.2590 -0.2131  0.3946
  246MOL0     O33123  10.632   5.418   9.051 -0.1893 -0.1732  0.5389
  246MOL0     C33124  10.662   5.196   9.314  0.8141 -0.8332 -0.5691
  246MOL0     C33125  10.747   5.158   9.414 -0.6529  0.5591 -0.7147
  246MOL0     N33126  10.735   5.448   9.685 -0.4793  0.1037 -0.5221
  246MOL0     N33127  10.701   5.511   9.578 -1.0344 -0.7211 -0.2744
  246MOL0     C33128  10.072   6.436   9.521  0.6036  0.0354 -0.9784
  246MOL0     C33129  10.045   6.564   9.474 -0.3156  0.1754 -0.0127
  246MOL0     C33130   9.963   6.911   9.213 -0.5584  0.4061  0.7857
  246MOL0     C33131  10.070   7.019   9.236 -0.0529  0.3357  0.7125
  246MOL0     C33132  10.045   7.152   9.205  0.3612  0.8825  0.3873
  246MOL0     C33133   9.921   7.184   9.138 -1.3426  0.2848  1.2251
  246MOL0     O33134   9.887   7.313   9.105 -0.4199 -0.2883  0.2070
  246MOL0     C33135   9.858   7.332   8.963 -0.2753  0.0903 -0.3504
  246MOL0     C33136   9.725   7.404   8.941  0.0921 -0.7875  0.8427
  246MOL0     C33137   9.729   7.556   8.929  0.4612  0.3982 -0.4971
  246MOL0     C33138   9.789   7.614   8.809  0.0986  0.1269 -0.4030
  246MOL0     C33139   9.774   7.759   8.809  0.5168  0.4084 -0.4972
  246MOL0     C33140   9.777   7.878   8.777 -0.4977 -0.2405  0.4328
  246MOL0     C33141   9.821   7.086   9.121 -0.4005  0.0156  0.3676
  246MOL0     C33142   9.849   6.954   9.157  0.0048 -0.6517  0.6988
  246MOL0     H33143  10.317   6.580   9.271  1.4180 -3.8673  0.6011
  246MOL0     H33144  10.362   6.366   9.376  1.0109  1.4332  1.2979
  246MOL0     H33145  10.279   6.058   9.569 -1.0198  1.1880  1.3408
  246MOL0     H33146  10.292   6.130   9.419 -2.8430  3.1737 -1.1900
  246MOL0     H33147  10.457   6.303   9.538  0.2073 -0.0310  3.3596
  246MOL0     H33148  10.434   6.217   9.685  0.2038 -0.4541  1.1373
  246MOL0     H33149  10.631   6.154   9.612  0.4364 -1.0322  0.7390
  246MOL0     H33150  10.528   6.015   9.599  1.4543  0.9831  2.7175
  246MOL0     H33151  10.523   6.041   9.337  0.8451  0.9651 -1.7230
  246MOL0     H33152  10.627   6.183   9.361  0.4271  0.8789  1.4821
  246MOL0     H33153  10.774   6.009   9.305  1.6743  1.5013  1.2001
  246MOL0     H33154  10.799   6.056   9.470  0.1606 -2.5542  1.9016
  246MOL0     H33155  10.676   5.838   9.545  0.9954  0.8003  0.0538
  246MOL0     H33156  10.638   5.805   9.379 -1.1521  1.1373  0.9494
  246MOL0     H33157  10.887   5.816   9.322  0.5823 -0.1615 -0.5986
  246MOL0     H33158  10.925   5.792   9.488 -0.1027  0.6691  0.5289
  246MOL0     H33159  10.912   5.600   9.338 -0.1948 -0.7339 -1.3260
  246MOL0     H33160  10.739   5.605   9.328  2.3281 -1.2048 -1.7225
  246MOL0     H33161  11.029   5.533   9.589  0.1283  0.4395 -1.2472
  246MOL0     H33162  10.989   5.514   9.860  0.4779 -0.9131  1.9222
  246MOL0     H33163  10.868   5.388   9.888  0.6265 -0.3313 -0.2478
  246MOL0     H33164  11.129   5.323   9.862  1.0816  0.1074 -2.1129
  246MOL0     H33165  11.092   5.349   9.683 -0.2126 -0.5545 -0.7753
  246MOL0     H33166  10.948   5.149   9.867  1.5584  1.5397  1.5268
  246MOL0     H33167  11.088   5.104   9.773  0.2463  0.2755 -0.1076
  246MOL0     H33168  10.825   5.216   9.661 -1.2053 -0.8311 -1.3694
  246MOL0     H33169  10.859   5.044   9.663 -0.4115  0.5789  1.7524
  246MOL0     H33170  11.034   5.290   9.282 -0.4582 -0.9579 -0.0810
  246MOL0     H33171  11.011   5.280   9.051 -1.4671 -1.7214 -2.4950
  246MOL0     H33172  10.870   5.333   8.979  1.1714 -0.4165 -0.6281
  246MOL0     H33173  10.966   5.446   9.082 -1.8832  0.8710  2.0365
  246MOL0     H33174  10.498   5.374   8.838  0.4200  0.3342  1.3774
  246MOL0     H33175  10.282   5.480   8.760 -1.5560 -2.1884 -1.0191
  246MOL0     H33176   9.930   5.551   9.068  0.4437  1.6457  0.4072
  246MOL0     H33177  10.097   5.566   9.073 -0.6656  0.6593  1.5585
  246MOL0     H33178  10.092   5.717   8.869  0.8035 -3.3558 -0.0629
  246MOL0     H33179   9.939   5.659   8.825  0.2197  0.5685 -0.6701
  246MOL0     H33180   9.976   5.893   8.907 -4.0905  1.1177  0.0295
  246MOL0     H33181   9.990   5.824   9.080 -2.7891 -0.9566  1.4396
  246MOL0     H33182   9.754   5.765   8.910 -1.7174 -0.2869  0.9699
  246MOL0     H33183   9.787   5.736   9.084  0.3405 -2.7817 -1.3182
  246MOL0     H33184   9.727   6.006   8.934  0.4557  1.8937  0.4544
  246MOL0     H33185   9.791   6.005   9.100 -1.3615 -0.8110  1.1875
  246MOL0     H33186   9.544   5.863   9.009  0.8623 -1.0620 -0.8578
  246MOL0     H33187   9.612   5.852   9.170  0.5894 -0.4445 -0.0184
  246MOL0     H33188   9.545   6.122   9.028  4.2523  0.1780  1.0029
  246MOL0     H33189   9.573   6.104   9.194 -0.9954  0.1542  1.3714
  246MOL0     H33190   9.373   5.969   9.227 -0.8443  0.2404 -0.8139
  246MOL0     H33191   9.335   5.970   9.053  2.2505 -0.2758 -0.8269
  246MOL0     H33192  10.086   5.291   9.104  2.7506 -0.8626  3.4221
  246MOL0     H33193  10.292   5.160   9.150 -0.9363 -1.9958 -1.4539
  246MOL0     H33194  10.554   5.183   9.315  0.5830 -0.0343 -3.6244
  246MOL0     H33195  10.710   5.105   9.501  1.5941 -0.7356 -0.4854
  246MOL0     H33196  10.013   6.397   9.604 -0.5984 -0.1981 -1.9160
  246MOL0     H33197   9.958   6.614   9.514 -1.9695 -2.8966  0.5198
  246MOL0     H33198  10.170   6.995   9.272  0.5038  0.8227 -0.4809
  246MOL0     H33199  10.128   7.219   9.223 -0.2194  0.9754  3.0184
  246MOL0     H33200   9.939   7.385   8.912  0.6265 -1.1297 -0.2441
  246MOL0     H33201   9.846   7.237   8.909 -0.0355 -1.6727  2.4849
  246MOL0     H33202   9.646   7.383   9.014 -0.2231 -0.6592  0.5460
  246MOL0     H33203   9.680   7.372   8.847  2.3284 -3.4536  0.5717
  246MOL0     H33204   9.777   7.604   9.015 -0.4123 -0.6558  0.6127
  246MOL0     H33205   9.625   7.587   8.936  0.7127  1.0515  0.9577
  246MOL0     H33206   9.742   7.572   8.720 -0.4227  0.0077 -0.0764
  246MOL0     H33207   9.897   7.594   8.806 -0.2713 -1.9364 -2.3530
  246MOL0     H33208   9.789   7.981   8.753  1.0633 -0.4956  0.0264
  246MOL0     H33209   9.723   7.109   9.081  0.9156  0.5004 -2.9179
  246MOL0     H33210   9.765   6.888   9.143 -0.4812 -0.1156  1.0323
  247MOL0     O33211   3.472   5.078   3.222  1.7733 -0.0242  0.7643
  247MOL0     C33212   3.508   5.185   3.192  0.1266 -0.1943  1.2324
  247MOL0     O33213   3.422   5.292   3.189  0.6736 -1.3907  0.1153
  247MOL0     C33214   3.303   5.281   3.252 -0.1694  0.5416  0.1113
  247MOL0     C33215   3.205   5.203   3.198  1.1226 -0.0724  0.2604
  247MOL0     C33216   3.087   5.190   3.273 -0.6668  0.7276 -0.3022
  247MOL0     C33217   3.054   5.264   3.379  0.6365 -0.6007 -0.2772
  247MOL0     O33218   2.933   5.247   3.448 -0.0856 -0.4818  0.7173
  247MOL0     C33219   2.903   5.114   3.473  0.2546  1.2210  0.0203
  247MOL0     C33220   2.795   5.105   3.581  0.5009 -0.9395  0.6310
  247MOL0     C33221   2.673   5.184   3.542  1.1281  0.0856  1.2821
  247MOL0     C33222   2.534   5.118   3.565  0.2187  0.3263  0.0184
  247MOL0     C33223   2.510   5.068   3.706  0.0864 -0.4479  0.5758
  247MOL0     C33224   2.359   5.028   3.727  0.0821  0.4016  0.2976
  247MOL0     C33225   2.324   5.002   3.876 -0.5748 -0.5520  0.3839
  247MOL0     C33226   2.176   4.985   3.911  1.1506  0.1208 -0.7706
  247MOL0     N33227   2.072   5.065   3.837 -0.7831  0.1746 -0.1864
  247MOL0     C33228   2.015   5.180   3.873  0.3892  0.6993 -0.3178
  247MOL0     C33229   1.926   5.219   3.782  0.9207  0.5781  0.3433
  247MOL0     C33230   1.831   5.337   3.789  0.1060  0.0651  0.2233
  247MOL0     C33231   1.689   5.288   3.826  0.6739  0.0672  0.1428
  247MOL0     C33232   1.650   5.319   3.967 -0.1932  0.6502 -0.3677
  247MOL0     C33233   1.709   5.238   4.074  0.1696 -0.2590  0.1109
  247MOL0     O33234   1.661   5.271   4.209 -0.9095 -0.0503  0.4270
  247MOL0     C33235   1.532   5.239   4.245  0.0727  0.0639 -0.3281
  247MOL0     C33236   1.497   5.112   4.267  0.0777  0.7289  0.9308
  247MOL0     C33237   1.363   5.073   4.280 -0.2092  0.6382 -0.0908
  247MOL0     C33238   1.337   4.925   4.305 -0.8177  0.1490 -0.5063
  247MOL0     C33239   1.256   5.166   4.286 -0.2578 -0.4061  0.3890
  247MOL0     C33240   1.114   5.136   4.295  0.3573  0.2106 -0.2950
  247MOL0     O33241   1.029   5.244   4.315 -0.2429 -0.7531 -0.2441
  247MOL0     C33242   0.900   5.220   4.296  0.8402 -0.1164 -0.0165
  247MOL0     C33243   0.854   5.187   4.162  0.6040 -0.3032 -0.1403
  247MOL0     C33244   0.725   5.184   4.132  0.4428  0.2085 -0.7838
  247MOL0     C33245   0.629   5.184   4.232 -0.7396 -0.6563  0.8766
  247MOL0     O33246   0.499   5.171   4.179 -0.0156 -0.0820 -0.4001
  247MOL0     C33247   0.394   5.205   4.268  0.2341 -0.0195 -0.1779
  247MOL0     C33248   0.262   5.189   4.214  0.2075 -0.0625 -0.1658
  247MOL0     C33249   0.157   5.242   4.309  0.6721  0.7764 -0.2136
  247MOL0     C33250   0.023   5.244   4.239 -0.7327  0.0867  0.3473
  247MOL0     C33251  -0.086   5.213   4.346 -0.1008  0.7147  0.6479
  247MOL0     C33252  -0.084   5.322   4.454  0.3767  0.7586  0.0340
  247MOL0     C33253  -0.212   5.390   4.469 -0.1808 -0.3407  0.5132
  247MOL0     C33254  -0.313   5.302   4.538  0.2741 -0.8464  0.0372
  247MOL0    Cl33255  -0.466   5.410   4.556  0.1928  0.6276  0.4596
  247MOL0     C33256   0.671   5.209   4.368 -0.1088  0.1208 -0.3196
  247MOL0     C33257   0.802   5.224   4.397 -0.0876 -0.4960 -0.0676
  247MOL0     O33258   1.078   5.019   4.282  0.0560  0.1600  0.0668
  247MOL0     C33259   1.300   5.301   4.280  0.0112 -0.4903  0.0437
  247MOL0     C33260   1.436   5.338   4.267 -0.4460 -0.7156  0.3397
  247MOL0     N33261   1.919   5.113   3.693  0.5224 -0.3437  0.8149
  247MOL0     N33262   2.009   5.035   3.725  0.3437  0.9561  0.3384
  247MOL0     C33263   3.150   5.367   3.417 -0.4627 -0.4626 -0.4152
  247MOL0     C33264   3.275   5.378   3.349  0.5939 -0.8033 -1.0937
  247MOL0     C33265   3.646   5.212   3.153 -0.3296  0.9662  0.7121
  247MOL0     C33266   3.697   5.341   3.133 -0.1866  0.4517 -0.4411
  247MOL0     C33267   3.828   5.346   3.095 -0.0077 -0.2673  1.0817
  247MOL0     C33268   3.911   5.237   3.082  0.4396  0.0073 -0.0046
  247MOL0     O33269   4.033   5.272   3.029  0.5980  0.0182 -0.3047
  247MOL0     C33270   4.138   5.262   3.117 -0.1698 -0.0083 -0.2853
  247MOL0     C33271   4.217   5.131   3.087 -0.3550 -0.6573  0.3609
  247MOL0     C33272   4.228   5.117   2.935 -0.4092  0.4308 -0.1618
  247MOL0     C33273   4.330   5.010   2.892 -0.1998 -0.6267 -0.3888
  247MOL0     C33274   4.466   5.047   2.904 -0.3064 -0.4208  0.3005
  247MOL0     C33275   4.584   5.083   2.921  0.3985 -0.1919 -1.7196
  247MOL0     C33276   3.866   5.107   3.107  0.1772  0.5403  0.1334
  247MOL0     C33277   3.726   5.094   3.143 -0.3517 -0.1270  0.0455
  247MOL0     H33278   3.222   5.133   3.117 -3.8414 -1.2081 -0.1368
  247MOL0     H33279   3.026   5.101   3.257  0.7587 -0.7238  1.7562
  247MOL0     H33280   2.858   5.068   3.384 -0.3242  3.1859 -0.7387
  247MOL0     H33281   2.993   5.056   3.494 -2.1194 -3.4386 -1.2222
  247MOL0     H33282   2.770   4.999   3.596 -1.7941 -0.7350 -1.3284
  247MOL0     H33283   2.839   5.140   3.675  0.5825  0.5497  0.0653
  247MOL0     H33284   2.680   5.281   3.594  2.5911  0.2925  0.7323
  247MOL0     H33285   2.673   5.209   3.436  1.6714  2.7741  1.8372
  247MOL0     H33286   2.463   5.199   3.544 -0.8314  0.0071  2.0918
  247MOL0     H33287   2.516   5.027   3.508 -1.4498  0.3468  0.4673
  247MOL0     H33288   2.583   4.990   3.733  0.1307 -0.8862 -0.7435
  247MOL0     H33289   2.535   5.157   3.765  2.1199 -0.0287 -0.7894
  247MOL0     H33290   2.307   5.111   3.678  1.1273  0.8997 -0.0116
  247MOL0     H33291   2.342   4.937   3.669  0.7603  0.6619 -0.3353
  247MOL0     H33292   2.385   4.922   3.919  2.4086  0.1186 -2.2725
  247MOL0     H33293   2.363   5.089   3.929 -2.1501  0.5587 -0.1988
  247MOL0     H33294   2.160   4.987   4.019 -1.5973  2.3543 -1.1058
  247MOL0     H33295   2.144   4.884   3.883 -1.4703  0.4092  0.8385
  247MOL0     H33296   2.035   5.235   3.965 -1.0971 -0.7885  0.9599
  247MOL0     H33297   1.863   5.405   3.868  0.0701 -1.3329  1.4804
  247MOL0     H33298   1.827   5.372   3.685 -1.9556  1.9981  0.8965
  247MOL0     H33299   1.671   5.181   3.808  0.1858  0.2789 -0.7368
  247MOL0     H33300   1.622   5.336   3.752  1.0179 -2.4267 -1.9402
  247MOL0     H33301   1.542   5.300   3.970  0.3274 -2.8840  0.5569
  247MOL0     H33302   1.676   5.422   3.991  1.7329  0.0828  0.2111
  247MOL0     H33303   1.817   5.247   4.059  0.1613 -2.5765 -1.9386
  247MOL0     H33304   1.680   5.133   4.063 -0.5163  0.0041 -0.6731
  247MOL0     H33305   1.582   5.044   4.276  0.4667  1.5217  4.3938
  247MOL0     H33306   1.429   4.877   4.337 -2.2863 -1.0202  2.3690
  247MOL0     H33307   1.269   4.917   4.391 -0.8679 -0.0165 -0.5612
  247MOL0     H33308   1.295   4.881   4.214 -2.1760 -0.0105  0.1671
  247MOL0     H33309   0.923   5.189   4.078 -1.0339  0.2027 -1.5494
  247MOL0     H33310   0.693   5.157   4.032 -0.9696 -3.5978  0.5142
  247MOL0     H33311   0.403   5.140   4.355 -0.4269 -1.5761 -1.2264
  247MOL0     H33312   0.406   5.307   4.306 -0.5737  1.0229 -2.5336
  247MOL0     H33313   0.263   5.243   4.118 -1.2896 -0.3010 -0.3338
  247MOL0     H33314   0.229   5.087   4.192  0.6026  0.0607 -1.4511
  247MOL0     H33315   0.181   5.341   4.347 -0.8027  0.7716  0.8274
  247MOL0     H33316   0.146   5.168   4.390  0.6743  1.7452  0.6926
  247MOL0     H33317  -0.002   5.341   4.195 -0.5705 -0.9473 -2.1547
  247MOL0     H33318   0.003   5.174   4.158 -2.4096  0.7036  0.1831
  247MOL0     H33319  -0.080   5.111   4.385 -4.3836 -0.0763 -0.3110
  247MOL0     H33320  -0.179   5.212   4.288  1.3269  0.6947 -1.7745
  247MOL0     H33321  -0.044   5.287   4.549  0.9458  1.1351 -0.0603
  247MOL0     H33322  -0.012   5.401   4.431 -1.4912  2.2936 -0.9023
  247MOL0     H33323  -0.249   5.413   4.369  0.8305  0.6882  0.3502
  247MOL0     H33324  -0.202   5.483   4.525 -2.8842 -0.2088  0.9150
  247MOL0     H33325  -0.286   5.285   4.643 -4.1135  0.2027  1.5775
  247MOL0     H33326  -0.322   5.206   4.487  1.7294 -1.9310  1.6971
  247MOL0     H33327   0.589   5.219   4.439  0.2740 -3.7625  0.9026
  247MOL0     H33328   0.843   5.249   4.495  0.2894 -0.6484 -0.1829
  247MOL0     H33329   1.221   5.372   4.302  0.5909  0.3668 -0.5950
  247MOL0     H33330   1.466   5.442   4.262  0.3221 -0.8832  1.1144
  247MOL0     H33331   3.127   5.435   3.498 -1.8653  0.4728 -1.5645
  247MOL0     H33332   3.342   5.458   3.379  0.9735 -0.4438 -2.7645
  247MOL0     H33333   3.645   5.436   3.139  0.7141  0.8620  1.6092
  247MOL0     H33334   3.860   5.441   3.054 -2.9050  0.2189 -0.3711
  247MOL0     H33335   4.215   5.337   3.097  0.0300 -0.5275 -1.6007
  247MOL0     H33336   4.103   5.283   3.218  1.3146  0.1618  0.2222
  247MOL0     H33337   4.165   5.042   3.122  2.3510 -3.0198 -1.1463
  247MOL0     H33338   4.317   5.131   3.131 -1.1427 -1.4469  2.2535
  247MOL0     H33339   4.256   5.206   2.877  0.4195  0.5703  0.4345
  247MOL0     H33340   4.131   5.086   2.894 -0.7983  0.6009  0.6043
  247MOL0     H33341   4.303   4.998   2.787 -2.7322 -2.3670  0.3737
  247MOL0     H33342   4.314   4.912   2.937  2.0016 -1.8009 -1.9761
  247MOL0     H33343   4.683   5.116   2.944  0.1854 -0.6498 -0.0118
  247MOL0     H33344   3.928   5.019   3.100 -1.1469 -0.5642  1.4682
  247MOL0     H33345   3.685   4.995   3.157 -0.3585 -0.3188 -1.1960
  248MOL0     O33346  10.134   6.759  10.639  0.5731 -0.1803 -0.5133
  248MOL0     C33347  10.136   6.647  10.679 -0.4078  1.1366 -0.3353
  248MOL0     O33348  10.073   6.543  10.612 -0.0392 -0.3222 -0.0371
  248MOL0     C33349   9.964   6.560  10.518 -0.7114  0.3200  0.1602
  248MOL0     C33350   9.875   6.659  10.527 -0.4799  0.3327  0.3220
  248MOL0     C33351   9.767   6.678  10.443 -0.8968 -0.1040  0.3088
  248MOL0     C33352   9.743   6.579  10.348  0.2011 -0.6975  0.7357
  248MOL0     O33353   9.632   6.589  10.267  0.4945 -0.0046  0.1147
  248MOL0     C33354   9.509   6.627  10.332 -0.6926  0.0723  0.3517
  248MOL0     C33355   9.398   6.520  10.302  0.0769 -0.0308 -0.3408
  248MOL0     C33356   9.266   6.581  10.358 -0.6766  0.1406 -0.1722
  248MOL0     C33357   9.143   6.486  10.331  0.4433 -0.2291  0.1637
  248MOL0     C33358   9.003   6.552  10.326  0.3703 -0.2723 -0.6946
  248MOL0     C33359   8.904   6.444  10.293 -0.0544  0.8053 -0.6451
  248MOL0     C33360   8.765   6.483  10.348  0.0438 -0.8004 -0.0350
  248MOL0     C33361   8.665   6.373  10.318  0.2743  0.2420  0.5507
  248MOL0     N33362   8.526   6.397  10.362  0.3399  0.5477  0.4324
  248MOL0     C33363   8.442   6.482  10.290 -1.0913  0.2175 -0.7291
  248MOL0     C33364   8.317   6.449  10.330 -0.3578  0.4554  0.1117
  248MOL0     C33365   8.213   6.530  10.259  0.1606  0.0331  0.4386
  248MOL0     C33366   8.063   6.484  10.307 -0.1641  0.4049  0.2573
  248MOL0     C33367   8.024   6.346  10.267 -0.0711  0.9522 -0.2239
  248MOL0     C33368   7.887   6.325  10.209  0.7595  0.2182 -0.0884
  248MOL0     O33369   7.852   6.410  10.093  0.1329 -0.1801  0.2473
  248MOL0     C33370   7.762   6.360   9.999  0.1954 -0.5993 -0.1372
  248MOL0     C33371   7.754   6.413   9.871  0.3373 -0.3718 -0.0974
  248MOL0     C33372   7.657   6.377   9.775  0.2024  0.0967 -1.1470
  248MOL0     C33373   7.662   6.439   9.633 -0.9028 -0.0822  0.4940
  248MOL0     C33374   7.559   6.282   9.818  0.5340 -0.8366  0.2721
  248MOL0     C33375   7.463   6.227   9.720  1.2471 -0.4872  0.5992
  248MOL0     O33376   7.386   6.306   9.644  0.2085 -0.2004 -1.0664
  248MOL0     C33377   7.306   6.265   9.549  0.7916 -0.8136  0.0435
  248MOL0     C33378   7.333   6.314   9.421  0.2933  0.3316  0.2559
  248MOL0     C33379   7.246   6.290   9.314  0.5566 -0.0006 -0.5121
  248MOL0     C33380   7.135   6.200   9.339 -1.1380 -0.3549  0.8074
  248MOL0     O33381   7.073   6.148   9.225  0.0845 -0.1560 -0.4003
  248MOL0     C33382   7.027   6.253   9.132 -0.0181 -0.0795 -0.9454
  248MOL0     C33383   6.921   6.190   9.036  0.0798  0.3321 -0.1167
  248MOL0     C33384   6.864   6.294   8.937 -0.5595  1.0459 -0.8309
  248MOL0     C33385   6.789   6.229   8.825  0.4937  0.5663 -0.3124
  248MOL0     C33386   6.643   6.263   8.826  0.7699 -0.4725  0.1963
  248MOL0     C33387   6.552   6.157   8.760  0.0216 -0.2444  1.1203
  248MOL0     C33388   6.554   6.023   8.832 -0.1029  0.5337  0.2593
  248MOL0     C33389   6.448   5.931   8.786  0.3546  0.4047  0.7012
  248MOL0    Cl33390   6.295   6.004   8.846  0.0249  0.2258 -0.1091
  248MOL0     C33391   7.108   6.158   9.462 -0.3673 -0.0198 -0.0464
  248MOL0     C33392   7.186   6.193   9.576  0.3586 -0.6036  0.0354
  248MOL0     O33393   7.457   6.108   9.718  0.3389 -0.1726  0.2213
  248MOL0     C33394   7.560   6.231   9.952 -0.5227  0.1644  1.4428
  248MOL0     C33395   7.658   6.273  10.037  1.0937  0.0626 -0.6525
  248MOL0     N33396   8.325   6.347  10.425 -0.7581 -0.5810 -0.2024
  248MOL0     N33397   8.454   6.321  10.447  0.3374 -0.5213 -0.1141
  248MOL0     C33398   9.839   6.484  10.323  0.4665  1.2601  0.2039
  248MOL0     C33399   9.949   6.458  10.413  0.7343  0.1878  0.3685
  248MOL0     C33400  10.211   6.625  10.803  0.7239  0.2689 -0.3966
  248MOL0     C33401  10.286   6.725  10.860  0.3005  0.4846  0.2857
  248MOL0     C33402  10.318   6.714  10.998  0.3065 -0.1341  0.4360
  248MOL0     C33403  10.292   6.596  11.067 -0.1363  0.9353  0.0939
  248MOL0     O33404  10.355   6.593  11.194 -0.4518  0.4313  0.1666
  248MOL0     C33405  10.298   6.505  11.290 -0.7136 -0.0454 -0.4152
  248MOL0     C33406  10.376   6.521  11.419 -0.0870 -0.3237 -0.0062
  248MOL0     C33407  10.315   6.415  11.525 -0.7303 -0.3872  0.6600
  248MOL0     C33408  10.234   6.488  11.621 -0.4889 -1.1897  0.0981
  248MOL0     C33409  10.106   6.537  11.568 -0.5412  0.1293  0.8276
  248MOL0     C33410   9.997   6.577  11.539  0.6722  0.1896  0.3712
  248MOL0     C33411  10.238   6.484  11.009  0.2897 -0.0752  0.3499
  248MOL0     C33412  10.200   6.506  10.874 -0.4293 -0.6235 -0.1879
  248MOL0     H33413   9.876   6.733  10.606 -2.4046  0.4879  0.2489
  248MOL0     H33414   9.703   6.762  10.468 -1.8530 -0.6538 -0.2667
  248MOL0     H33415   9.529   6.623  10.439  0.9374 -3.6577  0.0670
  248MOL0     H33416   9.470   6.723  10.297 -2.5662 -0.0017  2.1015
  248MOL0     H33417   9.407   6.502  10.194 -0.0859  0.5481 -0.4584
  248MOL0     H33418   9.431   6.428  10.350  4.0390  1.6420  0.5467
  248MOL0     H33419   9.277   6.597  10.465 -0.8216  0.6940 -0.2369
  248MOL0     H33420   9.243   6.677  10.310 -0.9192  0.3297  0.3209
  248MOL0     H33421   9.154   6.418  10.246 -0.0650  1.0197 -0.9446
  248MOL0     H33422   9.131   6.410  10.409  1.3346  1.0158  1.5674
  248MOL0     H33423   8.978   6.597  10.422 -3.0888 -1.0788 -1.0595
  248MOL0     H33424   8.995   6.640  10.261  0.8162  0.6233  0.4475
  248MOL0     H33425   8.905   6.423  10.186 -0.9301  1.9356 -0.8981
  248MOL0     H33426   8.931   6.358  10.355  0.5921  1.5090  0.0659
  248MOL0     H33427   8.760   6.502  10.456  0.9735  0.6092 -0.2162
  248MOL0     H33428   8.733   6.584  10.318 -0.8162 -0.5213  1.6759
  248MOL0     H33429   8.697   6.282  10.369 -3.5149 -0.1078  2.6554
  248MOL0     H33430   8.661   6.353  10.211 -2.4089 -1.4671  0.8980
  248MOL0     H33431   8.463   6.534  10.198 -0.0411  1.7318  0.3193
  248MOL0     H33432   8.230   6.636  10.274  3.8904 -0.1266 -1.6228
  248MOL0     H33433   8.227   6.503  10.154  1.4635 -0.8521  0.8195
  248MOL0     H33434   7.993   6.553  10.259 -2.7778  0.1098  3.2896
  248MOL0     H33435   8.055   6.517  10.411  0.6540  3.0338 -0.4284
  248MOL0     H33436   8.059   6.273  10.340 -0.1966  0.0427 -1.0495
  248MOL0     H33437   8.096   6.331  10.186  1.4437  0.6197  1.1263
  248MOL0     H33438   7.805   6.350  10.276 -0.8936 -1.4371 -1.3561
  248MOL0     H33439   7.887   6.219  10.182  1.4619  0.5454 -1.4737
  248MOL0     H33440   7.829   6.490   9.858 -0.5811  0.4563 -0.6792
  248MOL0     H33441   7.644   6.351   9.570 -1.5107 -2.0418  3.2584
  248MOL0     H33442   7.586   6.516   9.614 -1.5214 -0.8795 -0.3430
  248MOL0     H33443   7.753   6.497   9.615 -3.4584  3.6177 -2.0520
  248MOL0     H33444   7.412   6.383   9.395 -1.4935  2.7810  0.9467
  248MOL0     H33445   7.276   6.325   9.216  0.0721  1.4962 -0.1529
  248MOL0     H33446   6.974   6.333   9.185  0.5195 -1.5865  2.1089
  248MOL0     H33447   7.113   6.281   9.072  0.8051 -0.7148 -0.0932
  248MOL0     H33448   6.974   6.108   8.987 -0.8482  1.2986 -2.9080
  248MOL0     H33449   6.840   6.142   9.093 -0.7172  0.0309 -1.4571
  248MOL0     H33450   6.948   6.354   8.900 -0.3257  0.1337 -1.8112
  248MOL0     H33451   6.794   6.359   8.991 -0.9641  0.4618 -0.6485
  248MOL0     H33452   6.834   6.254   8.728  2.2900 -2.7786 -0.5138
  248MOL0     H33453   6.806   6.121   8.835  1.7647  0.4771 -2.6552
  248MOL0     H33454   6.636   6.354   8.765  3.3132  0.5128  1.2236
  248MOL0     H33455   6.599   6.278   8.925  1.4185 -0.1904  0.4441
  248MOL0     H33456   6.456   6.207   8.742  0.4731  0.3647  0.3702
  248MOL0     H33457   6.593   6.138   8.661 -0.5963  0.5417  0.7021
  248MOL0     H33458   6.545   6.043   8.939  1.3051 -1.2948  0.7630
  248MOL0     H33459   6.651   5.973   8.822 -0.6123 -0.2872 -0.6950
  248MOL0     H33460   6.467   5.829   8.821 -3.6705 -1.3146 -1.4413
  248MOL0     H33461   6.449   5.931   8.677 -0.3984 -4.5721  0.4707
  248MOL0     H33462   7.025   6.090   9.482  0.6118 -1.1544  0.2495
  248MOL0     H33463   7.142   6.170   9.673 -0.6632  2.9045  0.5404
  248MOL0     H33464   7.484   6.160   9.981 -0.0415 -0.3339  1.5147
  248MOL0     H33465   7.642   6.239  10.139 -0.8230 -1.0298 -1.2762
  248MOL0     H33466   9.818   6.410  10.247 -1.3224 -0.3107  2.1179
  248MOL0     H33467  10.019   6.376  10.408 -0.1497 -0.7762  2.5818
  248MOL0     H33468  10.303   6.824  10.817 -2.3741  1.1895  0.6579
  248MOL0     H33469  10.381   6.792  11.041 -0.1162  0.9099 -0.7934
  248MOL0     H33470  10.196   6.536  11.312 -1.2486 -3.1522  2.3086
  248MOL0     H33471  10.299   6.399  11.263 -5.0423 -0.3307 -0.1702
  248MOL0     H33472  10.373   6.627  11.447  2.3966  0.1983 -1.3851
  248MOL0     H33473  10.483   6.506  11.402  0.1669  2.6531 -1.7280
  248MOL0     H33474  10.401   6.362  11.568 -0.2292  0.0661  0.2413
  248MOL0     H33475  10.251   6.341  11.477 -0.1760 -1.1358  1.0603
  248MOL0     H33476  10.288   6.577  11.654 -2.8008  1.0425 -1.6815
  248MOL0     H33477  10.211   6.419  11.703 -0.3607  1.5153  2.5577
  248MOL0     H33478   9.897   6.609  11.519  1.2096  1.7797  0.0589
  248MOL0     H33479  10.228   6.380  11.039 -0.9272 -0.5112 -1.3524
  248MOL0     H33480  10.151   6.423  10.825  0.8420 -0.0631 -2.5175
  249MOL0     O33481   2.753   2.361   1.783  0.1349  0.2409  0.8076
  249MOL0     C33482   2.796   2.385   1.894 -0.1173  0.4134 -0.8145
  249MOL0     O33483   2.723   2.395   2.011 -0.1249 -0.2335 -0.5875
  249MOL0     C33484   2.585   2.397   2.012 -0.6417 -0.7045  0.3313
  249MOL0     C33485   2.510   2.463   1.912 -0.5693 -0.6045  0.6020
  249MOL0     C33486   2.377   2.463   1.916  0.0684 -1.1030 -0.3194
  249MOL0     C33487   2.303   2.407   2.020 -0.8495 -0.8360  0.1447
  249MOL0     O33488   2.168   2.418   1.997 -1.0477  1.2239 -0.5142
  249MOL0     C33489   2.083   2.326   2.070  0.1889  0.5223  0.2876
  249MOL0     C33490   2.011   2.399   2.188  0.9774  0.4358 -0.3336
  249MOL0     C33491   2.114   2.431   2.292  0.1136 -1.0429  0.5428
  249MOL0     C33492   2.047   2.487   2.416  0.0019  0.5899 -0.0705
  249MOL0     C33493   2.135   2.502   2.545 -0.2374  0.5838 -0.0033
  249MOL0     C33494   2.065   2.560   2.664  0.2486  1.0899  1.1886
  249MOL0     C33495   2.157   2.589   2.782  0.0595  0.4655  0.9919
  249MOL0     C33496   2.093   2.649   2.896  0.3450 -0.7452 -1.0346
  249MOL0     N33497   2.188   2.693   3.004 -0.2584 -0.9557  0.0895
  249MOL0     C33498   2.308   2.632   3.037  0.2303 -0.4197 -0.0677
  249MOL0     C33499   2.369   2.733   3.112  0.4563 -0.3366 -0.3447
  249MOL0     C33500   2.509   2.715   3.163  0.1869 -0.1749 -1.2385
  249MOL0     C33501   2.514   2.637   3.300  0.1656 -0.4963  0.5792
  249MOL0     C33502   2.478   2.722   3.419 -0.9843  0.1377 -0.3766
  249MOL0     C33503   2.484   2.645   3.552  0.2685 -0.1745  0.3445
  249MOL0     O33504   2.408   2.715   3.656 -0.8066 -0.2796 -0.4903
  249MOL0     C33505   2.300   2.657   3.704 -1.3409  0.2323 -0.2596
  249MOL0     C33506   2.303   2.575   3.818  0.2623  0.3178  0.6067
  249MOL0     C33507   2.198   2.497   3.867 -0.3929  0.3880  1.1576
  249MOL0     C33508   2.220   2.408   3.988  0.1784 -0.4106  0.5500
  249MOL0     C33509   2.070   2.506   3.797 -0.0193 -0.1084  1.0643
  249MOL0     C33510   1.947   2.451   3.845 -0.4389  0.5561  0.9596
  249MOL0     O33511   1.838   2.490   3.767  0.2291 -0.0881  0.1769
  249MOL0     C33512   1.715   2.445   3.792  1.4325  0.6739 -0.7309
  249MOL0     C33513   1.663   2.452   3.921  0.3122  0.1734 -0.3953
  249MOL0     C33514   1.534   2.406   3.947 -0.5741 -0.0196  0.3476
  249MOL0     C33515   1.455   2.362   3.837  0.1603  0.0007 -0.3148
  249MOL0     O33516   1.324   2.336   3.879 -0.0231  0.1447 -0.6452
  249MOL0     C33517   1.222   2.314   3.777 -0.5405 -0.0506  0.1255
  249MOL0     C33518   1.081   2.313   3.837 -0.6804 -0.1000  0.2122
  249MOL0     C33519   0.976   2.309   3.722  0.1407 -0.0137  0.6688
  249MOL0     C33520   0.823   2.338   3.767 -0.1653 -0.6228 -0.7789
  249MOL0     C33521   0.710   2.337   3.654  0.2374  0.6814  1.0247
  249MOL0     C33522   0.734   2.454   3.563  0.4031  0.3224  0.5784
  249MOL0     C33523   0.634   2.572   3.587  0.3130  0.4232  0.2197
  249MOL0     C33524   0.700   2.673   3.680 -0.1585 -0.3003 -0.8099
  249MOL0    Cl33525   0.859   2.738   3.607  0.2433 -0.1550 -0.6343
  249MOL0     C33526   1.503   2.360   3.703 -0.6042  0.1329  0.5711
  249MOL0     C33527   1.633   2.410   3.681  0.0688 -1.1573  0.2935
  249MOL0     O33528   1.940   2.371   3.941 -0.4491 -0.1071  0.0334
  249MOL0     C33529   2.070   2.585   3.676  0.2955 -0.1471  0.3929
  249MOL0     C33530   2.188   2.651   3.630 -0.3588 -0.6223 -0.3853
  249MOL0     N33531   2.291   2.849   3.113 -0.5790  0.2240  0.5385
  249MOL0     N33532   2.180   2.816   3.059 -0.1166 -0.3925 -0.5445
  249MOL0     C33533   2.382   2.346   2.119  0.9413 -0.5802 -0.6576
  249MOL0     C33534   2.519   2.337   2.114  0.1788 -0.0196  0.3847
  249MOL0     C33535   2.947   2.410   1.915 -0.1300 -0.5370 -0.0148
  249MOL0     C33536   3.030   2.420   1.799 -0.1433 -0.5751 -0.5279
  249MOL0     C33537   3.166   2.439   1.810  0.1176  0.1824  0.4345
  249MOL0     C33538   3.222   2.458   1.936  0.3433 -0.5710 -0.1446
  249MOL0     O33539   3.352   2.493   1.960 -0.1677 -0.5434  0.0986
  249MOL0     C33540   3.444   2.544   1.867 -0.5855 -0.6607  0.2200
  249MOL0     C33541   3.581   2.500   1.923 -0.0108  0.3936  0.4122
  249MOL0     C33542   3.603   2.546   2.068  0.0843 -0.4926  0.1280
  249MOL0     C33543   3.743   2.501   2.106 -0.2054  0.9437 -0.2434
  249MOL0     C33544   3.814   2.599   2.194 -0.3606  0.6883  0.8020
  249MOL0     C33545   3.878   2.672   2.269  0.7493  0.4919 -0.0546
  249MOL0     C33546   3.139   2.443   2.057  0.7445 -0.0893  0.0848
  249MOL0     C33547   2.996   2.424   2.047 -0.4803 -0.4569  0.1406
  249MOL0     H33548   2.561   2.519   1.834 -2.2775  0.8451  0.4608
  249MOL0     H33549   2.330   2.524   1.840  2.7590  1.0202 -0.4263
  249MOL0     H33550   2.019   2.283   1.993 -1.1241 -0.2783  1.7679
  249MOL0     H33551   2.143   2.246   2.115  2.1790 -0.1089 -3.1463
  249MOL0     H33552   1.958   2.490   2.160  0.3738  0.6093  1.2641
  249MOL0     H33553   1.931   2.337   2.229  2.2024  0.1209  1.7741
  249MOL0     H33554   2.170   2.341   2.319  1.8285  0.1432  1.1242
  249MOL0     H33555   2.185   2.508   2.259  0.0953 -1.2973 -0.0943
  249MOL0     H33556   2.008   2.587   2.393  2.6535  1.3537 -1.7202
  249MOL0     H33557   1.962   2.423   2.442  0.9460 -0.4844  0.4198
  249MOL0     H33558   2.179   2.403   2.561 -2.8103 -0.5910  0.2781
  249MOL0     H33559   2.224   2.561   2.520 -0.1203 -0.0644 -1.1729
  249MOL0     H33560   2.015   2.651   2.630  2.2736  1.4292 -1.1139
  249MOL0     H33561   1.985   2.486   2.679 -0.3410  0.2047 -4.1782
  249MOL0     H33562   2.208   2.494   2.806  0.7052  0.5547  0.0167
  249MOL0     H33563   2.233   2.661   2.752 -0.4033  0.3843 -0.4135
  249MOL0     H33564   2.019   2.574   2.926 -0.7621  0.2659 -1.1863
  249MOL0     H33565   2.036   2.737   2.865  0.2388 -0.6435 -0.5673
  249MOL0     H33566   2.338   2.530   3.012  5.1832  0.2827  1.7661
  249MOL0     H33567   2.567   2.679   3.078  1.0570  2.0592 -1.6348
  249MOL0     H33568   2.544   2.814   3.193 -1.1850 -0.1991  0.6178
  249MOL0     H33569   2.620   2.610   3.306  0.0184 -0.9740  1.1222
  249MOL0     H33570   2.464   2.539   3.299  2.2060 -1.6202 -0.9576
  249MOL0     H33571   2.383   2.769   3.393 -1.5741  0.2975  1.8206
  249MOL0     H33572   2.547   2.805   3.436 -0.7538 -0.0328 -0.4828
  249MOL0     H33573   2.586   2.623   3.585  1.1712 -0.0356 -2.1581
  249MOL0     H33574   2.429   2.552   3.530 -0.5499  0.3557  0.0863
  249MOL0     H33575   2.396   2.575   3.875  1.3387  1.8066 -1.0336
  249MOL0     H33576   2.158   2.445   4.069  1.2327 -1.4917  1.9030
  249MOL0     H33577   2.193   2.304   3.970  0.2649 -0.9418  3.1097
  249MOL0     H33578   2.326   2.409   4.019  0.6698 -0.9750 -1.0208
  249MOL0     H33579   1.733   2.472   4.001  1.1349 -1.0360 -0.7941
  249MOL0     H33580   1.491   2.394   4.046 -0.2867  3.3901  0.9834
  249MOL0     H33581   1.228   2.399   3.709  0.0544 -1.7367 -2.0679
  249MOL0     H33582   1.237   2.224   3.715  0.2065 -0.0822  0.3459
  249MOL0     H33583   1.071   2.220   3.894  0.1361 -2.1907 -2.7984
  249MOL0     H33584   1.060   2.401   3.898  1.6305 -0.0192  0.9936
  249MOL0     H33585   0.976   2.209   3.678 -3.5392  0.8309 -1.6652
  249MOL0     H33586   1.009   2.376   3.642 -1.2551  1.1624  1.0301
  249MOL0     H33587   0.802   2.271   3.850  1.6437  0.2696  0.4556
  249MOL0     H33588   0.822   2.437   3.813 -1.2562  1.8858 -5.5308
  249MOL0     H33589   0.613   2.351   3.703  0.3493  0.2015  1.3850
  249MOL0     H33590   0.722   2.242   3.602 -1.0496 -0.3637  2.5236
  249MOL0     H33591   0.837   2.488   3.558  0.1342  1.1199  0.3623
  249MOL0     H33592   0.714   2.414   3.463 -0.1640  0.5532  0.5971
  249MOL0     H33593   0.538   2.534   3.623 -0.0928  0.1535 -1.0777
  249MOL0     H33594   0.607   2.609   3.488 -3.5215  0.1594  0.9964
  249MOL0     H33595   0.717   2.637   3.782  0.1131 -1.3860 -1.2334
  249MOL0     H33596   0.633   2.760   3.687  0.3310  0.0109  0.1526
  249MOL0     H33597   1.443   2.330   3.618 -0.5101 -0.6381  0.7765
  249MOL0     H33598   1.678   2.409   3.583 -1.3916  2.0972 -0.5317
  249MOL0     H33599   1.989   2.583   3.603 -0.1858 -0.4351  0.9224
  249MOL0     H33600   2.190   2.699   3.532  2.4381  1.7448  0.6801
  249MOL0     H33601   2.338   2.296   2.205  1.0475  2.8638  1.5533
  249MOL0     H33602   2.583   2.274   2.176  0.7324  0.2586  0.1046
  249MOL0     H33603   2.988   2.414   1.698  1.3263 -0.3803 -1.1738
  249MOL0     H33604   3.221   2.458   1.719  1.1031  1.7847  1.3094
  249MOL0     H33605   3.421   2.499   1.770 -1.9543 -1.8188  1.0571
  249MOL0     H33606   3.435   2.653   1.866 -2.2095 -0.7763 -0.2681
  249MOL0     H33607   3.667   2.547   1.873  1.7807 -1.2502  1.7653
  249MOL0     H33608   3.582   2.392   1.905 -0.7916  0.1018  1.9348
  249MOL0     H33609   3.531   2.505   2.139 -0.5891 -0.2962 -0.4245
  249MOL0     H33610   3.592   2.654   2.074 -0.5028 -0.4235 -1.6267
  249MOL0     H33611   3.811   2.489   2.021 -0.9088  2.7212 -1.1136
  249MOL0     H33612   3.738   2.405   2.159 -0.4377  1.4999  0.7738
  249MOL0     H33613   3.953   2.720   2.329  2.1693 -1.1669 -0.4287
  249MOL0     H33614   3.182   2.447   2.157 -0.1867 -1.2544  0.5599
  249MOL0     H33615   2.927   2.422   2.131 -0.6803 -1.7564 -0.0324
  250MOL0     O33616   2.250  10.356   0.111 -0.2144 -0.1797 -0.0578
  250MOL0     C33617   2.277  10.418   0.213 -0.2096 -0.3333  0.2768
  250MOL0     O33618   2.314  10.360   0.333 -0.4720 -0.1732  0.4745
  250MOL0     C33619   2.281  10.231   0.348  0.3954  0.3798 -0.6202
  250MOL0     C33620   2.184  10.182   0.438 -0.3546 -0.8764  0.4109
  250MOL0     C33621   2.159  10.042   0.448 -0.3935  0.0479  0.4080
  250MOL0     C33622   2.224   9.947   0.366 -0.3993  0.5798  0.1222
  250MOL0     O33623   2.202   9.819   0.402  0.2792  0.4065 -1.5540
  250MOL0     C33624   2.160   9.730   0.302 -0.1721  1.4211  0.3028
  250MOL0     C33625   2.073   9.617   0.365  0.1979  0.5693 -0.4793
  250MOL0     C33626   1.935   9.660   0.386 -0.3272  0.3333 -0.3118
  250MOL0     C33627   1.856   9.540   0.458  0.0379 -0.3097 -0.1832
  250MOL0     C33628   1.703   9.555   0.449 -0.1546  0.2529 -0.0685
  250MOL0     C33629   1.644   9.420   0.468 -0.8409 -0.7084  0.0203
  250MOL0     C33630   1.505   9.438   0.522  0.3763 -0.3673 -0.0350
  250MOL0     C33631   1.405   9.510   0.430 -0.0886 -0.3657  0.4080
  250MOL0     N33632   1.271   9.497   0.480 -0.2517 -0.6833 -1.1356
  250MOL0     C33633   1.186   9.396   0.439  0.0026  0.2560  0.5024
  250MOL0     C33634   1.069   9.440   0.487 -0.0435  1.1363  0.6554
  250MOL0     C33635   0.938   9.371   0.474  0.2189 -0.3292 -0.0295
  250MOL0     C33636   0.945   9.238   0.553 -0.0065  0.1900 -0.5118
  250MOL0     C33637   0.821   9.152   0.534 -0.0045  0.1818 -0.3065
  250MOL0     C33638   0.693   9.230   0.557  0.4536 -0.2140  0.5508
  250MOL0     O33639   0.637   9.290   0.435  1.1512  0.0414  0.0178
  250MOL0     C33640   0.548   9.222   0.352 -0.4194  0.0066  0.2081
  250MOL0     C33641   0.493   9.091   0.370 -0.3087 -0.0146  0.1166
  250MOL0     C33642   0.409   9.038   0.268  0.1169  0.1242  0.2763
  250MOL0     C33643   0.356   8.900   0.315  0.1789  0.3013 -0.1622
  250MOL0     C33644   0.385   9.114   0.151  0.0746  0.1648  1.0848
  250MOL0     C33645   0.281   9.063   0.048  0.0935 -0.0682  0.9017
  250MOL0     O33646   0.265   8.922   0.026 -0.0957 -0.3909 -0.0695
  250MOL0     C33647   0.177   8.878  -0.066  0.9329  0.8161 -1.2418
  250MOL0     C33648   0.206   8.837  -0.194  0.4727 -0.2551 -0.4877
  250MOL0     C33649   0.098   8.805  -0.283 -0.1343  0.5658  0.3297
  250MOL0     C33650  -0.037   8.808  -0.251  0.4898  0.6345 -0.2495
  250MOL0     O33651  -0.128   8.758  -0.344  0.2056 -0.3284  0.2693
  250MOL0     C33652  -0.263   8.758  -0.311 -1.0878 -0.7306  0.2234
  250MOL0     C33653  -0.349   8.745  -0.437 -1.4295  0.1623  0.8010
  250MOL0     C33654  -0.494   8.776  -0.403  0.3293 -0.1272  0.0670
  250MOL0     C33655  -0.564   8.827  -0.533  0.3972 -0.6187  0.0251
  250MOL0     C33656  -0.710   8.866  -0.498  0.6835  0.4029  0.0960
  250MOL0     C33657  -0.771   8.964  -0.606 -1.8540 -0.8330 -0.5307
  250MOL0     C33658  -0.903   9.020  -0.561  0.4055  0.3255  0.6059
  250MOL0     C33659  -0.938   9.147  -0.630 -0.0783  0.1429 -0.8960
  250MOL0    Cl33660  -1.102   9.201  -0.552  0.0480 -0.0633  0.2725
  250MOL0     C33661  -0.059   8.838  -0.117  0.5881 -0.3871 -0.3390
  250MOL0     C33662   0.042   8.862  -0.020 -0.0750 -0.9062  0.1029
  250MOL0     O33663   0.217   9.152  -0.008  0.4157 -1.0953 -0.1544
  250MOL0     C33664   0.446   9.237   0.125  0.1864  0.0481  0.4564
  250MOL0     C33665   0.522   9.287   0.230  1.3213 -1.2753  0.1586
  250MOL0     N33666   1.089   9.552   0.566  0.0768 -0.5753 -0.6681
  250MOL0     N33667   1.216   9.587   0.561 -0.3312  0.1399 -0.1797
  250MOL0     C33668   2.332   9.993   0.290 -0.3719  0.3291  0.9815
  250MOL0     C33669   2.351  10.133   0.277 -0.5338  1.1387 -0.0800
  250MOL0     C33670   2.295  10.569   0.210  0.4125 -0.2078  0.3286
  250MOL0     C33671   2.258  10.645   0.095  0.4566 -0.2406  0.1678
  250MOL0     C33672   2.285  10.785   0.082 -0.7923  0.4715  0.6330
  250MOL0     C33673   2.344  10.851   0.181  0.3564  0.3924 -0.4430
  250MOL0     O33674   2.355  10.981   0.159 -0.1656 -0.8568 -0.3951
  250MOL0     C33675   2.337  11.066   0.267  0.1843 -0.1694  0.4775
  250MOL0     C33676   2.311  11.211   0.206  0.0703  0.2380  0.4447
  250MOL0     C33677   2.185  11.202   0.114  0.1825  0.0351 -0.1626
  250MOL0     C33678   2.045  11.162   0.182  0.3818  0.0673  0.2535
  250MOL0     C33679   2.037  11.199   0.318  0.1698 -0.3121 -0.7073
  250MOL0     C33680   2.019  11.219   0.435  0.2411 -0.2878 -0.1228
  250MOL0     C33681   2.370  10.778   0.305  0.0011  0.3980  0.2028
  250MOL0     C33682   2.350  10.637   0.319 -0.2726  0.9357 -0.6411
  250MOL0     H33683   2.125  10.244   0.505  0.9173  0.4131  0.3696
  250MOL0     H33684   2.081  10.011   0.517 -0.8276 -3.6208 -1.4893
  250MOL0     H33685   2.105   9.779   0.221  0.9987 -0.9086 -2.0767
  250MOL0     H33686   2.255   9.709   0.252 -1.6938  3.7836 -4.1074
  250MOL0     H33687   2.067   9.528   0.302  1.0579 -0.1687  0.4521
  250MOL0     H33688   2.123   9.592   0.459 -2.5907  2.3216  1.6679
  250MOL0     H33689   1.946   9.747   0.452  0.2763 -1.8522  2.7056
  250MOL0     H33690   1.883   9.674   0.291  0.7215 -3.2627 -1.5621
  250MOL0     H33691   1.884   9.438   0.429  1.3135 -0.7579  2.3598
  250MOL0     H33692   1.891   9.545   0.561  1.4898  0.5250 -0.6966
  250MOL0     H33693   1.674   9.625   0.529  1.3197  1.3574 -0.4675
  250MOL0     H33694   1.664   9.600   0.357  0.5557 -1.7586 -1.4160
  250MOL0     H33695   1.651   9.360   0.377  4.5153  0.8480 -0.9200
  250MOL0     H33696   1.702   9.360   0.539  1.0084 -1.0915 -1.7218
  250MOL0     H33697   1.474   9.338   0.556  0.9118  0.5078  3.4712
  250MOL0     H33698   1.509   9.489   0.619  3.5557  0.3960 -0.4641
  250MOL0     H33699   1.421   9.469   0.330  0.2824 -0.5746  0.5479
  250MOL0     H33700   1.430   9.617   0.434 -1.2113 -0.1369  1.7098
  250MOL0     H33701   1.203   9.296   0.398  2.4122  0.9917 -0.4928
  250MOL0     H33702   0.849   9.426   0.506 -0.8005 -1.3996 -0.9169
  250MOL0     H33703   0.917   9.350   0.368 -2.3421  0.2020  0.2925
  250MOL0     H33704   0.972   9.258   0.657  0.8314  0.9779 -0.8582
  250MOL0     H33705   1.024   9.170   0.518 -1.5342 -2.5325  1.0071
  250MOL0     H33706   0.830   9.078   0.613 -1.6672  0.7846  0.5117
  250MOL0     H33707   0.816   9.098   0.439  0.9552  1.2090 -0.9629
  250MOL0     H33708   0.703   9.309   0.631  0.3860 -0.7089  1.0988
  250MOL0     H33709   0.618   9.162   0.600  0.9611 -0.4676  1.0446
  250MOL0     H33710   0.496   9.047   0.469 -0.3632 -0.0243  0.1137
  250MOL0     H33711   0.430   8.820   0.329  1.1043  0.7822 -1.9900
  250MOL0     H33712   0.302   8.919   0.409  1.0770  1.0014  0.2266
  250MOL0     H33713   0.279   8.869   0.244  1.4370 -2.9534 -0.2675
  250MOL0     H33714   0.305   8.837  -0.238 -0.0272 -2.4497 -1.7620
  250MOL0     H33715   0.120   8.787  -0.388 -1.0085  0.7367  0.1088
  250MOL0     H33716  -0.291   8.676  -0.244  0.2352 -0.0168  1.7362
  250MOL0     H33717  -0.293   8.855  -0.269 -0.0207 -0.6941  0.9334
  250MOL0     H33718  -0.302   8.816  -0.507  1.5976 -0.7646  1.7096
  250MOL0     H33719  -0.353   8.648  -0.488 -3.3428  0.9189 -0.6216
  250MOL0     H33720  -0.510   8.856  -0.330  0.3009  5.1699 -5.0354
  250MOL0     H33721  -0.550   8.685  -0.378  0.1561  0.2822  1.2141
  250MOL0     H33722  -0.512   8.917  -0.569 -0.3833 -0.8117 -1.6796
  250MOL0     H33723  -0.557   8.754  -0.615 -3.6283 -0.4110 -0.7036
  250MOL0     H33724  -0.707   8.927  -0.406  3.5854 -1.1883  1.2038
  250MOL0     H33725  -0.781   8.783  -0.490  0.6961  0.4071  0.2644
  250MOL0     H33726  -0.699   9.044  -0.625 -3.0329  0.0251 -1.5503
  250MOL0     H33727  -0.777   8.913  -0.702  0.2260 -3.2747  0.5166
  250MOL0     H33728  -0.894   9.045  -0.455  0.5293  3.6657 -0.0974
  250MOL0     H33729  -0.976   8.942  -0.585  0.8538  0.1926 -0.3786
  250MOL0     H33730  -0.949   9.113  -0.734 -1.7110  0.9499 -1.0191
  250MOL0     H33731  -0.864   9.227  -0.625 -0.5177  0.4621  1.4065
  250MOL0     H33732  -0.160   8.837  -0.078  0.6237 -1.7860 -0.2082
  250MOL0     H33733   0.016   8.880   0.084  2.4792 -2.7434  1.1754
  250MOL0     H33734   0.429   9.287   0.030  1.4478 -0.2498  0.0539
  250MOL0     H33735   0.569   9.380   0.198 -3.1262  2.1241  2.3530
  250MOL0     H33736   2.394   9.925   0.233 -0.2006 -1.0189  2.7293
  250MOL0     H33737   2.441  10.164   0.224  1.0573 -2.8768 -0.0892
  250MOL0     H33738   2.191  10.601   0.022 -1.5722  1.5319  0.8476
  250MOL0     H33739   2.267  10.833  -0.013 -0.1939  0.3786  0.4658
  250MOL0     H33740   2.249  11.047   0.329  0.2284 -0.8428  0.3343
  250MOL0     H33741   2.425  11.062   0.332 -0.1576 -2.0348  0.8760
  250MOL0     H33742   2.400  11.245   0.153 -0.4600 -0.1162 -0.7038
  250MOL0     H33743   2.289  11.284   0.284  0.2387  1.2957 -0.4636
  250MOL0     H33744   2.211  11.124   0.041  2.6176 -0.2325  0.8941
  250MOL0     H33745   2.177  11.294   0.056  2.6904  0.3321 -0.1306
  250MOL0     H33746   2.039  11.053   0.177 -1.7350  0.1861 -2.0410
  250MOL0     H33747   1.964  11.202   0.120  1.6512  1.6373 -0.4824
  250MOL0     H33748   1.988  11.236   0.536 -2.4198 -2.6425 -0.4105
  250MOL0     H33749   2.425  10.829   0.383 -0.0673  1.0591 -0.1702
  250MOL0     H33750   2.387  10.586   0.408  2.3852  0.8276 -1.6972
  251MOL0     O33751   6.737   0.918   8.080 -0.3081  1.0186 -0.7601
  251MOL0     C33752   6.726   0.965   7.974  0.7154  0.2494 -0.1888
  251MOL0     O33753   6.824   0.984   7.885 -0.1587  0.2075 -0.2382
  251MOL0     C33754   6.958   0.953   7.914  0.0712 -0.4157  0.1587
  251MOL0     C33755   7.066   1.020   7.843 -0.2368  0.3821 -0.1987
  251MOL0     C33756   7.194   0.965   7.850  0.4555 -0.1865 -0.3848
  251MOL0     C33757   7.235   0.867   7.937 -0.2391  0.5897 -0.5398
  251MOL0     O33758   7.363   0.828   7.957  0.6152  0.8620 -0.1581
  251MOL0     C33759   7.459   0.882   7.864 -0.2563  0.6864 -0.2848
  251MOL0     C33760   7.588   0.795   7.865  1.0814  0.2788 -0.1785
  251MOL0     C33761   7.553   0.649   7.821  0.1055 -0.7653 -0.3653
  251MOL0     C33762   7.670   0.549   7.838  0.4843 -0.2527 -0.6224
  251MOL0     C33763   7.661   0.417   7.762  0.2705 -0.1308  0.0748
  251MOL0     C33764   7.546   0.322   7.808  0.3938  0.8388  0.0099
  251MOL0     C33765   7.545   0.190   7.724 -0.2707 -0.5889  0.1633
  251MOL0     C33766   7.471   0.077   7.794  0.2085 -0.6901 -0.4506
  251MOL0     N33767   7.322   0.095   7.785 -0.1826 -0.0260  0.0359
  251MOL0     C33768   7.246   0.080   7.673 -0.0728 -0.2972  0.9473
  251MOL0     C33769   7.119   0.113   7.717 -0.7951  0.1525 -0.8982
  251MOL0     C33770   7.008   0.125   7.615 -0.4426 -0.2537 -0.5347
  251MOL0     C33771   6.895   0.019   7.636  0.3392  0.0333 -0.4143
  251MOL0     C33772   6.838   0.022   7.780  0.7493  0.5312  0.1302
  251MOL0     C33773   6.708  -0.056   7.788  0.1624 -1.3127  0.5755
  251MOL0     O33774   6.729  -0.197   7.773 -0.3120 -0.4644 -0.6365
  251MOL0     C33775   6.617  -0.276   7.754  0.1318  0.2354  0.0279
  251MOL0     C33776   6.483  -0.251   7.760  0.3540 -0.2550 -0.0531
  251MOL0     C33777   6.377  -0.347   7.721  0.5677 -0.4365 -0.8855
  251MOL0     C33778   6.238  -0.306   7.738  0.2972 -0.4115  0.6706
  251MOL0     C33779   6.419  -0.472   7.674  0.0291  0.7834  0.8407
  251MOL0     C33780   6.334  -0.583   7.613 -0.3453 -0.3876  0.3726
  251MOL0     O33781   6.211  -0.545   7.571  0.0378 -0.4025 -0.3144
  251MOL0     C33782   6.114  -0.639   7.563  0.6503 -0.0631  0.2604
  251MOL0     C33783   6.065  -0.677   7.441 -0.3682  0.6685 -0.2651
  251MOL0     C33784   5.959  -0.774   7.431 -0.1882  0.6109 -0.7148
  251MOL0     C33785   5.882  -0.823   7.547  0.0860 -0.1882 -0.7144
  251MOL0     O33786   5.777  -0.904   7.519 -0.3168 -0.1456 -0.2089
  251MOL0     C33787   5.692  -0.929   7.632  0.7186  1.2404 -0.2296
  251MOL0     C33788   5.603  -1.047   7.588  0.4299 -0.0402 -0.1845
  251MOL0     C33789   5.552  -1.127   7.709 -0.0023  0.5508  0.4974
  251MOL0     C33790   5.455  -1.236   7.670  0.2325  0.1678 -0.0865
  251MOL0     C33791   5.310  -1.198   7.701 -0.3824 -0.2804  0.5503
  251MOL0     C33792   5.213  -1.317   7.685  0.0369 -0.2585  0.5088
  251MOL0     C33793   5.211  -1.421   7.795 -0.1219  0.0840 -0.4442
  251MOL0     C33794   5.114  -1.541   7.753  0.2223  0.0660 -0.1064
  251MOL0    Cl33795   4.941  -1.484   7.716  0.3080  0.2380 -0.2118
  251MOL0     C33796   5.941  -0.781   7.671 -0.2701  0.1632 -0.4131
  251MOL0     C33797   6.044  -0.692   7.679  0.2113  0.0784  0.0387
  251MOL0     O33798   6.373  -0.700   7.604  0.0251 -0.2509 -0.2949
  251MOL0     C33799   6.561  -0.502   7.678 -0.3603  0.1714  0.0942
  251MOL0     C33800   6.655  -0.401   7.717 -0.0078  0.3777  0.6536
  251MOL0     N33801   7.124   0.149   7.851 -0.2255 -0.5997 -0.7399
  251MOL0     N33802   7.249   0.139   7.892  0.4020  0.3593  0.1201
  251MOL0     C33803   7.131   0.804   8.007 -0.5074  0.4401  0.3581
  251MOL0     C33804   7.000   0.848   7.995 -0.3001  0.6188  0.9348
  251MOL0     C33805   6.588   0.989   7.928  0.5350  0.1610 -0.5742
  251MOL0     C33806   6.473   0.912   7.973  0.1983  0.3512 -0.2302
  251MOL0     C33807   6.339   0.950   7.942 -0.1968 -0.3178  0.6335
  251MOL0     C33808   6.319   1.057   7.850 -0.7245 -0.6500 -0.1403
  251MOL0     O33809   6.201   1.116   7.841  0.6875 -0.1072 -0.1633
  251MOL0     C33810   6.156   1.165   7.712 -0.3635 -0.0845  0.3773
  251MOL0     C33811   6.003   1.179   7.707 -0.9490  0.0937 -0.2713
  251MOL0     C33812   5.951   1.249   7.580 -0.3229  0.7872  0.5346
  251MOL0     C33813   6.008   1.185   7.450  0.0882 -0.4933 -0.7677
  251MOL0     C33814   5.922   1.191   7.334  0.5851 -0.0773  0.2316
  251MOL0     C33815   5.853   1.222   7.241 -0.3881  0.5331  0.4358
  251MOL0     C33816   6.430   1.126   7.796  0.1271 -0.2493 -0.0976
  251MOL0     C33817   6.560   1.093   7.850  0.7215 -0.3913 -0.0803
  251MOL0     H33818   7.053   1.104   7.776  2.9805  2.5322  1.5849
  251MOL0     H33819   7.264   1.018   7.786 -0.7321 -1.1518 -2.6328
  251MOL0     H33820   7.418   0.888   7.763 -2.7403 -3.0680  0.2872
  251MOL0     H33821   7.480   0.985   7.893  1.5526  0.3001 -0.1535
  251MOL0     H33822   7.670   0.836   7.805  2.6294 -0.3909  1.3886
  251MOL0     H33823   7.638   0.790   7.962  1.0755  2.3089 -0.0315
  251MOL0     H33824   7.472   0.606   7.880  0.1922  0.7996  0.9519
  251MOL0     H33825   7.532   0.644   7.713  1.6276  0.9575 -0.7873
  251MOL0     H33826   7.753   0.601   7.791 -0.1322  1.7936  0.4532
  251MOL0     H33827   7.695   0.531   7.943 -0.8778  0.2240 -0.1854
  251MOL0     H33828   7.642   0.440   7.657  2.3794  1.2463 -0.0530
  251MOL0     H33829   7.758   0.368   7.758  0.0880 -0.5391  0.4576
  251MOL0     H33830   7.557   0.299   7.915  0.2144  1.4208  0.1594
  251MOL0     H33831   7.454   0.381   7.802  0.9028  1.5980 -0.5641
  251MOL0     H33832   7.508   0.201   7.622 -0.6297 -1.4254  0.1975
  251MOL0     H33833   7.646   0.149   7.712  0.1065  0.7049 -1.4497
  251MOL0     H33834   7.506   0.068   7.897  1.6446 -3.2099 -1.0702
  251MOL0     H33835   7.495  -0.019   7.749  0.0761 -0.8903 -0.0946
  251MOL0     H33836   7.289   0.070   7.574 -0.2275  3.0945  0.4221
  251MOL0     H33837   6.965   0.226   7.615  4.1219  1.9877 -1.6893
  251MOL0     H33838   7.042   0.109   7.512 -1.5022 -0.7706 -0.8123
  251MOL0     H33839   6.943  -0.079   7.628  2.7902  1.2634 -1.9872
  251MOL0     H33840   6.820   0.033   7.557 -1.7710  2.0065  1.7462
  251MOL0     H33841   6.829   0.126   7.813  0.4057  0.6443 -0.3103
  251MOL0     H33842   6.898  -0.035   7.851 -2.3417 -2.9667  0.2372
  251MOL0     H33843   6.644  -0.010   7.711 -0.8261  0.3093  2.2776
  251MOL0     H33844   6.657  -0.030   7.881  0.2090 -0.5316  0.3963
  251MOL0     H33845   6.450  -0.150   7.784 -0.6930 -1.0221  1.9544
  251MOL0     H33846   6.174  -0.385   7.780 -1.0717  0.3681  0.0948
  251MOL0     H33847   6.214  -0.220   7.800  0.3037 -0.9780  1.4793
  251MOL0     H33848   6.200  -0.292   7.637  0.1827  1.1251  0.9115
  251MOL0     H33849   6.116  -0.648   7.350  0.1889 -1.0769 -0.5595
  251MOL0     H33850   5.915  -0.795   7.334  2.0031 -1.9553 -1.2757
  251MOL0     H33851   5.740  -0.958   7.727  2.8751 -0.5809 -1.7609
  251MOL0     H33852   5.623  -0.847   7.651  2.7360  2.8722  0.4860
  251MOL0     H33853   5.522  -1.017   7.522  1.6008  1.4799 -1.0114
  251MOL0     H33854   5.659  -1.116   7.525  0.5805  0.0432 -0.1426
  251MOL0     H33855   5.506  -1.064   7.786  2.5326  0.6864  2.0157
  251MOL0     H33856   5.639  -1.172   7.757  0.0246  2.5963  2.5064
  251MOL0     H33857   5.474  -1.244   7.563 -2.8240 -1.5354 -0.6180
  251MOL0     H33858   5.469  -1.331   7.723 -3.8367 -0.9030 -0.6141
  251MOL0     H33859   5.279  -1.138   7.615  3.1569 -1.0993 -1.5175
  251MOL0     H33860   5.296  -1.150   7.799 -1.0866  2.7023 -0.8849
  251MOL0     H33861   5.115  -1.269   7.684 -1.7040 -3.4910 -0.1309
  251MOL0     H33862   5.232  -1.359   7.586  3.2988 -1.3057  1.4536
  251MOL0     H33863   5.182  -1.372   7.888 -1.9741  0.1917 -1.0486
  251MOL0     H33864   5.307  -1.468   7.818 -0.2405  0.0655  0.0153
  251MOL0     H33865   5.116  -1.606   7.841  3.3857 -1.3057 -1.0545
  251MOL0     H33866   5.153  -1.590   7.664  0.3382  0.3091 -0.1917
  251MOL0     H33867   5.888  -0.811   7.761 -3.3680 -0.6034 -2.3419
  251MOL0     H33868   6.065  -0.654   7.779 -0.8602  0.1537  0.2535
  251MOL0     H33869   6.590  -0.606   7.671  0.3566  0.3418  0.4205
  251MOL0     H33870   6.760  -0.423   7.731  0.2815  2.4055  1.9099
  251MOL0     H33871   7.137   0.714   8.068 -2.2697  0.5617  0.7646
  251MOL0     H33872   6.930   0.776   8.033 -1.0300  0.0821 -1.2555
  251MOL0     H33873   6.498   0.825   8.033  1.5453 -0.8034 -2.3471
  251MOL0     H33874   6.262   0.886   7.983  0.5148 -1.3315  0.4026
  251MOL0     H33875   6.198   1.263   7.688  1.9046 -1.8194 -3.5325
  251MOL0     H33876   6.194   1.105   7.629 -1.3815  1.2773 -1.1389
  251MOL0     H33877   5.968   1.246   7.786  0.1773  1.6502 -1.0198
  251MOL0     H33878   5.945   1.087   7.711 -0.7916 -0.0640 -1.3292
  251MOL0     H33879   6.000   1.347   7.575  2.1630 -0.4552 -1.2118
  251MOL0     H33880   5.843   1.268   7.586 -0.0680  2.0722  1.4113
  251MOL0     H33881   6.018   1.080   7.479  0.0613  0.6768  4.3669
  251MOL0     H33882   6.105   1.233   7.436  0.2514  0.8890  3.5664
  251MOL0     H33883   5.784   1.262   7.169 -2.4320 -0.9001  1.5097
  251MOL0     H33884   6.420   1.217   7.739  2.4259  0.3286  0.3171
  251MOL0     H33885   6.634   1.171   7.831 -0.0864  0.6524  0.9466
  252MOL0     O33886   3.771  10.684   3.087  0.2661 -0.3351  0.1822
  252MOL0     C33887   3.818  10.701   2.969 -0.3997  0.1746  0.4733
  252MOL0     O33888   3.756  10.687   2.845  0.0668  0.2514 -0.1637
  252MOL0     C33889   3.630  10.652   2.834 -0.1087  0.1787  0.2957
  252MOL0     C33890   3.600  10.597   2.707  0.0525  0.5340  0.2643
  252MOL0     C33891   3.470  10.558   2.678 -0.3446 -0.0612  0.2140
  252MOL0     C33892   3.374  10.564   2.781 -0.1740 -0.3461 -1.0333
  252MOL0     O33893   3.266  10.487   2.752 -0.6534  0.1538  0.1486
  252MOL0     C33894   3.202  10.414   2.857 -0.3025  0.2555 -0.1717
  252MOL0     C33895   3.087  10.342   2.799 -0.4916 -0.7274  0.1428
  252MOL0     C33896   2.981  10.453   2.764  0.4223  0.4869 -0.6373
  252MOL0     C33897   2.866  10.389   2.697 -0.2514 -0.2201 -0.0026
  252MOL0     C33898   2.769  10.335   2.802  0.5148 -0.5778  0.1610
  252MOL0     C33899   2.628  10.323   2.741  0.1003 -0.4586 -0.6976
  252MOL0     C33900   2.533  10.217   2.805  1.0833 -0.4926  0.5750
  252MOL0     C33901   2.381  10.224   2.776 -0.2119  0.2976 -1.0546
  252MOL0     N33902   2.312  10.099   2.828  0.4946 -0.0549 -0.2066
  252MOL0     C33903   2.357   9.966   2.817  0.1475 -0.9987  0.5796
  252MOL0     C33904   2.249   9.887   2.845  0.0541 -0.5356  0.4485
  252MOL0     C33905   2.232   9.744   2.816  0.1768 -0.7452 -0.7029
  252MOL0     C33906   2.340   9.655   2.873 -0.2128  0.7059  0.5940
  252MOL0     C33907   2.331   9.513   2.816 -1.3660 -0.7651  0.4661
  252MOL0     C33908   2.413   9.418   2.897  0.1430 -0.2670 -0.5071
  252MOL0     O33909   2.551   9.435   2.860  0.4736  0.1015  0.0290
  252MOL0     C33910   2.656   9.359   2.892 -0.5110 -0.6358 -0.3902
  252MOL0     C33911   2.651   9.224   2.930  0.7168 -0.8149 -0.8662
  252MOL0     C33912   2.768   9.145   2.944 -0.1586 -1.2539  0.3947
  252MOL0     C33913   2.759   8.996   2.970 -0.1284  0.9528 -0.7557
  252MOL0     C33914   2.894   9.207   2.913  0.2175  0.3139  0.5141
  252MOL0     C33915   3.023   9.132   2.926  0.0872  1.0165  0.2777
  252MOL0     O33916   3.129   9.212   2.967 -0.1170  0.1225  0.0151
  252MOL0     C33917   3.254   9.170   2.928  0.0436  0.0527  1.0875
  252MOL0     C33918   3.309   9.198   2.799  0.5332  0.3332  0.1815
  252MOL0     C33919   3.428   9.139   2.767 -0.4576 -0.0799 -0.0973
  252MOL0     C33920   3.498   9.061   2.851  0.4813  0.4081  0.2593
  252MOL0     O33921   3.619   9.009   2.801  0.2950 -0.5363  0.3921
  252MOL0     C33922   3.730   8.989   2.887  0.3988 -0.6385 -0.0874
  252MOL0     C33923   3.843   8.925   2.812 -0.0356 -0.2509 -0.9705
  252MOL0     C33924   3.966   8.953   2.893 -0.8582  0.2540 -0.4131
  252MOL0     C33925   4.082   8.874   2.825  0.4724 -0.1242 -0.0023
  252MOL0     C33926   4.201   8.874   2.907 -1.6408 -0.0942 -0.7195
  252MOL0     C33927   4.331   8.819   2.831 -0.1499  0.7375  0.1324
  252MOL0     C33928   4.464   8.823   2.899  0.0852 -0.8419 -0.0743
  252MOL0     C33929   4.465   8.773   3.041 -0.6219  0.6449 -0.6314
  252MOL0    Cl33930   4.425   8.595   3.050  0.0402  0.2888  0.3973
  252MOL0     C33931   3.453   9.038   2.983 -0.2498 -0.0941  0.0660
  252MOL0     C33932   3.330   9.099   3.014 -0.0025  0.3079 -0.1297
  252MOL0     O33933   3.029   9.023   2.874  0.1681 -0.0394  0.1105
  252MOL0     C33934   2.897   9.347   2.868  0.0922 -0.2272 -0.8445
  252MOL0     C33935   2.779   9.418   2.859  0.1016  0.0222 -0.0842
  252MOL0     N33936   2.153   9.973   2.883 -0.4172 -0.2239  0.0164
  252MOL0     N33937   2.181  10.098   2.869  0.3815  0.1971  0.1184
  252MOL0     C33938   3.405  10.613   2.906 -0.0792 -0.5654 -0.1807
  252MOL0     C33939   3.524  10.672   2.932 -0.5212 -0.1062  0.0522
  252MOL0     C33940   3.957  10.758   2.971 -0.2991  0.0173 -0.0578
  252MOL0     C33941   4.033  10.754   2.855 -0.5795 -0.8096 -0.7416
  252MOL0     C33942   4.170  10.807   2.847  0.2555 -0.0760  0.0174
  252MOL0     C33943   4.227  10.859   2.960 -0.6726 -0.1478 -0.5681
  252MOL0     O33944   4.352  10.915   2.974 -0.0203 -0.0370  0.2671
  252MOL0     C33945   4.454  10.867   2.876 -0.2379 -0.2141  0.1187
  252MOL0     C33946   4.594  10.908   2.925 -0.1123 -0.1919 -0.3422
  252MOL0     C33947   4.705  10.856   2.822  0.2366 -0.2851 -0.8328
  252MOL0     C33948   4.843  10.910   2.847  0.2164  0.1499 -0.6520
  252MOL0     C33949   4.890  10.851   2.975 -0.2113 -0.0257  0.1683
  252MOL0     C33950   4.932  10.784   3.073  0.3169  0.2688 -0.1260
  252MOL0     C33951   4.156  10.854   3.076  0.2858 -0.7342 -0.3662
  252MOL0     C33952   4.025  10.804   3.088  0.5462 -0.4737  0.2498
  252MOL0     H33953   3.682  10.579   2.638  0.5534 -1.1577  1.2217
  252MOL0     H33954   3.449  10.499   2.589  1.6959 -0.4880 -0.0242
  252MOL0     H33955   3.267  10.340   2.905 -3.4820 -0.0252  4.3479
  252MOL0     H33956   3.167  10.485   2.933 -2.1446 -2.9485  2.2236
  252MOL0     H33957   3.111  10.278   2.714  2.0199  1.5440 -1.0024
  252MOL0     H33958   3.039  10.278   2.873 -4.4592  1.8877  0.1625
  252MOL0     H33959   2.946  10.509   2.851 -2.1006  0.9113 -1.8550
  252MOL0     H33960   3.021  10.534   2.701  1.5642  0.1749 -0.3497
  252MOL0     H33961   2.815  10.456   2.627 -1.0801 -0.6257  0.2003
  252MOL0     H33962   2.904  10.311   2.630  1.9335  1.1688 -0.4429
  252MOL0     H33963   2.810  10.237   2.829  1.5424 -1.5204 -4.1315
  252MOL0     H33964   2.757  10.395   2.892  1.4538 -0.5464  0.2760
  252MOL0     H33965   2.571  10.416   2.741 -2.2004 -1.7786 -0.4172
  252MOL0     H33966   2.628  10.288   2.638 -3.1045  1.0286 -1.3283
  252MOL0     H33967   2.563  10.121   2.763  1.0580 -1.3250  2.3738
  252MOL0     H33968   2.548  10.214   2.913 -4.8893 -0.9499  1.7184
  252MOL0     H33969   2.355  10.228   2.670  1.3163  0.5002 -1.4467
  252MOL0     H33970   2.343  10.314   2.825  1.0963 -0.6962  2.0456
  252MOL0     H33971   2.454   9.933   2.780  1.3605  1.3755  1.4240
  252MOL0     H33972   2.132   9.710   2.843  0.3431 -2.6460 -2.2522
  252MOL0     H33973   2.229   9.713   2.711 -2.8037 -1.2859 -0.5392
  252MOL0     H33974   2.317   9.644   2.980  0.7305  0.3371  0.7666
  252MOL0     H33975   2.435   9.708   2.868  0.8255 -1.1214  0.2136
  252MOL0     H33976   2.361   9.518   2.710 -1.9700 -1.1898  0.2722
  252MOL0     H33977   2.228   9.479   2.808 -2.0387  1.3576 -0.6716
  252MOL0     H33978   2.380   9.316   2.874  2.0165 -0.7047 -1.5352
  252MOL0     H33979   2.401   9.430   3.005 -0.3668 -0.8764 -0.4933
  252MOL0     H33980   2.556   9.175   2.951 -0.8849  2.4578  0.1930
  252MOL0     H33981   2.800   8.926   2.896  0.3367 -2.2324  2.2487
  252MOL0     H33982   2.803   8.976   3.068 -3.1082  0.6178  0.6120
  252MOL0     H33983   2.656   8.968   2.993 -0.4291  1.8208 -1.0318
  252MOL0     H33984   3.252   9.251   2.724  1.6341  1.6136  0.2131
  252MOL0     H33985   3.469   9.145   2.667 -1.1482 -0.3068 -0.3966
  252MOL0     H33986   3.765   9.087   2.922  0.6893 -0.0576 -1.8774
  252MOL0     H33987   3.704   8.926   2.973 -0.3248 -0.9676 -0.5352
  252MOL0     H33988   3.811   8.820   2.815 -2.2724  0.3396 -2.0592
  252MOL0     H33989   3.852   8.970   2.713 -0.4625  2.0654  0.0010
  252MOL0     H33990   3.974   8.906   2.991  2.5707 -1.7111 -1.4837
  252MOL0     H33991   3.979   9.061   2.898 -3.5955  0.6371 -0.0209
  252MOL0     H33992   4.043   8.773   2.808 -2.8520  1.0964 -0.3566
  252MOL0     H33993   4.111   8.916   2.728 -1.1709  2.1646  0.4010
  252MOL0     H33994   4.181   8.806   2.990  1.1732 -0.1459 -0.0122
  252MOL0     H33995   4.218   8.971   2.954  0.8763 -0.7929 -0.0479
  252MOL0     H33996   4.313   8.713   2.810  2.9695  0.0903  0.2826
  252MOL0     H33997   4.351   8.869   2.736 -1.8477  1.8482  0.3076
  252MOL0     H33998   4.491   8.928   2.908  0.4027 -0.8813 -0.5150
  252MOL0     H33999   4.533   8.761   2.840  2.1137 -0.5011  1.8400
  252MOL0     H34000   4.405   8.836   3.108 -1.0832 -1.4152  1.0263
  252MOL0     H34001   4.570   8.791   3.063 -0.5199  1.9815 -2.0361
  252MOL0     H34002   3.506   8.974   3.053 -2.3457  1.8463  3.7767
  252MOL0     H34003   3.272   9.068   3.101  2.7425 -2.6889  0.8172
  252MOL0     H34004   2.992   9.398   2.856 -0.7509  1.0708 -2.4719
  252MOL0     H34005   2.782   9.522   2.828 -0.7700 -0.2124 -1.0603
  252MOL0     H34006   3.328  10.608   2.983 -1.3838  0.6253 -1.3434
  252MOL0     H34007   3.536  10.726   3.025 -3.4439  0.6280  0.0885
  252MOL0     H34008   3.984  10.715   2.766 -3.6020  0.6752  0.1480
  252MOL0     H34009   4.214  10.815   2.749 -2.7860 -0.7162 -1.5292
  252MOL0     H34010   4.443  10.761   2.850 -2.3783  0.4226 -1.9099
  252MOL0     H34011   4.433  10.926   2.786  1.2327  1.2503  0.6905
  252MOL0     H34012   4.622  10.882   3.027 -1.2022  3.2192  0.9524
  252MOL0     H34013   4.599  11.017   2.918  1.6596 -0.3246 -2.4031
  252MOL0     H34014   4.685  10.895   2.722 -2.5724  1.3456  0.2593
  252MOL0     H34015   4.705  10.747   2.826 -1.2731 -0.3614 -2.0051
  252MOL0     H34016   4.846  11.019   2.861  4.9933  0.1413  0.2579
  252MOL0     H34017   4.903  10.879   2.761 -2.3799 -4.4007 -1.1411
  252MOL0     H34018   4.973  10.720   3.149 -2.7281 -0.9152  0.6574
  252MOL0     H34019   4.208  10.895   3.162  2.4836  0.9669 -2.3647
  252MOL0     H34020   3.983  10.814   3.188  0.1642  0.2459  0.0240
  253MOL0     O34021   3.282   1.743   4.745 -0.0599  0.6312  0.5408
  253MOL0     C34022   3.281   1.619   4.768 -0.5386  0.1427  0.8774
  253MOL0     O34023   3.171   1.540   4.759  0.0926  0.0428  1.0719
  253MOL0     C34024   3.048   1.589   4.747  1.2831  0.5961  0.8546
  253MOL0     C34025   2.942   1.568   4.847 -0.0738  0.2724 -0.4050
  253MOL0     C34026   2.811   1.597   4.823 -0.6970  0.1793 -0.0726
  253MOL0     C34027   2.774   1.668   4.706 -0.3781 -0.5979 -1.1378
  253MOL0     O34028   2.646   1.711   4.675  0.5670  0.0167 -0.3253
  253MOL0     C34029   2.536   1.676   4.764  0.5178 -0.2787  0.3782
  253MOL0     C34030   2.399   1.740   4.725  1.0195  0.3798 -0.0012
  253MOL0     C34031   2.398   1.894   4.715  0.0378  0.0740 -0.1933
  253MOL0     C34032   2.273   1.963   4.656 -0.2430  0.9878 -0.6897
  253MOL0     C34033   2.134   1.924   4.726 -0.6406 -0.3370 -0.0620
  253MOL0     C34034   2.021   1.980   4.626 -0.7064 -0.2515 -1.4160
  253MOL0     C34035   1.886   1.931   4.684 -0.3849 -0.3614  0.3250
  253MOL0     C34036   1.775   2.014   4.626 -0.1550  0.5982  0.3742
  253MOL0     N34037   1.647   1.961   4.653  0.3552  0.1760  0.0001
  253MOL0     C34038   1.585   1.971   4.775 -0.2515  0.8253  1.2117
  253MOL0     C34039   1.503   1.859   4.782 -0.4181 -1.0688  0.3938
  253MOL0     C34040   1.424   1.828   4.904 -0.0452  0.2446 -0.0785
  253MOL0     C34041   1.284   1.787   4.870 -0.5475  0.5888  0.1016
  253MOL0     C34042   1.174   1.867   4.939  0.0438  0.1975 -0.3886
  253MOL0     C34043   1.031   1.841   4.892 -0.1191 -0.2123 -0.3527
  253MOL0     O34044   0.937   1.906   4.988  0.0891 -0.1683  0.5388
  253MOL0     C34045   0.813   1.842   5.006  0.6680 -0.4740 -0.9344
  253MOL0     C34046   0.767   1.741   4.915 -0.2758  0.0898  1.2796
  253MOL0     C34047   0.646   1.677   4.927  0.5136  0.1447 -0.5414
  253MOL0     C34048   0.620   1.567   4.823  0.1359  1.0865  0.1912
  253MOL0     C34049   0.565   1.706   5.035 -0.3961 -0.4972  0.5399
  253MOL0     C34050   0.435   1.643   5.062  0.1411 -0.1680 -0.0675
  253MOL0     O34051   0.399   1.635   5.197 -0.1339 -0.7942  0.6554
  253MOL0     C34052   0.282   1.567   5.234  0.5005  0.3626 -0.3712
  253MOL0     C34053   0.155   1.628   5.222 -0.6227  0.1559 -0.1150
  253MOL0     C34054   0.045   1.574   5.280  0.2110 -0.8512  0.6936
  253MOL0     C34055   0.056   1.449   5.339  0.8244  0.0870  0.2752
  253MOL0     O34056  -0.057   1.391   5.396  0.9855  0.1350  0.1180
  253MOL0     C34057  -0.192   1.429   5.350 -0.5426 -0.7120 -0.8068
  253MOL0     C34058  -0.299   1.340   5.411  0.2889 -0.0189  1.0440
  253MOL0     C34059  -0.445   1.369   5.356 -0.2091 -0.3192  0.6663
  253MOL0     C34060  -0.549   1.269   5.411  1.4601  0.1810 -0.9242
  253MOL0     C34061  -0.683   1.307   5.347  0.2188 -0.3109 -0.5250
  253MOL0     C34062  -0.786   1.195   5.382 -0.0754 -0.4043  0.6625
  253MOL0     C34063  -0.854   1.215   5.507  0.3919 -0.1912  0.1816
  253MOL0     C34064  -0.961   1.110   5.525  0.8721  0.2707  0.0502
  253MOL0    Cl34065  -1.073   1.090   5.390  0.1057 -0.4675 -0.0483
  253MOL0     C34066   0.175   1.382   5.333  0.3632 -0.2731 -0.0123
  253MOL0     C34067   0.289   1.438   5.286 -0.6250 -0.8788  0.2535
  253MOL0     O34068   0.368   1.602   4.966 -0.0528  0.0023  0.0327
  253MOL0     C34069   0.605   1.815   5.125  0.1107 -1.0479 -0.1491
  253MOL0     C34070   0.728   1.875   5.115 -0.3352  0.1380  0.5561
  253MOL0     N34071   1.521   1.791   4.660 -0.5818 -0.4095 -0.2157
  253MOL0     N34072   1.606   1.856   4.584  0.6263 -0.3186 -0.2642
  253MOL0     C34073   2.879   1.713   4.625  0.4068  0.5435 -0.0012
  253MOL0     C34074   3.015   1.671   4.636 -0.0300  0.0753 -0.5589
  253MOL0     C34075   3.410   1.554   4.813  0.0489 -0.4714  0.7736
  253MOL0     C34076   3.420   1.434   4.884  0.4334  0.6124 -0.1026
  253MOL0     C34077   3.547   1.384   4.920 -0.3926 -0.4736 -0.6297
  253MOL0     C34078   3.671   1.453   4.900 -0.4618  0.1218 -0.1496
  253MOL0     O34079   3.780   1.394   4.959 -0.4632 -0.4722 -0.3700
  253MOL0     C34080   3.892   1.479   4.975  0.2418 -0.1026 -0.2317
  253MOL0     C34081   4.012   1.389   4.983  0.8239 -0.3655 -0.3737
  253MOL0     C34082   4.011   1.288   5.092 -0.8038 -0.0812 -0.7192
  253MOL0     C34083   4.154   1.256   5.135  0.3046  0.3167 -0.0427
  253MOL0     C34084   4.143   1.135   5.217 -0.0536 -0.2147  0.4425
  253MOL0     C34085   4.155   1.041   5.280  0.3142  0.0432 -0.7522
  253MOL0     C34086   3.659   1.567   4.818  0.4742  0.3683  0.5270
  253MOL0     C34087   3.534   1.617   4.775 -0.1813  0.7492  0.2061
  253MOL0     H34088   2.969   1.529   4.945  0.4797 -1.6294 -1.2737
  253MOL0     H34089   2.731   1.587   4.896 -4.1261  0.8039 -3.4320
  253MOL0     H34090   2.538   1.567   4.768  0.3764 -0.2693  0.7336
  253MOL0     H34091   2.558   1.713   4.865  0.4318 -1.0523  0.6902
  253MOL0     H34092   2.376   1.700   4.626  1.9384 -4.4014  1.4754
  253MOL0     H34093   2.319   1.696   4.786  1.0926 -0.1206 -0.2629
  253MOL0     H34094   2.416   1.944   4.811  0.7857 -1.1110  0.2983
  253MOL0     H34095   2.479   1.914   4.645  0.3784  2.8407  0.8721
  253MOL0     H34096   2.289   2.070   4.673  0.3352  1.2044 -2.4023
  253MOL0     H34097   2.261   1.935   4.551 -2.1618  1.2281 -0.5713
  253MOL0     H34098   2.111   1.817   4.733  0.8616 -0.6209  1.2435
  253MOL0     H34099   2.136   1.967   4.827 -2.2629 -0.0371 -0.1392
  253MOL0     H34100   2.032   2.089   4.629 -1.2753 -0.2133 -0.3072
  253MOL0     H34101   2.030   1.948   4.522 -1.8331 -0.6814 -1.3971
  253MOL0     H34102   1.882   1.824   4.661  2.4006 -0.8413  1.6262
  253MOL0     H34103   1.867   1.939   4.791  1.7583  0.0377  0.7254
  253MOL0     H34104   1.795   2.023   4.519  1.7499 -0.2987  0.6147
  253MOL0     H34105   1.780   2.120   4.654  0.3058  2.0959 -4.4364
  253MOL0     H34106   1.615   2.044   4.849 -3.4815  4.4928 -0.7373
  253MOL0     H34107   1.474   1.753   4.966  3.0209  0.7288 -1.7314
  253MOL0     H34108   1.424   1.914   4.972  2.3982  1.5246 -1.5639
  253MOL0     H34109   1.283   1.679   4.888 -1.4550  0.3809 -1.0575
  253MOL0     H34110   1.277   1.794   4.761 -1.9412 -1.7727 -0.0330
  253MOL0     H34111   1.194   1.973   4.925 -1.2907  0.4672 -0.4104
  253MOL0     H34112   1.189   1.835   5.043  0.3207  1.2650 -0.0847
  253MOL0     H34113   1.025   1.732   4.892 -4.3476 -0.1259 -0.5631
  253MOL0     H34114   1.020   1.881   4.791  0.6431  2.7400  0.6415
  253MOL0     H34115   0.812   1.704   4.824 -3.6147 -0.3987 -0.2953
  253MOL0     H34116   0.574   1.602   4.731  1.3561 -0.7094 -1.1526
  253MOL0     H34117   0.707   1.501   4.814  0.3951  1.2609  1.1910
  253MOL0     H34118   0.549   1.491   4.857  1.7230 -0.5188  0.0510
  253MOL0     H34119   0.152   1.728   5.180  1.1950 -0.9218 -3.0944
  253MOL0     H34120  -0.046   1.633   5.281  0.5002 -0.4026  0.9428
  253MOL0     H34121  -0.205   1.534   5.377  0.5443 -0.6215 -0.5820
  253MOL0     H34122  -0.179   1.413   5.243 -2.2461 -0.3618 -1.0941
  253MOL0     H34123  -0.277   1.238   5.376  2.0655  0.8244 -0.4652
  253MOL0     H34124  -0.300   1.347   5.520  0.2772  0.0030  1.0423
  253MOL0     H34125  -0.436   1.362   5.247 -3.2788 -1.7630  0.4070
  253MOL0     H34126  -0.470   1.471   5.388  0.7404  0.5059 -1.0488
  253MOL0     H34127  -0.523   1.166   5.384 -0.9160 -0.6418 -0.2767
  253MOL0     H34128  -0.556   1.265   5.520 -1.6980  3.4966 -0.7967
  253MOL0     H34129  -0.650   1.321   5.243  2.6285  5.2582  0.5991
  253MOL0     H34130  -0.732   1.400   5.379 -2.6001 -2.3955  1.7173
  253MOL0     H34131  -0.856   1.211   5.300  0.1739 -2.2334  0.0460
  253MOL0     H34132  -0.743   1.095   5.396 -0.9363 -0.6022  2.0940
  253MOL0     H34133  -0.896   1.317   5.502 -0.2666 -0.4893 -0.9005
  253MOL0     H34134  -0.786   1.205   5.591  0.2476 -3.1792  0.0284
  253MOL0     H34135  -1.020   1.153   5.607  2.9002  2.1976  0.6229
  253MOL0     H34136  -0.922   1.013   5.559  0.2251 -0.0121  0.0094
  253MOL0     H34137   0.185   1.283   5.377  1.6183  0.7677  2.2141
  253MOL0     H34138   0.380   1.380   5.298 -0.7854 -1.1543  0.1553
  253MOL0     H34139   0.533   1.843   5.202 -0.1967  1.9328 -1.3853
  253MOL0     H34140   0.772   1.952   5.178 -1.4521  2.1024 -0.9314
  253MOL0     H34141   2.855   1.785   4.547 -2.5466 -0.5414 -0.2173
  253MOL0     H34142   3.093   1.718   4.576  1.0311  0.3465  0.9684
  253MOL0     H34143   3.328   1.381   4.910 -0.3817  1.5111 -1.0310
  253MOL0     H34144   3.550   1.288   4.970  0.3567 -0.6967 -1.0914
  253MOL0     H34145   3.910   1.555   4.897  1.7753 -0.0301  0.1500
  253MOL0     H34146   3.890   1.534   5.070  1.1342 -0.0676 -0.2219
  253MOL0     H34147   4.102   1.449   4.991  1.2384 -1.1324  0.8690
  253MOL0     H34148   4.024   1.331   4.891  1.7220  0.2822 -0.6743
  253MOL0     H34149   3.954   1.203   5.052 -3.3935 -0.1258  2.6196
  253MOL0     H34150   3.952   1.329   5.175 -0.1009  2.5983 -1.4442
  253MOL0     H34151   4.205   1.338   5.186 -0.4463  1.2622 -0.7661
  253MOL0     H34152   4.208   1.227   5.044 -4.3682 -2.8852 -2.1724
  253MOL0     H34153   4.163   0.957   5.346 -3.1792  0.8318  0.8732
  253MOL0     H34154   3.748   1.618   4.782  1.0337 -1.0145 -0.1199
  253MOL0     H34155   3.531   1.706   4.713  0.6277 -1.1228 -2.7671
  254MOL0     O34156   4.492   3.841   7.279 -0.2053 -0.1915  0.3339
  254MOL0     C34157   4.548   3.929   7.217  0.0675  0.2414 -0.2138
  254MOL0     O34158   4.497   4.026   7.132  0.2197 -0.2065  0.0520
  254MOL0     C34159   4.365   4.029   7.121  1.2128  0.2493  0.2541
  254MOL0     C34160   4.291   3.925   7.072  0.4418  0.0833  1.1224
  254MOL0     C34161   4.152   3.947   7.045  0.1106 -0.0461  0.4448
  254MOL0     C34162   4.093   4.072   7.079 -0.7012 -0.1185  0.7438
  254MOL0     O34163   3.956   4.086   7.045 -0.7666  0.3089  0.4454
  254MOL0     C34164   3.880   4.131   7.162  0.6859 -0.3800 -0.1260
  254MOL0     C34165   3.731   4.154   7.117 -0.6798  0.1180  0.9012
  254MOL0     C34166   3.716   4.251   6.996  0.7162  0.0796 -1.2120
  254MOL0     C34167   3.573   4.244   6.943 -0.6550  0.2660 -0.1212
  254MOL0     C34168   3.552   4.362   6.841  1.2706 -0.2781  0.1438
  254MOL0     C34169   3.427   4.322   6.771  0.4879  0.2414  0.0793
  254MOL0     C34170   3.379   4.419   6.670 -0.2984 -0.7793 -0.3928
  254MOL0     C34171   3.247   4.382   6.597  0.7919 -0.4424 -0.5318
  254MOL0     N34172   3.128   4.379   6.690  0.5436 -0.3666  0.0289
  254MOL0     C34173   3.111   4.299   6.795 -0.1762 -0.4025 -0.6193
  254MOL0     C34174   3.008   4.350   6.869 -0.4622  0.2405 -0.6448
  254MOL0     C34175   2.956   4.266   6.991  0.3620  1.0514 -0.2202
  254MOL0     C34176   2.843   4.182   6.949  0.3639  0.3879 -0.2081
  254MOL0     C34177   2.786   4.105   7.072 -0.1441  0.6427  0.2346
  254MOL0     C34178   2.861   3.979   7.113  0.3905  0.3512  0.2082
  254MOL0     O34179   2.897   3.897   7.005 -0.5283  0.1956  0.3969
  254MOL0     C34180   2.804   3.827   6.932  0.4798  0.1089 -0.4718
  254MOL0     C34181   2.805   3.833   6.793  0.3491  0.0459  0.3658
  254MOL0     C34182   2.707   3.772   6.715  0.7941  0.9962 -0.2521
  254MOL0     C34183   2.731   3.769   6.563 -0.5442 -0.3393 -0.1806
  254MOL0     C34184   2.602   3.696   6.782 -0.3859 -0.0642 -0.3743
  254MOL0     C34185   2.512   3.599   6.721 -0.1392  0.1780  0.0226
  254MOL0     O34186   2.399   3.564   6.794  0.0841 -0.1761  0.8026
  254MOL0     C34187   2.284   3.527   6.725  0.2774 -0.1111  0.1807
  254MOL0     C34188   2.255   3.570   6.593  0.8072  0.8125 -0.2364
  254MOL0     C34189   2.137   3.510   6.535  0.3482 -0.0689  0.0087
  254MOL0     C34190   2.041   3.436   6.613 -0.1480 -1.3857  0.6023
  254MOL0     O34191   1.918   3.392   6.563 -0.0546 -0.1415 -0.4692
  254MOL0     C34192   1.862   3.458   6.446 -0.4602 -0.1995  0.1033
  254MOL0     C34193   1.710   3.477   6.442  0.4186  1.0281 -0.2550
  254MOL0     C34194   1.636   3.374   6.542 -0.5650  0.3956 -0.4246
  254MOL0     C34195   1.488   3.367   6.505  0.2269  0.3444  0.0145
  254MOL0     C34196   1.407   3.294   6.602  0.4133  0.3837 -0.6768
  254MOL0     C34197   1.255   3.285   6.550 -0.6596 -0.0127  0.6542
  254MOL0     C34198   1.156   3.217   6.638 -0.0105  0.8109 -0.3086
  254MOL0     C34199   1.133   3.285   6.766 -0.0931 -0.5487  0.0583
  254MOL0    Cl34200   1.048   3.432   6.734 -0.2666  0.0037 -0.1387
  254MOL0     C34201   2.072   3.399   6.742 -0.0430  0.0744 -0.2558
  254MOL0     C34202   2.191   3.446   6.800  0.8240 -0.3271 -0.9152
  254MOL0     O34203   2.546   3.549   6.612  0.2850  0.0357  0.3139
  254MOL0     C34204   2.612   3.684   6.922 -0.0090 -0.4999  0.7535
  254MOL0     C34205   2.712   3.744   6.997 -0.2647 -0.1167 -0.6356
  254MOL0     N34206   2.965   4.464   6.806  0.1519  0.2312  0.1371
  254MOL0     N34207   3.038   4.483   6.703 -0.0864  0.3450  0.2744
  254MOL0     C34208   4.164   4.177   7.137  1.2142  0.0309  0.4238
  254MOL0     C34209   4.300   4.150   7.141  0.5996 -0.4263  0.3160
  254MOL0     C34210   4.693   3.933   7.229 -0.5361  0.2679  0.3283
  254MOL0     C34211   4.770   3.816   7.248  0.3923  0.5461 -0.2053
  254MOL0     C34212   4.903   3.814   7.249 -0.5233 -1.4886 -0.2229
  254MOL0     C34213   4.978   3.938   7.242 -0.2609  0.4017  0.3317
  254MOL0     O34214   5.114   3.936   7.263 -0.1287 -0.5287  0.8649
  254MOL0     C34215   5.192   4.062   7.244  0.8010  1.1128  0.3719
  254MOL0     C34216   5.336   4.026   7.273  0.1382  0.4699  0.4828
  254MOL0     C34217   5.393   3.953   7.153 -0.7650 -0.1452 -0.5912
  254MOL0     C34218   5.530   3.885   7.175 -0.0053 -0.6096  0.9541
  254MOL0     C34219   5.629   3.985   7.220  0.1832 -0.6780  0.5277
  254MOL0     C34220   5.704   4.074   7.254 -0.9578  0.3092 -0.2237
  254MOL0     C34221   4.900   4.057   7.227  0.6122 -0.4733  0.0623
  254MOL0     C34222   4.760   4.058   7.222  0.3067  0.6727 -0.6842
  254MOL0     H34223   4.344   3.836   7.041  0.6307  0.4540  0.3521
  254MOL0     H34224   4.099   3.864   6.999  1.4576  0.6203 -2.5443
  254MOL0     H34225   3.875   4.046   7.230 -3.0006 -0.1079  0.1704
  254MOL0     H34226   3.916   4.220   7.214 -3.1717  3.5037 -3.3044
  254MOL0     H34227   3.689   4.056   7.094 -0.0204  0.4517 -2.1027
  254MOL0     H34228   3.678   4.184   7.208 -2.3251 -0.9965  0.3619
  254MOL0     H34229   3.733   4.344   7.051  0.0060 -0.6972  0.4099
  254MOL0     H34230   3.789   4.240   6.916  0.5095 -0.2572 -1.3543
  254MOL0     H34231   3.553   4.147   6.897 -1.4516  0.7628 -0.8758
  254MOL0     H34232   3.503   4.239   7.027  1.1421 -2.4616  1.3799
  254MOL0     H34233   3.530   4.450   6.903 -0.9466  0.1633 -1.1517
  254MOL0     H34234   3.620   4.381   6.757 -2.4673  1.5927 -2.8107
  254MOL0     H34235   3.442   4.222   6.729 -0.5502 -0.8740  2.1849
  254MOL0     H34236   3.348   4.323   6.847  0.3699  0.2507 -0.0436
  254MOL0     H34237   3.364   4.515   6.721 -0.5690 -0.7541 -0.5165
  254MOL0     H34238   3.460   4.441   6.599 -0.2776  2.0528  0.3938
  254MOL0     H34239   3.247   4.285   6.547 -3.3290 -0.4289 -0.8916
  254MOL0     H34240   3.219   4.453   6.519  0.1007  0.3052  0.3759
  254MOL0     H34241   3.159   4.205   6.822  0.8582  0.7455  1.8271
  254MOL0     H34242   3.036   4.201   7.027 -1.2486  1.2893  4.4322
  254MOL0     H34243   2.936   4.334   7.075 -1.8877 -2.1820  2.0713
  254MOL0     H34244   2.869   4.118   6.865  1.7707  1.7445 -0.8471
  254MOL0     H34245   2.763   4.250   6.918 -1.4605 -0.3959  2.3690
  254MOL0     H34246   2.687   4.066   7.046  1.7480 -3.1285 -2.3381
  254MOL0     H34247   2.787   4.168   7.161  2.2245  0.5619  0.3259
  254MOL0     H34248   2.794   3.921   7.177  1.1399  0.2170  0.8940
  254MOL0     H34249   2.947   4.008   7.173 -0.0003  0.6238  0.6371
  254MOL0     H34250   2.880   3.887   6.737  1.5272 -1.8884  0.0075
  254MOL0     H34251   2.636   3.793   6.514 -0.0417  2.2511 -0.0023
  254MOL0     H34252   2.799   3.849   6.533  0.3905 -0.2324  2.0364
  254MOL0     H34253   2.783   3.674   6.547 -0.2992  0.0577 -1.9014
  254MOL0     H34254   2.321   3.628   6.530 -1.9188  0.3924 -3.7897
  254MOL0     H34255   2.114   3.525   6.430 -1.3692  0.6684  0.4521
  254MOL0     H34256   1.904   3.558   6.434 -1.1625 -0.1325 -2.4125
  254MOL0     H34257   1.889   3.400   6.357 -0.3473  1.0839 -0.7248
  254MOL0     H34258   1.688   3.579   6.478 -1.5836  0.2221  1.0027
  254MOL0     H34259   1.670   3.468   6.341  1.0333 -1.4282 -0.3286
  254MOL0     H34260   1.650   3.392   6.649  2.0120 -1.6407 -0.2971
  254MOL0     H34261   1.668   3.271   6.523 -2.7058 -0.3373 -0.3051
  254MOL0     H34262   1.445   3.466   6.492  0.0890  0.2454 -0.2838
  254MOL0     H34263   1.481   3.314   6.410  2.2386  3.0604 -1.8163
  254MOL0     H34264   1.420   3.339   6.700  1.7746 -0.7220 -0.3280
  254MOL0     H34265   1.439   3.190   6.615  4.4939  1.3049 -2.0641
  254MOL0     H34266   1.231   3.392   6.556  1.2299  0.3858  3.2245
  254MOL0     H34267   1.245   3.247   6.448  0.7192  0.6618  0.2402
  254MOL0     H34268   1.188   3.116   6.666 -2.0859  0.8351  2.5631
  254MOL0     H34269   1.062   3.200   6.585  1.0933 -3.2257 -1.3922
  254MOL0     H34270   1.228   3.298   6.819 -1.0497 -0.7443  1.8818
  254MOL0     H34271   1.070   3.215   6.821  0.8552 -1.4786 -0.0054
  254MOL0     H34272   2.010   3.327   6.796 -1.4001  1.0681 -0.4215
  254MOL0     H34273   2.216   3.436   6.905  0.7185 -1.5433 -0.9992
  254MOL0     H34274   2.535   3.633   6.980  0.5087 -1.8956  0.2647
  254MOL0     H34275   2.701   3.729   7.104 -4.2172  0.0807 -0.8779
  254MOL0     H34276   4.133   4.278   7.162  1.6147  0.4360 -0.6476
  254MOL0     H34277   4.368   4.231   7.169  0.4188  0.8607 -2.6513
  254MOL0     H34278   4.721   3.720   7.237  2.7617 -0.5594 -2.0494
  254MOL0     H34279   4.961   3.725   7.273  0.6697 -0.1897  2.1120
  254MOL0     H34280   5.172   4.101   7.143  0.6694  0.2788  0.0675
  254MOL0     H34281   5.151   4.128   7.322  0.4157  1.4341 -0.0922
  254MOL0     H34282   5.346   3.968   7.365 -1.1303  0.0318  0.3642
  254MOL0     H34283   5.385   4.122   7.294 -1.9508  1.4784  0.9796
  254MOL0     H34284   5.401   4.009   7.060  0.8443  1.3199  0.3808
  254MOL0     H34285   5.336   3.862   7.132  0.8593 -1.0009 -1.5334
  254MOL0     H34286   5.565   3.848   7.077  0.4888  1.8740  0.1143
  254MOL0     H34287   5.521   3.804   7.247  0.1688 -2.2326 -0.7482
  254MOL0     H34288   5.761   4.151   7.300 -0.5157  0.3263 -0.7828
  254MOL0     H34289   4.963   4.145   7.228  0.3022 -0.2484  0.1495
  254MOL0     H34290   4.712   4.155   7.211 -0.2983  0.3882 -0.6237
  255MOL0     O34291   6.673  10.551   3.282 -0.0128 -0.4596 -0.0675
  255MOL0     C34292   6.760  10.603   3.218 -0.0810  1.0926  0.3422
  255MOL0     O34293   6.744  10.633   3.086 -0.1432 -0.3272 -0.0856
  255MOL0     C34294   6.625  10.606   3.028 -0.6438 -0.1153  1.0180
  255MOL0     C34295   6.629  10.548   2.906 -0.0719 -0.8927  0.4219
  255MOL0     C34296   6.510  10.523   2.834 -0.9825  0.0651 -0.5669
  255MOL0     C34297   6.389  10.564   2.875  1.5188 -0.2704 -1.4222
  255MOL0     O34298   6.280  10.548   2.792 -0.4197 -0.1045 -0.2922
  255MOL0     C34299   6.190  10.659   2.807 -0.7417  0.3739 -0.1766
  255MOL0     C34300   6.078  10.641   2.694  0.4111 -0.3317 -0.3817
  255MOL0     C34301   5.967  10.746   2.702 -0.0537  0.0802 -0.4265
  255MOL0     C34302   5.854  10.717   2.611 -0.1013 -0.3324  0.3489
  255MOL0     C34303   5.727  10.808   2.630 -0.4697  0.7948 -0.3240
  255MOL0     C34304   5.619  10.767   2.531 -0.8000 -0.2401 -0.2451
  255MOL0     C34305   5.496  10.859   2.551  0.6687 -0.2462  0.0605
  255MOL0     C34306   5.389  10.827   2.440  0.3244 -0.1340 -0.6598
  255MOL0     N34307   5.299  10.945   2.425  0.2628 -0.5706  1.0102
  255MOL0     C34308   5.221  10.994   2.527 -1.1547 -0.6022  1.4290
  255MOL0     C34309   5.156  11.095   2.468  0.0595 -1.3053  0.0124
  255MOL0     C34310   5.031  11.163   2.528 -0.1805  0.3214 -0.1364
  255MOL0     C34311   4.911  11.078   2.513 -0.1976  0.3822  0.2851
  255MOL0     C34312   4.845  11.109   2.380  0.6798  0.5001 -1.2909
  255MOL0     C34313   4.744  11.226   2.388  0.3655  0.2134 -0.5567
  255MOL0     O34314   4.653  11.216   2.276  0.6566  0.3888 -0.0064
  255MOL0     C34315   4.540  11.270   2.302 -0.6810 -0.9023 -1.3305
  255MOL0     C34316   4.536  11.406   2.344 -0.2523  0.4901  0.9765
  255MOL0     C34317   4.414  11.472   2.358 -0.1452  0.2311  0.2531
  255MOL0     C34318   4.429  11.610   2.407 -0.7084 -0.7484  0.2633
  255MOL0     C34319   4.294  11.407   2.338  0.0563  0.3755  0.4635
  255MOL0     C34320   4.157  11.468   2.359 -0.4570 -0.2128 -0.2465
  255MOL0     O34321   4.058  11.411   2.291 -0.3072 -0.1301 -0.3663
  255MOL0     C34322   3.936  11.437   2.345  0.3787  0.6007  0.2684
  255MOL0     C34323   3.868  11.559   2.335  0.2910 -0.9107 -0.0100
  255MOL0     C34324   3.752  11.589   2.407 -0.4634  0.2090  0.1378
  255MOL0     C34325   3.709  11.500   2.505  1.1813  0.8216 -0.5076
  255MOL0     O34326   3.585  11.537   2.571 -0.2020 -0.0505  0.2130
  255MOL0     C34327   3.545  11.450   2.679 -0.8864  0.4353 -0.0940
  255MOL0     C34328   3.405  11.486   2.740  0.4806  0.3185  0.4375
  255MOL0     C34329   3.413  11.599   2.845  0.9073  0.3193  0.3895
  255MOL0     C34330   3.267  11.647   2.882  0.0552  0.1403  0.0418
  255MOL0     C34331   3.253  11.731   3.010  0.5063  0.6779 -0.2284
  255MOL0     C34332   3.311  11.677   3.140  0.1539 -0.4621 -0.2056
  255MOL0     C34333   3.294  11.763   3.267 -0.0626 -0.4044 -0.2131
  255MOL0     C34334   3.410  11.867   3.272  0.4661  0.1402 -0.5442
  255MOL0    Cl34335   3.376  12.032   3.208 -0.1310 -0.2968  0.2657
  255MOL0     C34336   3.780  11.376   2.532 -0.5379  0.7751  0.8807
  255MOL0     C34337   3.893  11.350   2.449 -0.1360  1.2662  0.5683
  255MOL0     O34338   4.145  11.566   2.432  0.6095 -0.0443  0.6031
  255MOL0     C34339   4.297  11.273   2.295 -0.4393  0.2563  2.2004
  255MOL0     C34340   4.417  11.205   2.275 -1.0037 -0.8962 -0.8077
  255MOL0     N34341   5.197  11.105   2.334  0.1358  0.1910  0.3566
  255MOL0     N34342   5.277  11.007   2.316 -0.0901 -0.4609  0.5240
  255MOL0     C34343   6.389  10.636   2.990  0.0920 -0.6500 -0.2617
  255MOL0     C34344   6.502  10.656   3.069  0.5820  0.2031 -0.4947
  255MOL0     C34345   6.896  10.614   3.277 -0.2836 -0.5557  0.0315
  255MOL0     C34346   6.917  10.591   3.412 -0.1911  0.1673  0.6319
  255MOL0     C34347   7.051  10.604   3.474  1.2170  0.0912  0.5398
  255MOL0     C34348   7.159  10.643   3.396 -0.4234 -0.7419  0.4622
  255MOL0     O34349   7.284  10.671   3.448  0.4636  0.0571  0.2476
  255MOL0     C34350   7.322  10.595   3.565 -1.3270 -0.5605 -0.2036
  255MOL0     C34351   7.478  10.617   3.585  0.8972 -0.4560  0.2726
  255MOL0     C34352   7.516  10.755   3.642  0.1793  0.4461 -0.4188
  255MOL0     C34353   7.664  10.789   3.636  0.3897 -0.1299  0.6793
  255MOL0     C34354   7.698  10.928   3.665  0.4616 -0.2037  0.1614
  255MOL0     C34355   7.726  11.047   3.680  0.0739 -0.0345  0.4062
  255MOL0     C34356   7.125  10.681   3.259  0.0204  0.0938 -0.8617
  255MOL0     C34357   7.002  10.665   3.206 -0.2743 -0.4787 -0.0510
  255MOL0     H34358   6.724  10.523   2.861 -0.6164 -1.2966 -0.5289
  255MOL0     H34359   6.517  10.460   2.746 -0.1277 -1.0205  0.2497
  255MOL0     H34360   6.137  10.646   2.902 -0.7096  0.8049 -0.1001
  255MOL0     H34361   6.240  10.753   2.782 -0.8831 -0.6277 -5.3469
  255MOL0     H34362   6.125  10.649   2.596  0.7078  1.9828 -0.1132
  255MOL0     H34363   6.027  10.546   2.714 -1.7716  1.3778  3.1537
  255MOL0     H34364   5.923  10.754   2.802 -0.2347  1.5267 -0.6015
  255MOL0     H34365   6.013  10.840   2.671  0.4760 -0.5378 -1.6006
  255MOL0     H34366   5.886  10.733   2.507 -1.5442  2.7375  0.2767
  255MOL0     H34367   5.822  10.613   2.617  0.2633 -0.4624  0.1171
  255MOL0     H34368   5.684  10.781   2.727 -0.6960 -0.7180 -0.8175
  255MOL0     H34369   5.754  10.914   2.625  1.9073  0.3446  1.3471
  255MOL0     H34370   5.661  10.780   2.431  0.8021 -0.5090  0.3731
  255MOL0     H34371   5.586  10.664   2.550 -1.2869 -0.4195 -1.9127
  255MOL0     H34372   5.443  10.840   2.645 -0.6855 -1.3242 -0.8850
  255MOL0     H34373   5.523  10.964   2.541 -1.3797  0.5832  2.3249
  255MOL0     H34374   5.326  10.746   2.478 -1.8738  1.5416 -0.5537
  255MOL0     H34375   5.432  10.802   2.343 -1.7747 -0.5384 -1.5452
  255MOL0     H34376   5.210  10.957   2.628 -1.0397  2.9173  2.8359
  255MOL0     H34377   5.053  11.180   2.634 -0.7857 -0.0398  0.0501
  255MOL0     H34378   5.017  11.255   2.471 -3.1749  1.1113  1.6659
  255MOL0     H34379   4.832  11.089   2.588 -0.2218 -0.7477  0.4465
  255MOL0     H34380   4.940  10.973   2.520 -1.3465  0.1212  1.6203
  255MOL0     H34381   4.792  11.016   2.355  2.6057 -0.5822 -1.5060
  255MOL0     H34382   4.920  11.141   2.307  0.5390  1.5359 -0.9893
  255MOL0     H34383   4.809  11.314   2.389  1.6303 -0.4415 -4.8516
  255MOL0     H34384   4.689  11.215   2.482  2.2298 -1.4350  0.4213
  255MOL0     H34385   4.629  11.461   2.357  1.1301 -1.7387  1.0458
  255MOL0     H34386   4.360  11.677   2.356 -2.1583 -2.2610  0.1661
  255MOL0     H34387   4.416  11.620   2.515 -0.5871 -1.1386  0.3159
  255MOL0     H34388   4.529  11.644   2.377 -0.0987 -2.1641  0.5745
  255MOL0     H34389   3.905  11.627   2.259 -1.5684  1.1025  0.8084
  255MOL0     H34390   3.709  11.688   2.400  0.0304  0.3698 -0.7567
  255MOL0     H34391   3.547  11.350   2.636  2.8481  1.4519 -2.8285
  255MOL0     H34392   3.630  11.454   2.747  0.5533  2.1018 -1.8781
  255MOL0     H34393   3.341  11.518   2.658  0.7862 -2.8313 -1.1814
  255MOL0     H34394   3.361  11.401   2.794 -1.6091 -0.1461 -1.8187
  255MOL0     H34395   3.481  11.679   2.814  1.0908  0.7101  1.7328
  255MOL0     H34396   3.451  11.554   2.937  0.6636  1.3694  1.0190
  255MOL0     H34397   3.240  11.701   2.790  1.3841 -3.4036 -2.6942
  255MOL0     H34398   3.200  11.561   2.890 -1.1084  0.8208 -1.7394
  255MOL0     H34399   3.147  11.747   3.030  0.6370 -0.0329  1.2110
  255MOL0     H34400   3.303  11.825   2.987  1.3278  0.2253 -0.3271
  255MOL0     H34401   3.272  11.576   3.154  0.1573 -0.2420  1.6929
  255MOL0     H34402   3.419  11.659   3.128 -0.0826 -1.5390 -0.8086
  255MOL0     H34403   3.283  11.710   3.361 -1.0229 -1.0251 -0.6550
  255MOL0     H34404   3.199  11.818   3.264  0.6651  1.1376  2.2922
  255MOL0     H34405   3.500  11.830   3.224 -0.1567  0.2931 -1.8564
  255MOL0     H34406   3.436  11.881   3.378 -0.8942  2.2058 -0.4075
  255MOL0     H34407   3.754  11.301   2.606 -1.6904  0.5188  0.2498
  255MOL0     H34408   3.933  11.249   2.451 -1.2871  0.6927 -1.9318
  255MOL0     H34409   4.203  11.219   2.281  0.0509 -0.8694  3.0445
  255MOL0     H34410   4.411  11.102   2.241 -0.2645 -0.6937 -1.5958
  255MOL0     H34411   6.297  10.675   3.034  0.7283 -0.8681  1.3164
  255MOL0     H34412   6.503  10.713   3.161 -0.1463 -0.1277 -0.2762
  255MOL0     H34413   6.830  10.573   3.474 -0.7579 -0.1472 -0.2372
  255MOL0     H34414   7.069  10.594   3.581  2.8092  1.7113  0.4701
  255MOL0     H34415   7.273  10.637   3.653 -0.6992 -2.6470  1.2492
  255MOL0     H34416   7.304  10.487   3.571  1.6834 -1.0591  2.8190
  255MOL0     H34417   7.516  10.610   3.482 -4.2787 -0.7618 -1.9658
  255MOL0     H34418   7.520  10.533   3.641 -1.3082 -1.8005  0.0597
  255MOL0     H34419   7.487  10.771   3.746 -0.8752  3.3346 -1.0787
  255MOL0     H34420   7.457  10.827   3.585 -0.6585  1.1651  1.2850
  255MOL0     H34421   7.704  10.778   3.535 -1.7037  1.6709 -0.4258
  255MOL0     H34422   7.721  10.724   3.702  0.8567  0.8906  1.3023
  255MOL0     H34423   7.742  11.153   3.684  1.9800 -0.3033  1.8664
  255MOL0     H34424   7.197  10.730   3.195  2.4699 -3.8327 -1.4963
  255MOL0     H34425   6.982  10.702   3.106 -1.0862  1.0254  0.6302
  256MOL0     O34426   2.436   9.715  10.218  0.1190 -0.4560  0.8353
  256MOL0     C34427   2.445   9.812  10.143 -0.1797 -0.2539  0.7119
  256MOL0     O34428   2.336   9.874  10.085  0.2890  0.5308  0.4001
  256MOL0     C34429   2.204   9.827  10.079 -0.5041 -0.7839 -0.2861
  256MOL0     C34430   2.109   9.830  10.190  0.4816  0.4622  0.6989
  256MOL0     C34431   1.977   9.799  10.166  0.1423  0.3479  0.2828
  256MOL0     C34432   1.931   9.778  10.044 -0.0656 -0.8471  0.7576
  256MOL0     O34433   1.798   9.775  10.037  0.4265 -0.1589 -0.2678
  256MOL0     C34434   1.736   9.816   9.910 -0.1830  0.1054 -0.2669
  256MOL0     C34435   1.586   9.815   9.923  0.6070  0.3892  0.0846
  256MOL0     C34436   1.528   9.840   9.786  0.3729  0.9058  0.2817
  256MOL0     C34437   1.451   9.973   9.771 -0.7514 -0.2561  0.2890
  256MOL0     C34438   1.306   9.956   9.721  0.7213  0.1500 -0.0254
  256MOL0     C34439   1.282   9.949   9.567 -0.2169 -0.4550 -0.1310
  256MOL0     C34440   1.129   9.938   9.535  1.0742  0.4611 -0.5899
  256MOL0     C34441   1.096   9.889   9.397  0.1418 -0.2343  1.1398
  256MOL0     N34442   0.957   9.917   9.376  1.1347  0.1508 -0.3669
  256MOL0     C34443   0.902  10.038   9.333  0.0339  0.4469 -0.8196
  256MOL0     C34444   0.773  10.011   9.311 -0.6766 -0.1800 -0.0836
  256MOL0     C34445   0.665  10.105   9.269  0.0912 -0.5912  0.3984
  256MOL0     C34446   0.725  10.229   9.200 -0.4597 -0.4431  0.0941
  256MOL0     C34447   0.612  10.325   9.130 -0.8340 -0.1142 -0.8039
  256MOL0     C34448   0.466  10.300   9.166  0.4810  0.2343 -0.1003
  256MOL0     O34449   0.446  10.325   9.308 -0.0090  0.1191  0.1984
  256MOL0     C34450   0.321  10.310   9.335  0.2959  0.2781 -0.0908
  256MOL0     C34451   0.261  10.189   9.318  0.7584  0.2856  0.3282
  256MOL0     C34452   0.126  10.160   9.329  0.1368  0.8943  0.3846
  256MOL0     C34453   0.084  10.021   9.295 -0.5936 -0.4373  0.1688
  256MOL0     C34454   0.043  10.268   9.377  0.6366  0.7424 -0.0531
  256MOL0     C34455  -0.105  10.252   9.395 -0.1333 -0.0790 -0.2115
  256MOL0     O34456  -0.180  10.360   9.369 -0.0556 -0.3312 -0.2100
  256MOL0     C34457  -0.321  10.343   9.366 -1.1218 -0.1287 -0.3493
  256MOL0     C34458  -0.411  10.442   9.424  0.3494  0.3156 -0.4398
  256MOL0     C34459  -0.551  10.418   9.415 -0.8767  0.7360 -1.0251
  256MOL0     C34460  -0.599  10.315   9.332 -0.4560 -0.1609 -0.4026
  256MOL0     O34461  -0.735  10.311   9.324 -0.3068 -0.6315 -0.2587
  256MOL0     C34462  -0.797  10.184   9.311 -0.8229 -0.1566 -0.4564
  256MOL0     C34463  -0.920  10.188   9.403  0.2571 -0.2750  0.6414
  256MOL0     C34464  -1.037  10.099   9.344 -0.6520 -0.0491  0.3878
  256MOL0     C34465  -1.017   9.948   9.343 -0.3040  0.7657 -0.9287
  256MOL0     C34466  -1.141   9.878   9.295  0.6269 -0.1630  0.5661
  256MOL0     C34467  -1.136   9.728   9.355  0.4298  0.1874 -0.0548
  256MOL0     C34468  -1.011   9.659   9.391 -0.2235 -0.0857  0.2562
  256MOL0     C34469  -1.048   9.512   9.417 -0.9698  0.9347  0.5713
  256MOL0    Cl34470  -0.890   9.449   9.479  0.4317 -0.0019 -0.2666
  256MOL0     C34471  -0.512  10.231   9.259  1.3927  0.1918 -0.9320
  256MOL0     C34472  -0.381  10.247   9.285 -0.0855 -0.9635 -0.8241
  256MOL0     O34473  -0.151  10.141   9.422 -0.2150 -0.1185  0.5081
  256MOL0     C34474   0.104  10.392   9.406 -0.0888 -0.4165 -0.7238
  256MOL0     C34475   0.240  10.414   9.377 -0.2714 -0.6927  0.1595
  256MOL0     N34476   0.748   9.876   9.319 -0.2851  0.1096 -0.5741
  256MOL0     N34477   0.859   9.825   9.374  0.8931  0.2279 -0.3082
  256MOL0     C34478   2.019   9.757   9.934  0.1971 -0.4155 -0.3935
  256MOL0     C34479   2.155   9.788   9.950 -0.1203  0.1264  0.2160
  256MOL0     C34480   2.582   9.845  10.098  0.1741 -0.3065 -0.3030
  256MOL0     C34481   2.607   9.920   9.980  0.2072  0.2898 -0.3821
  256MOL0     C34482   2.731   9.923   9.919  0.4309 -0.1623  1.1643
  256MOL0     C34483   2.841   9.862   9.977  0.8665  0.5798  0.5590
  256MOL0     O34484   2.960   9.878   9.908 -0.3678  0.0554  0.1905
  256MOL0     C34485   3.082   9.899   9.983 -0.5924 -0.4882  0.1126
  256MOL0     C34486   3.088  10.049  10.030 -0.6560  0.5028  0.4461
  256MOL0     C34487   3.237  10.087  10.064 -0.0675 -0.1478  0.4985
  256MOL0     C34488   3.247  10.235  10.106 -0.3844  0.0928  0.9199
  256MOL0     C34489   3.389  10.272  10.141 -0.6106  0.7010  0.2625
  256MOL0     C34490   3.504  10.300  10.167 -0.4187 -0.3942 -0.1917
  256MOL0     C34491   2.828   9.793  10.094  0.2277  0.0812 -0.1684
  256MOL0     C34492   2.697   9.788  10.159 -0.0291 -0.2915  0.5930
  256MOL0     H34493   2.151   9.838  10.289  0.4185 -0.9541  0.8677
  256MOL0     H34494   1.906   9.788  10.248 -0.2699 -3.8973 -0.4341
  256MOL0     H34495   1.771   9.914   9.877  1.5232 -1.4461 -3.4491
  256MOL0     H34496   1.774   9.748   9.834  2.6091 -0.1582  1.2208
  256MOL0     H34497   1.544   9.719   9.957  1.1495 -0.5344 -1.7447
  256MOL0     H34498   1.562   9.899   9.989  1.4247 -0.4157  1.4517
  256MOL0     H34499   1.606   9.840   9.709 -1.9940  2.4446 -2.3227
  256MOL0     H34500   1.460   9.757   9.765 -1.3474  1.7673  2.1634
  256MOL0     H34501   1.443  10.023   9.868  0.3790  0.1035  0.2114
  256MOL0     H34502   1.506  10.047   9.712 -2.2572  1.8572  1.4158
  256MOL0     H34503   1.261   9.864   9.759 -0.2824 -1.2350 -4.1331
  256MOL0     H34504   1.259  10.051   9.749  0.2638 -0.0001 -0.2828
  256MOL0     H34505   1.318  10.041   9.519 -2.5056  0.1320 -0.8326
  256MOL0     H34506   1.331   9.857   9.531  0.9717 -0.4004  1.2771
  256MOL0     H34507   1.075   9.871   9.601  1.0413  0.9005 -0.1651
  256MOL0     H34508   1.086  10.033   9.570 -1.9181 -1.7658  2.4287
  256MOL0     H34509   1.112   9.781   9.401 -0.8483 -0.3884  1.2266
  256MOL0     H34510   1.163   9.938   9.326 -0.6541 -2.3300 -1.1691
  256MOL0     H34511   0.956  10.132   9.322  0.5983 -0.0993 -3.5080
  256MOL0     H34512   0.593  10.059   9.201 -0.4599  2.6760 -1.4404
  256MOL0     H34513   0.608  10.138   9.356 -0.0423 -0.9069  0.4318
  256MOL0     H34514   0.789  10.195   9.118  0.2172 -0.3214  0.5591
  256MOL0     H34515   0.787  10.284   9.272 -1.2903  1.7404 -0.8033
  256MOL0     H34516   0.622  10.305   9.022  0.6181 -2.9347 -0.2492
  256MOL0     H34517   0.639  10.429   9.150  0.7394 -0.7847  0.8019
  256MOL0     H34518   0.440  10.197   9.139 -1.6269  0.2458  1.5813
  256MOL0     H34519   0.397  10.349   9.097 -0.9100 -2.8670 -1.0953
  256MOL0     H34520   0.326  10.107   9.289  0.1953  1.1580 -4.3136
  256MOL0     H34521   0.006  10.020   9.218  0.7240  1.3667 -1.2888
  256MOL0     H34522   0.164   9.968   9.243  0.1599  0.0124  0.8494
  256MOL0     H34523   0.066   9.970   9.390  3.9593  1.2038  2.1869
  256MOL0     H34524  -0.372  10.523   9.484 -0.4802  0.6642 -0.3473
  256MOL0     H34525  -0.620  10.478   9.476  0.6854  1.1766  0.3821
  256MOL0     H34526  -0.818  10.166   9.206 -2.3172  1.2029 -0.4281
  256MOL0     H34527  -0.718  10.113   9.337  1.0250  1.2377 -1.9123
  256MOL0     H34528  -0.892  10.167   9.506  2.0727  2.5358  0.8445
  256MOL0     H34529  -0.961  10.290   9.407  0.8384 -0.0839  3.4788
  256MOL0     H34530  -1.059  10.131   9.241 -5.7905 -2.1270  0.5502
  256MOL0     H34531  -1.123  10.136   9.400 -0.9582 -1.9663  1.2603
  256MOL0     H34532  -0.928   9.918   9.287  1.4569  0.0163  2.0682
  256MOL0     H34533  -1.006   9.907   9.443 -1.9232 -0.3284 -1.1577
  256MOL0     H34534  -1.134   9.866   9.187  1.0974  1.2001  0.4286
  256MOL0     H34535  -1.241   9.921   9.308 -0.1553 -1.0548 -2.0290
  256MOL0     H34536  -1.197   9.729   9.446 -0.9518  1.7108 -0.9421
  256MOL0     H34537  -1.199   9.665   9.291 -3.3507  0.9970  2.5178
  256MOL0     H34538  -0.961   9.706   9.476 -0.3119  1.9258 -0.7274
  256MOL0     H34539  -0.950   9.685   9.303  2.4111  2.8115  2.6842
  256MOL0     H34540  -1.067   9.452   9.328  1.7645  0.0155  0.5195
  256MOL0     H34541  -1.131   9.497   9.487 -0.1894 -2.2542  0.9908
  256MOL0     H34542  -0.547  10.145   9.203  1.8151 -1.3055  0.9658
  256MOL0     H34543  -0.319  10.169   9.244 -0.7169 -1.4583 -0.8435
  256MOL0     H34544   0.046  10.467   9.459 -0.3442 -1.2274  0.1746
  256MOL0     H34545   0.289  10.510   9.383 -0.5956 -0.3366 -1.9927
  256MOL0     H34546   1.985   9.733   9.834 -1.2311  0.4981 -0.1671
  256MOL0     H34547   2.222   9.785   9.865  0.2745  0.6918  0.5008
  256MOL0     H34548   2.524   9.958   9.922  1.6535 -0.3676 -3.0024
  256MOL0     H34549   2.739   9.987   9.832  0.1451  0.7488  1.7903
  256MOL0     H34550   3.098   9.815  10.052  2.1188  0.6542  1.0271
  256MOL0     H34551   3.168   9.893   9.916 -0.4228  2.3025 -0.0258
  256MOL0     H34552   3.026  10.073  10.117  1.8123  1.9813  1.9387
  256MOL0     H34553   3.043  10.106   9.949 -0.2775  1.3546  0.8243
  256MOL0     H34554   3.303  10.081   9.976 -2.5426  0.3653 -1.5277
  256MOL0     H34555   3.277  10.023  10.143  1.8109  1.2807  0.7806
  256MOL0     H34556   3.195  10.252  10.200  0.4290  1.2202  1.1782
  256MOL0     H34557   3.204  10.301  10.030  0.1544 -0.4484  0.1228
  256MOL0     H34558   3.604  10.330  10.193 -0.3748 -2.0684  1.7794
  256MOL0     H34559   2.917   9.754  10.142  0.5489 -0.7015 -1.3585
  256MOL0     H34560   2.692   9.725  10.248  0.0781 -2.2695 -0.7373
  257MOL0     O34561   2.792   6.458   5.601 -0.0797  0.4425 -0.3976
  257MOL0     C34562   2.859   6.444   5.702  0.1314  0.4192 -0.1225
  257MOL0     O34563   2.817   6.455   5.829  0.0052  0.6827 -0.0970
  257MOL0     C34564   2.700   6.513   5.866  0.2221 -0.5435  0.3100
  257MOL0     C34565   2.650   6.465   5.987 -0.0557 -0.4339  0.1574
  257MOL0     C34566   2.528   6.507   6.041  0.4308  0.5176 -0.0029
  257MOL0     C34567   2.447   6.593   5.969  0.1221 -0.5436 -0.4283
  257MOL0     O34568   2.319   6.637   6.006  0.0960 -0.3186 -0.8733
  257MOL0     C34569   2.255   6.590   6.130  1.1884 -0.3756  0.3468
  257MOL0     C34570   2.108   6.561   6.102  0.2102  0.4583 -0.0904
  257MOL0     C34571   2.060   6.484   6.224 -0.2231 -0.3225  0.0211
  257MOL0     C34572   1.908   6.481   6.230 -0.0776  0.0099  0.6083
  257MOL0     C34573   1.860   6.489   6.377 -0.1150  0.3514 -0.0875
  257MOL0     C34574   1.709   6.461   6.376  0.2078 -0.7593  0.5360
  257MOL0     C34575   1.643   6.480   6.518  0.2417  0.9917  1.2890
  257MOL0     C34576   1.642   6.346   6.601  0.0486  0.1328 -0.0346
  257MOL0     N34577   1.552   6.249   6.532 -0.0392  0.1371  0.0435
  257MOL0     C34578   1.425   6.265   6.533  0.4476  0.1605  0.6398
  257MOL0     C34579   1.382   6.167   6.445 -0.9757 -1.1816 -0.1606
  257MOL0     C34580   1.237   6.130   6.415  0.2356 -0.6273 -0.3439
  257MOL0     C34581   1.129   6.239   6.387  0.0666 -0.8523 -0.8227
  257MOL0     C34582   1.035   6.265   6.499 -0.8404 -1.3261 -0.2462
  257MOL0     C34583   0.932   6.154   6.530 -0.4831  0.0630 -0.1766
  257MOL0     O34584   0.834   6.215   6.619 -1.0452 -0.8236 -0.2279
  257MOL0     C34585   0.731   6.141   6.650 -0.1334  0.3916  0.4531
  257MOL0     C34586   0.688   6.017   6.600 -0.1779  1.2132 -0.2378
  257MOL0     C34587   0.557   5.956   6.636 -0.0619  0.1173  1.0297
  257MOL0     C34588   0.512   5.839   6.554 -0.5016 -0.3652  0.4628
  257MOL0     C34589   0.493   6.022   6.737  0.1289  0.1200 -0.4482
  257MOL0     C34590   0.358   5.972   6.797  0.9018 -0.2183 -0.6260
  257MOL0     O34591   0.282   6.073   6.863  0.5320  1.0826  0.1836
  257MOL0     C34592   0.164   6.031   6.924 -0.2154 -1.3371 -0.4127
  257MOL0     C34593   0.162   5.927   7.015  0.0350 -0.2312 -0.1873
  257MOL0     C34594   0.054   5.894   7.090 -0.3127 -0.7416 -0.2427
  257MOL0     C34595  -0.065   5.959   7.077  0.9014 -0.0946  0.2734
  257MOL0     O34596  -0.175   5.922   7.149  0.9623 -0.4463  0.2339
  257MOL0     C34597  -0.303   5.935   7.080 -0.2095  0.0059 -0.0900
  257MOL0     C34598  -0.390   5.807   7.115  0.0812 -0.0422 -0.8001
  257MOL0     C34599  -0.532   5.840   7.072  1.0009 -0.5648 -0.3078
  257MOL0     C34600  -0.630   5.745   7.133  1.6112 -1.1712  0.0468
  257MOL0     C34601  -0.771   5.792   7.097  0.4566  1.1737  0.3659
  257MOL0     C34602  -0.881   5.707   7.158  0.2172  0.0911 -0.4075
  257MOL0     C34603  -1.019   5.750   7.103 -0.6445 -0.5500  0.7198
  257MOL0     C34604  -1.131   5.648   7.149  0.0988  0.3638 -0.1846
  257MOL0    Cl34605  -1.282   5.661   7.055  0.2169  0.1091 -0.0063
  257MOL0     C34606  -0.067   6.066   6.988  0.7532  0.2737  0.3015
  257MOL0     C34607   0.044   6.100   6.913 -0.0335  0.2262  0.3569
  257MOL0     O34608   0.321   5.857   6.767  0.3895 -0.3112 -0.6176
  257MOL0     C34609   0.535   6.150   6.784  0.1142  0.2227 -0.4162
  257MOL0     C34610   0.651   6.202   6.743 -0.9632 -0.0299  1.0349
  257MOL0     N34611   1.491   6.100   6.395 -0.0973 -0.2501  0.3611
  257MOL0     N34612   1.593   6.150   6.450 -0.3228  0.3896  0.5072
  257MOL0     C34613   2.499   6.654   5.849 -0.1080 -0.0266 -0.1707
  257MOL0     C34614   2.620   6.609   5.795  0.7205  0.4354 -0.0963
  257MOL0     C34615   3.003   6.422   5.673 -0.1534 -0.2556  0.8897
  257MOL0     C34616   3.052   6.453   5.540 -0.0016  0.6267  0.1473
  257MOL0     C34617   3.191   6.448   5.508 -0.4311  0.5857  0.1474
  257MOL0     C34618   3.283   6.416   5.610  0.3600 -0.6311 -0.8804
  257MOL0     O34619   3.413   6.401   5.600  0.2287  0.0980 -1.2940
  257MOL0     C34620   3.462   6.364   5.472  0.2522 -0.5236 -0.6200
  257MOL0     C34621   3.438   6.213   5.449 -0.3528  0.5905 -0.3514
  257MOL0     C34622   3.523   6.107   5.531  0.5535  0.0150 -0.7565
  257MOL0     C34623   3.681   6.127   5.522 -0.4696 -0.7429  0.3377
  257MOL0     C34624   3.749   6.105   5.387  0.2973  0.0415  1.0452
  257MOL0     C34625   3.794   6.094   5.272  0.2784  0.9128 -0.6333
  257MOL0     C34626   3.233   6.412   5.745 -0.3152  0.2141  0.3130
  257MOL0     C34627   3.100   6.403   5.771  0.5382  0.3061  0.7389
  257MOL0     H34628   2.710   6.389   6.036  0.6487  1.2638  2.0581
  257MOL0     H34629   2.489   6.464   6.132 -0.8516  0.3212 -0.6131
  257MOL0     H34630   2.295   6.493   6.159 -0.3287 -1.2715 -0.4531
  257MOL0     H34631   2.274   6.658   6.214 -0.0748 -0.0585  0.3906
  257MOL0     H34632   2.056   6.657   6.099 -0.5779  0.1140  1.6096
  257MOL0     H34633   2.096   6.499   6.012 -0.7237  1.3810 -0.6124
  257MOL0     H34634   2.089   6.379   6.227 -0.6313 -0.4599  2.9630
  257MOL0     H34635   2.100   6.535   6.312 -3.3217 -1.4190  2.2626
  257MOL0     H34636   1.862   6.570   6.186 -1.3262 -0.1802  1.4789
  257MOL0     H34637   1.864   6.393   6.182 -0.7764  1.2114 -1.0441
  257MOL0     H34638   1.890   6.403   6.436  2.1338  1.3264  0.2810
  257MOL0     H34639   1.884   6.584   6.426 -0.3924 -0.8938  2.5993
  257MOL0     H34640   1.667   6.537   6.309 -1.5290 -0.5108  1.8496
  257MOL0     H34641   1.681   6.363   6.334 -0.6446 -1.1818  2.0397
  257MOL0     H34642   1.684   6.558   6.583  0.9130 -0.7824  3.1049
  257MOL0     H34643   1.541   6.510   6.493  1.5210  3.2856 -1.9692
  257MOL0     H34644   1.596   6.366   6.698  0.5109  1.2599 -0.0233
  257MOL0     H34645   1.743   6.303   6.599 -0.4238 -0.9882  0.0076
  257MOL0     H34646   1.359   6.328   6.591 -1.9175 -3.8853  2.8664
  257MOL0     H34647   1.250   6.056   6.335  0.6269 -0.9955  0.0576
  257MOL0     H34648   1.218   6.078   6.510  3.9174 -1.9737 -0.2076
  257MOL0     H34649   1.065   6.226   6.299  0.0357 -0.6392 -0.8331
  257MOL0     H34650   1.184   6.334   6.381  0.9923 -1.3014  0.3008
  257MOL0     H34651   0.979   6.355   6.474  2.4753  1.1996  0.6960
  257MOL0     H34652   1.090   6.296   6.588  2.7843 -0.7644 -2.4344
  257MOL0     H34653   0.979   6.068   6.579 -2.5746 -0.3062  1.3584
  257MOL0     H34654   0.879   6.121   6.440 -4.0646 -2.8048  2.6703
  257MOL0     H34655   0.749   5.947   6.544  1.7358  1.1456  1.7913
  257MOL0     H34656   0.419   5.860   6.499 -1.3313  1.8204  2.5348
  257MOL0     H34657   0.590   5.824   6.478 -0.1142  0.6966  0.6327
  257MOL0     H34658   0.502   5.748   6.614  0.1106 -1.4393 -0.9939
  257MOL0     H34659   0.249   5.863   7.028  0.8093  0.4275 -1.8413
  257MOL0     H34660   0.062   5.798   7.140  0.3716 -0.8143 -0.4792
  257MOL0     H34661  -0.345   6.027   7.121 -2.7541 -1.0288 -0.2116
  257MOL0     H34662  -0.299   5.943   6.971  0.3451 -0.8792 -0.1517
  257MOL0     H34663  -0.347   5.720   7.065 -0.0614  0.2601 -1.4688
  257MOL0     H34664  -0.381   5.795   7.223 -1.1442  3.3783 -0.1852
  257MOL0     H34665  -0.533   5.828   6.963  0.4723 -1.8159 -0.1789
  257MOL0     H34666  -0.553   5.944   7.101  0.9031 -1.3443  2.6450
  257MOL0     H34667  -0.603   5.644   7.101  1.4982 -0.6818 -1.7247
  257MOL0     H34668  -0.617   5.753   7.241 -0.7660 -2.9178  0.5461
  257MOL0     H34669  -0.776   5.795   6.988  2.3148  2.9771  0.2718
  257MOL0     H34670  -0.786   5.890   7.144 -1.0080  1.0364  0.2176
  257MOL0     H34671  -0.880   5.603   7.123 -0.7921  0.6469 -2.2397
  257MOL0     H34672  -0.891   5.698   7.267 -1.7147 -0.8665 -0.6115
  257MOL0     H34673  -1.010   5.752   6.994 -2.3498 -0.4992  0.5473
  257MOL0     H34674  -1.044   5.851   7.137  0.9229  0.4352 -0.9412
  257MOL0     H34675  -1.155   5.655   7.256  0.6814 -0.3544  0.0009
  257MOL0     H34676  -1.102   5.543   7.137 -1.4006 -0.1994  0.8182
  257MOL0     H34677  -0.156   6.126   6.969 -1.0981 -2.6626 -1.1521
  257MOL0     H34678   0.038   6.180   6.840  2.1486 -0.6106 -0.8349
  257MOL0     H34679   0.486   6.212   6.859  1.7626  0.6012  0.3854
  257MOL0     H34680   0.676   6.299   6.786 -0.5806  0.0101  0.7199
  257MOL0     H34681   2.448   6.738   5.802 -2.9824 -1.0492  0.9061
  257MOL0     H34682   2.673   6.647   5.708 -0.0823  3.1491  0.5005
  257MOL0     H34683   2.986   6.469   5.455  0.9347  1.0895 -0.5093
  257MOL0     H34684   3.216   6.457   5.403 -2.6429 -0.3611 -0.5113
  257MOL0     H34685   3.424   6.427   5.390  1.5018  1.3161  0.1328
  257MOL0     H34686   3.570   6.378   5.465 -0.0461  3.8289  0.1551
  257MOL0     H34687   3.471   6.187   5.348  0.6874 -1.4003  0.4246
  257MOL0     H34688   3.333   6.182   5.449 -0.0683 -1.2267 -5.3082
  257MOL0     H34689   3.504   6.003   5.502 -1.9145 -0.4103  1.9614
  257MOL0     H34690   3.491   6.106   5.635  1.1038 -0.8198 -0.5887
  257MOL0     H34691   3.738   6.059   5.586  1.5607 -0.4454 -1.0546
  257MOL0     H34692   3.710   6.226   5.560 -2.0462 -0.2971  0.4542
  257MOL0     H34693   3.821   6.079   5.170 -1.0959 -0.1133 -0.8726
  257MOL0     H34694   3.305   6.381   5.821 -0.8272  1.6086  1.4100
  257MOL0     H34695   3.065   6.399   5.874 -2.3189 -0.0235 -0.1678
  258MOL0     O34696   6.016   6.257   5.869  0.0939 -0.3605 -0.4488
  258MOL0     C34697   6.018   6.145   5.913 -0.4534 -0.0047 -0.0267
  258MOL0     O34698   5.927   6.095   6.008 -0.1039  0.2173  0.1090
  258MOL0     C34699   5.809   6.167   6.016  0.0535 -0.0018 -0.9663
  258MOL0     C34700   5.683   6.106   5.995 -0.3738 -0.5220 -0.0494
  258MOL0     C34701   5.561   6.165   6.008  0.2344 -0.0826 -0.3455
  258MOL0     C34702   5.559   6.303   6.040  0.3348 -0.2329  0.1649
  258MOL0     O34703   5.448   6.387   6.045  0.0688 -0.1523  0.2654
  258MOL0     C34704   5.343   6.374   5.954  0.1625  0.0267  0.2153
  258MOL0     C34705   5.233   6.486   5.979 -0.2320 -0.1745 -0.1415
  258MOL0     C34706   5.179   6.485   6.127 -0.1391  0.0057 -0.7485
  258MOL0     C34707   5.080   6.601   6.122  0.4719  0.0315  0.2150
  258MOL0     C34708   4.942   6.562   6.072  0.1848  0.2593 -1.3656
  258MOL0     C34709   4.840   6.673   6.097  1.0119 -0.7558 -0.3502
  258MOL0     C34710   4.815   6.698   6.252  0.8516  0.4541  0.3281
  258MOL0     C34711   4.805   6.568   6.338 -0.5941 -0.1941 -0.3857
  258MOL0     N34712   4.691   6.485   6.306 -0.3890 -1.2001 -0.0491
  258MOL0     C34713   4.689   6.353   6.272 -1.2238 -0.1320 -0.2867
  258MOL0     C34714   4.559   6.319   6.276  0.6698  0.2269  0.0127
  258MOL0     C34715   4.491   6.190   6.248 -0.4718 -0.3502 -0.1446
  258MOL0     C34716   4.400   6.142   6.363  0.0429  0.5427 -0.8763
  258MOL0     C34717   4.460   6.126   6.505  0.3303 -0.3218  1.1784
  258MOL0     C34718   4.353   6.144   6.610  0.6423 -0.8240 -0.5163
  258MOL0     O34719   4.249   6.051   6.580 -0.3659 -0.0825  0.5306
  258MOL0     C34720   4.117   6.087   6.606  0.2327 -0.3352  0.1331
  258MOL0     C34721   4.020   6.022   6.540  0.3363 -0.4521 -0.5117
  258MOL0     C34722   3.887   6.060   6.543  0.8106  0.0375 -1.1624
  258MOL0     C34723   3.790   5.972   6.454 -0.1067 -0.9234  0.6198
  258MOL0     C34724   3.845   6.168   6.637  0.6104  0.1754  0.6380
  258MOL0     C34725   3.701   6.209   6.647  0.1113 -0.4709  0.7002
  258MOL0     O34726   3.679   6.297   6.751 -0.5713  0.1646 -0.4258
  258MOL0     C34727   3.559   6.367   6.757  0.2657 -0.3775 -0.0353
  258MOL0     C34728   3.562   6.485   6.682 -0.3670 -0.4732 -0.0131
  258MOL0     C34729   3.451   6.565   6.678  0.3218  0.6988  0.5433
  258MOL0     C34730   3.338   6.536   6.742 -0.0581  0.5731 -0.5087
  258MOL0     O34731   3.233   6.630   6.727 -0.2133  0.3626 -0.5667
  258MOL0     C34732   3.116   6.593   6.807 -0.1510  0.4879 -0.0534
  258MOL0     C34733   3.015   6.717   6.806  0.2577 -0.4047  0.0520
  258MOL0     C34734   2.921   6.707   6.927 -0.1096 -0.4628 -0.5713
  258MOL0     C34735   2.822   6.819   6.926 -0.0253 -0.7984 -0.8521
  258MOL0     C34736   2.731   6.805   7.051  0.1463  0.0571 -0.0284
  258MOL0     C34737   2.618   6.917   7.063 -0.5504  0.4695  0.5925
  258MOL0     C34738   2.576   6.923   7.207 -0.3754  0.0818 -0.2263
  258MOL0     C34739   2.448   7.007   7.236 -0.0247  0.5203 -0.3177
  258MOL0    Cl34740   2.299   6.954   7.152 -0.0214 -0.0779 -0.1417
  258MOL0     C34741   3.332   6.417   6.824 -0.5784  0.5127  0.0806
  258MOL0     C34742   3.447   6.338   6.827  0.2500 -0.4015 -0.4070
  258MOL0     O34743   3.615   6.183   6.561  0.7597 -0.0357 -0.0007
  258MOL0     C34744   3.948   6.233   6.704 -0.3227 -0.4641  0.2113
  258MOL0     C34745   4.083   6.198   6.681 -0.2799 -0.3164  0.5051
  258MOL0     N34746   4.476   6.426   6.306 -0.6846  0.1537  0.5046
  258MOL0     N34747   4.560   6.518   6.328 -0.0178 -0.0988 -0.5142
  258MOL0     C34748   5.678   6.365   6.072  0.2138  0.5229 -0.4986
  258MOL0     C34749   5.798   6.298   6.059 -0.6750 -0.0046  0.4474
  258MOL0     C34750   6.119   6.044   5.847 -0.9325 -1.1169 -0.2451
  258MOL0     C34751   6.161   6.074   5.714 -1.0622 -0.3132 -0.1452
  258MOL0     C34752   6.260   5.988   5.652  1.2923  0.3375 -0.3490
  258MOL0     C34753   6.301   5.871   5.705 -0.0600  0.0718  0.3824
  258MOL0     O34754   6.384   5.806   5.619 -0.6233  0.4002  0.0844
  258MOL0     C34755   6.446   5.686   5.663  0.1526 -0.3392 -0.1144
  258MOL0     C34756   6.547   5.676   5.552  1.2149 -0.0863  0.2436
  258MOL0     C34757   6.620   5.548   5.553  0.2316  1.1769  0.1463
  258MOL0     C34758   6.745   5.540   5.466 -0.5894 -0.2412  0.5292
  258MOL0     C34759   6.740   5.628   5.344  0.8447  0.8723  0.1459
  258MOL0     C34760   6.747   5.684   5.237  0.1767 -0.4896 -0.3628
  258MOL0     C34761   6.250   5.827   5.829  0.2687 -0.6277  0.9378
  258MOL0     C34762   6.160   5.916   5.903  0.3081  0.1155 -0.5572
  258MOL0     H34763   5.683   6.000   5.970  0.3872 -0.8313  1.1853
  258MOL0     H34764   5.476   6.100   5.990  0.9474 -0.7209 -1.5462
  258MOL0     H34765   5.369   6.368   5.848 -1.6462 -3.1405 -0.1603
  258MOL0     H34766   5.291   6.279   5.967  1.5115 -0.7848 -0.1121
  258MOL0     H34767   5.277   6.581   5.947 -1.1121  0.4521  0.4846
  258MOL0     H34768   5.152   6.459   5.910  0.1305  0.5954 -0.8863
  258MOL0     H34769   5.132   6.389   6.151 -0.8484  0.5076 -0.0739
  258MOL0     H34770   5.253   6.512   6.203 -3.1722  0.3794  2.3201
  258MOL0     H34771   5.066   6.640   6.223  0.8541 -2.0901  1.1336
  258MOL0     H34772   5.120   6.685   6.066  1.7607 -1.4022 -1.1048
  258MOL0     H34773   4.939   6.538   5.965 -2.6585 -1.4636 -0.9949
  258MOL0     H34774   4.898   6.473   6.118  1.5322 -0.7084 -1.8857
  258MOL0     H34775   4.873   6.765   6.048  1.5482 -0.0041  1.3367
  258MOL0     H34776   4.745   6.633   6.061  0.0829 -0.5469  1.7263
  258MOL0     H34777   4.882   6.769   6.301  0.5117  0.0543  1.4042
  258MOL0     H34778   4.715   6.742   6.255  0.1270 -1.1863  2.4120
  258MOL0     H34779   4.795   6.602   6.442  1.0535  1.3351 -0.6954
  258MOL0     H34780   4.894   6.504   6.342 -0.0679  0.5755  0.5649
  258MOL0     H34781   4.772   6.284   6.261 -2.1098 -2.0639  3.4213
  258MOL0     H34782   4.439   6.201   6.152  3.2463  2.1048 -2.1044
  258MOL0     H34783   4.563   6.107   6.245 -0.8020 -0.8138  2.6496
  258MOL0     H34784   4.348   6.050   6.336  2.4873 -2.1204  2.5538
  258MOL0     H34785   4.325   6.222   6.371 -0.4178  0.1965 -1.6504
  258MOL0     H34786   4.541   6.198   6.516  0.6490 -0.8626  2.6941
  258MOL0     H34787   4.515   6.031   6.515  2.0334  0.5537  0.5501
  258MOL0     H34788   4.325   6.250   6.598  2.1478 -0.0845  1.8658
  258MOL0     H34789   4.389   6.135   6.713 -1.1328 -0.4619  0.1712
  258MOL0     H34790   4.039   5.946   6.465 -1.6599  0.7655 -2.3976
  258MOL0     H34791   3.776   6.018   6.356  0.3024  2.0317  1.8352
  258MOL0     H34792   3.841   5.876   6.443  1.8691  0.2065 -0.9043
  258MOL0     H34793   3.698   5.951   6.509  0.3235 -0.9692  1.3394
  258MOL0     H34794   3.662   6.498   6.641 -0.4035  0.0812  0.0686
  258MOL0     H34795   3.458   6.649   6.609 -2.1558  1.3344  0.9503
  258MOL0     H34796   3.058   6.506   6.774 -0.8967  0.4776  1.2093
  258MOL0     H34797   3.148   6.582   6.911 -0.9810  0.7677  0.2367
  258MOL0     H34798   3.075   6.808   6.801  0.9349 -0.8716 -0.4244
  258MOL0     H34799   2.944   6.697   6.725  0.0879 -0.3141  0.1778
  258MOL0     H34800   2.982   6.723   7.016  0.4728 -0.0794 -1.0375
  258MOL0     H34801   2.871   6.609   6.926  0.0579 -0.5970  1.2824
  258MOL0     H34802   2.868   6.918   6.934 -4.4918  1.3554  1.2744
  258MOL0     H34803   2.757   6.812   6.838  0.0045  0.0563 -0.9455
  258MOL0     H34804   2.801   6.806   7.135 -0.3605 -2.1315  0.4766
  258MOL0     H34805   2.679   6.709   7.042  1.0871 -0.4836  0.1300
  258MOL0     H34806   2.651   7.014   7.024 -0.7998  0.3319  0.0291
  258MOL0     H34807   2.542   6.898   6.986  1.0420 -0.0419 -0.9059
  258MOL0     H34808   2.661   6.966   7.262 -0.8735 -0.3520  0.8989
  258MOL0     H34809   2.565   6.823   7.249 -0.5023 -0.3558 -1.2857
  258MOL0     H34810   2.463   7.113   7.213 -2.4059  1.3011  1.3827
  258MOL0     H34811   2.445   6.983   7.342  4.9910 -5.2431 -0.8740
  258MOL0     H34812   3.243   6.375   6.869 -0.1482  0.7976  1.2355
  258MOL0     H34813   3.438   6.245   6.882 -1.6909 -0.8072 -1.2964
  258MOL0     H34814   3.933   6.322   6.764 -0.1806  1.9119 -3.0382
  258MOL0     H34815   4.154   6.265   6.730  0.2110  0.3829 -1.0996
  258MOL0     H34816   5.664   6.467   6.105 -5.1065  0.2212 -0.9783
  258MOL0     H34817   5.890   6.345   6.092  0.6094 -1.1241 -1.3270
  258MOL0     H34818   6.134   6.165   5.661  1.7183 -0.3133 -1.7771
  258MOL0     H34819   6.290   6.002   5.549  0.2384  0.0737 -0.7119
  258MOL0     H34820   6.499   5.697   5.758 -1.0341 -1.7732  0.7719
  258MOL0     H34821   6.373   5.604   5.661 -2.1040  1.5410 -0.2041
  258MOL0     H34822   6.609   5.766   5.563 -1.5203  1.9216  0.6307
  258MOL0     H34823   6.487   5.674   5.461 -0.5644 -3.1585  1.3550
  258MOL0     H34824   6.556   5.472   5.507  0.3397 -1.1834  3.4904
  258MOL0     H34825   6.636   5.515   5.656  0.0656  2.0861  0.4716
  258MOL0     H34826   6.768   5.437   5.435 -1.0936  0.4428 -2.4402
  258MOL0     H34827   6.839   5.565   5.517  0.3766 -0.2501 -1.1640
  258MOL0     H34828   6.751   5.740   5.145  1.6081  1.7320  0.9547
  258MOL0     H34829   6.298   5.738   5.869  1.4152 -0.4775 -0.0479
  258MOL0     H34830   6.109   5.893   5.996 -0.9196  0.3989 -1.1342
  259MOL0     O34831   3.957   3.493   5.151  0.3895 -0.3084 -0.0452
  259MOL0     C34832   4.001   3.564   5.062 -0.2304 -1.1340  0.4299
  259MOL0     O34833   3.921   3.613   4.962  0.2875 -0.6806  0.4393
  259MOL0     C34834   3.787   3.582   4.967  0.1643 -0.2626 -1.2230
  259MOL0     C34835   3.707   3.604   5.083 -0.0632 -0.3728  0.3420
  259MOL0     C34836   3.568   3.607   5.061  1.4883  0.1611  0.9976
  259MOL0     C34837   3.504   3.576   4.939  0.7309  0.5660 -0.3525
  259MOL0     O34838   3.367   3.566   4.927  0.6569  0.0055  0.1308
  259MOL0     C34839   3.277   3.535   5.032  0.2245 -0.1299  0.1196
  259MOL0     C34840   3.227   3.651   5.121  0.8117 -0.0085  0.2777
  259MOL0     C34841   3.140   3.751   5.042  0.9371  0.2412  0.3531
  259MOL0     C34842   3.026   3.806   5.128  1.3262 -0.6795 -0.0018
  259MOL0     C34843   2.917   3.901   5.051 -0.1319  0.3587 -0.3436
  259MOL0     C34844   2.791   3.923   5.136  0.1459  0.5214 -0.2697
  259MOL0     C34845   2.667   3.991   5.056  0.8945 -0.2101 -0.4214
  259MOL0     C34846   2.531   3.928   5.110  0.1404 -0.4534  0.0811
  259MOL0     N34847   2.413   4.004   5.071  0.6138  0.6282 -0.1644
  259MOL0     C34848   2.354   3.994   4.940  0.4447  0.5870 -0.7520
  259MOL0     C34849   2.268   4.099   4.934  0.0588  0.0243  0.2040
  259MOL0     C34850   2.177   4.146   4.820 -0.9712 -0.1018 -0.3148
  259MOL0     C34851   2.062   4.054   4.786 -0.4333  0.2924  0.0742
  259MOL0     C34852   1.957   4.112   4.683 -0.1745 -0.2996  0.8194
  259MOL0     C34853   1.867   4.231   4.738  0.7250 -0.2428 -0.1774
  259MOL0     O34854   1.763   4.186   4.824  0.1228  0.0916 -0.8934
  259MOL0     C34855   1.674   4.282   4.879  0.1197  0.2504  0.0585
  259MOL0     C34856   1.549   4.228   4.908  0.6468  0.2600  0.8813
  259MOL0     C34857   1.436   4.314   4.921 -0.2531  0.5013  0.5365
  259MOL0     C34858   1.302   4.244   4.937  1.3352  0.0022  0.1792
  259MOL0     C34859   1.456   4.455   4.917  0.2952 -0.5851  1.3276
  259MOL0     C34860   1.340   4.561   4.926 -0.4047  0.6279  0.9845
  259MOL0     O34861   1.205   4.517   4.920  0.1713 -0.0521 -1.0649
  259MOL0     C34862   1.098   4.600   4.936 -0.9894 -0.6498 -0.4826
  259MOL0     C34863   0.977   4.545   4.892 -0.6507  0.2421 -0.2343
  259MOL0     C34864   0.848   4.599   4.911 -0.8114 -0.4639  0.1683
  259MOL0     C34865   0.841   4.732   4.960 -0.8419 -0.7326 -1.0412
  259MOL0     O34866   0.710   4.779   4.983 -0.5793 -0.2052 -0.0842
  259MOL0     C34867   0.634   4.795   4.865 -0.5713  0.4393 -0.6511
  259MOL0     C34868   0.496   4.846   4.922 -0.2401  0.1376 -0.2067
  259MOL0     C34869   0.430   4.737   5.018 -0.1282 -0.8415  0.1252
  259MOL0     C34870   0.287   4.776   5.056  0.5989  0.4986 -1.2253
  259MOL0     C34871   0.211   4.677   5.148 -0.0618 -0.3953 -0.1954
  259MOL0     C34872   0.072   4.722   5.208  0.6319 -0.5633  0.1362
  259MOL0     C34873   0.000   4.606   5.272 -0.4568  1.2479  0.3310
  259MOL0     C34874  -0.149   4.636   5.304  0.0090  0.1527  0.7760
  259MOL0    Cl34875  -0.161   4.781   5.406  0.0411  0.3019 -0.1148
  259MOL0     C34876   0.962   4.798   5.003 -1.2407  0.3871 -0.4787
  259MOL0     C34877   1.087   4.720   5.001 -0.4151  0.0322 -0.6053
  259MOL0     O34878   1.370   4.676   4.925  0.2937 -0.1913  0.1697
  259MOL0     C34879   1.589   4.507   4.913  0.3697  0.6783 -0.1285
  259MOL0     C34880   1.698   4.418   4.879 -0.1846 -0.6867 -0.3521
  259MOL0     N34881   2.263   4.166   5.058  0.3939  0.6171 -0.9735
  259MOL0     N34882   2.358   4.112   5.131  0.0384  0.2545 -0.1502
  259MOL0     C34883   3.586   3.560   4.831  0.3728  0.0502  0.1263
  259MOL0     C34884   3.724   3.565   4.850 -0.8800  0.7465 -0.0739
  259MOL0     C34885   4.142   3.622   5.066  0.3021  0.2117  0.4873
  259MOL0     C34886   4.222   3.620   5.186  0.6237 -0.3334 -0.3123
  259MOL0     C34887   4.349   3.671   5.191  0.0911  1.1769 -0.2658
  259MOL0     C34888   4.401   3.747   5.088 -0.1505  0.2427  0.6672
  259MOL0     O34889   4.517   3.820   5.079 -0.2628  0.4544 -0.3095
  259MOL0     C34890   4.609   3.797   5.191  0.4445  0.2924 -0.1351
  259MOL0     C34891   4.742   3.862   5.164  0.4535  0.2507  0.4227
  259MOL0     C34892   4.805   3.824   5.027  0.3890  0.4473 -0.1051
  259MOL0     C34893   4.953   3.800   5.047  0.6511 -0.3824  0.5761
  259MOL0     C34894   4.979   3.675   5.119 -0.6098 -0.6447  0.0188
  259MOL0     C34895   4.999   3.578   5.191  0.9043  0.6396  0.6080
  259MOL0     C34896   4.325   3.747   4.970  1.1326 -0.2049  0.3122
  259MOL0     C34897   4.199   3.691   4.963  0.0531  0.2539  0.2018
  259MOL0     H34898   3.761   3.649   5.166 -2.2044 -0.2193  1.7616
  259MOL0     H34899   3.500   3.635   5.141 -0.1972 -0.0015 -0.3349
  259MOL0     H34900   3.185   3.483   5.005  1.1400 -0.9464 -1.5412
  259MOL0     H34901   3.313   3.462   5.105 -0.7732  0.5601  1.3534
  259MOL0     H34902   3.169   3.603   5.200  2.7985  0.4150  2.0992
  259MOL0     H34903   3.313   3.706   5.162 -0.3846  1.3509  1.0297
  259MOL0     H34904   3.201   3.824   4.987 -1.2949  0.8636 -1.4212
  259MOL0     H34905   3.096   3.694   4.960  2.5707 -0.3865 -0.1427
  259MOL0     H34906   2.976   3.723   5.178 -2.6668  0.9112 -0.9621
  259MOL0     H34907   3.059   3.864   5.215 -0.5355  1.7566 -0.7908
  259MOL0     H34908   2.963   3.993   5.013 -2.5199  1.4622 -0.7361
  259MOL0     H34909   2.887   3.844   4.963 -0.9391  0.3048 -0.0424
  259MOL0     H34910   2.747   3.828   5.165 -4.4013  2.5468  0.3491
  259MOL0     H34911   2.815   3.976   5.229  2.3763  0.1648 -0.6013
  259MOL0     H34912   2.661   4.098   5.075 -0.1404 -0.3019 -0.1956
  259MOL0     H34913   2.679   3.968   4.949  2.4468  0.7092 -0.4775
  259MOL0     H34914   2.528   3.914   5.219 -3.5050 -1.3271 -0.0158
  259MOL0     H34915   2.527   3.823   5.080 -1.7436 -0.2990 -0.3104
  259MOL0     H34916   2.376   3.913   4.871  1.2201 -2.9775  3.2909
  259MOL0     H34917   2.134   4.241   4.851  0.3308  0.7608 -1.0760
  259MOL0     H34918   2.231   4.165   4.726 -1.9865 -1.1650 -1.1607
  259MOL0     H34919   2.005   4.041   4.879  2.0073 -0.9203  1.5108
  259MOL0     H34920   2.106   3.959   4.754  1.2208  1.0073  0.0855
  259MOL0     H34921   1.896   4.026   4.654 -1.4934  0.4772  1.1738
  259MOL0     H34922   2.021   4.152   4.605 -0.2486 -1.7986 -0.0410
  259MOL0     H34923   1.832   4.266   4.641 -1.3427 -0.9740  0.2578
  259MOL0     H34924   1.927   4.310   4.784 -0.1563  1.2652 -1.5481
  259MOL0     H34925   1.539   4.120   4.904  0.0326  0.3143  0.8904
  259MOL0     H34926   1.253   4.232   4.840 -0.1811 -0.6335  0.9959
  259MOL0     H34927   1.298   4.146   4.986 -6.4753  1.2665  3.4473
  259MOL0     H34928   1.231   4.300   4.998  1.0224  0.5296 -0.6426
  259MOL0     H34929   0.970   4.457   4.829  1.5373 -0.1761  0.0524
  259MOL0     H34930   0.774   4.544   4.854 -0.2237  0.9537 -2.1036
  259MOL0     H34931   0.676   4.873   4.801 -0.5052  0.5974 -0.4196
  259MOL0     H34932   0.620   4.701   4.812 -2.2817  0.7497 -0.7999
  259MOL0     H34933   0.513   4.932   4.987  1.4173 -0.0899 -0.3183
  259MOL0     H34934   0.427   4.872   4.841 -0.7997 -0.7571 -0.0365
  259MOL0     H34935   0.488   4.734   5.111 -0.2456 -0.7549  0.2018
  259MOL0     H34936   0.431   4.636   4.974 -2.9710 -0.3696 -1.2448
  259MOL0     H34937   0.286   4.871   5.112 -1.3202  0.4849 -1.1502
  259MOL0     H34938   0.221   4.779   4.969 -1.7605 -0.8694  0.4063
  259MOL0     H34939   0.278   4.657   5.232 -1.4671 -1.0256  0.8135
  259MOL0     H34940   0.204   4.589   5.083 -3.0038  0.5924 -1.3783
  259MOL0     H34941   0.092   4.805   5.276 -1.1950 -1.3898  1.7957
  259MOL0     H34942   0.013   4.766   5.127 -1.2272 -0.3277  1.5437
  259MOL0     H34943   0.045   4.581   5.369  0.2974  0.1840 -0.2750
  259MOL0     H34944   0.009   4.510   5.221 -1.2329 -0.9172  3.8767
  259MOL0     H34945  -0.195   4.552   5.357 -0.2483 -1.0341 -1.2064
  259MOL0     H34946  -0.203   4.653   5.210  0.3002  3.7902  1.1550
  259MOL0     H34947   0.959   4.897   5.046  0.9260  1.7699 -3.1316
  259MOL0     H34948   1.174   4.758   5.053 -1.6788  1.4083  0.5809
  259MOL0     H34949   1.614   4.612   4.910  1.0364  0.5789  1.3429
  259MOL0     H34950   1.798   4.457   4.866 -1.1224  2.2106  0.3538
  259MOL0     H34951   3.548   3.529   4.734 -0.7535  0.9833  0.2488
  259MOL0     H34952   3.795   3.564   4.768  1.4897  1.9288  1.8296
  259MOL0     H34953   4.181   3.582   5.279  0.7047  0.8287  0.2179
  259MOL0     H34954   4.401   3.654   5.285 -0.4691 -1.5040 -0.3568
  259MOL0     H34955   4.566   3.839   5.282  1.3279  2.0883 -0.4977
  259MOL0     H34956   4.631   3.690   5.190 -3.2398 -0.5997  0.8423
  259MOL0     H34957   4.808   3.836   5.247 -0.6964  0.7258  1.5115
  259MOL0     H34958   4.731   3.971   5.169  1.9802  0.5650 -1.6807
  259MOL0     H34959   4.785   3.902   4.954 -1.1448 -1.1423 -1.4880
  259MOL0     H34960   4.750   3.740   4.983 -1.2155 -0.3315  3.0639
  259MOL0     H34961   4.986   3.888   5.103 -0.0670  0.8166 -0.8245
  259MOL0     H34962   4.998   3.790   4.947 -0.1579 -0.6730  0.2324
  259MOL0     H34963   5.016   3.496   5.258  2.7916  1.1582  0.7953
  259MOL0     H34964   4.364   3.798   4.882  3.1172 -1.4272  0.4238
  259MOL0     H34965   4.136   3.734   4.885 -3.0134 -0.6838  1.9986
  260MOL0     O34966   2.698   6.642   6.312  0.4306 -0.0613 -0.4958
  260MOL0     C34967   2.796   6.606   6.380 -0.3824  0.6976  0.2365
  260MOL0     O34968   2.796   6.568   6.514  0.8379  0.1311 -0.6736
  260MOL0     C34969   2.691   6.600   6.596  0.4628 -1.5807 -0.2810
  260MOL0     C34970   2.594   6.703   6.584 -0.8463  0.2279 -0.0036
  260MOL0     C34971   2.507   6.737   6.687 -0.3865  0.3010  0.0836
  260MOL0     C34972   2.504   6.669   6.808 -0.0663 -0.0981  0.9230
  260MOL0     O34973   2.423   6.698   6.914 -0.0033 -0.0216  0.6731
  260MOL0     C34974   2.283   6.730   6.891  0.2573 -0.1889  1.0155
  260MOL0     C34975   2.196   6.600   6.868 -0.2938 -0.7611  0.4098
  260MOL0     C34976   2.048   6.629   6.824 -0.4970  0.3170  0.0527
  260MOL0     C34977   1.962   6.703   6.930 -0.0039 -0.4158 -0.3798
  260MOL0     C34978   1.814   6.664   6.914 -0.2757 -0.2706 -0.5121
  260MOL0     C34979   1.729   6.738   7.023  0.1994  0.4756 -0.3895
  260MOL0     C34980   1.579   6.726   6.999 -0.1825  0.0205  0.0058
  260MOL0     C34981   1.519   6.587   7.030 -0.2972 -1.0121  0.6495
  260MOL0     N34982   1.399   6.564   6.961  0.6224 -0.3947  0.1594
  260MOL0     C34983   1.308   6.659   6.919  0.3682 -0.2791 -0.0021
  260MOL0     C34984   1.238   6.601   6.815 -0.0624  0.1788 -0.0427
  260MOL0     C34985   1.125   6.671   6.736 -0.8523 -0.5122  0.3555
  260MOL0     C34986   0.990   6.621   6.786  0.5585 -0.5071  0.1840
  260MOL0     C34987   0.882   6.671   6.682  0.7019 -0.3609  0.5038
  260MOL0     C34988   0.745   6.619   6.718  0.0383 -0.5365 -0.0204
  260MOL0     O34989   0.645   6.682   6.634  0.4082  0.7855 -0.8729
  260MOL0     C34990   0.507   6.656   6.661 -0.4481 -0.6468  0.0469
  260MOL0     C34991   0.461   6.572   6.764 -0.0603 -0.8904  0.5024
  260MOL0     C34992   0.322   6.555   6.791 -0.3118 -0.3941 -0.4857
  260MOL0     C34993   0.290   6.471   6.917 -0.6103 -1.1773  0.0796
  260MOL0     C34994   0.227   6.622   6.697  0.5705  1.1455 -0.5110
  260MOL0     C34995   0.082   6.602   6.707  0.5803 -0.4088 -0.7598
  260MOL0     O34996   0.005   6.690   6.632 -0.0036 -0.4111 -0.1645
  260MOL0     C34997  -0.128   6.685   6.620  0.4849 -0.2409  0.0692
  260MOL0     C34998  -0.187   6.804   6.566 -0.1813  0.3172 -0.6748
  260MOL0     C34999  -0.327   6.816   6.565 -0.0334  0.5105  0.0700
  260MOL0     C35000  -0.418   6.715   6.605  0.8237  0.1389 -0.9240
  260MOL0     O35001  -0.558   6.730   6.593  0.4208  0.0044 -0.0311
  260MOL0     C35002  -0.632   6.733   6.720  1.0395  0.5355 -0.1288
  260MOL0     C35003  -0.774   6.797   6.691 -0.2602  0.3194 -0.2674
  260MOL0     C35004  -0.849   6.848   6.811 -0.3830 -0.2905  0.0234
  260MOL0     C35005  -0.980   6.918   6.769  0.5615 -0.5585  0.1703
  260MOL0     C35006  -1.088   6.941   6.874 -0.0883 -0.3167 -0.1498
  260MOL0     C35007  -1.218   7.008   6.821  0.0152 -0.3796 -0.1981
  260MOL0     C35008  -1.293   6.922   6.724 -1.1073  0.9033 -0.1019
  260MOL0     C35009  -1.427   6.983   6.672  0.3594  0.3096  0.4120
  260MOL0    Cl35010  -1.527   7.009   6.813  0.0259 -0.0777 -0.2932
  260MOL0     C35011  -0.358   6.611   6.675 -0.4580  0.1359 -0.5110
  260MOL0     C35012  -0.222   6.592   6.677  0.6872  0.3421  0.6500
  260MOL0     O35013   0.037   6.530   6.795 -0.3127 -0.1203 -0.1977
  260MOL0     C35014   0.273   6.709   6.605 -0.0044  0.1313  0.7138
  260MOL0     C35015   0.412   6.723   6.591  0.2846 -0.5414  0.4945
  260MOL0     N35016   1.293   6.476   6.789 -0.2046 -0.6527 -0.1552
  260MOL0     N35017   1.385   6.450   6.874  0.3455 -0.5810 -0.1597
  260MOL0     C35018   2.590   6.561   6.819 -0.4500  0.3374 -0.0557
  260MOL0     C35019   2.685   6.531   6.717 -0.3321 -0.2781 -0.1315
  260MOL0     C35020   2.930   6.613   6.328 -0.3023  0.6641 -0.0422
  260MOL0     C35021   3.040   6.588   6.407  0.2039  0.4299 -0.7682
  260MOL0     C35022   3.173   6.602   6.351  0.0154 -0.0283 -0.5528
  260MOL0     C35023   3.188   6.640   6.220  0.5917  0.6667  0.6729
  260MOL0     O35024   3.316   6.650   6.171 -0.3004  0.1328 -0.3253
  260MOL0     C35025   3.343   6.674   6.032 -0.3370  0.2662 -0.3352
  260MOL0     C35026   3.493   6.650   6.000 -0.1914  0.6783 -0.0856
  260MOL0     C35027   3.576   6.773   6.045  0.2109 -0.0009  0.4263
  260MOL0     C35028   3.730   6.729   6.072  0.4725  0.1592  0.7571
  260MOL0     C35029   3.810   6.712   5.951 -0.5899  0.3985  0.2040
  260MOL0     C35030   3.881   6.677   5.861 -0.5412  0.4063 -0.2180
  260MOL0     C35031   3.074   6.663   6.140 -0.3246 -0.0624 -0.8608
  260MOL0     C35032   2.948   6.646   6.194  0.2359  0.6000  0.0157
  260MOL0     H35033   2.600   6.755   6.489 -1.8273 -1.3450 -0.9718
  260MOL0     H35034   2.445   6.824   6.667 -1.7075 -0.4174  0.8825
  260MOL0     H35035   2.237   6.781   6.976 -0.4121  2.8118 -0.9850
  260MOL0     H35036   2.269   6.801   6.809 -1.4612 -0.1690  1.2947
  260MOL0     H35037   2.249   6.547   6.789 -1.3775 -3.1100  1.1588
  260MOL0     H35038   2.208   6.541   6.959  0.6699 -0.8450  0.2381
  260MOL0     H35039   2.059   6.694   6.737  0.4127 -0.9274 -0.8034
  260MOL0     H35040   2.007   6.529   6.805  0.9426 -0.4695  0.8804
  260MOL0     H35041   1.988   6.676   7.032 -2.3587  1.1799  0.7206
  260MOL0     H35042   1.969   6.811   6.914  1.1987 -0.5191 -0.6303
  260MOL0     H35043   1.787   6.674   6.808 -3.2626 -0.9073  0.0776
  260MOL0     H35044   1.795   6.556   6.925  0.7844 -0.5808 -1.5121
  260MOL0     H35045   1.738   6.690   7.121 -5.6421 -2.2244 -0.7404
  260MOL0     H35046   1.762   6.841   7.038  0.5389  0.6229 -1.9594
  260MOL0     H35047   1.521   6.793   7.063  1.6048  0.1458  1.6129
  260MOL0     H35048   1.566   6.759   6.895  0.4309  4.4174  1.1022
  260MOL0     H35049   1.495   6.576   7.137  0.9953 -1.5209  0.9084
  260MOL0     H35050   1.592   6.509   7.007  0.5889 -0.7110  2.2431
  260MOL0     H35051   1.289   6.756   6.965  1.8705  0.5188 -1.0095
  260MOL0     H35052   1.122   6.780   6.747 -0.2158 -0.4522 -0.0091
  260MOL0     H35053   1.145   6.641   6.633 -0.7098  2.1672 -0.4563
  260MOL0     H35054   0.979   6.649   6.891 -1.7575 -2.3451  0.5213
  260MOL0     H35055   0.990   6.513   6.770 -2.3734 -0.6212  0.4210
  260MOL0     H35056   0.906   6.632   6.582  1.2217 -0.1053  0.5279
  260MOL0     H35057   0.880   6.780   6.686  0.5800 -0.3396 -0.0313
  260MOL0     H35058   0.715   6.632   6.823  1.1806  3.1574 -0.0100
  260MOL0     H35059   0.748   6.511   6.700  1.0840 -0.5724  0.2844
  260MOL0     H35060   0.536   6.519   6.823  0.4728  0.9457  1.5395
  260MOL0     H35061   0.384   6.451   6.970  1.1724  3.8535 -0.6989
  260MOL0     H35062   0.210   6.519   6.973  1.1046  2.3321 -0.2319
  260MOL0     H35063   0.245   6.374   6.894  0.6162 -1.7376 -0.0559
  260MOL0     H35064  -0.123   6.881   6.524  1.5112  0.4135  1.8645
  260MOL0     H35065  -0.381   6.902   6.528 -0.3436  1.5720  2.8107
  260MOL0     H35066  -0.635   6.630   6.755  1.0994  0.6281  0.1539
  260MOL0     H35067  -0.579   6.795   6.795 -1.5879  0.1531  2.2088
  260MOL0     H35068  -0.782   6.865   6.606 -1.8128 -1.5906 -1.7462
  260MOL0     H35069  -0.829   6.708   6.659  2.4994 -2.1398  1.2378
  260MOL0     H35070  -0.778   6.909   6.868 -0.6249 -0.6502  0.7283
  260MOL0     H35071  -0.865   6.758   6.872  4.1729 -2.3107 -1.3106
  260MOL0     H35072  -0.970   7.017   6.722 -4.0991 -0.2509 -0.6528
  260MOL0     H35073  -1.017   6.857   6.686 -0.8041 -0.5184  0.7288
  260MOL0     H35074  -1.055   7.017   6.946  0.0935 -0.0995 -0.4603
  260MOL0     H35075  -1.108   6.848   6.929  0.9793 -1.5753 -1.7874
  260MOL0     H35076  -1.284   7.052   6.896  0.2482  1.6773 -1.1175
  260MOL0     H35077  -1.182   7.092   6.760  0.1388 -0.6081 -0.4467
  260MOL0     H35078  -1.320   6.829   6.775  4.4712 -0.9766  0.1622
  260MOL0     H35079  -1.229   6.884   6.643 -1.1363  1.0282 -0.1844
  260MOL0     H35080  -1.482   6.916   6.606 -0.4265 -0.5093  1.8482
  260MOL0     H35081  -1.406   7.071   6.611  1.2202 -0.3885 -0.3295
  260MOL0     H35082  -0.416   6.532   6.722 -0.9254 -0.5786 -2.2150
  260MOL0     H35083  -0.187   6.507   6.734  1.7475  1.0899  1.1364
  260MOL0     H35084   0.206   6.764   6.539 -0.9286 -2.0771 -0.2865
  260MOL0     H35085   0.450   6.791   6.515 -2.0114  2.2485  1.6989
  260MOL0     H35086   2.582   6.502   6.910  1.0242 -0.3510 -0.3348
  260MOL0     H35087   2.762   6.458   6.736 -0.5124 -1.0222 -2.0000
  260MOL0     H35088   3.020   6.558   6.509  2.0780 -2.9510 -1.2580
  260MOL0     H35089   3.259   6.585   6.416 -1.5696 -1.7027  1.2479
  260MOL0     H35090   3.286   6.606   5.968  2.9766 -0.0123 -3.3087
  260MOL0     H35091   3.316   6.778   6.010  0.4417  0.7969  1.0868
  260MOL0     H35092   3.495   6.637   5.891 -1.2258 -0.3391 -0.0064
  260MOL0     H35093   3.532   6.555   6.037  2.0072  0.5191 -2.5062
  260MOL0     H35094   3.538   6.808   6.141 -1.0283 -0.0771 -0.0277
  260MOL0     H35095   3.564   6.860   5.980 -1.2144 -1.5367 -1.4840
  260MOL0     H35096   3.740   6.632   6.122  1.2789 -1.5846 -2.5202
  260MOL0     H35097   3.777   6.808   6.132 -1.5180  0.0400  2.6170
  260MOL0     H35098   3.940   6.648   5.776  1.4047  1.3443  0.7382
  260MOL0     H35099   3.095   6.702   6.041  1.8541  1.2665  0.0384
  260MOL0     H35100   2.864   6.662   6.128 -3.1404  1.1359  4.0230
  261MOL0     O35101   0.965   1.731   4.192 -0.1904  0.2332  0.2702
  261MOL0     C35102   0.955   1.665   4.089 -0.1218  0.2097 -0.1354
  261MOL0     O35103   0.861   1.569   4.059 -1.0345 -0.1637  0.2756
  261MOL0     C35104   0.762   1.525   4.147 -0.2979 -0.6058  0.7681
  261MOL0     C35105   0.781   1.500   4.277  0.1327  0.1213 -0.1639
  261MOL0     C35106   0.676   1.470   4.365  0.2717 -0.4640  0.0951
  261MOL0     C35107   0.552   1.442   4.314  0.6985  0.3971  0.3741
  261MOL0     O35108   0.449   1.385   4.394 -0.6601 -0.8542  0.1861
  261MOL0     C35109   0.389   1.477   4.485  0.5704 -0.7192  0.5740
  261MOL0     C35110   0.302   1.391   4.582 -0.2741 -0.3520 -0.6163
  261MOL0     C35111   0.200   1.462   4.664  0.2664 -0.3207 -0.0098
  261MOL0     C35112   0.130   1.369   4.763  0.4113 -0.1416 -0.0140
  261MOL0     C35113   0.049   1.449   4.868 -0.1531 -0.0388  0.1431
  261MOL0     C35114  -0.053   1.366   4.947  0.1813  0.7608 -0.2015
  261MOL0     C35115  -0.138   1.272   4.858 -0.0476 -0.6982 -0.1996
  261MOL0     C35116  -0.254   1.219   4.941  0.2942  0.0900 -0.0313
  261MOL0     N35117  -0.303   1.105   4.862  0.4357  0.6005  0.1109
  261MOL0     C35118  -0.388   1.130   4.754  0.9020  0.4835  0.5642
  261MOL0     C35119  -0.426   1.007   4.712  0.1191  0.0560 -0.1849
  261MOL0     C35120  -0.515   0.973   4.602 -0.1863 -0.1583 -0.0533
  261MOL0     C35121  -0.651   0.942   4.652 -0.8407 -0.0922  0.2845
  261MOL0     C35122  -0.748   0.956   4.539  0.6495 -0.6399 -0.2591
  261MOL0     C35123  -0.799   1.095   4.502 -0.2973 -0.3102 -0.7156
  261MOL0     O35124  -0.839   1.174   4.617  0.1011 -0.5814  0.5194
  261MOL0     C35125  -0.939   1.145   4.701 -0.0382  0.6413 -1.0913
  261MOL0     C35126  -0.944   1.232   4.812  0.7047 -0.5838  0.0189
  261MOL0     C35127  -1.048   1.217   4.908 -0.5076  0.4521  0.3830
  261MOL0     C35128  -1.055   1.322   5.017  0.2521  0.0845 -0.0106
  261MOL0     C35129  -1.141   1.099   4.892  0.3969  0.3676  0.2049
  261MOL0     C35130  -1.247   1.069   4.993  0.7565  0.1932  0.3668
  261MOL0     O35131  -1.303   0.947   4.975 -0.3028  1.2790 -0.3026
  261MOL0     C35132  -1.416   0.899   5.050  0.0343 -0.0385  0.8115
  261MOL0     C35133  -1.448   0.933   5.183  0.2202 -0.0054  0.3884
  261MOL0     C35134  -1.556   0.881   5.248  0.8358  0.0727 -0.4039
  261MOL0     C35135  -1.628   0.765   5.200 -0.5218 -0.5359  0.7491
  261MOL0     O35136  -1.723   0.700   5.278 -0.0992  0.1399 -0.0899
  261MOL0     C35137  -1.820   0.612   5.220 -0.4514 -0.1312  0.9911
  261MOL0     C35138  -1.931   0.609   5.314  0.6195 -0.1162  0.3511
  261MOL0     C35139  -2.036   0.513   5.269 -0.6909  0.8556  0.4946
  261MOL0     C35140  -2.160   0.521   5.352  0.1769 -0.6002  0.1002
  261MOL0     C35141  -2.268   0.433   5.289  0.4765 -0.2039  0.5171
  261MOL0     C35142  -2.242   0.283   5.276 -0.5647  0.1208 -0.7837
  261MOL0     C35143  -2.342   0.204   5.187  0.5641 -0.5394 -0.3940
  261MOL0     C35144  -2.374   0.057   5.240  0.2978 -0.0360 -0.1382
  261MOL0    Cl35145  -2.443   0.080   5.406 -0.1850  0.2204 -0.1521
  261MOL0     C35146  -1.598   0.730   5.063  0.2177 -0.4131  0.1077
  261MOL0     C35147  -1.489   0.789   4.997  0.1455  0.8632  0.3721
  261MOL0     O35148  -1.293   1.160   5.057  0.5254  0.5076 -0.6539
  261MOL0     C35149  -1.134   1.017   4.779 -0.5023 -0.2693 -1.0576
  261MOL0     C35150  -1.036   1.043   4.685  0.2296  1.5181  0.1376
  261MOL0     N35151  -0.366   0.912   4.791 -0.6210  0.1510 -0.1796
  261MOL0     N35152  -0.299   0.971   4.885 -0.1367 -0.4451 -0.0788
  261MOL0     C35153   0.530   1.473   4.170 -0.1461  0.2964 -0.2378
  261MOL0     C35154   0.632   1.519   4.085 -0.7431  0.1648 -0.7273
  261MOL0     C35155   1.047   1.707   3.973 -0.2996  0.6085 -0.6238
  261MOL0     C35156   1.129   1.821   3.996 -0.0560 -0.4510 -0.6094
  261MOL0     C35157   1.227   1.866   3.909 -0.0859  0.0054  0.3482
  261MOL0     C35158   1.248   1.800   3.784  0.9883  0.3397 -0.4705
  261MOL0     O35159   1.354   1.817   3.703  0.2748  0.0287  0.0153
  261MOL0     C35160   1.433   1.939   3.703 -0.8762 -0.1850 -0.0667
  261MOL0     C35161   1.559   1.930   3.614  0.1005 -0.6728 -0.1469
  261MOL0     C35162   1.626   2.066   3.590 -0.1679 -1.0150  0.3376
  261MOL0     C35163   1.748   2.052   3.504 -0.1835 -0.3530  0.5321
  261MOL0     C35164   1.775   2.174   3.434 -0.3467  0.1849  0.4146
  261MOL0     C35165   1.787   2.282   3.389 -0.4079  0.5948 -0.2707
  261MOL0     C35166   1.167   1.693   3.755  0.8871  0.5428  0.5497
  261MOL0     C35167   1.061   1.648   3.841 -0.1397  0.0256 -0.0055
  261MOL0     H35168   0.881   1.495   4.319 -0.2412  2.6186  1.2085
  261MOL0     H35169   0.685   1.443   4.470 -1.3420  0.4745  0.5147
  261MOL0     H35170   0.460   1.535   4.543 -1.1270  1.7513  0.3529
  261MOL0     H35171   0.336   1.556   4.432 -1.1615 -1.7304  0.6901
  261MOL0     H35172   0.244   1.322   4.521 -1.1926 -1.4332  1.3961
  261MOL0     H35173   0.364   1.326   4.644  1.7412  0.4726 -1.6640
  261MOL0     H35174   0.251   1.544   4.716  1.8646 -0.9152 -0.5722
  261MOL0     H35175   0.131   1.512   4.596  2.6694  0.6894 -1.8750
  261MOL0     H35176   0.056   1.305   4.714  1.5008 -0.8975 -0.7155
  261MOL0     H35177   0.211   1.307   4.803  0.6054 -0.9459 -1.5753
  261MOL0     H35178   0.104   1.500   4.947 -1.7462  1.6636  0.2426
  261MOL0     H35179   0.007   1.523   4.798 -1.9481 -0.7065  0.4596
  261MOL0     H35180   0.002   1.311   5.024  0.3679  0.9584 -0.1915
  261MOL0     H35181  -0.114   1.436   5.006  0.6957  0.1209  1.1182
  261MOL0     H35182  -0.190   1.328   4.780 -2.6936 -0.1861  1.7549
  261MOL0     H35183  -0.084   1.186   4.816  1.2390  0.2917 -0.6127
  261MOL0     H35184  -0.330   1.297   4.953 -1.2766 -1.2035 -1.1577
  261MOL0     H35185  -0.230   1.191   5.044 -4.5736 -4.3822  0.2840
  261MOL0     H35186  -0.409   1.229   4.715  1.6309  0.2516 -0.4456
  261MOL0     H35187  -0.527   1.063   4.541 -0.8408 -0.2869 -0.1181
  261MOL0     H35188  -0.473   0.887   4.548 -2.4428  1.0419 -4.1332
  261MOL0     H35189  -0.681   0.999   4.740  0.7199  1.6826 -0.2580
  261MOL0     H35190  -0.652   0.841   4.694  1.6911  0.7677  2.7148
  261MOL0     H35191  -0.835   0.896   4.567  0.8124  0.1125  2.1261
  261MOL0     H35192  -0.703   0.908   4.452  0.7461 -0.7791 -0.1346
  261MOL0     H35193  -0.882   1.079   4.433 -0.2426 -1.1531 -0.5879
  261MOL0     H35194  -0.728   1.151   4.441  0.6332 -0.7035 -0.0086
  261MOL0     H35195  -0.875   1.316   4.804  2.3824 -2.0265 -1.5545
  261MOL0     H35196  -1.066   1.279   5.117  2.1947  0.3470  0.3545
  261MOL0     H35197  -0.959   1.375   5.017  0.7193 -0.7309 -0.9251
  261MOL0     H35198  -1.135   1.392   4.990 -1.2553 -1.2859  0.7222
  261MOL0     H35199  -1.398   1.016   5.232 -1.1665 -0.0643  2.0012
  261MOL0     H35200  -1.583   0.912   5.349  1.3283 -0.0824 -0.2184
  261MOL0     H35201  -1.853   0.649   5.122  1.9240  1.2625  0.6295
  261MOL0     H35202  -1.774   0.515   5.198 -1.8239 -0.9427  1.5573
  261MOL0     H35203  -1.882   0.584   5.408  2.1028  1.0371 -0.0774
  261MOL0     H35204  -1.972   0.711   5.320  0.1510 -0.0832 -2.2154
  261MOL0     H35205  -1.994   0.412   5.279 -0.3123  0.6803 -2.0869
  261MOL0     H35206  -2.059   0.554   5.170  3.2723 -0.2506 -1.0702
  261MOL0     H35207  -2.138   0.491   5.455 -0.0439  1.8772  0.9395
  261MOL0     H35208  -2.197   0.624   5.355 -1.2208 -1.0786 -0.3057
  261MOL0     H35209  -2.300   0.478   5.194 -0.3717 -1.7090  0.0560
  261MOL0     H35210  -2.356   0.450   5.351  0.2845  0.2885  0.1186
  261MOL0     H35211  -2.150   0.258   5.223 -0.6209  1.4627 -1.5418
  261MOL0     H35212  -2.235   0.241   5.377 -0.5057  2.2989  0.1644
  261MOL0     H35213  -2.323   0.210   5.079 -2.8455 -0.7126 -1.0965
  261MOL0     H35214  -2.434   0.262   5.192  0.3245 -0.5924 -2.8766
  261MOL0     H35215  -2.280   0.002   5.239  0.2235 -0.1694  0.1834
  261MOL0     H35216  -2.449   0.010   5.175 -0.7394  0.3316  0.7454
  261MOL0     H35217  -1.655   0.660   5.003 -1.0414  0.2549  0.4909
  261MOL0     H35218  -1.469   0.744   4.900  1.4498 -1.3957  1.5751
  261MOL0     H35219  -1.199   0.935   4.751  0.0608 -1.1804  0.2241
  261MOL0     H35220  -1.028   0.970   4.606  0.6182 -0.1068  1.6100
  261MOL0     H35221   0.437   1.453   4.118  0.5912 -2.2160 -0.7227
  261MOL0     H35222   0.622   1.537   3.979  4.3340 -0.9060 -1.6190
  261MOL0     H35223   1.120   1.875   4.090  1.2419  1.9733 -1.7806
  261MOL0     H35224   1.295   1.938   3.954 -0.6071 -0.3492  1.7772
  261MOL0     H35225   1.373   2.025   3.673 -0.9444  0.3123  1.4157
  261MOL0     H35226   1.462   1.968   3.805 -2.2115  0.3504  0.1728
  261MOL0     H35227   1.531   1.884   3.518 -0.6406 -2.1397  0.7357
  261MOL0     H35228   1.637   1.865   3.656  1.2534 -0.8998 -2.4679
  261MOL0     H35229   1.659   2.102   3.688  1.2918  0.8554 -0.7719
  261MOL0     H35230   1.564   2.150   3.556  1.7115  1.0728  1.7291
  261MOL0     H35231   1.729   1.971   3.433  2.2283 -0.8571  0.3562
  261MOL0     H35232   1.839   2.030   3.561 -0.7392  0.4500  1.7720
  261MOL0     H35233   1.805   2.374   3.337 -1.6104  1.1955  0.3576
  261MOL0     H35234   1.184   1.634   3.666  1.4161 -2.6594  2.5741
  261MOL0     H35235   0.990   1.570   3.814  1.0916 -0.2920 -2.6191
  262MOL0     O35236   9.845   6.124   8.182  0.3590 -0.7412  0.0374
  262MOL0     C35237   9.892   6.019   8.135 -0.5593  0.0230 -0.6792
  262MOL0     O35238   9.824   5.920   8.078  0.0315 -0.1679  0.2060
  262MOL0     C35239   9.700   5.947   8.037  0.5086 -0.6193 -0.1585
  262MOL0     C35240   9.669   5.944   7.902  0.3176 -0.1482 -0.2818
  262MOL0     C35241   9.538   5.968   7.854 -0.1415  0.6312 -0.1216
  262MOL0     C35242   9.434   6.009   7.932  0.0900 -1.2512 -0.6957
  262MOL0     O35243   9.315   6.049   7.876 -0.2840 -0.1330  0.3819
  262MOL0     C35244   9.196   5.989   7.925 -0.7246 -0.3258  0.7524
  262MOL0     C35245   9.082   5.994   7.824  0.3956  0.8273 -0.2853
  262MOL0     C35246   9.101   5.896   7.704 -0.1513 -0.2935 -0.3732
  262MOL0     C35247   8.958   5.900   7.631 -1.4613  0.2978  0.3194
  262MOL0     C35248   8.944   5.778   7.546 -0.1546  0.0727  0.0320
  262MOL0     C35249   8.860   5.821   7.432  0.1399  0.0501  0.4134
  262MOL0     C35250   8.814   5.696   7.350  0.8452  0.2336 -0.8053
  262MOL0     C35251   8.915   5.641   7.255  0.3656  0.7879 -0.3052
  262MOL0     N35252   8.859   5.550   7.155 -0.9943  0.2322 -0.9860
  262MOL0     C35253   8.853   5.566   7.018 -0.6183  0.6348  0.1634
  262MOL0     C35254   8.772   5.474   6.968 -0.3276  0.4070  0.0053
  262MOL0     C35255   8.728   5.447   6.820  0.6287 -0.4011 -0.9481
  262MOL0     C35256   8.580   5.398   6.793  0.0850 -0.5021 -0.6458
  262MOL0     C35257   8.522   5.429   6.661 -0.0862  1.2404 -0.0049
  262MOL0     C35258   8.420   5.314   6.618 -0.9509 -1.0112 -0.3541
  262MOL0     O35259   8.371   5.326   6.486  0.5288 -0.1192  0.6078
  262MOL0     C35260   8.265   5.412   6.459  0.2943  0.2267  0.0514
  262MOL0     C35261   8.289   5.541   6.424  0.4761  0.5426 -0.3634
  262MOL0     C35262   8.178   5.629   6.402 -0.5209  0.6929 -0.2485
  262MOL0     C35263   8.209   5.761   6.357 -0.1631  0.2817  0.6202
  262MOL0     C35264   8.043   5.584   6.408  0.4478 -0.2304  0.2175
  262MOL0     C35265   7.925   5.668   6.385  0.2419 -0.6159  0.0159
  262MOL0     O35266   7.811   5.604   6.435 -0.1808 -0.0094  0.6622
  262MOL0     C35267   7.685   5.651   6.406 -1.0288  0.4438 -0.9880
  262MOL0     C35268   7.650   5.774   6.463  1.1956 -1.0554 -0.1859
  262MOL0     C35269   7.518   5.830   6.434 -0.7187  0.0177 -0.1574
  262MOL0     C35270   7.439   5.764   6.339 -0.2942  0.8683  0.5753
  262MOL0     O35271   7.319   5.819   6.289 -0.1958  0.1252  0.4335
  262MOL0     C35272   7.238   5.912   6.369  0.1067 -0.3499  0.0085
  262MOL0     C35273   7.097   5.923   6.303  0.1449 -0.4095 -0.7170
  262MOL0     C35274   7.019   5.792   6.297 -0.1739 -1.0992 -0.2957
  262MOL0     C35275   6.964   5.755   6.438  1.0590 -0.6093  0.9359
  262MOL0     C35276   6.871   5.637   6.431  0.9212  0.0271 -0.3604
  262MOL0     C35277   6.820   5.613   6.572  0.1580  0.4840  0.0088
  262MOL0     C35278   6.725   5.488   6.587 -0.2390  0.7084 -1.1344
  262MOL0     C35279   6.726   5.429   6.726  0.1462 -0.1256 -0.2582
  262MOL0    Cl35280   6.669   5.548   6.844  0.1080  0.1163 -0.0306
  262MOL0     C35281   7.477   5.635   6.292 -0.5522  0.2056  0.7740
  262MOL0     C35282   7.596   5.575   6.335 -0.3782 -0.8236 -0.1004
  262MOL0     O35283   7.929   5.773   6.321  0.6617  0.0781  0.2512
  262MOL0     C35284   8.027   5.446   6.443 -0.8242 -0.5759 -0.2637
  262MOL0     C35285   8.141   5.362   6.472  0.5410 -0.9059 -0.2253
  262MOL0     N35286   8.736   5.398   7.077 -0.3577  0.7206 -0.5035
  262MOL0     N35287   8.793   5.434   7.184  0.4013 -0.4687 -0.5374
  262MOL0     C35288   9.463   6.011   8.073  0.4777  1.2031  0.1176
  262MOL0     C35289   9.588   5.967   8.119 -0.3444  0.1293 -0.4723
  262MOL0     C35290  10.035   5.989   8.153 -0.1087 -0.2401  0.1433
  262MOL0     C35291  10.107   6.063   8.254  0.5409 -0.4187 -0.1853
  262MOL0     C35292  10.233   6.013   8.297 -0.1207 -0.1533 -0.1082
  262MOL0     C35293  10.280   5.884   8.250 -0.1022  0.3434 -0.4135
  262MOL0     O35294  10.397   5.825   8.296  0.2509 -0.3095 -0.4752
  262MOL0     C35295  10.486   5.910   8.364  0.5062  0.5445 -1.1416
  262MOL0     C35296  10.620   5.835   8.377 -0.2380 -0.2744  0.0839
  262MOL0     C35297  10.676   5.785   8.244 -0.1158  0.3348  0.4379
  262MOL0     C35298  10.760   5.897   8.186  0.0789 -0.1407  0.0155
  262MOL0     C35299  10.898   5.889   8.248 -1.6588  0.4797 -0.6269
  262MOL0     C35300  11.010   5.905   8.297  0.9433  0.5072  0.3990
  262MOL0     C35301  10.218   5.825   8.136  0.1417  0.3333 -0.3639
  262MOL0     C35302  10.100   5.885   8.085  0.9458  0.3773  0.4951
  262MOL0     H35303   9.747   5.915   7.833  1.7086 -2.9243  2.2188
  262MOL0     H35304   9.524   5.950   7.748 -0.3718 -2.9536  0.4053
  262MOL0     H35305   9.219   5.883   7.939  0.4724 -0.0836  0.7128
  262MOL0     H35306   9.164   6.044   8.014 -0.5243  3.0473 -1.0949
  262MOL0     H35307   8.986   5.965   7.868 -0.6112  2.9223 -0.9854
  262MOL0     H35308   9.083   6.097   7.786  0.3664  1.6900  1.8934
  262MOL0     H35309   9.185   5.932   7.644  0.5530  0.8926  1.2592
  262MOL0     H35310   9.139   5.796   7.729 -0.8949 -0.9774 -1.8612
  262MOL0     H35311   8.868   5.911   7.692 -0.9372 -1.0739  1.4027
  262MOL0     H35312   8.972   5.981   7.559  1.1857 -2.4592 -2.6331
  262MOL0     H35313   9.042   5.752   7.504 -0.0734  2.0628 -1.1716
  262MOL0     H35314   8.905   5.695   7.605  1.0805 -0.9566 -0.5452
  262MOL0     H35315   8.779   5.888   7.462  1.6379  0.9227  2.7781
  262MOL0     H35316   8.925   5.868   7.358  1.3117  0.3065  1.5701
  262MOL0     H35317   8.778   5.617   7.417  0.7071  1.4927  0.6818
  262MOL0     H35318   8.721   5.724   7.299  0.1247 -0.2776  0.1765
  262MOL0     H35319   8.989   5.589   7.317  0.9035  0.5550 -1.1290
  262MOL0     H35320   8.969   5.715   7.195  2.0120 -1.2889 -1.5221
  262MOL0     H35321   8.893   5.649   6.961 -0.6805  1.4125  1.2419
  262MOL0     H35322   8.735   5.544   6.769  1.0908  0.2640  0.3177
  262MOL0     H35323   8.805   5.381   6.779  0.2321 -1.1813 -0.4645
  262MOL0     H35324   8.514   5.440   6.870  0.1528  2.0234 -1.8589
  262MOL0     H35325   8.583   5.289   6.803  1.9594 -0.2970  2.4385
  262MOL0     H35326   8.594   5.440   6.579  0.4021 -2.3619 -0.2127
  262MOL0     H35327   8.468   5.523   6.673 -3.2294 -0.1247 -2.0263
  262MOL0     H35328   8.338   5.297   6.688 -0.5269 -4.4407 -0.4837
  262MOL0     H35329   8.480   5.222   6.624  3.5741  1.7051  0.4770
  262MOL0     H35330   8.393   5.568   6.412  0.1715  1.3953 -1.1852
  262MOL0     H35331   8.193   5.779   6.250  0.3133 -1.8069  0.1554
  262MOL0     H35332   8.140   5.827   6.410 -0.5987 -2.7306  4.1454
  262MOL0     H35333   8.314   5.782   6.380  1.5368 -4.4618 -1.4549
  262MOL0     H35334   7.712   5.829   6.532 -0.4672  0.6784  0.0150
  262MOL0     H35335   7.483   5.923   6.479 -0.2630 -0.5659  1.4901
  262MOL0     H35336   7.238   5.888   6.476 -2.3781 -0.4689  0.0348
  262MOL0     H35337   7.283   6.011   6.379 -1.8653  0.6399 -0.4840
  262MOL0     H35338   7.035   5.995   6.358  1.9530  0.6167  0.0686
  262MOL0     H35339   7.114   5.962   6.202 -0.8384 -0.5174 -0.9275
  262MOL0     H35340   7.088   5.718   6.255  0.3854 -0.2889 -0.8465
  262MOL0     H35341   6.934   5.794   6.228 -0.2619 -1.0361 -0.1847
  262MOL0     H35342   7.046   5.729   6.507 -0.1967 -1.3417  2.2149
  262MOL0     H35343   6.910   5.840   6.480 -1.1224 -2.5223  2.2407
  262MOL0     H35344   6.917   5.550   6.384 -1.5103 -1.2780 -0.4784
  262MOL0     H35345   6.789   5.658   6.362 -1.9568 -0.5684  2.6283
  262MOL0     H35346   6.904   5.605   6.641  0.1104  3.1382  0.4678
  262MOL0     H35347   6.758   5.697   6.605 -0.6822 -1.2343  3.2225
  262MOL0     H35348   6.760   5.406   6.523 -1.5693 -0.3253 -0.5782
  262MOL0     H35349   6.620   5.509   6.564 -1.9231 -1.0222  3.7920
  262MOL0     H35350   6.829   5.404   6.753 -0.0374  1.4563  2.0834
  262MOL0     H35351   6.661   5.341   6.722  0.7580 -0.5698 -3.6189
  262MOL0     H35352   7.411   5.580   6.226  0.2910 -0.7975  0.7512
  262MOL0     H35353   7.631   5.485   6.286 -0.3975 -1.9265  1.8479
  262MOL0     H35354   7.931   5.400   6.463 -0.9791  0.4506  1.4828
  262MOL0     H35355   8.125   5.256   6.484 -2.1477 -0.4670  0.5840
  262MOL0     H35356   9.389   6.042   8.146 -0.9090  2.1426 -1.6091
  262MOL0     H35357   9.613   5.968   8.225 -0.5771  1.0520 -0.4241
  262MOL0     H35358  10.061   6.142   8.313  2.6303  1.0608 -0.4609
  262MOL0     H35359  10.282   6.066   8.378  1.3050 -3.2007  1.2134
  262MOL0     H35360  10.506   6.002   8.308  3.2206  0.9297  0.2780
  262MOL0     H35361  10.446   5.933   8.463 -2.0347 -0.8615 -1.7634
  262MOL0     H35362  10.617   5.742   8.434 -0.9850  0.5832  1.4798
  262MOL0     H35363  10.695   5.893   8.432  0.7155  0.2075 -1.6305
  262MOL0     H35364  10.601   5.759   8.169  0.2757  1.8553 -0.5311
  262MOL0     H35365  10.743   5.699   8.253  2.5232  2.0459 -1.5064
  262MOL0     H35366  10.721   5.997   8.203  2.0307  1.0421 -1.9463
  262MOL0     H35367  10.771   5.888   8.077  0.1186  0.2482 -0.0128
  262MOL0     H35368  11.109   5.920   8.336  1.9444  2.3330 -2.5217
  262MOL0     H35369  10.261   5.739   8.086  0.7397  1.4522 -1.8507
  262MOL0     H35370  10.055   5.819   8.012  6.1060 -3.2235  0.0412
  263MOL0     O35371   3.031   0.347   8.890 -0.1377 -0.3383  0.4728
  263MOL0     C35372   3.019   0.465   8.922  0.7922  0.3788 -0.6539
  263MOL0     O35373   2.901   0.536   8.912  0.0785  0.4368 -0.8233
  263MOL0     C35374   2.792   0.480   8.859 -0.2683 -0.3231  0.2766
  263MOL0     C35375   2.790   0.395   8.751  0.3989 -0.5502  0.7099
  263MOL0     C35376   2.663   0.354   8.697  0.8849  0.1048  0.0663
  263MOL0     C35377   2.549   0.397   8.754 -0.0168 -0.2513 -0.8629
  263MOL0     O35378   2.424   0.354   8.726  0.2051 -0.0840  0.4632
  263MOL0     C35379   2.398   0.281   8.604 -1.0048 -0.3163 -0.5480
  263MOL0     C35380   2.244   0.268   8.584 -0.1658  0.0078  1.0033
  263MOL0     C35381   2.229   0.131   8.507 -0.1455 -0.1116 -1.3200
  263MOL0     C35382   2.097   0.132   8.428  0.1104  0.4553 -1.1036
  263MOL0     C35383   1.978   0.077   8.517  0.3475 -0.3237  0.1281
  263MOL0     C35384   1.853   0.046   8.427  0.3991  0.3515  0.7545
  263MOL0     C35385   1.718   0.022   8.498  0.7150 -0.9728 -0.4149
  263MOL0     C35386   1.681   0.127   8.612 -0.0881 -0.7374  0.3829
  263MOL0     N35387   1.538   0.157   8.640 -1.1431 -0.1593  0.2237
  263MOL0     C35388   1.446   0.191   8.548 -0.4829 -0.2507 -0.5269
  263MOL0     C35389   1.332   0.191   8.626 -0.3795 -0.0357  0.3091
  263MOL0     C35390   1.199   0.212   8.570 -0.2375  0.0358  0.2265
  263MOL0     C35391   1.101   0.279   8.654  0.4276 -0.0145 -0.6638
  263MOL0     C35392   0.972   0.298   8.572  0.5613 -0.8263  0.1202
  263MOL0     C35393   0.879   0.365   8.665  0.8625  0.5072  0.2626
  263MOL0     O35394   0.764   0.405   8.588 -0.8897 -0.5856  0.0354
  263MOL0     C35395   0.666   0.321   8.551 -0.5684 -1.1196  1.4256
  263MOL0     C35396   0.544   0.376   8.497 -0.0054 -0.1386  0.3835
  263MOL0     C35397   0.445   0.288   8.444  0.3114  0.5103 -0.6482
  263MOL0     C35398   0.322   0.348   8.383 -0.3024 -0.3003 -0.2968
  263MOL0     C35399   0.463   0.149   8.443  0.7226 -0.1614 -0.7852
  263MOL0     C35400   0.368   0.061   8.386  0.5411  0.6132 -0.3197
  263MOL0     O35401   0.314   0.092   8.261 -0.0408  0.5963 -0.3746
  263MOL0     C35402   0.179   0.062   8.231 -0.5144  0.6306 -0.0701
  263MOL0     C35403   0.137   0.010   8.106 -0.2412 -0.0087 -0.3567
  263MOL0     C35404   0.002  -0.017   8.079  0.1247 -0.1587  0.3161
  263MOL0     C35405  -0.096   0.007   8.179 -0.1162 -0.1145  0.4465
  263MOL0     O35406  -0.236  -0.017   8.155 -0.3125 -0.2446 -0.2565
  263MOL0     C35407  -0.280  -0.028   8.015 -0.0580 -0.7132  0.0254
  263MOL0     C35408  -0.267   0.111   7.949  0.5891 -0.1889  0.0147
  263MOL0     C35409  -0.369   0.215   7.984 -0.2932  0.1565 -0.4965
  263MOL0     C35410  -0.507   0.196   7.915 -0.1847 -0.1173  0.6101
  263MOL0     C35411  -0.619   0.289   7.968  0.1735  0.3409  0.0377
  263MOL0     C35412  -0.739   0.295   7.871  0.1289  0.0353  0.0893
  263MOL0     C35413  -0.831   0.406   7.892  0.1995 -0.3076  0.8475
  263MOL0     C35414  -0.882   0.403   8.039  0.0915 -0.3487  0.8565
  263MOL0    Cl35415  -0.972   0.244   8.072  0.3660  0.2028 -0.5496
  263MOL0     C35416  -0.054   0.051   8.306  0.0657  0.3065  0.0865
  263MOL0     C35417   0.082   0.067   8.328 -0.1348 -1.0954  0.1279
  263MOL0     O35418   0.334  -0.034   8.455  0.0363 -0.0879  0.2785
  263MOL0     C35419   0.575   0.099   8.500 -0.8153 -0.9237 -0.4743
  263MOL0     C35420   0.673   0.178   8.563  0.1079  0.4576  0.1159
  263MOL0     N35421   1.352   0.141   8.753 -0.2219 -0.7817 -0.0915
  263MOL0     N35422   1.476   0.124   8.759 -1.6396 -0.5048  0.6682
  263MOL0     C35423   2.553   0.489   8.862  0.2882  0.1618  0.7090
  263MOL0     C35424   2.671   0.527   8.908 -0.1588 -0.3442 -0.5183
  263MOL0     C35425   3.120   0.526   9.008  0.0722  0.5622 -0.2962
  263MOL0     C35426   3.218   0.447   9.068 -0.9336 -0.1887 -1.0479
  263MOL0     C35427   3.321   0.515   9.125  0.5224 -0.3447 -0.3976
  263MOL0     C35428   3.340   0.654   9.127 -0.2484 -1.1295 -0.2467
  263MOL0     O35429   3.445   0.722   9.169 -0.0291  0.3672 -0.1940
  263MOL0     C35430   3.527   0.687   9.281 -0.4428  0.7422  0.0565
  263MOL0     C35431   3.447   0.705   9.410  1.1409 -0.2727 -0.3717
  263MOL0     C35432   3.517   0.694   9.541  0.7062  0.5077 -0.0296
  263MOL0     C35433   3.613   0.808   9.584 -0.2714  0.8135 -0.3396
  263MOL0     C35434   3.687   0.788   9.710 -0.1660  0.0686 -0.2103
  263MOL0     C35435   3.759   0.797   9.806  0.0297 -0.2665 -0.5910
  263MOL0     C35436   3.244   0.733   9.061  0.4737  0.9761  0.4074
  263MOL0     C35437   3.129   0.671   9.011  0.1055  0.1728  0.1705
  263MOL0     H35438   2.878   0.356   8.701  1.6244  0.0776  2.2926
  263MOL0     H35439   2.666   0.283   8.615  0.7828 -1.4607  1.3708
  263MOL0     H35440   2.447   0.335   8.522 -1.1193 -0.6496 -0.8363
  263MOL0     H35441   2.441   0.182   8.617  0.8178  0.6412  1.4057
  263MOL0     H35442   2.188   0.268   8.678  0.4827 -0.0054  1.3954
  263MOL0     H35443   2.212   0.348   8.516 -0.5772 -0.0466  1.1332
  263MOL0     H35444   2.302   0.119   8.426  0.0378 -0.6944 -1.0745
  263MOL0     H35445   2.240   0.045   8.574 -2.8858 -0.0651 -0.6802
  263MOL0     H35446   2.073   0.232   8.393 -1.6786  1.1966  1.9213
  263MOL0     H35447   2.104   0.066   8.342  0.9431  1.7457 -2.0614
  263MOL0     H35448   2.005  -0.023   8.551  4.7375  0.4585 -0.4986
  263MOL0     H35449   1.959   0.146   8.601 -2.2448 -2.7150  1.6518
  263MOL0     H35450   1.842   0.128   8.355  0.3224 -1.0115 -0.8619
  263MOL0     H35451   1.861  -0.048   8.371 -2.9085  0.0375  0.6225
  263MOL0     H35452   1.639   0.021   8.423 -0.0206 -0.1713  0.3176
  263MOL0     H35453   1.704  -0.075   8.548 -0.6506 -1.0595 -0.9276
  263MOL0     H35454   1.732   0.219   8.583  1.7697 -2.4313 -2.2034
  263MOL0     H35455   1.725   0.091   8.706 -0.2314 -1.1806  0.2847
  263MOL0     H35456   1.470   0.211   8.444  1.8813  0.4708  0.0951
  263MOL0     H35457   1.214   0.269   8.478 -0.2658 -0.5556 -0.1511
  263MOL0     H35458   1.172   0.110   8.541  0.1464 -0.5434  1.7749
  263MOL0     H35459   1.139   0.373   8.694 -3.9396  1.3681  0.8729
  263MOL0     H35460   1.068   0.215   8.737  1.9124 -0.4994 -0.4191
  263MOL0     H35461   0.940   0.206   8.522  0.0101  1.3829 -4.0169
  263MOL0     H35462   0.989   0.370   8.491  0.2656 -2.0438 -1.0543
  263MOL0     H35463   0.926   0.453   8.709  1.4190 -0.2919  1.3115
  263MOL0     H35464   0.850   0.299   8.748 -0.1507  1.8029  0.9789
  263MOL0     H35465   0.530   0.484   8.496  2.8384  0.3104 -2.1053
  263MOL0     H35466   0.238   0.295   8.430  1.0268 -4.3670 -2.0833
  263MOL0     H35467   0.306   0.455   8.404 -0.3767 -0.6337  1.5507
  263MOL0     H35468   0.321   0.326   8.276  3.2537  0.1507 -0.5170
  263MOL0     H35469   0.222   0.018   8.039 -0.4953  2.9117 -0.4489
  263MOL0     H35470  -0.031  -0.057   7.983  1.1378  0.2002 -0.1982
  263MOL0     H35471  -0.236  -0.110   7.958 -0.0119  0.0642 -1.0988
  263MOL0     H35472  -0.388  -0.046   8.015  0.2043 -2.9782  2.7393
  263MOL0     H35473  -0.172   0.161   7.969  0.3361 -0.2146  1.3132
  263MOL0     H35474  -0.279   0.095   7.841  1.7580 -0.8973 -0.0291
  263MOL0     H35475  -0.323   0.311   7.960 -1.9224  2.0794  3.3938
  263MOL0     H35476  -0.391   0.215   8.091 -0.3682  2.5818 -0.4661
  263MOL0     H35477  -0.505   0.214   7.808 -0.7488 -0.1531  0.5888
  263MOL0     H35478  -0.549   0.095   7.922  0.4099 -0.5702 -1.6133
  263MOL0     H35479  -0.574   0.389   7.969  2.8151 -0.7733  1.1106
  263MOL0     H35480  -0.653   0.266   8.069 -0.6493 -2.2409 -0.7534
  263MOL0     H35481  -0.714   0.306   7.766 -2.3314 -2.3246 -0.8644
  263MOL0     H35482  -0.790   0.198   7.879  0.3654 -0.0280  0.9756
  263MOL0     H35483  -0.923   0.406   7.833  0.3083 -2.5836  0.5711
  263MOL0     H35484  -0.766   0.493   7.880 -1.1531  0.5281 -0.7540
  263MOL0     H35485  -0.953   0.485   8.059 -0.9789 -1.3876  1.4816
  263MOL0     H35486  -0.802   0.401   8.113  0.1852  0.3818  0.7791
  263MOL0     H35487  -0.131   0.067   8.381 -0.0571  1.4055 -0.2520
  263MOL0     H35488   0.103   0.118   8.422  2.0355 -2.6716  0.5968
  263MOL0     H35489   0.590  -0.008   8.487 -1.3677 -0.9477 -0.9372
  263MOL0     H35490   0.765   0.128   8.591  1.9395  0.7630 -4.4886
  263MOL0     H35491   2.458   0.516   8.909 -1.3272 -0.1216 -2.1556
  263MOL0     H35492   2.674   0.586   8.999  3.4527  0.0890 -0.7847
  263MOL0     H35493   3.215   0.339   9.065 -1.1104 -0.2241  0.0927
  263MOL0     H35494   3.391   0.453   9.180 -0.7031 -2.0355 -0.6825
  263MOL0     H35495   3.567   0.585   9.288 -1.8884  0.0150 -1.5793
  263MOL0     H35496   3.614   0.754   9.282  1.2563 -1.2231  3.2227
  263MOL0     H35497   3.360   0.638   9.410 -2.7492  4.1829  2.1842
  263MOL0     H35498   3.393   0.800   9.406  2.6221  0.7156  1.5830
  263MOL0     H35499   3.588   0.610   9.534 -1.0885 -1.0328 -0.6702
  263MOL0     H35500   3.444   0.671   9.620 -1.1436  0.9285 -1.5532
  263MOL0     H35501   3.557   0.903   9.586  0.8177  1.4949 -1.0974
  263MOL0     H35502   3.676   0.827   9.497 -1.4287 -1.7833 -1.8279
  263MOL0     H35503   3.816   0.821   9.894 -0.4528 -0.0879 -0.3271
  263MOL0     H35504   3.253   0.839   9.041  2.1721  0.4784 -2.0380
  263MOL0     H35505   3.053   0.739   8.975 -0.5772 -0.7142 -0.0829
  264MOL0     O35506   8.974   0.724  11.001 -0.1695  0.7067  0.1166
  264MOL0     C35507   8.987   0.847  11.030  0.8725 -0.0827 -0.7640
  264MOL0     O35508   8.890   0.940  11.074 -0.5899  0.3502 -0.0692
  264MOL0     C35509   8.759   0.911  11.092 -0.7749  0.1688  0.7854
  264MOL0     C35510   8.695   0.808  11.023  1.0325 -0.1468  0.1214
  264MOL0     C35511   8.558   0.773  11.057  0.2010 -0.1486  0.1134
  264MOL0     C35512   8.481   0.855  11.142 -1.0537 -0.7966 -0.0119
  264MOL0     O35513   8.356   0.829  11.181  0.5231 -0.2526  0.0782
  264MOL0     C35514   8.291   0.713  11.130 -0.6197 -0.0830  0.0281
  264MOL0     C35515   8.153   0.718  11.168  0.5377  0.5176 -0.0299
  264MOL0     C35516   8.127   0.718  11.318  0.4294  0.2414 -0.6274
  264MOL0     C35517   7.981   0.676  11.349  0.5859  0.2525  0.4711
  264MOL0     C35518   7.968   0.672  11.507 -0.1615  0.1960  0.1858
  264MOL0     C35519   7.831   0.631  11.569  0.2383 -0.1667  0.0263
  264MOL0     C35520   7.712   0.715  11.498  0.0401 -0.2629 -0.1705
  264MOL0     C35521   7.589   0.691  11.578 -0.1607  0.8938 -0.5873
  264MOL0     N35522   7.480   0.762  11.511  0.7112  0.4335 -0.3264
  264MOL0     C35523   7.438   0.882  11.559 -0.0989 -0.3741  0.1118
  264MOL0     C35524   7.334   0.910  11.468  0.8927  0.0913  0.2396
  264MOL0     C35525   7.246   1.031  11.471 -0.7919  0.7702 -0.2418
  264MOL0     C35526   7.124   1.016  11.560 -0.6704  0.3069 -0.6029
  264MOL0     C35527   7.113   1.110  11.684 -0.0512 -0.0021 -0.3534
  264MOL0     C35528   7.005   1.064  11.780  0.2357  0.3610  0.8799
  264MOL0     O35529   6.884   1.035  11.716 -0.3678  0.5024  0.9032
  264MOL0     C35530   6.782   1.128  11.724 -0.1231  0.0522 -0.8163
  264MOL0     C35531   6.793   1.266  11.740 -0.0730 -0.2808 -0.6506
  264MOL0     C35532   6.681   1.349  11.752 -0.3047 -0.4781 -0.8731
  264MOL0     C35533   6.721   1.500  11.766 -0.3564  0.3478 -0.7027
  264MOL0     C35534   6.554   1.294  11.743  0.2612 -0.5913  0.2290
  264MOL0     C35535   6.422   1.374  11.754 -0.8765 -0.7921 -1.0238
  264MOL0     O35536   6.425   1.510  11.792  0.1048  0.3217  0.1584
  264MOL0     C35537   6.325   1.562  11.870 -0.2659  0.4192  0.0137
  264MOL0     C35538   6.297   1.698  11.860 -0.9271 -0.8057  0.2263
  264MOL0     C35539   6.198   1.762  11.940  0.1873 -0.3497 -0.1844
  264MOL0     C35540   6.129   1.686  12.038  0.4205  1.1107  1.1514
  264MOL0     O35541   6.027   1.732  12.122  1.0440  0.0019  0.1351
  264MOL0     C35542   5.945   1.840  12.067  0.0580  0.6346 -0.1537
  264MOL0     C35543   5.831   1.861  12.154  0.3016 -0.2337 -0.7455
  264MOL0     C35544   5.743   1.734  12.173  0.5233  0.2467 -0.5224
  264MOL0     C35545   5.598   1.771  12.210  0.6023 -0.5353  0.5690
  264MOL0     C35546   5.512   1.820  12.084 -0.3260 -0.0317  0.1495
  264MOL0     C35547   5.359   1.854  12.102 -0.1969 -0.0653 -0.2442
  264MOL0     C35548   5.279   1.716  12.128 -0.3628  0.1051 -0.4162
  264MOL0     C35549   5.209   1.646  12.016  0.0097  0.0763 -0.4720
  264MOL0    Cl35550   5.056   1.726  11.958  0.5151 -0.8405  0.3718
  264MOL0     C35551   6.145   1.548  12.045 -1.2814 -0.1363  0.3741
  264MOL0     C35552   6.236   1.487  11.956 -0.2194 -0.1523 -0.5863
  264MOL0     O35553   6.323   1.305  11.764  0.1211 -0.8271  0.1822
  264MOL0     C35554   6.546   1.156  11.718  0.0888 -0.1409 -0.1057
  264MOL0     C35555   6.659   1.072  11.714 -0.0712 -0.7287 -0.3380
  264MOL0     N35556   7.330   0.810  11.375  0.7651  0.6787  0.1120
  264MOL0     N35557   7.416   0.722  11.399 -0.8850 -0.2937  0.2518
  264MOL0     C35558   8.551   0.959  11.207 -0.5290 -0.9582  0.8153
  264MOL0     C35559   8.685   0.985  11.182 -0.6783  0.5216 -0.2171
  264MOL0     C35560   9.125   0.893  11.034 -0.5759  0.8188  0.0035
  264MOL0     C35561   9.237   0.811  10.987  0.0787 -0.8481 -0.2228
  264MOL0     C35562   9.368   0.852  10.992 -0.5278  0.2243  0.6088
  264MOL0     C35563   9.395   0.984  11.045  0.2691 -0.0932  0.1265
  264MOL0     O35564   9.522   1.038  11.059 -0.3528  0.3195 -0.3377
  264MOL0     C35565   9.643   0.967  11.015 -0.4760  0.1442  0.4982
  264MOL0     C35566   9.700   0.876  11.118  0.3302  0.7017 -0.5459
  264MOL0     C35567   9.710   0.954  11.254 -0.2588 -0.0619  0.0022
  264MOL0     C35568   9.780   0.876  11.367 -0.0756 -0.2479  0.0457
  264MOL0     C35569   9.923   0.870  11.347 -0.3261 -1.0570  0.4204
  264MOL0     C35570  10.044   0.881  11.328 -0.3384  1.3104 -0.1288
  264MOL0     C35571   9.296   1.063  11.092  0.5264  0.0382 -0.5739
  264MOL0     C35572   9.160   1.022  11.082  0.6026  0.6522  0.4641
  264MOL0     H35573   8.753   0.740  10.961  0.7062 -0.2833 -0.0365
  264MOL0     H35574   8.513   0.689  11.006  1.2947 -1.5265  1.3413
  264MOL0     H35575   8.308   0.711  11.022  0.5132  0.8801  0.1596
  264MOL0     H35576   8.352   0.633  11.171 -1.9465  0.9436  4.5481
  264MOL0     H35577   8.114   0.813  11.132  2.9594  2.1372  1.3422
  264MOL0     H35578   8.105   0.634  11.117 -1.7885 -0.0171  2.7881
  264MOL0     H35579   8.186   0.644  11.372 -0.8770  0.5374  1.3118
  264MOL0     H35580   8.145   0.817  11.362  1.7596 -0.6214  0.8708
  264MOL0     H35581   7.918   0.749  11.297  1.5964  1.3896  0.8060
  264MOL0     H35582   7.958   0.578  11.305 -0.0380  0.1619  0.9881
  264MOL0     H35583   8.046   0.605  11.544 -0.7586  1.0015  3.1537
  264MOL0     H35584   7.995   0.772  11.542  0.8276  1.1047 -2.9015
  264MOL0     H35585   7.801   0.527  11.551 -2.3797  0.5002  0.0439
  264MOL0     H35586   7.832   0.635  11.678  1.1423  1.0680 -0.0078
  264MOL0     H35587   7.735   0.822  11.502  1.4772 -0.4314 -2.4145
  264MOL0     H35588   7.704   0.680  11.395 -3.6820  1.0731 -0.4792
  264MOL0     H35589   7.616   0.751  11.665  2.9229  2.2037 -2.2815
  264MOL0     H35590   7.571   0.585  11.597  0.3575  0.5054 -2.0662
  264MOL0     H35591   7.460   0.918  11.659  0.1844 -0.2011 -0.0127
  264MOL0     H35592   7.308   1.115  11.503  1.6659 -1.4490  1.2689
  264MOL0     H35593   7.229   1.050  11.365 -0.5465  0.8531 -0.2665
  264MOL0     H35594   7.116   0.916  11.603 -2.0116  1.3896  1.8215
  264MOL0     H35595   7.030   1.030  11.506 -1.4319  0.1320  0.6333
  264MOL0     H35596   7.094   1.212  11.649 -1.9075  0.1592  0.9691
  264MOL0     H35597   7.203   1.112  11.745  1.0953  2.9603 -1.9680
  264MOL0     H35598   6.985   1.137  11.859 -1.1590 -0.1728  1.0544
  264MOL0     H35599   7.048   0.976  11.830 -1.1717  0.0718  1.6495
  264MOL0     H35600   6.892   1.309  11.749 -0.1765 -0.3357  0.9549
  264MOL0     H35601   6.646   1.570  11.804  0.6296  0.5670  0.9183
  264MOL0     H35602   6.819   1.515  11.812 -1.2453  4.6382  0.2116
  264MOL0     H35603   6.736   1.530  11.662 -2.0885  1.4193 -0.6775
  264MOL0     H35604   6.338   1.758  11.779 -3.8329 -0.4276 -1.0969
  264MOL0     H35605   6.181   1.869  11.935 -3.1737 -0.7734  0.2010
  264MOL0     H35606   6.007   1.930  12.066  1.2069 -0.1308 -0.0960
  264MOL0     H35607   5.907   1.813  11.968 -0.6563  1.1954 -0.0407
  264MOL0     H35608   5.869   1.909  12.244 -0.9366 -0.0760 -0.2856
  264MOL0     H35609   5.768   1.934  12.102 -1.7752 -0.3615  1.4259
  264MOL0     H35610   5.791   1.678  12.254  1.0689  1.8447  0.3183
  264MOL0     H35611   5.738   1.671  12.084  1.5239 -1.9148  0.8834
  264MOL0     H35612   5.551   1.679  12.247 -0.0560 -0.3041  0.3160
  264MOL0     H35613   5.594   1.846  12.290  1.1450 -0.8305  0.8778
  264MOL0     H35614   5.533   1.747  12.005  2.1254 -1.1337  1.7312
  264MOL0     H35615   5.563   1.907  12.041 -3.0218  1.5998 -0.0373
  264MOL0     H35616   5.344   1.919  12.189 -2.8367 -2.2830  1.0972
  264MOL0     H35617   5.317   1.906  12.016 -1.3421 -0.9155 -0.2158
  264MOL0     H35618   5.201   1.735  12.203 -0.9270  3.0167 -1.6038
  264MOL0     H35619   5.345   1.645  12.180 -1.3307  0.3173  1.1807
  264MOL0     H35620   5.179   1.543  12.036 -1.9382  0.5690 -0.6031
  264MOL0     H35621   5.286   1.639  11.939  0.3468  1.8427 -0.3300
  264MOL0     H35622   6.089   1.481  12.110  0.1842 -2.0655 -0.2562
  264MOL0     H35623   6.250   1.384  11.986 -1.7196 -0.4953 -0.9554
  264MOL0     H35624   6.455   1.100  11.695  0.2555 -0.5191  0.1534
  264MOL0     H35625   6.649   0.967  11.689 -3.1731 -0.4967 -0.5112
  264MOL0     H35626   8.489   1.029  11.261  0.5400 -0.0849  0.9394
  264MOL0     H35627   8.737   1.061  11.239  1.1874  0.2192 -1.4571
  264MOL0     H35628   9.219   0.707  10.962  3.4476 -1.1765 -1.8406
  264MOL0     H35629   9.450   0.789  10.959 -1.2052 -1.1959  1.5332
  264MOL0     H35630   9.618   0.917  10.921  0.2594  0.5472  0.0772
  264MOL0     H35631   9.714   1.047  10.992 -0.2241  1.1002  4.0410
  264MOL0     H35632   9.797   0.832  11.095  0.4902  1.3380 -1.1023
  264MOL0     H35633   9.624   0.799  11.133  1.3727 -0.1485  0.5501
  264MOL0     H35634   9.605   0.968  11.281 -0.6636 -2.0656 -0.3493
  264MOL0     H35635   9.767   1.047  11.249  0.2814 -0.4040 -0.2936
  264MOL0     H35636   9.736   0.777  11.380  2.1136 -1.2458  0.2928
  264MOL0     H35637   9.765   0.927  11.463  0.4097  0.6327 -0.3275
  264MOL0     H35638  10.144   0.895  11.292 -0.4987 -1.2292 -1.8684
  264MOL0     H35639   9.329   1.165  11.111  1.0021 -0.0879 -0.7238
  264MOL0     H35640   9.082   1.093  11.108  0.8755  0.8518  0.7274
  265MOL0     O35641   1.667   4.232   0.600 -0.3085 -0.3179  0.8614
  265MOL0     C35642   1.658   4.353   0.569 -0.5434  0.2894 -0.2866
  265MOL0     O35643   1.542   4.414   0.553  0.4599  0.3685 -0.2575
  265MOL0     C35644   1.420   4.348   0.587  0.2413  0.4069  1.2368
  265MOL0     C35645   1.316   4.339   0.482  0.2799  0.8249 -0.4637
  265MOL0     C35646   1.195   4.283   0.511  1.2081 -0.1746 -0.0563
  265MOL0     C35647   1.168   4.243   0.643  0.5492  0.3048 -0.8862
  265MOL0     O35648   1.043   4.179   0.664  0.3994  1.1582  0.3231
  265MOL0     C35649   1.018   4.115   0.794 -0.5591  0.3226  0.4977
  265MOL0     C35650   0.885   4.040   0.774 -0.3370  0.2273 -0.3377
  265MOL0     C35651   0.868   3.969   0.912  0.6484 -0.7200  0.2295
  265MOL0     C35652   0.723   3.916   0.930 -0.5140  0.3438 -0.0692
  265MOL0     C35653   0.710   3.850   1.070 -1.1192 -1.2355  0.5289
  265MOL0     C35654   0.560   3.812   1.098 -0.6174  0.3245  0.2803
  265MOL0     C35655   0.532   3.803   1.241  0.4125 -0.0752  0.0885
  265MOL0     C35656   0.619   3.701   1.322  0.5346 -0.3957  0.0354
  265MOL0     N35657   0.598   3.566   1.261  0.3666 -0.0500  0.1927
  265MOL0     C35658   0.477   3.502   1.252 -0.2618 -0.3045 -0.6146
  265MOL0     C35659   0.493   3.402   1.162 -0.2070 -0.7952  0.2420
  265MOL0     C35660   0.390   3.306   1.114 -0.7521  0.4433  0.0362
  265MOL0     C35661   0.280   3.278   1.217 -0.4379 -0.0301  0.3897
  265MOL0     C35662   0.200   3.155   1.177 -0.0688  1.0676  0.5781
  265MOL0     C35663   0.150   3.170   1.030 -0.0004 -0.3340 -0.0905
  265MOL0     O35664   0.057   3.071   1.002 -0.0444  0.2821 -0.7399
  265MOL0     C35665  -0.072   3.090   1.060  0.0733  0.5766 -0.7824
  265MOL0     C35666  -0.119   3.202   1.133 -0.7066 -0.0045  0.3590
  265MOL0     C35667  -0.255   3.207   1.175  0.1087  0.1861  0.6751
  265MOL0     C35668  -0.290   3.329   1.256 -0.2143  0.0485  0.1394
  265MOL0     C35669  -0.340   3.101   1.140 -0.5263  0.6306  0.1705
  265MOL0     C35670  -0.479   3.100   1.192 -0.0646  0.1362 -0.2078
  265MOL0     O35671  -0.572   3.055   1.110  0.1970  0.2839 -0.3544
  265MOL0     C35672  -0.701   3.041   1.161  0.7074 -0.6442  0.1682
  265MOL0     C35673  -0.788   3.154   1.162  0.1539 -0.4605  0.2828
  265MOL0     C35674  -0.929   3.137   1.181 -0.0419  0.5728 -0.9888
  265MOL0     C35675  -0.983   3.002   1.206  0.2156  0.1874  0.1247
  265MOL0     O35676  -1.120   2.993   1.220 -0.3536  0.0867  0.6721
  265MOL0     C35677  -1.183   2.919   1.113 -0.3401 -0.4692 -0.3838
  265MOL0     C35678  -1.337   2.919   1.122  0.0431 -0.1142  0.9450
  265MOL0     C35679  -1.399   2.825   1.233  0.5118 -0.0502 -0.4360
  265MOL0     C35680  -1.555   2.828   1.236 -0.6276  0.7149  0.2345
  265MOL0     C35681  -1.590   2.728   1.339  0.0235 -0.2015 -0.2194
  265MOL0     C35682  -1.748   2.712   1.370 -0.0465  0.7651  0.0064
  265MOL0     C35683  -1.777   2.573   1.438 -0.4494 -0.6176 -0.6475
  265MOL0     C35684  -1.925   2.543   1.448  1.2542 -0.3408 -0.1977
  265MOL0    Cl35685  -1.982   2.630   1.588  0.2931  0.0849  0.1366
  265MOL0     C35686  -0.889   2.894   1.215  0.7105 -0.1588 -0.0082
  265MOL0     C35687  -0.756   2.912   1.190 -0.9216 -1.0032 -0.0764
  265MOL0     O35688  -0.491   3.131   1.312  0.6899  0.6401  0.0329
  265MOL0     C35689  -0.291   2.996   1.066  0.2474  0.1514 -0.2740
  265MOL0     C35690  -0.155   2.985   1.033 -0.5508 -0.8504 -0.3663
  265MOL0     N35691   0.623   3.400   1.124 -0.1964  0.0754 -0.0898
  265MOL0     N35692   0.687   3.495   1.192 -0.2265 -0.2458 -0.2288
  265MOL0     C35693   1.267   4.259   0.745  0.7122  0.2029  0.3789
  265MOL0     C35694   1.383   4.311   0.717 -0.3865 -0.6094 -0.2500
  265MOL0     C35695   1.774   4.425   0.523 -0.2223 -0.2496  1.0337
  265MOL0     C35696   1.901   4.367   0.505  1.0137 -0.7612 -0.5419
  265MOL0     C35697   2.010   4.436   0.452  0.2314 -0.3447 -0.3281
  265MOL0     C35698   1.998   4.565   0.412 -0.5329 -0.5330 -0.4835
  265MOL0     O35699   2.101   4.621   0.345 -0.1978  0.4741  0.5258
  265MOL0     C35700   2.227   4.614   0.411  0.5109 -0.0546 -0.6789
  265MOL0     C35701   2.338   4.673   0.326 -0.1194 -0.2730 -0.3207
  265MOL0     C35702   2.311   4.822   0.306 -0.0327 -0.7872  0.2151
  265MOL0     C35703   2.435   4.919   0.279 -0.0920  0.4835 -0.4158
  265MOL0     C35704   2.533   4.863   0.184  1.0279  0.1261 -0.1318
  265MOL0     C35705   2.616   4.798   0.127 -0.0918 -0.4073 -0.6258
  265MOL0     C35706   1.873   4.634   0.437 -0.2435 -0.5972  0.5284
  265MOL0     C35707   1.765   4.560   0.493 -0.0570 -0.0812 -1.0905
  265MOL0     H35708   1.343   4.380   0.385  0.3113  2.6787  0.2706
  265MOL0     H35709   1.124   4.273   0.429 -0.1107 -1.2811  1.1645
  265MOL0     H35710   1.104   4.054   0.824 -0.9343 -0.2109  0.5115
  265MOL0     H35711   1.010   4.194   0.869 -2.2115  0.6460  0.0266
  265MOL0     H35712   0.812   4.119   0.753 -0.6872  0.0664  0.2525
  265MOL0     H35713   0.885   3.966   0.693 -0.1879 -0.7915  0.5660
  265MOL0     H35714   0.942   3.889   0.922  0.1409 -1.1285  0.8049
  265MOL0     H35715   0.888   4.049   0.983 -1.9812 -1.5487  2.0643
  265MOL0     H35716   0.644   3.988   0.906 -0.6004 -0.2205 -1.6399
  265MOL0     H35717   0.707   3.836   0.857  0.8106  1.2580 -1.4084
  265MOL0     H35718   0.771   3.760   1.078  0.1419 -0.5970 -1.2298
  265MOL0     H35719   0.737   3.922   1.148 -1.3969 -0.5300 -0.0183
  265MOL0     H35720   0.490   3.884   1.055  1.7397  3.6243  1.5522
  265MOL0     H35721   0.544   3.716   1.049 -0.5890  0.2678  0.3814
  265MOL0     H35722   0.540   3.903   1.285 -1.2464  0.5571 -0.9775
  265MOL0     H35723   0.424   3.786   1.251 -0.3954  3.5668 -1.1556
  265MOL0     H35724   0.570   3.700   1.419 -4.9794 -1.5908 -2.3457
  265MOL0     H35725   0.725   3.721   1.335  0.1323  0.4349  2.5517
  265MOL0     H35726   0.383   3.538   1.295 -0.9365  1.7439 -3.5363
  265MOL0     H35727   0.344   3.333   1.019 -2.3549 -2.6349 -0.1941
  265MOL0     H35728   0.446   3.213   1.095 -0.0436  0.8161  0.2739
  265MOL0     H35729   0.215   3.362   1.245 -2.2967 -0.5488 -2.0324
  265MOL0     H35730   0.333   3.246   1.307  1.0048  0.0917 -0.3992
  265MOL0     H35731   0.121   3.124   1.247  2.6867 -0.3869  3.2922
  265MOL0     H35732   0.267   3.069   1.187 -0.5140  0.5838 -0.4737
  265MOL0     H35733   0.230   3.163   0.955 -0.5504 -0.1887 -0.6950
  265MOL0     H35734   0.110   3.271   1.019  2.6018  0.5653 -2.3636
  265MOL0     H35735  -0.047   3.272   1.173  1.4807 -1.6833 -0.4362
  265MOL0     H35736  -0.213   3.403   1.230 -1.2047  0.8733 -0.5052
  265MOL0     H35737  -0.391   3.361   1.228 -0.1157  0.8239  0.6377
  265MOL0     H35738  -0.279   3.315   1.364  0.8247  0.4543  0.0978
  265MOL0     H35739  -0.742   3.250   1.144  1.0482 -1.1101 -1.1207
  265MOL0     H35740  -0.997   3.222   1.179 -0.4071  0.3235  0.0701
  265MOL0     H35741  -1.139   2.952   1.018  1.1155  0.8022  0.6790
  265MOL0     H35742  -1.152   2.815   1.122 -3.5414 -1.6531 -1.8031
  265MOL0     H35743  -1.371   3.022   1.139 -0.2431 -0.1544  0.6285
  265MOL0     H35744  -1.362   2.878   1.023  0.2415 -2.2881  1.7477
  265MOL0     H35745  -1.362   2.849   1.333 -0.1407 -2.0332  0.3261
  265MOL0     H35746  -1.368   2.726   1.199 -1.7698 -0.4671 -1.5414
  265MOL0     H35747  -1.589   2.929   1.260  0.8666  0.9603  1.4435
  265MOL0     H35748  -1.600   2.785   1.146  0.1484 -0.0841  0.2169
  265MOL0     H35749  -1.547   2.767   1.432  0.4798 -0.0340 -0.4968
  265MOL0     H35750  -1.541   2.634   1.315 -0.4445 -1.2205  2.4413
  265MOL0     H35751  -1.792   2.780   1.443 -0.4025 -0.7799  1.3110
  265MOL0     H35752  -1.804   2.716   1.276  2.0465 -0.5506 -1.3907
  265MOL0     H35753  -1.728   2.573   1.536  2.1530  0.6680 -1.8419
  265MOL0     H35754  -1.738   2.496   1.371  0.2010 -1.5106  0.7111
  265MOL0     H35755  -1.948   2.438   1.470  1.5452 -0.0201  1.8349
  265MOL0     H35756  -1.986   2.578   1.365  0.4193  1.9823  1.3014
  265MOL0     H35757  -0.927   2.794   1.235 -0.6355  0.3353  0.0361
  265MOL0     H35758  -0.678   2.837   1.194  0.6624  0.6216  2.9908
  265MOL0     H35759  -0.342   2.902   1.047  2.9931 -1.4238 -0.3891
  265MOL0     H35760  -0.110   2.900   0.982  1.2424 -0.6592  0.8066
  265MOL0     H35761   1.248   4.225   0.847 -3.1429  1.4816  0.2310
  265MOL0     H35762   1.454   4.317   0.799 -2.0087 -1.0405  1.2315
  265MOL0     H35763   1.924   4.263   0.526  1.4158 -1.1221 -2.5309
  265MOL0     H35764   2.103   4.381   0.464  0.5126 -0.1116 -1.4077
  265MOL0     H35765   2.204   4.656   0.509 -1.5375 -0.3584 -0.9706
  265MOL0     H35766   2.262   4.512   0.430  0.0918  0.2806  2.4791
  265MOL0     H35767   2.353   4.623   0.230  1.6521  1.7792 -1.1796
  265MOL0     H35768   2.433   4.667   0.379 -0.0190 -0.4031 -0.5147
  265MOL0     H35769   2.261   4.868   0.392  0.4752 -1.5394  0.9346
  265MOL0     H35770   2.235   4.824   0.227 -1.1787  1.3799  1.2760
  265MOL0     H35771   2.486   4.942   0.373  1.1006 -1.5822 -0.4925
  265MOL0     H35772   2.406   5.017   0.240 -3.1317  0.9657  2.6414
  265MOL0     H35773   2.682   4.730   0.076 -0.5250 -2.3660  1.2841
  265MOL0     H35774   1.872   4.735   0.397 -2.4715 -0.3946  0.9474
  265MOL0     H35775   1.674   4.619   0.496  0.0830  0.1436 -1.3015
  266MOL0     O35776   9.187   6.801   6.639 -0.3199 -0.3994 -0.6980
  266MOL0     C35777   9.127   6.808   6.746  0.3284  1.0564  0.6995
  266MOL0     O35778   8.996   6.785   6.766  0.1693  0.0037 -0.3868
  266MOL0     C35779   8.919   6.741   6.661 -0.0590 -1.0402  0.1455
  266MOL0     C35780   8.870   6.612   6.655  0.1926 -0.1069  0.0723
  266MOL0     C35781   8.770   6.583   6.560 -0.6350  0.4401  0.3536
  266MOL0     C35782   8.709   6.680   6.482 -0.4538  0.3167  0.6806
  266MOL0     O35783   8.613   6.652   6.381  0.1518  0.1880 -0.2936
  266MOL0     C35784   8.553   6.526   6.364 -0.5495 -0.5187  0.4858
  266MOL0     C35785   8.436   6.534   6.255  2.0144  0.0928  0.3378
  266MOL0     C35786   8.309   6.597   6.324 -0.3678  0.2549  0.4697
  266MOL0     C35787   8.182   6.557   6.258  1.6350  0.2080  0.5315
  266MOL0     C35788   8.057   6.646   6.293 -0.7363  0.3758  0.2970
  266MOL0     C35789   7.928   6.585   6.236  0.7623  0.2467 -0.7113
  266MOL0     C35790   7.813   6.683   6.216 -0.3519  0.1860 -1.1696
  266MOL0     C35791   7.765   6.735   6.349  0.7864  0.5341 -0.2508
  266MOL0     N35792   7.640   6.810   6.323 -0.5354 -0.2324 -0.0472
  266MOL0     C35793   7.626   6.953   6.346 -0.1614  0.3637 -1.5189
  266MOL0     C35794   7.493   6.978   6.313 -0.2876  0.5409 -0.1206
  266MOL0     C35795   7.440   7.118   6.327  0.8336  0.4546  0.1153
  266MOL0     C35796   7.414   7.148   6.475  0.1034 -0.4112 -1.0929
  266MOL0     C35797   7.320   7.045   6.541  0.3677 -0.2794 -1.0419
  266MOL0     C35798   7.290   7.069   6.696 -0.5010  0.1311 -0.1097
  266MOL0     O35799   7.248   7.202   6.706 -0.6690  0.0146  0.1435
  266MOL0     C35800   7.117   7.230   6.668  0.4824 -0.4062  1.0891
  266MOL0     C35801   7.013   7.145   6.629 -0.6012  0.0829 -0.2571
  266MOL0     C35802   6.885   7.176   6.592 -0.2115 -0.6631  0.7243
  266MOL0     C35803   6.776   7.071   6.568  0.1804 -0.4359  0.1422
  266MOL0     C35804   6.854   7.321   6.591 -0.5916  0.6953  0.8671
  266MOL0     C35805   6.721   7.370   6.537  0.3834  0.0386 -0.3516
  266MOL0     O35806   6.682   7.490   6.589  0.2442  0.6594  0.0658
  266MOL0     C35807   6.584   7.554   6.516 -0.1913 -0.0481  0.0706
  266MOL0     C35808   6.615   7.657   6.423 -0.1220 -0.1130 -0.1940
  266MOL0     C35809   6.512   7.724   6.352 -0.2887  0.0396  0.0282
  266MOL0     C35810   6.373   7.691   6.363 -0.0293 -0.4196 -0.5298
  266MOL0     O35811   6.257   7.744   6.308  0.0982  0.3022 -0.1432
  266MOL0     C35812   6.271   7.836   6.193  0.3428 -0.3252  0.2786
  266MOL0     C35813   6.138   7.864   6.117  1.1472 -1.0115  0.0709
  266MOL0     C35814   6.157   7.953   5.990 -0.1677 -1.0162 -0.2333
  266MOL0     C35815   6.025   7.970   5.919 -0.3093  0.4261 -0.0513
  266MOL0     C35816   6.043   8.037   5.784 -0.2243 -0.3969 -0.3130
  266MOL0     C35817   5.918   8.082   5.713  0.0440 -0.2479  0.5209
  266MOL0     C35818   5.949   8.128   5.570  0.8281 -0.1124  0.4192
  266MOL0     C35819   5.994   8.270   5.577 -0.3840 -1.2163 -0.8635
  266MOL0    Cl35820   6.032   8.331   5.418 -0.4650  0.0044  0.0141
  266MOL0     C35821   6.344   7.593   6.461 -0.3445  0.3703  0.0972
  266MOL0     C35822   6.447   7.525   6.523 -0.7941 -0.9507 -0.7119
  266MOL0     O35823   6.655   7.300   6.456 -0.7136  0.2525  0.4577
  266MOL0     C35824   6.946   7.407   6.647 -0.7963  0.2332  0.3883
  266MOL0     C35825   7.071   7.366   6.683 -0.0767 -0.2402 -0.1238
  266MOL0     N35826   7.433   6.860   6.276  0.5712 -0.0013 -0.0307
  266MOL0     N35827   7.521   6.767   6.278  0.7731  0.4120 -0.3201
  266MOL0     C35828   8.761   6.808   6.491  0.9095  1.0645  0.4290
  266MOL0     C35829   8.858   6.845   6.577 -0.6594 -0.9039  0.7026
  266MOL0     C35830   9.207   6.873   6.846  0.1077 -0.4647  0.4165
  266MOL0     C35831   9.312   6.973   6.819  0.0314  0.0746 -0.1260
  266MOL0     C35832   9.390   7.023   6.922  0.2424 -0.2837 -0.2021
  266MOL0     C35833   9.366   6.992   7.056  0.2812  0.3645 -1.5801
  266MOL0     O35834   9.426   7.055   7.162 -0.0922  0.0874 -0.4136
  266MOL0     C35835   9.560   7.091   7.143 -0.6676 -0.1206  0.0014
  266MOL0     C35836   9.617   7.194   7.244  0.7555  0.2576  1.1918
  266MOL0     C35837   9.645   7.133   7.379 -0.3944 -0.3153  0.3560
  266MOL0     C35838   9.748   7.020   7.370 -0.6420  0.1976  0.7504
  266MOL0     C35839   9.872   7.029   7.292  0.0064  0.3141  0.3583
  266MOL0     C35840   9.976   7.053   7.227  0.6565  0.4077  0.9682
  266MOL0     C35841   9.252   6.916   7.084  0.0864  0.3931 -1.1502
  266MOL0     C35842   9.176   6.861   6.983 -0.4440 -0.9069  0.4692
  266MOL0     H35843   8.908   6.551   6.737 -2.9917  1.2615  2.8199
  266MOL0     H35844   8.748   6.480   6.534  0.7871 -0.3649  2.1322
  266MOL0     H35845   8.633   6.456   6.340 -0.3720  0.8921 -3.7603
  266MOL0     H35846   8.512   6.491   6.460  0.2194  0.0068  1.0141
  266MOL0     H35847   8.460   6.592   6.165 -1.9693  1.8405  0.2057
  266MOL0     H35848   8.415   6.430   6.227  3.1069 -0.4850  1.5817
  266MOL0     H35849   8.299   6.563   6.428  0.6174 -0.7834  0.2380
  266MOL0     H35850   8.312   6.706   6.320 -1.6626  0.2677 -0.7548
  266MOL0     H35851   8.201   6.577   6.152  0.9097 -0.3117  0.2989
  266MOL0     H35852   8.161   6.450   6.271 -1.2393  0.7547  1.0657
  266MOL0     H35853   8.046   6.662   6.400 -1.2420 -1.0291  0.4879
  266MOL0     H35854   8.082   6.743   6.249  0.5390  0.8076  1.9250
  266MOL0     H35855   7.963   6.541   6.143  0.4440 -1.4106 -0.0824
  266MOL0     H35856   7.898   6.507   6.307  2.3261 -1.0519 -1.4208
  266MOL0     H35857   7.845   6.766   6.152  0.3821  1.3624  0.6306
  266MOL0     H35858   7.730   6.632   6.166 -0.8369  0.1964 -0.3893
  266MOL0     H35859   7.838   6.796   6.402 -1.1409  0.7949  2.2839
  266MOL0     H35860   7.746   6.649   6.414  1.8163  1.9186  2.0132
  266MOL0     H35861   7.688   7.030   6.390 -2.3445  0.8757  0.9160
  266MOL0     H35862   7.513   7.181   6.276 -1.1855  0.4695 -2.9946
  266MOL0     H35863   7.347   7.121   6.269  0.8494 -1.2991 -0.0379
  266MOL0     H35864   7.364   7.245   6.483  2.1168  0.9321 -3.5002
  266MOL0     H35865   7.510   7.158   6.525 -0.9618  1.4711  0.7127
  266MOL0     H35866   7.356   6.942   6.536  1.2467 -0.0630  0.4330
  266MOL0     H35867   7.225   7.042   6.485  0.4486 -2.5983 -1.1530
  266MOL0     H35868   7.386   7.058   6.748  0.5147  0.7112 -1.7874
  266MOL0     H35869   7.223   6.990   6.733  0.2344  0.0485  1.1168
  266MOL0     H35870   7.034   7.039   6.620  0.7259  0.1605  1.4261
  266MOL0     H35871   6.682   7.112   6.606  1.4812  2.8375  0.1985
  266MOL0     H35872   6.770   7.047   6.461  0.0036 -0.6626  0.2038
  266MOL0     H35873   6.806   6.978   6.616 -0.2715 -1.1664 -0.9494
  266MOL0     H35874   6.720   7.684   6.424 -0.3892  1.0124  1.3799
  266MOL0     H35875   6.548   7.804   6.288 -3.0518 -0.1098 -1.8708
  266MOL0     H35876   6.315   7.931   6.225 -0.8480  0.2166  0.3506
  266MOL0     H35877   6.332   7.788   6.116  3.0924  1.5312  1.1538
  266MOL0     H35878   6.093   7.773   6.075  1.4016 -0.7233 -0.8645
  266MOL0     H35879   6.071   7.913   6.187  1.0947 -0.2011 -0.5315
  266MOL0     H35880   6.234   7.924   5.918 -0.4319  2.2748 -2.0462
  266MOL0     H35881   6.200   8.047   6.025 -2.4232 -0.7392  2.1040
  266MOL0     H35882   5.986   7.870   5.899 -5.7119  1.7525  1.9424
  266MOL0     H35883   5.950   8.016   5.985 -1.3460 -0.7355 -0.3681
  266MOL0     H35884   6.095   7.964   5.722 -0.9662 -1.1487 -0.0684
  266MOL0     H35885   6.102   8.128   5.800 -2.5587  1.4396 -1.5129
  266MOL0     H35886   5.841   8.004   5.706 -0.2235  0.0958 -0.7766
  266MOL0     H35887   5.858   8.152   5.771 -1.5247  0.2261 -1.5532
  266MOL0     H35888   5.857   8.108   5.515  1.7816 -0.0987 -1.2428
  266MOL0     H35889   6.031   8.067   5.531 -0.4389 -3.6932  2.8053
  266MOL0     H35890   6.082   8.269   5.641 -1.1823  2.6281  0.5731
  266MOL0     H35891   5.914   8.331   5.620  0.0958 -1.1612 -0.0323
  266MOL0     H35892   6.247   7.551   6.483  1.2567 -3.4865  0.7252
  266MOL0     H35893   6.417   7.441   6.584 -0.9660 -0.7692 -0.5444
  266MOL0     H35894   6.914   7.509   6.666  1.7472  1.3972 -1.0770
  266MOL0     H35895   7.147   7.430   6.726 -0.5149  1.0235 -1.1838
  266MOL0     H35896   8.709   6.886   6.436 -2.6423 -0.3989  1.4726
  266MOL0     H35897   8.905   6.941   6.591 -2.4934 -0.1964  2.2861
  266MOL0     H35898   9.326   7.005   6.716  0.9037  1.6577  0.4361
  266MOL0     H35899   9.460   7.102   6.900 -0.0918  0.1736  0.3501
  266MOL0     H35900   9.630   7.007   7.132  1.3796  1.1977  2.0298
  266MOL0     H35901   9.574   7.143   7.048 -0.5955 -2.0040 -1.0714
  266MOL0     H35902   9.542   7.273   7.254 -0.9350 -1.2151  0.6504
  266MOL0     H35903   9.708   7.240   7.204  0.5798  0.2113  0.7371
  266MOL0     H35904   9.551   7.095   7.421 -1.2910 -1.9676 -2.7918
  266MOL0     H35905   9.692   7.198   7.453  0.4035  0.1861 -0.5690
  266MOL0     H35906   9.697   6.927   7.344  1.2383 -1.1981  1.7582
  266MOL0     H35907   9.780   6.987   7.469  1.3414  2.0671  0.8192
  266MOL0     H35908  10.057   7.067   7.158 -0.8080 -0.4747 -1.0051
  266MOL0     H35909   9.220   6.906   7.187  3.1315 -0.1509 -0.1356
  266MOL0     H35910   9.086   6.813   7.020  0.3794 -1.3430  1.9940
  267MOL0     O35911  10.556   7.923   6.854  0.4266  0.4036  0.3859
  267MOL0     C35912  10.639   7.947   6.940 -0.1744  0.5251 -0.1090
  267MOL0     O35913  10.618   7.960   7.075 -0.0813 -0.1526 -0.3791
  267MOL0     C35914  10.500   7.917   7.127  0.2202 -0.4247  0.0446
  267MOL0     C35915  10.437   8.011   7.220 -0.1945 -0.2491 -0.5504
  267MOL0     C35916  10.330   7.978   7.297 -0.4867 -0.3318 -0.2886
  267MOL0     C35917  10.272   7.849   7.276  0.4170 -0.7713  0.4474
  267MOL0     O35918  10.152   7.801   7.329 -0.0715 -0.5289 -0.1847
  267MOL0     C35919  10.040   7.899   7.336 -0.5363  0.0563 -0.4257
  267MOL0     C35920  10.010   7.973   7.205  0.9618  0.4373 -0.5860
  267MOL0     C35921   9.985   7.886   7.080  0.5002 -0.0468 -0.2288
  267MOL0     C35922   9.885   7.769   7.105  0.1973 -0.1097 -0.5466
  267MOL0     C35923   9.826   7.716   6.981  0.0753 -0.3942  0.5589
  267MOL0     C35924   9.751   7.583   6.996  0.2979 -0.1880 -0.6342
  267MOL0     C35925   9.648   7.553   6.889 -0.7464 -0.4883 -0.1909
  267MOL0     C35926   9.616   7.407   6.886 -0.1049 -0.0929  1.0214
  267MOL0     N35927   9.544   7.375   6.763 -0.0960 -0.4377 -0.4582
  267MOL0     C35928   9.592   7.374   6.635 -0.7710 -0.1276 -0.1944
  267MOL0     C35929   9.493   7.320   6.569 -1.0616 -0.9488 -0.4344
  267MOL0     C35930   9.498   7.262   6.436  0.0918 -0.1738 -0.4169
  267MOL0     C35931   9.594   7.140   6.430 -0.6450  0.0313  0.5801
  267MOL0     C35932   9.541   7.019   6.505  0.4265  0.5653  0.0180
  267MOL0     C35933   9.411   6.957   6.444 -0.0450 -0.6903 -0.1354
  267MOL0     O35934   9.435   6.929   6.307 -0.6026 -0.1044 -0.4664
  267MOL0     C35935   9.336   6.911   6.216 -0.4000  0.7567 -0.1544
  267MOL0     C35936   9.358   6.923   6.075  1.0385 -0.2292 -0.2667
  267MOL0     C35937   9.254   6.911   5.979 -0.4968  0.4431 -0.0094
  267MOL0     C35938   9.278   6.948   5.831  0.7158 -0.7426  0.6371
  267MOL0     C35939   9.127   6.868   6.031 -0.5636 -0.2655  0.4898
  267MOL0     C35940   9.022   6.844   5.938  0.5304  0.0711 -0.3915
  267MOL0     O35941   8.899   6.860   5.995  0.0997 -0.0197 -0.6619
  267MOL0     C35942   8.803   6.778   5.937 -0.1174  0.2021 -1.4411
  267MOL0     C35943   8.758   6.809   5.811 -0.2773  0.1136  0.1797
  267MOL0     C35944   8.659   6.733   5.752  0.2517  0.7611  0.3830
  267MOL0     C35945   8.597   6.626   5.826 -0.0500 -0.1537  0.0514
  267MOL0     O35946   8.507   6.525   5.778  0.8556 -0.8370 -0.0599
  267MOL0     C35947   8.527   6.488   5.643  0.5568  0.1301 -0.2942
  267MOL0     C35948   8.425   6.384   5.597  1.0694 -0.4582  0.2193
  267MOL0     C35949   8.284   6.444   5.610 -0.0663  0.4523 -0.4444
  267MOL0     C35950   8.178   6.350   5.551 -0.2432  1.1612  0.7012
  267MOL0     C35951   8.031   6.397   5.573 -0.2925 -0.9902  0.5957
  267MOL0     C35952   7.938   6.277   5.550 -0.1856 -0.1751 -0.1263
  267MOL0     C35953   7.790   6.299   5.563 -0.0717 -0.1352  0.0067
  267MOL0     C35954   7.729   6.403   5.471  0.6112 -0.1268 -0.5547
  267MOL0    Cl35955   7.555   6.366   5.472 -0.1526  0.5619  0.1055
  267MOL0     C35956   8.640   6.606   5.956  0.3335  0.5558  1.0444
  267MOL0     C35957   8.747   6.674   6.013 -0.7251  0.7609 -0.6744
  267MOL0     O35958   9.046   6.794   5.829 -0.3111  0.1115  0.9061
  267MOL0     C35959   9.101   6.857   6.167 -0.1812  0.1739  0.2362
  267MOL0     C35960   9.203   6.885   6.254 -1.3614  1.0684  0.2100
  267MOL0     N35961   9.383   7.287   6.647 -0.6157  0.9796 -0.8416
  267MOL0     N35962   9.419   7.315   6.766  0.3419  0.0314  0.0847
  267MOL0     C35963  10.329   7.764   7.177 -0.2423  0.3001 -0.0329
  267MOL0     C35964  10.443   7.797   7.106 -0.7240 -0.5193  0.6255
  267MOL0     C35965  10.774   7.997   6.906 -1.3081  0.2119  0.2547
  267MOL0     C35966  10.882   8.018   7.000 -0.5733 -0.2476  0.5442
  267MOL0     C35967  11.011   8.059   6.963 -0.0586 -0.1486 -0.5064
  267MOL0     C35968  11.049   8.078   6.832  0.4078  0.0376 -0.5694
  267MOL0     O35969  11.181   8.104   6.803 -0.0953  0.3740 -0.0698
  267MOL0     C35970  11.282   8.000   6.824 -1.1745 -0.4037  0.2630
  267MOL0     C35971  11.408   8.080   6.857  0.0425  0.6981 -0.0732
  267MOL0     C35972  11.404   8.117   7.009 -0.1452 -0.3362 -0.1288
  267MOL0     C35973  11.518   8.216   7.060 -0.0379 -0.4549  0.4116
  267MOL0     C35974  11.651   8.159   7.047  0.1955 -0.7847 -0.6333
  267MOL0     C35975  11.761   8.113   7.049  0.0428  0.0044 -0.5663
  267MOL0     C35976  10.953   8.052   6.742 -0.8723 -0.2967  1.2417
  267MOL0     C35977  10.827   8.016   6.772  0.2620  0.2642  0.4033
  267MOL0     H35978  10.506   8.094   7.233 -0.2364  0.1962 -2.8093
  267MOL0     H35979  10.285   8.038   7.375  1.3688 -1.8960  2.1127
  267MOL0     H35980   9.952   7.852   7.380  0.6045  0.9003  3.2034
  267MOL0     H35981  10.066   7.967   7.418 -1.8555  0.5567 -0.3926
  267MOL0     H35982   9.927   8.042   7.224  2.0303  0.8867  3.0593
  267MOL0     H35983  10.093   8.041   7.189 -0.0164  1.9039  0.3329
  267MOL0     H35984   9.939   7.944   7.000 -1.9939 -0.4491  0.8234
  267MOL0     H35985  10.085   7.848   7.056  1.8633  2.0346  1.6494
  267MOL0     H35986   9.946   7.695   7.159 -1.2229 -0.7159  0.2909
  267MOL0     H35987   9.812   7.800   7.180  3.6199  1.5617  2.4424
  267MOL0     H35988   9.753   7.792   6.951  0.4777 -0.5736 -0.9880
  267MOL0     H35989   9.900   7.707   6.901  3.1544 -2.2770  3.3776
  267MOL0     H35990   9.817   7.496   7.004 -2.0466 -2.2751 -2.4038
  267MOL0     H35991   9.698   7.595   7.091  2.9397  2.8959  0.6203
  267MOL0     H35992   9.556   7.606   6.915 -1.7396 -1.5933 -1.2944
  267MOL0     H35993   9.685   7.578   6.789 -1.0162 -3.7874 -1.2320
  267MOL0     H35994   9.556   7.388   6.976 -0.5529  2.1819  1.2777
  267MOL0     H35995   9.705   7.345   6.894 -2.3296 -3.2674  4.0962
  267MOL0     H35996   9.697   7.392   6.611 -0.2886  0.8324  2.3167
  267MOL0     H35997   9.395   7.234   6.413 -0.2936  1.4144 -0.7531
  267MOL0     H35998   9.526   7.341   6.366  0.9082  0.1270  0.2205
  267MOL0     H35999   9.693   7.173   6.461 -0.0710 -0.8153 -0.3149
  267MOL0     H36000   9.595   7.111   6.325 -4.3652  1.3174  0.0340
  267MOL0     H36001   9.517   7.040   6.609  2.3944 -0.1372  0.6605
  267MOL0     H36002   9.623   6.947   6.502  1.9502  2.2290  0.1816
  267MOL0     H36003   9.328   7.029   6.441 -0.5902 -1.3460 -2.8373
  267MOL0     H36004   9.380   6.866   6.495 -0.4852 -2.0588 -2.7059
  267MOL0     H36005   9.453   6.948   6.029  0.0032  2.8286 -1.0073
  267MOL0     H36006   9.362   7.015   5.812 -1.3284  1.5982 -0.6179
  267MOL0     H36007   9.285   6.859   5.767 -1.7907  0.8669 -2.0674
  267MOL0     H36008   9.199   7.013   5.794  1.5023 -0.5935 -0.8699
  267MOL0     H36009   8.810   6.890   5.760  0.3955 -0.4135  0.0165
  267MOL0     H36010   8.612   6.751   5.655 -3.5055  0.4055  1.9472
  267MOL0     H36011   8.520   6.579   5.583 -0.3265  0.3895  0.1794
  267MOL0     H36012   8.630   6.454   5.630  1.6465  2.6797  1.0247
  267MOL0     H36013   8.429   6.344   5.495 -2.0252 -1.2516  0.2874
  267MOL0     H36014   8.409   6.303   5.668 -2.7632 -1.8629 -1.9233
  267MOL0     H36015   8.275   6.540   5.558  1.9962  3.2821  3.8143
  267MOL0     H36016   8.264   6.473   5.714  1.9025  2.3678 -0.5301
  267MOL0     H36017   8.201   6.346   5.444  0.9088  1.5568  0.9125
  267MOL0     H36018   8.189   6.248   5.588 -0.7512  1.4008  1.5452
  267MOL0     H36019   8.004   6.481   5.509 -3.1269 -2.4304 -0.2847
  267MOL0     H36020   8.026   6.436   5.675  1.0475 -1.2890  0.8001
  267MOL0     H36021   7.957   6.233   5.451 -1.7689  1.0206 -1.0171
  267MOL0     H36022   7.960   6.199   5.623 -1.0188 -0.9769 -0.7005
  267MOL0     H36023   7.769   6.343   5.661  2.2684  1.6877 -0.2263
  267MOL0     H36024   7.740   6.203   5.543 -1.8854  1.3911 -3.8568
  267MOL0     H36025   7.772   6.380   5.373  0.7481 -0.9242 -0.3169
  267MOL0     H36026   7.755   6.506   5.496 -0.0157 -0.2118  0.5543
  267MOL0     H36027   8.606   6.524   6.018 -0.4190 -0.1800 -0.2883
  267MOL0     H36028   8.795   6.650   6.107  0.5631 -4.8276 -2.3846
  267MOL0     H36029   9.004   6.830   6.207 -1.5649  0.4639 -2.6649
  267MOL0     H36030   9.189   6.885   6.362  2.7913 -0.7054  0.9695
  267MOL0     H36031  10.273   7.673   7.154  0.2478 -0.3744  1.3197
  267MOL0     H36032  10.485   7.723   7.038 -2.7155 -0.8113 -0.3740
  267MOL0     H36033  10.863   7.983   7.101 -0.7786 -2.7092 -0.2859
  267MOL0     H36034  11.088   8.066   7.039  1.1059 -1.0535 -1.5550
  267MOL0     H36035  11.258   7.924   6.899 -1.7576 -1.4261 -0.9203
  267MOL0     H36036  11.300   7.957   6.725 -0.4413  2.3726 -0.8778
  267MOL0     H36037  11.424   8.168   6.794  1.0005 -0.4205 -1.4454
  267MOL0     H36038  11.495   8.020   6.829 -0.5942  0.2899 -1.2360
  267MOL0     H36039  11.405   8.028   7.073  1.2353 -0.0407  0.2942
  267MOL0     H36040  11.308   8.162   7.034  0.6248  1.7272 -0.6865
  267MOL0     H36041  11.499   8.231   7.167  2.6032 -0.2552  0.9227
  267MOL0     H36042  11.503   8.305   6.998  1.9170 -1.6783 -2.0140
  267MOL0     H36043  11.858   8.070   7.062  0.0790 -0.0092 -0.8684
  267MOL0     H36044  10.979   8.067   6.637 -1.7800 -2.4177  0.6658
  267MOL0     H36045  10.759   8.013   6.687 -1.2474 -0.4465  1.5896
  268MOL0     O36046   5.038   8.281   5.077  0.8836  0.3356 -0.1849
  268MOL0     C36047   5.042   8.313   4.960  0.7397  0.4133  0.1243
  268MOL0     O36048   4.937   8.331   4.866  0.9264 -0.2057  0.2134
  268MOL0     C36049   4.802   8.315   4.910  0.9403 -0.2856 -0.7602
  268MOL0     C36050   4.713   8.238   4.834 -0.6485  1.0427  0.3785
  268MOL0     C36051   4.573   8.233   4.858  0.6007  0.1300 -0.1186
  268MOL0     C36052   4.516   8.306   4.968  0.2842  0.1240 -0.1242
  268MOL0     O36053   4.381   8.301   5.012 -0.1670 -0.1169 -0.6988
  268MOL0     C36054   4.288   8.267   4.902 -0.4920 -1.0723 -0.5218
  268MOL0     C36055   4.144   8.319   4.947 -0.4024 -0.4243  0.6949
  268MOL0     C36056   4.139   8.466   4.960  0.2531  0.5928 -0.0824
  268MOL0     C36057   3.993   8.512   4.943 -0.2651  0.2243  0.0142
  268MOL0     C36058   3.973   8.663   4.921 -0.5789  0.8522 -0.0758
  268MOL0     C36059   3.920   8.699   4.785  1.6297 -0.4274  0.1620
  268MOL0     C36060   3.889   8.854   4.783  0.4802 -0.8300 -0.2388
  268MOL0     C36061   3.733   8.879   4.774 -0.2829  1.0126 -0.1119
  268MOL0     N36062   3.694   9.004   4.719  0.2559 -0.8358  0.2690
  268MOL0     C36063   3.736   9.122   4.759 -0.5054 -0.6757  0.1626
  268MOL0     C36064   3.715   9.202   4.659 -0.4418 -0.4520 -0.2306
  268MOL0     C36065   3.750   9.348   4.660  0.0603 -0.5299  0.0402
  268MOL0     C36066   3.681   9.425   4.550  0.4689 -0.7292  0.2423
  268MOL0     C36067   3.717   9.579   4.559 -0.3044 -0.3318 -0.2975
  268MOL0     C36068   3.599   9.672   4.581 -0.6286  0.7562  0.2455
  268MOL0     O36069   3.512   9.656   4.472  0.4994  0.0822  0.0206
  268MOL0     C36070   3.408   9.745   4.455  0.5484  0.4459  0.7123
  268MOL0     C36071   3.353   9.807   4.571  0.2664 -0.1779 -0.5412
  268MOL0     C36072   3.244   9.896   4.551  0.5634 -0.5184 -0.3293
  268MOL0     C36073   3.188   9.969   4.673 -0.7509  0.0207 -0.2010
  268MOL0     C36074   3.183   9.924   4.421 -1.2373 -0.0534 -0.8769
  268MOL0     C36075   3.053   9.996   4.403 -0.0474  0.1665 -0.4822
  268MOL0     O36076   3.044  10.046   4.279 -0.2637 -0.1825  0.4684
  268MOL0     C36077   2.927  10.109   4.247 -0.1322  0.0359  1.1033
  268MOL0     C36078   2.820  10.037   4.184  0.7754 -0.7327 -0.1449
  268MOL0     C36079   2.701  10.099   4.165  0.8414 -0.3476 -0.0795
  268MOL0     C36080   2.666  10.226   4.218  0.5497  0.1217 -0.5557
  268MOL0     O36081   2.540  10.263   4.201  0.4438 -0.1035 -0.0532
  268MOL0     C36082   2.497  10.384   4.268  0.2886  0.3128 -0.9084
  268MOL0     C36083   2.483  10.382   4.421  0.0229  0.3593 -0.0566
  268MOL0     C36084   2.398  10.263   4.473 -0.0841  0.1382  1.3287
  268MOL0     C36085   2.252  10.263   4.455 -0.3821 -0.2970 -0.8622
  268MOL0     C36086   2.193  10.361   4.555  0.3110  0.4601  0.0089
  268MOL0     C36087   2.042  10.369   4.549 -0.4052 -0.1269  0.6999
  268MOL0     C36088   2.007  10.491   4.624  0.0470 -0.2174 -0.1673
  268MOL0     C36089   1.864  10.492   4.669 -0.0921  0.4221 -0.6516
  268MOL0    Cl36090   1.736  10.487   4.534 -0.4517  0.1610 -0.2752
  268MOL0     C36091   2.777  10.292   4.281 -0.4884 -0.0768 -0.0534
  268MOL0     C36092   2.896  10.236   4.295 -0.1814 -0.3110 -0.1941
  268MOL0     O36093   2.966   9.998   4.493  0.7857 -0.0928  0.4980
  268MOL0     C36094   3.255   9.869   4.313 -0.1040  0.1920  0.2849
  268MOL0     C36095   3.358   9.776   4.319 -0.5512 -0.0944  0.1724
  268MOL0     N36096   3.643   9.132   4.554  0.1830 -0.7442 -1.2080
  268MOL0     N36097   3.629   9.013   4.598  0.0035 -0.8543 -0.1398
  268MOL0     C36098   4.606   8.378   5.045  0.6509  1.0674 -0.4974
  268MOL0     C36099   4.747   8.388   5.010 -0.3613 -0.4878 -0.2234
  268MOL0     C36100   5.178   8.321   4.902 -0.7719  0.2588 -0.5391
  268MOL0     C36101   5.291   8.296   4.985  0.8901 -0.2245  0.7883
  268MOL0     C36102   5.414   8.288   4.937 -0.6930 -0.4243  0.4370
  268MOL0     C36103   5.436   8.311   4.797 -0.0973 -0.4193  0.1862
  268MOL0     O36104   5.563   8.301   4.747 -0.3236  0.7347 -0.4739
  268MOL0     C36105   5.631   8.176   4.758  0.2219  0.9671  0.0123
  268MOL0     C36106   5.766   8.178   4.678  0.3493  0.2600  0.6580
  268MOL0     C36107   5.737   8.187   4.527  0.9161  0.0817  1.0355
  268MOL0     C36108   5.859   8.209   4.436  0.9996 -0.6974 -0.5275
  268MOL0     C36109   5.972   8.116   4.456  0.7270 -0.2335  0.3289
  268MOL0     C36110   6.053   8.025   4.462 -0.2847  0.0889  0.6740
  268MOL0     C36111   5.333   8.343   4.710 -0.0767  0.8115 -0.6823
  268MOL0     C36112   5.206   8.342   4.765  0.4008 -0.0270 -0.0592
  268MOL0     H36113   4.743   8.182   4.747 -2.7349 -0.0724  0.3203
  268MOL0     H36114   4.509   8.178   4.790 -0.2820 -2.5847  2.6531
  268MOL0     H36115   4.306   8.318   4.807  1.5289 -1.1947 -0.2446
  268MOL0     H36116   4.292   8.159   4.885 -1.0709 -0.7910 -2.7965
  268MOL0     H36117   4.071   8.290   4.871 -0.3480  1.0919  0.0327
  268MOL0     H36118   4.121   8.269   5.041 -0.6418  0.7168  1.2591
  268MOL0     H36119   4.172   8.510   5.054  2.5488  2.4444 -1.6302
  268MOL0     H36120   4.203   8.512   4.883  0.4930  0.6597  0.1567
  268MOL0     H36121   3.939   8.464   4.861 -1.5491  1.5387  0.0329
  268MOL0     H36122   3.947   8.478   5.036  1.3322 -0.0549  0.7328
  268MOL0     H36123   3.916   8.703   5.005  0.1303  0.1129  0.7849
  268MOL0     H36124   4.073   8.706   4.920  0.0666 -0.5846 -0.1714
  268MOL0     H36125   3.998   8.677   4.712  3.8955  2.2525  1.6127
  268MOL0     H36126   3.830   8.640   4.761  1.8590 -0.6496 -0.1618
  268MOL0     H36127   3.925   8.899   4.876 -0.0160 -0.3944 -0.2506
  268MOL0     H36128   3.929   8.899   4.692 -0.1643 -0.4768 -0.3523
  268MOL0     H36129   3.688   8.866   4.873  0.2608 -1.5092 -0.1176
  268MOL0     H36130   3.687   8.805   4.707 -2.1145  0.6299  1.4695
  268MOL0     H36131   3.797   9.153   4.844 -0.3966  2.8594 -1.0476
  268MOL0     H36132   3.721   9.385   4.759  1.1030 -0.1305  0.2132
  268MOL0     H36133   3.858   9.358   4.645  0.1879 -0.7028  0.7804
  268MOL0     H36134   3.573   9.408   4.555  0.3507 -1.0882 -2.1704
  268MOL0     H36135   3.713   9.384   4.454  0.2553  1.2205 -0.7030
  268MOL0     H36136   3.761   9.613   4.465 -1.9998  2.3039 -0.2335
  268MOL0     H36137   3.799   9.603   4.627  0.1587 -0.8461 -0.6672
  268MOL0     H36138   3.635   9.774   4.597  1.9451 -0.1158  0.4817
  268MOL0     H36139   3.548   9.635   4.670  3.0496  0.0333  2.2495
  268MOL0     H36140   3.386   9.786   4.672  2.4223  2.0204 -0.6795
  268MOL0     H36141   3.258   9.983   4.755  0.5673  1.3377 -1.5036
  268MOL0     H36142   3.150  10.065   4.637  2.0058  0.9158 -0.9678
  268MOL0     H36143   3.109   9.898   4.699  0.8178 -2.6954 -2.3186
  268MOL0     H36144   2.830   9.936   4.146 -1.9395 -0.6264 -1.3082
  268MOL0     H36145   2.614  10.050   4.124 -0.2510  1.0039  0.5425
  268MOL0     H36146   2.576  10.457   4.247  1.0553  0.1036  1.1068
  268MOL0     H36147   2.397  10.410   4.230 -0.4750 -1.0505  0.0602
  268MOL0     H36148   2.575  10.394   4.480 -0.8771 -2.7994  2.2114
  268MOL0     H36149   2.434  10.477   4.445  1.5773  1.1861  0.0211
  268MOL0     H36150   2.409  10.259   4.582 -0.4647 -0.6810  1.3422
  268MOL0     H36151   2.442  10.171   4.433 -2.1645  0.0061 -0.9307
  268MOL0     H36152   2.226  10.296   4.354 -1.4658  1.3164 -0.0986
  268MOL0     H36153   2.209  10.165   4.478 -4.0839  1.5242  0.7655
  268MOL0     H36154   2.217  10.464   4.525 -1.3072  0.1143 -2.8728
  268MOL0     H36155   2.227  10.346   4.658 -2.6365 -3.3081  0.6371
  268MOL0     H36156   2.005  10.381   4.446  1.2380  4.1391  0.3949
  268MOL0     H36157   2.004  10.278   4.596  1.6277 -0.7407  1.2500
  268MOL0     H36158   2.021  10.576   4.556  3.1227 -1.1848 -0.8897
  268MOL0     H36159   2.076  10.518   4.705  1.5377  0.6862 -1.6574
  268MOL0     H36160   1.852  10.589   4.718  1.4965  0.1699  0.3386
  268MOL0     H36161   1.850  10.419   4.749 -1.4038  1.1432 -0.2074
  268MOL0     H36162   2.764  10.387   4.333 -0.2946  1.2278 -2.2542
  268MOL0     H36163   2.966  10.300   4.348 -1.7870  1.6997 -0.3520
  268MOL0     H36164   3.232   9.905   4.213  3.0599 -1.8747 -1.3686
  268MOL0     H36165   3.405   9.733   4.231  0.1960 -0.2869  0.6485
  268MOL0     H36166   4.572   8.425   5.137  2.0784  0.1030  0.5799
  268MOL0     H36167   4.822   8.446   5.064 -0.2932 -0.7304 -0.0551
  268MOL0     H36168   5.276   8.276   5.090 -0.8972  1.6393  0.9433
  268MOL0     H36169   5.491   8.250   5.004 -1.3315 -1.3220  0.6827
  268MOL0     H36170   5.664   8.146   4.858  2.1943 -0.5491 -1.0213
  268MOL0     H36171   5.566   8.095   4.725 -0.3304  0.1240  2.9150
  268MOL0     H36172   5.811   8.080   4.700 -4.0294 -2.4275 -0.9065
  268MOL0     H36173   5.831   8.260   4.710  1.5710  0.9642 -3.0991
  268MOL0     H36174   5.672   8.273   4.510  1.9836  0.6413 -0.4129
  268MOL0     H36175   5.672   8.107   4.490  0.1455  0.7289  0.9778
  268MOL0     H36176   5.896   8.311   4.435  1.4055 -0.7576 -3.6465
  268MOL0     H36177   5.829   8.205   4.330  0.6835 -2.6243 -0.3965
  268MOL0     H36178   6.119   7.942   4.479  0.6659  0.6907  0.0321
  268MOL0     H36179   5.355   8.370   4.607  2.0690  0.7663 -0.2772
  268MOL0     H36180   5.126   8.374   4.699  0.2816 -1.9975 -0.9404
  269MOL0     O36181   3.681   1.772   1.685 -0.5893  0.3081 -0.4620
  269MOL0     C36182   3.729   1.857   1.609  0.4903 -0.6144  0.0785
  269MOL0     O36183   3.654   1.950   1.558  0.2053 -0.2397  0.8737
  269MOL0     C36184   3.523   1.972   1.597  0.2781  0.1208 -0.3416
  269MOL0     C36185   3.492   2.100   1.645  0.2493 -0.0016  0.1925
  269MOL0     C36186   3.358   2.122   1.668 -0.6322 -0.5664  0.3450
  269MOL0     C36187   3.250   2.031   1.649  0.0887 -1.1123 -0.9026
  269MOL0     O36188   3.123   2.093   1.653 -0.3609 -0.6637  0.2180
  269MOL0     C36189   3.009   2.008   1.646  0.4573  0.7434 -0.0642
  269MOL0     C36190   2.888   2.086   1.677 -0.3506 -0.0005  0.1704
  269MOL0     C36191   2.782   1.998   1.731  0.3130 -0.4692  0.2944
  269MOL0     C36192   2.648   2.081   1.752 -1.1987 -0.0565  0.2765
  269MOL0     C36193   2.517   2.005   1.748 -0.8188 -0.2369 -0.3758
  269MOL0     C36194   2.392   2.089   1.767 -0.4363  0.0934  0.7698
  269MOL0     C36195   2.277   1.995   1.738 -0.0648  0.5626 -0.8247
  269MOL0     C36196   2.256   1.960   1.593  0.6111 -0.8483 -0.1911
  269MOL0     N36197   2.166   1.849   1.565 -0.2267 -0.7401 -0.4173
  269MOL0     C36198   2.214   1.716   1.547  0.2956 -0.1230  0.6744
  269MOL0     C36199   2.102   1.646   1.532 -0.9380 -0.6542  0.9434
  269MOL0     C36200   2.105   1.503   1.486 -0.6056  0.3743 -0.2525
  269MOL0     C36201   2.187   1.408   1.579  0.1188  0.7055 -0.4834
  269MOL0     C36202   2.155   1.394   1.722 -0.0489 -0.6845 -0.0133
  269MOL0     C36203   2.004   1.375   1.758  0.2417 -0.0587  0.4341
  269MOL0     O36204   1.962   1.248   1.695 -0.7062  0.1946  0.4626
  269MOL0     C36205   1.834   1.212   1.695  0.1233 -0.7810 -0.2840
  269MOL0     C36206   1.802   1.116   1.609  0.0799  0.3565  0.0687
  269MOL0     C36207   1.670   1.069   1.596 -1.0722  0.5964 -0.2033
  269MOL0     C36208   1.655   0.936   1.510  0.2343 -0.0803  0.6750
  269MOL0     C36209   1.567   1.122   1.679  0.3305 -0.5583 -0.5011
  269MOL0     C36210   1.421   1.082   1.671 -0.8015 -0.5353  0.5507
  269MOL0     O36211   1.330   1.175   1.717  0.1188  0.7120  0.0360
  269MOL0     C36212   1.196   1.146   1.690 -0.0618 -0.7240 -0.4459
  269MOL0     C36213   1.113   1.059   1.763  1.0866 -0.5159 -0.2256
  269MOL0     C36214   0.973   1.046   1.728 -0.3475 -0.1297  0.4886
  269MOL0     C36215   0.907   1.120   1.632  0.3750 -0.8067  0.1262
  269MOL0     O36216   0.773   1.131   1.609  0.2483 -0.7247  0.5609
  269MOL0     C36217   0.682   1.038   1.674  0.0236 -0.0720 -0.1213
  269MOL0     C36218   0.547   1.029   1.599 -0.5174 -0.7312 -0.1950
  269MOL0     C36219   0.453   0.927   1.653 -0.2769 -0.5678 -0.5087
  269MOL0     C36220   0.335   0.885   1.564 -0.2984 -0.3032  0.1724
  269MOL0     C36221   0.225   0.824   1.651 -0.0111  0.7328 -0.6596
  269MOL0     C36222   0.114   0.764   1.559  0.2944 -1.0362  0.6302
  269MOL0     C36223  -0.023   0.796   1.612 -1.2471  0.1585  0.0353
  269MOL0     C36224  -0.125   0.714   1.537  0.2831  0.4743 -0.1576
  269MOL0    Cl36225  -0.134   0.767   1.372  0.2915  0.1163 -0.2608
  269MOL0     C36226   0.990   1.208   1.559 -0.2076 -1.0573 -0.0795
  269MOL0     C36227   1.131   1.227   1.593 -0.5633  0.4669  0.7622
  269MOL0     O36228   1.389   0.981   1.609 -0.0853  0.5134  0.4092
  269MOL0     C36229   1.602   1.221   1.777  0.0984  0.2538 -0.0421
  269MOL0     C36230   1.737   1.269   1.777  0.6327 -0.2537 -1.1798
  269MOL0     N36231   1.993   1.722   1.564  0.3915  0.3765  0.3483
  269MOL0     N36232   2.033   1.840   1.580  0.7082 -0.6103 -0.2221
  269MOL0     C36233   3.284   1.902   1.609  0.5451  0.5818  0.2786
  269MOL0     C36234   3.419   1.875   1.586  0.1507 -0.0459  0.2231
  269MOL0     C36235   3.868   1.862   1.568  0.3880  0.5351  0.1462
  269MOL0     C36236   3.948   1.772   1.642  0.7890  0.8871 -0.2774
  269MOL0     C36237   4.085   1.766   1.616 -0.1965 -0.2253 -0.3909
  269MOL0     C36238   4.139   1.844   1.513 -0.7378  0.2426  0.7367
  269MOL0     O36239   4.274   1.833   1.492 -0.7739 -0.4197 -0.2242
  269MOL0     C36240   4.326   1.696   1.504 -0.0980 -0.5046 -0.4101
  269MOL0     C36241   4.417   1.665   1.389 -0.0722  0.2438  0.1803
  269MOL0     C36242   4.479   1.526   1.407 -0.7152  0.4080  0.4859
  269MOL0     C36243   4.499   1.464   1.271  0.6264 -0.6389 -1.0008
  269MOL0     C36244   4.591   1.353   1.250  0.1450  0.4074 -0.2865
  269MOL0     C36245   4.661   1.259   1.226  0.0015 -0.1377 -0.9018
  269MOL0     C36246   4.066   1.928   1.436 -0.6701  0.5182 -0.1599
  269MOL0     C36247   3.930   1.944   1.469 -0.7171  0.3696  0.2470
  269MOL0     H36248   3.562   2.183   1.655 -0.5204  0.9127 -1.4435
  269MOL0     H36249   3.329   2.224   1.695 -3.3576 -1.1440 -0.0566
  269MOL0     H36250   2.992   1.964   1.547  1.5060 -0.9965  0.4814
  269MOL0     H36251   3.014   1.929   1.722 -1.2211 -1.7880 -2.3915
  269MOL0     H36252   2.920   2.141   1.766  1.8730 -2.9552  1.3704
  269MOL0     H36253   2.866   2.144   1.587 -0.2926 -0.5459 -0.1963
  269MOL0     H36254   2.759   1.923   1.656 -0.6160  0.0688  0.0243
  269MOL0     H36255   2.818   1.962   1.828 -1.1149  1.0224  1.4355
  269MOL0     H36256   2.657   2.131   1.850  1.6747  2.2597 -1.0021
  269MOL0     H36257   2.653   2.164   1.682  1.5876  2.0711  2.7037
  269MOL0     H36258   2.519   1.956   1.650  1.5665 -0.4653 -0.2954
  269MOL0     H36259   2.526   1.924   1.821  3.7673 -0.7393 -1.1619
  269MOL0     H36260   2.390   2.142   1.863  2.0839  0.9377  0.4389
  269MOL0     H36261   2.379   2.168   1.693 -2.6227 -1.0607 -0.1588
  269MOL0     H36262   2.291   1.903   1.794 -0.3659  1.5602  0.9576
  269MOL0     H36263   2.185   2.044   1.771 -2.2938 -3.6584 -0.0835
  269MOL0     H36264   2.353   1.926   1.556  0.9069  1.5993 -1.8737
  269MOL0     H36265   2.219   2.053   1.548  0.0333  0.1369  2.1972
  269MOL0     H36266   2.316   1.682   1.533  0.6734  1.4861 -0.9204
  269MOL0     H36267   2.003   1.467   1.472 -0.1333 -1.0255 -0.2451
  269MOL0     H36268   2.142   1.509   1.384  1.1489  3.7780  0.4553
  269MOL0     H36269   2.294   1.423   1.569  0.0284  0.2093 -2.8081
  269MOL0     H36270   2.179   1.306   1.539  0.1096  0.2922  0.5369
  269MOL0     H36271   2.193   1.477   1.782  1.6239 -1.1372 -0.4013
  269MOL0     H36272   2.210   1.311   1.769 -1.1734 -1.5540 -0.1754
  269MOL0     H36273   1.948   1.454   1.708  0.3183  0.1013  0.6015
  269MOL0     H36274   1.996   1.379   1.867  1.2766  2.3594  0.4771
  269MOL0     H36275   1.881   1.076   1.546 -2.0073 -2.6145 -0.8512
  269MOL0     H36276   1.577   0.967   1.440  1.6546  1.9877 -0.0693
  269MOL0     H36277   1.729   0.914   1.432 -1.9143 -1.4743 -1.0979
  269MOL0     H36278   1.639   0.842   1.564  1.8047 -1.1304 -0.5726
  269MOL0     H36279   1.149   1.003   1.850  3.0466 -2.0395 -1.9043
  269MOL0     H36280   0.912   0.988   1.797  0.4196 -1.7703 -0.1395
  269MOL0     H36281   0.731   0.941   1.683 -1.1698 -0.7117 -0.3456
  269MOL0     H36282   0.658   1.065   1.778 -0.2211  0.6065 -0.3500
  269MOL0     H36283   0.503   1.128   1.583  0.6608 -0.6916 -4.3543
  269MOL0     H36284   0.575   1.006   1.496 -1.0861  2.7382 -1.2482
  269MOL0     H36285   0.423   0.961   1.753  1.2798 -1.2961  0.2321
  269MOL0     H36286   0.515   0.838   1.668  0.8044  0.2155 -0.2018
  269MOL0     H36287   0.296   0.979   1.522 -1.0324  1.2778  3.9555
  269MOL0     H36288   0.374   0.809   1.496  0.6133 -1.2793  1.7327
  269MOL0     H36289   0.184   0.906   1.710  1.0328 -0.4744  1.8707
  269MOL0     H36290   0.252   0.747   1.724 -1.8921 -2.8585 -3.3424
  269MOL0     H36291   0.119   0.818   1.464  2.4566  1.6066  2.0860
  269MOL0     H36292   0.131   0.657   1.543 -0.8915 -0.9345 -1.8391
  269MOL0     H36293  -0.041   0.899   1.580  0.6189  0.0869 -1.4093
  269MOL0     H36294  -0.035   0.781   1.720  0.3521 -3.3230 -0.1488
  269MOL0     H36295  -0.222   0.721   1.586  0.1683  2.4816 -0.5924
  269MOL0     H36296  -0.102   0.607   1.536 -1.7606  0.0024 -1.1320
  269MOL0     H36297   0.952   1.269   1.478  2.1297 -0.8054 -1.0528
  269MOL0     H36298   1.190   1.284   1.523 -0.7895 -2.0889 -1.7225
  269MOL0     H36299   1.522   1.265   1.836 -1.2217  2.2321 -3.0329
  269MOL0     H36300   1.744   1.362   1.833  3.3610  0.3329 -2.3221
  269MOL0     H36301   3.210   1.823   1.599  0.3657  0.6334  1.1212
  269MOL0     H36302   3.447   1.777   1.548  1.0079  0.8680 -1.6437
  269MOL0     H36303   3.908   1.715   1.725 -0.1781  0.0721 -1.2853
  269MOL0     H36304   4.135   1.690   1.676 -1.3011 -1.5863 -1.1134
  269MOL0     H36305   4.371   1.699   1.604 -1.1944  3.2213  0.1064
  269MOL0     H36306   4.250   1.617   1.502 -1.6316  0.9235 -0.4765
  269MOL0     H36307   4.490   1.746   1.381  0.1348 -0.0613 -1.3195
  269MOL0     H36308   4.352   1.668   1.301 -0.4417  0.2381  0.4524
  269MOL0     H36309   4.423   1.455   1.469  0.5345 -0.0140  1.1611
  269MOL0     H36310   4.580   1.539   1.445 -1.4403  1.6976  2.1433
  269MOL0     H36311   4.539   1.542   1.206  3.5727 -1.4099 -0.2533
  269MOL0     H36312   4.398   1.438   1.238 -0.6416  2.2825  0.2783
  269MOL0     H36313   4.730   1.182   1.195 -0.3670 -1.0552  0.4949
  269MOL0     H36314   4.105   1.992   1.358 -0.2572  0.3691 -0.0777
  269MOL0     H36315   3.868   2.011   1.412 -0.0712  0.2181 -0.6499
  270MOL0     O36316   9.491   3.660  10.481  0.7166 -0.5870  0.0541
  270MOL0     C36317   9.528   3.554  10.534  0.1440 -0.1142 -0.2043
  270MOL0     O36318   9.442   3.465  10.602 -0.0850 -0.2765 -0.1790
  270MOL0     C36319   9.305   3.471  10.596 -0.0559  0.4794 -0.3390
  270MOL0     C36320   9.238   3.501  10.480 -0.1886 -0.1991  0.4643
  270MOL0     C36321   9.096   3.506  10.475  0.0135  0.9054  0.6025
  270MOL0     C36322   9.020   3.471  10.587 -0.4230 -0.0787 -0.7127
  270MOL0     O36323   8.882   3.499  10.585 -0.4100  0.6121  0.1579
  270MOL0     C36324   8.796   3.421  10.672  0.0935  0.0792  0.0530
  270MOL0     C36325   8.662   3.435  10.607 -0.8096  0.2498 -0.1184
  270MOL0     C36326   8.542   3.395  10.698 -0.4820  0.0374 -0.1727
  270MOL0     C36327   8.569   3.288  10.804 -0.9871  0.2904  0.0714
  270MOL0     C36328   8.444   3.234  10.879 -0.1040  0.6400 -0.1309
  270MOL0     C36329   8.330   3.191  10.785  0.6905  0.1892 -0.3727
  270MOL0     C36330   8.245   3.091  10.867  0.3032  0.4014 -0.0369
  270MOL0     C36331   8.104   3.076  10.800  0.1401  0.3000  0.9201
  270MOL0     N36332   8.004   3.173  10.839 -1.2972 -0.2037 -0.7924
  270MOL0     C36333   7.989   3.235  10.960 -0.5958 -0.1565 -0.1531
  270MOL0     C36334   7.881   3.312  10.955  0.1482  0.3841 -0.4128
  270MOL0     C36335   7.824   3.403  11.063  0.5185  0.2510  0.2518
  270MOL0     C36336   7.743   3.330  11.168 -0.0331 -0.3487 -0.0781
  270MOL0     C36337   7.659   3.219  11.106  0.0081 -0.0974 -1.2372
  270MOL0     C36338   7.579   3.147  11.208 -0.2660  0.5049 -0.2228
  270MOL0     O36339   7.454   3.218  11.222  0.3392  0.5805  0.9187
  270MOL0     C36340   7.336   3.176  11.166  0.2099 -0.5216 -0.3723
  270MOL0     C36341   7.325   3.086  11.060  0.5207 -0.0349  0.2548
  270MOL0     C36342   7.199   3.036  11.010  0.6838  0.2810  0.5488
  270MOL0     C36343   7.218   2.930  10.900 -0.1617 -0.2085 -1.4497
  270MOL0     C36344   7.076   3.076  11.075 -0.2286  0.1708 -0.7642
  270MOL0     C36345   6.941   3.027  11.037  0.3347  0.0210  0.3958
  270MOL0     O36346   6.828   3.088  11.088  0.1168 -0.1707 -0.0992
  270MOL0     C36347   6.711   3.020  11.066  0.3531  0.0971 -0.2238
  270MOL0     C36348   6.618   3.004  11.167 -0.1636  0.1417 -0.5385
  270MOL0     C36349   6.506   2.919  11.156  0.5021 -0.9775 -0.5379
  270MOL0     C36350   6.477   2.861  11.030  0.1653  0.7802 -1.0908
  270MOL0     O36351   6.368   2.782  11.012  0.4771  0.0702  0.5357
  270MOL0     C36352   6.309   2.728  11.129  0.4197 -0.1307 -0.1242
  270MOL0     C36353   6.185   2.652  11.109  0.0784  0.0238  0.6310
  270MOL0     C36354   6.125   2.604  11.248 -0.1729  0.2721 -0.0497
  270MOL0     C36355   5.984   2.533  11.219  0.4813 -0.0093 -0.4792
  270MOL0     C36356   5.912   2.490  11.347  0.0435 -0.8001 -1.0070
  270MOL0     C36357   5.783   2.422  11.332 -0.4695  0.2622 -0.3879
  270MOL0     C36358   5.709   2.397  11.470 -0.4644  0.0825 -0.0616
  270MOL0     C36359   5.594   2.307  11.467 -0.2395  0.5180 -0.2865
  270MOL0    Cl36360   5.460   2.391  11.380  0.1794  0.0901  0.3780
  270MOL0     C36361   6.555   2.893  10.922 -0.9832  0.5654 -0.8372
  270MOL0     C36362   6.674   2.965  10.943  0.1300 -0.2068  0.0888
  270MOL0     O36363   6.947   2.936  10.959  0.3562  0.0502 -0.2941
  270MOL0     C36364   7.090   3.171  11.182  0.8111 -0.6382 -0.2165
  270MOL0     C36365   7.212   3.219  11.225  0.5119  0.3514  0.0299
  270MOL0     N36366   7.838   3.306  10.824 -0.4754 -0.4831  0.4693
  270MOL0     N36367   7.913   3.221  10.757  0.2808 -0.3776  1.0564
  270MOL0     C36368   9.091   3.424  10.698  0.2258  0.8229 -0.2069
  270MOL0     C36369   9.237   3.420  10.699  0.6025 -0.8477  0.0672
  270MOL0     C36370   9.673   3.535  10.539  0.8087 -0.3964  0.1208
  270MOL0     C36371   9.735   3.417  10.580 -0.3705  0.4224 -0.0240
  270MOL0     C36372   9.873   3.401  10.593  0.2091  0.1097 -0.4555
  270MOL0     C36373   9.960   3.503  10.559  0.1533  0.3269 -0.3503
  270MOL0     O36374  10.098   3.510  10.566  0.3463  0.3078  0.6194
  270MOL0     C36375  10.146   3.392  10.637 -0.6765  0.3837 -0.3707
  270MOL0     C36376  10.301   3.401  10.666  0.1743  0.1361  0.2713
  270MOL0     C36377  10.391   3.416  10.545  1.1634  0.0754 -0.1921
  270MOL0     C36378  10.424   3.566  10.514 -0.1238 -0.1899 -0.9810
  270MOL0     C36379  10.480   3.583  10.376 -0.3251  0.3400 -0.7546
  270MOL0     C36380  10.503   3.605  10.259 -0.2966 -0.0655  0.2024
  270MOL0     C36381   9.902   3.627  10.519 -0.2410 -0.7486 -0.2447
  270MOL0     C36382   9.764   3.637  10.518  0.9850  0.8646  0.5602
  270MOL0     H36383   9.292   3.520  10.387  0.3643 -0.1268  0.7978
  270MOL0     H36384   9.054   3.522  10.376  3.0242  2.8665 -0.5033
  270MOL0     H36385   8.826   3.316  10.688 -3.6165 -0.7145  3.0937
  270MOL0     H36386   8.790   3.467  10.771 -1.2747  0.8519 -0.3634
  270MOL0     H36387   8.646   3.542  10.588 -3.0820 -0.0070  0.1369
  270MOL0     H36388   8.664   3.385  10.510  0.7993 -0.9988  0.4994
  270MOL0     H36389   8.513   3.483  10.755 -0.5412 -1.4024  2.1545
  270MOL0     H36390   8.455   3.365  10.638  0.1734  2.6695 -2.6178
  270MOL0     H36391   8.611   3.201  10.753  0.8282  0.9961  0.3100
  270MOL0     H36392   8.639   3.321  10.881 -1.0746  0.6787 -0.0113
  270MOL0     H36393   8.476   3.154  10.946 -0.4996  2.1058  1.9242
  270MOL0     H36394   8.412   3.312  10.949 -0.6361 -0.2100  0.5997
  270MOL0     H36395   8.275   3.279  10.752 -0.3222 -0.5100 -0.5755
  270MOL0     H36396   8.364   3.135  10.697  2.3794  2.0976 -1.0326
  270MOL0     H36397   8.293   2.993  10.867 -0.6280 -0.2215 -3.6918
  270MOL0     H36398   8.241   3.134  10.967 -1.1801  0.0774  0.0641
  270MOL0     H36399   8.058   2.984  10.840  0.3428  0.9114  2.6463
  270MOL0     H36400   8.101   3.066  10.691  0.6645  2.7665  0.6426
  270MOL0     H36401   8.042   3.230  11.055 -1.8175  2.5452  0.7693
  270MOL0     H36402   7.912   3.445  11.113  1.8095 -3.7736  1.7763
  270MOL0     H36403   7.748   3.471  11.023 -1.5528 -2.7283 -1.2778
  270MOL0     H36404   7.673   3.395  11.221 -1.6658 -0.7766 -1.6327
  270MOL0     H36405   7.818   3.296  11.241 -0.6982  0.9837  1.2889
  270MOL0     H36406   7.725   3.144  11.062  0.6488 -1.8600  2.3664
  270MOL0     H36407   7.593   3.259  11.028  0.4329  1.2383 -0.9359
  270MOL0     H36408   7.628   3.162  11.305 -1.1340  1.1620  0.1253
  270MOL0     H36409   7.563   3.041  11.182  0.2698  0.3635  0.0210
  270MOL0     H36410   7.417   3.050  11.015 -0.0791  0.0798 -1.1031
  270MOL0     H36411   7.169   2.967  10.810  2.1742  4.1574 -1.1652
  270MOL0     H36412   7.323   2.912  10.877  0.1547  0.0534 -0.2761
  270MOL0     H36413   7.185   2.837  10.948 -0.7701  1.1672  0.9464
  270MOL0     H36414   6.629   3.048  11.266 -1.2552 -1.1708  0.2054
  270MOL0     H36415   6.457   2.890  11.248  0.7273 -1.5595 -0.5969
  270MOL0     H36416   6.380   2.672  11.191  0.3417 -2.6019 -2.1477
  270MOL0     H36417   6.271   2.812  11.188 -4.0639 -2.8139  1.2979
  270MOL0     H36418   6.122   2.735  11.074  1.8278  2.0268  1.9315
  270MOL0     H36419   6.191   2.568  11.040  1.4624  0.5802  0.0358
  270MOL0     H36420   6.126   2.682  11.324  1.2338 -1.1497  1.4679
  270MOL0     H36421   6.193   2.529  11.291  0.0790  1.8977  2.5730
  270MOL0     H36422   5.907   2.585  11.162 -1.4025 -2.5956 -0.4574
  270MOL0     H36423   5.992   2.435  11.171 -1.7815 -0.4311 -0.0876
  270MOL0     H36424   5.907   2.583  11.404  1.8623 -1.4564  0.2882
  270MOL0     H36425   5.978   2.423  11.401 -1.5135 -2.0887 -0.6234
  270MOL0     H36426   5.720   2.480  11.265 -1.4307 -0.9754 -0.6036
  270MOL0     H36427   5.790   2.322  11.287 -2.2013 -1.0158  1.9310
  270MOL0     H36428   5.692   2.494  11.516 -0.9906  0.1867 -0.4789
  270MOL0     H36429   5.789   2.346  11.525  0.9601 -1.1057 -3.0278
  270MOL0     H36430   5.615   2.211  11.419  0.8410  2.3731 -3.9140
  270MOL0     H36431   5.570   2.295  11.573 -0.6516 -0.3547 -0.4631
  270MOL0     H36432   6.528   2.850  10.827 -1.5744  1.4228 -1.0690
  270MOL0     H36433   6.747   2.974  10.863 -0.0100 -0.9750 -0.1355
  270MOL0     H36434   7.004   3.212  11.234  1.0877  1.8624 -1.5426
  270MOL0     H36435   7.221   3.291  11.305  1.6861 -1.6222  1.7553
  270MOL0     H36436   9.033   3.408  10.788 -4.9131  0.4742 -3.1419
  270MOL0     H36437   9.286   3.392  10.792  0.0925 -2.2735 -0.0774
  270MOL0     H36438   9.672   3.334  10.609  1.9635 -1.8393 -0.9970
  270MOL0     H36439   9.910   3.302  10.616  0.7489  0.2323 -0.7842
  270MOL0     H36440  10.096   3.384  10.734  2.1307  2.6212  1.4344
  270MOL0     H36441  10.128   3.301  10.579 -1.3114 -2.0571  3.3731
  270MOL0     H36442  10.331   3.311  10.722 -1.5708  0.8859  2.5492
  270MOL0     H36443  10.318   3.484  10.736  2.5135 -1.0810  1.2592
  270MOL0     H36444  10.335   3.363  10.468  1.3464 -0.1973 -0.1394
  270MOL0     H36445  10.488   3.364  10.552  1.1983  0.3430  1.9273
  270MOL0     H36446  10.491   3.606  10.591 -1.1005 -0.6881  0.1543
  270MOL0     H36447  10.332   3.625  10.508  1.7524  2.9159 -1.0765
  270MOL0     H36448  10.512   3.605  10.153  0.2333 -0.3763  0.2433
  270MOL0     H36449   9.964   3.710  10.488 -0.8765 -0.1547  0.0558
  270MOL0     H36450   9.735   3.734  10.479  1.5743  0.2268 -1.6484
  271MOL0     O36451  10.148   6.587   4.356 -0.0781  0.2116  0.8579
  271MOL0     C36452  10.097   6.497   4.283  0.3962 -0.4232  1.3940
  271MOL0     O36453  10.166   6.414   4.213 -0.1612  0.1522 -0.6705
  271MOL0     C36454  10.299   6.390   4.228 -0.0956 -0.3718 -0.9285
  271MOL0     C36455  10.335   6.273   4.161  0.0189 -0.8554 -0.4293
  271MOL0     C36456  10.467   6.234   4.153 -0.3001  0.2599 -0.5210
  271MOL0     C36457  10.575   6.307   4.218  0.0145  0.4406  0.4209
  271MOL0     O36458  10.710   6.285   4.224  0.2225 -0.5593 -0.2524
  271MOL0     C36459  10.754   6.150   4.198  0.5117  0.0459  0.4524
  271MOL0     C36460  10.903   6.156   4.190  0.3034 -0.0796 -0.2948
  271MOL0     C36461  10.965   6.232   4.074  0.5086 -0.6197 -0.4001
  271MOL0     C36462  10.922   6.187   3.938  0.2290  0.3533 -0.2228
  271MOL0     C36463  10.954   6.041   3.899  0.5176 -0.2863 -0.0818
  271MOL0     C36464  10.912   5.996   3.763  0.4411 -0.1178 -0.2404
  271MOL0     C36465  10.761   5.955   3.760  0.7550 -0.6094  0.8150
  271MOL0     C36466  10.715   5.919   3.611  1.3702  0.4860  0.3480
  271MOL0     N36467  10.596   5.836   3.600 -0.4132 -0.0813 -0.0439
  271MOL0     C36468  10.476   5.843   3.668  0.7276 -1.3916  1.6358
  271MOL0     C36469  10.403   5.751   3.605 -0.1924 -1.0898  0.1482
  271MOL0     C36470  10.254   5.728   3.625 -1.7248  0.8910  0.8152
  271MOL0     C36471  10.183   5.811   3.521 -0.5334 -0.5190  0.0503
  271MOL0     C36472  10.201   5.965   3.543 -0.7464  0.0032 -1.0953
  271MOL0     C36473  10.103   6.051   3.450 -0.1446  0.3406 -1.0287
  271MOL0     O36474   9.981   6.059   3.522 -1.2112 -0.4763  0.0558
  271MOL0     C36475   9.859   6.087   3.460 -0.4414 -0.1251  0.1568
  271MOL0     C36476   9.730   6.077   3.522  0.2907 -0.0695  0.5833
  271MOL0     C36477   9.605   6.101   3.462  0.4494 -0.0708  0.2302
  271MOL0     C36478   9.483   6.113   3.544  0.7238 -0.1589 -1.1573
  271MOL0     C36479   9.596   6.127   3.328  0.9045  0.5785 -0.3395
  271MOL0     C36480   9.476   6.134   3.251 -0.8675 -0.4061 -0.2000
  271MOL0     O36481   9.494   6.178   3.121  1.1253  0.4225 -0.1312
  271MOL0     C36482   9.383   6.215   3.047  0.3669  0.1106  0.4455
  271MOL0     C36483   9.274   6.276   3.111  0.2730  0.8549 -0.1001
  271MOL0     C36484   9.158   6.316   3.046 -0.4978  0.3499  0.6985
  271MOL0     C36485   9.136   6.290   2.906  0.9555  1.3122 -0.1365
  271MOL0     O36486   9.022   6.315   2.831  0.3724 -0.2275 -0.2656
  271MOL0     C36487   8.902   6.345   2.902  0.1609 -0.2284 -0.1300
  271MOL0     C36488   8.787   6.306   2.816  0.2036  0.0594 -0.1908
  271MOL0     C36489   8.771   6.375   2.687 -0.2267  1.1038  0.1841
  271MOL0     C36490   8.650   6.334   2.611  0.5503  0.6537  0.4816
  271MOL0     C36491   8.521   6.353   2.674  0.6692  0.0446 -0.1270
  271MOL0     C36492   8.494   6.506   2.705  1.0667 -0.5075  1.4760
  271MOL0     C36493   8.476   6.590   2.578 -0.3560 -0.1102 -0.6231
  271MOL0     C36494   8.388   6.713   2.602 -0.4801 -0.1605  1.0452
  271MOL0    Cl36495   8.217   6.685   2.609 -0.2189  0.0505  0.1016
  271MOL0     C36496   9.252   6.248   2.833 -0.7144 -0.3903 -0.8115
  271MOL0     C36497   9.374   6.209   2.907 -0.1162 -0.3076 -0.0329
  271MOL0     O36498   9.371   6.091   3.296  0.2844  0.1013  0.4167
  271MOL0     C36499   9.722   6.131   3.253  0.6834 -0.0631 -0.7227
  271MOL0     C36500   9.849   6.115   3.321  0.0128  0.0790 -0.6543
  271MOL0     N36501  10.479   5.684   3.506  0.3632 -0.3560 -0.6838
  271MOL0     N36502  10.598   5.731   3.512  0.3328  0.3992 -0.2529
  271MOL0     C36503  10.539   6.425   4.280 -0.1132 -0.3958  0.2144
  271MOL0     C36504  10.400   6.464   4.289  0.0320 -0.4833  1.4434
  271MOL0     C36505   9.948   6.488   4.280  0.2417 -0.4759  0.4993
  271MOL0     C36506   9.876   6.375   4.251 -0.3860 -0.5697  0.3299
  271MOL0     C36507   9.737   6.381   4.230 -0.4780 -0.7444 -0.0733
  271MOL0     C36508   9.660   6.499   4.248 -0.2238  0.1280  0.2375
  271MOL0     O36509   9.527   6.491   4.232 -0.5294  0.4025  0.3028
  271MOL0     C36510   9.439   6.600   4.280 -0.1474 -0.3029 -0.4830
  271MOL0     C36511   9.289   6.565   4.245  0.6899 -0.3176  0.0781
  271MOL0     C36512   9.251   6.419   4.248 -0.7953  0.4490  0.1763
  271MOL0     C36513   9.101   6.402   4.200  0.2113  0.8210  0.3951
  271MOL0     C36514   9.082   6.453   4.069 -0.7322 -0.6607  0.3914
  271MOL0     C36515   9.078   6.512   3.963  0.1246 -0.2580 -0.2323
  271MOL0     C36516   9.732   6.617   4.278 -0.5068  0.2357  0.2104
  271MOL0     C36517   9.877   6.606   4.294  0.6919 -0.6157 -1.5357
  271MOL0     H36518  10.255   6.213   4.118 -1.5776  0.4390  0.6198
  271MOL0     H36519  10.483   6.146   4.091 -0.0589 -0.6091  0.7185
  271MOL0     H36520  10.733   6.089   4.287 -1.8975 -1.5249 -1.0823
  271MOL0     H36521  10.715   6.109   4.105 -1.4987  0.6345  0.9808
  271MOL0     H36522  10.935   6.200   4.285  0.1144 -0.6417  0.0373
  271MOL0     H36523  10.952   6.058   4.192  2.2380  0.8408 -0.7651
  271MOL0     H36524  10.940   6.338   4.087 -0.4654 -0.6145 -2.0974
  271MOL0     H36525  11.073   6.216   4.074  0.4288 -1.1607 -0.7233
  271MOL0     H36526  10.813   6.192   3.933  0.1704 -1.2270 -1.5379
  271MOL0     H36527  10.973   6.246   3.861  0.6136 -0.7614 -0.8520
  271MOL0     H36528  11.062   6.031   3.908  0.7510 -0.3749 -2.4251
  271MOL0     H36529  10.901   5.979   3.972  0.9822 -0.6256 -0.0343
  271MOL0     H36530  10.928   6.077   3.692 -0.9121 -0.1163 -0.5801
  271MOL0     H36531  10.971   5.909   3.731  1.6139 -0.5871  2.8396
  271MOL0     H36532  10.738   5.877   3.834  0.6064 -0.5479  0.8335
  271MOL0     H36533  10.699   6.039   3.793  2.1063  0.8474 -0.2029
  271MOL0     H36534  10.798   5.872   3.559 -0.1466  0.9044 -2.6240
  271MOL0     H36535  10.687   6.012   3.560  1.9380  2.4378  3.3151
  271MOL0     H36536  10.441   5.919   3.738 -0.7423  1.1196 -1.5407
  271MOL0     H36537  10.237   5.620   3.617  0.8802  0.4967 -0.4334
  271MOL0     H36538  10.230   5.759   3.727 -0.8323  1.4460  0.8670
  271MOL0     H36539  10.077   5.784   3.522  0.0090 -2.9370 -0.8624
  271MOL0     H36540  10.220   5.785   3.422  0.4571 -1.8201  0.7330
  271MOL0     H36541  10.305   5.992   3.526 -0.8207  0.8539 -0.2793
  271MOL0     H36542  10.180   5.985   3.648  0.3632 -0.2764 -0.8089
  271MOL0     H36543  10.085   6.008   3.351 -0.5052 -0.9714 -0.4162
  271MOL0     H36544  10.143   6.153   3.442 -1.0197  0.8555  0.6130
  271MOL0     H36545   9.718   6.044   3.625 -1.1076 -1.1538  0.1063
  271MOL0     H36546   9.424   6.021   3.545 -2.8794  1.9702 -0.9132
  271MOL0     H36547   9.517   6.140   3.644  0.6177  0.4101 -1.2750
  271MOL0     H36548   9.417   6.195   3.516 -0.1511 -0.3078  0.3963
  271MOL0     H36549   9.267   6.297   3.217 -1.5098  1.9119 -0.3821
  271MOL0     H36550   9.086   6.368   3.108  1.7498  1.7374  2.2666
  271MOL0     H36551   8.895   6.280   2.989 -3.6707 -0.5993 -0.5755
  271MOL0     H36552   8.890   6.451   2.926 -1.4440 -0.8046  1.7986
  271MOL0     H36553   8.797   6.198   2.805 -1.5158  0.0784 -2.6735
  271MOL0     H36554   8.695   6.327   2.871 -1.1753 -0.2767 -2.2480
  271MOL0     H36555   8.860   6.348   2.629 -1.7728 -1.9236 -1.0017
  271MOL0     H36556   8.770   6.483   2.700  0.4064  0.8696  2.7150
  271MOL0     H36557   8.645   6.382   2.513 -0.8549 -2.8317 -1.3563
  271MOL0     H36558   8.665   6.226   2.596  1.1632  1.0917 -2.9999
  271MOL0     H36559   8.515   6.283   2.758  1.9503  0.8198  0.6474
  271MOL0     H36560   8.443   6.315   2.608  0.4408  4.3659 -2.7682
  271MOL0     H36561   8.396   6.499   2.754 -0.0763 -0.4515 -0.6824
  271MOL0     H36562   8.583   6.544   2.756  1.3659  0.2858  0.4164
  271MOL0     H36563   8.416   6.531   2.508 -1.4079  0.9211 -0.6147
  271MOL0     H36564   8.572   6.616   2.531 -0.9776 -1.2919 -2.6912
  271MOL0     H36565   8.398   6.777   2.514 -0.4196 -3.5396 -1.6299
  271MOL0     H36566   8.426   6.756   2.695  0.1891  0.9859  0.2679
  271MOL0     H36567   9.258   6.219   2.729  1.6523 -1.5785 -0.4045
  271MOL0     H36568   9.448   6.151   2.854  0.1581  1.3016 -1.4785
  271MOL0     H36569   9.736   6.158   3.149  0.5652  1.4878 -0.3652
  271MOL0     H36570   9.941   6.123   3.264  0.1796  0.5207 -0.3292
  271MOL0     H36571  10.620   6.481   4.326  0.2979 -1.1498  0.4265
  271MOL0     H36572  10.381   6.554   4.347 -0.7197 -0.7095  1.5519
  271MOL0     H36573   9.921   6.283   4.214 -3.2869 -1.4549 -1.3134
  271MOL0     H36574   9.690   6.287   4.202  1.9595 -1.3017 -2.8353
  271MOL0     H36575   9.457   6.622   4.385  1.5090  1.3980 -1.0575
  271MOL0     H36576   9.467   6.688   4.221 -0.0796 -0.0722 -0.1111
  271MOL0     H36577   9.281   6.599   4.142 -1.1382  2.4185  1.0040
  271MOL0     H36578   9.231   6.629   4.312  0.8162 -1.2890  1.1587
  271MOL0     H36579   9.262   6.378   4.349 -1.1536 -2.2121 -0.7856
  271MOL0     H36580   9.321   6.367   4.183 -3.3685 -0.6860 -1.8877
  271MOL0     H36581   9.034   6.446   4.275  0.4727  0.0652  1.0953
  271MOL0     H36582   9.087   6.294   4.193  1.8259  0.6848 -1.5707
  271MOL0     H36583   9.072   6.569   3.872 -0.6208  0.1455  0.0659
  271MOL0     H36584   9.683   6.712   4.299 -0.7142  0.2596 -0.3599
  271MOL0     H36585   9.925   6.694   4.336 -1.4692  0.0931 -0.4221
  272MOL0     O36586   0.027   4.289   3.562  0.4373  0.3664  0.0990
  272MOL0     C36587  -0.029   4.368   3.640 -0.5233  1.4255 -0.8647
  272MOL0     O36588   0.030   4.442   3.737  0.2157  0.1083 -0.2894
  272MOL0     C36589   0.166   4.417   3.777  0.3148  0.6043 -0.3904
  272MOL0     C36590   0.274   4.430   3.690 -0.1216 -0.5149 -0.0120
  272MOL0     C36591   0.404   4.398   3.732 -0.2221 -0.3431 -0.0809
  272MOL0     C36592   0.422   4.341   3.859  0.5884  0.3993  0.5942
  272MOL0     O36593   0.550   4.298   3.881 -0.5536 -0.1851 -0.9030
  272MOL0     C36594   0.567   4.264   4.020 -0.2148  0.4077  1.3201
  272MOL0     C36595   0.710   4.240   4.060  0.2018 -0.7196  0.0411
  272MOL0     C36596   0.796   4.365   4.003 -0.4901  0.2878 -0.1289
  272MOL0     C36597   0.935   4.367   4.055 -1.1007  0.1106 -1.1370
  272MOL0     C36598   1.015   4.497   4.012 -0.3908 -0.4049  0.0009
  272MOL0     C36599   0.965   4.619   4.087 -0.3637  1.2809 -0.0799
  272MOL0     C36600   1.060   4.736   4.051  0.0120 -0.1793 -0.5573
  272MOL0     C36601   1.110   4.763   3.913  0.6800 -0.4982 -0.3918
  272MOL0     N36602   1.197   4.882   3.913 -0.3349  0.5079 -0.0374
  272MOL0     C36603   1.156   5.005   3.963 -0.5855  0.4282  1.3057
  272MOL0     C36604   1.244   5.094   3.906  0.7170  0.4829 -0.1068
  272MOL0     C36605   1.229   5.243   3.924  0.1762 -0.0079  0.2951
  272MOL0     C36606   1.194   5.318   3.796  0.3879 -0.5743  0.2915
  272MOL0     C36607   1.175   5.468   3.819  0.0604  0.5316  1.2069
  272MOL0     C36608   1.056   5.504   3.905 -0.2047  0.1045  0.5422
  272MOL0     O36609   0.941   5.424   3.866  0.0490 -0.7680  0.0205
  272MOL0     C36610   0.815   5.458   3.910  0.3579 -0.0791  0.0252
  272MOL0     C36611   0.780   5.516   4.035  0.4557 -0.1715 -0.6389
  272MOL0     C36612   0.650   5.565   4.065 -0.1683 -0.3628  0.4344
  272MOL0     C36613   0.625   5.623   4.204 -0.9421 -0.1226  0.0184
  272MOL0     C36614   0.550   5.541   3.972 -0.2705  0.8164 -0.5881
  272MOL0     C36615   0.408   5.584   3.983  0.2029  0.5703 -0.6865
  272MOL0     O36616   0.335   5.576   3.878  0.0335  0.0649 -0.7859
  272MOL0     C36617   0.198   5.595   3.884  0.8164 -0.2931  0.8219
  272MOL0     C36618   0.117   5.483   3.900  0.4637  0.2528  0.0619
  272MOL0     C36619  -0.021   5.497   3.907 -0.0147  0.3633  0.0349
  272MOL0     C36620  -0.080   5.618   3.895  0.1914 -1.0811 -0.1130
  272MOL0     O36621  -0.213   5.649   3.881 -0.7078 -0.5844  0.2630
  272MOL0     C36622  -0.303   5.539   3.869 -0.4479 -0.4062 -0.1717
  272MOL0     C36623  -0.441   5.592   3.863  0.3185 -0.2957 -0.2774
  272MOL0     C36624  -0.550   5.507   3.915  0.1446 -1.0450  0.0662
  272MOL0     C36625  -0.686   5.544   3.833  0.2211 -0.0325  0.3984
  272MOL0     C36626  -0.798   5.462   3.891  0.0253  0.6842  0.2787
  272MOL0     C36627  -0.930   5.471   3.803 -0.8568 -0.0597 -0.5408
  272MOL0     C36628  -1.034   5.367   3.841 -0.6236  0.2547  0.0262
  272MOL0     C36629  -1.178   5.411   3.802 -0.4035 -0.3569  0.6066
  272MOL0    Cl36630  -1.230   5.564   3.893  0.4266  0.1073  0.1097
  272MOL0     C36631  -0.003   5.739   3.883  0.1475  0.0980 -0.0117
  272MOL0     C36632   0.136   5.725   3.874  0.5928 -0.1469  1.0809
  272MOL0     O36633   0.360   5.627   4.089 -0.5352 -0.8514 -0.2723
  272MOL0     C36634   0.585   5.467   3.853 -0.5003  0.1858 -0.1003
  272MOL0     C36635   0.710   5.432   3.821 -0.7544  0.3909  0.2222
  272MOL0     N36636   1.327   5.021   3.827 -0.3264  0.4692  0.7092
  272MOL0     N36637   1.307   4.897   3.835  0.0200 -0.2494  0.3915
  272MOL0     C36638   0.309   4.331   3.940  0.0347  1.1325  0.0894
  272MOL0     C36639   0.183   4.367   3.903  0.1794  0.2338  0.5924
  272MOL0     C36640  -0.172   4.372   3.635  0.1078 -0.2940  0.6880
  272MOL0     C36641  -0.249   4.444   3.727 -0.3511  0.6097  0.1584
  272MOL0     C36642  -0.386   4.454   3.717  0.1771 -0.6993 -0.2322
  272MOL0     C36643  -0.460   4.377   3.629 -0.2440 -0.2192 -0.3001
  272MOL0     O36644  -0.595   4.377   3.621  0.1296  0.3059  0.5661
  272MOL0     C36645  -0.684   4.488   3.665 -0.2671 -0.5681  0.2370
  272MOL0     C36646  -0.821   4.466   3.611  0.2621 -0.3865 -0.4640
  272MOL0     C36647  -0.931   4.412   3.695  1.0320 -0.3806 -0.1016
  272MOL0     C36648  -0.976   4.506   3.808 -0.4853  0.7374 -0.1782
  272MOL0     C36649  -1.108   4.458   3.848 -1.0612 -0.0459 -0.3286
  272MOL0     C36650  -1.219   4.411   3.853  0.3457 -0.8988 -0.0821
  272MOL0     C36651  -0.388   4.289   3.544 -0.1221  0.0320  0.0685
  272MOL0     C36652  -0.247   4.299   3.540 -0.2861  0.0276  0.2623
  272MOL0     H36653   0.258   4.471   3.591 -2.2214  1.8769  1.2227
  272MOL0     H36654   0.485   4.394   3.660 -1.0680  1.4875 -1.1985
  272MOL0     H36655   0.532   4.345   4.085  0.9789  1.7772  0.3161
  272MOL0     H36656   0.510   4.174   4.044  0.3835  0.0707  1.5106
  272MOL0     H36657   0.704   4.248   4.169 -4.3350  0.5476 -0.0660
  272MOL0     H36658   0.750   4.141   4.035  4.8036  0.5887  1.2915
  272MOL0     H36659   0.796   4.362   3.894 -1.9155 -0.7464 -0.1214
  272MOL0     H36660   0.747   4.458   4.031 -1.6627 -0.4491  0.3215
  272MOL0     H36661   0.934   4.336   4.160 -1.8836 -1.0738 -1.4819
  272MOL0     H36662   0.995   4.288   4.011  2.2137  0.8176  1.6926
  272MOL0     H36663   1.122   4.487   4.035 -0.1938  2.4680  0.6611
  272MOL0     H36664   0.986   4.506   3.907 -1.2774 -0.0365  0.2725
  272MOL0     H36665   0.864   4.653   4.062 -0.9377 -0.2366  0.0936
  272MOL0     H36666   0.968   4.591   4.192  1.1287 -2.6249 -1.0009
  272MOL0     H36667   1.005   4.817   4.100 -0.5441 -1.8073  1.6696
  272MOL0     H36668   1.147   4.720   4.116 -1.2083  0.2772  1.2683
  272MOL0     H36669   1.024   4.769   3.846 -1.5905  0.7363  2.4164
  272MOL0     H36670   1.161   4.674   3.875 -1.7368 -2.4536  0.6736
  272MOL0     H36671   1.074   5.025   4.032 -1.3112 -0.8795  0.8537
  272MOL0     H36672   1.145   5.262   3.992  0.8136  0.2160  1.0457
  272MOL0     H36673   1.325   5.279   3.965 -0.3049  0.0939  1.3625
  272MOL0     H36674   1.096   5.287   3.757 -0.3123  1.4247  0.3691
  272MOL0     H36675   1.267   5.296   3.718  0.1731 -3.4426  0.7777
  272MOL0     H36676   1.164   5.513   3.720  2.0825 -2.1865 -0.3807
  272MOL0     H36677   1.262   5.515   3.865  2.4803 -0.4655 -2.0337
  272MOL0     H36678   1.037   5.611   3.895 -0.0533  0.2290  1.4759
  272MOL0     H36679   1.091   5.480   4.006  0.6594 -2.7399 -0.3210
  272MOL0     H36680   0.860   5.521   4.109  2.0403  1.4799 -2.3531
  272MOL0     H36681   0.585   5.725   4.199 -3.0307 -0.9015 -0.3003
  272MOL0     H36682   0.551   5.556   4.250 -2.8602  0.5979 -1.8410
  272MOL0     H36683   0.713   5.638   4.267  0.2872  1.2492 -1.9313
  272MOL0     H36684   0.155   5.381   3.907 -3.2987 -1.4485 -1.3871
  272MOL0     H36685  -0.083   5.408   3.897 -1.6452  1.6587 -2.8531
  272MOL0     H36686  -0.290   5.470   3.785 -2.7667 -0.8656 -0.2189
  272MOL0     H36687  -0.303   5.471   3.955 -0.8734 -0.7312 -0.4241
  272MOL0     H36688  -0.442   5.690   3.912  0.7179  0.7119 -2.1671
  272MOL0     H36689  -0.464   5.622   3.760  0.1192  0.9246  0.1049
  272MOL0     H36690  -0.569   5.520   4.021 -0.3592 -1.2378  0.0039
  272MOL0     H36691  -0.526   5.400   3.906  3.9653 -0.3617  0.4362
  272MOL0     H36692  -0.703   5.651   3.851  3.5309  0.3674  1.9600
  272MOL0     H36693  -0.664   5.526   3.728 -0.1613 -3.9058  0.8407
  272MOL0     H36694  -0.818   5.489   3.995  0.3278 -2.0882  1.1563
  272MOL0     H36695  -0.771   5.356   3.883  0.1159  0.7114  0.2193
  272MOL0     H36696  -0.965   5.574   3.808 -0.1665  0.1249  1.4750
  272MOL0     H36697  -0.902   5.465   3.698 -0.5580  1.7299 -0.5868
  272MOL0     H36698  -1.019   5.347   3.947 -1.0676 -0.3272 -0.0148
  272MOL0     H36699  -1.017   5.276   3.782  0.5255 -0.0458  0.8034
  272MOL0     H36700  -1.250   5.333   3.829  0.1624 -0.4755  1.8549
  272MOL0     H36701  -1.185   5.433   3.695 -2.0052 -2.1111  0.2925
  272MOL0     H36702  -0.059   5.831   3.869 -0.9736 -0.8717 -2.5996
  272MOL0     H36703   0.206   5.807   3.862  0.5948 -0.2590  0.2780
  272MOL0     H36704   0.507   5.465   3.778 -1.6765  0.5564  1.0827
  272MOL0     H36705   0.735   5.384   3.727 -1.8590 -0.0476  0.1380
  272MOL0     H36706   0.329   4.288   4.037 -0.8051 -1.2303 -0.7236
  272MOL0     H36707   0.101   4.358   3.974 -0.1848 -0.0689  0.1442
  272MOL0     H36708  -0.194   4.495   3.806 -1.1021 -1.2788  1.9753
  272MOL0     H36709  -0.437   4.524   3.782  0.5948  1.8378 -2.4480
  272MOL0     H36710  -0.674   4.507   3.773  0.3367  1.7660 -0.1874
  272MOL0     H36711  -0.650   4.582   3.621  0.9799 -1.7630 -1.4963
  272MOL0     H36712  -0.808   4.392   3.532  1.4215 -0.4784 -0.2002
  272MOL0     H36713  -0.846   4.564   3.568 -2.2770 -0.2613  1.0626
  272MOL0     H36714  -0.894   4.314   3.725  2.1121  0.4564  1.4490
  272MOL0     H36715  -1.012   4.376   3.632  0.4151 -0.3320  0.6431
  272MOL0     H36716  -0.987   4.608   3.770 -1.4564  1.4657  1.8572
  272MOL0     H36717  -0.911   4.506   3.896 -1.9931 -0.8709  1.0220
  272MOL0     H36718  -1.316   4.367   3.853  0.1809 -0.5600  0.9213
  272MOL0     H36719  -0.439   4.236   3.464 -0.5383  1.1248 -0.4159
  272MOL0     H36720  -0.192   4.242   3.465 -0.6484 -1.6349  1.1932
  273MOL0     O36721   8.587   9.801   9.788  0.0245  0.1019 -0.3648
  273MOL0     C36722   8.678   9.801   9.875  0.5930 -0.5428 -0.7941
  273MOL0     O36723   8.650   9.816  10.011 -0.2597 -0.4236  0.4928
  273MOL0     C36724   8.539   9.788  10.076 -0.2816  0.7945  0.2916
  273MOL0     C36725   8.527   9.857  10.201 -0.2377  0.0804  0.3933
  273MOL0     C36726   8.417   9.838  10.282 -0.7312 -0.8842  0.1604
  273MOL0     C36727   8.314   9.760  10.242  0.8446  0.6042 -0.5191
  273MOL0     O36728   8.199   9.739  10.316 -0.1141 -0.3862  0.1454
  273MOL0     C36729   8.101   9.842  10.306  0.6757  0.2672 -0.5964
  273MOL0     C36730   7.967   9.794  10.369  1.5511  0.6496 -0.0426
  273MOL0     C36731   7.848   9.879  10.317 -0.3947 -0.6137  0.6485
  273MOL0     C36732   7.723   9.823  10.361 -0.3710  0.4733  0.3290
  273MOL0     C36733   7.612   9.916  10.315  0.5632 -0.1535  0.4029
  273MOL0     C36734   7.473   9.883  10.378 -0.3572 -0.3806  1.1348
  273MOL0     C36735   7.357   9.977  10.343  0.2842  0.3578  0.1149
  273MOL0     C36736   7.230   9.937  10.427 -1.3394  0.2407  0.1105
  273MOL0     N36737   7.118  10.009  10.391 -0.2657 -0.2953 -0.0655
  273MOL0     C36738   7.099  10.136  10.397 -0.5556  0.7518  0.9766
  273MOL0     C36739   6.972  10.158  10.359  0.1675  0.8580  0.6549
  273MOL0     C36740   6.896  10.291  10.331  0.2936 -0.7493  0.3691
  273MOL0     C36741   6.809  10.357  10.441  0.0046  0.6024  1.7287
  273MOL0     C36742   6.678  10.273  10.464 -0.0852  0.3635 -0.4072
  273MOL0     C36743   6.580  10.340  10.568  0.0602  1.1529 -0.3283
  273MOL0     O36744   6.527  10.467  10.525 -0.6822 -0.1431  0.9928
  273MOL0     C36745   6.404  10.480  10.464  0.5691 -0.4534  0.9173
  273MOL0     C36746   6.332  10.371  10.418  0.4105 -0.1248  0.4991
  273MOL0     C36747   6.194  10.390  10.369 -1.0354 -0.2968  0.1216
  273MOL0     C36748   6.123  10.269  10.317  0.2840  0.3083 -0.8101
  273MOL0     C36749   6.137  10.520  10.362 -1.2920 -0.6353 -0.0195
  273MOL0     C36750   5.993  10.540  10.319 -0.3444  0.7311 -1.1182
  273MOL0     O36751   5.904  10.435  10.326 -0.2166  0.3855 -0.9905
  273MOL0     C36752   5.803  10.441  10.237 -0.4423 -0.9205  0.0385
  273MOL0     C36753   5.675  10.408  10.278 -0.7561  0.6755  0.7529
  273MOL0     C36754   5.562  10.403  10.187 -0.1654  0.1352  0.6412
  273MOL0     C36755   5.584  10.442  10.056 -0.1216 -0.2189  0.1544
  273MOL0     O36756   5.471  10.442   9.976  0.8721 -0.3166 -0.0228
  273MOL0     C36757   5.460  10.560   9.890  0.5786 -0.3164  0.4104
  273MOL0     C36758   5.433  10.690   9.961  1.0068  0.5050 -0.4706
  273MOL0     C36759   5.305  10.678  10.050  0.1144 -0.6828 -0.4283
  273MOL0     C36760   5.178  10.723   9.977 -0.5892 -0.8696 -0.5157
  273MOL0     C36761   5.067  10.771  10.070  0.0270 -1.3202 -0.4872
  273MOL0     C36762   4.949  10.816   9.991 -0.0385 -0.4945  0.2426
  273MOL0     C36763   4.828  10.833  10.083 -0.8944  0.0375  0.1732
  273MOL0     C36764   4.714  10.891   9.998 -0.5460 -0.2616 -0.0541
  273MOL0    Cl36765   4.647  10.773   9.871 -0.1327 -0.3040 -0.2534
  273MOL0     C36766   5.715  10.483  10.018 -0.5718 -0.5856  0.2931
  273MOL0     C36767   5.824  10.483  10.104  0.1556  0.4394  0.2513
  273MOL0     O36768   5.967  10.658  10.289 -0.5950  0.3570  0.9211
  273MOL0     C36769   6.228  10.620  10.402  0.4343  0.3263 -0.4267
  273MOL0     C36770   6.352  10.598  10.465  0.2710 -0.7791 -0.7584
  273MOL0     N36771   6.912  10.037  10.338 -0.1381 -0.3880  0.3255
  273MOL0     N36772   7.003   9.946  10.352 -0.2282 -0.0061  0.5501
  273MOL0     C36773   8.316   9.691  10.120 -0.9993 -0.3581  0.3192
  273MOL0     C36774   8.427   9.710  10.038 -0.7209 -0.0066  0.1907
  273MOL0     C36775   8.823   9.798   9.836 -0.1775  0.3563  0.2876
  273MOL0     C36776   8.863   9.765   9.703 -0.0928 -0.6239 -0.2931
  273MOL0     C36777   8.995   9.785   9.675 -0.4394 -0.9550 -0.1455
  273MOL0     C36778   9.093   9.835   9.769  0.2481 -0.4634 -0.6469
  273MOL0     O36779   9.222   9.878   9.727 -0.3671  0.0950  0.0949
  273MOL0     C36780   9.275   9.791   9.631 -0.3875  0.5574 -0.5440
  273MOL0     C36781   9.429   9.764   9.659  0.0505  0.3250  0.2886
  273MOL0     C36782   9.467   9.626   9.720 -0.2775  0.4744  0.1973
  273MOL0     C36783   9.390   9.510   9.657 -0.0386 -0.0701  0.8845
  273MOL0     C36784   9.461   9.391   9.664  1.0420  0.2069 -0.2062
  273MOL0     C36785   9.527   9.291   9.665  0.1436  0.9249 -0.6050
  273MOL0     C36786   9.046   9.857   9.899 -0.1646  0.7753  0.4845
  273MOL0     C36787   8.916   9.836   9.930 -0.1050  0.1539 -0.4278
  273MOL0     H36788   8.604   9.926  10.234 -0.6974  0.2410  1.1435
  273MOL0     H36789   8.415   9.873  10.385 -3.4723 -1.4786  0.4041
  273MOL0     H36790   8.142   9.925  10.363  1.1523  0.3446 -1.0417
  273MOL0     H36791   8.085   9.870  10.202  0.2683 -0.2382 -0.6774
  273MOL0     H36792   7.964   9.686  10.350  0.8443  0.3345  1.7116
  273MOL0     H36793   7.972   9.809  10.477 -1.9171  0.4512  0.2710
  273MOL0     H36794   7.863   9.977  10.363  0.4489 -0.1788 -0.5053
  273MOL0     H36795   7.860   9.896  10.210 -0.5607 -0.7197  0.6112
  273MOL0     H36796   7.713   9.716  10.337 -0.3083  0.6787 -0.6691
  273MOL0     H36797   7.723   9.824  10.470  0.1221  0.0421  0.3397
  273MOL0     H36798   7.632  10.020  10.340  1.3257  0.5038 -2.5596
  273MOL0     H36799   7.617   9.911  10.205  2.4519  2.0224  0.3180
  273MOL0     H36800   7.443   9.784  10.343 -0.4906 -0.5112  1.6198
  273MOL0     H36801   7.499   9.878  10.484  0.3822  3.4128  1.2620
  273MOL0     H36802   7.381  10.080  10.372  1.1939  0.6105 -1.4460
  273MOL0     H36803   7.336   9.962  10.237  0.0889 -0.5527  0.2769
  273MOL0     H36804   7.254   9.949  10.533 -1.3332 -0.2038  0.1596
  273MOL0     H36805   7.208   9.830  10.417  1.7833 -0.2908 -5.2281
  273MOL0     H36806   7.169  10.216  10.418  1.3372 -0.8554  1.0385
  273MOL0     H36807   6.967  10.372  10.311 -0.5910  0.0858  0.4986
  273MOL0     H36808   6.829  10.280  10.245  1.2023 -2.9824 -0.1312
  273MOL0     H36809   6.788  10.461  10.413 -1.3117 -0.3583 -1.2744
  273MOL0     H36810   6.867  10.363  10.534  2.5149 -0.5328  0.3377
  273MOL0     H36811   6.721  10.183  10.509  2.5894  1.6634 -0.2315
  273MOL0     H36812   6.622  10.271  10.369  0.9694  1.6557 -1.0932
  273MOL0     H36813   6.630  10.352  10.665 -0.1073  0.0150 -0.0803
  273MOL0     H36814   6.506  10.268  10.604  1.3747  1.4049  3.2850
  273MOL0     H36815   6.373  10.271  10.426 -1.6849 -0.9862  1.2648
  273MOL0     H36816   6.188  10.183  10.304 -1.1304 -1.2144  1.6084
  273MOL0     H36817   6.044  10.245  10.388  1.6638 -0.4051  0.5287
  273MOL0     H36818   6.079  10.293  10.219 -0.0874 -0.1750 -0.7631
  273MOL0     H36819   5.655  10.367  10.377  2.7558 -0.4378  1.1516
  273MOL0     H36820   5.458  10.380  10.208 -1.9642  3.4124 -3.4439
  273MOL0     H36821   5.540  10.557   9.815 -0.9077 -2.2973 -1.2130
  273MOL0     H36822   5.365  10.542   9.838  0.5346 -0.2164  0.4576
  273MOL0     H36823   5.516  10.714  10.028  2.1733  1.1147 -2.0818
  273MOL0     H36824   5.430  10.779   9.898 -2.6117  1.7476  1.1453
  273MOL0     H36825   5.318  10.730  10.146 -2.4773  2.6894 -1.7037
  273MOL0     H36826   5.288  10.573  10.077  1.1495 -0.7725 -0.0580
  273MOL0     H36827   5.194  10.804   9.905 -1.1928  1.3637  1.7256
  273MOL0     H36828   5.144  10.637   9.918  0.2793 -2.0546  0.6558
  273MOL0     H36829   5.100  10.861  10.123  0.2358 -1.6953  0.0254
  273MOL0     H36830   5.053  10.706  10.156 -0.1168 -0.2995  0.2837
  273MOL0     H36831   4.984  10.912   9.954 -0.3685  0.1631  1.5783
  273MOL0     H36832   4.933  10.753   9.903 -0.0093 -2.2646  1.4280
  273MOL0     H36833   4.842  10.901  10.167 -2.3186  0.5152  0.0657
  273MOL0     H36834   4.808  10.733  10.122  0.5366  0.4068  1.9766
  273MOL0     H36835   4.749  10.987   9.958  1.9873  0.2297  2.9429
  273MOL0     H36836   4.625  10.913  10.059 -0.5120  0.4207 -0.2425
  273MOL0     H36837   5.734  10.516   9.916 -1.7945  0.9230  0.5152
  273MOL0     H36838   5.920  10.510  10.062 -1.4895  1.8821 -2.9361
  273MOL0     H36839   6.188  10.720  10.390 -0.9279 -0.1844 -0.3123
  273MOL0     H36840   6.414  10.680  10.501  0.8754 -1.3139 -0.5833
  273MOL0     H36841   8.232   9.628  10.090 -2.4644  1.7647 -0.2738
  273MOL0     H36842   8.435   9.668   9.938 -0.9842  1.6152 -0.5572
  273MOL0     H36843   8.792   9.732   9.629 -1.2128 -0.6966  0.7907
  273MOL0     H36844   9.023   9.768   9.572  0.7386 -0.6868  0.1189
  273MOL0     H36845   9.219   9.698   9.630 -1.5323  1.1560  1.5504
  273MOL0     H36846   9.268   9.839   9.533  2.4699  1.3139 -0.4629
  273MOL0     H36847   9.468   9.841   9.726 -2.3986  1.1461  0.8886
  273MOL0     H36848   9.485   9.769   9.565  1.6546  0.9674  1.2356
  273MOL0     H36849   9.468   9.627   9.829  2.8091 -1.0396  0.3167
  273MOL0     H36850   9.571   9.616   9.688 -0.2381  1.0929  0.1338
  273MOL0     H36851   9.362   9.531   9.553 -0.2084  1.4660  1.2239
  273MOL0     H36852   9.292   9.486   9.700 -0.2416 -0.5296  0.1964
  273MOL0     H36853   9.599   9.212   9.672  0.3938  1.2076  5.1078
  273MOL0     H36854   9.118   9.885   9.975 -0.4682  0.1818  1.0005
  273MOL0     H36855   8.872   9.868  10.024 -0.2914  0.0758 -0.4867
  274MOL0     O36856   1.161   7.782   8.126  1.0969  0.0092  0.1571
  274MOL0     C36857   1.140   7.709   8.223  1.1304 -0.5636 -0.3873
  274MOL0     O36858   1.016   7.671   8.267  0.0124 -0.6522  0.1570
  274MOL0     C36859   0.896   7.667   8.196  0.2227 -0.6620 -0.3101
  274MOL0     C36860   0.886   7.682   8.058 -0.3519 -0.2614  0.6147
  274MOL0     C36861   0.759   7.658   8.007  0.2613  0.2707  0.0906
  274MOL0     C36862   0.641   7.629   8.082  0.1135  0.2302 -0.4106
  274MOL0     O36863   0.518   7.615   8.018 -0.0413 -0.4801  0.8080
  274MOL0     C36864   0.409   7.566   8.085 -0.6070  0.1398 -0.0744
  274MOL0     C36865   0.285   7.579   8.005 -0.4198 -0.7145  0.1861
  274MOL0     C36866   0.176   7.518   8.081 -0.3681 -0.1757  0.3158
  274MOL0     C36867   0.045   7.528   8.011  0.5792  0.6144  0.3658
  274MOL0     C36868  -0.058   7.436   8.091 -0.6650 -0.0114 -0.6384
  274MOL0     C36869  -0.184   7.438   8.013 -0.2598 -0.7393 -0.3793
  274MOL0     C36870  -0.294   7.367   8.087 -0.2474  0.0633  0.4587
  274MOL0     C36871  -0.285   7.220   8.060 -0.3573  0.2204 -0.3541
  274MOL0     N36872  -0.403   7.148   8.098  0.2798  0.1357  0.0474
  274MOL0     C36873  -0.416   7.085   8.217  0.8869  0.1370 -0.4230
  274MOL0     C36874  -0.545   7.045   8.214 -0.5300  0.0027 -0.8272
  274MOL0     C36875  -0.617   6.967   8.319 -0.7622 -0.5943 -0.1291
  274MOL0     C36876  -0.533   6.839   8.355 -0.0767 -0.1416  0.8466
  274MOL0     C36877  -0.618   6.758   8.445 -0.2967  0.6584 -0.1626
  274MOL0     C36878  -0.540   6.628   8.459  0.3575  0.1907  0.7100
  274MOL0     O36879  -0.449   6.637   8.572 -0.1277  0.6833 -0.0223
  274MOL0     C36880  -0.313   6.637   8.554  0.2664 -0.2655 -1.2989
  274MOL0     C36881  -0.242   6.645   8.676 -0.1555  0.4948  0.1891
  274MOL0     C36882  -0.100   6.640   8.673 -0.3016  0.0797  0.9126
  274MOL0     C36883  -0.031   6.623   8.812 -0.3249  0.8195 -0.4775
  274MOL0     C36884  -0.028   6.637   8.539  0.2037 -0.1778 -0.2397
  274MOL0     C36885   0.120   6.616   8.527  0.1358  0.2443 -0.1489
  274MOL0     O36886   0.168   6.572   8.408 -0.1432 -0.6191 -0.0455
  274MOL0     C36887   0.298   6.611   8.386 -0.4580  0.2713 -0.1351
  274MOL0     C36888   0.310   6.694   8.287  0.8309  0.2973  0.1066
  274MOL0     C36889   0.439   6.733   8.244 -0.1410  0.4429 -0.4715
  274MOL0     C36890   0.557   6.691   8.300 -0.6590  0.6010  0.3965
  274MOL0     O36891   0.665   6.728   8.231 -0.8071 -0.1094  0.0372
  274MOL0     C36892   0.794   6.674   8.266  0.3166 -0.1868 -0.3841
  274MOL0     C36893   0.858   6.743   8.389 -0.2184  0.3089  1.0851
  274MOL0     C36894   0.993   6.682   8.411 -0.1517  0.2030 -0.5215
  274MOL0     C36895   1.096   6.782   8.476  0.0724  0.0608 -0.3256
  274MOL0     C36896   1.239   6.724   8.489  0.3926 -1.0138  0.4440
  274MOL0     C36897   1.346   6.783   8.401 -0.1744 -0.0990  0.7129
  274MOL0     C36898   1.327   6.737   8.257 -0.3306 -0.2098 -0.5361
  274MOL0     C36899   1.396   6.820   8.151 -0.1485  0.2573 -0.3745
  274MOL0    Cl36900   1.286   6.960   8.131  0.0588 -0.1159  0.1026
  274MOL0     C36901   0.542   6.602   8.402  0.6585  0.9690  0.6967
  274MOL0     C36902   0.411   6.554   8.445  0.0696  0.3226  0.2721
  274MOL0     O36903   0.186   6.617   8.627 -0.0970  0.2988 -0.7105
  274MOL0     C36904  -0.103   6.644   8.426  0.2681 -0.1812 -0.0342
  274MOL0     C36905  -0.239   6.643   8.432  0.0934 -0.5415 -0.1795
  274MOL0     N36906  -0.603   7.093   8.099 -0.5024 -0.3391  0.4315
  274MOL0     N36907  -0.519   7.147   8.028  0.4976 -0.1986 -0.1901
  274MOL0     C36908   0.663   7.631   8.221  0.3186 -1.1441 -0.5689
  274MOL0     C36909   0.785   7.634   8.281 -0.7254 -0.2354  1.2993
  274MOL0     C36910   1.248   7.676   8.308  0.6735  0.1610  0.1762
  274MOL0     C36911   1.382   7.694   8.254  0.5303  0.3764  0.4514
  274MOL0     C36912   1.490   7.660   8.327 -0.6110  0.4595  0.6760
  274MOL0     C36913   1.486   7.614   8.459 -0.2222  0.2435 -0.2024
  274MOL0     O36914   1.593   7.601   8.547  0.0977 -0.3165 -0.9135
  274MOL0     C36915   1.724   7.645   8.507  0.2357 -0.8056 -1.0302
  274MOL0     C36916   1.740   7.804   8.504  0.5132  0.4645  0.4373
  274MOL0     C36917   1.725   7.879   8.634 -0.8053  0.3944  0.1352
  274MOL0     C36918   1.661   8.015   8.617  0.2467 -0.7721 -0.2265
  274MOL0     C36919   1.520   7.991   8.631  0.3244 -0.2698 -0.8037
  274MOL0     C36920   1.401   7.960   8.641 -0.6565 -1.0866  0.3545
  274MOL0     C36921   1.359   7.578   8.504  0.1097  0.0757 -0.2361
  274MOL0     C36922   1.240   7.611   8.436  1.0146  1.0873  0.6716
  274MOL0     H36923   0.974   7.711   8.002 -1.5352 -1.7355 -2.2227
  274MOL0     H36924   0.752   7.648   7.900 -0.8912 -0.3122  0.1985
  274MOL0     H36925   0.425   7.458   8.099 -3.1775 -0.6155 -2.2040
  274MOL0     H36926   0.399   7.614   8.182 -1.0720 -0.5582  0.2334
  274MOL0     H36927   0.259   7.685   7.992  0.7125 -0.3891  0.4195
  274MOL0     H36928   0.302   7.530   7.909  1.3357  0.6873 -0.2902
  274MOL0     H36929   0.199   7.412   8.092 -1.5582 -0.3424  1.4205
  274MOL0     H36930   0.170   7.548   8.186  0.8394 -1.4932  0.8014
  274MOL0     H36931  -0.003   7.625   7.996 -0.9361 -0.5208 -2.9788
  274MOL0     H36932   0.045   7.471   7.918 -6.5251 -3.3801  2.0155
  274MOL0     H36933  -0.026   7.335   8.121 -0.4694  0.0761 -0.5482
  274MOL0     H36934  -0.072   7.487   8.187  0.4660  1.9269 -1.4593
  274MOL0     H36935  -0.223   7.540   8.015 -0.2496 -0.6892 -1.9239
  274MOL0     H36936  -0.167   7.403   7.911  1.1834 -0.5481 -0.2108
  274MOL0     H36937  -0.282   7.382   8.195  0.6490 -2.4781  0.7741
  274MOL0     H36938  -0.385   7.421   8.058 -0.1256  0.3691  0.6423
  274MOL0     H36939  -0.190   7.178   8.094 -0.4955  0.1889 -0.0074
  274MOL0     H36940  -0.272   7.207   7.952  3.4865 -0.4842  0.0584
  274MOL0     H36941  -0.346   7.066   8.298 -0.3259  3.9295  1.7839
  274MOL0     H36942  -0.634   7.029   8.407  1.2572 -0.2936  0.1082
  274MOL0     H36943  -0.717   6.948   8.280 -0.8461  1.1561 -0.9063
  274MOL0     H36944  -0.435   6.868   8.394  0.5864 -1.3822  0.1720
  274MOL0     H36945  -0.512   6.788   8.261 -0.9136  0.2043  0.4588
  274MOL0     H36946  -0.711   6.720   8.401  0.5333 -1.9254  0.1137
  274MOL0     H36947  -0.629   6.809   8.541  0.6763  2.6243 -1.0554
  274MOL0     H36948  -0.494   6.602   8.364 -1.3534  0.9232 -0.3502
  274MOL0     H36949  -0.613   6.548   8.473 -1.5722  1.4283 -1.6258
  274MOL0     H36950  -0.300   6.645   8.768  1.0791 -2.1522  1.0644
  274MOL0     H36951   0.058   6.685   8.827 -0.4875  0.5035  2.4541
  274MOL0     H36952  -0.108   6.645   8.888 -1.4195 -1.9185 -0.7059
  274MOL0     H36953  -0.013   6.517   8.830 -1.7955  0.8741  1.7789
  274MOL0     H36954   0.225   6.734   8.233  1.1921  1.4953  0.3979
  274MOL0     H36955   0.446   6.803   8.162  0.1361 -0.3473 -1.1296
  274MOL0     H36956   0.775   6.567   8.278  0.6645 -0.3872 -1.4679
  274MOL0     H36957   0.862   6.685   8.181  1.8596  0.9446  0.9280
  274MOL0     H36958   0.866   6.849   8.366  0.1328 -0.0917 -0.8209
  274MOL0     H36959   0.792   6.725   8.474  0.0492 -1.6527  0.9264
  274MOL0     H36960   1.037   6.649   8.317  0.5441  0.0702 -0.1582
  274MOL0     H36961   0.980   6.590   8.469  0.5165 -0.3415 -1.2186
  274MOL0     H36962   1.093   6.878   8.424  2.7185  0.6924  0.5302
  274MOL0     H36963   1.067   6.803   8.580 -1.3623  1.8407 -1.0272
  274MOL0     H36964   1.229   6.617   8.468 -1.8788 -0.5984 -0.9199
  274MOL0     H36965   1.259   6.743   8.594 -2.4664 -0.1081  0.9324
  274MOL0     H36966   1.352   6.892   8.406  2.7125 -0.0472 -1.3298
  274MOL0     H36967   1.442   6.740   8.432 -0.9809 -1.3733  1.5495
  274MOL0     H36968   1.222   6.743   8.230 -1.1393  0.2546  2.3140
  274MOL0     H36969   1.356   6.633   8.242  0.0681 -0.0683 -0.7751
  274MOL0     H36970   1.402   6.760   8.059  0.6111  2.1806 -1.6543
  274MOL0     H36971   1.498   6.847   8.180 -0.4945  2.0643 -0.7270
  274MOL0     H36972   0.627   6.557   8.452  0.3009  0.1251  0.5747
  274MOL0     H36973   0.404   6.472   8.516 -2.0089 -0.1596 -0.4331
  274MOL0     H36974  -0.050   6.634   8.332  2.0934  0.6127  0.8765
  274MOL0     H36975  -0.290   6.658   8.337  0.7427  1.4911 -0.2354
  274MOL0     H36976   0.580   7.625   8.291  0.1872 -1.6148 -0.7608
  274MOL0     H36977   0.797   7.628   8.388 -0.8293 -1.9123  1.2403
  274MOL0     H36978   1.403   7.724   8.151 -0.7093  2.3960  0.7316
  274MOL0     H36979   1.586   7.682   8.282  0.4850  0.8077  3.0257
  274MOL0     H36980   1.800   7.606   8.575 -0.3581 -0.4789 -0.1550
  274MOL0     H36981   1.751   7.610   8.408 -1.9623 -0.3853 -1.8372
  274MOL0     H36982   1.660   7.842   8.439 -1.1849  2.8772  3.6238
  274MOL0     H36983   1.837   7.836   8.466 -0.5182 -0.2370 -3.2329
  274MOL0     H36984   1.824   7.904   8.673 -0.7223  0.6807 -0.2594
  274MOL0     H36985   1.675   7.813   8.705  2.6519 -0.5714  1.8837
  274MOL0     H36986   1.679   8.057   8.518 -1.2189 -2.3584 -1.2285
  274MOL0     H36987   1.693   8.095   8.684 -0.0293  1.4981 -2.6580
  274MOL0     H36988   1.297   7.935   8.638 -0.9769  0.1686  0.8264
  274MOL0     H36989   1.356   7.518   8.594 -1.0736 -1.6539 -1.3665
  274MOL0     H36990   1.143   7.591   8.480  0.0304  0.2234 -1.6920
  275MOL0     O36991   1.119   5.932  10.284  0.3277 -0.2001  0.2258
  275MOL0     C36992   1.008   5.919  10.336 -0.6411  0.3506 -0.6066
  275MOL0     O36993   0.892   5.974  10.289 -0.4453  0.3122 -0.7324
  275MOL0     C36994   0.909   6.072  10.198  0.4597  0.2112 -0.5320
  275MOL0     C36995   0.965   6.198  10.225  1.2063  0.0895 -0.3426
  275MOL0     C36996   0.963   6.306  10.133  0.3530 -0.0135  0.1462
  275MOL0     C36997   0.921   6.272  10.000  0.0771 -0.4303 -0.2797
  275MOL0     O36998   0.918   6.370   9.901 -0.3303  0.2017 -0.9764
  275MOL0     C36999   1.009   6.481   9.907  0.7364  0.7960  0.7587
  275MOL0     C37000   1.139   6.434   9.834  0.1378 -0.1787 -0.1060
  275MOL0     C37001   1.248   6.541   9.831 -0.0768  0.0740 -0.0885
  275MOL0     C37002   1.375   6.483   9.758  0.6183 -0.0510 -0.2791
  275MOL0     C37003   1.462   6.421   9.859 -0.4611 -0.5701  0.0426
  275MOL0     C37004   1.584   6.345   9.804 -0.7394  1.2934  0.1530
  275MOL0     C37005   1.675   6.437   9.713  0.2188 -0.1380  0.3104
  275MOL0     C37006   1.801   6.365   9.663  0.1353 -0.4296  0.3949
  275MOL0     N37007   1.877   6.469   9.583  0.6368  0.0854  0.7056
  275MOL0     C37008   1.869   6.477   9.447  0.4011  0.2411  0.4304
  275MOL0     C37009   1.951   6.574   9.410  0.7094 -0.4049  0.6245
  275MOL0     C37010   1.981   6.620   9.266  0.2586  0.3252  0.9434
  275MOL0     C37011   1.856   6.710   9.213  0.4019 -0.1546 -0.1611
  275MOL0     C37012   1.820   6.826   9.308 -0.6508 -0.1271 -0.1876
  275MOL0     C37013   1.704   6.904   9.253 -0.3138 -0.2876 -0.0178
  275MOL0     O37014   1.593   6.820   9.222  0.2179  0.1645  0.0365
  275MOL0     C37015   1.492   6.874   9.154  0.4021 -0.1844 -0.5272
  275MOL0     C37016   1.396   6.789   9.096 -0.5869 -0.0870  0.3251
  275MOL0     C37017   1.283   6.843   9.026 -0.6597 -0.2297 -0.7000
  275MOL0     C37018   1.187   6.734   8.971 -0.5441  0.9408 -0.4884
  275MOL0     C37019   1.275   6.984   9.015 -0.2667 -0.1696 -0.7955
  275MOL0     C37020   1.168   7.059   8.937  0.5819  0.5677 -0.3806
  275MOL0     O37021   1.165   7.195   8.941  0.2742  0.2422  0.3845
  275MOL0     C37022   1.097   7.245   8.837  0.5856 -0.3718 -0.2336
  275MOL0     C37023   0.959   7.255   8.845  0.4836  0.1618 -0.0346
  275MOL0     C37024   0.900   7.312   8.727  0.2594 -1.2596 -0.3231
  275MOL0     C37025   0.970   7.341   8.606  0.5271  0.5350  0.0362
  275MOL0     O37026   0.888   7.381   8.501 -0.1283  0.3144 -0.0246
  275MOL0     C37027   0.903   7.301   8.383  0.6632  0.6978  0.7155
  275MOL0     C37028   0.862   7.156   8.399  0.1207  0.5812  1.2562
  275MOL0     C37029   0.710   7.136   8.428 -0.4218  0.3257  0.3612
  275MOL0     C37030   0.617   7.142   8.302 -0.2806 -0.1242  0.1981
  275MOL0     C37031   0.465   7.151   8.338 -0.2957 -0.7363  0.5399
  275MOL0     C37032   0.375   7.098   8.220  0.2970 -0.2873  0.1252
  275MOL0     C37033   0.226   7.103   8.259 -0.4341  0.3928 -0.3901
  275MOL0     C37034   0.173   7.019   8.373 -0.7107  0.6504 -0.2376
  275MOL0    Cl37035   0.008   6.984   8.335  0.0708 -0.3324  0.0946
  275MOL0     C37036   1.108   7.307   8.600  0.1133 -0.7327  0.1249
  275MOL0     C37037   1.172   7.263   8.716  0.1619  0.5012  0.5802
  275MOL0     O37038   1.102   6.988   8.868  0.2001  0.2906  0.1768
  275MOL0     C37039   1.372   7.069   9.071 -0.1852 -0.6012 -0.6017
  275MOL0     C37040   1.479   7.016   9.141  0.7058  0.1359  0.8500
  275MOL0     N37041   2.012   6.630   9.520  0.0014  0.4779 -0.0571
  275MOL0     N37042   1.967   6.564   9.625  0.4778  0.4023 -1.2251
  275MOL0     C37043   0.857   6.154   9.974 -0.0196  0.0898  0.0782
  275MOL0     C37044   0.854   6.063  10.071 -0.3470 -0.5814 -0.7656
  275MOL0     C37045   0.998   5.846  10.467  0.2313 -0.7648  0.1854
  275MOL0     C37046   0.872   5.792  10.500  0.4788  0.6163  0.6602
  275MOL0     C37047   0.852   5.724  10.629  0.5690 -0.5107  0.1142
  275MOL0     C37048   0.960   5.700  10.711  0.2583  0.0754  0.6875
  275MOL0     O37049   0.950   5.631  10.830 -0.2491 -0.4775 -0.7877
  275MOL0     C37050   0.826   5.570  10.879 -0.4998 -1.3127  0.1014
  275MOL0     C37051   0.834   5.487  10.999  1.1597 -0.8057 -0.3254
  275MOL0     C37052   0.896   5.353  10.979 -0.1135  0.1679  0.0396
  275MOL0     C37053   0.927   5.267  11.103  0.6597 -0.2403 -0.4989
  275MOL0     C37054   0.982   5.139  11.059  0.6349  0.2860 -0.2062
  275MOL0     C37055   1.041   5.042  11.021 -0.6828  0.4751  0.9850
  275MOL0     C37056   1.088   5.744  10.671  0.4168  0.0353 -0.0196
  275MOL0     C37057   1.108   5.818  10.556 -0.5842 -0.4975  0.0017
  275MOL0     H37058   1.001   6.232  10.321  0.1375  4.5982 -1.2995
  275MOL0     H37059   1.014   6.395  10.168  2.3123 -1.2504  0.6006
  275MOL0     H37060   0.962   6.571   9.866 -1.7145  0.2114  2.0479
  275MOL0     H37061   1.032   6.513  10.009  0.7435 -1.7211  1.6148
  275MOL0     H37062   1.179   6.344   9.882  0.5916 -0.6377 -1.3081
  275MOL0     H37063   1.118   6.399   9.732 -1.0348 -0.0660  0.0790
  275MOL0     H37064   1.211   6.627   9.774 -0.5008 -0.6065 -0.8611
  275MOL0     H37065   1.261   6.578   9.933 -0.2871  2.4283 -0.8544
  275MOL0     H37066   1.346   6.405   9.687  0.0969 -1.1638  1.0936
  275MOL0     H37067   1.413   6.566   9.698 -2.9991  0.4102 -2.1910
  275MOL0     H37068   1.501   6.505   9.918 -0.7309 -0.7915  0.5404
  275MOL0     H37069   1.402   6.356   9.922 -2.5231  1.0772 -0.0953
  275MOL0     H37070   1.645   6.296   9.880  1.0363  3.9231  0.5783
  275MOL0     H37071   1.535   6.272   9.739 -4.0705  2.3129  1.3576
  275MOL0     H37072   1.611   6.471   9.632  0.3230 -1.4872 -0.3763
  275MOL0     H37073   1.699   6.528   9.769 -0.6101  0.0559  0.3551
  275MOL0     H37074   1.770   6.279   9.602 -1.2106  0.4077 -0.1569
  275MOL0     H37075   1.870   6.343   9.745  0.1442 -0.9479  0.2517
  275MOL0     H37076   1.817   6.417   9.373  0.7288 -0.1516  0.5155
  275MOL0     H37077   2.075   6.677   9.274  0.4609  0.6731 -2.3324
  275MOL0     H37078   2.001   6.534   9.200 -0.0763 -0.8688  2.3600
  275MOL0     H37079   1.769   6.652   9.180 -0.0082  0.3314  0.0541
  275MOL0     H37080   1.886   6.764   9.123  2.2491  0.3388  0.7087
  275MOL0     H37081   1.910   6.884   9.329  0.0867 -1.4328  0.3913
  275MOL0     H37082   1.792   6.789   9.408  0.0997  4.2048  1.8445
  275MOL0     H37083   1.732   6.967   9.167 -2.0963  0.1257 -0.3358
  275MOL0     H37084   1.673   6.976   9.330  2.3927 -0.7510  1.6323
  275MOL0     H37085   1.413   6.682   9.101 -1.7207 -0.3779 -1.1793
  275MOL0     H37086   1.228   6.638   9.004  2.2522  2.4623  0.7967
  275MOL0     H37087   1.081   6.740   8.996 -1.3396  1.8792 -3.6564
  275MOL0     H37088   1.179   6.736   8.862  2.3230  2.5696 -0.7695
  275MOL0     H37089   0.916   7.233   8.942 -0.2521 -0.7430 -0.5456
  275MOL0     H37090   0.792   7.323   8.721  0.4343  1.9311  0.2271
  275MOL0     H37091   0.845   7.344   8.301 -0.2375  1.4180  1.6967
  275MOL0     H37092   1.004   7.308   8.342  0.6307  3.1767  0.9000
  275MOL0     H37093   0.908   7.096   8.321  0.6990  3.4435 -0.7954
  275MOL0     H37094   0.914   7.123   8.489  1.2546  1.3648  0.9135
  275MOL0     H37095   0.683   7.223   8.489 -1.8540  0.9805 -1.1036
  275MOL0     H37096   0.705   7.039   8.478  1.8706 -0.1430 -0.2097
  275MOL0     H37097   0.638   7.229   8.240  1.4218 -0.2744  0.5188
  275MOL0     H37098   0.629   7.048   8.246 -0.2241  0.0370 -0.0607
  275MOL0     H37099   0.448   7.256   8.360  0.4861 -0.1894 -1.3076
  275MOL0     H37100   0.442   7.101   8.433 -2.5111  0.9220  0.9593
  275MOL0     H37101   0.398   7.160   8.133  0.0568  1.0205  0.9590
  275MOL0     H37102   0.401   6.993   8.203  1.4006 -0.1184  0.7152
  275MOL0     H37103   0.174   7.067   8.170 -1.6746 -1.1832  0.9047
  275MOL0     H37104   0.181   7.201   8.272 -0.9506  0.3421 -1.6248
  275MOL0     H37105   0.172   7.077   8.466  1.9674  2.5820 -1.2934
  275MOL0     H37106   0.226   6.926   8.393 -3.5682 -0.6440  2.0747
  275MOL0     H37107   1.150   7.326   8.502  1.2014  1.9973  1.0185
  275MOL0     H37108   1.277   7.239   8.714 -0.2961 -1.8573  1.6898
  275MOL0     H37109   1.356   7.176   9.064  0.3405 -0.4722  0.0616
  275MOL0     H37110   1.548   7.084   9.190 -0.0552 -0.5679  3.0290
  275MOL0     H37111   0.806   6.138   9.879  1.4536  1.7585 -1.0676
  275MOL0     H37112   0.810   5.966  10.050  1.4460 -1.5486 -0.2641
  275MOL0     H37113   0.790   5.813  10.433  1.3882 -1.4397 -1.1956
  275MOL0     H37114   0.749   5.701  10.656 -0.6419 -0.4263 -3.8126
  275MOL0     H37115   0.750   5.642  10.911  0.8344 -0.4698  1.6108
  275MOL0     H37116   0.784   5.508  10.800  0.1110 -3.6825  1.5493
  275MOL0     H37117   0.729   5.475  11.028  0.8911 -0.1809 -1.0104
  275MOL0     H37118   0.882   5.544  11.079 -2.3756  1.6990  0.2580
  275MOL0     H37119   0.992   5.365  10.928  1.2178 -0.6929  2.2002
  275MOL0     H37120   0.827   5.295  10.917 -2.1383  1.0112  1.3733
  275MOL0     H37121   0.835   5.239  11.156  1.7628 -2.2869  0.4322
  275MOL0     H37122   0.995   5.324  11.167  0.7601  0.9106 -1.5884
  275MOL0     H37123   1.099   4.959  10.988 -1.1465 -0.3607  2.2177
  275MOL0     H37124   1.171   5.716  10.736 -2.0377 -2.3181  2.3534
  275MOL0     H37125   1.209   5.839  10.521 -1.1143 -1.9510 -2.7780
  276MOL0     O37126   0.220   9.804   2.461  0.5135  0.2176  0.3934
  276MOL0     C37127   0.260   9.912   2.428 -0.0471 -1.2578  0.5268
  276MOL0     O37128   0.185  10.004   2.356  0.3254 -0.0639  0.5402
  276MOL0     C37129   0.089   9.952   2.260 -0.7119 -0.2041 -0.5146
  276MOL0     C37130   0.090   9.818   2.211 -0.6758  1.1809  0.0469
  276MOL0     C37131  -0.020   9.772   2.142 -0.1382  0.5654 -0.4835
  276MOL0     C37132  -0.123   9.859   2.096 -0.1126  0.1124 -0.7587
  276MOL0     O37133  -0.238   9.832   2.034 -0.4364  0.5005  0.6270
  276MOL0     C37134  -0.268   9.690   2.009  0.2920  0.4270 -0.1397
  276MOL0     C37135  -0.399   9.666   2.081  0.1359  0.2190 -0.1846
  276MOL0     C37136  -0.460   9.526   2.046 -0.3512 -0.2306  0.2005
  276MOL0     C37137  -0.533   9.542   1.905  0.8451  0.0967  0.3293
  276MOL0     C37138  -0.620   9.420   1.857 -0.5602 -0.4397  0.3752
  276MOL0     C37139  -0.741   9.387   1.945  0.6278  0.2545 -0.5768
  276MOL0     C37140  -0.830   9.281   1.879  0.9185  0.3899 -0.1616
  276MOL0     C37141  -0.904   9.332   1.748  0.1913  0.6184  0.3077
  276MOL0     N37142  -1.010   9.235   1.702 -0.4774 -0.6005 -0.2366
  276MOL0     C37143  -1.026   9.168   1.587  0.7883 -0.0572  0.3005
  276MOL0     C37144  -1.138   9.090   1.602  0.5147  0.2148  0.0656
  276MOL0     C37145  -1.201   8.995   1.511  0.2643  0.4753  0.9375
  276MOL0     C37146  -1.357   9.021   1.482  0.4889  0.0051 -0.1326
  276MOL0     C37147  -1.407   8.916   1.387  0.8839 -0.3930 -0.2863
  276MOL0     C37148  -1.558   8.948   1.365 -0.0624  0.7049  0.7884
  276MOL0     O37149  -1.602   8.873   1.250 -0.7553  0.2273  0.5607
  276MOL0     C37150  -1.733   8.872   1.213  1.3130 -0.3977  0.0384
  276MOL0     C37151  -1.842   8.940   1.285 -0.3249 -0.1819  0.3242
  276MOL0     C37152  -1.971   8.954   1.220 -0.7310 -0.3739  0.5372
  276MOL0     C37153  -2.056   9.059   1.267 -0.2679  0.1711  0.7242
  276MOL0     C37154  -2.005   8.880   1.099  0.1134 -0.9786 -0.2425
  276MOL0     C37155  -2.137   8.891   1.033  0.3387  1.2926  0.3006
  276MOL0     O37156  -2.140   8.857   0.899  0.3421 -0.3656  0.2162
  276MOL0     C37157  -2.253   8.871   0.827 -1.3028 -0.3122  0.6245
  276MOL0     C37158  -2.386   8.835   0.866 -0.6860 -0.4906 -0.4959
  276MOL0     C37159  -2.497   8.849   0.779  0.1909 -0.2051 -0.1359
  276MOL0     C37160  -2.478   8.897   0.644 -0.0070  0.9187  0.2743
  276MOL0     O37161  -2.584   8.888   0.546 -0.7617  0.4946  0.3790
  276MOL0     C37162  -2.720   8.867   0.591  0.1334 -0.2256  0.2758
  276MOL0     C37163  -2.824   8.884   0.482 -0.6128  0.2010  0.6837
  276MOL0     C37164  -2.948   8.802   0.517 -0.4794  0.7168  0.7724
  276MOL0     C37165  -3.057   8.825   0.413  0.6041  0.3215 -0.7879
  276MOL0     C37166  -3.192   8.752   0.450 -0.5168 -0.4937  0.4072
  276MOL0     C37167  -3.290   8.731   0.336  0.6107  0.7960  0.8226
  276MOL0     C37168  -3.403   8.647   0.388  0.1534 -0.2221  0.0014
  276MOL0     C37169  -3.540   8.642   0.318  1.1065 -0.1393  0.0377
  276MOL0    Cl37170  -3.637   8.530   0.404 -0.1585 -0.5425 -0.4159
  276MOL0     C37171  -2.349   8.939   0.610 -0.9627  0.2702  0.1590
  276MOL0     C37172  -2.236   8.931   0.699  0.3343  0.5817  0.2598
  276MOL0     O37173  -2.243   8.901   1.098  0.3531 -0.4364 -0.1843
  276MOL0     C37174  -1.905   8.810   1.040 -0.1529  0.4650  0.5130
  276MOL0     C37175  -1.771   8.808   1.096 -1.0528 -0.0249  0.2792
  276MOL0     N37176  -1.175   9.096   1.737  0.5168  0.1843 -0.2517
  276MOL0     N37177  -1.112   9.195   1.788 -0.0121  0.4279 -0.4201
  276MOL0     C37178  -0.120   9.987   2.139 -0.2796  0.1621  0.0627
  276MOL0     C37179  -0.022  10.031   2.229  0.0243 -0.4386 -0.4913
  276MOL0     C37180   0.399   9.941   2.460  0.0282  0.3987 -1.0444
  276MOL0     C37181   0.488   9.832   2.503 -0.4605 -0.5533  0.2497
  276MOL0     C37182   0.617   9.864   2.538  0.3579 -0.4184 -0.6050
  276MOL0     C37183   0.662   9.995   2.531 -0.2861 -0.5873  0.4399
  276MOL0     O37184   0.786  10.023   2.583 -0.9154  0.3257 -0.1178
  276MOL0     C37185   0.887  10.084   2.499 -0.6960 -0.3637 -0.0778
  276MOL0     C37186   0.965   9.986   2.413 -0.1338 -0.9971  0.2250
  276MOL0     C37187   1.050   9.871   2.482  0.0632 -0.4871  0.0103
  276MOL0     C37188   1.144   9.925   2.591 -0.0883  0.3396  0.4661
  276MOL0     C37189   1.215   9.816   2.667 -0.1160 -0.0915  0.9349
  276MOL0     C37190   1.277   9.729   2.725 -0.3074  0.3194  0.7401
  276MOL0     C37191   0.577  10.100   2.484 -0.2853 -0.2142 -0.2287
  276MOL0     C37192   0.444  10.070   2.446  0.3071 -1.0386  0.0754
  276MOL0     H37193   0.173   9.752   2.235 -0.6072  1.2894  0.1105
  276MOL0     H37194  -0.019   9.673   2.097 -0.3739  1.7266 -3.2175
  276MOL0     H37195  -0.278   9.675   1.901  1.0743  0.7936 -0.2663
  276MOL0     H37196  -0.194   9.616   2.040 -0.3193 -0.8719 -1.6627
  276MOL0     H37197  -0.375   9.663   2.188 -3.1157  0.5773  0.6867
  276MOL0     H37198  -0.468   9.751   2.080 -0.3916 -0.1549  1.4259
  276MOL0     H37199  -0.374   9.460   2.032 -1.7452 -1.9464 -0.6059
  276MOL0     H37200  -0.520   9.492   2.130 -0.2727 -1.2324 -0.1372
  276MOL0     H37201  -0.591   9.635   1.902 -0.3871 -0.5988  1.7152
  276MOL0     H37202  -0.450   9.554   1.835  2.2929  0.0067  1.9724
  276MOL0     H37203  -0.645   9.438   1.752  1.3384 -0.4642 -0.1226
  276MOL0     H37204  -0.551   9.336   1.865 -3.9694 -3.4333  0.3185
  276MOL0     H37205  -0.704   9.345   2.039 -0.5142  1.0738  0.2719
  276MOL0     H37206  -0.805   9.476   1.954  2.4096  1.6383 -1.0392
  276MOL0     H37207  -0.775   9.188   1.865 -1.5848 -1.5490  1.7557
  276MOL0     H37208  -0.904   9.246   1.952  0.0184  2.5436  0.0592
  276MOL0     H37209  -0.835   9.348   1.665 -0.4434 -0.6719 -0.4955
  276MOL0     H37210  -0.943   9.433   1.767  4.2283  2.1687  1.4647
  276MOL0     H37211  -0.984   9.183   1.488  1.4453  1.9565  0.8366
  276MOL0     H37212  -1.142   9.001   1.420  3.5762 -0.5196  2.8471
  276MOL0     H37213  -1.200   8.894   1.553 -1.6154 -1.3018 -2.8023
  276MOL0     H37214  -1.376   9.124   1.447  3.5894  1.1348  1.1906
  276MOL0     H37215  -1.405   9.014   1.580  0.1140  1.4030 -0.1850
  276MOL0     H37216  -1.391   8.817   1.430  1.3047  0.5690  1.9525
  276MOL0     H37217  -1.356   8.923   1.291  0.4760  0.1429 -0.4672
  276MOL0     H37218  -1.567   9.053   1.339  2.2355  0.6787 -0.2938
  276MOL0     H37219  -1.611   8.929   1.460  0.8543 -0.8314  1.0375
  276MOL0     H37220  -1.818   9.017   1.357 -1.4817  2.0442 -1.5410
  276MOL0     H37221  -1.998   9.134   1.321  1.5873 -0.9808  0.4168
  276MOL0     H37222  -2.108   9.106   1.182  1.1333 -2.3355 -1.6630
  276MOL0     H37223  -2.129   9.009   1.332 -1.5602  1.0406 -0.0027
  276MOL0     H37224  -2.393   8.782   0.960 -1.0726  3.5129  1.9530
  276MOL0     H37225  -2.595   8.817   0.813 -1.4673 -0.5215 -4.5017
  276MOL0     H37226  -2.717   8.762   0.621  3.3914  0.0514  1.3142
  276MOL0     H37227  -2.749   8.928   0.677 -1.1624 -0.5832  0.1093
  276MOL0     H37228  -2.862   8.980   0.445 -2.6954 -0.8216 -0.0186
  276MOL0     H37229  -2.780   8.844   0.390 -1.5493 -0.8471  0.6669
  276MOL0     H37230  -2.973   8.826   0.621  1.9005 -0.7088  1.7864
  276MOL0     H37231  -2.918   8.697   0.510  0.1636  0.8347  1.5109
  276MOL0     H37232  -3.075   8.933   0.417 -0.8089  0.2380 -2.9315
  276MOL0     H37233  -3.019   8.796   0.314  2.6813 -0.6473  0.2335
  276MOL0     H37234  -3.236   8.813   0.529  2.5308  0.8884  1.1938
  276MOL0     H37235  -3.177   8.658   0.505  3.6936  0.1546  0.6726
  276MOL0     H37236  -3.336   8.829   0.315 -2.5774 -0.9195 -1.0173
  276MOL0     H37237  -3.256   8.682   0.245 -0.7763 -0.7647  1.0837
  276MOL0     H37238  -3.414   8.679   0.492  2.0029  1.6115 -0.2935
  276MOL0     H37239  -3.371   8.543   0.385  1.0358  0.0085  0.9639
  276MOL0     H37240  -3.545   8.604   0.215 -2.5201 -1.5457  0.5840
  276MOL0     H37241  -3.579   8.744   0.326 -0.6102 -0.4661 -2.6930
  276MOL0     H37242  -2.344   8.977   0.509 -0.8080  1.3913  0.5778
  276MOL0     H37243  -2.137   8.954   0.661  1.1975 -0.5005  1.7568
  276MOL0     H37244  -1.929   8.755   0.950  0.3507  0.6925  0.2367
  276MOL0     H37245  -1.695   8.745   1.051 -1.4175 -0.1906 -0.1173
  276MOL0     H37246  -0.196  10.053   2.099  0.3602 -0.3630 -2.1657
  276MOL0     H37247  -0.037  10.135   2.259 -0.9415 -0.0230 -2.2246
  276MOL0     H37248   0.467   9.726   2.500  0.3030 -0.7137  0.3973
  276MOL0     H37249   0.694   9.798   2.578  0.1364  0.9265  2.3027
  276MOL0     H37250   0.845  10.140   2.415  2.8502  0.9554 -1.1506
  276MOL0     H37251   0.958  10.146   2.553 -1.3613 -0.8722  1.4250
  276MOL0     H37252   1.043  10.041   2.360  1.0805 -2.3865  0.4894
  276MOL0     H37253   0.903   9.938   2.336  2.2244 -0.4109 -2.1971
  276MOL0     H37254   1.110   9.805   2.420  1.4550 -3.3311  3.9464
  276MOL0     H37255   0.979   9.803   2.531  0.2336 -0.5866  0.1176
  276MOL0     H37256   1.086   9.980   2.665 -0.5675  0.8327 -0.2627
  276MOL0     H37257   1.212   9.996   2.544 -0.8790  0.9495  0.2228
  276MOL0     H37258   1.345   9.660   2.772  0.1256 -0.3104 -0.7390
  276MOL0     H37259   0.619  10.200   2.481 -0.0427 -0.3296 -2.8726
  276MOL0     H37260   0.382  10.152   2.411  1.9245  0.0913 -0.2536
  277MOL0     O37261   3.903   3.072   8.745 -0.1608  0.4944 -0.2964
  277MOL0     C37262   3.955   3.001   8.824  0.7083  0.2261  0.0543
  277MOL0     O37263   3.881   2.921   8.910  0.7481  0.6217  0.2873
  277MOL0     C37264   3.739   2.913   8.928  0.4913  0.5538  0.5672
  277MOL0     C37265   3.642   2.995   8.878  0.0735 -0.2600  0.1593
  277MOL0     C37266   3.504   2.976   8.901 -0.1117  0.3856 -0.0457
  277MOL0     C37267   3.470   2.854   8.964  0.0675  0.4430  0.0481
  277MOL0     O37268   3.336   2.818   8.978  0.3775 -0.4803 -0.5008
  277MOL0     C37269   3.243   2.918   9.012 -0.2914  0.5154  0.7739
  277MOL0     C37270   3.104   2.848   9.033  0.0021 -0.2182 -0.1602
  277MOL0     C37271   2.995   2.949   9.089 -0.4477 -0.3997  0.2410
  277MOL0     C37272   2.861   2.861   9.088  0.7121 -0.0942 -0.5388
  277MOL0     C37273   2.736   2.946   9.117 -0.1079 -0.3031 -0.0160
  277MOL0     C37274   2.615   2.862   9.149 -0.1704 -0.1317  0.3539
  277MOL0     C37275   2.490   2.939   9.142 -0.0478  0.0061  0.1436
  277MOL0     C37276   2.373   2.838   9.163 -0.6264 -0.8896  0.4033
  277MOL0     N37277   2.254   2.900   9.213  0.2061  0.1908 -0.0731
  277MOL0     C37278   2.132   2.914   9.143 -0.5606 -0.1954 -1.2301
  277MOL0     C37279   2.044   2.969   9.230  0.6491  0.0434  0.5337
  277MOL0     C37280   1.896   3.009   9.194 -0.0108  0.1931 -0.7669
  277MOL0     C37281   1.821   2.893   9.127  0.0939  0.7841  0.1161
  277MOL0     C37282   1.666   2.916   9.119  0.0806  0.2716  0.1601
  277MOL0     C37283   1.629   3.034   9.027  0.5794  0.8642 -0.4504
  277MOL0     O37284   1.491   3.042   9.002  0.7224  0.7741 -0.0853
  277MOL0     C37285   1.401   3.052   9.099 -0.7089  0.7404 -0.2886
  277MOL0     C37286   1.425   3.104   9.230  0.3194  0.1743  0.4976
  277MOL0     C37287   1.322   3.106   9.328 -0.5775  0.3365  0.8233
  277MOL0     C37288   1.366   3.153   9.460 -0.7859 -0.1683 -0.2849
  277MOL0     C37289   1.190   3.048   9.299  0.6343  0.1094 -0.4238
  277MOL0     C37290   1.075   3.032   9.399 -0.9756  0.0509  0.3031
  277MOL0     O37291   0.988   2.946   9.355 -0.4598 -0.0692 -0.2205
  277MOL0     C37292   0.859   2.952   9.407 -0.2530  0.4620  0.6495
  277MOL0     C37293   0.829   2.932   9.545  1.1063  0.0776  0.3116
  277MOL0     C37294   0.698   2.964   9.590  0.2955 -0.6714  0.5158
  277MOL0     C37295   0.608   3.013   9.498  1.4724  0.3777  0.0263
  277MOL0     O37296   0.487   3.038   9.550 -0.7268  0.4444 -0.6133
  277MOL0     C37297   0.433   3.167   9.516  0.6174  0.0476  0.0210
  277MOL0     C37298   0.284   3.157   9.549  0.2780  0.3441 -0.1943
  277MOL0     C37299   0.202   3.289   9.533 -0.9611  0.3211 -0.3789
  277MOL0     C37300   0.052   3.281   9.538 -0.8858 -0.8090 -0.6931
  277MOL0     C37301  -0.017   3.418   9.528 -0.6161 -0.7040  1.0718
  277MOL0     C37302  -0.170   3.385   9.514  0.5093  0.1475 -0.3091
  277MOL0     C37303  -0.260   3.509   9.501 -0.2617  0.9242 -0.2148
  277MOL0     C37304  -0.256   3.604   9.622  1.3161  0.2638  0.2117
  277MOL0    Cl37305  -0.399   3.706   9.632 -0.1225  0.1786 -0.2716
  277MOL0     C37306   0.632   3.013   9.365 -0.3826 -0.0839 -0.4140
  277MOL0     C37307   0.755   2.980   9.308 -0.6021  0.0079 -1.0948
  277MOL0     O37308   1.069   3.106   9.496 -0.2511  0.2422 -0.0705
  277MOL0     C37309   1.170   3.006   9.162 -1.5833  0.0022 -0.4923
  277MOL0     C37310   1.278   3.002   9.067  0.7255  0.0833 -1.0124
  277MOL0     N37311   2.110   2.981   9.351  0.0990  0.0739 -0.2499
  277MOL0     N37312   2.232   2.942   9.349  0.4275  0.9856 -0.2038
  277MOL0     C37313   3.569   2.771   9.016 -1.0659 -0.3564 -0.1424
  277MOL0     C37314   3.707   2.798   9.002  0.5586 -0.0920 -0.4043
  277MOL0     C37315   4.111   2.998   8.839 -0.1079 -0.7709  0.0376
  277MOL0     C37316   4.182   3.118   8.791 -0.5687  0.2821  1.1172
  277MOL0     C37317   4.315   3.138   8.820  0.1378  0.4101  0.7860
  277MOL0     C37318   4.394   3.037   8.877 -0.0984  0.2507  0.0456
  277MOL0     O37319   4.530   3.053   8.888 -0.1082 -0.2544  0.7487
  277MOL0     C37320   4.604   2.969   8.979  0.2117 -0.5430 -0.4236
  277MOL0     C37321   4.728   3.043   9.012 -0.1267 -1.2107  0.1380
  277MOL0     C37322   4.838   3.022   8.901  0.0439  0.2288  0.2427
  277MOL0     C37323   4.967   3.063   8.965 -0.0738  0.0651 -0.9648
  277MOL0     C37324   5.041   2.941   9.027  0.3390  0.3196 -0.1549
  277MOL0     C37325   5.092   2.869   9.109  0.0371 -0.7983  0.6046
  277MOL0     C37326   4.328   2.916   8.916 -0.0292  0.5353  0.2859
  277MOL0     C37327   4.186   2.907   8.914  0.7011 -0.2717  0.1847
  277MOL0     H37328   3.665   3.089   8.831 -0.4559  0.7383  1.8023
  277MOL0     H37329   3.437   3.058   8.878 -0.9954 -0.0827  0.7912
  277MOL0     H37330   3.274   2.974   9.101 -0.1861  2.4465 -0.4360
  277MOL0     H37331   3.245   2.993   8.933 -0.9725 -0.2588  0.0064
  277MOL0     H37332   3.088   2.807   8.933  0.5962  1.7163 -1.1054
  277MOL0     H37333   3.123   2.765   9.101 -0.3275 -0.5662 -0.4920
  277MOL0     H37334   3.014   2.976   9.193 -1.3471 -0.8897  0.5372
  277MOL0     H37335   2.991   3.045   9.038  0.3312  0.6655  2.0842
  277MOL0     H37336   2.854   2.816   8.988 -2.5318 -0.3808 -0.2932
  277MOL0     H37337   2.868   2.776   9.158 -2.1825 -0.2113 -0.2696
  277MOL0     H37338   2.752   3.019   9.197  0.6940 -0.9504  0.4379
  277MOL0     H37339   2.721   3.006   9.027  1.8521  2.8901  1.6042
  277MOL0     H37340   2.607   2.777   9.080 -1.1211  2.2783 -2.7716
  277MOL0     H37341   2.632   2.835   9.254  0.1527  0.2084  0.3892
  277MOL0     H37342   2.484   3.014   9.222 -1.0498  0.3124 -0.1961
  277MOL0     H37343   2.475   2.984   9.043 -2.1762 -0.0690  0.3868
  277MOL0     H37344   2.394   2.753   9.229 -2.7393 -2.8028 -1.1966
  277MOL0     H37345   2.344   2.796   9.066 -0.4406 -1.1737  0.4695
  277MOL0     H37346   2.111   2.889   9.039  0.5605 -1.3702 -1.1958
  277MOL0     H37347   1.848   3.036   9.289 -0.9044 -1.5350 -0.6897
  277MOL0     H37348   1.914   3.098   9.132  1.0068  1.5910  1.3986
  277MOL0     H37349   1.826   2.804   9.191 -1.4125 -0.5430 -1.5248
  277MOL0     H37350   1.856   2.879   9.025  1.4107  0.3282  0.6036
  277MOL0     H37351   1.621   2.931   9.218  0.8520  2.8098  0.2074
  277MOL0     H37352   1.616   2.829   9.076 -1.1719  0.9300  0.2160
  277MOL0     H37353   1.680   3.020   8.931 -0.8546  0.1443 -1.1428
  277MOL0     H37354   1.657   3.132   9.067 -0.4150  0.8156  0.3896
  277MOL0     H37355   1.521   3.149   9.253  1.0947 -1.3216  0.2855
  277MOL0     H37356   1.358   3.075   9.536 -0.6455 -0.1655 -0.2661
  277MOL0     H37357   1.474   3.167   9.468 -0.8375 -0.0822  0.2976
  277MOL0     H37358   1.326   3.252   9.486 -1.1814 -0.2477 -0.6001
  277MOL0     H37359   0.903   2.906   9.619  0.1139  1.1733  1.7445
  277MOL0     H37360   0.657   2.950   9.690  0.1752 -2.8510  0.2086
  277MOL0     H37361   0.467   3.252   9.575  0.2719  0.6369 -0.6091
  277MOL0     H37362   0.444   3.191   9.410  1.4482  1.1577  0.3409
  277MOL0     H37363   0.246   3.078   9.483  1.0993  1.2588 -1.8051
  277MOL0     H37364   0.261   3.118   9.649 -3.2568  2.7023  0.1098
  277MOL0     H37365   0.233   3.335   9.438 -1.0460 -1.5414 -1.3393
  277MOL0     H37366   0.236   3.362   9.608  2.5314  0.6574 -2.0791
  277MOL0     H37367   0.036   3.229   9.443 -3.0538 -0.0057 -0.8137
  277MOL0     H37368   0.008   3.238   9.628 -2.0227  1.5220 -0.0703
  277MOL0     H37369   0.020   3.443   9.428 -2.1317 -2.0118  0.1134
  277MOL0     H37370   0.011   3.492   9.603 -1.8668 -0.3752  1.2367
  277MOL0     H37371  -0.187   3.327   9.423  1.0705  0.0411 -0.3490
  277MOL0     H37372  -0.204   3.319   9.595  0.6497 -2.8386 -2.4823
  277MOL0     H37373  -0.368   3.491   9.493 -0.5994  2.5708  0.2456
  277MOL0     H37374  -0.236   3.575   9.416  3.8571  1.1527  0.9094
  277MOL0     H37375  -0.165   3.660   9.599  0.2083  0.6867 -3.7932
  277MOL0     H37376  -0.248   3.554   9.719 -2.0906 -2.2536 -0.6129
  277MOL0     H37377   0.547   3.025   9.297  0.6048 -1.0792 -1.8877
  277MOL0     H37378   0.772   2.984   9.201 -0.7846 -0.5246 -1.1458
  277MOL0     H37379   1.070   2.968   9.147 -1.5597 -0.6179  0.8402
  277MOL0     H37380   1.245   2.964   8.970 -0.6098  1.1880 -1.0212
  277MOL0     H37381   3.540   2.675   9.058 -1.7118 -0.2429 -0.3280
  277MOL0     H37382   3.781   2.740   9.056  1.5418 -0.1521 -1.7517
  277MOL0     H37383   4.120   3.200   8.756  1.6851  1.2638 -0.8914
  277MOL0     H37384   4.364   3.229   8.785  1.4035 -1.4731 -2.7694
  277MOL0     H37385   4.546   2.957   9.070 -1.8267  0.2561 -1.5480
  277MOL0     H37386   4.637   2.876   8.932  1.6653  1.1512 -3.0039
  277MOL0     H37387   4.751   2.995   9.108 -0.2568  0.6110  1.1211
  277MOL0     H37388   4.713   3.151   9.023  1.9424 -0.6952 -1.3508
  277MOL0     H37389   4.825   3.104   8.830  1.5217  0.4757  0.2282
  277MOL0     H37390   4.836   2.928   8.846 -2.7363 -0.3726  1.1887
  277MOL0     H37391   4.958   3.147   9.035  3.4704  0.0342 -0.2737
  277MOL0     H37392   5.033   3.101   8.887  1.1844  2.3052  1.0603
  277MOL0     H37393   5.135   2.804   9.182  1.5998 -0.0808  0.3811
  277MOL0     H37394   4.385   2.831   8.952  1.0806  1.5837  1.1000
  277MOL0     H37395   4.149   2.816   8.962  0.6091 -0.4590 -0.2410
  278MOL0     O37396   2.789   8.123   4.649 -0.3308  0.4885  0.2720
  278MOL0     C37397   2.808   8.107   4.530 -0.9725 -0.6508 -0.5110
  278MOL0     O37398   2.717   8.083   4.429  0.5677 -0.0541 -0.0471
  278MOL0     C37399   2.603   8.032   4.477  0.6735 -1.3397 -0.6432
  278MOL0     C37400   2.511   8.097   4.566  1.3093  0.1099  0.6650
  278MOL0     C37401   2.388   8.029   4.603 -0.9635  0.0883  0.3377
  278MOL0     C37402   2.361   7.900   4.566  0.2478 -0.2560  1.6911
  278MOL0     O37403   2.246   7.828   4.591  0.1970 -0.4666 -0.1919
  278MOL0     C37404   2.165   7.895   4.690  0.3548  0.6473  1.0446
  278MOL0     C37405   2.048   7.790   4.709 -0.3545  0.3531 -0.7014
  278MOL0     C37406   1.928   7.831   4.630  0.0703  0.2944  0.1975
  278MOL0     C37407   1.826   7.726   4.653  0.5245  0.2937  0.6503
  278MOL0     C37408   1.687   7.767   4.595 -0.1968 -0.3223  0.2772
  278MOL0     C37409   1.620   7.882   4.664  0.1453 -0.0300  0.7716
  278MOL0     C37410   1.491   7.924   4.584 -0.9687 -0.1267 -1.0588
  278MOL0     C37411   1.441   8.058   4.646  0.3220 -0.1585  0.7280
  278MOL0     N37412   1.330   8.103   4.562  1.1574 -0.6250 -0.2399
  278MOL0     C37413   1.200   8.109   4.615 -0.4463 -0.3635  0.8566
  278MOL0     C37414   1.121   8.130   4.500  0.0361 -0.5318  0.1763
  278MOL0     C37415   0.968   8.149   4.510  0.2851  0.8095  0.0862
  278MOL0     C37416   0.932   8.273   4.432 -0.0470 -0.5657  0.4467
  278MOL0     C37417   0.782   8.300   4.440  0.6688  0.4419  0.1368
  278MOL0     C37418   0.743   8.424   4.361  0.0237 -0.2231  0.8725
  278MOL0     O37419   0.605   8.437   4.364 -0.3486 -0.1418 -0.2319
  278MOL0     C37420   0.528   8.548   4.325  0.2824 -0.0989  0.3654
  278MOL0     C37421   0.574   8.643   4.235 -1.2331 -0.3072 -0.7581
  278MOL0     C37422   0.499   8.757   4.195  0.1046 -0.3081 -0.1217
  278MOL0     C37423   0.558   8.852   4.093  0.3474 -0.4134  0.2592
  278MOL0     C37424   0.367   8.762   4.242 -0.3901  0.0118 -0.2185
  278MOL0     C37425   0.284   8.883   4.209  1.3017  0.3009 -0.3126
  278MOL0     O37426   0.156   8.862   4.151 -0.3191  0.1818  0.0438
  278MOL0     C37427   0.133   8.741   4.093 -0.3539  0.1606  0.0471
  278MOL0     C37428   0.010   8.673   4.134 -0.5373  0.5850  0.0437
  278MOL0     C37429  -0.025   8.551   4.076  1.0334  0.3557 -0.9957
  278MOL0     C37430   0.052   8.510   3.965  0.0648  0.1227 -0.5674
  278MOL0     O37431   0.011   8.392   3.911  0.2523  0.0470  0.3263
  278MOL0     C37432   0.102   8.309   3.844  0.6262 -0.0220 -0.0799
  278MOL0     C37433   0.015   8.198   3.786 -1.2326  0.8442  0.3801
  278MOL0     C37434  -0.065   8.129   3.895  0.6705 -0.3587  0.1396
  278MOL0     C37435  -0.166   8.026   3.849 -0.3524 -0.2073  0.4213
  278MOL0     C37436  -0.234   7.966   3.976 -0.7325  0.1775 -0.1604
  278MOL0     C37437  -0.332   7.855   3.943 -0.0399 -0.1935  0.3569
  278MOL0     C37438  -0.440   7.820   4.046 -1.1191 -0.3544  0.0734
  278MOL0     C37439  -0.517   7.940   4.091 -0.4703 -0.0910  0.8559
  278MOL0    Cl37440  -0.666   7.881   4.180  0.0752 -0.3241 -0.1017
  278MOL0     C37441   0.180   8.564   3.930  0.3297 -0.6044 -0.8157
  278MOL0     C37442   0.212   8.682   3.994  0.1644  0.1280 -0.2733
  278MOL0     O37443   0.314   8.988   4.256 -0.1724  0.2505 -0.2916
  278MOL0     C37444   0.312   8.662   4.320 -0.6161 -0.2979 -0.2911
  278MOL0     C37445   0.393   8.564   4.368 -0.2820 -0.2393 -0.2106
  278MOL0     N37446   1.205   8.120   4.392 -0.2126  0.2928 -0.3954
  278MOL0     N37447   1.330   8.119   4.431  0.2956 -0.2958  0.0847
  278MOL0     C37448   2.445   7.843   4.470 -0.4249 -0.4015 -0.1599
  278MOL0     C37449   2.564   7.908   4.425  0.4905 -0.0700 -0.7683
  278MOL0     C37450   2.944   8.143   4.485 -0.7348 -0.2177 -1.0345
  278MOL0     C37451   3.044   8.087   4.561 -0.3540  0.0022 -0.2756
  278MOL0     C37452   3.179   8.116   4.531 -1.2939  0.8862 -1.2488
  278MOL0     C37453   3.212   8.192   4.423  0.2874 -0.0935  0.3171
  278MOL0     O37454   3.335   8.238   4.392 -0.5030 -0.3024  0.6368
  278MOL0     C37455   3.449   8.188   4.466  0.6669 -0.1080  0.2990
  278MOL0     C37456   3.574   8.234   4.396  0.4828 -0.1362  0.6120
  278MOL0     C37457   3.707   8.177   4.469  0.2466  0.4167 -1.0164
  278MOL0     C37458   3.841   8.204   4.386  0.5716 -0.1098 -0.7183
  278MOL0     C37459   3.955   8.158   4.465 -0.6248  0.1546 -0.3756
  278MOL0     C37460   4.058   8.124   4.523 -0.0216 -0.1073  0.3890
  278MOL0     C37461   3.106   8.241   4.340  0.6918 -0.3192  0.0637
  278MOL0     C37462   2.974   8.221   4.376  0.3414  0.3979  0.1624
  278MOL0     H37463   2.527   8.197   4.605 -0.3409  0.9048 -0.5841
  278MOL0     H37464   2.328   8.087   4.673 -2.3857 -1.7510  0.7093
  278MOL0     H37465   2.222   7.890   4.783  2.1530 -2.0156 -0.0675
  278MOL0     H37466   2.132   7.996   4.666  0.3233  0.6801  1.2236
  278MOL0     H37467   2.092   7.700   4.666  1.9345  2.0917 -2.2654
  278MOL0     H37468   2.016   7.774   4.813  0.6259  0.3147 -0.3945
  278MOL0     H37469   1.898   7.931   4.665 -1.8300 -0.1560 -0.0429
  278MOL0     H37470   1.943   7.839   4.522 -1.9008  0.4912 -0.1007
  278MOL0     H37471   1.863   7.629   4.619 -0.8080 -0.2905  0.7831
  278MOL0     H37472   1.804   7.705   4.759  0.2420 -0.7859  0.3940
  278MOL0     H37473   1.700   7.786   4.489  0.2446  0.5327  0.4759
  278MOL0     H37474   1.619   7.681   4.597  0.2577 -0.6812  1.6478
  278MOL0     H37475   1.600   7.854   4.768 -0.8263 -0.7934  0.3957
  278MOL0     H37476   1.682   7.972   4.668 -0.4189  0.3327  1.4000
  278MOL0     H37477   1.512   7.931   4.477  3.9901 -0.3273 -0.3219
  278MOL0     H37478   1.414   7.846   4.593  0.8842 -2.0229 -0.7519
  278MOL0     H37479   1.512   8.140   4.635  0.0183 -0.1498 -1.5472
  278MOL0     H37480   1.422   8.035   4.751  2.4700 -1.4973  0.8731
  278MOL0     H37481   1.172   8.114   4.720 -1.1828 -1.2161  0.7150
  278MOL0     H37482   0.915   8.065   4.464  0.4511  1.4702 -1.3615
  278MOL0     H37483   0.945   8.173   4.614  3.0364  1.5632  0.5951
  278MOL0     H37484   0.952   8.248   4.327 -0.4352  2.6236 -0.4865
  278MOL0     H37485   0.986   8.367   4.448 -0.6475 -0.4452  1.8999
  278MOL0     H37486   0.756   8.311   4.546 -0.1916 -1.3651  0.1500
  278MOL0     H37487   0.718   8.219   4.405 -0.1971  0.6823  1.1292
  278MOL0     H37488   0.785   8.415   4.261  0.7975 -0.7308  1.2343
  278MOL0     H37489   0.794   8.507   4.411  1.7887 -0.5391 -0.2977
  278MOL0     H37490   0.678   8.637   4.203 -0.3874  4.0855  0.4552
  278MOL0     H37491   0.571   8.953   4.132  1.9578 -0.2339 -0.6636
  278MOL0     H37492   0.658   8.818   4.065 -0.5135 -0.4307 -3.2654
  278MOL0     H37493   0.492   8.875   4.009 -1.1809  1.3699  1.8746
  278MOL0     H37494  -0.051   8.711   4.215  2.1008  0.5461  2.2027
  278MOL0     H37495  -0.100   8.479   4.107  4.7786 -3.0642  1.1068
  278MOL0     H37496   0.152   8.348   3.755 -1.0807 -1.3487 -1.7236
  278MOL0     H37497   0.171   8.272   3.920  1.7202  1.8346 -0.1223
  278MOL0     H37498  -0.057   8.233   3.712 -1.5671 -1.2171 -0.3107
  278MOL0     H37499   0.082   8.139   3.723  0.9822  2.1193  1.4122
  278MOL0     H37500  -0.119   8.195   3.964  1.5214 -3.1433  3.7734
  278MOL0     H37501   0.006   8.079   3.961  0.6262 -0.3381  0.2035
  278MOL0     H37502  -0.243   8.072   3.785 -1.2112  0.2961  1.7845
  278MOL0     H37503  -0.116   7.946   3.793 -1.3521 -2.0174  1.9796
  278MOL0     H37504  -0.287   8.047   4.026 -0.7014 -0.4911  0.9779
  278MOL0     H37505  -0.160   7.921   4.042 -0.7170  1.0054  0.3880
  278MOL0     H37506  -0.375   7.862   3.843  2.1443  1.9394 -0.5389
  278MOL0     H37507  -0.265   7.769   3.935  1.3929  1.0212 -2.2137
  278MOL0     H37508  -0.396   7.784   4.139 -2.4565  3.6984  2.5091
  278MOL0     H37509  -0.510   7.747   4.005 -0.3435 -1.4795  0.6843
  278MOL0     H37510  -0.550   7.993   4.001  0.7209  0.6532  0.8234
  278MOL0     H37511  -0.460   8.009   4.155 -0.2101 -0.4873  1.0590
  278MOL0     H37512   0.255   8.522   3.863 -1.6555 -0.3673 -3.3614
  278MOL0     H37513   0.298   8.738   3.960  0.1019 -0.3305 -1.2275
  278MOL0     H37514   0.205   8.655   4.338 -0.4915  1.4821  1.4737
  278MOL0     H37515   0.348   8.479   4.417  2.2320 -2.3090 -1.2590
  278MOL0     H37516   2.413   7.749   4.426  1.5180 -1.4457  0.5597
  278MOL0     H37517   2.630   7.856   4.356  1.4469 -1.8595  1.3737
  278MOL0     H37518   3.027   8.025   4.648  1.9840 -2.0317 -1.1538
  278MOL0     H37519   3.258   8.085   4.600 -1.6791  2.6859  0.0673
  278MOL0     H37520   3.442   8.230   4.567 -1.8399  1.9314 -0.5954
  278MOL0     H37521   3.450   8.081   4.489  0.9993  0.2120  1.8961
  278MOL0     H37522   3.567   8.342   4.388  0.5671  0.1512  3.2762
  278MOL0     H37523   3.567   8.205   4.291 -2.5802 -0.4255  0.8052
  278MOL0     H37524   3.703   8.068   4.478  0.6876  0.5144  1.0998
  278MOL0     H37525   3.708   8.220   4.570 -2.3616 -1.6094 -0.0078
  278MOL0     H37526   3.851   8.313   4.373 -0.0424  0.2801  1.6717
  278MOL0     H37527   3.843   8.163   4.285 -1.7148  0.4693 -1.0633
  278MOL0     H37528   4.138   8.092   4.587 -0.6474  2.2313  2.4911
  278MOL0     H37529   3.123   8.322   4.271  1.8511  1.4317  2.2822
  278MOL0     H37530   2.885   8.247   4.320 -1.9195 -2.9665  1.8281
  279MOL0     O37531  11.217   7.828   8.958  0.5171  0.1642  0.0984
  279MOL0     C37532  11.298   7.838   8.865 -0.7089 -0.3916  0.4572
  279MOL0     O37533  11.261   7.846   8.734  0.4309  0.7658  0.4000
  279MOL0     C37534  11.124   7.843   8.695  0.6984  0.2827 -0.2921
  279MOL0     C37535  11.016   7.759   8.742  0.2173  0.2728 -0.2398
  279MOL0     C37536  10.892   7.765   8.677  0.0533 -0.0559 -0.1027
  279MOL0     C37537  10.869   7.854   8.582  0.2551  0.6285  0.3796
  279MOL0     O37538  10.751   7.859   8.509 -0.4924  0.5312  0.0622
  279MOL0     C37539  10.627   7.872   8.579 -0.4470  0.1882 -0.2746
  279MOL0     C37540  10.535   7.774   8.516  0.4974 -0.8302 -0.2858
  279MOL0     C37541  10.407   7.774   8.599  0.0377 -0.3160 -0.2805
  279MOL0     C37542  10.413   7.666   8.707 -0.2870  0.0484  0.1424
  279MOL0     C37543  10.283   7.673   8.796  0.3448 -0.3629 -0.5151
  279MOL0     C37544  10.299   7.583   8.923 -0.4761 -1.0085 -0.3636
  279MOL0     C37545  10.211   7.626   9.044 -0.4900 -0.1917 -0.4545
  279MOL0     C37546  10.177   7.503   9.138  0.3513  0.0953  0.0164
  279MOL0     N37547  10.115   7.553   9.263  0.3085  0.7584  0.0648
  279MOL0     C37548   9.989   7.607   9.282  0.2816  0.5499  0.1134
  279MOL0     C37549   9.974   7.617   9.420 -0.0843 -0.0821  0.7195
  279MOL0     C37550   9.856   7.679   9.484 -0.1089 -0.4311  0.3850
  279MOL0     C37551   9.740   7.583   9.501  0.3168 -0.1116 -0.1912
  279MOL0     C37552   9.615   7.665   9.508  0.0483 -0.6377 -0.1973
  279MOL0     C37553   9.490   7.573   9.525  0.3762 -0.6555  0.0402
  279MOL0     O37554   9.453   7.507   9.400 -0.6303  0.2313 -0.2171
  279MOL0     C37555   9.318   7.521   9.371  0.7066 -0.4096 -0.0482
  279MOL0     C37556   9.287   7.647   9.313  0.1694  0.0501  0.4361
  279MOL0     C37557   9.156   7.688   9.277 -0.2295 -0.9446 -0.6444
  279MOL0     C37558   9.143   7.826   9.216  0.3773 -0.7244 -0.1901
  279MOL0     C37559   9.051   7.593   9.307 -0.5431  1.0423 -0.5790
  279MOL0     C37560   8.908   7.625   9.294  0.2885  0.0958  0.1810
  279MOL0     O37561   8.827   7.520   9.328  0.6481 -0.3420 -0.2036
  279MOL0     C37562   8.695   7.553   9.322  0.2894 -0.7350 -0.2442
  279MOL0     C37563   8.624   7.484   9.224  0.2872  0.5262  0.0658
  279MOL0     C37564   8.488   7.514   9.208 -0.3790  0.1526  0.4298
  279MOL0     C37565   8.410   7.591   9.297  0.0061  0.6547 -0.3675
  279MOL0     O37566   8.279   7.625   9.289 -0.2283  0.4779 -0.4247
  279MOL0     C37567   8.218   7.574   9.173 -0.2564  0.5034  1.4923
  279MOL0     C37568   8.082   7.631   9.155  0.0725 -0.3011 -0.2388
  279MOL0     C37569   7.989   7.607   9.272 -0.4731 -0.3943 -0.7022
  279MOL0     C37570   7.977   7.454   9.312 -0.3215 -0.3965  0.0397
  279MOL0     C37571   7.869   7.435   9.424 -0.9783  0.5521  0.0656
  279MOL0     C37572   7.815   7.293   9.448 -0.3415 -0.0870  0.1217
  279MOL0     C37573   7.916   7.181   9.462  0.6456 -0.9073  0.2171
  279MOL0     C37574   7.985   7.124   9.336 -0.5661  0.2027 -0.2843
  279MOL0    Cl37575   7.859   7.079   9.223 -0.4701  0.0201  0.0100
  279MOL0     C37576   8.485   7.649   9.403  0.1102 -0.6005  0.2226
  279MOL0     C37577   8.626   7.638   9.412 -0.7483  0.2580 -0.1827
  279MOL0     O37578   8.871   7.735   9.257 -0.7453 -0.3773  0.2576
  279MOL0     C37579   9.083   7.469   9.363  0.5448  0.5195  0.4205
  279MOL0     C37580   9.210   7.431   9.393  0.1084 -0.3945 -0.0381
  279MOL0     N37581  10.082   7.558   9.483  0.2523  0.1353  0.4222
  279MOL0     N37582  10.159   7.520   9.385  0.1697  0.2155  0.1907
  279MOL0     C37583  10.968   7.940   8.546 -0.4730 -0.4786  0.3301
  279MOL0     C37584  11.099   7.937   8.601 -0.2386  0.4060  0.4825
  279MOL0     C37585  11.447   7.871   8.894  0.3522  0.3162 -0.2839
  279MOL0     C37586  11.523   7.938   8.794 -0.8456  0.0574  0.5462
  279MOL0     C37587  11.661   7.966   8.820 -0.7593  0.4880  0.2169
  279MOL0     C37588  11.714   7.945   8.942  1.8800  0.2326 -0.5471
  279MOL0     O37589  11.838   7.992   8.959  0.5518  0.3744  0.4403
  279MOL0     C37590  11.926   7.939   9.058  0.0983  0.6280  0.5987
  279MOL0     C37591  12.037   8.036   9.074 -0.5489  0.6086 -0.2667
  279MOL0     C37592  12.150   7.973   9.160  0.0810 -0.4544  0.0560
  279MOL0     C37593  12.284   8.054   9.188 -0.0590  0.0018  0.1074
  279MOL0     C37594  12.373   8.036   9.070  0.5563  0.0972  0.0291
  279MOL0     C37595  12.460   8.050   8.980 -0.2810 -0.5458 -1.1590
  279MOL0     C37596  11.642   7.873   9.048  0.7810 -0.7090 -0.6648
  279MOL0     C37597  11.506   7.844   9.014  0.3732 -0.0835  0.4652
  279MOL0     H37598  11.034   7.684   8.820 -2.1662 -0.4793 -0.3474
  279MOL0     H37599  10.817   7.689   8.699 -1.8028  2.5094  3.3561
  279MOL0     H37600  10.645   7.855   8.686 -0.6994  3.0405  0.2937
  279MOL0     H37601  10.589   7.974   8.568  0.6608  0.6731  0.2035
  279MOL0     H37602  10.518   7.806   8.413 -0.3109  2.4739  0.7546
  279MOL0     H37603  10.586   7.677   8.510 -0.5213 -1.3648 -0.6076
  279MOL0     H37604  10.402   7.869   8.654  1.4371 -0.9585  1.0637
  279MOL0     H37605  10.323   7.773   8.529 -1.6149  2.3763  1.4865
  279MOL0     H37606  10.430   7.571   8.655 -0.7394  0.0908 -0.0969
  279MOL0     H37607  10.495   7.688   8.775 -0.4846 -0.1797  0.4540
  279MOL0     H37608  10.262   7.775   8.831 -2.3075 -1.5962  1.8902
  279MOL0     H37609  10.206   7.632   8.730  1.8857 -2.5374 -1.0643
  279MOL0     H37610  10.271   7.483   8.888 -0.8471 -0.3147 -2.1789
  279MOL0     H37611  10.402   7.585   8.958  0.1718 -2.1137 -2.0480
  279MOL0     H37612  10.271   7.699   9.100  0.8222  2.2712 -4.6018
  279MOL0     H37613  10.113   7.664   9.014 -1.5778 -1.1946  1.5980
  279MOL0     H37614  10.266   7.448   9.170 -0.3543 -0.8846  0.3237
  279MOL0     H37615  10.106   7.432   9.095  0.0200 -1.4710  2.8873
  279MOL0     H37616   9.921   7.646   9.208  1.0706 -0.0365 -0.9517
  279MOL0     H37617   9.890   7.718   9.581 -0.8049  0.8898  0.1229
  279MOL0     H37618   9.819   7.765   9.427  1.2182  0.9481  1.4916
  279MOL0     H37619   9.762   7.531   9.594  1.7584  0.3068 -0.2754
  279MOL0     H37620   9.735   7.520   9.411 -1.4050  1.9874 -1.6666
  279MOL0     H37621   9.599   7.725   9.418  0.2375 -1.5801 -0.8810
  279MOL0     H37622   9.635   7.728   9.595  4.5358 -0.2927 -1.2203
  279MOL0     H37623   9.409   7.636   9.564  1.1942  0.0670  0.6042
  279MOL0     H37624   9.510   7.496   9.600  1.4702  0.3610  0.8362
  279MOL0     H37625   9.376   7.708   9.300 -0.9113  1.4367 -0.7050
  279MOL0     H37626   9.094   7.813   9.119 -3.2605 -0.3861  1.4579
  279MOL0     H37627   9.078   7.892   9.273 -0.9054 -1.0121 -1.2597
  279MOL0     H37628   9.240   7.878   9.217 -0.2749  0.5268 -0.3384
  279MOL0     H37629   8.676   7.417   9.156 -0.1991  1.3824 -1.1901
  279MOL0     H37630   8.441   7.467   9.122 -1.6811  3.7899 -1.0263
  279MOL0     H37631   8.289   7.594   9.092 -0.3001 -1.7515  0.8263
  279MOL0     H37632   8.211   7.465   9.181  1.4496  0.3276  1.0440
  279MOL0     H37633   8.082   7.734   9.118 -0.3528 -0.7789 -1.6053
  279MOL0     H37634   8.044   7.579   9.067  0.8596 -0.2981 -0.5883
  279MOL0     H37635   7.891   7.642   9.237 -0.1570 -0.6896 -1.9229
  279MOL0     H37636   8.027   7.673   9.350 -0.2519 -0.8808 -0.3938
  279MOL0     H37637   7.937   7.397   9.228  2.1766 -4.4524  1.3187
  279MOL0     H37638   8.075   7.418   9.346  1.5437  2.3849 -2.0287
  279MOL0     H37639   7.781   7.497   9.405 -0.1452  2.2288  1.3371
  279MOL0     H37640   7.917   7.478   9.513  1.4211 -0.0338 -0.8556
  279MOL0     H37641   7.764   7.297   9.544 -0.2266 -0.6070  0.2032
  279MOL0     H37642   7.740   7.267   9.373 -0.4293  3.9540 -1.4518
  279MOL0     H37643   7.863   7.104   9.518 -0.0025  0.3650  1.4406
  279MOL0     H37644   7.996   7.218   9.525 -0.8108  3.4654 -0.1399
  279MOL0     H37645   8.052   7.043   9.365 -0.2986  0.9352  1.2606
  279MOL0     H37646   8.052   7.198   9.290  1.3313 -0.9294  0.5374
  279MOL0     H37647   8.432   7.696   9.486 -2.2999 -1.6927 -0.6383
  279MOL0     H37648   8.678   7.669   9.502 -2.1958  1.1686  0.3860
  279MOL0     H37649   9.008   7.393   9.384  3.1878 -2.4654 -0.1679
  279MOL0     H37650   9.219   7.331   9.435  0.1960 -0.5775 -0.4862
  279MOL0     H37651  10.945   8.007   8.464  0.0166 -1.5974 -0.7460
  279MOL0     H37652  11.180   8.001   8.567 -2.1885  1.2446 -3.1641
  279MOL0     H37653  11.479   7.961   8.697 -1.9197  0.2260  1.0550
  279MOL0     H37654  11.722   8.009   8.741  0.2163 -3.6404 -1.5267
  279MOL0     H37655  11.879   7.927   9.156  0.6692 -1.3757  0.6755
  279MOL0     H37656  11.964   7.844   9.020 -0.9176  0.0887  0.9181
  279MOL0     H37657  11.998   8.121   9.131 -1.3133  1.2318 -1.6640
  279MOL0     H37658  12.071   8.072   8.976 -0.4586  0.5746 -0.2474
  279MOL0     H37659  12.191   7.885   9.109  4.0342  0.6084  1.0639
  279MOL0     H37660  12.104   7.939   9.253 -1.1656  0.1100 -0.3366
  279MOL0     H37661  12.333   8.025   9.281  2.3463  1.8698 -0.4776
  279MOL0     H37662  12.253   8.158   9.201 -0.3627 -0.0180 -0.4198
  279MOL0     H37663  12.538   8.072   8.910  1.5909 -1.1323  0.6543
  279MOL0     H37664  11.674   7.854   9.149  2.9705  0.3491 -1.0906
  279MOL0     H37665  11.452   7.780   9.083 -1.0018 -1.5349 -1.8350
  280MOL0     O37666   4.815   6.314   7.092 -0.7668 -0.3023 -0.1001
  280MOL0     C37667   4.867   6.323   6.981  0.1536  0.3476 -0.1078
  280MOL0     O37668   4.806   6.358   6.860  0.3170 -0.6608  1.0994
  280MOL0     C37669   4.667   6.401   6.855  0.4484  0.3275 -0.6294
  280MOL0     C37670   4.629   6.442   6.728  0.1266 -0.3455 -0.4533
  280MOL0     C37671   4.497   6.477   6.701 -0.1012 -0.1785 -0.0704
  280MOL0     C37672   4.400   6.482   6.796  0.0391 -0.5558 -0.0058
  280MOL0     O37673   4.275   6.522   6.760 -0.1053  0.0421  0.7852
  280MOL0     C37674   4.181   6.548   6.865 -0.0288  0.6833 -0.2684
  280MOL0     C37675   4.068   6.633   6.800  0.3604  0.0995 -0.4791
  280MOL0     C37676   3.964   6.680   6.904  0.0990 -0.5565  0.9402
  280MOL0     C37677   3.841   6.714   6.817  0.8471 -0.2228 -1.0122
  280MOL0     C37678   3.743   6.775   6.918  0.9202 -0.3852 -0.2601
  280MOL0     C37679   3.617   6.843   6.834  0.8846 -0.0058  0.4103
  280MOL0     C37680   3.532   6.933   6.918 -0.5585  0.4001  1.1404
  280MOL0     C37681   3.400   6.870   6.974 -1.0908  0.4446  0.8463
  280MOL0     N37682   3.314   6.970   7.027 -0.5294  0.0310  0.0741
  280MOL0     C37683   3.257   7.069   6.950  1.1969  1.3123 -0.8012
  280MOL0     C37684   3.172   7.127   7.039 -0.1672  0.5732 -0.7574
  280MOL0     C37685   3.058   7.226   7.016 -0.5739 -0.5195  0.4065
  280MOL0     C37686   2.937   7.198   7.105 -0.9500  0.5157 -0.2343
  280MOL0     C37687   2.813   7.273   7.062 -0.2003 -0.7742  0.0974
  280MOL0     C37688   2.838   7.428   7.065  0.0478 -0.5157 -0.5938
  280MOL0     O37689   2.728   7.494   6.991 -0.1914  1.0540  0.3238
  280MOL0     C37690   2.614   7.525   7.062  0.4638 -0.5348  0.7316
  280MOL0     C37691   2.615   7.628   7.158  0.6284  0.3127  0.4443
  280MOL0     C37692   2.505   7.666   7.234  0.4177  0.0246  0.0022
  280MOL0     C37693   2.517   7.795   7.335  0.5197  0.7946  0.2087
  280MOL0     C37694   2.393   7.581   7.225 -0.1669 -1.5151  0.2778
  280MOL0     C37695   2.275   7.596   7.304  0.2695 -0.1003 -1.0391
  280MOL0     O37696   2.238   7.724   7.335 -0.2430  0.3486  0.8890
  280MOL0     C37697   2.110   7.753   7.370  0.4353  0.0806 -0.5723
  280MOL0     C37698   2.081   7.732   7.510 -0.0824  0.7133 -0.2860
  280MOL0     C37699   1.970   7.796   7.571  0.1179  0.0065 -0.5417
  280MOL0     C37700   1.880   7.858   7.489  0.3800  0.1176 -0.1166
  280MOL0     O37701   1.759   7.898   7.550 -0.6663  0.3296 -0.3334
  280MOL0     C37702   1.643   7.954   7.483 -0.1010 -0.5601 -0.7970
  280MOL0     C37703   1.551   7.855   7.416  0.0351  0.4788 -0.1657
  280MOL0     C37704   1.433   7.911   7.337  0.6895  0.6267 -0.4532
  280MOL0     C37705   1.341   7.999   7.412  0.1572 -0.0304 -0.7889
  280MOL0     C37706   1.227   8.042   7.324  0.9115 -1.0778 -0.2954
  280MOL0     C37707   1.148   8.161   7.379 -0.5152  0.1118  0.2692
  280MOL0     C37708   1.046   8.203   7.264  0.4619 -0.2295  0.1308
  280MOL0     C37709   0.941   8.295   7.321  0.1198 -0.3429  0.0208
  280MOL0    Cl37710   0.829   8.206   7.423  0.1320 -0.1850 -0.2208
  280MOL0     C37711   1.905   7.875   7.351  0.5876  0.1621  0.0599
  280MOL0     C37712   2.024   7.834   7.296  0.0798 -0.5799  0.0820
  280MOL0     O37713   2.204   7.495   7.328 -0.7107  0.0664 -0.3161
  280MOL0     C37714   2.392   7.464   7.145  0.3831 -0.6230 -1.4075
  280MOL0     C37715   2.504   7.440   7.063 -0.2108  0.2333  0.2682
  280MOL0     N37716   3.194   7.073   7.165  0.8974  0.3159 -0.2309
  280MOL0     N37717   3.288   6.990   7.160  0.0421 -0.3549  0.7553
  280MOL0     C37718   4.439   6.451   6.932 -0.1584 -0.5368  0.6679
  280MOL0     C37719   4.567   6.402   6.960 -0.4530 -0.4246 -0.3293
  280MOL0     C37720   5.019   6.292   6.978  0.3275 -0.1852  0.6066
  280MOL0     C37721   5.086   6.270   6.855 -0.3168 -0.0758 -0.5007
  280MOL0     C37722   5.215   6.219   6.847  0.3161  0.2545 -0.0940
  280MOL0     C37723   5.285   6.189   6.961  0.9915 -0.6066  0.3505
  280MOL0     O37724   5.410   6.132   6.952  0.5175 -0.6376  0.2536
  280MOL0     C37725   5.465   6.083   7.071  0.0107  0.2674 -0.0966
  280MOL0     C37726   5.596   6.017   7.038 -1.0647  1.3002  0.1328
  280MOL0     C37727   5.694   6.003   7.163  0.0202 -0.5780  0.2194
  280MOL0     C37728   5.830   5.947   7.126 -0.2699  0.5409  0.7002
  280MOL0     C37729   5.821   5.807   7.082 -0.7794  0.7357  0.4151
  280MOL0     C37730   5.815   5.691   7.045  0.3410  0.4724 -0.9367
  280MOL0     C37731   5.220   6.222   7.084  0.2635  0.6141 -0.2990
  280MOL0     C37732   5.096   6.265   7.095  0.6792 -0.6646  0.2483
  280MOL0     H37733   4.692   6.454   6.640  0.2480  0.9423 -0.2043
  280MOL0     H37734   4.470   6.519   6.604 -0.1960  3.7596  1.4814
  280MOL0     H37735   4.153   6.446   6.892 -2.3134  0.7461 -2.1631
  280MOL0     H37736   4.223   6.598   6.953 -0.5642 -0.7870  0.8606
  280MOL0     H37737   4.114   6.720   6.752 -1.2191  2.4996  2.0475
  280MOL0     H37738   4.015   6.577   6.722  0.6916 -0.6509 -0.1669
  280MOL0     H37739   3.946   6.602   6.979  1.0258 -1.9891 -0.2549
  280MOL0     H37740   3.999   6.764   6.965 -1.0259 -0.4794  1.5070
  280MOL0     H37741   3.868   6.788   6.742  1.1844  0.7013  0.0038
  280MOL0     H37742   3.796   6.626   6.770 -0.1348 -2.2226  3.1764
  280MOL0     H37743   3.713   6.694   6.985 -1.6605 -1.4254 -2.4891
  280MOL0     H37744   3.797   6.849   6.978 -2.1350  1.1624  0.7623
  280MOL0     H37745   3.671   6.906   6.761  4.6556 -3.8052 -0.5186
  280MOL0     H37746   3.556   6.776   6.773 -0.3069  1.2265  0.1999
  280MOL0     H37747   3.601   6.971   6.993  1.0032  1.7032 -0.8424
  280MOL0     H37748   3.500   7.021   6.860  1.7911  0.8592  0.4237
  280MOL0     H37749   3.430   6.796   7.049  5.3048 -0.1930 -1.7246
  280MOL0     H37750   3.351   6.816   6.892 -0.1469 -1.5892  1.5543
  280MOL0     H37751   3.247   7.070   6.842  1.9498 -0.5061 -0.9282
  280MOL0     H37752   3.096   7.328   7.008 -0.2982 -0.6457  0.0481
  280MOL0     H37753   3.030   7.199   6.914  3.9342  1.7316 -1.7333
  280MOL0     H37754   2.967   7.214   7.209 -1.7308  0.0211  0.0751
  280MOL0     H37755   2.906   7.093   7.098 -0.2075  0.2609  0.2623
  280MOL0     H37756   2.728   7.246   7.125 -0.1411 -0.3359  0.3722
  280MOL0     H37757   2.795   7.250   6.956 -1.1668  0.3834 -0.0091
  280MOL0     H37758   2.931   7.463   7.019 -0.4156  2.5179  0.5392
  280MOL0     H37759   2.847   7.459   7.169 -0.2398 -0.5988 -0.5423
  280MOL0     H37760   2.707   7.680   7.183  0.9676  0.4727 -1.0332
  280MOL0     H37761   2.465   7.765   7.427 -1.5028 -0.2633 -1.2256
  280MOL0     H37762   2.621   7.824   7.349  1.4233 -0.7945 -2.5018
  280MOL0     H37763   2.457   7.879   7.297 -0.6832 -0.7180 -1.3581
  280MOL0     H37764   2.159   7.683   7.567  0.8476  0.4577 -1.7149
  280MOL0     H37765   1.939   7.794   7.676 -2.5568 -2.0766 -1.2533
  280MOL0     H37766   1.587   8.015   7.554 -4.6004 -2.7103 -2.0591
  280MOL0     H37767   1.685   8.031   7.418 -1.7175  3.8705  2.8885
  280MOL0     H37768   1.619   7.796   7.353 -0.2877 -1.2818  1.0374
  280MOL0     H37769   1.502   7.798   7.495 -1.4622  1.3228 -0.4565
  280MOL0     H37770   1.379   7.830   7.288 -1.1205  1.2056  0.5032
  280MOL0     H37771   1.482   7.964   7.255  1.6036  1.0032  0.3072
  280MOL0     H37772   1.306   7.956   7.506  2.6330 -1.7196 -0.5418
  280MOL0     H37773   1.397   8.090   7.436 -1.5960  0.5409  1.4293
  280MOL0     H37774   1.151   7.963   7.322  1.8973 -2.3242  3.4106
  280MOL0     H37775   1.263   8.076   7.226  0.0032 -3.1967 -1.4368
  280MOL0     H37776   1.097   8.124   7.469  1.5153 -1.7807  0.7402
  280MOL0     H37777   1.216   8.245   7.398 -0.4027  0.2173 -0.5817
  280MOL0     H37778   0.987   8.121   7.221 -2.4827  2.0355 -0.4791
  280MOL0     H37779   1.093   8.244   7.174 -1.0580  1.8025  0.1837
  280MOL0     H37780   0.883   8.335   7.238 -0.7316 -0.7533  0.3948
  280MOL0     H37781   0.990   8.378   7.373  0.3276 -0.7554  0.4997
  280MOL0     H37782   1.839   7.921   7.278  1.3667 -0.8012 -1.3152
  280MOL0     H37783   2.037   7.844   7.188 -0.3929  1.7236  0.1913
  280MOL0     H37784   2.317   7.386   7.137  0.5041 -0.5562 -5.1811
  280MOL0     H37785   2.518   7.355   6.997  3.4696  0.0660  1.0410
  280MOL0     H37786   4.375   6.473   7.017  2.3556  1.4686  2.1860
  280MOL0     H37787   4.602   6.386   7.062  1.9833 -1.6401 -1.2958
  280MOL0     H37788   5.038   6.295   6.762  0.6533  0.5461 -0.8500
  280MOL0     H37789   5.264   6.208   6.750 -2.2730  0.8313 -1.5779
  280MOL0     H37790   5.490   6.166   7.138 -0.1344 -0.5390  0.9727
  280MOL0     H37791   5.391   6.021   7.122 -0.4216  1.8907  1.3554
  280MOL0     H37792   5.649   6.069   6.958  0.2512 -1.1706 -0.7152
  280MOL0     H37793   5.580   5.914   7.005 -0.2508  1.8671 -2.2679
  280MOL0     H37794   5.657   5.933   7.239  2.4628 -2.4936 -0.2180
  280MOL0     H37795   5.701   6.101   7.211 -0.8596 -0.4074  0.0124
  280MOL0     H37796   5.892   5.950   7.217  0.4009  3.1828  0.2453
  280MOL0     H37797   5.872   6.009   7.047 -1.9779 -2.5191 -2.8963
  280MOL0     H37798   5.798   5.587   7.023 -1.0631  0.2948  0.7335
  280MOL0     H37799   5.282   6.215   7.173  1.6319  0.7359 -1.2113
  280MOL0     H37800   5.049   6.265   7.193 -0.4498 -1.2800 -0.2694
  281MOL0     O37801   7.946   8.598   7.412 -0.0388 -0.5083 -0.6042
  281MOL0     C37802   7.970   8.608   7.292  0.5505  0.1902  0.5163
  281MOL0     O37803   7.874   8.639   7.197  0.5322 -0.0771 -0.1625
  281MOL0     C37804   7.743   8.631   7.242 -0.3127  0.3524  0.4061
  281MOL0     C37805   7.691   8.721   7.343 -0.2045 -0.5601 -0.1554
  281MOL0     C37806   7.567   8.701   7.401  0.2866  0.2101  0.0569
  281MOL0     C37807   7.489   8.589   7.367  0.0855 -0.1060 -0.5641
  281MOL0     O37808   7.362   8.577   7.428  0.4559 -0.2802 -0.5057
  281MOL0     C37809   7.339   8.609   7.569  0.3392 -1.1007 -0.4316
  281MOL0     C37810   7.225   8.530   7.625 -0.4659  0.0264 -0.0187
  281MOL0     C37811   7.091   8.571   7.554  0.2562  0.0704 -0.6493
  281MOL0     C37812   7.030   8.708   7.616  0.3517 -0.0810  0.2802
  281MOL0     C37813   6.896   8.755   7.559 -0.4220 -0.3173 -0.3123
  281MOL0     C37814   6.888   8.778   7.416  0.1123  1.0057  0.4534
  281MOL0     C37815   6.762   8.846   7.382  0.4610 -0.2157 -0.3715
  281MOL0     C37816   6.747   8.863   7.230  0.1595 -0.6219  0.7295
  281MOL0     N37817   6.697   8.996   7.181  0.8150  0.3709 -0.0776
  281MOL0     C37818   6.589   9.056   7.226 -0.1725  0.0049  0.4096
  281MOL0     C37819   6.570   9.161   7.138 -0.1352  0.4357 -0.3215
  281MOL0     C37820   6.453   9.263   7.167  0.3849 -0.2417  0.0251
  281MOL0     C37821   6.496   9.415   7.157  0.2383 -0.2198  1.3347
  281MOL0     C37822   6.381   9.510   7.205  0.5403 -0.3779  0.2779
  281MOL0     C37823   6.290   9.551   7.084 -0.0613  0.0152  0.2591
  281MOL0     O37824   6.177   9.468   7.071 -0.1625  0.1026  0.2898
  281MOL0     C37825   6.098   9.498   6.959  0.3953  0.4623  0.3998
  281MOL0     C37826   6.130   9.578   6.846  0.1638  0.0306  0.4471
  281MOL0     C37827   6.032   9.610   6.749 -0.0407  0.3581 -0.2604
  281MOL0     C37828   6.082   9.707   6.632 -0.6948  0.0994  0.1332
  281MOL0     C37829   5.904   9.553   6.748  0.2986  0.3856 -0.6709
  281MOL0     C37830   5.793   9.584   6.650  0.0573  0.0872  0.9943
  281MOL0     O37831   5.667   9.558   6.694 -0.2727  0.1623 -0.2809
  281MOL0     C37832   5.556   9.605   6.629 -0.0155  0.4542  0.9520
  281MOL0     C37833   5.550   9.742   6.596  0.9905  1.3138  0.5128
  281MOL0     C37834   5.440   9.797   6.521 -0.6032  0.1519 -0.8532
  281MOL0     C37835   5.339   9.714   6.478 -0.0934  0.4135 -0.6137
  281MOL0     O37836   5.242   9.764   6.393 -0.8519 -0.2404 -0.2734
  281MOL0     C37837   5.111   9.707   6.415  0.1341  0.9357  0.9923
  281MOL0     C37838   5.013   9.819   6.385  0.3285  0.2751  0.2459
  281MOL0     C37839   4.875   9.767   6.415  0.6108 -0.9192  0.9252
  281MOL0     C37840   4.778   9.865   6.348  1.2067  0.1415  0.6409
  281MOL0     C37841   4.643   9.796   6.339 -0.1550 -0.0237  0.0830
  281MOL0     C37842   4.618   9.720   6.204  0.1989  1.2526  0.1246
  281MOL0     C37843   4.482   9.644   6.205  0.2684 -0.0093 -0.5578
  281MOL0     C37844   4.355   9.737   6.203 -0.4096  0.5202  0.3410
  281MOL0    Cl37845   4.311   9.768   6.032  0.0480 -0.1735  0.2421
  281MOL0     C37846   5.344   9.573   6.514 -0.0151  0.4756 -0.7726
  281MOL0     C37847   5.446   9.524   6.595 -0.3258 -0.9556 -0.1219
  281MOL0     O37848   5.818   9.620   6.539 -0.6082 -0.7206 -0.3001
  281MOL0     C37849   5.878   9.462   6.857 -0.0337 -0.9661  0.7335
  281MOL0     C37850   5.973   9.442   6.961  0.6185 -0.9274  0.0720
  281MOL0     N37851   6.669   9.168   7.053 -0.3746 -0.0061  0.2388
  281MOL0     N37852   6.741   9.060   7.068 -0.3552  0.3917  0.3332
  281MOL0     C37853   7.528   8.504   7.264 -0.1017  0.3320 -0.9563
  281MOL0     C37854   7.657   8.522   7.203  0.6060 -0.4903 -0.3629
  281MOL0     C37855   8.111   8.616   7.255  0.2452  0.4822  1.2408
  281MOL0     C37856   8.143   8.652   7.123  1.4308  0.5936 -0.1671
  281MOL0     C37857   8.269   8.690   7.087 -0.2258  0.8466  0.2603
  281MOL0     C37858   8.372   8.693   7.192  0.9434  0.7693  0.9954
  281MOL0     O37859   8.498   8.743   7.165 -0.1030 -0.2225  0.0515
  281MOL0     C37860   8.527   8.788   7.033  0.3437  0.5572  0.3018
  281MOL0     C37861   8.652   8.859   7.015 -0.0030 -0.3351  0.3088
  281MOL0     C37862   8.769   8.752   7.027  0.8920  0.3961 -0.0948
  281MOL0     C37863   8.891   8.821   7.080 -0.1796  0.1522  0.4353
  281MOL0     C37864   8.991   8.724   7.122 -1.1117 -0.1474 -0.2686
  281MOL0     C37865   9.075   8.637   7.141 -0.5198  0.1410 -0.2458
  281MOL0     C37866   8.347   8.641   7.318 -0.3991  0.4606  0.1632
  281MOL0     C37867   8.219   8.607   7.351  0.2296  0.7649 -0.6626
  281MOL0     H37868   7.759   8.801   7.371 -1.8616  1.9967 -2.8500
  281MOL0     H37869   7.541   8.770   7.480 -0.0202  2.5770 -1.9962
  281MOL0     H37870   7.422   8.568   7.628  0.4352 -2.9217 -1.7380
  281MOL0     H37871   7.323   8.716   7.580 -0.5670 -1.4144  1.9824
  281MOL0     H37872   7.238   8.422   7.614 -2.1962 -0.3093  0.9293
  281MOL0     H37873   7.204   8.534   7.732 -4.9682 -1.1787 -0.6808
  281MOL0     H37874   7.101   8.596   7.448  1.2199  0.9391 -0.3723
  281MOL0     H37875   7.017   8.492   7.569 -0.9699  1.3827  0.5008
  281MOL0     H37876   7.031   8.707   7.725 -0.7943  1.6010  0.3461
  281MOL0     H37877   7.085   8.798   7.585  0.1190  0.3163  1.0111
  281MOL0     H37878   6.827   8.671   7.573  1.9425 -2.0118  2.2304
  281MOL0     H37879   6.854   8.842   7.611  0.0338  0.3834 -1.1011
  281MOL0     H37880   6.976   8.839   7.395 -0.2350  2.4922  2.8838
  281MOL0     H37881   6.890   8.682   7.363  1.3182 -1.4357  4.4813
  281MOL0     H37882   6.677   8.797   7.429  0.8464 -0.4385  0.1019
  281MOL0     H37883   6.752   8.945   7.427  0.9654 -1.3712  2.4636
  281MOL0     H37884   6.682   8.782   7.194 -0.5678  0.5869 -0.7993
  281MOL0     H37885   6.845   8.847   7.183  0.4241 -1.2872  1.4828
  281MOL0     H37886   6.528   9.043   7.315 -0.6560  2.4292  0.4918
  281MOL0     H37887   6.380   9.234   7.090 -1.0006 -1.4441  1.7208
  281MOL0     H37888   6.412   9.235   7.264  0.1332 -3.0068 -0.7702
  281MOL0     H37889   6.530   9.424   7.053  1.3326 -3.2551  1.3161
  281MOL0     H37890   6.589   9.441   7.208  1.3129  1.4857 -1.3037
  281MOL0     H37891   6.422   9.609   7.227 -0.8180  0.3227 -0.1823
  281MOL0     H37892   6.317   9.477   7.288  0.8403  2.1386  1.6235
  281MOL0     H37893   6.349   9.545   6.992  1.4573  1.5439  1.0726
  281MOL0     H37894   6.254   9.654   7.091  0.2246  0.1852 -0.6375
  281MOL0     H37895   6.217   9.642   6.845  0.3817 -0.0892  3.1178
  281MOL0     H37896   6.033   9.805   6.635 -1.0836 -0.0567 -0.8110
  281MOL0     H37897   6.189   9.728   6.643 -1.0787  1.1825  2.6223
  281MOL0     H37898   6.060   9.657   6.537 -5.5307  2.3115 -0.2014
  281MOL0     H37899   5.630   9.812   6.615  0.7857  1.8685 -0.5376
  281MOL0     H37900   5.421   9.901   6.495  1.5577  0.6339 -0.7050
  281MOL0     H37901   5.093   9.620   6.352  2.3370  0.6856  0.6192
  281MOL0     H37902   5.102   9.670   6.517 -1.0065  0.8394  0.8632
  281MOL0     H37903   5.027   9.909   6.446  1.3047 -0.2440  0.8056
  281MOL0     H37904   5.013   9.847   6.279  0.8788  0.6310  0.3323
  281MOL0     H37905   4.854   9.762   6.522 -1.4966  1.2155  0.7100
  281MOL0     H37906   4.866   9.673   6.361  0.6505 -2.9505  4.1736
  281MOL0     H37907   4.768   9.953   6.412 -2.1030  0.6603 -0.3809
  281MOL0     H37908   4.806   9.903   6.250 -1.8206  2.5403  0.5347
  281MOL0     H37909   4.562   9.866   6.358  1.5481  1.3142  3.0921
  281MOL0     H37910   4.636   9.717   6.414  1.2983  1.0475  1.4022
  281MOL0     H37911   4.628   9.779   6.112 -0.4097 -1.0394 -1.5141
  281MOL0     H37912   4.683   9.633   6.193 -0.0082  0.5000  3.6774
  281MOL0     H37913   4.491   9.596   6.303  0.3825  2.7622  0.8965
  281MOL0     H37914   4.469   9.571   6.125  1.8668 -0.6657 -0.2617
  281MOL0     H37915   4.381   9.830   6.253  2.5249  1.1119 -1.9680
  281MOL0     H37916   4.275   9.688   6.259 -0.3231 -0.8150 -0.6483
  281MOL0     H37917   5.258   9.517   6.480  1.0663  0.1019 -3.0721
  281MOL0     H37918   5.458   9.419   6.620  1.3797  0.0812  4.3417
  281MOL0     H37919   5.780   9.416   6.861 -0.4988 -0.0835 -0.0462
  281MOL0     H37920   5.943   9.393   7.052  2.1479 -2.1025 -0.0105
  281MOL0     H37921   7.451   8.430   7.243 -0.3365  0.1411  0.4406
  281MOL0     H37922   7.688   8.459   7.121  2.8441  0.0965 -0.0380
  281MOL0     H37923   8.071   8.659   7.042 -0.7443  0.0222  1.6283
  281MOL0     H37924   8.281   8.722   6.984 -1.4742  0.2707 -0.0828
  281MOL0     H37925   8.522   8.706   6.961  1.9500  2.4814 -2.1266
  281MOL0     H37926   8.459   8.866   6.997  0.6501  1.0687  0.8089
  281MOL0     H37927   8.664   8.939   7.089 -1.5965  2.5328 -2.3014
  281MOL0     H37928   8.661   8.911   6.919  0.5869  0.2322  0.6591
  281MOL0     H37929   8.788   8.701   6.932  1.1309  2.2022 -1.0558
  281MOL0     H37930   8.734   8.670   7.092  0.0984  0.8878  0.1158
  281MOL0     H37931   8.869   8.889   7.162 -0.2107  2.8382 -1.6601
  281MOL0     H37932   8.926   8.884   6.998 -1.8367 -0.9765 -1.2343
  281MOL0     H37933   9.152   8.563   7.152  3.0023  3.3224 -1.1844
  281MOL0     H37934   8.428   8.646   7.390 -0.8979  1.5551  0.6706
  281MOL0     H37935   8.191   8.570   7.449  3.2316 -0.9788 -0.3393
  282MOL0     O37936   8.755   4.183   1.427 -0.5508  0.1996  0.0773
  282MOL0     C37937   8.817   4.270   1.486 -0.4230 -1.3024 -0.1440
  282MOL0     O37938   8.784   4.307   1.612  0.2860  0.2251  0.2950
  282MOL0     C37939   8.668   4.261   1.664 -0.0346  0.0094 -0.1296
  282MOL0     C37940   8.545   4.283   1.598  1.0445  0.5881  0.2026
  282MOL0     C37941   8.428   4.221   1.644  0.6332  0.0912 -0.1923
  282MOL0     C37942   8.433   4.134   1.755 -0.7136  0.3684 -0.1127
  282MOL0     O37943   8.322   4.056   1.784 -0.4014  0.1019  0.3747
  282MOL0     C37944   8.322   3.990   1.900  0.8644 -0.2653 -1.1463
  282MOL0     C37945   8.183   3.934   1.930  0.8251  0.2170 -0.1022
  282MOL0     C37946   8.137   3.832   1.823  0.5790 -0.3279  0.4145
  282MOL0     C37947   7.998   3.784   1.849  0.1487  0.8915 -0.2751
  282MOL0     C37948   7.991   3.648   1.765 -0.3329 -0.1096 -0.7143
  282MOL0     C37949   7.846   3.604   1.725 -0.1530 -0.4292 -0.6476
  282MOL0     C37950   7.766   3.560   1.849 -0.7450 -0.2101 -0.2455
  282MOL0     C37951   7.631   3.493   1.803  0.5787 -0.7070 -0.1675
  282MOL0     N37952   7.559   3.586   1.715  0.8109 -0.1833  1.0439
  282MOL0     C37953   7.463   3.662   1.769 -0.0019 -0.1028 -0.1290
  282MOL0     C37954   7.409   3.726   1.657 -0.3766  0.3227 -0.1835
  282MOL0     C37955   7.305   3.843   1.656  0.1649 -0.7972 -0.4328
  282MOL0     C37956   7.324   3.957   1.766 -0.2393 -0.7215 -0.4185
  282MOL0     C37957   7.222   4.070   1.753 -0.5101  0.7261  0.0972
  282MOL0     C37958   7.074   4.026   1.767 -0.2110  0.3157 -0.6333
  282MOL0     O37959   6.973   4.127   1.750 -0.3219  0.4611 -0.2219
  282MOL0     C37960   6.847   4.078   1.729 -0.4425 -0.4252 -1.9082
  282MOL0     C37961   6.796   3.955   1.753 -0.2754 -0.4310  0.8287
  282MOL0     C37962   6.664   3.921   1.729 -0.3009 -0.0684  0.7997
  282MOL0     C37963   6.629   3.780   1.743  0.7123  0.3622 -0.2130
  282MOL0     C37964   6.568   4.017   1.686 -0.0296  0.5183  0.3602
  282MOL0     C37965   6.418   3.998   1.667 -1.0997  0.3560  0.2210
  282MOL0     O37966   6.374   3.869   1.646 -0.5385 -0.0244 -0.0799
  282MOL0     C37967   6.240   3.840   1.624  1.1419 -0.3557  0.6638
  282MOL0     C37968   6.195   3.733   1.693  0.7043 -0.2931  1.2317
  282MOL0     C37969   6.069   3.684   1.667 -0.3066 -0.2815 -0.5567
  282MOL0     C37970   5.980   3.748   1.594  0.0508  0.3817  1.2390
  282MOL0     O37971   5.850   3.703   1.586 -0.4318  0.5123  0.1488
  282MOL0     C37972   5.759   3.794   1.632  0.3314  0.3462  0.2856
  282MOL0     C37973   5.619   3.737   1.619  0.0598  0.0845 -0.4035
  282MOL0     C37974   5.513   3.839   1.669  0.0798 -0.4246 -0.3580
  282MOL0     C37975   5.385   3.770   1.709  0.2444 -0.3255 -0.5656
  282MOL0     C37976   5.316   3.834   1.832 -0.0604 -0.6896  0.1640
  282MOL0     C37977   5.253   3.971   1.803 -0.1132 -0.3098 -0.5280
  282MOL0     C37978   5.150   4.022   1.910  0.5519 -0.4787 -0.1872
  282MOL0     C37979   5.092   4.165   1.892 -0.3378 -0.7562  0.5973
  282MOL0    Cl37980   5.212   4.303   1.937  0.7076  0.0221  0.1408
  282MOL0     C37981   6.024   3.850   1.511 -0.0409 -0.4398 -0.0656
  282MOL0     C37982   6.157   3.898   1.528 -0.5238 -0.7681 -0.4584
  282MOL0     O37983   6.349   4.099   1.667 -0.1184 -0.1501 -0.0135
  282MOL0     C37984   6.618   4.136   1.649 -0.0523  0.0242  0.2829
  282MOL0     C37985   6.756   4.171   1.675  0.7287  0.4569  0.1727
  282MOL0     N37986   7.472   3.672   1.540 -0.4251 -0.4794  0.3405
  282MOL0     N37987   7.561   3.590   1.577 -0.3264  0.1550  0.8066
  282MOL0     C37988   8.560   4.118   1.818  0.2065  0.2009 -0.5644
  282MOL0     C37989   8.670   4.179   1.776  0.8107 -0.2139 -0.0967
  282MOL0     C37990   8.940   4.321   1.426  0.3553 -0.0978 -0.9709
  282MOL0     C37991   8.939   4.378   1.304  0.1903  1.3903 -0.0913
  282MOL0     C37992   9.053   4.432   1.247  0.2124 -0.0027 -0.6493
  282MOL0     C37993   9.180   4.430   1.315  0.7853  0.6171 -0.0984
  282MOL0     O37994   9.295   4.486   1.277 -0.2870  0.1406  0.2088
  282MOL0     C37995   9.323   4.546   1.154 -0.6733  0.1336 -0.3003
  282MOL0     C37996   9.431   4.470   1.081 -0.3112 -0.1346  0.9703
  282MOL0     C37997   9.382   4.358   0.983 -0.0507 -0.3672 -0.6860
  282MOL0     C37998   9.501   4.254   0.958  0.0221  0.0389 -0.6916
  282MOL0     C37999   9.614   4.317   0.893  0.8652 -0.6794  0.4628
  282MOL0     C38000   9.707   4.375   0.839 -0.0343  0.8292 -0.2399
  282MOL0     C38001   9.184   4.365   1.438  0.0726 -0.0491  1.3767
  282MOL0     C38002   9.064   4.315   1.497  0.4496  0.3884 -0.3277
  282MOL0     H38003   8.546   4.325   1.498  0.3756 -1.5070 -0.7471
  282MOL0     H38004   8.333   4.237   1.593  0.5171  2.4628  0.6176
  282MOL0     H38005   8.386   3.901   1.900  0.7828 -0.3265 -0.7107
  282MOL0     H38006   8.349   4.049   1.989 -0.1824 -0.6511 -0.5632
  282MOL0     H38007   8.192   3.875   2.022  0.5507 -0.1424 -0.3009
  282MOL0     H38008   8.117   4.021   1.937  1.8085  1.0741 -1.0492
  282MOL0     H38009   8.141   3.870   1.720 -1.4956 -0.4592  0.2541
  282MOL0     H38010   8.211   3.751   1.822  2.5391  1.3523  1.6982
  282MOL0     H38011   7.994   3.767   1.957  2.3364 -1.2684 -0.4297
  282MOL0     H38012   7.919   3.853   1.819 -0.6042  0.0055 -0.3779
  282MOL0     H38013   8.045   3.652   1.670  0.1627  0.2916 -0.4208
  282MOL0     H38014   8.046   3.571   1.819  3.3546  0.5823 -3.1110
  282MOL0     H38015   7.812   3.683   1.658  1.2225  0.3439 -0.4693
  282MOL0     H38016   7.846   3.509   1.670 -0.7110  0.4636 -2.2602
  282MOL0     H38017   7.829   3.486   1.898  2.9687  1.3208 -2.2267
  282MOL0     H38018   7.745   3.650   1.908 -0.0028  0.5660 -1.1295
  282MOL0     H38019   7.564   3.483   1.889  1.4839 -2.3841  0.3917
  282MOL0     H38020   7.661   3.397   1.761  0.7814 -0.9132  0.4419
  282MOL0     H38021   7.436   3.678   1.873  1.9518  1.0778  0.2470
  282MOL0     H38022   7.293   3.871   1.551 -0.1962 -0.4444 -0.3028
  282MOL0     H38023   7.208   3.800   1.685  0.6929 -1.0956  0.9797
  282MOL0     H38024   7.423   4.003   1.753 -0.6317 -0.0591 -1.1203
  282MOL0     H38025   7.312   3.920   1.868 -1.4955 -4.3628 -1.7474
  282MOL0     H38026   7.234   4.134   1.666 -2.0107  1.5934  0.4970
  282MOL0     H38027   7.247   4.138   1.835  2.7135  1.5854 -1.4170
  282MOL0     H38028   7.056   3.969   1.859 -0.6067  0.2592 -0.7430
  282MOL0     H38029   7.055   3.937   1.706  0.4854 -2.1293  2.4224
  282MOL0     H38030   6.852   3.890   1.820  1.5180  1.3117  1.1339
  282MOL0     H38031   6.712   3.725   1.788 -0.7294 -2.5464 -0.8744
  282MOL0     H38032   6.546   3.764   1.812  0.8052  0.8714  0.0208
  282MOL0     H38033   6.607   3.738   1.644  0.9337  1.1084 -0.5901
  282MOL0     H38034   6.260   3.679   1.761 -0.4544 -0.9669  1.8395
  282MOL0     H38035   6.035   3.592   1.714  0.8769 -0.5868 -0.2418
  282MOL0     H38036   5.780   3.812   1.738  0.3088  3.4173 -0.1325
  282MOL0     H38037   5.766   3.891   1.583 -0.0764  0.1186 -0.2325
  282MOL0     H38038   5.601   3.722   1.512 -2.5622  0.2588 -0.0614
  282MOL0     H38039   5.613   3.636   1.661 -0.7277 -0.3660 -1.5476
  282MOL0     H38040   5.503   3.916   1.592 -3.2053  0.4063  0.7653
  282MOL0     H38041   5.546   3.890   1.760 -3.9186  1.1992  0.3657
  282MOL0     H38042   5.312   3.760   1.628  0.7610  1.8200 -1.3592
  282MOL0     H38043   5.406   3.665   1.731 -2.5732 -0.8778 -0.0940
  282MOL0     H38044   5.386   3.851   1.915  2.5603 -0.1273 -2.0355
  282MOL0     H38045   5.238   3.765   1.866  0.4291 -1.0351  0.5920
  282MOL0     H38046   5.326   4.050   1.784 -0.9095  0.5629 -0.0369
  282MOL0     H38047   5.196   3.969   1.710 -0.4957  1.8161 -0.3750
  282MOL0     H38048   5.193   4.016   2.010  0.2065  3.1064  0.3082
  282MOL0     H38049   5.062   3.958   1.915  0.3406 -0.1873 -0.1573
  282MOL0     H38050   5.002   4.188   1.950 -0.9577 -1.7662  0.0668
  282MOL0     H38051   5.058   4.189   1.791  1.0074 -0.1110  0.2697
  282MOL0     H38052   5.967   3.897   1.432 -0.1139  1.3034  0.9792
  282MOL0     H38053   6.197   3.967   1.455 -0.5016  0.1005  0.3710
  282MOL0     H38054   6.548   4.215   1.623 -0.0823  0.8387  2.6087
  282MOL0     H38055   6.797   4.265   1.640 -0.5524  0.3426 -1.8230
  282MOL0     H38056   8.556   4.057   1.908  1.5328  1.3937  0.3645
  282MOL0     H38057   8.769   4.155   1.813  0.0807 -1.5450  1.0726
  282MOL0     H38058   8.848   4.376   1.244  0.5738 -0.4801 -0.6779
  282MOL0     H38059   9.043   4.478   1.149  6.1593  0.9117 -1.2076
  282MOL0     H38060   9.241   4.557   1.083 -0.9038  3.0438  0.2779
  282MOL0     H38061   9.353   4.649   1.176 -3.6648  0.9366  0.5058
  282MOL0     H38062   9.489   4.420   1.159 -1.6302 -3.4675  0.0181
  282MOL0     H38063   9.494   4.545   1.032 -0.3075  0.0979  1.3313
  282MOL0     H38064   9.360   4.394   0.882 -0.7645 -2.2502 -1.2340
  282MOL0     H38065   9.298   4.305   1.029 -0.2386  0.2063 -0.3553
  282MOL0     H38066   9.473   4.163   0.904 -1.5434  0.6675 -0.9800
  282MOL0     H38067   9.517   4.221   1.061 -2.2590  0.8085 -0.0378
  282MOL0     H38068   9.790   4.427   0.795  0.9812 -1.1872 -0.8727
  282MOL0     H38069   9.279   4.357   1.489  1.0919  0.6150 -0.3417
  282MOL0     H38070   9.075   4.256   1.588  1.8801 -1.6560 -1.7405
  283MOL0     O38071  10.172   3.714   3.219  0.4054  0.4653 -0.6071
  283MOL0     C38072  10.288   3.742   3.190 -0.9506 -0.5693 -0.3063
  283MOL0     O38073  10.319   3.843   3.103  0.5659 -0.4853 -0.9648
  283MOL0     C38074  10.234   3.888   3.011  0.5710  0.4050 -0.1804
  283MOL0     C38075  10.130   3.806   2.953  0.1511 -0.2674  0.4893
  283MOL0     C38076  10.041   3.859   2.863  0.5591 -0.0743  0.6761
  283MOL0     C38077  10.047   3.997   2.831 -0.4812 -0.0052 -0.1526
  283MOL0     O38078   9.963   4.057   2.734 -0.1398  0.3752 -0.7957
  283MOL0     C38079   9.844   3.990   2.692  0.4922  0.1358  0.1544
  283MOL0     C38080   9.729   4.080   2.636  0.1025 -0.0938 -0.0313
  283MOL0     C38081   9.691   4.206   2.717  0.4100  0.8926 -0.1080
  283MOL0     C38082   9.558   4.259   2.673 -0.6621 -0.5674 -0.4411
  283MOL0     C38083   9.509   4.358   2.777  0.0829 -0.6632  0.2444
  283MOL0     C38084   9.606   4.475   2.784  0.0445 -0.1155 -0.3748
  283MOL0     C38085   9.537   4.611   2.746  0.2238  0.4456  0.2157
  283MOL0     C38086   9.422   4.660   2.842 -0.7716  0.9036  0.4478
  283MOL0     N38087   9.352   4.784   2.800  0.6374 -0.2275 -0.2717
  283MOL0     C38088   9.235   4.790   2.728 -0.5500 -0.1334 -0.3709
  283MOL0     C38089   9.192   4.912   2.747  0.7236  0.2504  0.3236
  283MOL0     C38090   9.067   4.961   2.672 -0.1060 -0.8900  0.1629
  283MOL0     C38091   8.969   5.046   2.758  0.8389 -1.0139  0.6451
  283MOL0     C38092   8.843   5.105   2.678  0.4186  0.5987 -0.3171
  283MOL0     C38093   8.726   5.158   2.775 -0.2422 -1.0807 -0.5318
  283MOL0     O38094   8.628   5.207   2.688 -0.0773 -0.4497  0.4792
  283MOL0     C38095   8.494   5.213   2.722 -0.7227  0.1060 -0.4711
  283MOL0     C38096   8.403   5.225   2.618  0.8028  0.0612  0.0163
  283MOL0     C38097   8.267   5.210   2.643 -0.0498  0.4077  1.0596
  283MOL0     C38098   8.196   5.217   2.515  0.9899  1.0589  1.3614
  283MOL0     C38099   8.217   5.199   2.770 -0.1669  0.7418  0.6935
  283MOL0     C38100   8.076   5.198   2.793 -0.0716 -0.8798 -0.1977
  283MOL0     O38101   8.042   5.117   2.886  0.0062 -0.2167  0.1147
  283MOL0     C38102   7.908   5.080   2.891 -0.5874  0.2067  0.0024
  283MOL0     C38103   7.862   4.965   2.829 -0.5432  0.1450  0.2014
  283MOL0     C38104   7.722   4.937   2.819 -0.1792  0.0102  0.6445
  283MOL0     C38105   7.631   5.034   2.876 -0.6138  1.0682 -0.3423
  283MOL0     O38106   7.492   5.002   2.871 -0.3651 -0.4982 -0.0189
  283MOL0     C38107   7.408   5.060   2.967  0.2541  0.2526 -0.1482
  283MOL0     C38108   7.274   4.978   2.957 -0.2982 -0.8334 -0.0966
  283MOL0     C38109   7.179   5.010   3.081 -0.0565 -0.1783  0.9103
  283MOL0     C38110   7.144   5.154   3.085 -0.4613 -0.5088 -0.2426
  283MOL0     C38111   7.055   5.185   3.208  0.1717  0.8325  0.2799
  283MOL0     C38112   7.017   5.329   3.218  0.2391  0.1014  0.1099
  283MOL0     C38113   6.921   5.365   3.109 -0.2390  0.8714  0.2071
  283MOL0     C38114   6.824   5.480   3.134  0.1847 -0.0098  0.7065
  283MOL0    Cl38115   6.912   5.633   3.164  0.4094 -0.2217 -0.3553
  283MOL0     C38116   7.685   5.137   2.948  0.5103 -0.4490 -0.2355
  283MOL0     C38117   7.818   5.167   2.951 -0.1220  0.1457 -0.3874
  283MOL0     O38118   8.000   5.247   2.716 -0.4700 -0.0645 -0.0674
  283MOL0     C38119   8.312   5.191   2.873  0.2286  0.5162  0.0292
  283MOL0     C38120   8.448   5.201   2.849  0.4514 -0.3439  0.2336
  283MOL0     N38121   9.296   4.986   2.807  0.0090 -0.3935  0.3533
  283MOL0     N38122   9.381   4.908   2.840  0.2459  0.4073  0.0203
  283MOL0     C38123  10.160   4.071   2.877 -0.5535  0.1691 -0.7711
  283MOL0     C38124  10.253   4.012   2.959 -0.6472  0.5514 -0.1758
  283MOL0     C38125  10.401   3.697   3.271 -0.3771 -0.4751  0.0070
  283MOL0     C38126  10.532   3.738   3.245  0.3094 -0.6794  0.0225
  283MOL0     C38127  10.633   3.678   3.320  0.1621 -0.2145  0.5835
  283MOL0     C38128  10.612   3.604   3.430  0.8693 -0.6298  0.0932
  283MOL0     O38129  10.713   3.543   3.505 -0.4470 -0.2548  0.6819
  283MOL0     C38130  10.848   3.565   3.476  0.6155  0.1809 -0.9510
  283MOL0     C38131  10.914   3.462   3.567  0.4146  0.4810  0.3790
  283MOL0     C38132  11.066   3.483   3.588  0.4603  0.8316  0.4418
  283MOL0     C38133  11.133   3.347   3.640 -0.6366  0.4857 -0.6077
  283MOL0     C38134  11.278   3.357   3.683  0.5057 -0.8399 -0.5243
  283MOL0     C38135  11.388   3.364   3.725  0.6608  0.8016 -0.5882
  283MOL0     C38136  10.479   3.572   3.464  0.0285  0.4327 -0.3299
  283MOL0     C38137  10.378   3.613   3.379  0.5063 -0.4216 -0.5498
  283MOL0     H38138  10.130   3.701   2.977  1.0249 -0.5462 -0.6381
  283MOL0     H38139   9.965   3.798   2.816 -0.9423  2.7102 -0.7810
  283MOL0     H38140   9.876   3.912   2.623 -1.3951  0.3735 -1.0323
  283MOL0     H38141   9.799   3.939   2.777  0.4870 -0.0894  0.0157
  283MOL0     H38142   9.761   4.126   2.541 -1.0564  2.2005  0.6303
  283MOL0     H38143   9.640   4.020   2.617  0.6185 -1.7738  2.3775
  283MOL0     H38144   9.694   4.178   2.822  1.6047 -0.3940 -0.4559
  283MOL0     H38145   9.770   4.280   2.705  1.7140 -0.4889 -0.3603
  283MOL0     H38146   9.578   4.303   2.574  0.6915 -0.5429 -0.1748
  283MOL0     H38147   9.475   4.188   2.672 -0.3165 -0.9800 -0.2450
  283MOL0     H38148   9.408   4.394   2.759  0.5689  0.2021 -0.9469
  283MOL0     H38149   9.508   4.309   2.874  2.3896  0.1980  0.7836
  283MOL0     H38150   9.638   4.473   2.888  1.3366 -1.9926 -0.7599
  283MOL0     H38151   9.693   4.473   2.718  0.0444 -0.4207 -0.3665
  283MOL0     H38152   9.615   4.687   2.756  1.9897 -1.5441  3.3230
  283MOL0     H38153   9.490   4.608   2.647  0.2532  0.2296  0.2077
  283MOL0     H38154   9.472   4.683   2.937  0.7077 -0.6875  0.1067
  283MOL0     H38155   9.341   4.592   2.872 -2.5896  1.1036 -3.4580
  283MOL0     H38156   9.189   4.717   2.662 -2.3823 -2.5399  3.2408
  283MOL0     H38157   9.096   5.026   2.588 -0.4158 -0.3884  0.4370
  283MOL0     H38158   9.015   4.874   2.630 -0.7319  0.2762 -1.6114
  283MOL0     H38159   9.026   5.126   2.805  2.9115 -4.0540  3.7651
  283MOL0     H38160   8.930   4.990   2.843 -1.5281 -3.1017 -1.6492
  283MOL0     H38161   8.791   5.025   2.624  1.8210 -1.1161  0.7751
  283MOL0     H38162   8.881   5.188   2.617 -1.6498  3.2896  1.7968
  283MOL0     H38163   8.767   5.239   2.835 -0.6250 -1.4627  0.2560
  283MOL0     H38164   8.701   5.078   2.845 -1.9008 -0.2741 -0.1358
  283MOL0     H38165   8.449   5.226   2.520 -0.0923 -2.8347 -0.5467
  283MOL0     H38166   8.139   5.311   2.519 -2.2830 -0.7275  0.4882
  283MOL0     H38167   8.254   5.220   2.422 -4.8452 -0.8871 -2.9833
  283MOL0     H38168   8.119   5.143   2.494  0.5118  2.1855 -1.2487
  283MOL0     H38169   7.935   4.890   2.799 -0.7373 -0.0014  0.0921
  283MOL0     H38170   7.688   4.851   2.763  2.3747 -0.7984  0.2153
  283MOL0     H38171   7.446   5.050   3.069  1.0591  1.1216 -0.3478
  283MOL0     H38172   7.404   5.168   2.948 -0.4311  0.2340 -0.1278
  283MOL0     H38173   7.233   5.004   2.859  0.5605  0.9412 -0.0169
  283MOL0     H38174   7.294   4.870   2.951  2.9156 -0.2832 -2.9968
  283MOL0     H38175   7.236   4.992   3.173  1.6044 -1.1463 -0.2497
  283MOL0     H38176   7.095   4.940   3.084  0.5985 -0.9561  1.8028
  283MOL0     H38177   7.235   5.215   3.089 -0.3272 -0.5907 -1.6929
  283MOL0     H38178   7.092   5.173   2.991  0.5123  1.1844 -0.4938
  283MOL0     H38179   7.098   5.161   3.306 -3.3307 -0.3586  1.7013
  283MOL0     H38180   6.960   5.132   3.197  0.9475 -0.1019 -2.9982
  283MOL0     H38181   6.966   5.342   3.314  1.4745  2.4149  0.5475
  283MOL0     H38182   7.100   5.401   3.223  1.5664 -1.4354  1.3044
  283MOL0     H38183   6.862   5.273   3.095  0.9363  0.4106 -2.3322
  283MOL0     H38184   6.980   5.376   3.018 -0.3468 -1.2416 -0.1866
  283MOL0     H38185   6.759   5.447   3.215  0.3754 -1.9132  0.1453
  283MOL0     H38186   6.755   5.493   3.050  2.5455 -0.0013 -1.3555
  283MOL0     H38187   7.611   5.199   2.999  1.5697  1.8996 -1.3790
  283MOL0     H38188   7.856   5.253   3.005  0.2071 -1.1096  1.4597
  283MOL0     H38189   8.283   5.172   2.976  1.2471 -1.6547 -0.0305
  283MOL0     H38190   8.523   5.192   2.927  0.2508 -2.1486  0.2380
  283MOL0     H38191  10.187   4.165   2.829  2.0064 -1.7224 -3.4079
  283MOL0     H38192  10.332   4.077   2.996  0.2635  0.5260 -1.9924
  283MOL0     H38193  10.554   3.802   3.160 -1.1284 -0.5133 -0.2403
  283MOL0     H38194  10.736   3.695   3.287 -0.1054  0.4028  0.0488
  283MOL0     H38195  10.877   3.550   3.372  0.7255  1.8500 -1.1852
  283MOL0     H38196  10.871   3.667   3.510  0.2782  0.0459 -0.3050
  283MOL0     H38197  10.900   3.365   3.519 -0.2879  1.6362 -1.9318
  283MOL0     H38198  10.855   3.463   3.659 -1.1076  1.2070 -0.5567
  283MOL0     H38199  11.087   3.557   3.666  0.2900  2.0327 -0.6138
  283MOL0     H38200  11.107   3.523   3.494 -2.0517  2.1881 -0.1699
  283MOL0     H38201  11.117   3.268   3.566  0.7345 -0.4440  0.0403
  283MOL0     H38202  11.076   3.312   3.727 -0.7360  1.2577 -0.3585
  283MOL0     H38203  11.486   3.352   3.767 -0.0294  0.2612  0.9282
  283MOL0     H38204  10.468   3.508   3.551 -2.2636 -1.0006 -1.5681
  283MOL0     H38205  10.275   3.594   3.405 -0.2190  1.6372 -1.6657
  284MOL0     O38206   9.494   4.820  11.248 -0.4029 -0.7527  0.4786
  284MOL0     C38207   9.482   4.709  11.302  0.2994  0.8131 -0.0286
  284MOL0     O38208   9.583   4.630  11.351 -0.7124  0.4952  0.6195
  284MOL0     C38209   9.714   4.662  11.329 -0.8592  0.0874  0.5284
  284MOL0     C38210   9.815   4.670  11.431 -0.3257 -0.1513 -0.2047
  284MOL0     C38211   9.952   4.698  11.413  0.7212  0.3632  0.1100
  284MOL0     C38212   9.997   4.726  11.289 -0.0926 -0.2299  0.2045
  284MOL0     O38213  10.126   4.760  11.261 -0.1227 -0.3084 -0.5857
  284MOL0     C38214  10.211   4.806  11.373  0.5494  0.2304 -0.0814
  284MOL0     C38215  10.346   4.845  11.328 -0.5131  0.3161 -0.2077
  284MOL0     C38216  10.429   4.880  11.452 -0.1496  0.1388 -1.0198
  284MOL0     C38217  10.562   4.934  11.423 -0.2009  0.6031 -0.1216
  284MOL0     C38218  10.657   4.972  11.536 -0.1495 -0.3782  0.7627
  284MOL0     C38219  10.603   5.054  11.652 -0.4749 -0.0007  0.6351
  284MOL0     C38220  10.703   5.141  11.728 -0.0011  0.2644 -0.4482
  284MOL0     C38221  10.633   5.226  11.843 -0.4166 -0.9667  0.4156
  284MOL0     N38222  10.731   5.319  11.911  0.5277  0.3758 -0.2758
  284MOL0     C38223  10.752   5.452  11.887 -0.1573  0.4327  0.1977
  284MOL0     C38224  10.839   5.494  11.977 -0.0444 -0.1718  0.0404
  284MOL0     C38225  10.897   5.629  11.981  0.5286 -0.4837 -0.1604
  284MOL0     C38226  10.786   5.733  12.016 -0.0961 -1.2713  0.5365
  284MOL0     C38227  10.758   5.721  12.166  0.1241  0.5884 -0.7990
  284MOL0     C38228  10.640   5.805  12.211  0.5617  0.0473  0.5637
  284MOL0     O38229  10.658   5.945  12.204 -0.3668  0.0895 -0.5132
  284MOL0     C38230  10.554   6.023  12.166  0.4976 -0.1980  0.4098
  284MOL0     C38231  10.595   6.119  12.080 -0.4275  0.2505  0.2568
  284MOL0     C38232  10.509   6.223  12.029  0.0163  0.6097 -0.6755
  284MOL0     C38233  10.567   6.339  11.955 -0.0588  0.3876 -1.2924
  284MOL0     C38234  10.376   6.218  12.073  0.2744 -0.8581 -1.1562
  284MOL0     C38235  10.270   6.314  12.027 -0.2775 -0.7280  1.0388
  284MOL0     O38236  10.183   6.372  12.118  0.0920  0.3448  0.1835
  284MOL0     C38237  10.081   6.448  12.067  0.0475 -0.4121  0.0520
  284MOL0     C38238   9.949   6.394  12.054 -1.0598  0.1939 -0.0719
  284MOL0     C38239   9.845   6.473  11.996  0.6357 -0.2089  0.0822
  284MOL0     C38240   9.877   6.594  11.936  0.1925 -0.4373 -0.3723
  284MOL0     O38241   9.764   6.643  11.875 -0.2234  0.4393  0.0982
  284MOL0     C38242   9.762   6.788  11.857 -0.5567 -0.1401  0.5601
  284MOL0     C38243   9.629   6.828  11.798 -0.1730  0.4079  0.2518
  284MOL0     C38244   9.615   6.978  11.796 -0.2915  0.0579  0.7980
  284MOL0     C38245   9.468   7.016  11.783 -0.1327  0.4105 -0.9246
  284MOL0     C38246   9.444   7.168  11.806  0.3858  0.1268  0.6018
  284MOL0     C38247   9.295   7.199  11.788 -0.4952  0.2479 -0.5896
  284MOL0     C38248   9.196   7.116  11.864 -0.4974  0.0141  0.1786
  284MOL0     C38249   9.059   7.138  11.805 -0.1703 -0.2415  0.5475
  284MOL0    Cl38250   8.984   7.295  11.846  0.0793  0.1492  0.0816
  284MOL0     C38251  10.011   6.648  11.943 -0.0659 -0.1819  0.5321
  284MOL0     C38252  10.105   6.578  12.015 -0.2470  0.5582 -0.9643
  284MOL0     O38253  10.252   6.311  11.908 -0.2008  0.0769  0.6300
  284MOL0     C38254  10.335   6.118  12.165  0.6738  0.0117 -0.3527
  284MOL0     C38255  10.427   6.017  12.212  0.2236  0.4347 -0.2694
  284MOL0     N38256  10.895   5.377  12.038 -0.5129 -0.1944  0.6360
  284MOL0     N38257  10.826   5.275  12.001  0.3780  0.7367  0.5080
  284MOL0     C38258   9.901   4.736  11.184 -0.1355  0.4161  0.4137
  284MOL0     C38259   9.766   4.715  11.209 -0.1553 -0.0608  0.2228
  284MOL0     C38260   9.347   4.659  11.337  0.1807  0.4480 -0.3034
  284MOL0     C38261   9.338   4.522  11.378  0.3743 -0.4520  0.1295
  284MOL0     C38262   9.211   4.472  11.409  0.0401  0.8069 -0.1302
  284MOL0     C38263   9.096   4.546  11.404 -0.4320  0.1575 -0.4433
  284MOL0     O38264   8.972   4.501  11.439 -0.1265 -0.6135 -0.1709
  284MOL0     C38265   8.928   4.362  11.417 -0.3951  0.1810  0.9620
  284MOL0     C38266   8.780   4.359  11.427 -0.3361 -0.1418 -0.1904
  284MOL0     C38267   8.745   4.359  11.577 -0.6430  0.1682  0.7901
  284MOL0     C38268   8.596   4.375  11.607 -0.1938  0.1963 -0.1589
  284MOL0     C38269   8.528   4.258  11.542 -0.3352  0.3895  0.3709
  284MOL0     C38270   8.480   4.160  11.482 -0.7442  0.1558 -0.8538
  284MOL0     C38271   9.104   4.676  11.359  0.2133  0.5204 -0.3548
  284MOL0     C38272   9.227   4.732  11.324 -0.1315  0.1926  0.1708
  284MOL0     H38273   9.775   4.632  11.525 -1.2478 -0.2802 -0.6338
  284MOL0     H38274  10.030   4.692  11.488  1.1643  0.7541 -0.3092
  284MOL0     H38275  10.156   4.884  11.426 -3.7206 -2.4425 -0.1079
  284MOL0     H38276  10.217   4.727  11.449 -0.9762  0.3695  0.2127
  284MOL0     H38277  10.390   4.757  11.280 -2.3070  0.2664 -1.8584
  284MOL0     H38278  10.341   4.933  11.263 -0.2127  0.0730 -0.5679
  284MOL0     H38279  10.370   4.954  11.506  1.5788  1.0142 -0.2200
  284MOL0     H38280  10.436   4.798  11.523  0.1459  0.3184 -0.8362
  284MOL0     H38281  10.615   4.875  11.347  0.8572  1.1772  0.1491
  284MOL0     H38282  10.544   5.027  11.369 -0.4325 -0.2616 -1.5983
  284MOL0     H38283  10.696   4.882  11.583  2.1024  1.3530  2.4340
  284MOL0     H38284  10.743   5.020  11.488 -2.0393  3.9282  1.2420
  284MOL0     H38285  10.533   5.115  11.594  0.7025 -2.5472 -3.9727
  284MOL0     H38286  10.562   4.977  11.717 -3.1431  0.9636  0.1842
  284MOL0     H38287  10.788   5.078  11.755 -0.4732 -1.6091 -3.0080
  284MOL0     H38288  10.744   5.209  11.653  4.4331 -2.9550 -1.3153
  284MOL0     H38289  10.596   5.146  11.909  1.5735  0.3984  3.3881
  284MOL0     H38290  10.555   5.289  11.798  0.4044 -0.4408 -0.2848
  284MOL0     H38291  10.701   5.517  11.816 -0.3723  1.3722  1.1747
  284MOL0     H38292  10.981   5.626  12.051  0.5249 -2.6542 -0.1818
  284MOL0     H38293  10.941   5.653  11.884  0.3195 -0.6277 -0.2924
  284MOL0     H38294  10.691   5.728  11.962  1.3159  0.0798 -2.3050
  284MOL0     H38295  10.837   5.827  11.991  0.5189 -1.4812  0.9758
  284MOL0     H38296  10.839   5.761  12.229  1.8761 -2.0991 -1.2179
  284MOL0     H38297  10.742   5.615  12.184 -1.4044  0.8860 -0.2351
  284MOL0     H38298  10.616   5.770  12.312 -1.5141 -1.5632 -0.4062
  284MOL0     H38299  10.552   5.776  12.153  1.1595  0.9213 -0.8097
  284MOL0     H38300  10.698   6.123  12.048 -1.3791  2.9516 -3.0421
  284MOL0     H38301  10.496   6.411  11.912 -1.6347  0.4895  1.2752
  284MOL0     H38302  10.638   6.389  12.021 -1.7348  0.6103  0.4234
  284MOL0     H38303  10.627   6.296  11.874  2.2382 -0.0445  0.5267
  284MOL0     H38304   9.937   6.295  12.097 -1.4838  1.6095  3.3464
  284MOL0     H38305   9.749   6.426  11.981  0.8694 -1.1185  1.2736
  284MOL0     H38306   9.779   6.824  11.959  4.4555 -1.3092  0.3550
  284MOL0     H38307   9.843   6.823  11.793 -0.6679 -2.6610 -1.1032
  284MOL0     H38308   9.618   6.801  11.692 -0.4478  2.1376 -0.1962
  284MOL0     H38309   9.556   6.792  11.871  0.5128  0.7439  1.1198
  284MOL0     H38310   9.673   7.021  11.713 -0.6957  2.1478  1.5312
  284MOL0     H38311   9.647   7.023  11.891 -2.9083  0.7124  1.4406
  284MOL0     H38312   9.430   6.970  11.692 -1.6662 -0.1014 -0.0812
  284MOL0     H38313   9.415   6.974  11.869 -0.4117  0.5577 -1.0237
  284MOL0     H38314   9.480   7.219  11.717 -0.0719 -2.3445 -1.0935
  284MOL0     H38315   9.493   7.206  11.897 -0.2128  2.2986  0.0715
  284MOL0     H38316   9.291   7.303  11.819  1.2964  0.4106 -0.8243
  284MOL0     H38317   9.278   7.196  11.680 -1.4179 -3.4698 -0.4754
  284MOL0     H38318   9.201   7.127  11.972  2.0038  0.5068  0.0700
  284MOL0     H38319   9.210   7.009  11.844 -3.0580  0.1023 -2.8246
  284MOL0     H38320   8.995   7.063  11.852  0.8549 -0.2478  1.9811
  284MOL0     H38321   9.059   7.109  11.699  0.6193  0.2135  0.4168
  284MOL0     H38322  10.015   6.746  11.896 -2.7256 -0.3390 -0.1624
  284MOL0     H38323  10.199   6.630  12.030 -0.6072  0.3088  3.4706
  284MOL0     H38324  10.230   6.107  12.190  0.4177 -1.4512 -1.8864
  284MOL0     H38325  10.425   5.939  12.287  0.7457 -1.9133 -2.5713
  284MOL0     H38326   9.932   4.764  11.083  2.8742 -3.8833 -0.1020
  284MOL0     H38327   9.698   4.713  11.125  1.5794  1.0475 -1.2892
  284MOL0     H38328   9.424   4.455  11.369  0.2761 -0.6911  0.9230
  284MOL0     H38329   9.190   4.372  11.446 -1.4373 -0.0943 -3.0321
  284MOL0     H38330   8.960   4.314  11.324  0.1232  1.0351  0.6922
  284MOL0     H38331   8.971   4.290  11.487  1.6405 -0.7494 -1.1163
  284MOL0     H38332   8.754   4.266  11.376  1.3588 -0.5832 -0.3094
  284MOL0     H38333   8.733   4.445  11.378 -1.5756 -1.0894 -0.6889
  284MOL0     H38334   8.789   4.452  11.616 -2.2289  1.6885 -0.8243
  284MOL0     H38335   8.779   4.267  11.625  1.8562 -0.3026 -1.6376
  284MOL0     H38336   8.547   4.468  11.575 -2.1561 -2.0418 -4.6407
  284MOL0     H38337   8.593   4.364  11.715 -2.5065  0.1022 -0.1886
  284MOL0     H38338   8.457   4.072  11.427  2.7315 -3.3589  2.6705
  284MOL0     H38339   9.020   4.745  11.350  1.4263  1.9615 -0.9947
  284MOL0     H38340   9.238   4.835  11.291  0.7201 -0.4743 -1.7658
  285MOL0     O38341   3.546   4.802   9.467 -0.5667 -0.0064  0.2114
  285MOL0     C38342   3.642   4.879   9.454  0.2723  0.3244  0.7576
  285MOL0     O38343   3.635   5.012   9.460  1.0216  0.1212 -0.3563
  285MOL0     C38344   3.516   5.062   9.508 -0.0161  0.3216  0.4944
  285MOL0     C38345   3.410   5.099   9.426 -0.8400  0.4405  0.7128
  285MOL0     C38346   3.292   5.145   9.470 -0.0074  0.7302 -0.3501
  285MOL0     C38347   3.255   5.143   9.605 -0.7537 -0.0610 -0.1815
  285MOL0     O38348   3.136   5.174   9.661  0.2765  0.4102  0.1976
  285MOL0     C38349   3.024   5.204   9.569  0.1493  0.6628 -1.3149
  285MOL0     C38350   2.898   5.202   9.658  0.4746  0.0937  0.3418
  285MOL0     C38351   2.780   5.245   9.564  0.3277  0.8943 -0.1237
  285MOL0     C38352   2.661   5.294   9.645  0.2748 -0.9061  0.6636
  285MOL0     C38353   2.560   5.344   9.549  0.2129 -0.1485 -0.1836
  285MOL0     C38354   2.443   5.402   9.626  0.3878  0.0028  0.2850
  285MOL0     C38355   2.335   5.438   9.516  0.5111  0.5270 -0.1706
  285MOL0     C38356   2.199   5.476   9.585  1.4982  0.4933  0.1875
  285MOL0     N38357   2.111   5.357   9.605  0.0386  0.3901  0.4977
  285MOL0     C38358   2.021   5.300   9.515 -0.3471  0.3783  0.3226
  285MOL0     C38359   1.960   5.199   9.590 -0.0763  0.1363  0.4808
  285MOL0     C38360   1.849   5.092   9.557 -0.3078 -0.3718  0.3172
  285MOL0     C38361   1.799   5.017   9.688 -0.0756 -0.3884 -0.2344
  285MOL0     C38362   1.657   4.958   9.662 -0.3539  0.4137  0.2740
  285MOL0     C38363   1.662   4.830   9.574  0.4912  0.0378  0.4201
  285MOL0     O38364   1.684   4.721   9.666  0.1037 -0.2692  0.4125
  285MOL0     C38365   1.755   4.617   9.618  0.0864  0.0619 -0.1143
  285MOL0     C38366   1.762   4.515   9.712  1.1101  0.6976 -0.1138
  285MOL0     C38367   1.861   4.418   9.706 -0.7976 -0.8493  0.2599
  285MOL0     C38368   1.895   4.333   9.828 -0.3683 -0.1220 -0.1289
  285MOL0     C38369   1.933   4.413   9.583  0.2495 -0.2462 -0.7902
  285MOL0     C38370   2.044   4.316   9.569  0.0462  0.2466 -0.6534
  285MOL0     O38371   2.138   4.348   9.477  0.1413 -0.4886 -0.1650
  285MOL0     C38372   2.251   4.260   9.480  1.5219 -0.1144 -0.1506
  285MOL0     C38373   2.334   4.272   9.590  0.0729 -0.3362 -0.8697
  285MOL0     C38374   2.453   4.192   9.600  0.2078  0.1152  0.6110
  285MOL0     C38375   2.498   4.116   9.489  0.6682 -0.0207 -0.0256
  285MOL0     O38376   2.603   4.034   9.495  0.0187  0.7555 -0.1549
  285MOL0     C38377   2.714   4.060   9.582 -0.0658 -0.1772 -0.1146
  285MOL0     C38378   2.835   3.979   9.562  0.5705  0.6247  0.4449
  285MOL0     C38379   2.817   3.833   9.601 -1.0868  0.2949 -0.2888
  285MOL0     C38380   2.932   3.744   9.562  0.8398 -1.0210  0.4139
  285MOL0     C38381   2.904   3.596   9.600  0.1657  0.0854 -0.4352
  285MOL0     C38382   3.018   3.507   9.556 -0.4818 -0.7334 -1.1652
  285MOL0     C38383   2.976   3.360   9.551 -0.9264 -0.5757 -0.4653
  285MOL0     C38384   2.859   3.334   9.462  0.0160 -1.1519 -0.0329
  285MOL0    Cl38385   2.848   3.160   9.426  0.1111  0.0789  0.2141
  285MOL0     C38386   2.416   4.109   9.375 -0.1262 -0.7260 -0.4751
  285MOL0     C38387   2.289   4.167   9.376  0.0154  0.2097 -0.1119
  285MOL0     O38388   2.023   4.200   9.613  0.2220 -0.1969 -0.7324
  285MOL0     C38389   1.903   4.502   9.481  0.3294 -0.7719  0.2450
  285MOL0     C38390   1.804   4.598   9.492 -0.1827 -0.3777  0.4222
  285MOL0     N38391   2.008   5.210   9.723  0.2573 -0.1513 -0.2901
  285MOL0     N38392   2.108   5.294   9.728  0.1675  0.6325  0.4758
  285MOL0     C38393   3.371   5.130   9.694  0.5547 -1.0336  0.1674
  285MOL0     C38394   3.492   5.084   9.644 -0.4900  0.1116 -0.7895
  285MOL0     C38395   3.768   4.829   9.418 -0.0656 -0.2207  0.0364
  285MOL0     C38396   3.795   4.697   9.380 -0.6448 -0.1753  0.0083
  285MOL0     C38397   3.912   4.659   9.319  0.2219  0.2476 -0.0365
  285MOL0     C38398   4.012   4.746   9.295  0.2063  0.3260  0.0371
  285MOL0     O38399   4.120   4.714   9.225 -0.1841  0.0759 -0.3865
  285MOL0     C38400   4.154   4.788   9.100  0.3127  1.0110  0.3241
  285MOL0     C38401   4.065   4.735   8.985  0.3719 -0.2350 -0.3671
  285MOL0     C38402   4.134   4.771   8.853 -0.3230  0.0125  0.0537
  285MOL0     C38403   4.053   4.704   8.739 -0.4588 -0.3927  0.2521
  285MOL0     C38404   4.139   4.704   8.617 -0.5235 -0.2735 -0.9377
  285MOL0     C38405   4.205   4.710   8.515  0.3470  0.5493  0.6704
  285MOL0     C38406   4.008   4.867   9.359  0.3378 -0.4942 -0.0524
  285MOL0     C38407   3.881   4.908   9.413  0.2810 -0.3121  0.2237
  285MOL0     H38408   3.421   5.085   9.319 -1.1372 -3.0044  1.0218
  285MOL0     H38409   3.223   5.152   9.387  0.7034 -0.5441 -1.0759
  285MOL0     H38410   3.047   5.303   9.529 -1.4175  1.9147  0.7181
  285MOL0     H38411   3.018   5.139   9.481  0.7032 -0.5507 -0.4813
  285MOL0     H38412   2.882   5.111   9.716  2.6401 -0.0034  0.8705
  285MOL0     H38413   2.895   5.282   9.733 -2.2261 -0.7912  1.3167
  285MOL0     H38414   2.819   5.335   9.516  1.8411  3.3601  4.9815
  285MOL0     H38415   2.744   5.163   9.500 -0.2151  0.1339  1.1104
  285MOL0     H38416   2.638   5.207   9.707  1.8135 -1.3726  0.6334
  285MOL0     H38417   2.688   5.376   9.711  0.2064 -0.9790  0.7820
  285MOL0     H38418   2.605   5.405   9.470  1.0878 -2.4914 -1.6329
  285MOL0     H38419   2.516   5.258   9.497 -1.7060  1.0353 -0.6040
  285MOL0     H38420   2.407   5.343   9.712  0.9459 -3.6400 -1.7643
  285MOL0     H38421   2.477   5.500   9.659  2.3134 -0.1880 -0.9872
  285MOL0     H38422   2.379   5.517   9.455  2.6680  1.6067  2.5471
  285MOL0     H38423   2.317   5.356   9.447 -0.6861  0.8365 -0.2451
  285MOL0     H38424   2.147   5.551   9.525 -1.0243 -1.5203 -0.3284
  285MOL0     H38425   2.219   5.518   9.685 -3.8205  0.8810  1.4311
  285MOL0     H38426   2.022   5.313   9.407 -1.0801  1.6431  0.4488
  285MOL0     H38427   1.779   5.151   9.497 -2.1079 -0.3820  2.2752
  285MOL0     H38428   1.894   5.015   9.495 -0.9954 -0.6089  0.1044
  285MOL0     H38429   1.785   5.087   9.770  0.4487 -0.1924 -0.3137
  285MOL0     H38430   1.871   4.941   9.720 -0.0960 -0.8124 -1.1480
  285MOL0     H38431   1.598   5.036   9.612  2.0088  1.9437 -0.2580
  285MOL0     H38432   1.602   4.933   9.753 -3.5516  0.7150 -1.4120
  285MOL0     H38433   1.752   4.839   9.511  0.0364 -3.0697 -0.8989
  285MOL0     H38434   1.577   4.814   9.507  2.9699 -3.5746 -2.3365
  285MOL0     H38435   1.709   4.520   9.806 -1.2150  1.4825 -1.3891
  285MOL0     H38436   1.998   4.301   9.844 -1.2849 -4.0339 -1.1331
  285MOL0     H38437   1.850   4.368   9.921 -0.3436  0.6871 -0.4132
  285MOL0     H38438   1.847   4.236   9.817  0.1873 -0.2638 -1.5166
  285MOL0     H38439   2.323   4.346   9.669 -1.8532  0.0318 -1.4502
  285MOL0     H38440   2.503   4.201   9.697  0.4348  4.1120  0.3003
  285MOL0     H38441   2.745   4.165   9.573  1.6327 -0.7888 -3.3442
  285MOL0     H38442   2.678   4.045   9.684  1.0361 -1.2667  0.1360
  285MOL0     H38443   2.874   3.982   9.460  0.1815  1.3043  0.3074
  285MOL0     H38444   2.918   4.007   9.627  2.4108  0.8575 -1.8946
  285MOL0     H38445   2.731   3.787   9.553 -1.3532 -0.6552  1.0443
  285MOL0     H38446   2.813   3.820   9.709 -1.6328 -0.5391 -0.4028
  285MOL0     H38447   2.958   3.739   9.455  0.0511 -1.3653  0.2336
  285MOL0     H38448   3.005   3.780   9.635 -0.2273 -0.2228  1.1103
  285MOL0     H38449   2.805   3.580   9.555 -0.3352 -1.5638  1.1401
  285MOL0     H38450   2.897   3.585   9.708  3.8346  0.5248 -0.0563
  285MOL0     H38451   3.062   3.534   9.459 -0.4434 -1.7885 -1.4548
  285MOL0     H38452   3.096   3.509   9.632  0.0725 -0.8147 -1.7229
  285MOL0     H38453   2.955   3.326   9.653  0.0033  0.6461  0.1611
  285MOL0     H38454   3.066   3.302   9.530  1.0629  2.2700 -0.3199
  285MOL0     H38455   2.866   3.388   9.367 -2.9666 -3.0401 -1.5111
  285MOL0     H38456   2.768   3.363   9.515  1.2655  2.4706  0.3529
  285MOL0     H38457   2.450   4.071   9.279  0.6678 -0.6912 -0.2149
  285MOL0     H38458   2.235   4.152   9.283  0.3741 -0.9316 -0.1458
  285MOL0     H38459   1.958   4.498   9.388 -1.1627 -2.4307 -0.6166
  285MOL0     H38460   1.787   4.660   9.405  2.3658 -2.0408 -1.4159
  285MOL0     H38461   3.347   5.137   9.800 -1.5175 -0.5485 -0.2875
  285MOL0     H38462   3.563   5.059   9.722 -1.8366 -1.5291 -0.0197
  285MOL0     H38463   3.711   4.631   9.399 -0.3489 -0.8619 -0.9913
  285MOL0     H38464   3.926   4.554   9.294 -0.3048  0.5857 -1.8850
  285MOL0     H38465   4.138   4.895   9.108 -1.2410  0.8872 -0.7804
  285MOL0     H38466   4.258   4.759   9.080 -0.4711 -2.7399  0.7703
  285MOL0     H38467   3.964   4.774   8.998 -0.3320 -2.2619  0.7929
  285MOL0     H38468   4.053   4.626   8.996 -0.2788 -0.2310 -0.9427
  285MOL0     H38469   4.237   4.735   8.853 -0.1005  0.5583 -2.1799
  285MOL0     H38470   4.131   4.879   8.837 -0.3109  0.1429  0.8531
  285MOL0     H38471   3.969   4.774   8.729  0.6478  1.4460  2.7364
  285MOL0     H38472   4.020   4.605   8.772 -0.3692 -0.3910  0.3440
  285MOL0     H38473   4.271   4.697   8.432 -1.0548  2.0173 -0.7643
  285MOL0     H38474   4.102   4.919   9.375  0.9011 -1.6720  0.5751
  285MOL0     H38475   3.881   5.010   9.451  1.3769 -0.9209  1.9212
  286MOL0     O38476   7.289   4.789   2.028 -0.4803 -0.3506 -0.1030
  286MOL0     C38477   7.343   4.881   1.969 -1.0615 -0.3054  0.2942
  286MOL0     O38478   7.284   4.999   1.938 -0.5743  0.1853  0.3193
  286MOL0     C38479   7.152   5.000   1.927 -0.0777  0.5087 -0.1947
  286MOL0     C38480   7.099   4.947   1.806  0.8124 -0.7638  0.4255
  286MOL0     C38481   6.964   4.966   1.763  0.2063  0.3568 -0.5792
  286MOL0     C38482   6.882   5.021   1.860 -0.0107 -0.0686 -0.1178
  286MOL0     O38483   6.751   5.013   1.823 -0.4855  0.3749  0.0034
  286MOL0     C38484   6.680   4.933   1.916 -0.4517  0.5571 -0.0408
  286MOL0     C38485   6.538   4.889   1.871 -0.3373  0.6044  0.4736
  286MOL0     C38486   6.444   5.014   1.854  0.3992 -0.3770  0.5262
  286MOL0     C38487   6.301   4.960   1.818  0.5765  0.4782  0.2289
  286MOL0     C38488   6.201   5.064   1.847 -0.7715 -0.4056  0.6056
  286MOL0     C38489   6.060   5.014   1.806  0.1116 -0.2827  0.3743
  286MOL0     C38490   5.950   5.096   1.874  0.6166 -0.7612  0.2507
  286MOL0     C38491   5.817   5.030   1.836 -0.9444 -0.8474 -0.0798
  286MOL0     N38492   5.729   5.081   1.935 -0.2791 -0.1983  0.7829
  286MOL0     C38493   5.677   5.210   1.930  0.8941  0.0336 -0.8134
  286MOL0     C38494   5.584   5.221   2.029 -0.6307  0.3017  0.2632
  286MOL0     C38495   5.519   5.346   2.074  0.0820 -0.1034  0.6687
  286MOL0     C38496   5.384   5.307   2.133  0.8601  0.9246 -0.6002
  286MOL0     C38497   5.299   5.430   2.174 -0.0252  0.7472  0.8383
  286MOL0     C38498   5.211   5.403   2.292  0.6051  1.1667  0.2237
  286MOL0     O38499   5.136   5.522   2.330 -0.1783 -0.4244  0.7860
  286MOL0     C38500   5.049   5.504   2.433 -0.0494  0.7567 -0.6765
  286MOL0     C38501   4.958   5.617   2.449 -0.2545  0.1599  0.4964
  286MOL0     C38502   4.849   5.610   2.541  0.4798 -0.1905 -1.1708
  286MOL0     C38503   4.753   5.737   2.561 -0.5652 -0.1129 -0.1969
  286MOL0     C38504   4.839   5.492   2.626 -0.5876 -0.5896 -1.0243
  286MOL0     C38505   4.728   5.476   2.733  0.1697 -0.1825  0.5106
  286MOL0     O38506   4.709   5.578   2.812  0.2765  0.5005 -0.2114
  286MOL0     C38507   4.621   5.577   2.920 -0.3661 -0.2514  0.0701
  286MOL0     C38508   4.579   5.699   2.970 -0.6540 -0.2273 -0.3569
  286MOL0     C38509   4.488   5.703   3.073  0.1640  0.4761  0.1459
  286MOL0     C38510   4.446   5.578   3.141 -0.0621  0.3829 -0.0901
  286MOL0     O38511   4.361   5.584   3.244 -0.7616 -0.9339 -0.0995
  286MOL0     C38512   4.242   5.667   3.218 -0.1222  0.0186 -0.2537
  286MOL0     C38513   4.126   5.604   3.287  0.1355  0.2295  0.7241
  286MOL0     C38514   3.996   5.688   3.254  0.3737 -0.4049 -0.4352
  286MOL0     C38515   3.880   5.640   3.333  0.9723  0.3390  0.2216
  286MOL0     C38516   3.756   5.728   3.322 -0.2323 -0.6133 -0.0866
  286MOL0     C38517   3.652   5.665   3.405  0.2975 -0.0970  0.6435
  286MOL0     C38518   3.637   5.713   3.549  0.1060  1.2875  0.5989
  286MOL0     C38519   3.506   5.686   3.621 -0.2031 -0.5105 -0.0053
  286MOL0    Cl38520   3.461   5.519   3.618 -0.3100  0.4999 -0.1468
  286MOL0     C38521   4.494   5.458   3.103 -0.2458 -0.2402  0.9050
  286MOL0     C38522   4.578   5.458   2.992 -0.0266 -0.0503  0.0698
  286MOL0     O38523   4.664   5.372   2.731  0.2028  0.1793  0.0094
  286MOL0     C38524   4.923   5.382   2.609  0.1639 -0.2647 -0.6603
  286MOL0     C38525   5.025   5.394   2.515  0.2882  0.5154  0.3219
  286MOL0     N38526   5.593   5.101   2.107 -0.4281  0.6044 -0.5372
  286MOL0     N38527   5.690   5.022   2.059  0.6568  0.1313  0.6678
  286MOL0     C38528   6.928   5.069   1.981  1.3849 -0.0504 -0.3567
  286MOL0     C38529   7.066   5.066   2.017 -0.0013  0.1594  0.2044
  286MOL0     C38530   7.485   4.865   1.942 -0.6727 -0.4234  0.6958
  286MOL0     C38531   7.542   4.961   1.853 -0.2015  0.1386  0.4737
  286MOL0     C38532   7.677   4.959   1.830 -0.4005 -1.3092 -0.0068
  286MOL0     C38533   7.758   4.858   1.878 -0.8034 -0.2960  0.1566
  286MOL0     O38534   7.893   4.869   1.840 -0.1383  0.0224  0.1300
  286MOL0     C38535   7.987   4.783   1.904 -0.4303 -0.5890  0.3443
  286MOL0     C38536   8.021   4.818   2.053 -0.6928 -0.4863  1.2290
  286MOL0     C38537   8.028   4.973   2.069 -0.2342 -0.3821 -0.2319
  286MOL0     C38538   8.064   5.008   2.216  0.4828 -0.0558  0.3851
  286MOL0     C38539   8.197   4.962   2.243  0.1240 -0.6740 -0.4758
  286MOL0     C38540   8.299   4.923   2.288  0.1593  0.4731  0.6054
  286MOL0     C38541   7.705   4.759   1.963  0.3268 -0.3359 -0.1228
  286MOL0     C38542   7.571   4.775   2.002 -0.5398  0.4922 -0.0018
  286MOL0     H38543   7.163   4.908   1.728  1.6000  2.4521 -0.7227
  286MOL0     H38544   6.919   4.926   1.673 -0.6147 -2.3210  0.9308
  286MOL0     H38545   6.742   4.846   1.941 -0.8737 -0.3473 -2.0052
  286MOL0     H38546   6.666   4.991   2.008  0.0172  0.9386 -0.2071
  286MOL0     H38547   6.552   4.834   1.778  1.1649  2.0178 -0.1745
  286MOL0     H38548   6.485   4.818   1.936 -3.0688  1.9009 -0.1804
  286MOL0     H38549   6.442   5.073   1.946  2.1828  1.3538 -0.4529
  286MOL0     H38550   6.472   5.085   1.775 -0.5970  0.2916  0.7455
  286MOL0     H38551   6.285   4.929   1.714 -0.7159  2.4740 -0.2284
  286MOL0     H38552   6.265   4.877   1.879  0.8237  0.1484 -0.0685
  286MOL0     H38553   6.204   5.073   1.956 -1.5130  2.8096  0.4445
  286MOL0     H38554   6.228   5.165   1.815  0.7257 -1.1903 -0.7818
  286MOL0     H38555   6.042   5.027   1.700  0.3337 -0.3797  0.3226
  286MOL0     H38556   6.053   4.908   1.835  0.6487  0.2165  2.5593
  286MOL0     H38557   5.951   5.089   1.983  0.5183 -0.0432  0.3042
  286MOL0     H38558   5.951   5.203   1.851  2.1507 -0.7913  0.0459
  286MOL0     H38559   5.820   4.921   1.851 -0.1108 -0.3576  5.1357
  286MOL0     H38560   5.780   5.046   1.734 -0.8758 -1.7943 -0.2627
  286MOL0     H38561   5.701   5.290   1.860 -1.2374  1.2824 -0.2137
  286MOL0     H38562   5.579   5.401   2.147 -0.5613  0.9282  0.4369
  286MOL0     H38563   5.505   5.409   1.986 -0.5080 -0.2748  0.6339
  286MOL0     H38564   5.401   5.245   2.221  1.5830  1.6894 -0.1827
  286MOL0     H38565   5.333   5.250   2.055  0.5778  1.0902 -0.5416
  286MOL0     H38566   5.241   5.466   2.088  2.4130  0.2288 -1.1242
  286MOL0     H38567   5.363   5.514   2.205  0.0161  0.8124  0.5771
  286MOL0     H38568   5.281   5.373   2.371  2.4273  0.7455 -1.4579
  286MOL0     H38569   5.150   5.319   2.257  1.4708  0.7199 -0.2503
  286MOL0     H38570   4.957   5.712   2.396  3.9793  0.4881  0.7246
  286MOL0     H38571   4.801   5.832   2.537 -0.6374  0.7580  2.6546
  286MOL0     H38572   4.661   5.701   2.514 -0.7414  1.2261 -0.9207
  286MOL0     H38573   4.727   5.757   2.666  1.6975  3.1002 -0.0860
  286MOL0     H38574   4.619   5.781   2.911 -0.8283 -2.0388 -3.2171
  286MOL0     H38575   4.456   5.801   3.108 -2.0392  0.5671 -1.8833
  286MOL0     H38576   4.259   5.773   3.239 -0.2358  0.0395 -0.2683
  286MOL0     H38577   4.225   5.653   3.111 -1.1510 -0.1584 -0.0773
  286MOL0     H38578   4.119   5.500   3.252  0.1543  0.1143  1.0644
  286MOL0     H38579   4.147   5.611   3.394 -0.0207  1.8828  0.6785
  286MOL0     H38580   3.976   5.660   3.151 -1.2189 -2.2752  0.3229
  286MOL0     H38581   4.010   5.797   3.261 -2.6151  0.0440  0.0448
  286MOL0     H38582   3.855   5.538   3.302  2.4585  0.2598 -0.8287
  286MOL0     H38583   3.915   5.637   3.436 -1.7375  1.0960  1.2555
  286MOL0     H38584   3.731   5.726   3.216  0.2532  1.2811 -0.2822
  286MOL0     H38585   3.780   5.826   3.365 -1.7628 -0.4472  0.4386
  286MOL0     H38586   3.556   5.690   3.358  0.7630 -2.1566 -1.5795
  286MOL0     H38587   3.661   5.556   3.400 -1.2869 -0.2482  0.5730
  286MOL0     H38588   3.665   5.819   3.549  4.3736  0.3301  1.9752
  286MOL0     H38589   3.720   5.664   3.600  0.7138 -0.3537 -1.7714
  286MOL0     H38590   3.426   5.745   3.576 -2.2998 -1.2317  2.5127
  286MOL0     H38591   3.518   5.733   3.720 -1.6395  2.5212 -1.1511
  286MOL0     H38592   4.463   5.372   3.161  0.6551 -1.1183  0.1199
  286MOL0     H38593   4.624   5.364   2.964 -4.7399 -3.1618  1.7054
  286MOL0     H38594   4.911   5.289   2.663  2.1788  0.3359  1.0160
  286MOL0     H38595   5.092   5.310   2.504  0.0298  0.4545 -0.8844
  286MOL0     H38596   6.852   5.102   2.052  1.2636  1.3945 -1.1096
  286MOL0     H38597   7.088   5.115   2.112 -3.5633  0.5935  0.9394
  286MOL0     H38598   7.475   5.038   1.816 -2.1991 -1.8498 -0.2433
  286MOL0     H38599   7.719   5.036   1.765 -1.7646 -1.2511 -0.8793
  286MOL0     H38600   7.963   4.677   1.895  0.5703 -1.1177  2.9175
  286MOL0     H38601   8.084   4.805   1.858 -0.9354  4.8668  1.1689
  286MOL0     H38602   8.122   4.782   2.072 -0.6252 -0.3830  1.0670
  286MOL0     H38603   7.949   4.779   2.126 -1.8058 -2.2699 -0.6870
  286MOL0     H38604   7.930   5.019   2.057  1.2727  4.3274  2.7814
  286MOL0     H38605   8.094   5.024   1.998 -1.4913  0.6947 -0.6672
  286MOL0     H38606   7.995   4.977   2.295  0.2883  0.3864  0.3908
  286MOL0     H38607   8.049   5.116   2.223  1.0095  0.0844 -0.4896
  286MOL0     H38608   8.391   4.903   2.339 -0.6816 -0.7654  1.7129
  286MOL0     H38609   7.769   4.686   2.010 -1.5464 -1.5668  0.6226
  286MOL0     H38610   7.530   4.708   2.076  0.9149 -2.3696 -1.5988
  287MOL0     O38611   8.665   0.983   5.609 -0.0461 -0.1631  0.6241
  287MOL0     C38612   8.756   1.060   5.644 -0.8107  0.6119  0.5700
  287MOL0     O38613   8.734   1.181   5.705  0.4529 -0.5142 -0.2056
  287MOL0     C38614   8.622   1.249   5.686 -0.2688 -0.5441  0.6543
  287MOL0     C38615   8.601   1.332   5.574  0.1877  0.4055 -0.8466
  287MOL0     C38616   8.485   1.412   5.568  0.9307 -0.9167 -0.1820
  287MOL0     C38617   8.389   1.413   5.669 -0.1853 -0.5907  0.7709
  287MOL0     O38618   8.278   1.485   5.677 -0.4210 -1.0560 -0.4224
  287MOL0     C38619   8.255   1.592   5.575 -0.6070  0.5702  0.2929
  287MOL0     C38620   8.123   1.663   5.593 -0.3399 -1.2466  0.1532
  287MOL0     C38621   8.014   1.565   5.638 -0.6995 -0.6140 -0.2466
  287MOL0     C38622   7.884   1.641   5.643 -0.6731 -0.2291 -0.1246
  287MOL0     C38623   7.832   1.676   5.502  0.2956  0.4642  0.0423
  287MOL0     C38624   7.713   1.769   5.497 -0.8387 -0.5246  0.0873
  287MOL0     C38625   7.655   1.769   5.360 -0.7922 -0.0454 -0.0498
  287MOL0     C38626   7.521   1.841   5.361  0.1510 -0.1096 -0.1139
  287MOL0     N38627   7.456   1.839   5.234 -0.2347  0.4038 -0.0752
  287MOL0     C38628   7.500   1.783   5.116 -0.4916  0.5360  0.5160
  287MOL0     C38629   7.414   1.832   5.026  0.1150  0.3170 -0.2142
  287MOL0     C38630   7.423   1.810   4.877  0.2072  0.1362 -0.1739
  287MOL0     C38631   7.417   1.662   4.819  0.4508 -0.5500  0.1120
  287MOL0     C38632   7.301   1.583   4.889 -0.4219 -0.7589  0.0212
  287MOL0     C38633   7.154   1.634   4.882 -0.2897  0.2528 -0.3414
  287MOL0     O38634   7.075   1.516   4.869 -0.0803  0.2713 -0.4427
  287MOL0     C38635   6.934   1.524   4.880  0.5009 -0.3300 -0.4090
  287MOL0     C38636   6.857   1.408   4.874 -0.7643  0.3673 -0.3735
  287MOL0     C38637   6.723   1.412   4.906  0.1739 -0.3550  0.0599
  287MOL0     C38638   6.646   1.282   4.890  0.2619  0.9070  0.3993
  287MOL0     C38639   6.660   1.530   4.948  0.4564 -0.4724  0.1192
  287MOL0     C38640   6.510   1.551   4.978 -0.0935 -0.2609  0.6810
  287MOL0     O38641   6.450   1.452   5.042 -0.4061  0.5636 -0.5144
  287MOL0     C38642   6.318   1.464   5.067 -0.3162 -0.3200 -0.3069
  287MOL0     C38643   6.229   1.372   5.006 -0.1030  0.7572 -0.8300
  287MOL0     C38644   6.101   1.375   5.022 -0.2134  0.5060  0.1161
  287MOL0     C38645   6.045   1.473   5.101 -0.1634  0.3281 -0.8641
  287MOL0     O38646   5.910   1.492   5.123 -0.2320  0.0911  0.2340
  287MOL0     C38647   5.814   1.390   5.085  0.1082  0.0541 -0.8622
  287MOL0     C38648   5.675   1.421   5.111 -0.0989  0.3956  0.5810
  287MOL0     C38649   5.580   1.309   5.077  0.1258  0.3386 -0.4609
  287MOL0     C38650   5.436   1.331   5.111  0.4509 -0.2000 -0.7190
  287MOL0     C38651   5.339   1.214   5.092 -0.4128 -0.3176  1.5460
  287MOL0     C38652   5.226   1.203   5.191 -0.3822  0.3650 -0.1570
  287MOL0     C38653   5.105   1.117   5.142  0.0223 -0.2657  0.3004
  287MOL0     C38654   5.028   1.077   5.258 -0.2442  0.2429 -0.0451
  287MOL0    Cl38655   4.864   1.008   5.221 -0.2284 -0.3460 -0.1016
  287MOL0     C38656   6.125   1.575   5.156 -0.4417 -0.5751 -0.1816
  287MOL0     C38657   6.267   1.558   5.150 -0.7030 -0.7187 -0.1763
  287MOL0     O38658   6.452   1.649   4.934 -0.3560 -0.2466  0.4253
  287MOL0     C38659   6.736   1.642   4.948 -0.4152 -0.7523 -0.6284
  287MOL0     C38660   6.871   1.646   4.902  0.9331  0.3569 -0.9834
  287MOL0     N38661   7.312   1.901   5.094 -0.2772 -0.8712  0.0873
  287MOL0     N38662   7.346   1.912   5.212  0.2974 -0.5231 -0.2345
  287MOL0     C38663   8.407   1.329   5.780  0.2063  0.4332 -0.5497
  287MOL0     C38664   8.526   1.252   5.785  0.3794 -0.0397  0.0409
  287MOL0     C38665   8.895   1.015   5.638 -0.6068  1.2022  1.0022
  287MOL0     C38666   8.996   1.100   5.618  0.4026 -0.2931 -0.3227
  287MOL0     C38667   9.127   1.057   5.604  0.3494 -0.2372 -1.1445
  287MOL0     C38668   9.168   0.920   5.607  0.4676 -0.2435 -0.2374
  287MOL0     O38669   9.291   0.877   5.591  0.3973 -0.1909  0.9749
  287MOL0     C38670   9.402   0.964   5.561 -0.2917  0.3668 -0.3109
  287MOL0     C38671   9.453   1.045   5.678 -0.5516  0.0217  0.0960
  287MOL0     C38672   9.512   0.962   5.799  0.4224 -0.2084  0.4190
  287MOL0     C38673   9.656   1.005   5.848  0.3600 -0.3239  0.6956
  287MOL0     C38674   9.756   0.967   5.745  0.4370  0.3083  0.1224
  287MOL0     C38675   9.833   0.920   5.656  0.0769 -0.4650 -0.7733
  287MOL0     C38676   9.056   0.833   5.619 -0.4206 -0.0316  0.4149
  287MOL0     C38677   8.929   0.879   5.639 -0.0218  0.5218  0.0747
  287MOL0     H38678   8.688   1.338   5.509  0.8258 -2.6834 -0.4641
  287MOL0     H38679   8.475   1.480   5.484 -2.1155  0.8933  1.5000
  287MOL0     H38680   8.336   1.665   5.566  1.6914 -1.7260  1.0137
  287MOL0     H38681   8.262   1.538   5.480 -1.2854 -2.0015  1.5952
  287MOL0     H38682   8.134   1.744   5.667 -0.4359 -0.1824 -0.9580
  287MOL0     H38683   8.093   1.720   5.504 -0.9124 -2.5826 -0.5244
  287MOL0     H38684   8.004   1.473   5.580 -0.9196 -1.5978  1.2790
  287MOL0     H38685   8.047   1.531   5.737  0.7329  3.7796  0.9974
  287MOL0     H38686   7.812   1.582   5.701 -0.0426 -2.3462 -1.3801
  287MOL0     H38687   7.908   1.728   5.705  4.2089 -1.7144  0.4623
  287MOL0     H38688   7.910   1.721   5.441  0.3238 -0.4399 -0.5906
  287MOL0     H38689   7.800   1.579   5.464  2.4119 -0.5821  0.8252
  287MOL0     H38690   7.643   1.728   5.569  1.4471 -1.3722  1.9725
  287MOL0     H38691   7.751   1.867   5.530  1.2732 -2.6024  4.7796
  287MOL0     H38692   7.721   1.825   5.293 -0.9443  1.9161  1.3641
  287MOL0     H38693   7.654   1.666   5.324  1.6781 -0.5862  1.1754
  287MOL0     H38694   7.535   1.946   5.387  2.4460 -0.4920  0.4379
  287MOL0     H38695   7.451   1.790   5.428 -1.5397  0.8976 -1.0619
  287MOL0     H38696   7.584   1.716   5.100 -1.6191 -1.0517  1.0413
  287MOL0     H38697   7.340   1.857   4.823 -2.0054 -4.5257 -1.4333
  287MOL0     H38698   7.521   1.846   4.845 -0.3646  0.6319 -1.4320
  287MOL0     H38699   7.520   1.624   4.822  1.6220  2.2175 -1.3998
  287MOL0     H38700   7.390   1.677   4.714 -0.5438  0.2601  0.4731
  287MOL0     H38701   7.318   1.588   4.996 -1.4112  1.4594  0.1321
  287MOL0     H38702   7.304   1.484   4.843 -1.6912  0.0453 -1.9447
  287MOL0     H38703   7.149   1.700   4.795 -2.0720  0.4498 -0.1310
  287MOL0     H38704   7.116   1.688   4.969 -0.1943 -0.8695  0.4242
  287MOL0     H38705   6.898   1.310   4.849 -1.5979  0.1170 -0.8250
  287MOL0     H38706   6.642   1.230   4.986 -2.0610 -2.2188 -1.2019
  287MOL0     H38707   6.543   1.297   4.855  0.4816  0.9362 -0.2654
  287MOL0     H38708   6.684   1.211   4.815 -1.1797 -1.0521  1.4153
  287MOL0     H38709   6.272   1.287   4.953  1.0320  0.8467 -0.0874
  287MOL0     H38710   6.043   1.296   4.975  0.6164  0.0351 -0.1273
  287MOL0     H38711   5.804   1.380   4.976 -0.4076 -2.3482 -0.6410
  287MOL0     H38712   5.859   1.295   5.115  1.6413  0.4016 -1.9240
  287MOL0     H38713   5.682   1.430   5.220 -0.0725  1.0891  0.5255
  287MOL0     H38714   5.638   1.516   5.071 -1.1133  0.1870  0.9643
  287MOL0     H38715   5.608   1.221   5.134  1.3311  1.0751  0.1152
  287MOL0     H38716   5.570   1.283   4.971 -0.4170 -2.8259  0.2714
  287MOL0     H38717   5.442   1.356   5.217  3.2170 -0.8048 -0.6523
  287MOL0     H38718   5.390   1.421   5.068 -0.3621 -0.7875 -1.0975
  287MOL0     H38719   5.394   1.121   5.075 -1.2982 -0.4392 -1.1283
  287MOL0     H38720   5.292   1.224   4.994  1.1505  0.3920  0.8410
  287MOL0     H38721   5.274   1.163   5.281  0.5020  1.6313 -0.0356
  287MOL0     H38722   5.185   1.303   5.210  0.6846  0.7304  0.3117
  287MOL0     H38723   5.133   1.032   5.079 -0.1810 -0.2092  0.1306
  287MOL0     H38724   5.042   1.184   5.083  0.1292  0.6501  1.1934
  287MOL0     H38725   5.023   1.169   5.316 -0.8957  0.9902 -1.2466
  287MOL0     H38726   5.084   1.004   5.317  1.3775 -0.4454 -2.3012
  287MOL0     H38727   6.085   1.657   5.215 -2.0812  0.0499 -2.0502
  287MOL0     H38728   6.340   1.626   5.192  0.4337  1.0913 -4.4636
  287MOL0     H38729   6.706   1.744   4.969 -1.8108 -1.3338  0.3237
  287MOL0     H38730   6.913   1.746   4.899 -1.5794  1.4676 -2.2949
  287MOL0     H38731   8.336   1.324   5.862  0.1109  1.9896 -0.5087
  287MOL0     H38732   8.549   1.181   5.864 -2.0545 -2.1306 -1.0194
  287MOL0     H38733   8.984   1.207   5.607 -0.7068 -0.5139 -1.5758
  287MOL0     H38734   9.199   1.137   5.590 -3.0126  3.2554 -0.0894
  287MOL0     H38735   9.486   0.900   5.533  0.2633  1.0380 -0.1974
  287MOL0     H38736   9.384   1.040   5.485  0.2984  0.4403 -0.3800
  287MOL0     H38737   9.385   1.117   5.725  1.6398  3.0698 -1.0495
  287MOL0     H38738   9.532   1.107   5.634  0.2062  0.1551  1.5806
  287MOL0     H38739   9.511   0.856   5.771 -0.0452  0.3762 -2.1018
  287MOL0     H38740   9.442   0.966   5.883  1.2348  4.0915  1.0971
  287MOL0     H38741   9.691   0.948   5.935  2.6529  0.0857  0.1153
  287MOL0     H38742   9.661   1.112   5.870 -0.8384 -0.1042 -0.0199
  287MOL0     H38743   9.889   0.854   5.593  0.9704 -0.5273  0.0585
  287MOL0     H38744   9.060   0.725   5.610 -1.2440  0.0876 -2.0423
  287MOL0     H38745   8.852   0.805   5.653 -0.1431  0.7850  0.8497
  288MOL0     O38746   3.800   2.400   8.773 -0.4553 -0.7504 -0.3683
  288MOL0     C38747   3.833   2.450   8.878 -0.3672 -0.2717  0.0142
  288MOL0     O38748   3.743   2.473   8.980 -0.8771  0.0408  0.2986
  288MOL0     C38749   3.609   2.444   8.971  0.0769  0.4791 -0.1243
  288MOL0     C38750   3.533   2.483   8.860 -0.2929 -0.0374  0.5495
  288MOL0     C38751   3.394   2.469   8.863  0.2720 -0.8668  0.3728
  288MOL0     C38752   3.338   2.390   8.961  0.2981 -0.4671 -0.4531
  288MOL0     O38753   3.200   2.358   8.965 -0.9939 -0.1971 -0.2747
  288MOL0     C38754   3.104   2.462   8.940 -0.5139 -0.2039 -0.2060
  288MOL0     C38755   2.964   2.400   8.930 -0.4743  0.5689  0.4478
  288MOL0     C38756   2.853   2.503   8.914 -0.8130 -0.2393  0.7279
  288MOL0     C38757   2.845   2.552   8.770 -0.0167 -0.4115 -1.1664
  288MOL0     C38758   2.730   2.646   8.749  0.7159 -0.9141  0.3640
  288MOL0     C38759   2.603   2.561   8.698 -0.5092 -0.2007  0.2659
  288MOL0     C38760   2.487   2.640   8.634  0.1966 -0.4148  0.1578
  288MOL0     C38761   2.475   2.767   8.719 -0.3523  0.0293 -0.3420
  288MOL0     N38762   2.358   2.853   8.697 -0.1127 -0.4924 -0.1645
  288MOL0     C38763   2.222   2.830   8.691 -0.2415  0.1911 -0.0278
  288MOL0     C38764   2.162   2.958   8.689  0.3223 -0.2446 -0.0276
  288MOL0     C38765   2.019   2.964   8.652 -0.1265  1.0687 -0.1115
  288MOL0     C38766   2.011   3.064   8.540  0.6405  0.6845 -0.0117
  288MOL0     C38767   1.882   3.046   8.452 -0.2436 -0.0629  0.1565
  288MOL0     C38768   1.757   3.022   8.533  0.2038 -0.2579  0.2942
  288MOL0     O38769   1.654   3.050   8.440  0.1092 -0.0433 -0.6405
  288MOL0     C38770   1.526   3.054   8.478 -0.4925 -0.0933  0.1535
  288MOL0     C38771   1.439   3.106   8.389  0.8411  0.1880 -0.0294
  288MOL0     C38772   1.296   3.111   8.408 -0.4853  0.3627 -0.9131
  288MOL0     C38773   1.210   3.161   8.290  0.1388 -0.0949  0.4539
  288MOL0     C38774   1.251   3.066   8.531  0.0504 -0.5571 -0.0144
  288MOL0     C38775   1.110   3.048   8.560 -0.8457 -0.7497  0.4735
  288MOL0     O38776   1.016   3.115   8.490 -0.0147 -0.5658 -0.6957
  288MOL0     C38777   0.889   3.088   8.520 -0.4350 -0.4394 -0.7306
  288MOL0     C38778   0.816   2.998   8.442  0.0992 -0.0666 -0.0479
  288MOL0     C38779   0.685   2.969   8.471 -0.3259  0.2462  0.3223
  288MOL0     C38780   0.623   3.039   8.577  0.4364 -1.0520  0.3197
  288MOL0     O38781   0.490   3.000   8.611 -0.4161 -0.6521 -0.2111
  288MOL0     C38782   0.409   3.108   8.661 -1.2942  1.0941  0.2999
  288MOL0     C38783   0.270   3.065   8.675  0.2799  0.1636 -0.6063
  288MOL0     C38784   0.186   3.180   8.735 -0.1758  0.2120  0.3494
  288MOL0     C38785   0.045   3.124   8.756 -0.1403  0.3299 -0.2663
  288MOL0     C38786  -0.044   3.233   8.796  0.0708  0.1761 -0.1138
  288MOL0     C38787  -0.172   3.177   8.850  0.6329  0.0370  0.7113
  288MOL0     C38788  -0.280   3.277   8.822 -0.0123  0.2606  0.2279
  288MOL0     C38789  -0.417   3.226   8.864  0.6821  0.4651 -0.8065
  288MOL0    Cl38790  -0.540   3.329   8.788 -0.1763 -0.0157 -0.2523
  288MOL0     C38791   0.699   3.136   8.649 -0.7416  0.7969  0.5880
  288MOL0     C38792   0.831   3.162   8.623 -0.4056 -0.2669  0.0817
  288MOL0     O38793   1.088   2.967   8.653  0.1490 -0.1830 -0.1441
  288MOL0     C38794   1.349   3.025   8.636 -0.5683  0.1085  0.3598
  288MOL0     C38795   1.483   3.024   8.602  0.3115  0.1611 -0.7308
  288MOL0     N38796   2.259   3.056   8.698  1.3421 -0.2326 -0.3077
  288MOL0     N38797   2.375   2.994   8.693  0.1961  0.3413  0.0635
  288MOL0     C38798   3.411   2.342   9.062  0.5289  0.1324 -0.3151
  288MOL0     C38799   3.544   2.380   9.075  0.1423  0.2078 -1.1279
  288MOL0     C38800   3.971   2.485   8.904 -0.7895  0.7779  0.2425
  288MOL0     C38801   4.014   2.528   9.025  0.0133  0.2613 -0.2693
  288MOL0     C38802   4.147   2.560   9.050  0.6523  0.2598  0.0325
  288MOL0     C38803   4.254   2.524   8.960 -0.5044  0.2832 -0.7995
  288MOL0     O38804   4.387   2.529   9.005  0.2163  0.4668 -0.2853
  288MOL0     C38805   4.501   2.499   8.929  0.2954  0.2064  0.6332
  288MOL0     C38806   4.520   2.347   8.925 -0.2865  0.7263 -0.1524
  288MOL0     C38807   4.631   2.317   8.817  0.5013  0.6406 -0.3486
  288MOL0     C38808   4.772   2.337   8.887  0.0497  0.0400  0.3941
  288MOL0     C38809   4.874   2.302   8.798  0.0211  0.3360 -0.7706
  288MOL0     C38810   4.966   2.271   8.731 -0.1729 -0.9773  0.3570
  288MOL0     C38811   4.209   2.462   8.842 -0.4263  0.3485 -0.0361
  288MOL0     C38812   4.070   2.460   8.808  0.0956  0.4282  0.2361
  288MOL0     H38813   3.581   2.543   8.784 -1.1040  0.5533  0.4891
  288MOL0     H38814   3.328   2.499   8.782  0.6642 -0.7823  0.0822
  288MOL0     H38815   3.111   2.541   9.015  2.2525 -2.3232  1.9686
  288MOL0     H38816   3.127   2.505   8.842  1.2533 -1.1688 -0.2454
  288MOL0     H38817   2.958   2.330   8.846  1.8095  0.9285 -0.0886
  288MOL0     H38818   2.941   2.355   9.027 -0.3880  1.0126  0.6794
  288MOL0     H38819   2.754   2.458   8.930 -1.5760  0.7303 -1.0498
  288MOL0     H38820   2.864   2.592   8.976  0.2824  1.0214 -1.1788
  288MOL0     H38821   2.935   2.605   8.739 -0.4937  0.9285 -0.3666
  288MOL0     H38822   2.841   2.462   8.709 -3.2400 -1.6325  0.6155
  288MOL0     H38823   2.704   2.694   8.844  1.2865  1.4536 -0.5945
  288MOL0     H38824   2.755   2.723   8.675 -2.4936  0.3921  0.4662
  288MOL0     H38825   2.642   2.490   8.625  0.8876  1.2830 -0.4925
  288MOL0     H38826   2.562   2.499   8.779 -1.0439  0.4980  0.5367
  288MOL0     H38827   2.517   2.661   8.531 -0.5758  1.2117  0.2188
  288MOL0     H38828   2.394   2.582   8.638  0.8767 -1.4409  3.0456
  288MOL0     H38829   2.566   2.827   8.719  0.6810 -1.4071  2.1577
  288MOL0     H38830   2.461   2.730   8.821 -0.8657 -1.3496 -0.8919
  288MOL0     H38831   2.168   2.737   8.699 -0.5044  0.1944 -1.4270
  288MOL0     H38832   1.999   2.860   8.623  6.3401 -0.1566 -1.6872
  288MOL0     H38833   1.959   2.986   8.741 -0.0952 -0.3606  0.3045
  288MOL0     H38834   2.086   3.044   8.463 -0.8360  1.8101 -1.8419
  288MOL0     H38835   2.027   3.168   8.570 -1.4620  0.9127  0.5009
  288MOL0     H38836   1.893   2.968   8.376 -1.2226  1.3737 -1.5512
  288MOL0     H38837   1.875   3.133   8.385  2.1555 -0.2373 -0.4123
  288MOL0     H38838   1.755   3.089   8.620 -2.2003  1.0691 -0.6850
  288MOL0     H38839   1.743   2.921   8.572  0.2502  0.5302  2.5128
  288MOL0     H38840   1.476   3.134   8.291  0.7570 -1.6701 -0.6151
  288MOL0     H38841   1.188   3.268   8.293 -2.5084 -0.4868 -1.4779
  288MOL0     H38842   1.252   3.140   8.191 -2.1443  2.5109 -1.2147
  288MOL0     H38843   1.113   3.110   8.289 -1.6971  3.0210 -2.6776
  288MOL0     H38844   0.871   2.955   8.359 -0.4934  0.5960 -0.8018
  288MOL0     H38845   0.626   2.896   8.416 -1.2681  1.5444 -0.4546
  288MOL0     H38846   0.447   3.133   8.761 -1.1903  0.3846  0.4393
  288MOL0     H38847   0.414   3.187   8.585 -1.1897 -0.2826 -1.1826
  288MOL0     H38848   0.234   3.026   8.580 -0.0504  0.4332 -0.5937
  288MOL0     H38849   0.271   2.983   8.747 -1.9435  1.5837  1.2242
  288MOL0     H38850   0.186   3.272   8.676 -0.3461 -0.0770 -0.1085
  288MOL0     H38851   0.224   3.209   8.833  2.7315  1.3351 -1.0145
  288MOL0     H38852   0.002   3.077   8.667  0.6472  1.6034 -1.3661
  288MOL0     H38853   0.051   3.051   8.837  0.1665  1.9891  1.2790
  288MOL0     H38854  -0.070   3.289   8.706  0.4552 -1.7054 -1.4545
  288MOL0     H38855   0.008   3.306   8.859  1.3997  0.5851 -1.6326
  288MOL0     H38856  -0.193   3.080   8.805  0.6377  0.3597 -0.0116
  288MOL0     H38857  -0.175   3.161   8.958 -0.4076  1.4010  0.9156
  288MOL0     H38858  -0.289   3.305   8.717 -2.2797 -0.6555  0.1134
  288MOL0     H38859  -0.271   3.366   8.885 -1.2519  0.9716 -0.5559
  288MOL0     H38860  -0.415   3.230   8.973 -0.5988  2.9014 -0.8104
  288MOL0     H38861  -0.435   3.119   8.845  1.3855 -0.6041  3.5920
  288MOL0     H38862   0.644   3.198   8.719 -2.1256  0.1079  0.1587
  288MOL0     H38863   0.895   3.228   8.682 -2.3457  0.9314  0.9265
  288MOL0     H38864   1.320   2.988   8.734 -1.2519  0.6642  0.3731
  288MOL0     H38865   1.548   2.975   8.675  0.6529 -1.3790 -2.0046
  288MOL0     H38866   3.366   2.290   9.146  1.2159  1.6322  1.0385
  288MOL0     H38867   3.600   2.369   9.167  0.3213  5.2505 -0.3457
  288MOL0     H38868   3.940   2.557   9.098  0.6940 -1.0189  0.9870
  288MOL0     H38869   4.169   2.587   9.152  2.1651 -0.9773  0.0773
  288MOL0     H38870   4.493   2.537   8.826  0.5209  2.7042  1.4747
  288MOL0     H38871   4.582   2.557   8.973 -2.0258  1.4485  3.6657
  288MOL0     H38872   4.427   2.297   8.895 -0.6898  2.3769 -1.7952
  288MOL0     H38873   4.557   2.318   9.024 -0.4645  1.8791  0.2748
  288MOL0     H38874   4.615   2.396   8.743  0.6767 -1.3475 -2.6329
  288MOL0     H38875   4.615   2.220   8.769  0.4484  1.0683 -1.2168
  288MOL0     H38876   4.786   2.276   8.977 -0.6481 -1.7664 -0.6766
  288MOL0     H38877   4.780   2.440   8.922  1.7836 -0.4536  1.5871
  288MOL0     H38878   5.050   2.247   8.669  1.0239 -0.9588  1.9082
  288MOL0     H38879   4.285   2.424   8.774  3.0845  1.6635  2.7914
  288MOL0     H38880   4.052   2.408   8.714 -1.5689 -0.4357  1.0021
  289MOL0     O38881   7.902   4.134   8.398  0.1990  0.0546  0.3477
  289MOL0     C38882   7.909   4.241   8.340  0.6061 -1.6053  1.1272
  289MOL0     O38883   7.802   4.312   8.304 -1.0801  0.2097  0.3054
  289MOL0     C38884   7.685   4.270   8.344 -0.6050  0.6398  0.7623
  289MOL0     C38885   7.650   4.246   8.475 -0.6022  0.3637  0.6727
  289MOL0     C38886   7.526   4.195   8.505  0.0959  0.0536 -0.3802
  289MOL0     C38887   7.422   4.178   8.417 -0.6836 -0.2511 -0.6857
  289MOL0     O38888   7.302   4.133   8.462  0.1887 -0.2768 -0.1497
  289MOL0     C38889   7.197   4.129   8.365 -0.6625  0.2003 -0.1766
  289MOL0     C38890   7.061   4.082   8.428  0.4357 -0.1412 -0.0092
  289MOL0     C38891   6.949   4.113   8.335  0.3264  0.6929 -0.3411
  289MOL0     C38892   6.813   4.063   8.379 -0.5746 -0.2663  0.2587
  289MOL0     C38893   6.705   4.097   8.271 -0.2136 -0.3716 -0.4812
  289MOL0     C38894   6.656   4.234   8.288 -0.2244 -0.5039 -0.5181
  289MOL0     C38895   6.531   4.253   8.199  0.6109 -0.7077  0.0052
  289MOL0     C38896   6.472   4.399   8.202 -0.1276 -0.3211 -0.5145
  289MOL0     N38897   6.326   4.392   8.185 -0.2862 -0.1156 -0.6818
  289MOL0     C38898   6.260   4.348   8.075 -0.2001  0.4618 -0.4203
  289MOL0     C38899   6.133   4.332   8.117 -0.9592 -1.0049  1.2018
  289MOL0     C38900   6.018   4.261   8.038 -0.0051  0.5436 -0.5610
  289MOL0     C38901   5.887   4.324   8.089  0.0289 -0.2179 -0.4758
  289MOL0     C38902   5.861   4.459   8.010  0.9302 -1.0469 -0.1295
  289MOL0     C38903   5.751   4.557   8.058  0.2104  0.4428  0.4385
  289MOL0     O38904   5.630   4.480   8.073  1.1517 -0.2729  0.3307
  289MOL0     C38905   5.504   4.544   8.084  0.0249  0.3022  0.0001
  289MOL0     C38906   5.390   4.469   8.063  0.0755 -0.2719 -0.0081
  289MOL0     C38907   5.262   4.522   8.054 -0.7107  0.1025 -0.0691
  289MOL0     C38908   5.148   4.424   8.046  0.6031 -0.0910  0.4653
  289MOL0     C38909   5.245   4.661   8.046 -0.9368  0.2033 -0.5040
  289MOL0     C38910   5.117   4.724   8.022 -0.5119 -0.9883  1.0350
  289MOL0     O38911   5.023   4.662   7.951  0.0729  0.0266  0.0980
  289MOL0     C38912   4.893   4.717   7.937 -0.8847 -0.0828 -0.3130
  289MOL0     C38913   4.816   4.776   8.039  0.4397  0.0098  0.3845
  289MOL0     C38914   4.683   4.811   8.008 -0.7288  0.0946  0.1168
  289MOL0     C38915   4.633   4.776   7.882 -0.0811 -0.2373  0.5525
  289MOL0     O38916   4.511   4.826   7.865 -0.1734 -0.2795 -0.5881
  289MOL0     C38917   4.460   4.855   7.732  0.1486  0.2001  0.9203
  289MOL0     C38918   4.303   4.852   7.731  0.3588  0.0624 -0.3866
  289MOL0     C38919   4.242   4.865   7.595  0.1393  0.1029  0.9984
  289MOL0     C38920   4.092   4.896   7.603 -1.2009  0.2236 -0.0079
  289MOL0     C38921   4.035   4.895   7.461  0.1431  0.4388 -0.0772
  289MOL0     C38922   3.889   4.920   7.468 -0.1501 -0.3128 -0.3290
  289MOL0     C38923   3.815   4.899   7.342 -0.3297 -0.5520  0.9946
  289MOL0     C38924   3.666   4.917   7.369  0.3733 -0.0324  0.2285
  289MOL0    Cl38925   3.628   5.061   7.473  0.2677 -0.2144 -0.1511
  289MOL0     C38926   4.716   4.722   7.780  0.5584  0.3322  0.2876
  289MOL0     C38927   4.842   4.694   7.808 -0.5569 -1.2925  0.8894
  289MOL0     O38928   5.121   4.846   8.048 -0.3378 -0.1932  0.3225
  289MOL0     C38929   5.364   4.745   8.057 -0.6582 -0.5143  0.2392
  289MOL0     C38930   5.490   4.686   8.090 -0.1612  0.5679  1.0166
  289MOL0     N38931   6.131   4.353   8.256 -0.0194 -0.3305  0.3932
  289MOL0     N38932   6.243   4.386   8.294 -0.4132  1.0505  0.1178
  289MOL0     C38933   7.457   4.224   8.293  0.2021 -0.5517  0.0242
  289MOL0     C38934   7.581   4.271   8.255 -0.5119  0.0771  0.7719
  289MOL0     C38935   8.043   4.302   8.310 -0.2662  0.6262 -0.4022
  289MOL0     C38936   8.066   4.424   8.248 -0.4974  0.5314 -0.1912
  289MOL0     C38937   8.196   4.462   8.207  0.3902 -0.5616 -0.4871
  289MOL0     C38938   8.301   4.386   8.246 -0.4157 -0.1609 -0.2418
  289MOL0     O38939   8.422   4.430   8.210  0.5804  0.1201  0.1727
  289MOL0     C38940   8.492   4.346   8.125 -0.6816  0.2389 -0.5502
  289MOL0     C38941   8.633   4.325   8.190  0.1264  0.7349 -0.8253
  289MOL0     C38942   8.717   4.457   8.196 -0.4853  0.3779  0.2514
  289MOL0     C38943   8.740   4.515   8.057  0.4691  0.4208  0.2976
  289MOL0     C38944   8.835   4.620   8.077  0.2488  0.8533 -1.0842
  289MOL0     C38945   8.908   4.712   8.079  0.7434  0.5566  1.0926
  289MOL0     C38946   8.281   4.272   8.313  0.1133 -0.0556  0.3810
  289MOL0     C38947   8.155   4.228   8.351 -0.0940 -0.5199 -0.4825
  289MOL0     H38948   7.727   4.256   8.551  0.8600  0.9766 -0.8177
  289MOL0     H38949   7.528   4.170   8.611 -0.4299  1.8602  0.0916
  289MOL0     H38950   7.183   4.230   8.326 -0.8340 -0.2850 -1.4461
  289MOL0     H38951   7.226   4.063   8.282  3.0307 -0.1905  1.2528
  289MOL0     H38952   7.056   3.975   8.453 -3.2641  0.5854  3.4400
  289MOL0     H38953   7.048   4.143   8.517  0.6892 -0.6126  0.3529
  289MOL0     H38954   6.940   4.221   8.319  0.2336  0.8181  0.5127
  289MOL0     H38955   6.980   4.067   8.241 -0.0749 -0.0252 -0.1266
  289MOL0     H38956   6.831   3.955   8.375  3.8538  0.2640  1.6057
  289MOL0     H38957   6.786   4.108   8.475  2.2879  1.6941  0.2599
  289MOL0     H38958   6.747   4.083   8.171  2.0070 -1.8151  0.5729
  289MOL0     H38959   6.623   4.024   8.272  0.9542 -1.8007 -2.0045
  289MOL0     H38960   6.632   4.243   8.395  0.1133 -1.5746 -0.3443
  289MOL0     H38961   6.734   4.304   8.256  0.4858 -0.9273  0.2290
  289MOL0     H38962   6.554   4.236   8.094 -0.5440  2.9023 -0.9775
  289MOL0     H38963   6.449   4.193   8.240 -2.8849  3.6242  0.1409
  289MOL0     H38964   6.516   4.466   8.128 -0.8694  0.1957 -0.4942
  289MOL0     H38965   6.503   4.443   8.297 -1.8898 -0.4697  0.1678
  289MOL0     H38966   6.304   4.322   7.979  0.8468  1.5182 -0.2542
  289MOL0     H38967   6.028   4.284   7.931 -0.3547  4.6061  0.1242
  289MOL0     H38968   6.015   4.153   8.054  0.4433  0.0496 -3.2450
  289MOL0     H38969   5.887   4.338   8.197 -4.1260 -1.2902 -0.1793
  289MOL0     H38970   5.809   4.251   8.069 -1.1755  0.4760  1.4600
  289MOL0     H38971   5.830   4.421   7.913 -1.0248 -0.3302  0.1753
  289MOL0     H38972   5.955   4.515   7.998 -0.1536  0.8473 -0.2180
  289MOL0     H38973   5.735   4.635   7.983  1.2035  1.1408  0.9272
  289MOL0     H38974   5.776   4.598   8.156 -0.2919  0.6811  0.4677
  289MOL0     H38975   5.390   4.361   8.050  0.5893 -0.2414 -0.3030
  289MOL0     H38976   5.073   4.459   8.118  0.1350 -0.3774  0.1189
  289MOL0     H38977   5.118   4.415   7.941  2.0051 -1.9051  0.1744
  289MOL0     H38978   5.187   4.325   8.071  1.6416  0.0627 -0.4656
  289MOL0     H38979   4.855   4.812   8.133  1.3809  0.7921 -0.2802
  289MOL0     H38980   4.617   4.853   8.082  0.8047  0.8982  1.0786
  289MOL0     H38981   4.485   4.956   7.697 -0.0735  0.5483  1.7389
  289MOL0     H38982   4.487   4.778   7.660 -0.4133 -0.1661  1.0919
  289MOL0     H38983   4.270   4.761   7.782 -0.2373  0.8708  0.7146
  289MOL0     H38984   4.263   4.930   7.796  0.6580 -2.0244  2.5111
  289MOL0     H38985   4.275   4.778   7.538  1.1314  0.9111  0.3189
  289MOL0     H38986   4.283   4.951   7.542  0.5332 -0.0390  1.0657
  289MOL0     H38987   4.047   4.811   7.656  1.2027 -0.1851  1.5517
  289MOL0     H38988   4.069   4.986   7.661  0.2517  0.0467  0.8970
  289MOL0     H38989   4.044   4.794   7.420  1.0482  1.0905 -1.5836
  289MOL0     H38990   4.094   4.957   7.393  1.5720  2.4218  2.7619
  289MOL0     H38991   3.838   4.860   7.544  0.7559  2.1328  2.4084
  289MOL0     H38992   3.870   5.023   7.502 -0.1231 -0.0701 -1.0317
  289MOL0     H38993   3.840   4.796   7.314 -0.2419 -0.7542  1.7993
  289MOL0     H38994   3.845   4.972   7.267 -0.2180 -1.4784  0.1139
  289MOL0     H38995   3.638   4.825   7.423 -1.2953  0.3789  0.1164
  289MOL0     H38996   3.614   4.926   7.274  1.3471 -2.2505 -0.5863
  289MOL0     H38997   4.681   4.713   7.678 -0.8334  0.3153  0.7508
  289MOL0     H38998   4.897   4.652   7.724 -2.1850 -0.8410 -0.4626
  289MOL0     H38999   5.353   4.853   8.062  1.0328 -0.3554  2.0493
  289MOL0     H39000   5.581   4.741   8.109  2.5530 -2.8834 -0.6093
  289MOL0     H39001   7.378   4.216   8.219 -1.0004 -1.7375  1.3556
  289MOL0     H39002   7.606   4.305   8.155  2.6361  3.0412  2.3445
  289MOL0     H39003   7.979   4.472   8.205  0.0277 -1.4659 -3.9424
  289MOL0     H39004   8.200   4.553   8.149 -4.4021 -0.3180 -0.8946
  289MOL0     H39005   8.458   4.242   8.114  3.1763 -1.6294  2.6243
  289MOL0     H39006   8.502   4.389   8.025 -0.2024  0.1292 -0.5522
  289MOL0     H39007   8.685   4.248   8.131 -0.7236 -1.2064  0.8440
  289MOL0     H39008   8.619   4.274   8.286 -0.1572  0.7373 -0.8647
  289MOL0     H39009   8.809   4.429   8.247 -1.8367  0.6483  3.0449
  289MOL0     H39010   8.675   4.534   8.262 -0.9780  0.3053  0.0253
  289MOL0     H39011   8.642   4.552   8.024  1.4384  2.7935 -0.1845
  289MOL0     H39012   8.775   4.437   7.989  3.0673 -2.0687  4.0640
  289MOL0     H39013   8.969   4.800   8.086  3.6110 -1.1682 -0.4177
  289MOL0     H39014   8.364   4.211   8.348  0.0124  0.7879  2.2153
  289MOL0     H39015   8.134   4.135   8.403 -1.2177 -0.2399 -0.3899
  290MOL0     O39016   9.908   9.027   7.954 -0.0049  0.3097  1.4010
  290MOL0     C39017   9.875   9.015   8.071 -0.1241 -0.2907  0.8118
  290MOL0     O39018   9.746   9.003   8.124 -0.4793  0.0779  0.1539
  290MOL0     C39019   9.640   9.029   8.039  0.7320  0.3928  0.3368
  290MOL0     C39020   9.643   9.078   7.907  0.2166 -0.0120  0.6684
  290MOL0     C39021   9.536   9.083   7.820  0.0124 -0.0857 -0.1768
  290MOL0     C39022   9.412   9.056   7.874 -0.8239 -0.6604  0.2619
  290MOL0     O39023   9.307   9.063   7.788  0.1286 -1.0272  0.2069
  290MOL0     C39024   9.175   9.109   7.836 -1.1307  0.0472  0.2394
  290MOL0     C39025   9.107   9.191   7.720 -0.0804  0.0048 -0.5026
  290MOL0     C39026   8.990   9.285   7.740 -0.3411  0.4731  0.0823
  290MOL0     C39027   8.867   9.214   7.802 -0.8724  1.0345 -0.4934
  290MOL0     C39028   8.733   9.300   7.784  0.5272 -0.0597 -0.7915
  290MOL0     C39029   8.622   9.227   7.863  0.4720 -0.5076  0.5352
  290MOL0     C39030   8.491   9.301   7.863  0.2215  0.3766 -0.0471
  290MOL0     C39031   8.365   9.225   7.913 -0.4077  0.6803 -0.5533
  290MOL0     N39032   8.248   9.305   7.886  0.1935 -0.3284  0.2386
  290MOL0     C39033   8.233   9.439   7.924  0.2657  0.0601  0.3661
  290MOL0     C39034   8.105   9.453   7.905  0.2449 -0.8674 -0.3618
  290MOL0     C39035   8.040   9.579   7.965 -0.8367  0.8713 -0.3386
  290MOL0     C39036   7.924   9.628   7.875 -0.7429 -0.2051 -0.1204
  290MOL0     C39037   7.850   9.751   7.930 -0.7954 -0.3100  0.0691
  290MOL0     C39038   7.782   9.710   8.057  0.0834  0.3132  0.6675
  290MOL0     O39039   7.690   9.809   8.078  0.1651 -0.0299  0.1152
  290MOL0     C39040   7.590   9.784   8.174 -0.1553  0.1671  0.6320
  290MOL0     C39041   7.587   9.678   8.277  0.0308  0.0182 -0.1600
  290MOL0     C39042   7.481   9.667   8.371 -0.2494  0.0879 -0.2998
  290MOL0     C39043   7.507   9.549   8.468  0.5545 -0.2274 -0.3847
  290MOL0     C39044   7.367   9.758   8.363 -0.4055 -0.7986 -0.4881
  290MOL0     C39045   7.244   9.757   8.450  0.1897 -0.5720  0.0328
  290MOL0     O39046   7.241   9.671   8.556  0.3556  0.5679 -0.2268
  290MOL0     C39047   7.117   9.662   8.618  0.1614 -0.5676  1.0329
  290MOL0     C39048   7.087   9.756   8.720 -0.8116 -0.3421  0.5041
  290MOL0     C39049   6.962   9.736   8.776 -0.0552 -1.4950  0.5376
  290MOL0     C39050   6.865   9.644   8.729 -0.0416 -0.0919  0.5696
  290MOL0     O39051   6.752   9.612   8.804 -0.3007  0.1732  0.0970
  290MOL0     C39052   6.717   9.685   8.924  0.1446  0.2183  0.4367
  290MOL0     C39053   6.578   9.639   8.968 -0.8184  0.1214 -0.5568
  290MOL0     C39054   6.595   9.519   9.058  0.0469  0.2301 -0.0168
  290MOL0     C39055   6.452   9.450   9.074  0.0620 -0.6402 -0.7244
  290MOL0     C39056   6.342   9.545   9.140  0.1768 -0.1399  0.6135
  290MOL0     C39057   6.202   9.479   9.160  0.2990 -1.0799 -0.3495
  290MOL0     C39058   6.148   9.438   9.026  0.0745 -0.4279  0.9671
  290MOL0     C39059   6.093   9.549   8.930 -0.3081  0.3334 -0.6920
  290MOL0    Cl39060   5.958   9.640   8.997 -0.0426 -0.0679 -0.1514
  290MOL0     C39061   6.894   9.561   8.615  0.3611 -0.8886  0.1707
  290MOL0     C39062   7.019   9.570   8.569 -1.2154  0.7658 -0.7425
  290MOL0     O39063   7.149   9.833   8.421 -0.0029  0.6603 -0.3992
  290MOL0     C39064   7.384   9.864   8.268 -0.0785  0.6216 -0.4319
  290MOL0     C39065   7.487   9.880   8.176  0.2208 -0.3893 -0.0720
  290MOL0     N39066   8.048   9.347   7.828 -0.2328 -0.5114  0.2678
  290MOL0     N39067   8.142   9.262   7.817  0.4400  0.1806 -0.5658
  290MOL0     C39068   9.399   9.009   8.014 -0.4149 -0.1032  0.6477
  290MOL0     C39069   9.512   9.001   8.092  0.1197  0.0138  0.1110
  290MOL0     C39070   9.989   9.006   8.163  0.3315  0.1144 -0.3382
  290MOL0     C39071   9.978   9.052   8.303 -0.2176  0.2314  0.2897
  290MOL0     C39072  10.090   9.063   8.385  0.5946 -0.2388  0.0012
  290MOL0     C39073  10.216   9.044   8.338 -0.9677  0.5275  1.0049
  290MOL0     O39074  10.321   9.071   8.426 -0.2703 -0.2384  0.1476
  290MOL0     C39075  10.457   9.087   8.369 -0.3413 -0.0648 -0.8455
  290MOL0     C39076  10.546   9.162   8.473 -0.2938  1.1664 -0.2538
  290MOL0     C39077  10.650   9.229   8.387  0.0106  0.3008  0.1657
  290MOL0     C39078  10.759   9.307   8.474 -0.7657 -0.3634  0.4433
  290MOL0     C39079  10.829   9.397   8.387  0.2524 -0.1714  0.8491
  290MOL0     C39080  10.888   9.464   8.308  0.9180  0.5163  0.1762
  290MOL0     C39081  10.228   8.999   8.205 -0.2046  1.2523 -0.2420
  290MOL0     C39082  10.120   8.983   8.121 -0.4195  0.3277  0.6739
  290MOL0     H39083   9.726   9.105   7.842 -0.6647 -1.3829 -1.0959
  290MOL0     H39084   9.549   9.122   7.719 -0.5095 -0.5731 -0.4360
  290MOL0     H39085   9.116   9.020   7.861  0.7343 -0.9632  1.2448
  290MOL0     H39086   9.187   9.159   7.932 -2.1460  2.0458 -0.6135
  290MOL0     H39087   9.188   9.252   7.681 -1.2279 -0.0604 -3.2443
  290MOL0     H39088   9.081   9.116   7.644 -1.9345 -0.5406  0.6010
  290MOL0     H39089   9.029   9.360   7.809 -0.4845 -2.9103  4.2543
  290MOL0     H39090   8.970   9.329   7.642  1.3530 -1.1871 -1.0713
  290MOL0     H39091   8.856   9.120   7.747  1.3274  0.9997 -0.9603
  290MOL0     H39092   8.890   9.209   7.909 -1.9047  1.9338 -0.2104
  290MOL0     H39093   8.746   9.400   7.825  0.3244 -0.9926  1.7171
  290MOL0     H39094   8.696   9.296   7.681  1.3768  0.3448 -1.1200
  290MOL0     H39095   8.605   9.129   7.817 -0.0244 -0.4858  0.6608
  290MOL0     H39096   8.642   9.226   7.970 -1.5067 -0.5889  0.9509
  290MOL0     H39097   8.507   9.396   7.914 -0.9287  0.3639  0.3620
  290MOL0     H39098   8.480   9.314   7.755  0.5854 -1.7166 -0.3741
  290MOL0     H39099   8.364   9.215   8.022  0.5527  3.7087 -0.1860
  290MOL0     H39100   8.348   9.129   7.864 -1.5540  0.6105 -0.0547
  290MOL0     H39101   8.298   9.499   7.987  2.0257 -0.4550 -0.9125
  290MOL0     H39102   7.998   9.539   8.058  0.7076  1.7543  0.7836
  290MOL0     H39103   8.114   9.656   7.987  0.7183 -1.0150  1.3084
  290MOL0     H39104   7.843   9.555   7.866 -2.1929  1.3487 -0.0964
  290MOL0     H39105   7.966   9.648   7.776  0.7232 -1.4280  0.2094
  290MOL0     H39106   7.776   9.794   7.862 -1.6913 -0.1732  1.0959
  290MOL0     H39107   7.929   9.825   7.944  2.2045 -2.1888 -4.5920
  290MOL0     H39108   7.856   9.693   8.135 -0.5464  1.7841  1.6227
  290MOL0     H39109   7.730   9.615   8.039  2.7049 -0.8656 -1.5558
  290MOL0     H39110   7.664   9.602   8.278  0.2225  0.0712  3.9997
  290MOL0     H39111   7.413   9.495   8.484 -0.5008  2.0800  1.8826
  290MOL0     H39112   7.583   9.478   8.433 -1.1504 -0.9239 -2.9025
  290MOL0     H39113   7.535   9.581   8.569 -0.7332 -1.2589  0.3306
  290MOL0     H39114   7.154   9.830   8.764 -0.3054  1.9918 -3.6170
  290MOL0     H39115   6.937   9.806   8.855  1.1358 -0.1236 -0.2492
  290MOL0     H39116   6.784   9.659   9.007  0.5959 -0.6709 -0.1815
  290MOL0     H39117   6.722   9.793   8.907  2.7350  0.0495 -0.2532
  290MOL0     H39118   6.531   9.720   9.024 -0.6623 -0.3170  0.2105
  290MOL0     H39119   6.512   9.611   8.884 -0.0810 -0.1478 -1.0548
  290MOL0     H39120   6.629   9.551   9.157 -1.2504 -0.7568  0.7760
  290MOL0     H39121   6.666   9.454   9.007  2.7166  1.1083  2.3637
  290MOL0     H39122   6.420   9.412   8.977 -2.6123 -2.7874  0.8677
  290MOL0     H39123   6.466   9.369   9.146 -0.4492  0.0206  0.1524
  290MOL0     H39124   6.324   9.636   9.082 -1.5784  0.1244  1.5031
  290MOL0     H39125   6.373   9.588   9.236 -2.9848 -0.1280  1.7611
  290MOL0     H39126   6.212   9.389   9.222  0.4266 -2.2348 -1.9831
  290MOL0     H39127   6.129   9.543   9.209 -0.5124 -1.1457 -1.4353
  290MOL0     H39128   6.055   9.382   9.041 -1.3108  1.3244 -0.6172
  290MOL0     H39129   6.213   9.374   8.966  0.9043 -0.9478  2.3490
  290MOL0     H39130   6.075   9.513   8.828  1.6934 -0.6456 -0.7467
  290MOL0     H39131   6.181   9.614   8.923  0.2222 -0.5482 -4.2031
  290MOL0     H39132   6.826   9.485   8.577 -1.8597  0.6481  0.9035
  290MOL0     H39133   7.053   9.496   8.497  0.5620 -2.7111  3.2970
  290MOL0     H39134   7.305   9.939   8.266 -0.8208  0.1606  3.5897
  290MOL0     H39135   7.498   9.962   8.106  0.7053 -0.0521  0.3888
  290MOL0     H39136   9.299   8.985   8.048 -1.6789  1.0648 -1.9078
  290MOL0     H39137   9.505   8.970   8.196 -0.2077  1.0452  0.4034
  290MOL0     H39138   9.880   9.086   8.335  0.1696  2.2141 -0.4563
  290MOL0     H39139  10.083   9.110   8.483  0.8645  2.0732 -1.0216
  290MOL0     H39140  10.493   8.985   8.351  1.9867  0.8934 -2.1130
  290MOL0     H39141  10.452   9.135   8.271 -2.9579  0.9795 -0.2679
  290MOL0     H39142  10.590   9.097   8.549 -1.6712  1.1631  0.5549
  290MOL0     H39143  10.484   9.231   8.530 -0.8346 -0.5112  1.2983
  290MOL0     H39144  10.617   9.305   8.315 -0.3742  1.6787  1.7498
  290MOL0     H39145  10.703   9.147   8.337 -1.1026  0.5314 -1.4659
  290MOL0     H39146  10.825   9.237   8.524 -1.0066  0.3000  1.7309
  290MOL0     H39147  10.721   9.368   8.556 -3.4794 -1.5953  0.2067
  290MOL0     H39148  10.945   9.511   8.229  2.2229  0.3903  1.0084
  290MOL0     H39149  10.325   8.979   8.162 -0.6727 -0.3088 -0.6579
  290MOL0     H39150  10.150   8.961   8.019 -0.2284 -0.8779  0.9698
  291MOL0     O39151   9.494  10.870  10.254 -0.5285  0.5034  0.2952
  291MOL0     C39152   9.512  10.983  10.218  0.1102 -0.1752  0.2014
  291MOL0     O39153   9.419  11.071  10.197  0.3021  0.2461 -1.1828
  291MOL0     C39154   9.291  11.014  10.187  0.4000  0.0907 -1.3236
  291MOL0     C39155   9.197  11.027  10.289  0.1668 -0.2850  0.2321
  291MOL0     C39156   9.069  10.979  10.282 -0.0511 -1.2504  0.0108
  291MOL0     C39157   9.036  10.905  10.175  0.3445  0.2130 -0.4260
  291MOL0     O39158   8.914  10.838  10.174 -0.1000 -0.5193  0.4952
  291MOL0     C39159   8.786  10.909  10.194 -0.3497 -0.0759 -0.5543
  291MOL0     C39160   8.679  10.824  10.136  0.3810  0.3081  0.3847
  291MOL0     C39161   8.697  10.806   9.983  0.0260 -0.4415  0.1818
  291MOL0     C39162   8.580  10.725   9.932  0.8462 -0.4641 -0.0275
  291MOL0     C39163   8.453  10.810   9.913  0.2229  1.1398 -0.3869
  291MOL0     C39164   8.336  10.711   9.885  0.5763  0.6958 -0.4795
  291MOL0     C39165   8.206  10.787   9.849 -0.7898 -0.4737 -0.0757
  291MOL0     C39166   8.203  10.827   9.709 -0.4194  0.6991  0.9257
  291MOL0     N39167   8.069  10.852   9.652  0.3670 -0.1144  0.2757
  291MOL0     C39168   8.029  10.830   9.520 -0.2377  0.8650  0.2278
  291MOL0     C39169   7.899  10.845   9.515 -0.0188  0.5372  1.7987
  291MOL0     C39170   7.815  10.834   9.381  0.4143  0.4283 -0.8772
  291MOL0     C39171   7.662  10.812   9.399 -0.6728 -0.4718 -0.7810
  291MOL0     C39172   7.584  10.930   9.469 -0.5021 -0.0896 -0.4289
  291MOL0     C39173   7.431  10.907   9.470 -0.4801 -0.4089 -0.8683
  291MOL0     O39174   7.371  10.886   9.343 -0.1427  0.1759  0.2928
  291MOL0     C39175   7.239  10.877   9.337  0.1453  0.3633 -0.2880
  291MOL0     C39176   7.180  10.866   9.218  0.7922  0.3588 -0.4031
  291MOL0     C39177   7.036  10.844   9.195 -0.4683  0.6110  0.5254
  291MOL0     C39178   6.995  10.830   9.046  0.0898 -0.4063 -1.1590
  291MOL0     C39179   6.954  10.837   9.304  0.7908  0.1661  0.0106
  291MOL0     C39180   6.810  10.821   9.308  0.0166  0.1652 -0.0199
  291MOL0     O39181   6.751  10.745   9.403 -0.1491 -0.1198  0.8522
  291MOL0     C39182   6.629  10.691   9.380 -0.2581  0.3342 -1.0813
  291MOL0     C39183   6.582  10.633   9.257 -0.0404 -0.2414  0.0708
  291MOL0     C39184   6.463  10.555   9.270  0.1677  0.4586  0.1734
  291MOL0     C39185   6.391  10.542   9.386  1.3130  0.4871 -0.0806
  291MOL0     O39186   6.270  10.464   9.406 -0.8019 -0.1571 -0.0485
  291MOL0     C39187   6.225  10.379   9.303  0.8733 -0.2739 -0.9351
  291MOL0     C39188   6.117  10.286   9.360 -0.7062 -0.3520 -0.8168
  291MOL0     C39189   5.984  10.361   9.398 -0.2615 -0.1794  0.6097
  291MOL0     C39190   5.871  10.284   9.481  0.4163 -0.1865 -0.3732
  291MOL0     C39191   5.767  10.394   9.521  0.9418  0.1965  0.6631
  291MOL0     C39192   5.628  10.339   9.559  0.6263  0.0125  0.4479
  291MOL0     C39193   5.636  10.253   9.690  0.4773  0.3703 -0.0209
  291MOL0     C39194   5.504  10.191   9.719 -0.1398  0.2224  0.6892
  291MOL0    Cl39195   5.463  10.082   9.589 -0.1334  0.0266  0.0188
  291MOL0     C39196   6.448  10.596   9.500  0.2146  0.2897 -0.7508
  291MOL0     C39197   6.563  10.667   9.501  0.0672 -1.5139 -0.5018
  291MOL0     O39198   6.746  10.874   9.214  0.4446  0.8690  0.0115
  291MOL0     C39199   7.012  10.853   9.431  0.3428 -0.8152 -0.2774
  291MOL0     C39200   7.147  10.879   9.441 -0.5607 -0.3646 -0.1195
  291MOL0     N39201   7.858  10.885   9.645  0.5297  0.8612  0.1617
  291MOL0     N39202   7.960  10.891   9.724 -0.2367 -0.1293 -0.3755
  291MOL0     C39203   9.131  10.865  10.076  0.3499 -0.4156 -0.6197
  291MOL0     C39204   9.257  10.923  10.086  0.1384 -0.4748 -0.4763
  291MOL0     C39205   9.652  11.026  10.205 -0.0523  0.2142  0.3168
  291MOL0     C39206   9.767  10.939  10.227  0.2981 -0.0227  0.5331
  291MOL0     C39207   9.896  10.991  10.202  0.0205  0.4988  0.3814
  291MOL0     C39208   9.916  11.123  10.167  0.0440  0.4924  0.0375
  291MOL0     O39209  10.046  11.161  10.161 -0.3887 -0.0443  0.4568
  291MOL0     C39210  10.078  11.290  10.110 -0.2666  0.1643 -0.1986
  291MOL0     C39211  10.222  11.280  10.055  0.4059  0.3145  0.0239
  291MOL0     C39212  10.319  11.254  10.158 -0.1740  0.1203 -0.5486
  291MOL0     C39213  10.464  11.279  10.121  0.1891 -0.2149 -0.8459
  291MOL0     C39214  10.520  11.175  10.033  0.5050  0.2972  0.6081
  291MOL0     C39215  10.564  11.077   9.968  0.1699  0.5232  0.1210
  291MOL0     C39216   9.810  11.212  10.145 -0.0815  0.1410  0.4420
  291MOL0     C39217   9.679  11.167  10.173 -0.6619  0.4338  0.4680
  291MOL0     H39218   9.238  11.082  10.373  1.6569 -2.2490  0.8522
  291MOL0     H39219   8.998  11.002  10.361  1.9028 -0.7096  1.6966
  291MOL0     H39220   8.766  10.942  10.296 -1.0878  0.9490 -1.0133
  291MOL0     H39221   8.790  11.001  10.134 -2.3409  1.6646  1.8212
  291MOL0     H39222   8.685  10.721  10.173 -1.7617 -0.4034 -1.0111
  291MOL0     H39223   8.579  10.860  10.159  0.5528  2.1816 -1.4844
  291MOL0     H39224   8.705  10.901   9.928 -0.9180 -0.6241 -0.2878
  291MOL0     H39225   8.782  10.744   9.955 -0.8273 -0.3255 -3.0144
  291MOL0     H39226   8.608  10.684   9.834  2.3475  1.5913 -0.5335
  291MOL0     H39227   8.559  10.641   9.997 -0.4266 -0.3505 -0.2707
  291MOL0     H39228   8.426  10.873   9.999 -4.7575  0.1216 -0.8690
  291MOL0     H39229   8.472  10.878   9.830 -0.0888 -0.3374 -1.7163
  291MOL0     H39230   8.360  10.657   9.793  0.6613  2.0984 -1.3163
  291MOL0     H39231   8.326  10.645   9.972  1.0936  1.7347  0.3959
  291MOL0     H39232   8.122  10.721   9.872 -2.8306  2.7519  2.7392
  291MOL0     H39233   8.194  10.879   9.908  1.1358 -0.9911  1.2461
  291MOL0     H39234   8.242  10.747   9.646 -1.1032  1.4767 -0.5547
  291MOL0     H39235   8.278  10.906   9.694 -0.6453  0.7009 -0.3485
  291MOL0     H39236   8.089  10.796   9.436 -0.5315  1.9414 -0.4345
  291MOL0     H39237   7.827  10.929   9.328  2.1097 -0.6665 -2.5873
  291MOL0     H39238   7.861  10.755   9.321  0.9233 -0.5537  0.7217
  291MOL0     H39239   7.654  10.724   9.464 -1.2301  0.1323 -0.0158
  291MOL0     H39240   7.618  10.789   9.301  0.5651 -1.2232 -1.1868
  291MOL0     H39241   7.609  11.018   9.408  0.9639  0.3707  0.7718
  291MOL0     H39242   7.621  10.935   9.572  1.0494  0.6655 -0.9778
  291MOL0     H39243   7.402  11.003   9.515 -1.0200 -1.1608  0.4519
  291MOL0     H39244   7.400  10.822   9.532  0.0556 -1.1333 -1.5709
  291MOL0     H39245   7.240  10.871   9.128 -0.7823 -0.8678 -1.5894
  291MOL0     H39246   7.077  10.781   8.992  2.3021  0.2797  1.3284
  291MOL0     H39247   6.901  10.775   9.036  1.9926 -4.6595  1.5494
  291MOL0     H39248   6.973  10.932   9.014 -0.0983  1.3623  3.7306
  291MOL0     H39249   6.655  10.644   9.178  1.0602 -2.0078  0.7805
  291MOL0     H39250   6.428  10.505   9.180  2.2849 -0.1423 -0.3773
  291MOL0     H39251   6.176  10.434   9.223 -0.0458 -0.1776 -0.3277
  291MOL0     H39252   6.302  10.312   9.265 -0.2076 -2.4318  0.4180
  291MOL0     H39253   6.110  10.197   9.297 -2.2149 -1.2731  0.5576
  291MOL0     H39254   6.160  10.247   9.453  0.2270  1.2508 -0.5251
  291MOL0     H39255   5.937  10.408   9.311 -0.2802 -1.2592  0.0130
  291MOL0     H39256   6.005  10.444   9.467  0.7654 -0.4744  0.6647
  291MOL0     H39257   5.831  10.206   9.415  2.0254 -1.9648  0.6557
  291MOL0     H39258   5.914  10.245   9.573  1.7464  2.2376  0.1136
  291MOL0     H39259   5.744  10.467   9.442  0.1438  1.1014  1.6954
  291MOL0     H39260   5.811  10.461   9.595  1.8365  1.7855 -1.2071
  291MOL0     H39261   5.570  10.430   9.574 -2.8779 -1.4368 -2.6436
  291MOL0     H39262   5.596  10.291   9.466  1.3698  1.4691 -0.5901
  291MOL0     H39263   5.672  10.310   9.776  0.5273  1.9384 -1.0414
  291MOL0     H39264   5.703  10.170   9.666 -0.9818 -0.7865 -0.2155
  291MOL0     H39265   5.430  10.269   9.738  0.8156  0.6613  2.9727
  291MOL0     H39266   5.504  10.129   9.810 -4.2293 -0.5529  0.3622
  291MOL0     H39267   6.405  10.566   9.595  1.0040 -1.4612 -0.9072
  291MOL0     H39268   6.601  10.714   9.592  0.9252 -2.1416 -0.5267
  291MOL0     H39269   6.946  10.852   9.518 -1.0483  2.1042 -1.1570
  291MOL0     H39270   7.178  10.892   9.544 -2.1680 -0.2657  0.3774
  291MOL0     H39271   9.097  10.790  10.006  1.0119  1.3045 -2.9125
  291MOL0     H39272   9.328  10.887  10.012  1.0940 -2.1703  1.1691
  291MOL0     H39273   9.754  10.838  10.264 -0.8343  0.1788  0.7331
  291MOL0     H39274   9.973  10.916  10.211 -0.7065 -0.6291 -1.9493
  291MOL0     H39275  10.009  11.304  10.026 -0.5551 -0.5954 -0.0912
  291MOL0     H39276  10.061  11.363  10.189 -2.3114 -0.7592  0.2787
  291MOL0     H39277  10.237  11.377  10.006  0.4859 -0.1968 -0.9837
  291MOL0     H39278  10.229  11.205   9.977  0.5105  1.0152 -0.6563
  291MOL0     H39279  10.296  11.154  10.196  0.7817 -0.0043 -0.2645
  291MOL0     H39280  10.297  11.318  10.244 -3.9652 -1.7536  0.0962
  291MOL0     H39281  10.525  11.263  10.210 -2.8466 -2.1155  1.0595
  291MOL0     H39282  10.478  11.380  10.082 -3.8480  0.6586 -0.4317
  291MOL0     H39283  10.595  10.983   9.926 -1.4505 -1.6165  3.2981
  291MOL0     H39284   9.831  11.314  10.113  0.7810 -0.6853 -1.8030
  291MOL0     H39285   9.595  11.231  10.148 -0.6748  0.6181  0.9806
  292MOL0     O39286   3.318   8.952   3.741 -0.1368 -0.1083  0.4058
  292MOL0     C39287   3.366   8.848   3.785 -0.3560  0.4687  0.9252
  292MOL0     O39288   3.322   8.765   3.882  0.2371 -0.8580  0.2197
  292MOL0     C39289   3.227   8.815   3.964  0.2401  0.2424 -0.0317
  292MOL0     C39290   3.100   8.769   3.954  0.3503 -0.0830  0.1322
  292MOL0     C39291   2.994   8.812   4.038  0.1571 -0.4419  0.0697
  292MOL0     C39292   3.024   8.887   4.151 -1.0753  1.3216  0.6887
  292MOL0     O39293   2.925   8.916   4.242 -0.2837  0.2896 -0.0954
  292MOL0     C39294   2.803   8.963   4.188 -0.2716  0.8699  0.5221
  292MOL0     C39295   2.735   9.001   4.317 -0.2068 -0.3774  0.0747
  292MOL0     C39296   2.622   9.104   4.300  0.1051 -1.2477  0.3219
  292MOL0     C39297   2.538   9.125   4.423 -0.4954  0.3521 -0.4838
  292MOL0     C39298   2.405   9.195   4.407 -0.1165 -0.2155  0.5111
  292MOL0     C39299   2.293   9.087   4.390  0.4047 -0.2808  0.5497
  292MOL0     C39300   2.156   9.157   4.365  0.1960  0.0634 -0.9265
  292MOL0     C39301   2.042   9.057   4.359  0.1742 -0.0201 -0.6978
  292MOL0     N39302   1.924   9.114   4.298 -0.1105 -0.8723  0.0837
  292MOL0     C39303   1.842   9.212   4.353 -0.0920  0.5659 -1.2014
  292MOL0     C39304   1.731   9.222   4.276  0.0133  0.4333  0.6273
  292MOL0     C39305   1.619   9.318   4.281 -0.3904 -0.3225 -0.2170
  292MOL0     C39306   1.661   9.457   4.248 -1.0397  0.6258  0.2687
  292MOL0     C39307   1.545   9.557   4.260 -0.1570 -1.2260  0.6458
  292MOL0     C39308   1.591   9.704   4.251  0.9458  0.0303  0.2844
  292MOL0     O39309   1.657   9.731   4.122  0.3289 -0.4952  0.1149
  292MOL0     C39310   1.601   9.827   4.038  0.8177 -0.2073 -0.4507
  292MOL0     C39311   1.677   9.889   3.953 -0.1911 -1.0099  0.3118
  292MOL0     C39312   1.638  10.002   3.884  0.4467  0.4617  0.4253
  292MOL0     C39313   1.746  10.070   3.799 -0.8222 -1.1314  0.6426
  292MOL0     C39314   1.502  10.041   3.881  0.6315 -0.7708 -1.0499
  292MOL0     C39315   1.442  10.151   3.803 -0.1534 -0.1673  0.7042
  292MOL0     O39316   1.303  10.143   3.793 -1.0625 -0.3579 -0.2057
  292MOL0     C39317   1.254  10.242   3.722 -0.2173 -0.3896 -0.4776
  292MOL0     C39318   1.233  10.360   3.794  0.2075  0.3393 -0.1802
  292MOL0     C39319   1.189  10.472   3.731 -0.3100 -0.8423 -0.4906
  292MOL0     C39320   1.152  10.462   3.589  0.5722 -1.0357 -0.7440
  292MOL0     O39321   1.090  10.561   3.514  0.2668 -0.3838 -0.0024
  292MOL0     C39322   1.061  10.696   3.564 -0.2492  0.0572 -1.3753
  292MOL0     C39323   1.030  10.794   3.447  0.1125 -0.0629  0.4392
  292MOL0     C39324   1.149  10.839   3.359 -0.5887  1.3134  0.8636
  292MOL0     C39325   1.125  10.958   3.278  0.1782 -0.7340  1.1592
  292MOL0     C39326   1.181  11.080   3.350  0.5671  0.0813 -0.0920
  292MOL0     C39327   1.165  11.205   3.259  0.1608  0.0009  0.2763
  292MOL0     C39328   1.270  11.315   3.297  0.2691 -0.5492  0.8505
  292MOL0     C39329   1.266  11.431   3.201  0.1744 -0.0229 -0.8701
  292MOL0    Cl39330   1.374  11.555   3.274  0.0957  0.4858  0.2270
  292MOL0     C39331   1.171  10.341   3.521  0.3886 -1.3557 -0.2346
  292MOL0     C39332   1.214  10.219   3.589  0.3484 -0.0173 -0.2299
  292MOL0     O39333   1.512  10.247   3.766  0.5400 -0.5463 -0.3509
  292MOL0     C39334   1.411   9.969   3.961 -0.0642 -0.0433 -0.2013
  292MOL0     C39335   1.465   9.872   4.037 -0.1283  0.0166  0.0228
  292MOL0     N39336   1.756   9.136   4.168 -0.1390  0.0097  0.5002
  292MOL0     N39337   1.869   9.071   4.176  0.1644 -0.0956 -0.3405
  292MOL0     C39338   3.164   8.924   4.171  0.1642 -0.7484 -0.8552
  292MOL0     C39339   3.258   8.895   4.082  0.3501 -0.0867  0.4137
  292MOL0     C39340   3.476   8.795   3.704  0.0155  0.9771 -0.0071
  292MOL0     C39341   3.559   8.694   3.752 -0.5709  0.0328  0.6099
  292MOL0     C39342   3.678   8.650   3.697  0.2604  0.7198 -0.1151
  292MOL0     C39343   3.713   8.708   3.569  0.8339  0.4725 -0.5892
  292MOL0     O39344   3.819   8.670   3.493 -0.2099 -0.1965 -0.0247
  292MOL0     C39345   3.909   8.572   3.552 -0.3297  0.7256 -0.0290
  292MOL0     C39346   3.873   8.433   3.505 -0.3468  0.1984  0.4602
  292MOL0     C39347   3.975   8.326   3.561  0.7765  0.6545 -0.2894
  292MOL0     C39348   4.106   8.316   3.480  0.6102 -0.6516 -0.2277
  292MOL0     C39349   4.180   8.195   3.511  0.4615  0.6743 -0.0529
  292MOL0     C39350   4.224   8.086   3.530  0.4965  0.4127 -0.1865
  292MOL0     C39351   3.626   8.797   3.513 -0.7029  0.3237 -0.0561
  292MOL0     C39352   3.511   8.843   3.579  0.4048  0.6370 -0.1054
  292MOL0     H39353   3.063   8.696   3.883 -1.3625  0.0732  0.8285
  292MOL0     H39354   2.891   8.781   4.021 -1.2181  2.1515  2.7345
  292MOL0     H39355   2.803   9.049   4.121 -0.8057  0.1295 -0.4554
  292MOL0     H39356   2.744   8.886   4.137  0.2303  0.3196  0.7576
  292MOL0     H39357   2.699   8.910   4.365 -0.7220  0.2662  0.9522
  292MOL0     H39358   2.793   9.062   4.387 -0.7437  1.4242 -0.9886
  292MOL0     H39359   2.669   9.200   4.278  0.4253 -1.2687  0.9031
  292MOL0     H39360   2.562   9.077   4.212  0.0918 -2.4299  0.6744
  292MOL0     H39361   2.523   9.025   4.465  4.1855 -1.2991 -2.0722
  292MOL0     H39362   2.601   9.173   4.499  0.6990  2.1116 -2.4676
  292MOL0     H39363   2.382   9.248   4.500  0.2607 -0.4028  0.7131
  292MOL0     H39364   2.406   9.254   4.315  1.2922  0.7928  1.1421
  292MOL0     H39365   2.324   9.027   4.304  2.0330 -1.3668  1.8336
  292MOL0     H39366   2.291   9.015   4.473 -0.8831 -2.5955 -1.3513
  292MOL0     H39367   2.132   9.220   4.451  1.9982  1.2626 -1.2432
  292MOL0     H39368   2.156   9.221   4.276 -1.8646  2.4217  0.6673
  292MOL0     H39369   2.016   9.014   4.457  0.4069  0.8280 -0.2510
  292MOL0     H39370   2.084   8.973   4.303  1.8619  0.8388 -0.8107
  292MOL0     H39371   1.851   9.264   4.447  1.8618 -1.1436 -0.3601
  292MOL0     H39372   1.549   9.290   4.202  1.3732 -1.6797 -1.3835
  292MOL0     H39373   1.578   9.316   4.382 -0.6075 -0.9580 -0.3143
  292MOL0     H39374   1.696   9.451   4.144 -1.1900 -2.7168  0.3082
  292MOL0     H39375   1.742   9.478   4.318 -0.9286  2.7374 -0.4167
  292MOL0     H39376   1.517   9.551   4.365  1.3343  0.4932  1.2076
  292MOL0     H39377   1.463   9.539   4.190 -0.0811 -2.9087  0.9594
  292MOL0     H39378   1.667   9.720   4.328 -0.7117  0.1014  1.9971
  292MOL0     H39379   1.509   9.775   4.267 -0.0564 -0.5058 -2.0059
  292MOL0     H39380   1.779   9.858   3.939  0.6294  1.8141 -0.8157
  292MOL0     H39381   1.743  10.179   3.808  1.1421 -0.9899  0.1294
  292MOL0     H39382   1.849  10.039   3.820 -0.6718 -0.5743  0.7358
  292MOL0     H39383   1.724  10.035   3.697  1.0080  0.2450 -0.3040
  292MOL0     H39384   1.249  10.358   3.902 -0.5408  3.5239  0.0737
  292MOL0     H39385   1.167  10.559   3.792 -1.9113 -1.9966  0.6539
  292MOL0     H39386   0.968  10.675   3.617 -2.1885 -2.4605 -5.3304
  292MOL0     H39387   1.134  10.731   3.638 -2.6748  0.8417  0.8202
  292MOL0     H39388   0.951  10.752   3.384  1.1555  0.5772 -1.3496
  292MOL0     H39389   0.982  10.879   3.496  1.8923  0.4064  1.4455
  292MOL0     H39390   1.169  10.756   3.290  0.0946  2.5315 -0.4568
  292MOL0     H39391   1.236  10.856   3.423 -0.8522  0.0477  1.6045
  292MOL0     H39392   1.175  10.936   3.184 -0.0681  1.5743  0.4326
  292MOL0     H39393   1.020  10.976   3.255  0.0571  0.3865  2.4280
  292MOL0     H39394   1.287  11.063   3.369  0.2516 -1.4086  0.4910
  292MOL0     H39395   1.141  11.090   3.451 -0.4452  2.8148 -0.6691
  292MOL0     H39396   1.176  11.175   3.155 -3.3842 -1.2471  0.1246
  292MOL0     H39397   1.063  11.242   3.266  0.2820  0.6953 -1.3657
  292MOL0     H39398   1.368  11.266   3.304  0.5536  0.1892  2.3067
  292MOL0     H39399   1.244  11.353   3.396 -0.3346  0.9981  0.1263
  292MOL0     H39400   1.171  11.485   3.199 -0.4206 -1.0112 -0.1015
  292MOL0     H39401   1.292  11.423   3.095  0.3538  1.2775 -0.9313
  292MOL0     H39402   1.140  10.338   3.417 -1.1255 -0.1862  0.1342
  292MOL0     H39403   1.229  10.118   3.551  2.7686  0.5385 -0.9465
  292MOL0     H39404   1.304   9.989   3.967  0.2400  1.6911 -0.0263
  292MOL0     H39405   1.389   9.814   4.089 -0.7794  1.6757  1.0186
  292MOL0     H39406   3.182   8.984   4.260 -0.9867  0.5383 -1.4690
  292MOL0     H39407   3.362   8.925   4.087 -0.4918  2.9438  2.1168
  292MOL0     H39408   3.530   8.647   3.846 -0.1892  0.3899  0.9132
  292MOL0     H39409   3.734   8.569   3.745  1.3824  0.2381 -2.1473
  292MOL0     H39410   4.003   8.596   3.501 -0.8435  0.9398 -0.8966
  292MOL0     H39411   3.922   8.578   3.661 -3.3688 -1.3188  0.5505
  292MOL0     H39412   3.878   8.424   3.396 -0.7655 -1.8844  0.5592
  292MOL0     H39413   3.777   8.403   3.548 -0.1277 -1.2370  0.0112
  292MOL0     H39414   3.925   8.229   3.573 -1.6459  1.2096 -4.2773
  292MOL0     H39415   4.006   8.359   3.661 -0.2061  0.8642 -0.0455
  292MOL0     H39416   4.176   8.399   3.487 -2.8348  2.7005 -2.2690
  292MOL0     H39417   4.066   8.303   3.380 -2.2041  0.2997  0.6745
  292MOL0     H39418   4.253   7.984   3.543 -2.2550 -1.3160 -5.0663
  292MOL0     H39419   3.647   8.830   3.412  0.5735 -1.5799 -0.4595
  292MOL0     H39420   3.448   8.915   3.529 -0.0511  0.2822 -0.0458
  293MOL0     O39421   6.868  10.503   2.647 -0.0093  0.4625  0.0889
  293MOL0     C39422   6.922  10.610   2.688  0.4814  0.7775 -0.8817
  293MOL0     O39423   6.873  10.740   2.668  0.2705 -0.0004 -0.3883
  293MOL0     C39424   6.766  10.757   2.582  0.7351 -0.3553  0.0855
  293MOL0     C39425   6.648  10.777   2.654 -0.4737 -0.1749  0.6813
  293MOL0     C39426   6.535  10.822   2.585  0.0687  0.9838 -0.1603
  293MOL0     C39427   6.543  10.845   2.445 -0.2892  0.0554  0.1486
  293MOL0     O39428   6.447  10.908   2.369 -0.1034 -0.1817 -0.2898
  293MOL0     C39429   6.327  10.952   2.423 -0.0888  0.7061  0.3962
  293MOL0     C39430   6.229  11.000   2.321 -0.8460 -0.0230 -0.7280
  293MOL0     C39431   6.107  11.046   2.396 -1.0659  0.6228  0.2953
  293MOL0     C39432   6.002  11.091   2.297 -0.2881 -0.4320  0.1754
  293MOL0     C39433   5.869  11.127   2.367 -0.4680  0.7298  0.0086
  293MOL0     C39434   5.747  11.124   2.272  0.0380 -0.6651 -0.5057
  293MOL0     C39435   5.639  11.209   2.329  0.1494 -0.4901  0.0337
  293MOL0     C39436   5.522  11.221   2.229 -0.1284  0.4221  0.4379
  293MOL0     N39437   5.555  11.296   2.106  0.6638 -0.3288 -0.2464
  293MOL0     C39438   5.505  11.257   1.979  0.2128 -0.1268 -0.4136
  293MOL0     C39439   5.523  11.358   1.902 -0.0763  0.0241  0.1691
  293MOL0     C39440   5.468  11.379   1.767  0.4453 -0.6537  0.4225
  293MOL0     C39441   5.321  11.431   1.754  0.5480  0.1215 -0.5934
  293MOL0     C39442   5.294  11.477   1.611  0.4194  0.1296  0.3277
  293MOL0     C39443   5.142  11.469   1.574 -0.3802  0.8827 -0.3833
  293MOL0     O39444   5.069  11.571   1.648  0.0011  0.3997  0.2152
  293MOL0     C39445   4.941  11.556   1.658  0.7288  0.1538  0.0178
  293MOL0     C39446   4.863  11.477   1.577 -0.0516 -0.0427 -0.2704
  293MOL0     C39447   4.726  11.463   1.594 -0.0734 -0.1111  0.8306
  293MOL0     C39448   4.654  11.380   1.485  0.0631  0.1400 -0.1794
  293MOL0     C39449   4.665  11.544   1.690  0.6539 -0.6532 -0.8538
  293MOL0     C39450   4.520  11.562   1.715  0.1153  0.1547  0.4008
  293MOL0     O39451   4.485  11.603   1.838 -0.6727 -0.1124  0.7804
  293MOL0     C39452   4.347  11.633   1.861  0.0921 -0.0957 -0.1531
  293MOL0     C39453   4.268  11.719   1.780 -0.4051 -0.3051 -0.3012
  293MOL0     C39454   4.141  11.742   1.818  0.3051 -0.2678  0.2285
  293MOL0     C39455   4.088  11.701   1.937 -0.2550  0.0744 -0.4512
  293MOL0     O39456   3.959  11.728   1.982 -0.1273  0.3292  1.1596
  293MOL0     C39457   3.864  11.793   1.902  0.3729 -0.0198  0.3428
  293MOL0     C39458   3.726  11.742   1.961  0.4005  0.0053  0.0688
  293MOL0     C39459   3.600  11.815   1.901 -0.7339 -0.2899 -0.1307
  293MOL0     C39460   3.464  11.795   1.970 -0.3346  0.1928  0.0123
  293MOL0     C39461   3.468  11.809   2.125 -0.4415  0.0640 -0.3234
  293MOL0     C39462   3.319  11.800   2.175 -0.1938  0.0281  0.6263
  293MOL0     C39463   3.318  11.801   2.333  0.4624  0.7166 -0.8947
  293MOL0     C39464   3.169  11.800   2.390 -0.1812  0.1836  0.1013
  293MOL0    Cl39465   3.175  11.799   2.561  0.1949  0.1192 -0.0593
  293MOL0     C39466   4.173  11.634   2.029 -0.3437 -0.1467 -0.8897
  293MOL0     C39467   4.301  11.601   1.994 -0.1647 -0.3640 -0.1523
  293MOL0     O39468   4.446  11.533   1.622  0.2065  0.6499 -0.0181
  293MOL0     C39469   4.742  11.626   1.773 -0.0910  0.0428  0.5364
  293MOL0     C39470   4.876  11.632   1.763  0.2635  0.7815 -0.3286
  293MOL0     N39471   5.604  11.457   1.962 -0.4605  0.2006  0.8540
  293MOL0     N39472   5.613  11.418   2.090 -0.1543 -0.2833  0.0633
  293MOL0     C39473   6.661  10.816   2.375  0.5086 -0.8498  0.1702
  293MOL0     C39474   6.775  10.783   2.446  0.4345  0.6657 -0.2453
  293MOL0     C39475   7.052  10.587   2.755 -0.2650  0.0386 -0.3207
  293MOL0     C39476   7.095  10.460   2.799 -0.3911 -0.5360  0.3786
  293MOL0     C39477   7.223  10.458   2.852 -0.3427  0.0698 -0.0275
  293MOL0     C39478   7.299  10.572   2.881 -0.0249  0.0476  0.4290
  293MOL0     O39479   7.420  10.571   2.945 -0.4838 -0.6491  0.5074
  293MOL0     C39480   7.455  10.462   3.030  0.3327 -0.2961 -0.0083
  293MOL0     C39481   7.602  10.470   3.089 -0.3185  0.2174  0.1844
  293MOL0     C39482   7.629  10.327   3.139 -0.1320  0.0521 -0.0345
  293MOL0     C39483   7.760  10.300   3.193 -0.4193 -0.3411 -0.2893
  293MOL0     C39484   7.847  10.256   3.085  0.4134  0.1734 -0.7826
  293MOL0     C39485   7.936  10.212   3.013  0.1367  0.7245 -0.7026
  293MOL0     C39486   7.257  10.694   2.845  0.7799 -0.5739  0.4766
  293MOL0     C39487   7.132  10.707   2.786  0.0922  0.0955  0.0635
  293MOL0     H39488   6.642  10.780   2.762  0.3500  0.5689  0.7205
  293MOL0     H39489   6.439  10.846   2.631  0.5062  0.6906  0.9452
  293MOL0     H39490   6.267  10.876   2.475  0.4262  1.1224  1.6283
  293MOL0     H39491   6.339  11.026   2.503 -2.7905  0.5151  1.0837
  293MOL0     H39492   6.285  11.079   2.269 -3.7155  1.5739 -1.6101
  293MOL0     H39493   6.193  10.919   2.257 -2.1631 -0.6375  0.7263
  293MOL0     H39494   6.070  10.954   2.442  0.1616  0.3224  0.7219
  293MOL0     H39495   6.120  11.124   2.473 -2.2216  1.9577 -0.8005
  293MOL0     H39496   6.036  11.172   2.232  0.3792 -0.9488 -0.1381
  293MOL0     H39497   5.990  11.004   2.233  0.0463 -1.7843  1.8831
  293MOL0     H39498   5.842  11.045   2.434  0.4788  1.0892  0.8534
  293MOL0     H39499   5.883  11.224   2.417  1.3369  0.8313 -0.6198
  293MOL0     H39500   5.762  11.151   2.167 -2.2236 -5.5399 -2.3792
  293MOL0     H39501   5.704  11.026   2.251 -2.5098 -0.1648  1.9208
  293MOL0     H39502   5.609  11.167   2.426  1.0970  0.5639  0.8072
  293MOL0     H39503   5.671  11.312   2.348 -2.2958  0.5581 -1.0682
  293MOL0     H39504   5.440  11.274   2.278 -1.4500 -3.4675  2.8933
  293MOL0     H39505   5.478  11.123   2.207  0.2341  0.9217 -2.9511
  293MOL0     H39506   5.437  11.178   1.949  0.9952 -0.6108 -0.9231
  293MOL0     H39507   5.528  11.456   1.717 -1.0852 -0.1167 -0.6794
  293MOL0     H39508   5.482  11.293   1.700 -0.4639 -0.2504 -0.3138
  293MOL0     H39509   5.310  11.520   1.817  0.0024  0.1060 -0.6653
  293MOL0     H39510   5.247  11.355   1.780  0.3885  0.4966  0.0799
  293MOL0     H39511   5.348  11.416   1.538 -0.3968  2.6883 -2.6271
  293MOL0     H39512   5.318  11.583   1.605  0.1029  0.1265 -1.4144
  293MOL0     H39513   5.097  11.377   1.612  0.0840  0.4162 -0.9459
  293MOL0     H39514   5.126  11.481   1.467 -1.0634  1.5029 -0.2187
  293MOL0     H39515   4.904  11.415   1.498  0.1883  0.8145 -0.8290
  293MOL0     H39516   4.608  11.291   1.528  0.9001 -1.1930 -1.9317
  293MOL0     H39517   4.570  11.433   1.439 -0.8793 -1.1378  0.0329
  293MOL0     H39518   4.717  11.357   1.398 -0.0932 -1.3306  0.0733
  293MOL0     H39519   4.306  11.744   1.681  0.6849  0.5924  0.3212
  293MOL0     H39520   4.078  11.802   1.753 -0.8881 -0.5113  1.1193
  293MOL0     H39521   3.874  11.900   1.923 -1.2183  0.3277 -0.5275
  293MOL0     H39522   3.859  11.764   1.797 -0.8839  0.0660  0.3564
  293MOL0     H39523   3.712  11.633   1.957  0.0108  0.0448  0.2748
  293MOL0     H39524   3.725  11.756   2.069 -2.3216 -1.0421  0.2697
  293MOL0     H39525   3.598  11.798   1.793  1.9303 -0.1363 -0.2782
  293MOL0     H39526   3.634  11.919   1.906 -0.8173  0.0598 -3.9835
  293MOL0     H39527   3.398  11.871   1.929  1.0063  3.1363  2.8358
  293MOL0     H39528   3.428  11.696   1.942 -2.4614  0.0374  2.8655
  293MOL0     H39529   3.523  11.891   2.172  0.0893 -0.4571 -0.0132
  293MOL0     H39530   3.516  11.715   2.154  3.1777  1.6261 -0.7048
  293MOL0     H39531   3.257  11.878   2.130  1.6292 -0.3221 -2.8178
  293MOL0     H39532   3.280  11.705   2.136  3.4008 -0.1510 -3.3345
  293MOL0     H39533   3.368  11.890   2.370 -0.9373  0.8517  0.7932
  293MOL0     H39534   3.370  11.717   2.378  2.0279  0.7264 -2.5669
  293MOL0     H39535   3.120  11.710   2.351 -0.2204 -0.3941  1.4066
  293MOL0     H39536   3.110  11.887   2.359 -1.3854 -0.4600  0.4818
  293MOL0     H39537   4.142  11.617   2.132 -0.5078  1.8308 -0.5625
  293MOL0     H39538   4.370  11.565   2.069 -0.2792 -0.2496  0.0084
  293MOL0     H39539   4.700  11.690   1.851  1.5242 -1.0923  2.4426
  293MOL0     H39540   4.935  11.694   1.829  0.8125  1.0693 -1.0818
  293MOL0     H39541   6.654  10.843   2.270 -1.8360  1.5740  0.8347
  293MOL0     H39542   6.867  10.784   2.387  0.2670  0.3587 -0.5174
  293MOL0     H39543   7.028  10.376   2.786 -3.0636  1.8445 -3.0289
  293MOL0     H39544   7.256  10.365   2.896  1.1111  0.3206 -0.5364
  293MOL0     H39545   7.384  10.460   3.113 -1.3729 -0.0675 -1.4054
  293MOL0     H39546   7.442  10.368   2.977 -1.1011 -0.1175 -0.0250
  293MOL0     H39547   7.609  10.543   3.170 -1.9404 -2.1348  2.6066
  293MOL0     H39548   7.671  10.503   3.012 -0.1786  2.5386  1.2288
  293MOL0     H39549   7.615  10.251   3.062  0.9029  0.6487 -0.8423
  293MOL0     H39550   7.555  10.296   3.214  1.4627 -0.7397  1.3115
  293MOL0     H39551   7.750  10.220   3.267 -1.0426  0.2821  0.3104
  293MOL0     H39552   7.792  10.397   3.232 -2.1968 -0.0928  0.6458
  293MOL0     H39553   8.014  10.169   2.953  0.5037 -0.0383  0.3011
  293MOL0     H39554   7.313  10.785   2.863 -1.1168  0.6343  0.5161
  293MOL0     H39555   7.093  10.808   2.773 -0.0657  0.2791  1.7050
  294MOL0     O39556   8.252   3.894   8.281  0.1627 -0.8799 -0.4469
  294MOL0     C39557   8.247   3.776   8.295 -0.4780  0.9135 -0.4827
  294MOL0     O39558   8.361   3.693   8.278  0.2716  0.4318 -0.3968
  294MOL0     C39559   8.478   3.757   8.274 -1.0375  0.5616  0.8355
  294MOL0     C39560   8.536   3.782   8.393 -0.2318 -0.1194 -0.2955
  294MOL0     C39561   8.662   3.843   8.396  0.7431 -0.4191  0.1139
  294MOL0     C39562   8.718   3.891   8.280 -0.4511 -0.8610 -0.8575
  294MOL0     O39563   8.830   3.975   8.308 -0.3535  0.0423  0.5396
  294MOL0     C39564   8.906   4.023   8.194  0.2895 -0.4032 -0.3857
  294MOL0     C39565   8.991   4.155   8.235  0.2089 -0.0855 -0.7875
  294MOL0     C39566   9.115   4.159   8.148 -0.4192 -0.1870  0.1186
  294MOL0     C39567   9.205   4.264   8.199  0.1328 -0.8136  0.6755
  294MOL0     C39568   9.315   4.293   8.096  0.7391 -0.1277  0.5929
  294MOL0     C39569   9.428   4.373   8.142 -0.2973 -0.6427  0.2967
  294MOL0     C39570   9.524   4.304   8.246  0.2045  0.4176 -0.4500
  294MOL0     C39571   9.613   4.187   8.185 -0.6571 -0.1363  0.3568
  294MOL0     N39572   9.744   4.190   8.251  0.0621  0.3016 -0.4980
  294MOL0     C39573   9.768   4.148   8.385 -0.1291  0.3331 -0.2132
  294MOL0     C39574   9.893   4.201   8.419 -0.2683  0.4161  0.4676
  294MOL0     C39575   9.968   4.178   8.545 -0.7506 -0.1496  0.7136
  294MOL0     C39576  10.114   4.219   8.540 -0.6024  0.0466 -0.2027
  294MOL0     C39577  10.166   4.194   8.682 -0.8510  0.6314  0.2092
  294MOL0     C39578  10.308   4.256   8.687 -0.1097 -0.1033 -0.1667
  294MOL0     O39579  10.376   4.225   8.812  0.2358  0.3903 -0.5490
  294MOL0     C39580  10.478   4.303   8.860  0.4766  0.7592  1.2245
  294MOL0     C39581  10.524   4.284   8.986 -0.3297  0.7020 -0.3575
  294MOL0     C39582  10.623   4.365   9.043 -0.1208  0.0543  0.4899
  294MOL0     C39583  10.660   4.337   9.192 -0.3143  0.5267  0.1141
  294MOL0     C39584  10.680   4.471   8.960  0.2055  0.0049 -0.0915
  294MOL0     C39585  10.786   4.561   9.024 -0.0753  0.6757 -0.3234
  294MOL0     O39586  10.765   4.593   9.159  0.0834 -0.3349 -0.5249
  294MOL0     C39587  10.871   4.661   9.213 -0.5022 -0.1521  0.0563
  294MOL0     C39588  10.979   4.586   9.265 -0.2887 -0.7966  0.4588
  294MOL0     C39589  11.086   4.672   9.319  0.0211 -0.7338 -0.1417
  294MOL0     C39590  11.079   4.813   9.324  0.6063 -0.2367  0.7713
  294MOL0     O39591  11.172   4.890   9.385  0.3781 -0.3256  0.6193
  294MOL0     C39592  11.307   4.861   9.362  0.0339  0.8179 -0.0911
  294MOL0     C39593  11.369   4.982   9.431  0.4414 -0.0283 -0.6034
  294MOL0     C39594  11.384   5.089   9.326 -0.2185 -0.1372 -0.3738
  294MOL0     C39595  11.480   5.202   9.361  0.1438  0.2674  0.3852
  294MOL0     C39596  11.469   5.320   9.264  0.1716 -0.4061 -0.4284
  294MOL0     C39597  11.328   5.391   9.258 -0.3368 -0.2409 -0.9070
  294MOL0     C39598  11.347   5.507   9.163 -0.3038  0.1028 -0.3714
  294MOL0     C39599  11.226   5.601   9.163 -0.4906 -0.7047  0.9626
  294MOL0    Cl39600  11.203   5.683   9.326 -0.1143  0.0526  0.2955
  294MOL0     C39601  10.971   4.874   9.262  0.0002 -0.5623 -0.4687
  294MOL0     C39602  10.860   4.804   9.204 -0.7230 -0.3586 -0.5448
  294MOL0     O39603  10.888   4.591   8.961 -0.0214 -0.8396  0.3132
  294MOL0     C39604  10.625   4.495   8.836  0.7047 -0.5993  0.1732
  294MOL0     C39605  10.529   4.411   8.787 -0.8349 -0.0621 -0.6985
  294MOL0     N39606   9.928   4.283   8.316  0.0716  0.4623  0.3386
  294MOL0     N39607   9.847   4.270   8.217 -0.0220 -0.1675  0.6699
  294MOL0     C39608   8.667   3.857   8.156  0.8833 -1.0983  0.3045
  294MOL0     C39609   8.549   3.779   8.158 -0.2970 -0.2908  0.8511
  294MOL0     C39610   8.118   3.712   8.318 -1.0544  0.0354  0.3417
  294MOL0     C39611   8.111   3.570   8.294 -0.2508  0.0071  0.2252
  294MOL0     C39612   7.997   3.505   8.323  1.1082 -0.3458  0.4895
  294MOL0     C39613   7.891   3.569   8.388 -0.2072 -0.2328  0.8549
  294MOL0     O39614   7.765   3.525   8.431  0.3658  0.6140 -0.3942
  294MOL0     C39615   7.742   3.383   8.419 -0.1652 -0.3604 -0.4983
  294MOL0     C39616   7.594   3.347   8.427  0.3469 -0.8450 -0.0444
  294MOL0     C39617   7.512   3.384   8.550 -0.4982 -0.1480  0.0506
  294MOL0     C39618   7.536   3.301   8.676 -1.4221  0.2323  0.1085
  294MOL0     C39619   7.519   3.374   8.795  0.4890  0.0742 -0.0285
  294MOL0     C39620   7.502   3.429   8.903 -0.1838  0.9552 -0.5311
  294MOL0     C39621   7.894   3.707   8.398  0.1627 -0.3854  0.0210
  294MOL0     C39622   8.006   3.774   8.373 -0.1310  0.1375 -0.0768
  294MOL0     H39623   8.489   3.740   8.481  0.3614 -0.7726 -0.2816
  294MOL0     H39624   8.707   3.870   8.491 -1.6020 -1.8485  1.7355
  294MOL0     H39625   8.972   3.943   8.158 -0.8723 -1.8254  0.5468
  294MOL0     H39626   8.835   4.056   8.118  1.6075  0.5256 -1.2701
  294MOL0     H39627   8.931   4.247   8.236 -1.6390 -1.2378  0.9614
  294MOL0     H39628   9.013   4.142   8.341 -1.1285  2.7335 -0.0638
  294MOL0     H39629   9.174   4.068   8.150 -0.3724 -0.1809 -0.5841
  294MOL0     H39630   9.082   4.170   8.044 -0.2938  0.2632  0.1228
  294MOL0     H39631   9.158   4.361   8.216  0.1701 -0.8050  0.7308
  294MOL0     H39632   9.254   4.236   8.292 -0.1581 -1.3255  0.6781
  294MOL0     H39633   9.361   4.203   8.055 -2.4958 -0.2066 -3.5684
  294MOL0     H39634   9.274   4.343   8.007 -0.3877 -1.3103  0.4126
  294MOL0     H39635   9.487   4.415   8.060  0.1185  0.0767  0.9497
  294MOL0     H39636   9.385   4.454   8.201  1.2938 -0.8055  1.7773
  294MOL0     H39637   9.592   4.385   8.273  1.7933 -0.9339 -0.1559
  294MOL0     H39638   9.472   4.264   8.333 -1.5611 -0.9216 -2.0279
  294MOL0     H39639   9.624   4.207   8.078 -1.5176  0.5473  0.3919
  294MOL0     H39640   9.563   4.090   8.190 -0.8762 -0.1469 -1.3529
  294MOL0     H39641   9.705   4.093   8.454  3.1916 -0.5153  2.4271
  294MOL0     H39642   9.915   4.234   8.622 -1.0480 -0.3588  0.6639
  294MOL0     H39643   9.952   4.073   8.568  1.4617 -0.6831  0.0598
  294MOL0     H39644  10.119   4.327   8.525 -0.4599  0.2171  0.9428
  294MOL0     H39645  10.169   4.171   8.459 -2.8853 -1.3505 -1.0156
  294MOL0     H39646  10.172   4.089   8.714  2.4571  0.8585  0.6640
  294MOL0     H39647  10.092   4.247   8.742 -3.6771 -1.4602 -1.1850
  294MOL0     H39648  10.287   4.364   8.688 -0.1142 -0.1056  0.5293
  294MOL0     H39649  10.373   4.247   8.599 -0.5053  0.1901 -0.4909
  294MOL0     H39650  10.479   4.206   9.046  0.1598  0.4042 -0.3787
  294MOL0     H39651  10.768   4.328   9.208 -0.7270  0.3362  3.4951
  294MOL0     H39652  10.615   4.418   9.251  0.2372  0.5077  0.5710
  294MOL0     H39653  10.614   4.246   9.231  1.5276  0.7831  3.3467
  294MOL0     H39654  10.975   4.478   9.259 -0.9286 -0.7920  0.8302
  294MOL0     H39655  11.160   4.622   9.380 -1.0967 -1.3143  0.7853
  294MOL0     H39656  11.341   4.767   9.406 -3.0557 -0.1991  0.3959
  294MOL0     H39657  11.324   4.862   9.254 -1.1549 -1.1577 -0.3334
  294MOL0     H39658  11.310   5.013   9.517  1.2572 -0.2515  0.0482
  294MOL0     H39659  11.469   4.959   9.469  0.1174  0.3969  0.5255
  294MOL0     H39660  11.286   5.137   9.310 -0.7796 -1.5539 -1.3679
  294MOL0     H39661  11.417   5.046   9.231 -1.0359 -1.4331 -0.0967
  294MOL0     H39662  11.461   5.233   9.464 -0.1095  0.5337  0.2593
  294MOL0     H39663  11.584   5.167   9.354  0.7638  2.1274 -0.1449
  294MOL0     H39664  11.500   5.302   9.160  2.3842  0.4566  0.0193
  294MOL0     H39665  11.547   5.390   9.296  0.0366 -0.3501 -0.2257
  294MOL0     H39666  11.244   5.327   9.230 -1.3685  0.6475  0.1054
  294MOL0     H39667  11.303   5.422   9.359  1.5777 -0.8945 -0.1880
  294MOL0     H39668  11.361   5.474   9.060  2.2565  1.6792 -0.6275
  294MOL0     H39669  11.433   5.574   9.181 -2.3585  2.4341  1.6271
  294MOL0     H39670  11.134   5.547   9.139 -1.9682  1.7601  0.7854
  294MOL0     H39671  11.236   5.670   9.079 -2.4293 -1.3420  0.1385
  294MOL0     H39672  10.986   4.980   9.243  4.3660 -1.4864 -3.9339
  294MOL0     H39673  10.781   4.856   9.152 -1.0407 -2.2950 -2.1005
  294MOL0     H39674  10.665   4.574   8.774 -0.4478 -1.8169 -2.2316
  294MOL0     H39675  10.500   4.436   8.685 -0.6980  3.1475 -0.0442
  294MOL0     H39676   8.708   3.898   8.064  0.9980  1.7093  1.5014
  294MOL0     H39677   8.500   3.765   8.063  1.5940  2.2810 -0.6490
  294MOL0     H39678   8.190   3.520   8.241  0.8470  2.6175 -0.7701
  294MOL0     H39679   7.994   3.401   8.291  2.4698 -0.6284  1.1695
  294MOL0     H39680   7.781   3.334   8.329  1.7858  1.6904 -0.8525
  294MOL0     H39681   7.793   3.339   8.504  1.7492 -0.5964 -1.7046
  294MOL0     H39682   7.584   3.239   8.412  1.7815 -1.0549  0.3659
  294MOL0     H39683   7.552   3.409   8.347 -0.1734  2.0863  2.3161
  294MOL0     H39684   7.405   3.372   8.530 -1.3352  2.2846  2.4362
  294MOL0     H39685   7.534   3.488   8.579 -0.0332 -0.4609  0.8453
  294MOL0     H39686   7.643   3.279   8.676 -1.6022 -0.8833  1.9985
  294MOL0     H39687   7.485   3.205   8.670  1.0283 -1.0462 -3.8429
  294MOL0     H39688   7.488   3.473   9.000  1.7484 -1.4707  0.9682
  294MOL0     H39689   7.808   3.757   8.443 -0.0391 -0.7719  0.0643
  294MOL0     H39690   7.994   3.879   8.396 -0.4457  0.5450 -1.8931
  295MOL0     O39691   8.613   0.235   5.873  0.1098 -0.1230 -0.0475
  295MOL0     C39692   8.647   0.348   5.895 -0.4330 -0.0249 -1.3773
  295MOL0     O39693   8.572   0.445   5.950 -0.3976  0.7925 -0.0670
  295MOL0     C39694   8.439   0.412   5.977 -0.3760  0.4348  0.3479
  295MOL0     C39695   8.411   0.409   6.113  1.0697 -0.3010 -0.1901
  295MOL0     C39696   8.284   0.374   6.162 -0.7346 -0.5229  0.2260
  295MOL0     C39697   8.181   0.347   6.075  0.0305  0.5457  0.9594
  295MOL0     O39698   8.047   0.325   6.110  0.1553  0.1418  0.0689
  295MOL0     C39699   7.992   0.377   6.233 -0.2907 -0.6088  0.2377
  295MOL0     C39700   7.865   0.304   6.263  0.1142  0.4283  0.2337
  295MOL0     C39701   7.771   0.365   6.367 -0.1633 -1.1067 -0.2490
  295MOL0     C39702   7.635   0.290   6.381  0.0507  0.5901  0.4611
  295MOL0     C39703   7.525   0.362   6.314  0.0039  0.7702 -0.0634
  295MOL0     C39704   7.392   0.293   6.326 -0.3343  0.4611  0.4664
  295MOL0     C39705   7.299   0.361   6.238 -0.0577 -0.5463  0.5023
  295MOL0     C39706   7.165   0.282   6.227  0.7560 -0.3548  0.2400
  295MOL0     N39707   7.079   0.313   6.345  0.0781 -0.2899 -0.2893
  295MOL0     C39708   7.073   0.252   6.470  0.4893  0.0973 -0.1308
  295MOL0     C39709   6.986   0.325   6.534  1.1584  0.1386  0.1728
  295MOL0     C39710   6.945   0.293   6.673 -0.1185 -0.1280  0.5483
  295MOL0     C39711   6.796   0.318   6.693  0.0463  0.7951 -0.1324
  295MOL0     C39712   6.768   0.455   6.755 -0.4828 -0.4645 -0.8184
  295MOL0     C39713   6.624   0.498   6.751 -0.8742 -0.0126 -1.1430
  295MOL0     O39714   6.597   0.541   6.615  0.2477 -0.3075 -0.1458
  295MOL0     C39715   6.470   0.531   6.575  0.3407 -0.4775 -0.2495
  295MOL0     C39716   6.431   0.453   6.463 -0.1392  0.5704 -0.2876
  295MOL0     C39717   6.303   0.435   6.418 -0.5929 -0.0746  0.0724
  295MOL0     C39718   6.284   0.352   6.291  0.4952  0.8125 -0.2424
  295MOL0     C39719   6.201   0.516   6.474 -0.9840  0.7900 -0.2061
  295MOL0     C39720   6.058   0.511   6.433  0.3040  0.2464 -0.1531
  295MOL0     O39721   6.012   0.457   6.315  0.5545  0.0046  0.3243
  295MOL0     C39722   5.878   0.463   6.282 -0.0218  0.5854  0.7478
  295MOL0     C39723   5.828   0.566   6.198  0.3364  0.1255 -1.1568
  295MOL0     C39724   5.689   0.575   6.173  0.0224  0.7776  0.2582
  295MOL0     C39725   5.607   0.467   6.210 -0.0227 -0.9362  0.1227
  295MOL0     O39726   5.475   0.466   6.193 -0.2252  0.0339 -0.0568
  295MOL0     C39727   5.403   0.537   6.293 -1.0532 -0.4572  0.5248
  295MOL0     C39728   5.267   0.483   6.306  0.6883  0.3450  0.1942
  295MOL0     C39729   5.206   0.498   6.446  0.2999  0.1745  0.8331
  295MOL0     C39730   5.183   0.638   6.494 -0.9619  0.3431 -0.7056
  295MOL0     C39731   5.132   0.650   6.639 -0.1037 -0.4471  0.7507
  295MOL0     C39732   4.987   0.597   6.649 -0.2389  0.1446  0.3741
  295MOL0     C39733   4.957   0.568   6.798 -0.7214  0.3532  0.8463
  295MOL0     C39734   4.815   0.522   6.821  0.1785 -0.0853 -0.3480
  295MOL0    Cl39735   4.810   0.483   6.986  0.1326 -0.1438 -0.8010
  295MOL0     C39736   5.658   0.364   6.289  0.8811 -1.0490  0.6531
  295MOL0     C39737   5.795   0.360   6.326 -0.3603 -0.3187  0.1626
  295MOL0     O39738   5.979   0.540   6.524 -0.4771 -0.7624 -0.0354
  295MOL0     C39739   6.242   0.612   6.571 -0.8448  0.4607  0.4628
  295MOL0     C39740   6.369   0.616   6.624 -0.6340 -0.3413  0.9463
  295MOL0     N39741   6.928   0.421   6.449 -0.6727 -0.0281 -0.2022
  295MOL0     N39742   7.004   0.424   6.347  0.2937  0.8032 -0.3968
  295MOL0     C39743   8.215   0.351   5.937  0.5204 -0.2565  0.0865
  295MOL0     C39744   8.339   0.385   5.888 -0.1642  0.0454  0.7747
  295MOL0     C39745   8.783   0.386   5.851  0.1430 -0.1718 -0.2784
  295MOL0     C39746   8.853   0.301   5.768 -0.5888  0.3619 -1.0478
  295MOL0     C39747   8.985   0.334   5.723  0.2682 -0.2250  0.7083
  295MOL0     C39748   9.041   0.458   5.759 -0.5866 -0.0895  0.3662
  295MOL0     O39749   9.156   0.501   5.713 -0.4593  0.0392  0.4669
  295MOL0     C39750   9.263   0.484   5.800  0.1228 -0.5550 -0.2626
  295MOL0     C39751   9.397   0.541   5.759  0.2102  0.0962  0.4993
  295MOL0     C39752   9.514   0.507   5.853 -0.5815  0.5162 -0.6407
  295MOL0     C39753   9.646   0.573   5.828 -0.1907 -0.3374  0.0690
  295MOL0     C39754   9.678   0.595   5.689 -0.2894  0.4851  0.0884
  295MOL0     C39755   9.686   0.610   5.569 -0.2664  0.4441  0.3834
  295MOL0     C39756   8.971   0.547   5.837 -0.5465  0.0261 -0.7847
  295MOL0     C39757   8.847   0.504   5.890  0.1749 -1.2261 -0.8690
  295MOL0     H39758   8.486   0.435   6.188 -0.3221 -0.4618  1.3111
  295MOL0     H39759   8.265   0.373   6.269 -0.0742 -0.1081  0.3516
  295MOL0     H39760   8.066   0.353   6.310 -1.4043 -2.4708  0.7854
  295MOL0     H39761   7.978   0.485   6.234 -0.6366 -0.6431  2.0776
  295MOL0     H39762   7.814   0.304   6.166  1.4086 -0.0494 -0.4778
  295MOL0     H39763   7.884   0.202   6.299  0.0050  1.5643  3.8592
  295MOL0     H39764   7.829   0.372   6.459 -0.1734  0.9717 -0.3454
  295MOL0     H39765   7.758   0.470   6.339  2.1772 -1.4054 -3.0456
  295MOL0     H39766   7.646   0.189   6.340  1.6062  0.1648  1.8002
  295MOL0     H39767   7.607   0.285   6.487 -0.7863 -1.5409  0.1810
  295MOL0     H39768   7.517   0.461   6.361  1.0608  1.2613 -0.8687
  295MOL0     H39769   7.551   0.382   6.210 -0.7534  0.9200 -0.2251
  295MOL0     H39770   7.401   0.186   6.307  3.8606  0.6327  0.3880
  295MOL0     H39771   7.353   0.304   6.428 -0.5924  1.1192  0.3037
  295MOL0     H39772   7.290   0.461   6.281  0.3211  0.3109 -1.3246
  295MOL0     H39773   7.347   0.369   6.140 -2.8152  1.4554 -0.8380
  295MOL0     H39774   7.193   0.176   6.236 -1.4200 -0.9203  1.1028
  295MOL0     H39775   7.109   0.298   6.135 -1.1872  0.5360  1.5172
  295MOL0     H39776   7.125   0.165   6.507  1.1826  1.1196  1.4142
  295MOL0     H39777   6.976   0.191   6.695  1.6808  0.7022  2.1981
  295MOL0     H39778   7.002   0.353   6.745 -3.4365  2.5559  1.1900
  295MOL0     H39779   6.760   0.249   6.769 -0.9073 -1.2369 -2.2753
  295MOL0     H39780   6.729   0.287   6.611 -1.0276 -0.3555  1.1242
  295MOL0     H39781   6.843   0.527   6.720 -1.5742  0.6321 -0.9799
  295MOL0     H39782   6.782   0.438   6.862 -3.4586  0.5625 -0.1939
  295MOL0     H39783   6.610   0.578   6.824  0.8681 -0.5125 -0.2060
  295MOL0     H39784   6.565   0.413   6.786 -1.1644  0.4586 -0.4555
  295MOL0     H39785   6.519   0.402   6.424 -0.4229  0.5178 -0.8689
  295MOL0     H39786   6.370   0.294   6.257 -0.2362 -0.0026 -0.7180
  295MOL0     H39787   6.199   0.284   6.301 -1.3431  3.1410  1.3855
  295MOL0     H39788   6.262   0.426   6.213  1.6696  1.5996  0.1438
  295MOL0     H39789   5.887   0.648   6.158 -2.4331  2.9543  0.1138
  295MOL0     H39790   5.638   0.658   6.125 -1.8174 -0.1439  0.5435
  295MOL0     H39791   5.450   0.545   6.391  1.0853 -1.0664 -0.3998
  295MOL0     H39792   5.398   0.641   6.260 -1.2603 -0.9750 -1.1938
  295MOL0     H39793   5.200   0.532   6.235  1.3156 -0.2037 -0.7874
  295MOL0     H39794   5.266   0.382   6.264  0.1402 -1.9965  5.0910
  295MOL0     H39795   5.267   0.452   6.524 -1.1402  0.5458  2.2291
  295MOL0     H39796   5.109   0.448   6.444  1.1532 -1.5873 -1.7693
  295MOL0     H39797   5.274   0.697   6.479 -1.6943  2.2694  1.8638
  295MOL0     H39798   5.114   0.677   6.418 -0.0177  2.4475 -0.5485
  295MOL0     H39799   5.140   0.757   6.661 -0.1210 -0.1633 -0.5232
  295MOL0     H39800   5.200   0.588   6.697  3.2352  1.4127 -0.8840
  295MOL0     H39801   4.913   0.668   6.610  1.0671  0.4810 -1.6418
  295MOL0     H39802   4.964   0.506   6.593  0.2285  2.1266 -3.4385
  295MOL0     H39803   4.985   0.658   6.852  1.1810  0.9608 -0.9993
  295MOL0     H39804   5.014   0.485   6.842 -0.1145  0.1888 -0.1996
  295MOL0     H39805   4.792   0.432   6.764  2.8712 -2.2376  1.6528
  295MOL0     H39806   4.753   0.610   6.800 -0.8243 -0.6374  0.2368
  295MOL0     H39807   5.586   0.299   6.338 -0.4087  0.4618  0.8626
  295MOL0     H39808   5.830   0.292   6.403  0.6814  2.0834  1.9163
  295MOL0     H39809   6.168   0.682   6.608 -1.3684 -0.9884  2.3335
  295MOL0     H39810   6.400   0.695   6.691  2.1363 -1.2714  0.9160
  295MOL0     H39811   8.142   0.317   5.864 -3.1995  2.3451  2.2794
  295MOL0     H39812   8.360   0.388   5.781  1.3862  1.7297  1.0821
  295MOL0     H39813   8.801   0.208   5.745 -2.4362  0.2547  2.7161
  295MOL0     H39814   9.056   0.278   5.662 -0.4212  0.6701 -1.0055
  295MOL0     H39815   9.255   0.538   5.894  1.4646 -1.8799  0.6628
  295MOL0     H39816   9.261   0.380   5.834 -2.3941  0.4254  3.0336
  295MOL0     H39817   9.393   0.648   5.735  2.6982  0.5588  1.8101
  295MOL0     H39818   9.412   0.483   5.668 -4.0614 -3.4826  1.7018
  295MOL0     H39819   9.528   0.401   5.831 -1.5946  0.2793 -0.1954
  295MOL0     H39820   9.481   0.505   5.957 -1.0644 -0.8334 -0.7945
  295MOL0     H39821   9.718   0.505   5.876 -1.1086 -1.0621  0.4494
  295MOL0     H39822   9.659   0.667   5.883 -3.9926 -0.0965  0.8185
  295MOL0     H39823   9.677   0.619   5.462 -0.3674  4.5822  0.5739
  295MOL0     H39824   9.003   0.643   5.876 -3.3897  0.4925  0.6576
  295MOL0     H39825   8.798   0.554   5.973  0.4634 -0.7619 -0.9755
  296MOL0     O39826   9.943   7.574   0.105 -0.0777  0.5714 -0.0414
  296MOL0     C39827   9.983   7.688   0.116  0.3149  0.1962  0.0008
  296MOL0     O39828   9.916   7.808   0.077 -0.3991 -0.3965  0.3340
  296MOL0     C39829   9.794   7.780   0.027  0.4332  0.5137  0.4280
  296MOL0     C39830   9.672   7.783   0.106 -0.7280  0.0055  0.0322
  296MOL0     C39831   9.550   7.744   0.054 -0.3309  0.8455 -0.1341
  296MOL0     C39832   9.532   7.723  -0.082 -0.2845 -0.8002  0.1579
  296MOL0     O39833   9.416   7.683  -0.137 -0.1628 -0.2801 -0.1758
  296MOL0     C39834   9.366   7.793  -0.223  0.0921  0.3855 -0.9124
  296MOL0     C39835   9.231   7.827  -0.164 -0.4350  0.1283 -0.3136
  296MOL0     C39836   9.113   7.762  -0.239 -0.9478  0.8111 -0.4397
  296MOL0     C39837   9.096   7.811  -0.383  0.0704 -0.5968 -0.2526
  296MOL0     C39838   8.948   7.841  -0.426 -0.5305  0.1831 -0.7185
  296MOL0     C39839   8.943   7.842  -0.575 -0.0471  0.9416  1.0281
  296MOL0     C39840   8.807   7.856  -0.621  0.0378 -1.2554 -0.0004
  296MOL0     C39841   8.806   7.819  -0.767 -0.4326  0.3778  0.4255
  296MOL0     N39842   8.678   7.850  -0.839 -0.0666 -0.9524 -0.0595
  296MOL0     C39843   8.607   7.967  -0.836  0.7473  0.2729  0.9651
  296MOL0     C39844   8.502   7.948  -0.915 -0.1698 -0.0284 -0.0771
  296MOL0     C39845   8.410   8.060  -0.963 -0.5803  0.0681  0.5271
  296MOL0     C39846   8.337   8.150  -0.869 -0.5467  0.0704 -0.4258
  296MOL0     C39847   8.256   8.067  -0.771 -0.3415 -0.4307  0.1331
  296MOL0     C39848   8.152   7.974  -0.833 -0.0672  0.7243  0.1407
  296MOL0     O39849   8.071   8.039  -0.924 -0.4059  0.3848  0.8839
  296MOL0     C39850   7.956   7.978  -0.965  0.2625  0.0086  0.2389
  296MOL0     C39851   7.908   7.852  -0.932 -0.1534  0.4012  0.6839
  296MOL0     C39852   7.799   7.791  -0.984  0.2346 -0.3676  0.0783
  296MOL0     C39853   7.760   7.658  -0.929  0.3777 -0.9368  0.5848
  296MOL0     C39854   7.723   7.849  -1.089  0.3083 -0.6206 -0.5034
  296MOL0     C39855   7.596   7.800  -1.149  0.0843  0.8214 -0.1235
  296MOL0     O39856   7.540   7.687  -1.105 -0.3419  0.7787  0.2452
  296MOL0     C39857   7.407   7.684  -1.093  0.1404 -1.6127 -0.8451
  296MOL0     C39858   7.334   7.628  -1.196  0.8566 -0.1582  0.4309
  296MOL0     C39859   7.193   7.621  -1.178 -0.8313  0.3418  0.2530
  296MOL0     C39860   7.132   7.672  -1.065  0.5244 -0.1872  0.3666
  296MOL0     O39861   6.994   7.696  -1.043 -0.2391  0.2125 -0.2926
  296MOL0     C39862   6.906   7.639  -1.138  0.4289 -0.7216 -0.0608
  296MOL0     C39863   6.754   7.645  -1.098 -0.0263  0.5044 -0.2966
  296MOL0     C39864   6.723   7.548  -0.983 -0.4354  0.1184  0.8012
  296MOL0     C39865   6.586   7.575  -0.935 -0.2707 -0.0328 -0.2614
  296MOL0     C39866   6.529   7.480  -0.836 -0.6195 -0.3800 -0.6505
  296MOL0     C39867   6.413   7.517  -0.750  0.0169  0.2583  0.0620
  296MOL0     C39868   6.383   7.434  -0.623 -0.0724 -0.4309 -0.1092
  296MOL0     C39869   6.401   7.283  -0.634 -0.0613  0.6569  0.2317
  296MOL0    Cl39870   6.316   7.210  -0.779  0.0527 -0.4189 -0.3348
  296MOL0     C39871   7.206   7.727  -0.962 -0.5571  0.7421  0.2233
  296MOL0     C39872   7.346   7.729  -0.974  0.6044  0.4234 -0.7124
  296MOL0     O39873   7.549   7.873  -1.240  0.1432 -0.1460 -1.1915
  296MOL0     C39874   7.777   7.973  -1.133 -0.3676 -0.4947 -0.2233
  296MOL0     C39875   7.883   8.040  -1.066  0.8534 -0.9938 -0.6287
  296MOL0     N39876   8.506   7.823  -0.967  0.7608 -0.8738 -0.1126
  296MOL0     N39877   8.609   7.763  -0.913 -0.8791  0.3003 -0.6694
  296MOL0     C39878   9.646   7.732  -0.166 -0.2610 -0.0796 -0.2795
  296MOL0     C39879   9.775   7.760  -0.111 -0.6508 -0.0838  0.9263
  296MOL0     C39880  10.122   7.711   0.154  0.3711  0.5175 -0.4107
  296MOL0     C39881  10.201   7.600   0.206 -0.4294  0.0959  0.6494
  296MOL0     C39882  10.331   7.618   0.255  0.1375 -0.6653  0.1512
  296MOL0     C39883  10.389   7.739   0.240 -0.0818 -0.7909 -0.1219
  296MOL0     O39884  10.519   7.745   0.289  0.3146 -0.0105  0.0829
  296MOL0     C39885  10.555   7.857   0.369 -0.0105  0.3411  0.0747
  296MOL0     C39886  10.523   7.829   0.519 -0.6959 -0.0773 -0.4950
  296MOL0     C39887  10.581   7.937   0.615  0.0271  0.1695  0.1682
  296MOL0     C39888  10.731   7.912   0.641 -0.1464  0.3660  0.1871
  296MOL0     C39889  10.793   8.030   0.711 -0.3321  0.0863  0.6720
  296MOL0     C39890  10.855   8.120   0.766  0.2655 -0.0088 -0.0771
  296MOL0     C39891  10.315   7.851   0.199  0.6264 -0.0281 -0.4143
  296MOL0     C39892  10.183   7.834   0.161  0.7484 -0.2755 -0.4661
  296MOL0     H39893   9.673   7.811   0.210  1.6770  1.1817 -0.2397
  296MOL0     H39894   9.463   7.732   0.118  0.1228  0.9035  0.5028
  296MOL0     H39895   9.421   7.887  -0.218 -1.0198  1.0351 -0.7404
  296MOL0     H39896   9.357   7.760  -0.327 -1.3391 -0.7728 -0.4529
  296MOL0     H39897   9.235   7.788  -0.062 -1.4337  1.8866  0.4234
  296MOL0     H39898   9.206   7.932  -0.152 -1.1421 -0.2871  2.3513
  296MOL0     H39899   9.121   7.653  -0.229  0.1299  1.0473  1.6264
  296MOL0     H39900   9.021   7.772  -0.180 -1.5233 -0.1770 -1.1209
  296MOL0     H39901   9.154   7.904  -0.391 -1.2794  0.3181  0.2388
  296MOL0     H39902   9.147   7.748  -0.456  0.1567  0.5356 -1.2062
  296MOL0     H39903   8.883   7.763  -0.385 -1.6371  1.9929  1.1782
  296MOL0     H39904   8.933   7.942  -0.387  2.9041 -0.9110  4.5954
  296MOL0     H39905   9.011   7.909  -0.629  0.1503 -2.1382 -3.0370
  296MOL0     H39906   8.978   7.742  -0.602  0.5673  0.2393  4.0414
  296MOL0     H39907   8.749   7.788  -0.557  0.6510 -0.1220  1.8487
  296MOL0     H39908   8.784   7.961  -0.600  1.3830 -1.3505  2.4277
  296MOL0     H39909   8.819   7.711  -0.783 -0.6268  0.7706 -3.3009
  296MOL0     H39910   8.887   7.875  -0.816  0.2337  0.3943  1.5078
  296MOL0     H39911   8.631   8.066  -0.798  1.4388  0.8803 -0.9201
  296MOL0     H39912   8.489   8.118  -1.012  1.1095 -2.0389  0.5667
  296MOL0     H39913   8.339   8.028  -1.040  0.4023  1.7938 -1.1796
  296MOL0     H39914   8.285   8.218  -0.936  1.1700  0.6255 -1.2653
  296MOL0     H39915   8.414   8.207  -0.816  1.9075 -2.8009 -0.6035
  296MOL0     H39916   8.194   8.137  -0.713 -0.5052  0.6177 -1.2751
  296MOL0     H39917   8.332   8.008  -0.718  0.0383 -0.3416 -0.3153
  296MOL0     H39918   8.087   7.938  -0.753 -0.6847  0.3372 -0.5244
  296MOL0     H39919   8.195   7.890  -0.887 -3.3210  0.9398 -3.1603
  296MOL0     H39920   7.974   7.788  -0.875 -1.3527 -1.1044  0.4357
  296MOL0     H39921   7.660   7.663  -0.884 -0.0823 -0.4518 -0.4400
  296MOL0     H39922   7.746   7.588  -1.012 -1.4320 -1.0355  0.9307
  296MOL0     H39923   7.830   7.616  -0.856 -0.2570  0.4113  2.0240
  296MOL0     H39924   7.380   7.593  -1.288  0.0269 -1.4518  0.4992
  296MOL0     H39925   7.134   7.583  -1.261  1.3016 -2.1110 -0.2796
  296MOL0     H39926   6.918   7.699  -1.229  0.1047 -2.9712 -1.6614
  296MOL0     H39927   6.929   7.535  -1.161 -4.2356 -1.8128 -0.6001
  296MOL0     H39928   6.738   7.748  -1.065  2.1306  0.2439  1.8496
  296MOL0     H39929   6.685   7.612  -1.176  0.9955 -1.8630 -0.2735
  296MOL0     H39930   6.787   7.561  -0.895 -1.1658 -0.9053  1.4993
  296MOL0     H39931   6.740   7.446  -1.019  2.8313  0.7661  0.1861
  296MOL0     H39932   6.588   7.675  -0.891 -0.6816 -0.9108  1.9319
  296MOL0     H39933   6.514   7.576  -1.017 -0.6241 -0.2983  0.0426
  296MOL0     H39934   6.609   7.468  -0.761 -0.8454  3.5105  0.4341
  296MOL0     H39935   6.517   7.384  -0.886  1.4132 -0.8437 -0.3356
  296MOL0     H39936   6.433   7.620  -0.720  0.7024  0.4660 -1.0636
  296MOL0     H39937   6.321   7.524  -0.809 -2.6319  2.0935  3.9891
  296MOL0     H39938   6.280   7.454  -0.590 -0.5976 -2.4528 -0.3217
  296MOL0     H39939   6.456   7.469  -0.549  0.4874  2.0299 -1.7286
  296MOL0     H39940   6.366   7.233  -0.543 -0.6547  1.3002  0.3676
  296MOL0     H39941   6.507   7.259  -0.646  0.3652  1.3142  2.2944
  296MOL0     H39942   7.160   7.764  -0.871  1.4154 -0.1247  1.6290
  296MOL0     H39943   7.408   7.765  -0.893  0.0120 -0.1185 -0.0014
  296MOL0     H39944   7.724   8.034  -1.205  0.3871  2.2951  1.4113
  296MOL0     H39945   7.911   8.139  -1.100  1.0940 -0.2252  1.6611
  296MOL0     H39946   9.630   7.712  -0.271 -3.0586  2.2181 -0.4119
  296MOL0     H39947   9.862   7.779  -0.173 -2.8987  2.6768 -1.6559
  296MOL0     H39948  10.170   7.496   0.209  1.6326 -0.8320 -3.3057
  296MOL0     H39949  10.390   7.540   0.303 -0.7218 -1.2555  0.2842
  296MOL0     H39950  10.661   7.880   0.359  0.8300 -2.7034  1.1110
  296MOL0     H39951  10.509   7.951   0.337  1.0082  1.2295  1.1071
  296MOL0     H39952  10.551   7.725   0.538  1.6145  0.2499 -1.6714
  296MOL0     H39953  10.414   7.835   0.527 -0.7785  0.0953 -1.6046
  296MOL0     H39954  10.527   7.931   0.710  1.8496  0.9193  1.3016
  296MOL0     H39955  10.567   8.041   0.585  0.5663  0.4485  0.8666
  296MOL0     H39956  10.774   7.901   0.541  1.1471 -1.0977  0.8453
  296MOL0     H39957  10.745   7.820   0.698  2.0127  0.1213 -0.6297
  296MOL0     H39958  10.916   8.197   0.808  2.6595 -1.3823 -0.8237
  296MOL0     H39959  10.343   7.956   0.197 -3.2867  1.3607  3.1384
  296MOL0     H39960  10.125   7.922   0.135 -1.4889 -0.7800  2.4550
  297MOL0     O39961   3.698   2.126   5.901  0.5347  0.0284 -0.2917
  297MOL0     C39962   3.589   2.149   5.950  0.3486  0.2342 -0.2216
  297MOL0     O39963   3.472   2.090   5.908 -0.5220  0.2031 -0.1646
  297MOL0     C39964   3.486   1.993   5.804 -0.2620  0.2187  0.3132
  297MOL0     C39965   3.489   1.847   5.822  1.3864  0.0123 -0.8024
  297MOL0     C39966   3.472   1.767   5.708 -0.1231  0.0392  0.4150
  297MOL0     C39967   3.480   1.815   5.578  0.5406 -0.1158 -0.2276
  297MOL0     O39968   3.472   1.740   5.469  0.1159  0.4509 -0.0643
  297MOL0     C39969   3.556   1.626   5.453 -0.0862  0.4317 -0.3387
  297MOL0     C39970   3.704   1.650   5.469 -0.1651 -0.4566  0.4362
  297MOL0     C39971   3.779   1.709   5.354  0.1596  0.0806 -0.1852
  297MOL0     C39972   3.717   1.837   5.295 -0.2607  0.1836 -0.1118
  297MOL0     C39973   3.800   1.908   5.175  0.2107 -0.2685  0.2244
  297MOL0     C39974   3.728   2.033   5.123 -0.0508  0.8348  0.4210
  297MOL0     C39975   3.731   2.044   4.970 -0.3947  0.5869  0.2848
  297MOL0     C39976   3.638   1.949   4.895 -0.1466 -0.2416 -0.1339
  297MOL0     N39977   3.643   1.985   4.755 -0.9260 -0.3194  0.5887
  297MOL0     C39978   3.563   2.078   4.694 -0.4821  0.5471  0.5713
  297MOL0     C39979   3.573   2.059   4.562 -0.2220 -0.1751  0.7589
  297MOL0     C39980   3.510   2.128   4.453 -0.4687 -0.4611  0.6517
  297MOL0     C39981   3.393   2.207   4.499  0.7793  0.0037  0.3064
  297MOL0     C39982   3.312   2.259   4.375  0.3204 -0.5399 -0.9049
  297MOL0     C39983   3.191   2.344   4.425  0.4065 -0.2058 -0.1126
  297MOL0     O39984   3.227   2.455   4.507 -0.3759  0.0827 -0.4918
  297MOL0     C39985   3.139   2.515   4.587  1.1055  0.4112 -0.4218
  297MOL0     C39986   3.184   2.600   4.684 -0.4527  0.6674  0.7103
  297MOL0     C39987   3.103   2.669   4.775 -0.4785 -0.0054  0.4691
  297MOL0     C39988   3.187   2.743   4.877  0.4284 -0.8975  0.6930
  297MOL0     C39989   2.966   2.654   4.770 -0.5468 -0.0392  0.0247
  297MOL0     C39990   2.863   2.722   4.857  0.1255 -0.2392  0.6237
  297MOL0     O39991   2.728   2.725   4.817  0.4675  0.9183  0.4196
  297MOL0     C39992   2.632   2.810   4.877  0.0232 -1.0849  0.3918
  297MOL0     C39993   2.656   2.940   4.917  0.3450 -0.9401  0.1757
  297MOL0     C39994   2.554   3.024   4.965 -0.2006  0.3095 -0.0841
  297MOL0     C39995   2.420   2.982   4.966  0.2825  0.2809  0.1948
  297MOL0     O39996   2.313   3.049   5.023 -0.4074 -0.3714  0.5518
  297MOL0     C39997   2.307   3.188   5.007 -0.3672 -0.1098 -0.4895
  297MOL0     C39998   2.177   3.227   5.071 -0.0817 -0.1833 -0.2264
  297MOL0     C39999   2.193   3.244   5.224 -0.1322  0.0465 -0.1107
  297MOL0     C40000   2.115   3.362   5.268  1.1990  0.9705  0.6508
  297MOL0     C40001   1.967   3.346   5.247 -0.1456  0.0982 -0.1663
  297MOL0     C40002   1.885   3.468   5.287 -0.4525  0.4053 -0.5636
  297MOL0     C40003   1.733   3.452   5.273  0.0492 -0.7469  0.0955
  297MOL0     C40004   1.666   3.584   5.227  0.9141  0.5993  0.2733
  297MOL0    Cl40005   1.485   3.563   5.251 -0.2764  0.2919  0.1613
  297MOL0     C40006   2.399   2.846   4.923 -0.3721  0.2275 -1.6900
  297MOL0     C40007   2.495   2.764   4.878  0.3593  0.6244 -0.0059
  297MOL0     O40008   2.904   2.756   4.965 -0.2646  0.4279 -0.3245
  297MOL0     C40009   2.913   2.563   4.677 -0.5524 -0.9019 -0.2441
  297MOL0     C40010   2.999   2.501   4.585 -0.4426  0.3682 -0.3219
  297MOL0     N40011   3.660   1.960   4.532  0.2311  0.0892 -0.5729
  297MOL0     N40012   3.705   1.917   4.648  0.3686  0.4633  0.9118
  297MOL0     C40013   3.465   1.953   5.563 -0.6531  0.1975 -0.2800
  297MOL0     C40014   3.476   2.044   5.667  0.5907 -0.9175 -0.4311
  297MOL0     C40015   3.597   2.238   6.072 -0.1132 -0.1285  0.4867
  297MOL0     C40016   3.478   2.281   6.133 -0.2506 -0.2136  0.6620
  297MOL0     C40017   3.483   2.358   6.253 -0.2424  0.4037  0.8276
  297MOL0     C40018   3.597   2.391   6.322 -0.2947  0.4857  0.3745
  297MOL0     O40019   3.590   2.456   6.443  0.2293  0.1948 -0.2782
  297MOL0     C40020   3.707   2.465   6.526 -0.2770  0.3385  0.2576
  297MOL0     C40021   3.664   2.531   6.653 -0.2234 -0.1016 -0.1171
  297MOL0     C40022   3.616   2.676   6.649  1.2038 -0.8154 -0.1845
  297MOL0     C40023   3.716   2.773   6.596  0.1344 -0.1062 -0.3248
  297MOL0     C40024   3.638   2.894   6.565 -0.1096 -0.0371 -0.1603
  297MOL0     C40025   3.594   3.008   6.541  0.4974  0.2252 -0.5961
  297MOL0     C40026   3.715   2.355   6.253 -0.0726  0.3553 -0.7473
  297MOL0     C40027   3.712   2.285   6.131 -0.3243  0.1311 -0.2442
  297MOL0     H40028   3.488   1.799   5.919  3.4790  2.0716  0.3296
  297MOL0     H40029   3.470   1.662   5.738 -0.9740  0.6245  2.5336
  297MOL0     H40030   3.522   1.543   5.515 -2.0141  2.3606  1.3509
  297MOL0     H40031   3.537   1.585   5.353  1.3628 -1.2933  0.0440
  297MOL0     H40032   3.709   1.718   5.555 -3.5389  1.0725 -0.3961
  297MOL0     H40033   3.764   1.565   5.504  1.0942  0.2557  0.0818
  297MOL0     H40034   3.879   1.724   5.395 -0.3303  1.0678  0.6996
  297MOL0     H40035   3.785   1.637   5.273 -0.4762 -2.2388  1.7125
  297MOL0     H40036   3.619   1.812   5.254 -0.1262  0.4934 -0.6337
  297MOL0     H40037   3.709   1.907   5.379 -0.1851  2.8185 -2.1392
  297MOL0     H40038   3.905   1.918   5.206  0.3993  3.2860 -1.1427
  297MOL0     H40039   3.805   1.835   5.094 -1.0845  2.5691 -2.5991
  297MOL0     H40040   3.625   2.025   5.159 -0.2199  0.1452 -0.1809
  297MOL0     H40041   3.761   2.123   5.175  1.9218  0.1818  0.3696
  297MOL0     H40042   3.693   2.144   4.946 -0.3040 -0.2342 -4.1018
  297MOL0     H40043   3.835   2.044   4.934  0.0911  3.4990  1.3817
  297MOL0     H40044   3.532   1.954   4.920 -0.8669 -1.9026 -2.4847
  297MOL0     H40045   3.667   1.848   4.925 -2.3099 -0.2511  2.2274
  297MOL0     H40046   3.489   2.144   4.737 -2.0087 -0.3047 -0.6470
  297MOL0     H40047   3.592   2.190   4.416  1.8207 -3.9109 -0.5997
  297MOL0     H40048   3.486   2.051   4.379 -0.8378  0.5344 -0.2899
  297MOL0     H40049   3.438   2.287   4.558  0.6770  1.9733 -2.1285
  297MOL0     H40050   3.323   2.151   4.563  1.0430  3.3129  3.8693
  297MOL0     H40051   3.285   2.186   4.298  3.6326 -0.3710 -2.3911
  297MOL0     H40052   3.378   2.318   4.310  0.1204  1.5198  0.6471
  297MOL0     H40053   3.120   2.282   4.479  0.5233  0.5058  0.8739
  297MOL0     H40054   3.145   2.382   4.333 -1.4067  0.2316  0.9305
  297MOL0     H40055   3.290   2.594   4.707 -0.9878 -0.4462  3.3076
  297MOL0     H40056   3.293   2.736   4.852  0.3701  0.5583 -0.0417
  297MOL0     H40057   3.159   2.848   4.885  5.1382  0.4657  3.3787
  297MOL0     H40058   3.156   2.703   4.974  2.0765  0.2641  1.7472
  297MOL0     H40059   2.754   2.986   4.907 -0.3425  0.7263  0.7600
  297MOL0     H40060   2.579   3.124   5.000 -1.3586  2.3193 -4.3784
  297MOL0     H40061   2.393   3.237   5.054 -1.0981  0.6957  0.0330
  297MOL0     H40062   2.304   3.220   4.902  1.5115 -0.3911 -0.6571
  297MOL0     H40063   2.146   3.326   5.037 -2.4969 -0.9750 -0.5592
  297MOL0     H40064   2.097   3.155   5.053  1.7090 -2.3580  0.0489
  297MOL0     H40065   2.295   3.273   5.252  0.1760 -1.5039  0.4533
  297MOL0     H40066   2.166   3.158   5.286  0.1582  1.5676  2.2286
  297MOL0     H40067   2.133   3.378   5.375  0.2155  1.8740  0.6904
  297MOL0     H40068   2.140   3.460   5.227 -2.4606  1.3719 -0.9406
  297MOL0     H40069   1.934   3.258   5.302  0.3934  0.6646  1.1082
  297MOL0     H40070   1.958   3.335   5.139 -0.0600  2.0469 -0.4125
  297MOL0     H40071   1.902   3.496   5.392 -0.0223 -1.4587 -0.1049
  297MOL0     H40072   1.918   3.546   5.217 -0.7975  0.4116 -0.7209
  297MOL0     H40073   1.693   3.415   5.368 -0.8916  3.1064  1.3840
  297MOL0     H40074   1.714   3.383   5.190  1.3712 -1.2451  0.1859
  297MOL0     H40075   1.704   3.616   5.129 -1.5280  5.2236  0.5357
  297MOL0     H40076   1.703   3.660   5.297 -0.2789  2.6276 -1.1709
  297MOL0     H40077   2.295   2.816   4.931 -0.9632  2.3180 -0.9307
  297MOL0     H40078   2.474   2.659   4.862  1.6874  0.4768 -0.8920
  297MOL0     H40079   2.805   2.552   4.673 -0.7575  0.6779  0.2336
  297MOL0     H40080   2.954   2.426   4.521 -0.9666  0.2708  0.1480
  297MOL0     H40081   3.438   1.979   5.462 -2.8309  0.1461  0.2263
  297MOL0     H40082   3.449   2.148   5.651 -1.0031 -1.1644  0.4247
  297MOL0     H40083   3.379   2.263   6.093  0.1333  1.4193 -1.1598
  297MOL0     H40084   3.398   2.397   6.307  0.6475  0.1447  2.4604
  297MOL0     H40085   3.744   2.364   6.544  0.9058  0.6707 -0.1719
  297MOL0     H40086   3.786   2.522   6.475  0.6938  1.4378  2.8003
  297MOL0     H40087   3.740   2.518   6.731  0.2139  1.4539 -0.2667
  297MOL0     H40088   3.576   2.473   6.686 -0.5243  0.6912  0.5075
  297MOL0     H40089   3.577   2.705   6.747 -1.5844 -3.5847 -0.3135
  297MOL0     H40090   3.524   2.677   6.589  0.2619  0.0836  1.2153
  297MOL0     H40091   3.758   2.736   6.502 -0.1107 -0.8367 -0.1535
  297MOL0     H40092   3.795   2.795   6.668  1.5419 -0.1311 -1.8034
  297MOL0     H40093   3.552   3.107   6.538  4.7967  2.3169  0.2290
  297MOL0     H40094   3.813   2.382   6.290  0.3422  2.0763 -2.9201
  297MOL0     H40095   3.801   2.250   6.079  0.1537 -0.9381  1.2199
  298MOL0     O40096   0.580   8.553   9.123 -0.3730  0.0156 -0.1131
  298MOL0     C40097   0.678   8.492   9.073  0.1918 -1.2395 -0.9106
  298MOL0     O40098   0.668   8.406   8.960  0.1668 -0.8262 -0.4914
  298MOL0     C40099   0.546   8.394   8.910 -0.1107  0.4538  0.3468
  298MOL0     C40100   0.434   8.355   8.980  0.3533  0.1947  0.2638
  298MOL0     C40101   0.319   8.328   8.911  0.3324  0.1631  0.0091
  298MOL0     C40102   0.305   8.348   8.773  0.2432 -0.1741  0.0930
  298MOL0     O40103   0.188   8.323   8.707  0.0104  0.5907  0.3088
  298MOL0     C40104   0.077   8.265   8.774  0.2376 -0.1373  0.1045
  298MOL0     C40105  -0.029   8.212   8.684 -0.8084  1.2930  0.1774
  298MOL0     C40106  -0.116   8.324   8.628 -0.3538  0.2481  0.2119
  298MOL0     C40107  -0.247   8.268   8.567  0.1797 -0.5780  0.1182
  298MOL0     C40108  -0.336   8.371   8.492 -0.2544 -0.1707 -0.2927
  298MOL0     C40109  -0.466   8.289   8.450 -0.4901  0.2336 -0.3502
  298MOL0     C40110  -0.581   8.364   8.372 -0.3894  0.6732  0.2397
  298MOL0     C40111  -0.688   8.257   8.347 -0.3507  0.0187 -0.3689
  298MOL0     N40112  -0.787   8.313   8.248  0.4279  0.8955  0.2771
  298MOL0     C40113  -0.895   8.389   8.277  0.0569 -0.3668  1.0866
  298MOL0     C40114  -0.967   8.382   8.159  0.7345 -0.2825 -0.3810
  298MOL0     C40115  -1.086   8.458   8.113  0.0285 -0.1748  0.0208
  298MOL0     C40116  -1.135   8.551   8.229  0.0005  0.1875  0.0807
  298MOL0     C40117  -1.252   8.631   8.191  0.5157  0.8937 -0.1670
  298MOL0     C40118  -1.378   8.564   8.132 -0.5628 -0.6412  0.3842
  298MOL0     O40119  -1.483   8.669   8.113  1.0282 -0.0732 -0.0565
  298MOL0     C40120  -1.609   8.613   8.105 -0.0780 -0.3803 -0.5768
  298MOL0     C40121  -1.660   8.505   8.167  0.3451  0.2810 -1.0812
  298MOL0     C40122  -1.800   8.473   8.149 -0.9226  0.5714 -0.4232
  298MOL0     C40123  -1.852   8.351   8.237 -0.0561 -0.0026 -0.4270
  298MOL0     C40124  -1.886   8.548   8.066  1.1326 -0.7667 -0.2064
  298MOL0     C40125  -2.033   8.522   8.042 -1.1566  0.9480  0.4356
  298MOL0     O40126  -2.110   8.609   7.983 -0.0274 -0.8232 -0.0052
  298MOL0     C40127  -2.231   8.577   7.933  0.2170  0.2472  0.7683
  298MOL0     C40128  -2.319   8.677   7.935  0.0527 -1.2479  0.8342
  298MOL0     C40129  -2.451   8.668   7.890 -0.4484  0.3914  0.5982
  298MOL0     C40130  -2.496   8.558   7.819  0.0048 -0.1503  0.1755
  298MOL0     O40131  -2.626   8.558   7.775 -0.6846 -0.3747  0.3221
  298MOL0     C40132  -2.682   8.432   7.743 -0.1312 -0.3390  0.5552
  298MOL0     C40133  -2.821   8.461   7.685  0.3847 -0.3539  0.7485
  298MOL0     C40134  -2.897   8.349   7.623  0.4176  0.4973  0.3612
  298MOL0     C40135  -2.932   8.237   7.732 -0.0667  0.4624 -0.3172
  298MOL0     C40136  -3.061   8.161   7.694 -0.7712  0.2733 -0.7914
  298MOL0     C40137  -3.192   8.224   7.753 -0.6511  0.1382  0.9013
  298MOL0     C40138  -3.230   8.366   7.687 -0.8308 -0.2419 -0.4921
  298MOL0     C40139  -3.361   8.423   7.750 -0.0607  0.0061 -0.4873
  298MOL0    Cl40140  -3.325   8.482   7.911  0.1604  0.2291 -0.1653
  298MOL0     C40141  -2.404   8.447   7.813 -0.6432  0.0423  0.3117
  298MOL0     C40142  -2.278   8.463   7.868 -0.6742  0.7916 -0.2259
  298MOL0     O40143  -2.073   8.411   8.074 -0.2607 -0.6255 -0.0800
  298MOL0     C40144  -1.823   8.655   7.999  0.7266  0.2811  0.1818
  298MOL0     C40145  -1.683   8.683   8.014 -0.2575 -0.3814 -0.5106
  298MOL0     N40146  -0.907   8.299   8.068 -0.0740  0.1566  0.7549
  298MOL0     N40147  -0.797   8.257   8.128 -0.3081  0.0344  0.2277
  298MOL0     C40148   0.414   8.386   8.702  0.3094  0.1776 -1.3088
  298MOL0     C40149   0.529   8.417   8.775 -0.1401  0.5138 -0.1551
  298MOL0     C40150   0.818   8.517   9.126  0.9980 -0.4754 -0.4044
  298MOL0     C40151   0.856   8.612   9.218 -1.2128 -0.6281 -1.1953
  298MOL0     C40152   0.979   8.621   9.269 -0.4296  0.0893  0.5453
  298MOL0     C40153   1.084   8.538   9.221 -0.5098  0.1648 -0.5597
  298MOL0     O40154   1.216   8.542   9.262  0.4494 -0.1407  0.0008
  298MOL0     C40155   1.253   8.595   9.387  0.2858  0.5011  0.2393
  298MOL0     C40156   1.226   8.500   9.511  0.0051 -0.8034  0.2778
  298MOL0     C40157   1.306   8.369   9.500  0.1002 -0.7322  0.3984
  298MOL0     C40158   1.232   8.263   9.409  0.4229 -0.7171 -0.0134
  298MOL0     C40159   1.269   8.131   9.446  0.8351  0.0271  0.8019
  298MOL0     C40160   1.298   8.017   9.464  0.4348  0.0116  0.4523
  298MOL0     C40161   1.051   8.438   9.128  0.4456 -0.4584  0.9433
  298MOL0     C40162   0.915   8.423   9.081  0.0566 -0.6682  0.4691
  298MOL0     H40163   0.434   8.340   9.087  1.0844  0.8515  0.3671
  298MOL0     H40164   0.235   8.294   8.971 -0.2281  0.4755 -0.5765
  298MOL0     H40165   0.115   8.184   8.838  1.1305  2.2248  2.7606
  298MOL0     H40166   0.030   8.336   8.843 -0.8133  0.9177 -1.6444
  298MOL0     H40167   0.016   8.149   8.606  0.6361  2.0400  0.3830
  298MOL0     H40168  -0.094   8.157   8.753  0.8126 -0.4251  0.4263
  298MOL0     H40169  -0.143   8.404   8.697 -1.0804  0.4119 -0.2614
  298MOL0     H40170  -0.063   8.381   8.551 -2.0566 -0.3713 -1.4946
  298MOL0     H40171  -0.213   8.198   8.490 -0.2800 -2.7151  1.7703
  298MOL0     H40172  -0.309   8.208   8.634  0.1761 -2.1036 -1.1960
  298MOL0     H40173  -0.368   8.448   8.563 -2.3165 -2.8908  1.9320
  298MOL0     H40174  -0.284   8.416   8.407 -1.5616 -0.0908 -1.0816
  298MOL0     H40175  -0.436   8.215   8.376  0.7513  0.1123  0.2463
  298MOL0     H40176  -0.513   8.246   8.539  1.5284  1.1091  1.2082
  298MOL0     H40177  -0.629   8.441   8.433 -1.3597 -0.1326  0.5175
  298MOL0     H40178  -0.564   8.396   8.269 -4.0190  2.6409  0.0938
  298MOL0     H40179  -0.734   8.228   8.442 -0.6278  1.9130  0.1213
  298MOL0     H40180  -0.645   8.166   8.304  1.5001  0.9311 -0.5659
  298MOL0     H40181  -0.921   8.453   8.360  2.1182 -0.4294  1.8285
  298MOL0     H40182  -1.051   8.504   8.020 -0.3372  1.1772  0.5243
  298MOL0     H40183  -1.167   8.389   8.087 -1.1359 -0.3727  3.5920
  298MOL0     H40184  -1.060   8.627   8.254  3.0473 -2.7505  0.7275
  298MOL0     H40185  -1.154   8.500   8.325  0.9369  0.4619  0.4216
  298MOL0     H40186  -1.224   8.715   8.127  1.4261 -0.0449 -1.0519
  298MOL0     H40187  -1.288   8.677   8.284  2.3415 -1.5979  1.9406
  298MOL0     H40188  -1.404   8.480   8.198 -2.1579  0.1251  0.7811
  298MOL0     H40189  -1.340   8.528   8.036  0.3979 -0.6404  0.7476
  298MOL0     H40190  -1.603   8.447   8.239  1.7233  1.8406 -0.8607
  298MOL0     H40191  -1.901   8.276   8.174  0.6014 -1.9702  1.2581
  298MOL0     H40192  -1.775   8.302   8.297  1.3213 -1.4732 -3.1991
  298MOL0     H40193  -1.921   8.397   8.308  2.0135  1.6262  0.6424
  298MOL0     H40194  -2.304   8.775   7.979 -0.5158 -0.3014 -0.9786
  298MOL0     H40195  -2.511   8.753   7.918 -0.3683  0.1354  1.6184
  298MOL0     H40196  -2.620   8.382   7.668 -2.6339 -2.1856 -0.4187
  298MOL0     H40197  -2.690   8.364   7.829 -0.7380 -0.9459  0.0377
  298MOL0     H40198  -2.874   8.519   7.761  0.0785  0.6392 -0.1954
  298MOL0     H40199  -2.809   8.536   7.606  2.8516 -2.0188 -0.5879
  298MOL0     H40200  -2.846   8.307   7.535  1.3091  0.5376  0.8528
  298MOL0     H40201  -2.985   8.398   7.580  0.7460  0.4352 -0.3959
  298MOL0     H40202  -2.855   8.160   7.723 -1.7678 -1.8496  2.7661
  298MOL0     H40203  -2.931   8.279   7.833  1.2416 -1.9695  0.7499
  298MOL0     H40204  -3.054   8.058   7.731  0.8974  0.7737  0.4026
  298MOL0     H40205  -3.069   8.160   7.585 -1.2585  0.1971 -0.7595
  298MOL0     H40206  -3.271   8.155   7.721 -1.6990  1.9661 -0.7108
  298MOL0     H40207  -3.183   8.234   7.861 -0.5696  0.3189  0.8792
  298MOL0     H40208  -3.251   8.361   7.580 -0.3992  0.7243 -0.6320
  298MOL0     H40209  -3.147   8.434   7.707 -0.1161 -0.5452 -2.3034
  298MOL0     H40210  -3.439   8.347   7.744 -0.5308  0.2828  1.3684
  298MOL0     H40211  -3.415   8.502   7.697 -2.7295 -0.7803  0.8959
  298MOL0     H40212  -2.424   8.354   7.762  1.5257 -1.7214  2.4267
  298MOL0     H40213  -2.206   8.383   7.857  0.2509  1.5754 -0.0210
  298MOL0     H40214  -1.879   8.730   7.944  1.6778  1.5943  0.9456
  298MOL0     H40215  -1.641   8.773   7.969 -1.9160  0.7642  0.0972
  298MOL0     H40216   0.416   8.396   8.594 -0.0460 -0.0586 -1.3362
  298MOL0     H40217   0.616   8.460   8.727  0.8200  0.0112  1.0911
  298MOL0     H40218   0.777   8.680   9.248 -0.6354  0.7633 -2.6858
  298MOL0     H40219   1.005   8.694   9.344  3.1495  0.2192 -0.6396
  298MOL0     H40220   1.361   8.610   9.384  0.2047  1.0233 -0.0990
  298MOL0     H40221   1.205   8.693   9.386 -2.3439 -0.6487 -2.2398
  298MOL0     H40222   1.117   8.491   9.518  0.0213 -0.0863  1.6269
  298MOL0     H40223   1.253   8.552   9.602 -1.7448 -1.5455  1.2837
  298MOL0     H40224   1.316   8.333   9.603 -0.6750  0.9356  1.1028
  298MOL0     H40225   1.410   8.388   9.469 -0.1040  1.9589  1.0961
  298MOL0     H40226   1.260   8.278   9.304 -1.3198 -0.1230 -0.4236
  298MOL0     H40227   1.127   8.293   9.418  0.4271 -0.3783 -0.9867
  298MOL0     H40228   1.326   7.916   9.487  2.2928  0.1448 -0.9828
  298MOL0     H40229   1.127   8.380   9.076  0.2438  0.0242  0.0869
  298MOL0     H40230   0.886   8.345   9.012  0.3388 -0.2326 -0.1445
  299MOL0     O40231   1.476   3.436   5.768  0.0739  0.7407  0.5090
  299MOL0     C40232   1.488   3.500   5.870 -0.4727 -0.8824 -0.2911
  299MOL0     O40233   1.392   3.577   5.930 -0.5364  0.2482 -0.2078
  299MOL0     C40234   1.260   3.579   5.889 -0.6280  0.1253 -0.4294
  299MOL0     C40235   1.195   3.700   5.922  0.1636 -0.2541  0.3403
  299MOL0     C40236   1.062   3.722   5.899  0.6469  0.5156  0.6236
  299MOL0     C40237   0.986   3.621   5.842 -0.0094 -0.0117  0.5109
  299MOL0     O40238   0.853   3.640   5.815  0.9716  0.0075  0.0767
  299MOL0     C40239   0.780   3.761   5.869 -1.3060  0.4561 -0.4677
  299MOL0     C40240   0.637   3.781   5.818 -0.3828  0.2627 -0.4347
  299MOL0     C40241   0.569   3.881   5.913  0.2741 -0.3890  0.6038
  299MOL0     C40242   0.420   3.914   5.894  0.4831 -0.8946  0.3061
  299MOL0     C40243   0.393   3.964   5.754  0.5416  0.0476  0.3158
  299MOL0     C40244   0.244   3.995   5.716  0.0139  0.5824 -0.5861
  299MOL0     C40245   0.151   3.878   5.746 -0.1477 -0.4857  0.0221
  299MOL0     C40246   0.017   3.878   5.686 -0.3205 -0.2500  0.2014
  299MOL0     N40247  -0.057   4.001   5.685  0.4669  0.2804  0.3567
  299MOL0     C40248  -0.104   4.070   5.582 -0.3952 -1.0056  1.0453
  299MOL0     C40249  -0.190   4.163   5.622  0.2980 -0.5327  0.9350
  299MOL0     C40250  -0.272   4.260   5.528  0.0104  0.3439 -0.6421
  299MOL0     C40251  -0.404   4.325   5.587  0.4890  0.3239  0.2667
  299MOL0     C40252  -0.514   4.223   5.634  0.2534 -0.1060  0.3123
  299MOL0     C40253  -0.607   4.272   5.746 -0.0970  0.2722  0.3034
  299MOL0     O40254  -0.696   4.380   5.696  0.3632  0.1433  0.1121
  299MOL0     C40255  -0.781   4.358   5.588 -0.3477  0.2296 -0.1853
  299MOL0     C40256  -0.839   4.228   5.561  0.1925  0.0226 -0.1317
  299MOL0     C40257  -0.931   4.206   5.453  0.3393  0.8080  0.3218
  299MOL0     C40258  -0.972   4.057   5.443  0.7077 -0.1717  0.1716
  299MOL0     C40259  -0.961   4.317   5.375  0.9887  0.0646 -0.1114
  299MOL0     C40260  -1.066   4.296   5.274 -1.2240  0.0252 -0.0031
  299MOL0     O40261  -1.184   4.233   5.317  0.4341  0.7700 -1.2423
  299MOL0     C40262  -1.295   4.214   5.232 -0.2364  0.2419  0.2949
  299MOL0     C40263  -1.411   4.168   5.300  0.0338  0.8414 -0.4696
  299MOL0     C40264  -1.525   4.122   5.227 -1.1344  1.4913 -0.2198
  299MOL0     C40265  -1.525   4.128   5.085 -0.4912  0.1150 -0.4899
  299MOL0     O40266  -1.639   4.078   5.028 -0.8520  0.7279  0.7594
  299MOL0     C40267  -1.625   3.988   4.917 -0.2126  0.5338 -0.1091
  299MOL0     C40268  -1.744   3.982   4.828  0.1358  0.3273  0.0430
  299MOL0     C40269  -1.854   3.902   4.898 -0.4609  0.4982 -0.7153
  299MOL0     C40270  -1.965   3.840   4.805 -0.4348  0.4903  0.1346
  299MOL0     C40271  -2.071   3.939   4.758  0.8468 -0.1384 -0.3834
  299MOL0     C40272  -2.204   3.869   4.720  0.1305 -0.0401 -0.0613
  299MOL0     C40273  -2.300   3.964   4.658 -0.2959 -0.3536 -0.1184
  299MOL0     C40274  -2.432   3.895   4.617  0.2122  0.1561 -0.1538
  299MOL0    Cl40275  -2.405   3.749   4.506 -0.1404 -0.7241  0.1677
  299MOL0     C40276  -1.410   4.174   5.024 -0.9340  0.0364 -0.1674
  299MOL0     C40277  -1.297   4.212   5.094 -0.2035 -0.1807 -0.9189
  299MOL0     O40278  -1.039   4.337   5.164  0.3434  0.2906  0.1575
  299MOL0     C40279  -0.918   4.444   5.406  0.3802 -0.3635  0.0333
  299MOL0     C40280  -0.833   4.465   5.513  0.0215 -0.4427  0.1917
  299MOL0     N40281  -0.198   4.154   5.757 -0.5550  0.8480  0.0079
  299MOL0     N40282  -0.125   4.053   5.795  0.5051  0.9750 -0.1121
  299MOL0     C40283   1.049   3.498   5.812  0.7823  0.1634 -0.4431
  299MOL0     C40284   1.181   3.482   5.830 -0.4719 -0.5370 -0.4225
  299MOL0     C40285   1.624   3.491   5.941  0.0192 -0.3154 -0.0387
  299MOL0     C40286   1.650   3.567   6.059 -0.2476 -0.5749  0.5566
  299MOL0     C40287   1.774   3.555   6.117 -0.8431 -0.4202  0.1563
  299MOL0     C40288   1.874   3.468   6.075  0.8272  0.3469 -0.0581
  299MOL0     O40289   1.986   3.457   6.149 -0.1079  0.2653  0.1836
  299MOL0     C40290   2.104   3.415   6.078  0.8570  0.6212  0.7350
  299MOL0     C40291   2.235   3.448   6.153 -0.6380 -0.3992  0.1210
  299MOL0     C40292   2.254   3.601   6.154  0.3106  0.2217  0.0796
  299MOL0     C40293   2.392   3.633   6.209  0.0979 -0.2010  0.6458
  299MOL0     C40294   2.400   3.768   6.252 -0.4447 -0.1689 -0.7971
  299MOL0     C40295   2.412   3.878   6.301 -0.2832 -0.0379  0.1037
  299MOL0     C40296   1.841   3.393   5.963 -0.0111 -0.2283  0.0719
  299MOL0     C40297   1.725   3.399   5.898 -0.4179 -0.9671  0.1661
  299MOL0     H40298   1.258   3.784   5.950  0.7853  0.5053 -2.9299
  299MOL0     H40299   1.029   3.823   5.919 -0.9287  0.0977  0.3179
  299MOL0     H40300   0.766   3.742   5.975  0.0479 -1.1956 -0.5548
  299MOL0     H40301   0.838   3.853   5.853  2.0041 -1.4130 -0.1764
  299MOL0     H40302   0.651   3.824   5.718  4.0907 -0.4858 -0.3445
  299MOL0     H40303   0.586   3.685   5.825 -2.0563  1.2339  2.6975
  299MOL0     H40304   0.579   3.841   6.014  1.9449  0.1789  0.6940
  299MOL0     H40305   0.626   3.974   5.921 -1.2612  0.9190 -2.2242
  299MOL0     H40306   0.369   3.819   5.915 -1.4707 -0.0847 -0.5908
  299MOL0     H40307   0.389   3.987   5.969 -2.1383 -1.4279 -0.1713
  299MOL0     H40308   0.447   4.055   5.724 -0.6192  0.5458 -0.3144
  299MOL0     H40309   0.419   3.894   5.675 -0.6775  0.1748 -0.2175
  299MOL0     H40310   0.199   4.079   5.770 -0.7044  1.5088 -2.5096
  299MOL0     H40311   0.252   4.017   5.609 -0.8718  0.0071 -0.7794
  299MOL0     H40312   0.196   3.789   5.703  1.4929 -0.0642  0.7942
  299MOL0     H40313   0.153   3.862   5.854  2.2214  3.7872  0.8381
  299MOL0     H40314  -0.044   3.809   5.744  0.0620 -0.6863  0.0901
  299MOL0     H40315   0.019   3.824   5.590 -2.4362  0.9241 -0.5591
  299MOL0     H40316  -0.074   4.038   5.482  1.7771  0.5189  1.1469
  299MOL0     H40317  -0.199   4.334   5.493  1.5538 -1.4906 -1.4787
  299MOL0     H40318  -0.282   4.214   5.429 -0.2214 -0.5688 -0.2064
  299MOL0     H40319  -0.437   4.400   5.514  3.3477  0.4862 -1.0013
  299MOL0     H40320  -0.372   4.380   5.676 -2.3299  0.6904  1.1266
  299MOL0     H40321  -0.468   4.129   5.666  1.9699  1.2779  2.1240
  299MOL0     H40322  -0.580   4.197   5.551  0.8313 -0.2727 -0.1029
  299MOL0     H40323  -0.546   4.291   5.834 -0.8096  0.3104  0.7934
  299MOL0     H40324  -0.674   4.192   5.776  0.6015 -0.5719 -0.3265
  299MOL0     H40325  -0.823   4.143   5.626  2.5291  0.2809 -0.2974
  299MOL0     H40326  -0.885   3.996   5.468  1.2047 -0.0443 -1.1940
  299MOL0     H40327  -1.049   4.036   5.519  2.7931 -0.4908  2.3045
  299MOL0     H40328  -0.999   4.036   5.339  1.6936 -1.5731  0.1749
  299MOL0     H40329  -1.403   4.167   5.408  0.2523 -2.1056 -0.4478
  299MOL0     H40330  -1.593   4.075   5.297  0.2750 -0.2954  0.0491
  299MOL0     H40331  -1.545   4.014   4.848 -1.0567 -2.2253 -2.3157
  299MOL0     H40332  -1.598   3.886   4.949  2.4501  1.2648  0.2530
  299MOL0     H40333  -1.785   4.072   4.782  0.7155  0.6035  0.0524
  299MOL0     H40334  -1.709   3.917   4.746 -3.1328 -0.4905 -0.8458
  299MOL0     H40335  -1.909   3.967   4.967 -1.3880 -2.9239  2.0786
  299MOL0     H40336  -1.814   3.824   4.963 -1.5017  1.5036  1.2290
  299MOL0     H40337  -1.909   3.793   4.723  0.9680  0.8305  0.8651
  299MOL0     H40338  -2.016   3.761   4.860 -2.3525 -0.3921 -2.6763
  299MOL0     H40339  -2.029   3.984   4.668  2.7315 -0.2504  0.3850
  299MOL0     H40340  -2.089   4.015   4.835  0.1885  0.7808 -1.4043
  299MOL0     H40341  -2.192   3.782   4.655 -3.4402  0.1981 -1.2763
  299MOL0     H40342  -2.259   3.837   4.809 -0.4038 -0.1045 -0.4109
  299MOL0     H40343  -2.243   3.999   4.571  3.5960 -1.4101  1.7970
  299MOL0     H40344  -2.321   4.053   4.718  1.5154  1.2121 -1.6485
  299MOL0     H40345  -2.502   3.970   4.579 -1.0995  0.0039  1.7970
  299MOL0     H40346  -2.475   3.855   4.709  0.9492 -0.4802 -0.0697
  299MOL0     H40347  -1.403   4.172   4.916  2.6449 -0.8056 -0.0492
  299MOL0     H40348  -1.207   4.231   5.037  1.4509 -1.8284  0.9862
  299MOL0     H40349  -0.968   4.529   5.361  0.1780  0.6466  2.0337
  299MOL0     H40350  -0.796   4.565   5.530  0.4795 -0.5845  0.0500
  299MOL0     H40351   0.999   3.409   5.776  0.2915 -1.0996  2.9402
  299MOL0     H40352   1.215   3.379   5.816  1.1468 -0.2430  1.0764
  299MOL0     H40353   1.573   3.632   6.100  0.4092 -1.2574  3.0536
  299MOL0     H40354   1.798   3.632   6.190 -0.9269  0.2563 -0.5181
  299MOL0     H40355   2.098   3.308   6.058 -0.4046  0.8529 -0.2618
  299MOL0     H40356   2.105   3.468   5.982  0.0422 -1.2709 -0.3766
  299MOL0     H40357   2.324   3.401   6.111  0.4856 -0.9872  2.8769
  299MOL0     H40358   2.238   3.412   6.257  2.1153 -0.5195  0.0576
  299MOL0     H40359   2.173   3.643   6.214 -3.6291 -2.1587 -3.0839
  299MOL0     H40360   2.249   3.641   6.053 -1.3655 -1.3220 -0.5008
  299MOL0     H40361   2.471   3.617   6.134  0.4149  2.3964  0.3244
  299MOL0     H40362   2.415   3.566   6.292  0.0878 -2.5386 -1.1226
  299MOL0     H40363   2.428   3.980   6.330 -0.8712  0.9987 -2.8329
  299MOL0     H40364   1.906   3.310   5.935 -1.0833 -2.4913  3.6017
  299MOL0     H40365   1.703   3.334   5.813  0.5941 -0.5083 -0.4538
  300MOL0     O40366   8.681   6.020  10.198 -0.2286 -0.9288 -0.4011
  300MOL0     C40367   8.696   5.980  10.083  0.6136  1.1382 -0.3050
  300MOL0     O40368   8.600   5.939   9.993 -0.6357 -0.1330 -0.1540
  300MOL0     C40369   8.463   5.948  10.018 -0.6119  0.0949 -0.0049
  300MOL0     C40370   8.400   6.051  10.089  0.2973  0.7948 -0.6024
  300MOL0     C40371   8.256   6.051  10.104 -0.2188 -0.6092  0.3299
  300MOL0     C40372   8.179   5.955  10.043 -0.1633 -0.7822 -0.3565
  300MOL0     O40373   8.043   5.978  10.039  0.1445  0.4783  0.4481
  300MOL0     C40374   7.954   5.889   9.965  0.3751 -0.0309  0.0148
  300MOL0     C40375   7.826   5.967   9.945  0.1383 -0.3853  0.8285
  300MOL0     C40376   7.705   5.891   9.886  0.0453  0.1410 -0.2700
  300MOL0     C40377   7.644   5.814  10.004  0.9116  0.2813 -0.1318
  300MOL0     C40378   7.513   5.749   9.960 -0.3502 -0.3303 -0.3116
  300MOL0     C40379   7.382   5.825   9.966 -0.9246 -0.3627 -0.0627
  300MOL0     C40380   7.280   5.778   9.866  0.6610  0.4545 -0.6059
  300MOL0     C40381   7.162   5.876   9.850 -0.2259 -0.1450  0.3361
  300MOL0     N40382   7.056   5.821   9.765 -0.0027 -0.2463 -0.3332
  300MOL0     C40383   7.067   5.827   9.629 -0.4038  0.8104 -0.2851
  300MOL0     C40384   6.968   5.750   9.581 -0.5919  0.2310  0.5209
  300MOL0     C40385   6.943   5.690   9.445 -0.4435  0.0796 -0.1550
  300MOL0     C40386   6.803   5.729   9.406  0.6558 -0.5488  0.5268
  300MOL0     C40387   6.809   5.881   9.360  0.9958  0.7619 -0.3938
  300MOL0     C40388   6.680   5.922   9.298  0.0317 -1.0739  1.1572
  300MOL0     O40389   6.571   5.931   9.392 -0.1757 -0.0393 -0.2099
  300MOL0     C40390   6.451   5.882   9.352  0.8039 -0.3778 -0.2186
  300MOL0     C40391   6.366   5.959   9.264  0.5024 -0.0543  0.4145
  300MOL0     C40392   6.229   5.928   9.242  0.4883  0.2702 -0.0875
  300MOL0     C40393   6.145   6.022   9.158 -0.8202 -1.7166  0.1076
  300MOL0     C40394   6.174   5.810   9.302  0.0601 -0.6642  0.2414
  300MOL0     C40395   6.030   5.764   9.296 -0.5556 -0.7555 -0.6099
  300MOL0     O40396   5.976   5.685   9.395  0.5558 -0.2925 -0.1834
  300MOL0     C40397   5.844   5.659   9.399  0.2831 -1.0950  0.6710
  300MOL0     C40398   5.808   5.534   9.351  0.8253  0.2636  0.2123
  300MOL0     C40399   5.672   5.503   9.347  0.6225 -0.2076 -0.4088
  300MOL0     C40400   5.569   5.592   9.379 -0.2309 -0.0025 -0.2454
  300MOL0     O40401   5.445   5.551   9.352 -0.9380 -0.1544  0.3278
  300MOL0     C40402   5.344   5.645   9.319 -0.7071 -0.1381  0.0557
  300MOL0     C40403   5.254   5.634   9.434 -0.3438 -0.8541 -0.1721
  300MOL0     C40404   5.129   5.724   9.415  1.2871  0.8139  0.0797
  300MOL0     C40405   5.013   5.696   9.520  0.2822  0.3891  0.4070
  300MOL0     C40406   4.883   5.768   9.470 -0.1861  0.2882  0.2739
  300MOL0     C40407   4.770   5.728   9.558 -0.1466  0.2184 -0.1024
  300MOL0     C40408   4.782   5.794   9.707  0.2382  0.1846  0.3184
  300MOL0     C40409   4.642   5.793   9.768 -0.1321 -0.3167  0.0731
  300MOL0    Cl40410   4.622   5.864   9.930  0.2221  0.2574  0.3478
  300MOL0     C40411   5.604   5.713   9.436 -1.0068  0.3561 -0.1696
  300MOL0     C40412   5.742   5.749   9.443 -0.2925  0.0084 -0.3482
  300MOL0     O40413   5.970   5.805   9.197 -0.2667 -0.4850  0.5395
  300MOL0     C40414   6.256   5.742   9.395 -0.0608 -1.0752  0.4124
  300MOL0     C40415   6.393   5.770   9.410 -0.2811 -0.9263 -0.1182
  300MOL0     N40416   6.885   5.713   9.696 -0.4366 -0.2647  0.3087
  300MOL0     N40417   6.943   5.755   9.805 -0.0065  0.3292  0.0558
  300MOL0     C40418   8.242   5.837   9.984 -0.3160 -0.0138  0.0913
  300MOL0     C40419   8.382   5.848   9.960  0.5783  0.0081  0.4184
  300MOL0     C40420   8.839   5.962  10.035  0.7449  1.0036  0.0455
  300MOL0     C40421   8.862   5.907   9.914  0.1909 -0.0733 -0.2496
  300MOL0     C40422   8.989   5.890   9.854  0.3371 -0.1966 -0.9474
  300MOL0     C40423   9.104   5.920   9.930 -0.2440 -0.8237 -0.5530
  300MOL0     O40424   9.222   5.903   9.868 -0.7991  0.0898 -1.4013
  300MOL0     C40425   9.346   5.902   9.948  0.6173 -1.3668 -0.2030
  300MOL0     C40426   9.450   5.830   9.868  0.5752  0.4010 -0.3083
  300MOL0     C40427   9.571   5.788   9.956 -0.2423 -0.3471 -0.4589
  300MOL0     C40428   9.683   5.756   9.868 -0.3775  0.7684 -1.3525
  300MOL0     C40429   9.809   5.752   9.941  1.1814  0.1442 -0.2778
  300MOL0     C40430   9.905   5.745  10.011 -0.3953 -0.4534  0.2039
  300MOL0     C40431   9.078   5.967  10.060  0.6966 -0.5844  0.3729
  300MOL0     C40432   8.946   5.991  10.107 -0.5963  0.6303  0.4270
  300MOL0     H40433   8.462   6.136  10.119  0.0633  0.8332 -0.2269
  300MOL0     H40434   8.206   6.136  10.151  2.1962  0.5536  0.9451
  300MOL0     H40435   7.998   5.853   9.871 -0.4674 -1.1413  0.0238
  300MOL0     H40436   7.946   5.796  10.021  3.8668  0.5469  1.8001
  300MOL0     H40437   7.789   6.017  10.035 -1.0112  1.7632 -0.7426
  300MOL0     H40438   7.831   6.050   9.874 -0.7452 -0.8734  0.1732
  300MOL0     H40439   7.637   5.961   9.837  0.3719 -1.7187 -3.6696
  300MOL0     H40440   7.729   5.810   9.816 -1.6187  1.0934 -2.0242
  300MOL0     H40441   7.722   5.745  10.037  3.2358  4.6491  4.9162
  300MOL0     H40442   7.630   5.873  10.094 -3.0960 -0.3247 -0.1612
  300MOL0     H40443   7.527   5.704   9.861 -0.1936 -1.7131  0.3177
  300MOL0     H40444   7.499   5.664  10.026 -1.5400  0.7639  0.9037
  300MOL0     H40445   7.346   5.804  10.067 -0.6438 -2.3196 -0.3311
  300MOL0     H40446   7.403   5.931   9.951 -0.4976 -0.5463 -0.8161
  300MOL0     H40447   7.317   5.754   9.766 -1.2237 -2.4555 -0.7116
  300MOL0     H40448   7.234   5.689   9.910  0.6311  2.0376  2.9142
  300MOL0     H40449   7.193   5.978   9.825  0.2818  0.0272  1.6323
  300MOL0     H40450   7.113   5.884   9.947  0.3276  1.6361  0.4998
  300MOL0     H40451   7.146   5.887   9.584 -0.4796  1.7997  0.8448
  300MOL0     H40452   7.021   5.715   9.372  2.3730 -2.4464  1.6888
  300MOL0     H40453   6.955   5.581   9.448  3.1165  0.3231 -0.2386
  300MOL0     H40454   6.729   5.727   9.486  0.8455  2.1915  0.8489
  300MOL0     H40455   6.774   5.666   9.321  0.6509  0.6969 -0.4175
  300MOL0     H40456   6.885   5.875   9.282 -0.3956 -5.1422 -1.8705
  300MOL0     H40457   6.825   5.945   9.447 -0.8252  0.3668  0.2929
  300MOL0     H40458   6.653   5.866   9.208 -0.1855 -0.3063  0.7331
  300MOL0     H40459   6.698   6.024   9.262  0.4906 -1.6336 -0.2980
  300MOL0     H40460   6.401   6.047   9.210 -0.5479  0.6396  0.8259
  300MOL0     H40461   6.209   6.102   9.120 -1.8387 -0.2202  1.4456
  300MOL0     H40462   6.095   5.974   9.073 -1.3488 -0.3359 -0.3749
  300MOL0     H40463   6.059   6.061   9.212 -0.5210 -2.3113  1.0447
  300MOL0     H40464   5.885   5.463   9.323 -0.8913 -1.4339 -0.4166
  300MOL0     H40465   5.630   5.408   9.316 -1.5429  0.8803 -1.0873
  300MOL0     H40466   5.377   5.748   9.305  2.2958 -0.9928  0.1676
  300MOL0     H40467   5.308   5.623   9.218  1.1560  3.1890 -1.4836
  300MOL0     H40468   5.225   5.530   9.454  1.8502 -1.0106  2.9103
  300MOL0     H40469   5.301   5.664   9.528  2.4496 -0.0501 -1.7300
  300MOL0     H40470   5.085   5.697   9.319  1.1910 -1.4103  0.7017
  300MOL0     H40471   5.153   5.831   9.410 -0.2656  1.1623 -0.3322
  300MOL0     H40472   4.981   5.592   9.533 -3.2134  1.3862  0.7235
  300MOL0     H40473   5.051   5.730   9.617  1.8339  3.2873 -1.0871
  300MOL0     H40474   4.867   5.733   9.367  1.8688  0.7746 -0.2515
  300MOL0     H40475   4.890   5.877   9.478 -0.6199  0.1769  3.1677
  300MOL0     H40476   4.676   5.768   9.519  0.5754  2.8859  0.6361
  300MOL0     H40477   4.764   5.620   9.575 -0.8280 -0.3860 -3.4739
  300MOL0     H40478   4.810   5.899   9.692 -3.5194  1.2298 -0.4968
  300MOL0     H40479   4.867   5.747   9.757  0.0537 -0.7597 -0.2185
  300MOL0     H40480   4.600   5.692   9.772  1.2113 -0.8857  0.2596
  300MOL0     H40481   4.569   5.840   9.702  0.5058 -1.8393 -1.7988
  300MOL0     H40482   5.529   5.791   9.448 -1.5280 -0.0454 -0.7192
  300MOL0     H40483   5.766   5.849   9.475 -2.1283  1.7753 -3.8683
  300MOL0     H40484   6.220   5.656   9.451 -1.8212 -1.0169 -0.5608
  300MOL0     H40485   6.448   5.700   9.472  0.8327 -4.7374 -4.8609
  300MOL0     H40486   8.183   5.749   9.960  1.1386 -1.3676  1.2122
  300MOL0     H40487   8.440   5.765   9.921  0.1760  0.9741 -2.5126
  300MOL0     H40488   8.776   5.892   9.849  0.9286  2.2281 -1.8856
  300MOL0     H40489   9.004   5.845   9.756 -0.2834  1.0877 -1.6717
  300MOL0     H40490   9.383   6.004   9.961  1.4652 -1.6437 -0.3517
  300MOL0     H40491   9.335   5.858  10.048 -0.4171 -0.0769  0.2781
  300MOL0     H40492   9.492   5.891   9.787  1.1296 -1.9414 -1.9250
  300MOL0     H40493   9.417   5.729   9.840  0.6368  0.0317  0.8958
  300MOL0     H40494   9.545   5.705  10.022 -2.1705 -0.1650 -0.9183
  300MOL0     H40495   9.603   5.873  10.017 -1.4027  0.3024 -0.7333
  300MOL0     H40496   9.706   5.830   9.791  3.1770  0.0711 -1.1416
  300MOL0     H40497   9.663   5.659   9.821 -2.0079 -0.7678  2.1646
  300MOL0     H40498   9.989   5.741  10.077  0.8846 -2.1241 -1.4411
  300MOL0     H40499   9.153   6.002  10.130  0.9705 -0.1739 -0.1237
  300MOL0     H40500   8.933   6.049  10.198 -0.8061  1.2322  0.0224
  301MOL0     O40501   4.705   2.690   8.804 -0.7255 -0.7741  0.1849
  301MOL0     C40502   4.756   2.660   8.697 -0.6235 -1.1067  0.8428
  301MOL0     O40503   4.696   2.626   8.576  0.3118  0.1051 -0.0694
  301MOL0     C40504   4.563   2.620   8.575  0.6606  0.8525  0.1556
  301MOL0     C40505   4.465   2.701   8.644 -0.7703  0.1155  0.1523
  301MOL0     C40506   4.329   2.692   8.626 -0.7972 -0.5351 -0.0601
  301MOL0     C40507   4.279   2.602   8.538  0.3985 -0.1544  0.1964
  301MOL0     O40508   4.143   2.589   8.518  0.8853  0.4891  0.5498
  301MOL0     C40509   4.055   2.685   8.569 -0.2607  0.2992 -0.0875
  301MOL0     C40510   3.907   2.649   8.525  0.4043 -0.2120 -0.2861
  301MOL0     C40511   3.799   2.752   8.567 -0.0476 -0.6669 -0.0109
  301MOL0     C40512   3.678   2.721   8.491  0.2001 -0.5991 -0.5001
  301MOL0     C40513   3.563   2.795   8.554 -0.3660  0.6073 -0.2558
  301MOL0     C40514   3.433   2.784   8.479  0.4216  0.0104 -1.0676
  301MOL0     C40515   3.323   2.868   8.557  0.3593 -0.3892  0.6978
  301MOL0     C40516   3.203   2.895   8.478  0.4032 -0.1110 -0.8031
  301MOL0     N40517   3.092   2.942   8.573  1.1838  0.1346  0.0670
  301MOL0     C40518   3.053   3.065   8.602 -0.3131 -0.1519  0.2131
  301MOL0     C40519   2.958   3.042   8.692  0.7328 -0.4347 -0.4395
  301MOL0     C40520   2.878   3.148   8.764 -0.1633 -0.2156 -0.0682
  301MOL0     C40521   2.757   3.188   8.670 -0.3689  0.1034  0.0415
  301MOL0     C40522   2.648   3.246   8.758 -0.9098 -0.0462 -0.1122
  301MOL0     C40523   2.521   3.280   8.676  0.2417 -0.1741 -0.1457
  301MOL0     O40524   2.422   3.352   8.753 -0.4159  0.2848  0.3907
  301MOL0     C40525   2.311   3.388   8.685 -0.4797 -1.3100  0.3103
  301MOL0     C40526   2.232   3.474   8.758  0.9034 -0.0842 -1.0903
  301MOL0     C40527   2.113   3.534   8.702  0.2819  0.9560 -0.3072
  301MOL0     C40528   2.027   3.626   8.786  1.1652  0.0654 -0.4856
  301MOL0     C40529   2.080   3.496   8.567  0.2112  0.4905  0.9232
  301MOL0     C40530   1.959   3.541   8.491 -0.4992 -0.0823 -0.0037
  301MOL0     O40531   1.888   3.450   8.418 -0.3033 -0.3324  0.7189
  301MOL0     C40532   1.773   3.479   8.357 -1.0144 -0.1846  0.1912
  301MOL0     C40533   1.653   3.417   8.394  0.0772  0.9206  0.0081
  301MOL0     C40534   1.533   3.447   8.334  0.2695 -0.1721  0.0786
  301MOL0     C40535   1.529   3.544   8.240  0.2164  0.6586 -0.0181
  301MOL0     O40536   1.405   3.565   8.182  0.2808  0.0346  0.4833
  301MOL0     C40537   1.396   3.654   8.071 -0.2134  0.1031  0.5888
  301MOL0     C40538   1.257   3.630   8.006  0.2049 -0.6180 -0.1337
  301MOL0     C40539   1.132   3.652   8.102  0.1301 -0.2195  0.0953
  301MOL0     C40540   0.993   3.613   8.045  0.3174 -0.2480  0.0617
  301MOL0     C40541   0.962   3.680   7.906 -0.3320 -0.1795  0.0751
  301MOL0     C40542   0.819   3.663   7.861  0.5113 -0.2917  0.1439
  301MOL0     C40543   0.782   3.754   7.739  0.1490  0.4900 -0.3321
  301MOL0     C40544   0.631   3.752   7.722  0.1704 -0.5851  0.2998
  301MOL0    Cl40545   0.555   3.853   7.847 -0.1382 -0.3561 -0.1891
  301MOL0     C40546   1.646   3.619   8.201 -0.2834 -0.5490 -0.4805
  301MOL0     C40547   1.769   3.583   8.258  0.0200  0.4158  0.9227
  301MOL0     O40548   1.938   3.659   8.495 -0.0393  0.3545 -0.0338
  301MOL0     C40549   2.166   3.412   8.497  0.0922 -0.1645 -0.5189
  301MOL0     C40550   2.281   3.359   8.556 -0.4177  0.0602 -0.2055
  301MOL0     N40551   2.943   2.911   8.715 -0.1104  0.3929 -0.4473
  301MOL0     N40552   3.020   2.842   8.635 -0.5253 -1.0262 -0.5148
  301MOL0     C40553   4.366   2.520   8.470  0.4262  0.5744  1.0712
  301MOL0     C40554   4.503   2.529   8.479  0.2620 -1.2142 -0.1761
  301MOL0     C40555   4.896   2.699   8.684  0.1843  0.2788 -0.4175
  301MOL0     C40556   4.985   2.676   8.790  0.5743 -0.2266 -0.4626
  301MOL0     C40557   5.124   2.704   8.766  0.3109 -0.3934 -0.0065
  301MOL0     C40558   5.173   2.741   8.640 -0.8282  0.4042  0.2235
  301MOL0     O40559   5.309   2.751   8.608  0.9728 -0.6736  0.7563
  301MOL0     C40560   5.412   2.729   8.708  0.7805 -0.4620  1.0891
  301MOL0     C40561   5.555   2.766   8.656 -0.5205  0.0124 -0.4472
  301MOL0     C40562   5.658   2.707   8.748 -0.3044  0.1548  0.0377
  301MOL0     C40563   5.804   2.730   8.701  0.7467  0.6538  0.1662
  301MOL0     C40564   5.883   2.636   8.774  0.7025 -0.1175  0.0890
  301MOL0     C40565   5.940   2.535   8.813  0.6812  0.9722 -0.1740
  301MOL0     C40566   5.077   2.767   8.542 -0.1992  0.2248 -0.0963
  301MOL0     C40567   4.941   2.749   8.560  0.2548 -0.6066 -0.2691
  301MOL0     H40568   4.509   2.777   8.707  0.7961 -2.5386  2.5150
  301MOL0     H40569   4.267   2.761   8.683 -1.0535 -1.1791  0.4541
  301MOL0     H40570   4.063   2.691   8.678  2.2916 -1.6175 -0.0879
  301MOL0     H40571   4.076   2.783   8.526 -2.6462  0.0380 -2.0281
  301MOL0     H40572   3.909   2.633   8.417  0.5379 -1.2128 -0.1373
  301MOL0     H40573   3.883   2.554   8.574 -0.5316  1.0435  1.8567
  301MOL0     H40574   3.772   2.741   8.672  0.5329 -1.6467  0.0418
  301MOL0     H40575   3.825   2.858   8.553 -0.7410  0.1976  4.0236
  301MOL0     H40576   3.688   2.750   8.386  0.7294 -1.8126 -0.7901
  301MOL0     H40577   3.659   2.614   8.500 -0.7183 -0.3469  0.7213
  301MOL0     H40578   3.543   2.751   8.652  2.8433  2.5947  1.4362
  301MOL0     H40579   3.593   2.895   8.586  1.8008  0.3127 -1.1936
  301MOL0     H40580   3.463   2.818   8.380 -1.2288  2.7594 -0.7145
  301MOL0     H40581   3.388   2.684   8.475 -2.1126  1.0493 -0.4039
  301MOL0     H40582   3.299   2.824   8.654  2.3280 -1.0418  0.9264
  301MOL0     H40583   3.375   2.963   8.572  2.3541 -1.3205 -0.0089
  301MOL0     H40584   3.171   2.802   8.430 -1.7818  1.5794 -2.8400
  301MOL0     H40585   3.216   2.969   8.398 -1.0835  1.6594  0.5164
  301MOL0     H40586   3.089   3.161   8.567  2.6646 -0.5014  2.0401
  301MOL0     H40587   2.837   3.107   8.856  1.0995 -2.7181 -0.5400
  301MOL0     H40588   2.932   3.239   8.794 -0.2710 -0.0849 -0.2718
  301MOL0     H40589   2.702   3.102   8.632 -0.9082 -0.2046  1.4644
  301MOL0     H40590   2.801   3.257   8.597 -0.4917  0.2303  0.0870
  301MOL0     H40591   2.673   3.342   8.804 -2.9289 -0.3247  1.7048
  301MOL0     H40592   2.622   3.178   8.840  2.0791 -1.7808 -0.4655
  301MOL0     H40593   2.483   3.191   8.624 -1.9436  0.0501  0.9630
  301MOL0     H40594   2.556   3.341   8.592  0.2661 -1.5802 -1.2054
  301MOL0     H40595   2.247   3.504   8.861 -2.3474 -3.3174  0.5526
  301MOL0     H40596   2.001   3.723   8.743 -0.8499 -0.3287 -0.2543
  301MOL0     H40597   1.930   3.576   8.798  2.0563 -2.0939 -1.5873
  301MOL0     H40598   2.059   3.637   8.890 -0.9553  0.0173  0.2197
  301MOL0     H40599   1.653   3.350   8.479 -0.7929 -1.4624 -1.7672
  301MOL0     H40600   1.441   3.404   8.372 -2.1311  5.1565  1.2443
  301MOL0     H40601   1.415   3.757   8.105 -0.8555  1.2714 -2.3038
  301MOL0     H40602   1.475   3.632   7.999  1.0363 -1.0487  2.2176
  301MOL0     H40603   1.246   3.709   7.931 -2.1698 -0.0634  0.7040
  301MOL0     H40604   1.252   3.528   7.968 -0.0922 -1.1133  1.1813
  301MOL0     H40605   1.111   3.755   8.133 -2.7867 -0.4781 -0.6802
  301MOL0     H40606   1.157   3.602   8.196  1.6170  1.0074  0.3878
  301MOL0     H40607   0.994   3.506   8.024 -1.2720 -0.2618  0.0052
  301MOL0     H40608   0.912   3.627   8.116 -0.3800 -0.4629 -0.6789
  301MOL0     H40609   1.018   3.629   7.826 -1.0622 -1.6908  0.4782
  301MOL0     H40610   0.985   3.787   7.904  0.7892 -0.4121 -0.7215
  301MOL0     H40611   0.805   3.558   7.834 -2.6846 -0.4907  2.0406
  301MOL0     H40612   0.748   3.680   7.943 -0.9914 -0.5438 -1.0591
  301MOL0     H40613   0.828   3.700   7.656  0.2932  1.5382 -0.9477
  301MOL0     H40614   0.814   3.858   7.750 -0.3573  0.7032 -0.8637
  301MOL0     H40615   0.599   3.647   7.726  1.7686 -1.0737  0.7058
  301MOL0     H40616   0.597   3.785   7.623  1.0329  0.5801  0.3667
  301MOL0     H40617   1.645   3.693   8.121  0.1879  1.8919  1.6204
  301MOL0     H40618   1.859   3.630   8.220  1.8619 -2.9946  0.6250
  301MOL0     H40619   2.144   3.389   8.394  0.8085  1.4716 -1.0654
  301MOL0     H40620   2.338   3.280   8.508  1.0492  0.7876  0.2644
  301MOL0     H40621   4.340   2.437   8.405 -0.2533  0.4044  1.5515
  301MOL0     H40622   4.558   2.470   8.407 -1.0945 -3.0447  0.2215
  301MOL0     H40623   4.943   2.650   8.887 -0.1778  0.4632 -0.5962
  301MOL0     H40624   5.189   2.687   8.852  1.0599  0.1612 -0.4535
  301MOL0     H40625   5.402   2.805   8.787 -0.8397  0.8961 -0.3187
  301MOL0     H40626   5.396   2.631   8.754 -0.6191 -0.7726  0.0145
  301MOL0     H40627   5.579   2.873   8.654 -0.6649  0.1313  1.6815
  301MOL0     H40628   5.559   2.718   8.558 -0.5936 -0.4567 -0.2238
  301MOL0     H40629   5.634   2.600   8.747 -3.8240  0.7533  2.2384
  301MOL0     H40630   5.644   2.743   8.851 -0.4721  0.0534  0.0522
  301MOL0     H40631   5.833   2.835   8.715  2.0432  0.3864 -0.3540
  301MOL0     H40632   5.812   2.702   8.595 -2.1110  0.2022 -0.0131
  301MOL0     H40633   5.988   2.452   8.860 -0.3211 -0.4449 -1.5478
  301MOL0     H40634   5.105   2.810   8.447 -0.8374 -0.7902 -0.7592
  301MOL0     H40635   4.879   2.773   8.474 -0.4652 -0.8222  0.1788
  302MOL0     O40636   6.124   3.423   9.977  0.1131 -0.3412  0.4423
  302MOL0     C40637   6.145   3.373   9.865 -0.7012 -0.4494  0.3598
  302MOL0     O40638   6.052   3.367   9.761 -0.0424 -0.3889 -0.6066
  302MOL0     C40639   5.936   3.440   9.775  0.1946  1.3987  0.1290
  302MOL0     C40640   5.811   3.377   9.793 -0.0017  0.4173 -0.2872
  302MOL0     C40641   5.693   3.455   9.817  0.2467  0.3153 -0.3370
  302MOL0     C40642   5.702   3.596   9.797 -0.4874 -0.5037  0.4542
  302MOL0     O40643   5.593   3.676   9.784  0.0538  0.7223  0.2855
  302MOL0     C40644   5.472   3.627   9.840 -0.4126 -0.4553  0.0106
  302MOL0     C40645   5.371   3.732   9.788 -0.5340 -0.4892 -0.8399
  302MOL0     C40646   5.224   3.705   9.822 -0.2952  0.0971 -0.1317
  302MOL0     C40647   5.146   3.683   9.690  0.4396 -0.7620 -0.7534
  302MOL0     C40648   5.007   3.690   9.731 -0.0580  0.0329  0.4384
  302MOL0     C40649   4.904   3.701   9.616  0.7374  0.4984  0.2738
  302MOL0     C40650   4.760   3.684   9.667  0.1323 -0.7381 -0.1448
  302MOL0     C40651   4.664   3.719   9.561  0.4205  0.7926 -0.2149
  302MOL0     N40652   4.536   3.693   9.615  0.4493  0.2911 -0.5914
  302MOL0     C40653   4.473   3.770   9.707  0.2323 -0.3888  0.1830
  302MOL0     C40654   4.350   3.713   9.726 -0.4449  0.0623  0.1602
  302MOL0     C40655   4.247   3.757   9.827  0.5826 -0.1778  0.4917
  302MOL0     C40656   4.123   3.812   9.757  0.2512  0.1315 -0.7535
  302MOL0     C40657   4.010   3.804   9.860  0.3365 -1.1751  0.2410
  302MOL0     C40658   3.885   3.861   9.783  0.4690  0.1629  0.7828
  302MOL0     O40659   3.767   3.828   9.867 -0.0277 -0.6710  0.2107
  302MOL0     C40660   3.655   3.910   9.869 -0.0240  0.3694 -0.4796
  302MOL0     C40661   3.568   3.905   9.978  0.6482 -0.0898 -0.2783
  302MOL0     C40662   3.443   3.971   9.977  0.6088  0.3473 -0.5962
  302MOL0     C40663   3.352   3.926  10.087 -0.6246  0.1400  0.3612
  302MOL0     C40664   3.403   4.046   9.866 -0.6919  0.0859  0.4654
  302MOL0     C40665   3.266   4.115   9.854 -0.5841 -0.2123 -0.1333
  302MOL0     O40666   3.179   4.107   9.949 -0.8415 -0.5932  0.6624
  302MOL0     C40667   3.058   4.185   9.945  0.7605 -0.1085  0.3552
  302MOL0     C40668   3.035   4.312   9.889 -0.0718  0.2875  0.2790
  302MOL0     C40669   2.909   4.374   9.902 -0.3738  1.1605 -0.4961
  302MOL0     C40670   2.801   4.305   9.959 -0.6963  0.3019 -0.5064
  302MOL0     O40671   2.672   4.349   9.955  0.8207 -0.2418 -0.5128
  302MOL0     C40672   2.607   4.380  10.080 -0.3452 -0.1497 -0.5468
  302MOL0     C40673   2.480   4.298  10.100 -0.5798 -0.1180 -0.4602
  302MOL0     C40674   2.428   4.311  10.243  0.0276 -0.3106 -0.0775
  302MOL0     C40675   2.522   4.257  10.347 -0.2429 -0.7603 -0.4483
  302MOL0     C40676   2.469   4.194  10.484  0.6020 -0.3879 -0.2093
  302MOL0     C40677   2.410   4.052  10.463 -0.6004  0.5738 -1.9959
  302MOL0     C40678   2.381   3.975  10.586  0.2519  0.8082  0.1748
  302MOL0     C40679   2.482   3.986  10.694  0.6717  0.0252 -1.2603
  302MOL0    Cl40680   2.633   3.926  10.636  0.2562  0.4337  0.0948
  302MOL0     C40681   2.825   4.179  10.017  1.0243 -0.1283  0.7262
  302MOL0     C40682   2.952   4.117  10.013  0.2043 -0.8084  0.0742
  302MOL0     O40683   3.242   4.171   9.744  0.1568 -0.4286  0.2368
  302MOL0     C40684   3.502   4.063   9.763 -0.0895 -0.0518  0.0886
  302MOL0     C40685   3.627   3.998   9.762  0.9563  0.4406 -0.2436
  302MOL0     N40686   4.344   3.593   9.674 -0.2079  0.2475  0.1699
  302MOL0     N40687   4.460   3.578   9.606  0.3027  0.0527  0.6575
  302MOL0     C40688   5.826   3.653   9.772  0.2111 -1.1039  0.3227
  302MOL0     C40689   5.944   3.579   9.764 -0.2539  0.2116  0.0139
  302MOL0     C40690   6.274   3.311   9.836  0.0114  0.9917 -0.2308
  302MOL0     C40691   6.299   3.242   9.715 -0.1355  0.7240 -1.0413
  302MOL0     C40692   6.426   3.182   9.690 -0.4627 -0.4306 -0.8815
  302MOL0     C40693   6.529   3.181   9.784  0.5765 -0.0349 -0.1578
  302MOL0     O40694   6.647   3.117   9.755  0.5398 -0.2100 -0.2725
  302MOL0     C40695   6.756   3.146   9.842  0.5854  0.3763 -0.2861
  302MOL0     C40696   6.881   3.065   9.799 -0.4611  1.1189 -0.3603
  302MOL0     C40697   6.839   2.912   9.815 -0.2562 -1.2449  0.1034
  302MOL0     C40698   6.945   2.810   9.778  0.3818 -0.0702  0.2138
  302MOL0     C40699   6.899   2.694   9.704  0.1344 -0.0876  0.2842
  302MOL0     C40700   6.852   2.605   9.623  0.0285 -0.5463 -0.5750
  302MOL0     C40701   6.507   3.253   9.901  0.2772  0.0927 -0.0472
  302MOL0     C40702   6.380   3.316   9.929  0.0509 -0.0121  1.1060
  302MOL0     H40703   5.800   3.270   9.802 -0.7525  0.6086  1.2845
  302MOL0     H40704   5.605   3.394   9.831  0.5472 -0.2429 -0.8348
  302MOL0     H40705   5.451   3.532   9.791  1.5360 -0.5058 -0.8249
  302MOL0     H40706   5.491   3.618   9.947 -2.1084 -0.1967  0.3580
  302MOL0     H40707   5.401   3.828   9.830 -1.9145 -0.1912 -0.4771
  302MOL0     H40708   5.386   3.747   9.681  5.3608 -0.1432 -0.2769
  302MOL0     H40709   5.220   3.613   9.881  0.8534 -0.1266 -0.3953
  302MOL0     H40710   5.184   3.797   9.866  1.0396  0.9850 -0.7273
  302MOL0     H40711   5.177   3.770   9.631  0.8642 -0.2540  0.1836
  302MOL0     H40712   5.169   3.583   9.652  0.6397  0.1958 -3.3412
  302MOL0     H40713   4.982   3.603   9.792  0.0919 -0.4367 -0.1601
  302MOL0     H40714   4.999   3.780   9.793  0.8337 -0.5397  1.4090
  302MOL0     H40715   4.908   3.802   9.574  1.7010  0.8280  1.1083
  302MOL0     H40716   4.928   3.627   9.539  2.7212  1.0786  0.2975
  302MOL0     H40717   4.744   3.585   9.711 -3.0309 -1.6559 -2.9736
  302MOL0     H40718   4.739   3.757   9.746 -2.3166  3.0481 -3.8646
  302MOL0     H40719   4.672   3.654   9.473  1.1362  1.1300 -0.4038
  302MOL0     H40720   4.673   3.824   9.534  2.7683  0.0603 -2.7460
  302MOL0     H40721   4.501   3.864   9.754 -1.1888  0.8419 -1.2611
  302MOL0     H40722   4.219   3.676   9.895  1.5403  0.7149  2.0078
  302MOL0     H40723   4.290   3.833   9.893 -4.7558  2.0864  1.8710
  302MOL0     H40724   4.098   3.753   9.669  1.2222 -1.5014  0.0144
  302MOL0     H40725   4.142   3.917   9.732 -0.2177  1.0992  2.4912
  302MOL0     H40726   4.035   3.879   9.935 -1.6489  0.8164 -0.9853
  302MOL0     H40727   3.992   3.705   9.903 -1.6084 -0.9056  0.1360
  302MOL0     H40728   3.863   3.815   9.687  0.8328  1.9050 -0.1765
  302MOL0     H40729   3.891   3.969   9.769 -0.7878 -0.0488 -1.8704
  302MOL0     H40730   3.590   3.829  10.052 -0.0201  0.9503  1.0280
  302MOL0     H40731   3.255   3.899  10.045 -0.3122 -2.0875  0.9513
  302MOL0     H40732   3.389   3.835  10.136 -1.4912  0.0956  0.9421
  302MOL0     H40733   3.342   4.008  10.158  0.7781 -1.2474  2.2948
  302MOL0     H40734   3.106   4.369   9.829 -0.7561  0.7373 -0.1210
  302MOL0     H40735   2.896   4.476   9.867 -1.5585  1.5493  1.0006
  302MOL0     H40736   2.675   4.354  10.161  0.3948  0.5318 -0.9244
  302MOL0     H40737   2.585   4.487  10.085 -1.4979 -0.4352  1.2757
  302MOL0     H40738   2.407   4.327  10.025  0.6995 -1.2327 -2.2096
  302MOL0     H40739   2.499   4.191  10.091  0.7844 -0.3157  2.9532
  302MOL0     H40740   2.334   4.256  10.253  0.7846 -1.9904 -1.6693
  302MOL0     H40741   2.416   4.419  10.258 -1.0868  0.0744 -2.9512
  302MOL0     H40742   2.594   4.180  10.317  0.0636 -0.3940 -0.6702
  302MOL0     H40743   2.590   4.337  10.380  1.6972 -3.2690  2.1227
  302MOL0     H40744   2.390   4.262  10.514 -1.9463 -2.1499 -2.3823
  302MOL0     H40745   2.551   4.201  10.556 -1.1597 -0.4878  1.9048
  302MOL0     H40746   2.324   4.054  10.395  0.5618  1.2518 -3.5050
  302MOL0     H40747   2.493   3.991  10.427 -2.1477 -2.1527 -1.2178
  302MOL0     H40748   2.384   3.871  10.551 -0.0512  1.6860 -2.6690
  302MOL0     H40749   2.284   3.997  10.632  0.4795  0.7536  0.6867
  302MOL0     H40750   2.445   3.920  10.774  3.9282  0.3125  0.7071
  302MOL0     H40751   2.495   4.085  10.740  0.0419  0.3452 -1.7677
  302MOL0     H40752   2.746   4.117  10.059  0.5649 -0.0678 -0.0229
  302MOL0     H40753   2.962   4.016  10.052 -1.2447 -1.4313 -1.0271
  302MOL0     H40754   3.480   4.126   9.678 -0.5321 -1.9683 -1.2681
  302MOL0     H40755   3.694   4.021   9.680  3.3324 -0.3005  1.3754
  302MOL0     H40756   5.834   3.759   9.753 -1.2113 -0.7224  1.6880
  302MOL0     H40757   6.041   3.628   9.756  0.3442 -0.7211  1.1614
  302MOL0     H40758   6.225   3.233   9.636  0.2506 -1.2408 -1.2500
  302MOL0     H40759   6.442   3.128   9.598 -0.7527 -0.2462 -1.0425
  302MOL0     H40760   6.774   3.253   9.831  1.1084  0.4939  1.3640
  302MOL0     H40761   6.735   3.115   9.945 -0.3273  1.2896 -0.1843
  302MOL0     H40762   6.962   3.089   9.868  0.0009 -5.4624  2.0922
  302MOL0     H40763   6.917   3.092   9.699  2.4535 -1.4414 -0.1686
  302MOL0     H40764   6.761   2.900   9.740 -0.8995 -1.6658  0.8278
  302MOL0     H40765   6.803   2.892   9.917  1.1144  0.2796  0.9531
  302MOL0     H40766   6.998   2.786   9.872  0.3545  1.1839  0.5706
  302MOL0     H40767   7.009   2.860   9.704  0.8131  0.8021  1.1440
  302MOL0     H40768   6.833   2.520   9.561  2.7628 -2.0439  0.4784
  302MOL0     H40769   6.592   3.258   9.969  0.4995 -1.8694 -0.1298
  302MOL0     H40770   6.371   3.367  10.025 -0.1903 -2.6519  2.5660
  303MOL0     O40771   3.028  10.078   8.837 -0.1969  0.3921  0.0962
  303MOL0     C40772   3.076  10.089   8.946 -0.0946 -0.1212 -0.1764
  303MOL0     O40773   3.009  10.084   9.065  0.5748  0.1884 -0.0331
  303MOL0     C40774   2.876  10.062   9.062  0.6044  0.1324  0.8140
  303MOL0     C40775   2.821   9.947   8.991 -0.0353 -0.5736  0.4884
  303MOL0     C40776   2.683   9.920   9.000  0.1668 -0.9416  0.2375
  303MOL0     C40777   2.600  10.005   9.076  0.4367  0.4346  0.4084
  303MOL0     O40778   2.468   9.980   9.101  0.3359  0.3776  0.0471
  303MOL0     C40779   2.431   9.873   9.190 -0.1296 -0.5644  0.0809
  303MOL0     C40780   2.284   9.888   9.242  0.6528 -0.7519  0.1819
  303MOL0     C40781   2.183   9.802   9.156  0.4121 -0.9760 -0.7323
  303MOL0     C40782   2.036   9.836   9.207 -0.1739 -0.4839 -0.3286
  303MOL0     C40783   1.931   9.783   9.109 -0.4872 -0.0188 -0.5406
  303MOL0     C40784   1.899   9.637   9.144 -0.4011 -0.0783 -0.5346
  303MOL0     C40785   1.786   9.582   9.045 -0.5964 -0.3386 -0.2567
  303MOL0     C40786   1.743   9.429   9.079 -0.5240 -0.0894 -0.0722
  303MOL0     N40787   1.675   9.406   9.201  0.2688 -0.5752 -0.2005
  303MOL0     C40788   1.539   9.417   9.218 -1.1566  0.7300 -0.5399
  303MOL0     C40789   1.517   9.412   9.354 -1.0250  0.0038  0.0634
  303MOL0     C40790   1.392   9.397   9.423  0.1140 -0.4738 -0.3078
  303MOL0     C40791   1.345   9.535   9.480 -0.4400  0.0101 -0.0128
  303MOL0     C40792   1.258   9.518   9.599 -0.3976  0.4702 -0.4105
  303MOL0     C40793   1.133   9.439   9.583  1.1338  0.0956  0.2247
  303MOL0     O40794   1.046   9.472   9.468 -0.1461 -0.0709 -0.2003
  303MOL0     C40795   0.918   9.423   9.458 -0.3572  0.9951  0.4267
  303MOL0     C40796   0.844   9.467   9.345 -0.9161 -0.2858 -0.3290
  303MOL0     C40797   0.714   9.426   9.325 -0.1264  0.2563  0.2487
  303MOL0     C40798   0.650   9.474   9.195  0.6983  0.4496  0.8633
  303MOL0     C40799   0.656   9.326   9.410 -0.3534  0.2770  0.3523
  303MOL0     C40800   0.526   9.265   9.395  0.9920  0.5867 -0.2205
  303MOL0     O40801   0.450   9.247   9.508  0.1430  0.4003 -0.2647
  303MOL0     C40802   0.316   9.215   9.491  0.2320 -0.2067 -0.0574
  303MOL0     C40803   0.270   9.098   9.554 -0.6640 -0.0661  0.1446
  303MOL0     C40804   0.138   9.058   9.542  0.6963  0.2183 -0.0511
  303MOL0     C40805   0.047   9.128   9.452 -0.7755 -0.4526 -0.3186
  303MOL0     O40806  -0.062   9.067   9.405  0.4693  0.7825 -0.0003
  303MOL0     C40807  -0.181   9.063   9.496  0.5255  0.4434  0.3311
  303MOL0     C40808  -0.297   9.127   9.417 -0.4384 -0.3476  0.1783
  303MOL0     C40809  -0.429   9.152   9.490 -0.7278  0.3523 -0.1528
  303MOL0     C40810  -0.424   9.237   9.615  0.4458  0.2882  1.2449
  303MOL0     C40811  -0.564   9.248   9.678  1.8330 -1.1382  0.4108
  303MOL0     C40812  -0.589   9.367   9.775  0.2092 -0.0749  0.6080
  303MOL0     C40813  -0.627   9.494   9.708 -0.2005 -0.6099  0.3144
  303MOL0     C40814  -0.577   9.612   9.788  0.4156  0.2939 -0.2339
  303MOL0    Cl40815  -0.408   9.613   9.805  0.0053 -0.2552  0.4450
  303MOL0     C40816   0.088   9.253   9.401 -0.9188  0.4010  0.1451
  303MOL0     C40817   0.224   9.294   9.414 -0.6291 -0.1957  0.8019
  303MOL0     O40818   0.497   9.216   9.286  0.3545  0.9826 -0.2860
  303MOL0     C40819   0.737   9.274   9.512  0.4940  0.7761 -1.0334
  303MOL0     C40820   0.854   9.334   9.551 -0.5960 -0.4625 -0.6952
  303MOL0     N40821   1.643   9.390   9.417 -0.4640 -0.2816  0.4459
  303MOL0     N40822   1.737   9.395   9.319 -0.6339 -0.3091 -0.6250
  303MOL0     C40823   2.650  10.124   9.134 -0.0207  0.2216 -0.5234
  303MOL0     C40824   2.780  10.153   9.126 -0.0846  0.2528  0.0105
  303MOL0     C40825   3.227  10.105   8.945  0.2439  0.4033 -0.0666
  303MOL0     C40826   3.296  10.117   8.823 -0.0297 -0.6400  0.5380
  303MOL0     C40827   3.439  10.122   8.817 -0.7588 -1.2292  0.8999
  303MOL0     C40828   3.512  10.113   8.931  0.3720  0.6040  0.6057
  303MOL0     O40829   3.644  10.095   8.934 -0.9059 -0.3474 -0.3231
  303MOL0     C40830   3.723  10.088   8.817  0.0066  0.8019 -0.0514
  303MOL0     C40831   3.868  10.094   8.857  0.4281  0.2077 -0.0608
  303MOL0     C40832   3.957  10.087   8.726  0.4635 -0.0143 -0.7415
  303MOL0     C40833   4.101  10.059   8.757 -0.9125  0.5396 -0.2700
  303MOL0     C40834   4.189  10.092   8.638 -0.0945 -0.2068 -0.1642
  303MOL0     C40835   4.279  10.118   8.562  0.4313 -1.0309 -0.3643
  303MOL0     C40836   3.441  10.102   9.046 -0.0604 -0.7242  0.2634
  303MOL0     C40837   3.304  10.110   9.058 -0.4784  0.0401  0.3118
  303MOL0     H40838   2.887   9.884   8.933 -0.5433 -0.0697 -0.6731
  303MOL0     H40839   2.652   9.825   8.959 -2.9796 -0.3986  1.0913
  303MOL0     H40840   2.449   9.775   9.146  0.1693 -0.6709  0.4297
  303MOL0     H40841   2.501   9.876   9.274 -1.5881 -2.9438  1.5023
  303MOL0     H40842   2.281   9.864   9.349 -0.2073 -0.7589  0.1703
  303MOL0     H40843   2.247   9.990   9.232  1.0374 -0.4027  1.9214
  303MOL0     H40844   2.175   9.843   9.055  1.7708  2.5119  0.4105
  303MOL0     H40845   2.205   9.695   9.153  0.5654 -1.0210  0.9582
  303MOL0     H40846   2.031   9.787   9.305  0.7645 -1.3358 -0.6862
  303MOL0     H40847   2.015   9.943   9.214 -1.1302 -0.7014  0.3185
  303MOL0     H40848   1.843   9.848   9.111  0.5443  1.4397  1.4055
  303MOL0     H40849   1.964   9.782   9.005 -1.1099 -0.2898 -0.7379
  303MOL0     H40850   1.990   9.577   9.144  1.2736  2.1942  2.5606
  303MOL0     H40851   1.856   9.629   9.244 -0.5948 -0.8671 -0.6796
  303MOL0     H40852   1.702   9.651   9.058 -1.6749 -1.9371  2.0009
  303MOL0     H40853   1.833   9.595   8.947  0.1369 -2.1839 -0.1976
  303MOL0     H40854   1.839   9.377   9.079  0.6762  2.0169 -0.4596
  303MOL0     H40855   1.689   9.394   8.990 -2.5586  1.0749  0.6376
  303MOL0     H40856   1.463   9.432   9.143 -1.7219  1.8345  0.2320
  303MOL0     H40857   1.320   9.341   9.362 -0.0248 -1.2404  0.5338
  303MOL0     H40858   1.410   9.330   9.508  1.8859 -2.4174 -2.0820
  303MOL0     H40859   1.297   9.591   9.400  1.0262 -2.0790 -2.5018
  303MOL0     H40860   1.434   9.589   9.513 -0.5549 -0.4951  1.2011
  303MOL0     H40861   1.235   9.620   9.632  3.2287  1.8345 -1.5699
  303MOL0     H40862   1.315   9.468   9.678  0.0827 -0.9481 -1.6077
  303MOL0     H40863   1.079   9.458   9.676 -1.5855 -1.0677 -1.0242
  303MOL0     H40864   1.155   9.333   9.573 -0.6348 -0.2786  0.0531
  303MOL0     H40865   0.889   9.536   9.275 -0.2023 -1.7626 -1.3903
  303MOL0     H40866   0.556   9.523   9.221  1.3425  0.3428  3.7217
  303MOL0     H40867   0.716   9.540   9.137  0.7306 -0.9589 -0.7982
  303MOL0     H40868   0.614   9.400   9.123 -4.1691  3.6496 -0.4649
  303MOL0     H40869   0.338   9.034   9.609  0.2322  0.5637 -0.2128
  303MOL0     H40870   0.112   8.967   9.594 -0.4919  0.7804  0.3905
  303MOL0     H40871  -0.195   8.962   9.537  0.7289  0.2103 -0.1544
  303MOL0     H40872  -0.158   9.112   9.591  2.9519 -2.4737  1.4099
  303MOL0     H40873  -0.258   9.222   9.378 -1.0236 -0.9657 -2.0016
  303MOL0     H40874  -0.306   9.070   9.324  0.1350 -0.3848  0.1363
  303MOL0     H40875  -0.472   9.057   9.522  1.3417 -0.4325  0.4875
  303MOL0     H40876  -0.503   9.191   9.420 -2.1484  0.8920  1.5742
  303MOL0     H40877  -0.361   9.184   9.688 -0.2657 -0.4346  1.3436
  303MOL0     H40878  -0.387   9.337   9.591 -4.4049  1.7523 -1.4318
  303MOL0     H40879  -0.593   9.154   9.725 -4.0860  0.6129  1.1153
  303MOL0     H40880  -0.646   9.260   9.606  0.4264  3.0602  2.3515
  303MOL0     H40881  -0.669   9.343   9.846  1.4198 -0.6285  1.8473
  303MOL0     H40882  -0.500   9.372   9.839 -0.5643 -2.0949  1.9334
  303MOL0     H40883  -0.736   9.497   9.699 -0.0577  0.6691 -1.7376
  303MOL0     H40884  -0.583   9.488   9.608  0.2739  1.2507  0.3795
  303MOL0     H40885  -0.626   9.597   9.885  2.1003 -2.6703  0.2770
  303MOL0     H40886  -0.613   9.706   9.746 -3.0351  0.0945  1.8585
  303MOL0     H40887   0.011   9.302   9.343  0.2805 -0.0275 -1.9111
  303MOL0     H40888   0.255   9.383   9.360 -1.1297  0.6453  1.8608
  303MOL0     H40889   0.694   9.202   9.581 -1.6905  2.6297 -0.3407
  303MOL0     H40890   0.916   9.306   9.636  0.6864  1.6729 -0.8647
  303MOL0     H40891   2.591  10.199   9.184 -2.1180 -3.6471  3.4718
  303MOL0     H40892   2.810  10.253   9.157 -0.4466  1.0689 -2.1157
  303MOL0     H40893   3.242  10.128   8.730 -1.5752 -0.9100  1.3651
  303MOL0     H40894   3.486  10.119   8.719 -1.0156 -0.4431  0.7461
  303MOL0     H40895   3.702   9.997   8.760 -2.1881  0.1794  1.6259
  303MOL0     H40896   3.692  10.172   8.754 -2.1729  0.8022  0.9300
  303MOL0     H40897   3.890  10.016   8.930  1.3352 -0.4975 -1.0635
  303MOL0     H40898   3.888  10.189   8.908  2.2676  0.5631 -1.3407
  303MOL0     H40899   3.947  10.190   8.691 -0.8102  0.0798 -0.1827
  303MOL0     H40900   3.914  10.012   8.659  1.5409 -0.7677 -0.6191
  303MOL0     H40901   4.126   9.952   8.765  0.3333  0.9367  1.5731
  303MOL0     H40902   4.129  10.119   8.843  0.2503  0.3803 -0.5128
  303MOL0     H40903   4.362  10.149   8.502  0.7069  2.2215  1.5174
  303MOL0     H40904   3.505  10.111   9.133 -1.8658 -0.4384  1.6242
  303MOL0     H40905   3.247  10.117   9.150 -3.7070 -0.0310 -1.5594
  304MOL0     O40906  10.729   0.641   1.751 -0.2677 -0.1754 -0.2376
  304MOL0     C40907  10.758   0.760   1.737 -0.5201 -0.9995  0.6872
  304MOL0     O40908  10.694   0.846   1.658  0.1396  0.0873 -0.8358
  304MOL0     C40909  10.604   0.797   1.564 -0.3351 -0.2031 -0.2648
  304MOL0     C40910  10.629   0.689   1.475 -0.1730  0.5598  0.2013
  304MOL0     C40911  10.533   0.671   1.372  0.2887  0.6390 -0.7317
  304MOL0     C40912  10.405   0.723   1.369  0.4042  0.4255  0.7422
  304MOL0     O40913  10.305   0.695   1.280  0.0704 -0.0274  0.7851
  304MOL0     C40914  10.337   0.610   1.163 -0.1885 -0.3932 -0.3510
  304MOL0     C40915  10.208   0.577   1.097  0.1570  0.2716  0.1664
  304MOL0     C40916  10.131   0.691   1.031  0.4479  0.2216 -0.0092
  304MOL0     C40917  10.206   0.765   0.910 -0.0643 -0.2265  0.0958
  304MOL0     C40918  10.126   0.855   0.823  0.0506  0.1281  0.3163
  304MOL0     C40919  10.101   0.999   0.871 -0.3412 -0.5588 -0.2380
  304MOL0     C40920  10.029   1.086   0.762 -0.1449  0.0437 -0.7572
  304MOL0     C40921   9.884   1.038   0.735  0.0214 -0.7468  0.4649
  304MOL0     N40922   9.794   1.026   0.849  0.6943 -0.5591 -0.1989
  304MOL0     C40923   9.774   0.914   0.930  0.5834  0.4555  0.2920
  304MOL0     C40924   9.666   0.945   1.008 -0.0992 -0.1126 -0.0413
  304MOL0     C40925   9.601   0.848   1.105 -0.4057  0.0305  0.1304
  304MOL0     C40926   9.476   0.888   1.168  0.8768 -0.4033 -0.1166
  304MOL0     C40927   9.363   0.917   1.073 -0.1789 -0.8116  0.8887
  304MOL0     C40928   9.236   0.918   1.151 -0.0131  0.2480  0.1107
  304MOL0     O40929   9.125   0.939   1.056  0.1354 -0.2329 -0.2494
  304MOL0     C40930   9.014   1.024   1.076 -0.4752 -0.7313  1.1410
  304MOL0     C40931   8.943   1.050   0.960 -0.1686  0.2841 -0.6041
  304MOL0     C40932   8.830   1.132   0.961  0.5801  0.0147  1.0514
  304MOL0     C40933   8.751   1.145   0.831 -0.9038 -1.2104  0.3118
  304MOL0     C40934   8.801   1.206   1.078  0.2397  0.3408  0.6810
  304MOL0     C40935   8.709   1.324   1.073 -0.0737  0.1391  0.4104
  304MOL0     O40936   8.726   1.416   1.178  0.1853  0.2809  0.6713
  304MOL0     C40937   8.638   1.524   1.180  1.2050  0.9631 -0.2696
  304MOL0     C40938   8.680   1.650   1.149 -0.0981  1.1879 -0.2474
  304MOL0     C40939   8.592   1.753   1.156 -0.7205  0.3237 -0.0272
  304MOL0     C40940   8.461   1.734   1.204 -0.3945 -0.7104 -0.5318
  304MOL0     O40941   8.366   1.836   1.215  0.1090 -0.4732  0.5224
  304MOL0     C40942   8.412   1.971   1.195  0.7438  0.5279  0.2705
  304MOL0     C40943   8.306   2.056   1.263  0.5248  0.3915  0.0513
  304MOL0     C40944   8.169   2.023   1.207  0.3221  0.2815  0.1493
  304MOL0     C40945   8.066   2.142   1.182 -0.1481 -0.2006  0.8172
  304MOL0     C40946   8.111   2.231   1.068  0.6700  0.3316 -0.4843
  304MOL0     C40947   8.008   2.334   1.044 -0.2943 -0.8376  0.4380
  304MOL0     C40948   8.053   2.437   0.937  0.3814 -1.3821  0.7486
  304MOL0     C40949   8.167   2.524   0.987 -0.0152 -0.1381 -0.2178
  304MOL0    Cl40950   8.188   2.650   0.861  0.2459 -0.0984 -0.1590
  304MOL0     C40951   8.423   1.612   1.248 -0.0441 -0.4563  0.5649
  304MOL0     C40952   8.508   1.505   1.224 -0.4717  0.6121 -0.4612
  304MOL0     O40953   8.617   1.330   0.994  0.3404 -0.0861  0.3762
  304MOL0     C40954   8.872   1.167   1.190  0.2593  0.5412  0.4839
  304MOL0     C40955   8.981   1.087   1.189 -1.0988  0.0042  0.3681
  304MOL0     N40956   9.636   1.081   0.983  0.1415  0.0668  0.9330
  304MOL0     N40957   9.711   1.118   0.893 -0.4346 -0.3315  0.1810
  304MOL0     C40958  10.376   0.823   1.465 -0.7492 -0.1464 -0.1785
  304MOL0     C40959  10.483   0.857   1.555 -0.3270 -0.1225  0.0884
  304MOL0     C40960  10.862   0.835   1.812  0.0825  0.0369  0.4256
  304MOL0     C40961  10.914   0.958   1.779 -0.9201 -0.4708 -0.0202
  304MOL0     C40962  11.032   1.009   1.840  0.5697  0.5253 -0.6267
  304MOL0     C40963  11.091   0.935   1.946 -0.4626 -0.5697  0.2432
  304MOL0     O40964  11.177   1.001   2.022  0.1330  0.0912 -0.3386
  304MOL0     C40965  11.304   0.960   1.984  0.2415 -0.7384  0.3622
  304MOL0     C40966  11.407   1.019   2.078  0.1910  0.0887 -0.1564
  304MOL0     C40967  11.482   1.139   2.029  0.4471 -0.0906 -0.0137
  304MOL0     C40968  11.598   1.090   1.948 -0.3517  0.2542  0.2677
  304MOL0     C40969  11.662   1.195   1.871 -0.0611  0.4137  0.1935
  304MOL0     C40970  11.715   1.266   1.804 -0.5796 -0.4111 -0.2584
  304MOL0     C40971  11.039   0.812   1.980  0.3677  0.0931  1.4238
  304MOL0     C40972  10.920   0.767   1.923  0.2478 -0.3272  0.3541
  304MOL0     H40973  10.726   0.640   1.479 -0.4523 -0.2916 -2.0903
  304MOL0     H40974  10.547   0.590   1.300  0.9567  1.2522 -1.3187
  304MOL0     H40975  10.406   0.658   1.093  0.5645 -1.0183 -0.0520
  304MOL0     H40976  10.374   0.514   1.198 -1.9659 -1.7284 -1.9718
  304MOL0     H40977  10.216   0.509   1.011 -0.5336  1.5941 -0.9975
  304MOL0     H40978  10.157   0.518   1.174  1.0151 -0.8589 -0.1057
  304MOL0     H40979  10.050   0.650   0.970  0.7585  0.7631 -0.7994
  304MOL0     H40980  10.082   0.755   1.105  0.2372 -0.3548  0.3488
  304MOL0     H40981  10.284   0.831   0.949 -1.9571  1.3092  1.4793
  304MOL0     H40982  10.249   0.687   0.846  0.5873 -0.3091  0.6160
  304MOL0     H40983  10.170   0.863   0.723  0.2790 -1.5317  0.2511
  304MOL0     H40984  10.027   0.809   0.809 -1.1458  2.8845 -1.0777
  304MOL0     H40985  10.034   0.994   0.957 -1.1400 -2.5335 -0.9268
  304MOL0     H40986  10.195   1.048   0.899  0.0008 -1.4443  0.1975
  304MOL0     H40987  10.027   1.191   0.793  2.6317 -0.0775  0.1246
  304MOL0     H40988  10.084   1.082   0.668 -1.6601  1.2598 -1.7401
  304MOL0     H40989   9.890   0.943   0.680 -0.7570  1.2623 -3.4337
  304MOL0     H40990   9.834   1.100   0.660 -0.6584  0.9801  2.2667
  304MOL0     H40991   9.830   0.821   0.919  2.0450  1.3266 -0.0062
  304MOL0     H40992   9.594   0.750   1.058  1.4034  0.0528 -0.2562
  304MOL0     H40993   9.667   0.840   1.192 -1.6659  3.4108  1.6021
  304MOL0     H40994   9.494   0.971   1.237  1.0972 -1.8250  1.6151
  304MOL0     H40995   9.436   0.802   1.223  0.1275 -1.6262 -2.4325
  304MOL0     H40996   9.354   0.835   1.001  0.6190 -2.1930  2.2962
  304MOL0     H40997   9.377   1.012   1.020 -0.8361 -1.4295 -0.4391
  304MOL0     H40998   9.221   0.992   1.230 -1.2662 -0.1911  0.3176
  304MOL0     H40999   9.225   0.818   1.196  0.4636 -0.6012 -1.5919
  304MOL0     H41000   8.968   0.995   0.870  0.0159  2.5873 -2.0513
  304MOL0     H41001   8.652   1.101   0.844 -1.6340  0.0710 -0.7590
  304MOL0     H41002   8.739   1.250   0.802 -1.4675 -1.0015  1.2403
  304MOL0     H41003   8.802   1.083   0.757  1.9731  1.1803  0.1024
  304MOL0     H41004   8.787   1.666   1.137 -0.1000  0.0274 -2.5178
  304MOL0     H41005   8.618   1.854   1.127 -2.3099  0.9712  0.6310
  304MOL0     H41006   8.512   1.992   1.234  1.6668  0.5254 -1.9263
  304MOL0     H41007   8.411   1.989   1.087  1.6815 -1.7739 -0.1692
  304MOL0     H41008   8.313   2.044   1.371 -2.8816  2.2607  0.6148
  304MOL0     H41009   8.337   2.159   1.246 -0.9540  0.9201  0.4312
  304MOL0     H41010   8.116   1.955   1.274 -0.6309 -0.0718 -0.9271
  304MOL0     H41011   8.179   1.972   1.111  0.1908 -1.7799  1.1906
  304MOL0     H41012   7.970   2.095   1.159 -0.5864  0.6155  0.9201
  304MOL0     H41013   8.046   2.199   1.273 -0.4065 -0.2800  0.8096
  304MOL0     H41014   8.134   2.182   0.974  4.1608  0.0097  0.4082
  304MOL0     H41015   8.202   2.280   1.104  1.2273 -1.6412  0.9493
  304MOL0     H41016   7.919   2.289   1.000 -0.4698 -1.7845  1.7241
  304MOL0     H41017   7.988   2.389   1.137  2.0865  0.3830  0.3283
  304MOL0     H41018   7.975   2.504   0.898  1.4659 -1.9411 -2.6632
  304MOL0     H41019   8.078   2.371   0.854 -0.5508 -1.0673  0.1979
  304MOL0     H41020   8.261   2.469   0.992  2.5627  3.7528 -1.4781
  304MOL0     H41021   8.147   2.568   1.085  0.3397  0.7804 -0.5389
  304MOL0     H41022   8.332   1.590   1.303 -0.8418 -0.3621 -0.6796
  304MOL0     H41023   8.484   1.408   1.267 -0.1908  0.4644 -0.6365
  304MOL0     H41024   8.853   1.222   1.282  2.8725  2.3222  0.0374
  304MOL0     H41025   9.025   1.069   1.287  1.6950  1.1727 -0.5823
  304MOL0     H41026  10.283   0.879   1.467 -0.4302  0.4097  2.9451
  304MOL0     H41027  10.473   0.931   1.634  1.2482 -1.5132  1.6813
  304MOL0     H41028  10.858   1.022   1.711 -1.8379 -1.2496 -0.0061
  304MOL0     H41029  11.068   1.109   1.818  1.5889  0.6142  1.2130
  304MOL0     H41030  11.304   0.851   1.988 -1.6166 -0.8063 -0.4526
  304MOL0     H41031  11.322   0.987   1.879  0.8029  2.2075  1.1111
  304MOL0     H41032  11.480   0.943   2.108  0.7610  1.2304  1.5303
  304MOL0     H41033  11.348   1.044   2.167 -1.3039 -0.9914 -0.8047
  304MOL0     H41034  11.516   1.198   2.115 -0.1149  1.9953 -1.1468
  304MOL0     H41035  11.417   1.211   1.979 -0.9387 -1.3563 -0.0843
  304MOL0     H41036  11.568   1.003   1.890  0.6298  0.7292 -0.9936
  304MOL0     H41037  11.675   1.057   2.018  1.2717 -0.9488 -1.9811
  304MOL0     H41038  11.765   1.339   1.744  1.2135 -2.2651 -1.1758
  304MOL0     H41039  11.086   0.768   2.068  1.5220 -0.8991  0.3450
  304MOL0     H41040  10.886   0.672   1.964 -2.5947  0.4752  0.0420
  305MOL0     O41041   0.028  10.686   4.290  0.5486  0.1273 -0.5223
  305MOL0     C41042   0.041  10.584   4.357 -0.8635 -0.9864 -0.5901
  305MOL0     O41043  -0.051  10.491   4.391 -0.6939 -0.1883  0.2145
  305MOL0     C41044  -0.183  10.504   4.361 -0.6111  0.0524 -0.6016
  305MOL0     C41045  -0.251  10.629   4.367 -0.6490  0.3690  0.2543
  305MOL0     C41046  -0.386  10.631   4.334 -0.9850  0.0212  0.3090
  305MOL0     C41047  -0.458  10.515   4.306  0.5782 -0.9135  0.3891
  305MOL0     O41048  -0.587  10.540   4.267  0.3063 -0.6398  0.4416
  305MOL0     C41049  -0.660  10.438   4.196  0.4593 -0.2499 -0.0966
  305MOL0     C41050  -0.805  10.479   4.159 -0.1747 -0.5730 -0.1594
  305MOL0     C41051  -0.890  10.361   4.120  0.3123 -0.4408 -0.1472
  305MOL0     C41052  -1.035  10.406   4.114 -0.7986  0.0304 -0.1192
  305MOL0     C41053  -1.130  10.290   4.078 -0.6508  0.0038  0.2244
  305MOL0     C41054  -1.274  10.330   4.112  0.3247  1.3757 -0.0839
  305MOL0     C41055  -1.367  10.254   4.023  0.1857 -0.3627  0.7093
  305MOL0     C41056  -1.348  10.103   4.035  0.4433  1.0080 -0.6576
  305MOL0     N41057  -1.467  10.025   3.995  0.5552 -0.0193 -0.3449
  305MOL0     C41058  -1.581  10.016   4.075  1.0711  0.1857  0.0179
  305MOL0     C41059  -1.674   9.952   3.997 -0.2333 -0.7568  0.0935
  305MOL0     C41060  -1.826   9.951   4.025 -0.8655  0.1582 -0.3956
  305MOL0     C41061  -1.905   9.859   3.932  0.4428  0.4438 -0.9829
  305MOL0     C41062  -2.006   9.771   4.009  0.2206  0.3718  0.0744
  305MOL0     C41063  -2.088   9.686   3.916 -0.1472  0.1447  0.5322
  305MOL0     O41064  -2.214   9.649   3.971  0.2216  0.5127  0.0396
  305MOL0     C41065  -2.317   9.624   3.884  0.4221 -0.4350 -1.5118
  305MOL0     C41066  -2.296   9.599   3.749 -0.1820 -0.0841 -0.0810
  305MOL0     C41067  -2.401   9.595   3.656  0.5216  0.1449 -1.0390
  305MOL0     C41068  -2.367   9.566   3.510 -0.8789  0.0876 -0.2807
  305MOL0     C41069  -2.536   9.606   3.704 -0.1808 -0.0181 -0.5257
  305MOL0     C41070  -2.656   9.587   3.624 -0.5495 -0.4995 -0.2552
  305MOL0     O41071  -2.649   9.530   3.503 -0.1336  0.7342 -0.0157
  305MOL0     C41072  -2.765   9.527   3.420 -0.2522 -0.8012 -0.6277
  305MOL0     C41073  -2.761   9.603   3.305  0.3081 -0.5867  0.5224
  305MOL0     C41074  -2.880   9.580   3.219 -0.1543  0.0463 -0.2555
  305MOL0     C41075  -2.979   9.483   3.249 -0.0429  0.5307 -0.1834
  305MOL0     O41076  -3.078   9.452   3.158  0.7219  0.4269 -0.1226
  305MOL0     C41077  -3.205   9.504   3.195 -0.4930  0.6987  0.8332
  305MOL0     C41078  -3.323   9.464   3.105  1.0687  0.8941  0.0789
  305MOL0     C41079  -3.334   9.314   3.089  0.7692  0.2198  0.0858
  305MOL0     C41080  -3.429   9.280   2.967 -0.5829 -0.1313  0.5097
  305MOL0     C41081  -3.395   9.135   2.921 -0.4304  0.9490 -0.4729
  305MOL0     C41082  -3.471   9.096   2.788  0.2867  0.0556  0.8707
  305MOL0     C41083  -3.439   8.946   2.760 -0.1299 -0.2764  0.4656
  305MOL0     C41084  -3.539   8.879   2.676  0.5522  0.5390 -0.0707
  305MOL0    Cl41085  -3.607   8.993   2.552  0.1397 -0.0655  0.6052
  305MOL0     C41086  -2.977   9.412   3.369  0.5377  0.4076  0.5125
  305MOL0     C41087  -2.867   9.436   3.453  0.2975  0.6204  0.0429
  305MOL0     O41088  -2.760   9.632   3.674  0.0659  0.3351  0.9767
  305MOL0     C41089  -2.549   9.619   3.846  0.6964 -0.0733 -0.2071
  305MOL0     C41090  -2.447   9.634   3.933  0.5672 -0.0235 -0.7318
  305MOL0     N41091  -1.606   9.911   3.885 -0.0274  0.5068 -0.5888
  305MOL0     N41092  -1.479   9.958   3.879 -0.0887  0.4885 -0.4324
  305MOL0     C41093  -0.393  10.389   4.307  0.6128 -0.0993  0.1928
  305MOL0     C41094  -0.252  10.387   4.326 -0.0986  1.1106  0.5431
  305MOL0     C41095   0.179  10.542   4.372 -0.3155 -0.5210 -0.5844
  305MOL0     C41096   0.284  10.631   4.401 -0.2991 -0.1174 -0.4508
  305MOL0     C41097   0.409  10.590   4.428 -0.0160 -0.3030  0.2030
  305MOL0     C41098   0.443  10.458   4.409 -0.0624  0.0240 -0.3353
  305MOL0     O41099   0.576  10.403   4.433 -0.3220  0.0401  0.5316
  305MOL0     C41100   0.692  10.480   4.447 -0.8376  0.0012 -0.7313
  305MOL0     C41101   0.815  10.389   4.439 -0.6051 -0.4958  0.2505
  305MOL0     C41102   0.948  10.468   4.422  0.0705 -0.3375 -0.0350
  305MOL0     C41103   1.067  10.367   4.426  0.1607  0.1566 -1.0695
  305MOL0     C41104   1.197  10.431   4.432  0.0296 -0.0995  0.1923
  305MOL0     C41105   1.301  10.495   4.455 -0.6483 -0.1750  0.0297
  305MOL0     C41106   0.353  10.369   4.371 -0.1696 -0.4021  0.3842
  305MOL0     C41107   0.220  10.410   4.355 -0.3068 -1.3774  0.6912
  305MOL0     H41108  -0.200  10.723   4.384 -0.8436  0.8202 -1.4798
  305MOL0     H41109  -0.437  10.726   4.321 -0.9568  0.2302  1.6004
  305MOL0     H41110  -0.605  10.391   4.114 -0.3296 -0.8098 -0.3122
  305MOL0     H41111  -0.666  10.358   4.270 -1.0653  0.5643  0.7006
  305MOL0     H41112  -0.839  10.522   4.254 -0.2899  0.5137 -0.6788
  305MOL0     H41113  -0.808  10.553   4.079  2.1179 -1.6566 -1.3423
  305MOL0     H41114  -0.861  10.313   4.026  1.0936  0.8354 -0.5809
  305MOL0     H41115  -0.886  10.290   4.203 -1.0341  1.9788  2.1454
  305MOL0     H41116  -1.065  10.451   4.209  0.9189  0.5015  0.2416
  305MOL0     H41117  -1.047  10.485   4.039 -0.3492  0.2064 -0.0070
  305MOL0     H41118  -1.122  10.272   3.971  1.2261  2.7348 -0.2078
  305MOL0     H41119  -1.108  10.204   4.142  1.0631  0.3085  0.1075
  305MOL0     H41120  -1.291  10.308   4.218  1.5756 -0.9899 -0.3080
  305MOL0     H41121  -1.284  10.437   4.094 -1.0040  1.2911  0.1153
  305MOL0     H41122  -1.466  10.279   4.064  0.5532  3.7527 -0.4962
  305MOL0     H41123  -1.361  10.287   3.919  0.3842  2.3587  1.5156
  305MOL0     H41124  -1.337  10.084   4.142 -0.5974  2.2489 -0.3066
  305MOL0     H41125  -1.260  10.058   3.987 -0.4407  0.9672 -2.3362
  305MOL0     H41126  -1.600  10.085   4.157  0.4639  0.6261 -0.4772
  305MOL0     H41127  -1.836   9.922   4.130 -1.5718  1.5493 -0.0626
  305MOL0     H41128  -1.867  10.052   4.022  0.7165  0.8285 -3.5943
  305MOL0     H41129  -1.841   9.797   3.870 -1.1461  0.0649 -2.3237
  305MOL0     H41130  -1.958   9.921   3.859 -1.3910 -1.4383 -1.3500
  305MOL0     H41131  -2.068   9.844   4.061  3.3233  2.1746  1.4934
  305MOL0     H41132  -1.968   9.700   4.083  0.6724 -1.2127 -1.6062
  305MOL0     H41133  -2.028   9.598   3.890 -0.6379  0.2722 -1.0997
  305MOL0     H41134  -2.105   9.744   3.825 -0.5352 -0.0425  0.4827
  305MOL0     H41135  -2.197   9.566   3.718  0.3200  0.3305  1.0374
  305MOL0     H41136  -2.406   9.469   3.477  2.3134 -1.5964  0.4909
  305MOL0     H41137  -2.414   9.640   3.445 -0.1667  0.9045  0.1199
  305MOL0     H41138  -2.260   9.558   3.490 -0.5028  1.6443  0.8878
  305MOL0     H41139  -2.679   9.666   3.272  0.6856 -0.8309  0.9889
  305MOL0     H41140  -2.881   9.645   3.132  0.8145  0.2807 -0.0970
  305MOL0     H41141  -3.230   9.483   3.300  0.3079  1.4488  1.1897
  305MOL0     H41142  -3.198   9.614   3.196 -0.7985  0.7240  2.2044
  305MOL0     H41143  -3.418   9.488   3.152 -1.1584 -2.7641 -2.0820
  305MOL0     H41144  -3.306   9.509   3.007 -1.4636 -1.5511 -1.6635
  305MOL0     H41145  -3.361   9.269   3.184 -0.8020  0.6193 -0.1478
  305MOL0     H41146  -3.236   9.266   3.085  0.1022 -1.1245 -2.1406
  305MOL0     H41147  -3.532   9.299   2.997 -0.3731  0.8165  0.6360
  305MOL0     H41148  -3.401   9.349   2.888  2.8350  1.6729  3.0037
  305MOL0     H41149  -3.434   9.075   3.004 -2.6067  0.2164 -1.9388
  305MOL0     H41150  -3.287   9.122   2.907 -0.6172  0.7107 -1.8689
  305MOL0     H41151  -3.580   9.101   2.793 -0.2627 -1.7408 -4.0988
  305MOL0     H41152  -3.452   9.160   2.701  0.4062 -3.2745 -1.7557
  305MOL0     H41153  -3.435   8.894   2.856 -1.9692  2.1086  1.9361
  305MOL0     H41154  -3.348   8.946   2.699 -0.3887  0.4694  0.0556
  305MOL0     H41155  -3.620   8.846   2.741  0.0805  1.0485 -0.3844
  305MOL0     H41156  -3.490   8.793   2.630 -0.8397 -1.6200  2.2447
  305MOL0     H41157  -3.058   9.342   3.388 -0.5907  0.3007 -3.6596
  305MOL0     H41158  -2.862   9.392   3.552  0.5540 -0.2039 -0.3361
  305MOL0     H41159  -2.648   9.625   3.892  1.3807 -0.6464  1.4001
  305MOL0     H41160  -2.477   9.640   4.038  0.6563 -1.1577 -0.6345
  305MOL0     H41161  -0.444  10.298   4.277  0.5647  0.9165 -3.2420
  305MOL0     H41162  -0.182  10.305   4.324  0.7801  1.6703  3.5062
  305MOL0     H41163   0.264  10.731   4.436 -1.1190 -0.4963  0.1932
  305MOL0     H41164   0.478  10.660   4.474  2.5809 -2.0524 -0.8051
  305MOL0     H41165   0.712  10.553   4.368  0.5867 -0.0119 -0.4107
  305MOL0     H41166   0.690  10.527   4.546 -1.0048  0.3756 -0.9091
  305MOL0     H41167   0.796  10.333   4.346 -2.0601  1.2015 -0.5200
  305MOL0     H41168   0.809  10.326   4.528 -1.6591 -0.2081  0.3824
  305MOL0     H41169   0.962  10.547   4.496 -0.8348 -0.4853  0.3091
  305MOL0     H41170   0.951  10.512   4.322 -1.1728 -0.8404 -0.3131
  305MOL0     H41171   1.059  10.299   4.341 -1.2929  0.5752 -1.2831
  305MOL0     H41172   1.063  10.310   4.519  1.6150  1.6916  0.0121
  305MOL0     H41173   1.390  10.554   4.470  0.6711 -2.0148 -0.2971
  305MOL0     H41174   0.392  10.271   4.347  2.6862  1.1479 -2.1165
  305MOL0     H41175   0.150  10.333   4.324  1.9844 -2.3469 -2.5806
  306MOL0     O41176   1.593   0.867   0.577  0.5568 -0.3159 -0.0785
  306MOL0     C41177   1.639   0.934   0.485 -0.4926  0.4145  0.5323
  306MOL0     O41178   1.580   1.039   0.425  0.4508 -0.5921  0.5322
  306MOL0     C41179   1.459   1.109   0.473 -0.6817  0.0057  0.2653
  306MOL0     C41180   1.410   1.215   0.396 -1.1036  0.9137  0.6180
  306MOL0     C41181   1.293   1.284   0.420  0.0312  0.1152 -0.2754
  306MOL0     C41182   1.228   1.273   0.543 -2.0330 -0.0606 -0.1422
  306MOL0     O41183   1.116   1.338   0.579 -0.1703 -0.1172  0.1736
  306MOL0     C41184   1.087   1.444   0.500  0.9527 -0.6377 -0.7190
  306MOL0     C41185   0.964   1.509   0.565 -1.0240  0.2349  0.7141
  306MOL0     C41186   0.912   1.626   0.477  0.0428  0.5531 -0.1860
  306MOL0     C41187   0.850   1.592   0.335  0.6711  0.7474 -0.5936
  306MOL0     C41188   0.730   1.490   0.342  0.4671 -0.1468  0.7999
  306MOL0     C41189   0.602   1.541   0.415  0.0304  0.3455  0.1013
  306MOL0     C41190   0.564   1.689   0.388  0.9373 -0.4868  1.3908
  306MOL0     C41191   0.539   1.717   0.231  0.1807  0.2956  0.2328
  306MOL0     N41192   0.400   1.670   0.194 -0.1268  0.4767  0.1953
  306MOL0     C41193   0.286   1.733   0.246  0.3838 -0.1390 -0.9507
  306MOL0     C41194   0.180   1.655   0.229  0.6326 -0.0307  0.3410
  306MOL0     C41195   0.033   1.670   0.271 -0.2977  0.6347 -0.1190
  306MOL0     C41196  -0.012   1.569   0.371  0.5220  0.3965 -0.3818
  306MOL0     C41197   0.075   1.577   0.498  0.3780  0.6526 -0.8329
  306MOL0     C41198   0.103   1.711   0.565  0.5121 -0.3315  0.3236
  306MOL0     O41199  -0.020   1.795   0.568  0.2046 -0.0619 -0.0942
  306MOL0     C41200  -0.127   1.756   0.646  0.6969 -0.6407 -0.3323
  306MOL0     C41201  -0.126   1.680   0.766 -0.2080 -0.6064  0.2112
  306MOL0     C41202  -0.238   1.648   0.838  0.0838 -0.4869  0.1874
  306MOL0     C41203  -0.209   1.577   0.974  0.8493  0.2767 -0.1075
  306MOL0     C41204  -0.361   1.688   0.789  0.1802 -0.6332  0.3909
  306MOL0     C41205  -0.497   1.656   0.848 -0.0405 -0.5781 -0.1981
  306MOL0     O41206  -0.500   1.584   0.963 -0.2174  0.7089 -0.2248
  306MOL0     C41207  -0.617   1.578   1.043 -0.2853  0.1448 -0.5141
  306MOL0     C41208  -0.648   1.457   1.097 -0.2158 -0.5799  0.9081
  306MOL0     C41209  -0.742   1.439   1.198 -0.3683  1.1833 -0.4941
  306MOL0     C41210  -0.817   1.556   1.234  0.0447 -0.2964  0.0024
  306MOL0     O41211  -0.896   1.552   1.343  0.6297  0.1648  0.9185
  306MOL0     C41212  -1.034   1.600   1.333 -0.4308  1.3872  0.8644
  306MOL0     C41213  -1.076   1.681   1.453  0.1054 -0.1495 -0.3039
  306MOL0     C41214  -1.221   1.655   1.500 -0.3646  0.2707 -0.4002
  306MOL0     C41215  -1.336   1.666   1.397  0.6821  0.5160 -0.3657
  306MOL0     C41216  -1.476   1.658   1.468 -0.2689 -0.8145  0.8767
  306MOL0     C41217  -1.502   1.516   1.520 -0.3051  0.2320  0.9351
  306MOL0     C41218  -1.621   1.513   1.605  0.3991  0.5115  0.2354
  306MOL0     C41219  -1.662   1.368   1.657 -0.4114 -0.8121  0.2971
  306MOL0    Cl41220  -1.717   1.253   1.530  0.1006 -0.0892  0.0670
  306MOL0     C41221  -0.805   1.680   1.165 -0.2155  0.7595 -0.9499
  306MOL0     C41222  -0.694   1.694   1.080  0.5915  0.4173  0.4585
  306MOL0     O41223  -0.596   1.696   0.782 -0.5955  0.5253  0.3049
  306MOL0     C41224  -0.363   1.768   0.667 -0.3247 -0.1791  0.1152
  306MOL0     C41225  -0.241   1.804   0.601 -0.5904  0.4223 -0.1697
  306MOL0     N41226   0.229   1.534   0.190 -0.2194 -0.0037  0.5117
  306MOL0     N41227   0.363   1.543   0.169 -0.3595 -0.7136  0.1945
  306MOL0     C41228   1.285   1.171   0.623 -0.7024 -1.1982  0.1487
  306MOL0     C41229   1.396   1.090   0.594 -0.6190  0.2095 -0.1100
  306MOL0     C41230   1.759   0.871   0.444  0.5131  0.7833  0.2263
  306MOL0     C41231   1.810   0.760   0.513 -1.3997  0.7893 -0.4323
  306MOL0     C41232   1.931   0.702   0.459  0.6650 -0.0911 -0.0874
  306MOL0     C41233   1.997   0.754   0.345  0.5562 -0.1408 -0.1334
  306MOL0     O41234   2.112   0.703   0.285 -0.4375 -0.1455  0.0019
  306MOL0     C41235   2.209   0.631   0.365 -0.5599  0.4987  0.0716
  306MOL0     C41236   2.339   0.614   0.294  0.0122 -0.7111 -0.0585
  306MOL0     C41237   2.429   0.561   0.400  0.1277 -0.4222  0.1305
  306MOL0     C41238   2.568   0.538   0.350 -0.1185  0.8804 -0.3998
  306MOL0     C41239   2.661   0.647   0.368  0.6350 -0.3321  0.6041
  306MOL0     C41240   2.732   0.733   0.386 -0.7896  0.2553  0.8560
  306MOL0     C41241   1.939   0.863   0.284 -0.9353  0.0621  1.1263
  306MOL0     C41242   1.829   0.932   0.335 -0.1334  0.0667 -0.4015
  306MOL0     H41243   1.461   1.238   0.303  1.0373  0.0580  1.5135
  306MOL0     H41244   1.272   1.363   0.349 -1.9244  2.9546  3.1087
  306MOL0     H41245   1.172   1.510   0.520  1.2260 -1.3366  0.5619
  306MOL0     H41246   1.064   1.416   0.397  0.7822 -2.5381 -0.2014
  306MOL0     H41247   0.890   1.431   0.587  0.2968 -1.1753  0.3752
  306MOL0     H41248   0.999   1.547   0.661  1.6301  0.5840 -0.3186
  306MOL0     H41249   0.829   1.675   0.528 -2.8013 -3.3037 -0.6868
  306MOL0     H41250   0.988   1.704   0.463 -0.6189  1.3099  0.3703
  306MOL0     H41251   0.824   1.687   0.287  1.1591  0.0103 -2.4127
  306MOL0     H41252   0.923   1.547   0.267 -0.1552 -0.0590 -0.9707
  306MOL0     H41253   0.706   1.468   0.238  1.8910 -0.4557  0.5253
  306MOL0     H41254   0.763   1.397   0.388 -2.5167 -0.9061  1.6434
  306MOL0     H41255   0.523   1.468   0.397 -0.4066  0.9376 -0.4409
  306MOL0     H41256   0.614   1.536   0.524  0.7290 -0.5085 -0.0024
  306MOL0     H41257   0.474   1.715   0.445 -0.3513 -1.6365 -0.0359
  306MOL0     H41258   0.640   1.758   0.425 -2.1545  2.3146  3.0550
  306MOL0     H41259   0.618   1.673   0.169  0.3783  1.0024 -0.0271
  306MOL0     H41260   0.538   1.823   0.206 -3.1568  1.2400  3.4531
  306MOL0     H41261   0.276   1.836   0.277  3.0190  0.8966 -3.1562
  306MOL0     H41262   0.023   1.774   0.303  2.0418  1.7103 -2.4830
  306MOL0     H41263  -0.023   1.660   0.177 -1.3458  0.0547  0.5503
  306MOL0     H41264   0.001   1.470   0.326  1.7530  0.0201  0.7438
  306MOL0     H41265  -0.119   1.584   0.388 -0.1626 -0.6136 -3.1432
  306MOL0     H41266   0.169   1.523   0.483  0.7926  0.8871  0.7945
  306MOL0     H41267   0.028   1.512   0.573  1.4482 -0.7434 -1.3222
  306MOL0     H41268   0.183   1.755   0.506 -0.1337 -2.1227 -2.0768
  306MOL0     H41269   0.134   1.710   0.670 -1.0777  1.7678  0.8796
  306MOL0     H41270  -0.028   1.645   0.799  0.1305 -1.5833 -1.7315
  306MOL0     H41271  -0.248   1.623   1.065 -0.1531  0.2735 -0.5222
  306MOL0     H41272  -0.248   1.475   0.970 -2.6996  1.5273 -1.4266
  306MOL0     H41273  -0.102   1.565   0.990  0.1070 -5.0447  3.3102
  306MOL0     H41274  -0.588   1.375   1.060  0.4490  0.3293 -0.1009
  306MOL0     H41275  -0.761   1.350   1.257 -1.7691  0.1502 -2.3964
  306MOL0     H41276  -1.045   1.659   1.242  2.2750 -0.3058 -0.6796
  306MOL0     H41277  -1.092   1.509   1.317 -0.1269  1.2727  0.3807
  306MOL0     H41278  -1.004   1.670   1.534  0.2682  1.7442 -0.1568
  306MOL0     H41279  -1.079   1.787   1.427 -0.4801  0.2299  1.1806
  306MOL0     H41280  -1.240   1.714   1.590 -2.0144  1.7614 -1.6443
  306MOL0     H41281  -1.206   1.551   1.531 -1.5811  0.3803  0.6384
  306MOL0     H41282  -1.328   1.763   1.347 -1.0637  0.5712 -0.5765
  306MOL0     H41283  -1.330   1.587   1.322  2.0786 -2.2564  2.4065
  306MOL0     H41284  -1.562   1.678   1.404  1.7850  0.3802 -1.7306
  306MOL0     H41285  -1.487   1.733   1.547  0.3620 -0.9194  1.0683
  306MOL0     H41286  -1.507   1.442   1.439  1.2257  0.2139  0.8358
  306MOL0     H41287  -1.415   1.476   1.572  0.2051 -0.3714 -0.3218
  306MOL0     H41288  -1.700   1.567   1.552  0.7273  0.9088  0.1497
  306MOL0     H41289  -1.592   1.572   1.692 -1.8406  4.0127 -1.1681
  306MOL0     H41290  -1.739   1.387   1.731  0.8544 -0.4411  1.5651
  306MOL0     H41291  -1.570   1.327   1.701  0.0185  1.0279  1.2191
  306MOL0     H41292  -0.852   1.769   1.205 -0.6393 -0.3579  1.2241
  306MOL0     H41293  -0.680   1.793   1.038 -2.6116 -0.3906 -3.1008
  306MOL0     H41294  -0.455   1.808   0.625  1.1574  2.8240 -0.5090
  306MOL0     H41295  -0.260   1.868   0.515 -2.5705 -0.4188 -0.4090
  306MOL0     H41296   1.229   1.168   0.715 -1.4077  1.2489 -0.1120
  306MOL0     H41297   1.433   1.016   0.664 -2.3181 -0.7584 -0.1825
  306MOL0     H41298   1.772   0.699   0.595 -0.7566  0.7571 -0.1447
  306MOL0     H41299   1.967   0.610   0.502 -1.9392 -1.2054 -0.1265
  306MOL0     H41300   2.212   0.672   0.467  1.2453 -0.4559  0.4504
  306MOL0     H41301   2.166   0.531   0.374  1.5053 -0.5075 -0.5970
  306MOL0     H41302   2.383   0.701   0.244  0.6773 -1.0913 -0.1476
  306MOL0     H41303   2.328   0.538   0.215 -0.3872 -3.0672  2.1253
  306MOL0     H41304   2.392   0.461   0.427 -0.2236 -0.3984 -0.2438
  306MOL0     H41305   2.436   0.627   0.487  0.5044 -1.5407  0.9708
  306MOL0     H41306   2.555   0.495   0.250  0.3968  1.3018 -0.6547
  306MOL0     H41307   2.617   0.457   0.404  2.0300  2.8001  0.6808
  306MOL0     H41308   2.782   0.828   0.392  1.7532 -1.0701  2.2741
  306MOL0     H41309   1.984   0.892   0.190 -2.7072 -0.5720  0.0285
  306MOL0     H41310   1.796   1.022   0.285  3.1025  1.0087 -1.0388
  307MOL0     O41311   7.702   4.157   4.117  0.1232 -0.2139  0.3172
  307MOL0     C41312   7.702   4.133   4.243 -0.2766  0.0794  0.4273
  307MOL0     O41313   7.645   4.023   4.301 -0.4756 -0.2657  0.0255
  307MOL0     C41314   7.581   3.941   4.216 -0.4511  0.6127  0.5423
  307MOL0     C41315   7.651   3.876   4.109 -0.8201  0.2491 -0.1169
  307MOL0     C41316   7.590   3.783   4.024 -0.4868 -0.9121  0.4188
  307MOL0     C41317   7.454   3.754   4.033 -0.6003  0.8105  0.7426
  307MOL0     O41318   7.390   3.666   3.956  0.0376  0.8957 -1.0649
  307MOL0     C41319   7.456   3.550   3.906  0.3619  0.3736  0.3627
  307MOL0     C41320   7.353   3.465   3.842 -0.5152 -0.5281  0.1295
  307MOL0     C41321   7.296   3.366   3.949 -0.2250 -0.3912  0.6182
  307MOL0     C41322   7.177   3.285   3.895  0.2381  0.4935  0.1708
  307MOL0     C41323   7.138   3.164   3.975  0.3160 -0.2702 -0.4185
  307MOL0     C41324   7.109   3.205   4.126 -0.5069 -0.4198  0.9576
  307MOL0     C41325   7.082   3.079   4.207  0.1008  0.0780  0.3739
  307MOL0     C41326   7.045   3.116   4.349  0.1670  0.4247  0.3469
  307MOL0     N41327   7.028   3.002   4.436  0.6123 -0.0110  0.4994
  307MOL0     C41328   6.914   2.936   4.467 -0.7001  0.5436  0.2375
  307MOL0     C41329   6.954   2.835   4.554 -0.5786  0.2724 -0.0327
  307MOL0     C41330   6.865   2.729   4.604  0.2566  0.1656  0.8540
  307MOL0     C41331   6.835   2.756   4.749  0.3326 -0.0685 -0.6852
  307MOL0     C41332   6.771   2.892   4.777  0.6370 -0.7393  0.1813
  307MOL0     C41333   6.739   2.908   4.922 -0.2824  0.3643  0.5080
  307MOL0     O41334   6.662   3.035   4.936  0.3749  0.5740 -0.4799
  307MOL0     C41335   6.532   3.053   4.886 -0.2687 -0.0951 -0.0221
  307MOL0     C41336   6.487   3.183   4.893 -0.1655  0.1040  1.0023
  307MOL0     C41337   6.355   3.211   4.869  0.8061 -0.2036  0.7842
  307MOL0     C41338   6.318   3.358   4.875  0.5946 -0.3165  0.4578
  307MOL0     C41339   6.260   3.113   4.818 -0.3796 -0.1259 -0.1540
  307MOL0     C41340   6.119   3.135   4.779 -0.3542  0.1597 -0.7778
  307MOL0     O41341   6.052   3.033   4.710  0.5287  0.1293 -0.2414
  307MOL0     C41342   5.933   3.063   4.653 -0.3210 -0.0029  0.7473
  307MOL0     C41343   5.820   3.035   4.729  0.6725 -0.0334  0.1169
  307MOL0     C41344   5.702   3.050   4.674  0.1705 -0.0222  0.2411
  307MOL0     C41345   5.684   3.115   4.546 -0.0422  0.1171 -0.2140
  307MOL0     O41346   5.565   3.151   4.483  0.3676 -0.8193  0.5835
  307MOL0     C41347   5.454   3.115   4.560 -0.1652 -0.1429 -0.0208
  307MOL0     C41348   5.326   3.188   4.517 -0.4194  0.0101 -0.5075
  307MOL0     C41349   5.195   3.132   4.578 -0.4815 -1.1340 -0.4432
  307MOL0     C41350   5.069   3.218   4.525 -0.2870  0.3098  0.3367
  307MOL0     C41351   4.945   3.151   4.597 -0.3910 -0.1065  0.0287
  307MOL0     C41352   4.824   3.160   4.508 -1.0032  0.1945 -0.6514
  307MOL0     C41353   4.710   3.064   4.548  0.4910 -0.6261 -0.5136
  307MOL0     C41354   4.595   3.056   4.442  0.0500  0.4919 -0.2818
  307MOL0    Cl41355   4.509   3.205   4.433  0.4203 -0.4801 -0.0282
  307MOL0     C41356   5.801   3.143   4.470 -0.9503  0.3004  0.2620
  307MOL0     C41357   5.937   3.116   4.524  0.1894 -0.0612 -0.5393
  307MOL0     O41358   6.064   3.244   4.806 -0.2544  0.9437 -0.2924
  307MOL0     C41359   6.316   2.988   4.793 -0.7412 -0.0473  0.4805
  307MOL0     C41360   6.448   2.954   4.831  0.1232  0.0668  0.5559
  307MOL0     N41361   7.092   2.849   4.573 -0.5608 -0.0977  0.1482
  307MOL0     N41362   7.131   2.946   4.500  0.2949  0.8500 -0.2266
  307MOL0     C41363   7.381   3.837   4.109  1.6893 -0.2812 -0.6143
  307MOL0     C41364   7.442   3.923   4.212 -0.4330 -0.7904 -0.1081
  307MOL0     C41365   7.809   4.206   4.311  0.5443  0.0566  0.2548
  307MOL0     C41366   7.899   4.281   4.240 -0.6916 -0.2337  0.4188
  307MOL0     C41367   8.020   4.331   4.300 -0.1952 -0.2461 -0.0234
  307MOL0     C41368   8.040   4.315   4.442 -0.1756 -0.0891 -0.4854
  307MOL0     O41369   8.157   4.379   4.500  0.4712 -0.1729 -0.1900
  307MOL0     C41370   8.166   4.367   4.635 -1.4937  0.1704 -0.3849
  307MOL0     C41371   8.289   4.443   4.701 -0.1230 -0.6433  1.0437
  307MOL0     C41372   8.312   4.389   4.847 -0.0128 -0.2106  0.3211
  307MOL0     C41373   8.462   4.333   4.851  1.2775  0.2175  0.2947
  307MOL0     C41374   8.482   4.302   4.988 -0.2502  0.5430 -0.2087
  307MOL0     C41375   8.487   4.269   5.106 -0.2678  0.0854 -0.1514
  307MOL0     C41376   7.935   4.249   4.516 -0.1072  0.2239  0.7953
  307MOL0     C41377   7.831   4.190   4.447  0.1881 -0.4499  0.2281
  307MOL0     H41378   7.759   3.886   4.105 -0.6527  0.7740  2.9232
  307MOL0     H41379   7.657   3.723   3.963  2.2883  1.1065  1.2714
  307MOL0     H41380   7.531   3.576   3.830  1.0602 -0.5067  0.7324
  307MOL0     H41381   7.517   3.500   3.981  0.2526  0.1307  0.2894
  307MOL0     H41382   7.274   3.530   3.802  0.2774  0.0969 -0.4723
  307MOL0     H41383   7.403   3.425   3.754  0.4312  0.4137  0.2097
  307MOL0     H41384   7.368   3.289   3.979  0.1018 -1.3317 -2.2888
  307MOL0     H41385   7.275   3.417   4.043 -0.2033 -0.5962  0.7348
  307MOL0     H41386   7.096   3.359   3.893 -1.4428 -1.2683 -2.3298
  307MOL0     H41387   7.196   3.262   3.790 -1.2889  3.2960 -0.8304
  307MOL0     H41388   7.057   3.109   3.927 -0.4784  0.3952  0.1132
  307MOL0     H41389   7.224   3.097   3.979 -0.4922 -1.2845  1.1865
  307MOL0     H41390   7.193   3.255   4.176 -0.2331  1.6837 -1.3870
  307MOL0     H41391   7.023   3.272   4.131  1.4543  2.2632  0.8787
  307MOL0     H41392   7.005   3.014   4.163 -0.1487  0.5893  0.0509
  307MOL0     H41393   7.175   3.021   4.204  0.0952 -0.1096  2.4933
  307MOL0     H41394   6.944   3.155   4.336 -2.3394 -5.2170  0.0225
  307MOL0     H41395   7.116   3.189   4.391  0.2536  0.1486  0.6842
  307MOL0     H41396   6.811   2.960   4.443 -1.5790 -0.5741  2.5741
  307MOL0     H41397   6.778   2.713   4.540  0.6366 -0.0037  0.3797
  307MOL0     H41398   6.927   2.639   4.607  3.3458  2.1531  0.6559
  307MOL0     H41399   6.932   2.751   4.798  0.4679  2.4765 -0.5754
  307MOL0     H41400   6.768   2.673   4.776 -0.8749  0.7419 -1.1182
  307MOL0     H41401   6.686   2.905   4.710  2.8584  0.3870 -2.6177
  307MOL0     H41402   6.839   2.970   4.743  0.9248 -0.8184  0.5646
  307MOL0     H41403   6.829   2.926   4.982  0.0160 -0.7115  0.4048
  307MOL0     H41404   6.674   2.825   4.953 -2.1187  1.0400 -1.3057
  307MOL0     H41405   6.562   3.259   4.913  2.0908 -1.8389  0.4791
  307MOL0     H41406   6.401   3.418   4.913 -2.3011  2.5482  2.8010
  307MOL0     H41407   6.293   3.405   4.779  0.4820  1.6077  1.3992
  307MOL0     H41408   6.232   3.370   4.941  0.2007 -0.9041  0.0686
  307MOL0     H41409   5.841   2.987   4.824 -0.9435 -0.6747  0.1662
  307MOL0     H41410   5.616   3.030   4.737  1.5538 -1.5463  1.7662
  307MOL0     H41411   5.432   3.009   4.543 -0.6076  0.0066 -0.4050
  307MOL0     H41412   5.461   3.127   4.668 -2.1052 -0.3931  0.1607
  307MOL0     H41413   5.329   3.294   4.545 -1.0135 -0.4350  1.3753
  307MOL0     H41414   5.311   3.195   4.408 -4.5448  0.8643 -0.0328
  307MOL0     H41415   5.191   3.146   4.687 -3.0170  1.1666 -0.7327
  307MOL0     H41416   5.178   3.032   4.539 -3.2213 -1.8919  2.3150
  307MOL0     H41417   5.084   3.323   4.553  0.6760  0.1052  0.6259
  307MOL0     H41418   5.064   3.207   4.416 -2.4189 -3.5804  0.6693
  307MOL0     H41419   4.936   3.212   4.687  0.4217  0.7286 -0.4333
  307MOL0     H41420   4.958   3.047   4.628 -0.3849  0.6526  2.8442
  307MOL0     H41421   4.798   3.266   4.511  0.7618  0.6397  0.0714
  307MOL0     H41422   4.855   3.127   4.408 -0.0076  0.7047 -0.5282
  307MOL0     H41423   4.672   3.099   4.644 -0.2283  1.3413 -1.4715
  307MOL0     H41424   4.751   2.962   4.551 -3.7778 -2.5060  0.3984
  307MOL0     H41425   4.521   2.978   4.464 -0.8679  1.8032  1.5030
  307MOL0     H41426   4.639   3.042   4.343  0.0226  0.7795 -0.3361
  307MOL0     H41427   5.793   3.181   4.369  2.2381 -2.9227 -1.4452
  307MOL0     H41428   6.032   3.127   4.474  1.1404  0.6388  1.2996
  307MOL0     H41429   6.246   2.920   4.746  0.2435 -0.9400  0.2476
  307MOL0     H41430   6.480   2.851   4.815  1.1081  0.5059 -0.4966
  307MOL0     H41431   7.273   3.828   4.113  1.7704 -1.1729  2.5492
  307MOL0     H41432   7.373   3.979   4.274  1.8179 -0.5782  2.4285
  307MOL0     H41433   7.888   4.290   4.132 -3.5439 -0.8472  0.5699
  307MOL0     H41434   8.085   4.393   4.240 -0.5327  0.1135 -0.0230
  307MOL0     H41435   8.074   4.403   4.683 -0.5780 -1.8977  3.2909
  307MOL0     H41436   8.182   4.262   4.660 -0.6169  0.6309  1.0902
  307MOL0     H41437   8.263   4.549   4.713 -1.3003 -0.5728 -1.4308
  307MOL0     H41438   8.381   4.440   4.642  0.2500  3.6595  1.0767
  307MOL0     H41439   8.247   4.304   4.869  0.0563 -0.4054 -0.2086
  307MOL0     H41440   8.300   4.467   4.923  1.3803 -0.8513  1.2274
  307MOL0     H41441   8.536   4.402   4.810  2.4309 -0.4867  1.1317
  307MOL0     H41442   8.463   4.243   4.789  2.2200  1.3203 -1.3578
  307MOL0     H41443   8.488   4.231   5.206 -0.3564 -2.1731 -0.9346
  307MOL0     H41444   7.941   4.219   4.621  1.1863  1.4725  1.1193
  307MOL0     H41445   7.761   4.141   4.514 -0.7725 -2.6736 -2.2157
  308MOL0     O41446   8.003   0.244   0.531  1.0969 -0.1105 -0.4712
  308MOL0     C41447   8.077   0.176   0.469 -0.2699 -0.3675  0.2488
  308MOL0     O41448   8.045   0.095   0.367  0.4895  0.8253  0.0373
  308MOL0     C41449   7.917   0.106   0.322 -0.3207 -0.1634  0.3071
  308MOL0     C41450   7.833  -0.006   0.319  0.1958 -0.3116  0.0390
  308MOL0     C41451   7.705  -0.001   0.262  0.4788  0.1341  0.6952
  308MOL0     C41452   7.649   0.116   0.213 -0.1662  0.1416 -0.0715
  308MOL0     O41453   7.522   0.103   0.164 -0.1461 -0.7005  0.2081
  308MOL0     C41454   7.453   0.229   0.133  0.1964  0.0079  0.0619
  308MOL0     C41455   7.306   0.198   0.097  0.2505 -0.3548 -0.8654
  308MOL0     C41456   7.239   0.341   0.063 -0.4265  0.5366  1.1732
  308MOL0     C41457   7.090   0.325   0.048  0.8155  0.5674 -0.0825
  308MOL0     C41458   7.012   0.421  -0.034 -0.1490  0.3383 -0.2479
  308MOL0     C41459   6.983   0.555   0.036  0.1562  0.3843 -0.3512
  308MOL0     C41460   6.884   0.649  -0.041  1.1866 -0.4765  0.2034
  308MOL0     C41461   6.899   0.795   0.014  0.2162 -0.3090  0.0065
  308MOL0     N41462   6.823   0.892  -0.057  0.3453 -0.5797 -0.8662
  308MOL0     C41463   6.841   0.922  -0.195  1.0093 -0.0967  0.1435
  308MOL0     C41464   6.750   1.016  -0.231 -0.6644 -0.3928  0.5171
  308MOL0     C41465   6.742   1.087  -0.363  0.8989  0.5063  0.0999
  308MOL0     C41466   6.590   1.104  -0.411 -0.5022 -1.7248  0.9362
  308MOL0     C41467   6.587   1.155  -0.558  0.1690  0.2863  0.7437
  308MOL0     C41468   6.615   1.298  -0.563  0.1673 -1.0189 -0.4072
  308MOL0     O41469   6.573   1.365  -0.686 -0.1896 -0.2835 -1.0887
  308MOL0     C41470   6.647   1.349  -0.804 -0.7134  0.7790  0.2220
  308MOL0     C41471   6.578   1.371  -0.917 -0.0988 -0.7229 -0.5781
  308MOL0     C41472   6.638   1.367  -1.043  0.0832 -0.5785  0.2972
  308MOL0     C41473   6.555   1.415  -1.161 -0.7449  0.2572 -0.8559
  308MOL0     C41474   6.773   1.333  -1.057 -0.0692  0.3700  0.1429
  308MOL0     C41475   6.855   1.331  -1.179  0.3497  0.4581 -0.7597
  308MOL0     O41476   6.835   1.442  -1.260  0.1226 -0.0839  1.1591
  308MOL0     C41477   6.918   1.458  -1.370  0.0935 -0.4210  0.5347
  308MOL0     C41478   7.040   1.508  -1.351 -0.6716 -1.0730 -0.0737
  308MOL0     C41479   7.130   1.522  -1.459 -0.3699 -0.9603 -0.3895
  308MOL0     C41480   7.098   1.491  -1.584 -0.1117  0.0550  0.1489
  308MOL0     O41481   7.165   1.515  -1.700 -0.3511 -0.2222 -0.4383
  308MOL0     C41482   7.308   1.493  -1.698 -0.4323 -0.2043  0.1874
  308MOL0     C41483   7.345   1.345  -1.701  0.0973  0.5525 -0.4409
  308MOL0     C41484   7.299   1.271  -1.823  0.7189 -0.0586 -0.5235
  308MOL0     C41485   7.339   1.124  -1.810  0.3067  0.2434  0.1262
  308MOL0     C41486   7.311   1.047  -1.930  0.4351  0.5396 -0.2731
  308MOL0     C41487   7.332   0.895  -1.911  0.1065  0.6092  0.6526
  308MOL0     C41488   7.319   0.827  -2.051 -0.5012 -0.6650  0.0691
  308MOL0     C41489   7.168   0.783  -2.072  0.1032 -1.2633  0.2949
  308MOL0    Cl41490   7.090   0.671  -1.947  0.2908 -0.0474  0.2035
  308MOL0     C41491   6.972   1.439  -1.597 -0.4298  0.7410  0.2061
  308MOL0     C41492   6.883   1.421  -1.496  0.9150  0.1615  0.3029
  308MOL0     O41493   6.925   1.234  -1.196 -0.0890  0.2764 -1.0125
  308MOL0     C41494   6.844   1.305  -0.933  0.5517  0.3434 -0.1131
  308MOL0     C41495   6.781   1.311  -0.811  0.5057  0.1989  0.1949
  308MOL0     N41496   6.675   1.043  -0.112  0.0521  0.1294  0.6968
  308MOL0     N41497   6.716   0.971  -0.015  0.4442  0.3041 -0.7627
  308MOL0     C41498   7.731   0.233   0.221  0.1646  0.0104 -0.2500
  308MOL0     C41499   7.865   0.222   0.264  1.1201  0.3074  0.2262
  308MOL0     C41500   8.221   0.186   0.503  0.2370 -0.2055  0.6592
  308MOL0     C41501   8.311   0.115   0.428  1.0750 -0.3356  0.1838
  308MOL0     C41502   8.448   0.117   0.460 -0.5326 -0.0772 -0.1453
  308MOL0     C41503   8.499   0.178   0.573 -0.0759 -0.0161 -0.1041
  308MOL0     O41504   8.627   0.166   0.605 -0.3798 -0.0388  0.2075
  308MOL0     C41505   8.687   0.036   0.629  0.0553  0.5432 -0.3507
  308MOL0     C41506   8.816   0.076   0.698 -0.4013  0.0432  0.8047
  308MOL0     C41507   8.899   0.176   0.615  0.1782 -1.1373 -0.2302
  308MOL0     C41508   9.039   0.173   0.670 -0.3786  0.4860 -1.0206
  308MOL0     C41509   9.130   0.056   0.649  0.5664  0.6875 -0.2145
  308MOL0     C41510   9.205  -0.035   0.634 -0.3562 -0.4802 -0.4531
  308MOL0     C41511   8.408   0.248   0.655 -0.6109 -0.0677  1.7015
  308MOL0     C41512   8.269   0.251   0.615 -0.1560 -0.1386 -0.3912
  308MOL0     H41513   7.879  -0.097   0.356 -0.3107 -1.3642 -1.7876
  308MOL0     H41514   7.646  -0.091   0.246  1.0777  0.0061 -1.0961
  308MOL0     H41515   7.462   0.299   0.217 -1.3485  0.0720  0.2007
  308MOL0     H41516   7.502   0.267   0.043  0.7685 -2.1844 -0.6163
  308MOL0     H41517   7.301   0.137   0.006 -1.0795 -0.7386 -0.5584
  308MOL0     H41518   7.247   0.143   0.172  2.0163  0.6183  1.3198
  308MOL0     H41519   7.268   0.418   0.135  0.2123 -0.3831  1.9267
  308MOL0     H41520   7.296   0.373  -0.025  3.0426 -0.1294  2.9919
  308MOL0     H41521   7.070   0.224   0.010 -0.3393  1.0865 -0.8916
  308MOL0     H41522   7.043   0.312   0.145  1.1570 -0.2619 -0.0183
  308MOL0     H41523   7.077   0.437  -0.121  0.5386  0.4422  0.2771
  308MOL0     H41524   6.919   0.366  -0.055  0.9772 -1.9806  0.5158
  308MOL0     H41525   6.937   0.531   0.132  2.1681 -3.5898 -0.1721
  308MOL0     H41526   7.082   0.600   0.051  1.4848 -1.9317 -1.4279
  308MOL0     H41527   6.909   0.644  -0.147  0.3967  1.6175 -0.1154
  308MOL0     H41528   6.783   0.611  -0.025 -0.1046  2.8404  0.6742
  308MOL0     H41529   7.005   0.821   0.009 -0.2523  1.6143 -0.8281
  308MOL0     H41530   6.874   0.793   0.121  0.7189  1.6060  0.2027
  308MOL0     H41531   6.909   0.862  -0.255  0.9845  0.8533 -0.8662
  308MOL0     H41532   6.786   1.186  -0.351  0.5569  0.4968  1.5645
  308MOL0     H41533   6.798   1.029  -0.438  0.5870 -0.8035  0.8442
  308MOL0     H41534   6.532   1.159  -0.337 -0.4712 -0.6727  0.2016
  308MOL0     H41535   6.551   1.001  -0.410 -2.7620 -0.9810 -0.8416
  308MOL0     H41536   6.483   1.150  -0.589  0.1080 -2.3309  1.1667
  308MOL0     H41537   6.650   1.100  -0.628 -0.1141  1.3414 -0.3837
  308MOL0     H41538   6.721   1.320  -0.548 -0.0378 -0.2681  0.0483
  308MOL0     H41539   6.560   1.349  -0.482 -2.3798 -2.8014 -0.9053
  308MOL0     H41540   6.470   1.384  -0.914 -0.1120  0.0734 -2.6795
  308MOL0     H41541   6.572   1.336  -1.235 -1.1974  0.2804 -0.9910
  308MOL0     H41542   6.448   1.404  -1.138 -0.5754  1.7855  0.8222
  308MOL0     H41543   6.569   1.515  -1.203  2.2017 -0.0645 -0.8687
  308MOL0     H41544   7.063   1.526  -1.247  0.1408  1.7460 -0.6645
  308MOL0     H41545   7.229   1.560  -1.435 -2.1650  3.2319  1.4764
  308MOL0     H41546   7.358   1.544  -1.781  1.0257  0.4392  1.4307
  308MOL0     H41547   7.340   1.545  -1.607 -3.0034 -0.5415  1.3745
  308MOL0     H41548   7.454   1.349  -1.690 -0.0263  0.6996  0.8889
  308MOL0     H41549   7.315   1.289  -1.611 -0.2951  1.4923  0.0211
  308MOL0     H41550   7.353   1.316  -1.907 -0.1953  1.4681 -0.3246
  308MOL0     H41551   7.191   1.282  -1.834  0.9564  1.0084 -2.0110
  308MOL0     H41552   7.447   1.109  -1.801  0.3203 -1.4164 -1.9108
  308MOL0     H41553   7.293   1.070  -1.727 -1.8375  0.0240 -1.1381
  308MOL0     H41554   7.374   1.080  -2.013  0.3232 -2.3874 -1.6348
  308MOL0     H41555   7.206   1.067  -1.955  0.4895  1.2045  0.0040
  308MOL0     H41556   7.433   0.875  -1.875  0.3514  3.1515  1.5420
  308MOL0     H41557   7.256   0.857  -1.841  1.2820  0.7940  2.0907
  308MOL0     H41558   7.389   0.744  -2.050 -0.5069 -0.6843 -0.6935
  308MOL0     H41559   7.350   0.894  -2.132  0.4593 -0.1097  0.8677
  308MOL0     H41560   7.147   0.736  -2.169 -0.0232 -0.4142 -0.1015
  308MOL0     H41561   7.113   0.877  -2.079 -0.5439 -1.7318 -1.8860
  308MOL0     H41562   6.925   1.421  -1.694  0.1481 -0.1142  0.0774
  308MOL0     H41563   6.778   1.395  -1.500  0.2352  2.5577  0.6534
  308MOL0     H41564   6.950   1.280  -0.932  0.7160  0.9426 -1.2481
  308MOL0     H41565   6.849   1.280  -0.732 -0.2550 -2.6935 -0.1699
  308MOL0     H41566   7.698   0.334   0.198  1.2783  0.3021 -0.6234
  308MOL0     H41567   7.913   0.314   0.296  0.8095  0.4055  0.4170
  308MOL0     H41568   8.270   0.064   0.341 -0.3626  2.2371 -0.7728
  308MOL0     H41569   8.511   0.052   0.400  1.7175  1.0627  0.8657
  308MOL0     H41570   8.625  -0.018   0.701  1.6481  2.5184  2.6899
  308MOL0     H41571   8.695  -0.021   0.536 -1.8140 -0.5137  0.0804
  308MOL0     H41572   8.879  -0.009   0.727  0.4841  1.1108  2.1864
  308MOL0     H41573   8.787   0.108   0.799 -1.2174  1.5986  0.1171
  308MOL0     H41574   8.854   0.275   0.624 -0.0530 -1.3908  1.8636
  308MOL0     H41575   8.903   0.144   0.510  2.5748 -3.1517  0.3684
  308MOL0     H41576   9.035   0.172   0.779  1.1803  0.0370 -0.9436
  308MOL0     H41577   9.093   0.264   0.645  1.4772  0.5034  2.4413
  308MOL0     H41578   9.285  -0.103   0.613 -1.5948 -1.8754 -0.8461
  308MOL0     H41579   8.445   0.317   0.730  3.4093  3.3975 -2.8126
  308MOL0     H41580   8.194   0.308   0.669  3.9608  4.1584  1.5152
  309MOL0     O41581  10.922  10.980  10.911  0.1138 -0.7010 -0.2303
  309MOL0     C41582  10.885  10.877  10.863  0.1702 -0.1261 -0.1480
  309MOL0     O41583  10.757  10.845  10.828 -0.3425  0.4028 -0.1570
  309MOL0     C41584  10.649  10.929  10.852  0.6834  0.2303 -0.5090
  309MOL0     C41585  10.529  10.860  10.873 -1.2439 -0.0883  0.7945
  309MOL0     C41586  10.411  10.919  10.906 -0.0594  0.0338 -0.4956
  309MOL0     C41587  10.398  11.057  10.908  0.2739 -0.6747  0.0374
  309MOL0     O41588  10.272  11.112  10.922  0.5362 -0.2276 -0.8195
  309MOL0     C41589  10.256  11.230  11.007  0.6277 -0.4965  0.1914
  309MOL0     C41590  10.104  11.273  11.002 -0.1458  0.4708  0.5591
  309MOL0     C41591  10.078  11.396  11.094  0.3199 -0.3957 -0.0701
  309MOL0     C41592   9.933  11.442  11.077 -0.3072  0.1626 -0.1202
  309MOL0     C41593   9.905  11.536  10.957  1.1397 -0.1340  0.0748
  309MOL0     C41594   9.763  11.591  10.950 -0.8570  0.2408 -0.7337
  309MOL0     C41595   9.659  11.492  10.905  0.6881 -0.3807  0.3556
  309MOL0     C41596   9.529  11.566  10.859 -0.4941  1.3001  0.1340
  309MOL0     N41597   9.488  11.667  10.951  0.0216 -1.0690  0.1794
  309MOL0     C41598   9.447  11.647  11.080 -0.3461  0.2134 -0.0457
  309MOL0     C41599   9.438  11.769  11.136  0.0227  1.2656 -0.1466
  309MOL0     C41600   9.394  11.803  11.273 -0.6300 -0.1746  0.2709
  309MOL0     C41601   9.263  11.866  11.259 -0.1122 -0.2411 -0.3311
  309MOL0     C41602   9.148  11.796  11.191 -0.0497  0.1667 -0.2666
  309MOL0     C41603   9.097  11.662  11.256  0.4315  0.6311  0.2219
  309MOL0     O41604   9.089  11.673  11.400  0.5900 -0.4781 -0.7657
  309MOL0     C41605   8.989  11.752  11.457  0.3969  0.0489 -0.2606
  309MOL0     C41606   8.892  11.828  11.394  0.4036 -0.1535 -0.2404
  309MOL0     C41607   8.798  11.915  11.460 -0.8695 -0.1876 -0.6019
  309MOL0     C41608   8.701  11.990  11.373  0.4063 -0.6588 -1.0755
  309MOL0     C41609   8.792  11.908  11.598 -1.1002 -0.2471  1.1460
  309MOL0     C41610   8.699  11.995  11.674  0.1463 -0.7051  0.6072
  309MOL0     O41611   8.599  12.055  11.602  0.8230 -0.1110 -0.3735
  309MOL0     C41612   8.477  12.098  11.663 -0.2433 -0.3644  0.5043
  309MOL0     C41613   8.434  12.066  11.794  0.1830 -0.6526 -0.4076
  309MOL0     C41614   8.313  12.111  11.849 -0.3601  0.1334 -0.4782
  309MOL0     C41615   8.231  12.192  11.763  0.1012  0.4333 -0.0748
  309MOL0     O41616   8.106  12.241  11.787  0.2169  0.6106 -0.1931
  309MOL0     C41617   8.063  12.263  11.926  0.4691  0.1313  0.0366
  309MOL0     C41618   7.933  12.344  11.944 -0.0016 -0.2667 -0.0104
  309MOL0     C41619   7.836  12.343  11.821  0.3994  0.1748  0.5031
  309MOL0     C41620   7.707  12.425  11.862  0.4501  0.3231 -0.2670
  309MOL0     C41621   7.733  12.574  11.900  0.2807  0.7293  0.4407
  309MOL0     C41622   7.599  12.644  11.911 -0.0332 -0.3243  0.9273
  309MOL0     C41623   7.618  12.806  11.920  0.4058  0.1952 -0.6436
  309MOL0     C41624   7.472  12.884  11.929 -0.0410 -0.1702 -0.7796
  309MOL0    Cl41625   7.410  12.897  12.095  0.0810  0.1292 -0.0510
  309MOL0     C41626   8.271  12.219  11.637  0.3733  0.1032  0.6438
  309MOL0     C41627   8.399  12.180  11.591  0.5612 -0.3123 -0.3208
  309MOL0     O41628   8.717  12.004  11.796 -0.1751 -0.3284 -0.1814
  309MOL0     C41629   8.877  11.815  11.663  0.3483 -0.0778  1.0100
  309MOL0     C41630   8.977  11.742  11.595 -0.8994  0.2926  0.3085
  309MOL0     N41631   9.459  11.860  11.036  0.1841  0.1853  0.0803
  309MOL0     N41632   9.494  11.801  10.926  0.7576 -0.4209  0.3117
  309MOL0     C41633  10.517  11.139  10.889  0.9962  0.1096 -0.4414
  309MOL0     C41634  10.643  11.070  10.868 -0.6848 -0.1643 -0.2140
  309MOL0     C41635  10.992  10.777  10.839  0.0782 -0.2262  0.0492
  309MOL0     C41636  10.963  10.640  10.812 -0.5311 -0.8232  0.1945
  309MOL0     C41637  11.064  10.547  10.795 -0.1753 -0.5645  0.3478
  309MOL0     C41638  11.204  10.573  10.800 -0.0139  0.5979 -0.5233
  309MOL0     O41639  11.314  10.495  10.787  0.2898 -0.1706  0.2763
  309MOL0     C41640  11.302  10.359  10.756  0.9279  0.3765 -0.0245
  309MOL0     C41641  11.382  10.273  10.856  0.3600  0.0394  0.7949
  309MOL0     C41642  11.339  10.300  11.002  0.4118 -0.6825 -0.8396
  309MOL0     C41643  11.436  10.220  11.097 -0.2249 -0.7945 -0.4220
  309MOL0     C41644  11.412  10.079  11.114  0.1871  0.2979 -0.3709
  309MOL0     C41645  11.420   9.961  11.147  0.3369  0.7093  0.7609
  309MOL0     C41646  11.221  10.710  10.819 -0.6772 -0.3651  0.0554
  309MOL0     C41647  11.127  10.812  10.838  0.7469 -0.7553 -0.4427
  309MOL0     H41648  10.534  10.753  10.852  0.4781 -0.1228  1.2217
  309MOL0     H41649  10.321  10.860  10.924 -0.4601  0.1361 -2.0442
  309MOL0     H41650  10.274  11.209  11.112  0.2732  0.0824  0.3722
  309MOL0     H41651  10.322  11.312  10.976  0.6419 -2.1824 -5.3835
  309MOL0     H41652  10.093  11.304  10.897  2.7440 -0.9334 -0.2819
  309MOL0     H41653  10.039  11.188  11.024 -1.4689  1.5651  0.9631
  309MOL0     H41654  10.108  11.393  11.199  1.6577  1.1523 -0.3545
  309MOL0     H41655  10.147  11.471  11.055  1.7860 -1.3575  0.5703
  309MOL0     H41656   9.867  11.355  11.075  1.4930 -1.2525 -0.1155
  309MOL0     H41657   9.903  11.488  11.172  1.2589  0.4234  0.2739
  309MOL0     H41658   9.979  11.617  10.949 -0.5940  1.4618 -0.5562
  309MOL0     H41659   9.915  11.476  10.866  2.0056 -2.4667  1.6088
  309MOL0     H41660   9.745  11.638  11.046 -3.0960 -2.3100  0.2091
  309MOL0     H41661   9.764  11.671  10.875 -0.0492 -0.1946 -1.2070
  309MOL0     H41662   9.700  11.439  10.819 -0.8872  0.1356 -0.7760
  309MOL0     H41663   9.639  11.418  10.983  2.6107 -1.4834 -0.1450
  309MOL0     H41664   9.448  11.494  10.845  1.9659 -1.7011  0.2614
  309MOL0     H41665   9.563  11.599  10.761 -0.7557 -1.7930 -1.1269
  309MOL0     H41666   9.429  11.551  11.128  4.1535 -0.7384  0.2168
  309MOL0     H41667   9.381  11.719  11.341  0.6728  0.4942  1.4008
  309MOL0     H41668   9.465  11.877  11.311 -1.1818  0.1878  0.6173
  309MOL0     H41669   9.275  11.959  11.203  2.1705  0.4575  1.1950
  309MOL0     H41670   9.236  11.892  11.362 -3.1609  2.3382 -1.6030
  309MOL0     H41671   9.171  11.766  11.089 -0.5578 -2.9919  0.4624
  309MOL0     H41672   9.062  11.864  11.185  0.3910  0.7089 -0.5303
  309MOL0     H41673   9.167  11.582  11.231  0.4874  0.6536  0.3038
  309MOL0     H41674   9.001  11.641  11.209 -0.0047  0.3309  1.2227
  309MOL0     H41675   8.893  11.829  11.285  1.6667  0.7480 -0.2346
  309MOL0     H41676   8.596  11.969  11.393 -0.2392  1.5620 -1.8589
  309MOL0     H41677   8.718  12.097  11.383 -2.1245 -0.3021  0.2449
  309MOL0     H41678   8.719  11.967  11.268 -2.6608  0.3802 -1.9294
  309MOL0     H41679   8.479  11.993  11.861 -0.6169 -0.8432 -0.0638
  309MOL0     H41680   8.291  12.086  11.952 -0.3708 -3.4362 -1.2396
  309MOL0     H41681   8.049  12.166  11.975 -1.6197  0.2301 -0.2989
  309MOL0     H41682   8.133  12.328  11.979 -0.6002  1.0530  0.3330
  309MOL0     H41683   7.879  12.298  12.027 -2.1192 -0.4071 -1.3958
  309MOL0     H41684   7.964  12.445  11.974 -0.8315  0.2984 -0.9938
  309MOL0     H41685   7.806  12.240  11.800  0.3451  0.1541  0.6805
  309MOL0     H41686   7.891  12.384  11.736 -2.0559 -0.5065 -1.5231
  309MOL0     H41687   7.635  12.418  11.780 -2.1579 -0.5090  1.9377
  309MOL0     H41688   7.659  12.382  11.950  2.3879 -0.0147  0.6717
  309MOL0     H41689   7.788  12.625  11.821 -0.2830  4.2783  2.1362
  309MOL0     H41690   7.781  12.575  11.999 -0.1730 -0.0953  0.6816
  309MOL0     H41691   7.537  12.614  11.826 -1.1538 -0.9668  1.9463
  309MOL0     H41692   7.546  12.608  11.999  0.5405  2.0621  2.3387
  309MOL0     H41693   7.667  12.842  11.830 -1.1427  2.3774 -0.6704
  309MOL0     H41694   7.672  12.824  12.014 -1.8680  0.9884  0.5731
  309MOL0     H41695   7.407  12.823  11.865 -1.3666  1.7295 -1.3191
  309MOL0     H41696   7.475  12.985  11.888 -1.1220  0.6323  1.0047
  309MOL0     H41697   8.212  12.282  11.571  1.6207  1.7904  1.0704
  309MOL0     H41698   8.430  12.206  11.491  0.4676 -0.7951 -0.4820
  309MOL0     H41699   8.849  11.780  11.761 -1.4678 -1.3817  0.0943
  309MOL0     H41700   9.042  11.677  11.652  2.4907  0.6164 -2.7755
  309MOL0     H41701  10.509  11.247  10.884  2.5094  0.3073  0.6591
  309MOL0     H41702  10.734  11.126  10.848 -1.1668  0.8221  0.2854
  309MOL0     H41703  10.859  10.610  10.805 -0.7379 -0.0043 -0.4003
  309MOL0     H41704  11.033  10.450  10.757 -1.4722  0.6148 -1.8034
  309MOL0     H41705  11.195  10.335  10.749  1.6140 -2.8032 -1.6305
  309MOL0     H41706  11.329  10.328  10.655  2.7208  0.3775  0.4248
  309MOL0     H41707  11.489  10.294  10.845  0.2770  0.1602  0.1803
  309MOL0     H41708  11.368  10.166  10.842  3.6820 -0.7423  2.4425
  309MOL0     H41709  11.234  10.275  11.016 -0.3942  1.1990 -2.8780
  309MOL0     H41710  11.359  10.406  11.024  0.7742 -1.0524  0.7665
  309MOL0     H41711  11.427  10.270  11.194 -1.8144  2.9246 -2.2773
  309MOL0     H41712  11.542  10.240  11.078 -0.2184 -1.4606 -1.1118
  309MOL0     H41713  11.432   9.859  11.176  0.6891 -0.0302 -1.7015
  309MOL0     H41714  11.326  10.733  10.797  0.0753 -1.3274  2.3959
  309MOL0     H41715  11.157  10.916  10.848 -1.6577  0.2191 -2.3676
  310MOL0     O41716   1.700   0.054   5.045 -0.9954 -0.2823 -1.0530
  310MOL0     C41717   1.734   0.023   5.165  0.7353 -0.2227  0.3547
  310MOL0     O41718   1.658   0.022   5.278 -0.3585 -0.3443  0.6371
  310MOL0     C41719   1.527   0.058   5.266  0.0743  0.7500  0.4658
  310MOL0     C41720   1.494   0.173   5.337 -0.8415  0.8434  0.4500
  310MOL0     C41721   1.362   0.214   5.338  0.3094 -0.4959  0.7021
  310MOL0     C41722   1.259   0.146   5.270  0.0313  0.3033 -0.3752
  310MOL0     O41723   1.136   0.199   5.272  0.1662  0.2443  0.1231
  310MOL0     C41724   1.021   0.135   5.326 -0.0369  0.1414 -0.0216
  310MOL0     C41725   0.925   0.256   5.321 -0.1280  0.5595  0.3829
  310MOL0     C41726   0.779   0.221   5.375  0.1282  0.5160 -0.0770
  310MOL0     C41727   0.686   0.157   5.272  0.4735  0.4340 -0.0135
  310MOL0     C41728   0.577   0.061   5.339  0.0066 -0.3296  0.1090
  310MOL0     C41729   0.456   0.028   5.248  0.3208  0.0029  0.0570
  310MOL0     C41730   0.346  -0.027   5.335  0.7779  0.1207 -0.4532
  310MOL0     C41731   0.279   0.081   5.428  0.2620  0.2701 -0.9661
  310MOL0     N41732   0.151   0.034   5.475 -0.2274 -0.4393  0.7304
  310MOL0     C41733   0.052   0.007   5.385  0.2909  0.2229  0.1365
  310MOL0     C41734  -0.041  -0.062   5.453 -0.0899 -0.5830 -1.0579
  310MOL0     C41735  -0.175  -0.105   5.407  1.2803  0.1015  1.3269
  310MOL0     C41736  -0.263   0.021   5.381  0.2517 -0.5245  0.3285
  310MOL0     C41737  -0.408  -0.024   5.358 -0.3515 -0.3123 -0.7137
  310MOL0     C41738  -0.423  -0.098   5.233 -0.9210 -0.1197 -0.4492
  310MOL0     O41739  -0.560  -0.104   5.187 -0.2209  0.5327  1.1771
  310MOL0     C41740  -0.664  -0.171   5.254 -0.0066 -0.6118  0.7115
  310MOL0     C41741  -0.641  -0.273   5.355  0.0737 -0.3936  0.3864
  310MOL0     C41742  -0.739  -0.344   5.418  0.8050 -0.5274 -0.1878
  310MOL0     C41743  -0.693  -0.442   5.525 -0.1251 -0.3531 -0.4998
  310MOL0     C41744  -0.877  -0.310   5.392 -0.8021  1.0270  0.5261
  310MOL0     C41745  -0.995  -0.378   5.455 -0.2696 -0.1558  0.5568
  310MOL0     O41746  -0.977  -0.487   5.537 -0.4406 -0.2916 -0.1999
  310MOL0     C41747  -1.069  -0.523   5.627 -0.0170 -0.3525 -0.0179
  310MOL0     C41748  -1.175  -0.612   5.608 -1.1220 -0.2171 -0.0496
  310MOL0     C41749  -1.272  -0.629   5.696 -0.2872 -0.7310 -0.0235
  310MOL0     C41750  -1.281  -0.561   5.811  0.0013  0.2779 -0.8374
  310MOL0     O41751  -1.383  -0.576   5.904  0.1401  0.5336 -0.0988
  310MOL0     C41752  -1.379  -0.529   6.036  0.3622 -1.2177  0.7728
  310MOL0     C41753  -1.494  -0.583   6.121  0.5291  0.0518 -0.1701
  310MOL0     C41754  -1.634  -0.574   6.062 -0.2061  0.1366 -0.0330
  310MOL0     C41755  -1.722  -0.664   6.143  0.5016 -0.6497  0.0086
  310MOL0     C41756  -1.868  -0.673   6.097  0.2276 -0.6977  0.1600
  310MOL0     C41757  -1.948  -0.538   6.130  0.0719 -0.4198  1.0846
  310MOL0     C41758  -2.092  -0.539   6.070 -0.4706  0.0948  1.9967
  310MOL0     C41759  -2.183  -0.425   6.112  0.1653  0.1514 -0.6354
  310MOL0    Cl41760  -2.118  -0.268   6.053  0.6503  0.1314  0.0660
  310MOL0     C41761  -1.173  -0.475   5.839  0.2843 -0.2670  0.3565
  310MOL0     C41762  -1.070  -0.460   5.748 -1.0798 -0.1128  0.0559
  310MOL0     O41763  -1.100  -0.318   5.443  0.0620 -0.5617  0.2217
  310MOL0     C41764  -0.902  -0.202   5.298  0.7761 -0.3785 -0.1821
  310MOL0     C41765  -0.800  -0.140   5.227 -0.8392 -0.3943 -0.0325
  310MOL0     N41766   0.000  -0.069   5.586  0.1893 -0.9680 -0.4283
  310MOL0     N41767   0.118  -0.024   5.590 -0.4262  0.0501  0.7595
  310MOL0     C41768   1.293   0.033   5.188  0.2936 -0.1278  0.8926
  310MOL0     C41769   1.427  -0.015   5.189 -0.2595 -0.5607 -0.8523
  310MOL0     C41770   1.867  -0.029   5.181 -0.7471  1.0589 -0.4878
  310MOL0     C41771   1.940  -0.088   5.078 -0.0799 -0.0639 -0.0082
  310MOL0     C41772   2.073  -0.115   5.098 -0.7979  0.1052  0.1581
  310MOL0     C41773   2.148  -0.083   5.216  0.1081 -0.5932  0.3276
  310MOL0     O41774   2.275  -0.116   5.212 -0.2044  0.1692  0.8370
  310MOL0     C41775   2.367  -0.018   5.260  0.4758 -0.1318 -0.8055
  310MOL0     C41776   2.401  -0.015   5.412  0.5916 -0.0003  0.3988
  310MOL0     C41777   2.381  -0.151   5.483 -0.4663  0.1788 -0.2337
  310MOL0     C41778   2.496  -0.244   5.448 -0.3330 -0.1191 -0.4908
  310MOL0     C41779   2.618  -0.197   5.517  0.0853  0.0956  0.2738
  310MOL0     C41780   2.714  -0.157   5.565  0.6082 -0.4991 -0.0590
  310MOL0     C41781   2.077  -0.023   5.322 -1.4127 -0.4895  0.1692
  310MOL0     C41782   1.938   0.009   5.301 -0.5577  0.6080  0.3867
  310MOL0     H41783   1.570   0.236   5.382 -0.8725  1.6904 -0.6222
  310MOL0     H41784   1.333   0.305   5.390  0.6538 -1.2456  2.2639
  310MOL0     H41785   0.979   0.055   5.265  1.2119 -0.6303  0.1047
  310MOL0     H41786   1.026   0.102   5.431 -2.1546 -0.5827 -0.0947
  310MOL0     H41787   0.968   0.337   5.381  1.4275  0.9776 -1.2112
  310MOL0     H41788   0.922   0.305   5.223 -2.4105  1.6044  0.9047
  310MOL0     H41789   0.791   0.145   5.452  1.2641 -0.6885 -1.3973
  310MOL0     H41790   0.738   0.314   5.415  0.6087  1.0025 -0.6897
  310MOL0     H41791   0.630   0.237   5.222  0.1641 -0.7448 -1.6552
  310MOL0     H41792   0.755   0.113   5.199  4.7828  2.1879  2.6260
  310MOL0     H41793   0.635  -0.027   5.368  0.1978  0.3724  1.9716
  310MOL0     H41794   0.542   0.103   5.434  0.0314 -1.6003  0.7079
  310MOL0     H41795   0.420   0.114   5.192  2.8633  2.4639  1.9197
  310MOL0     H41796   0.478  -0.049   5.174 -2.3263 -0.2228 -0.6014
  310MOL0     H41797   0.272  -0.063   5.262 -1.2456 -0.4053  1.7347
  310MOL0     H41798   0.375  -0.120   5.384  0.6845 -1.5405 -3.2862
  310MOL0     H41799   0.262   0.180   5.384 -0.3380  1.7334  2.2299
  310MOL0     H41800   0.340   0.100   5.517  0.9764  0.8087 -1.5531
  310MOL0     H41801   0.060   0.035   5.280  0.0679  0.5017  0.1923
  310MOL0     H41802  -0.164  -0.150   5.308  2.2095 -0.2585  1.5912
  310MOL0     H41803  -0.221  -0.168   5.483  1.0959 -0.8960  0.4088
  310MOL0     H41804  -0.224   0.075   5.294  0.0075  2.2476  1.8074
  310MOL0     H41805  -0.261   0.082   5.472 -0.7395 -2.1919  1.5140
  310MOL0     H41806  -0.468   0.066   5.343  1.4113  0.6420 -2.5655
  310MOL0     H41807  -0.441  -0.087   5.441 -1.9547  1.3338 -0.0603
  310MOL0     H41808  -0.388  -0.201   5.243  1.5761  0.3445 -3.0344
  310MOL0     H41809  -0.352  -0.052   5.163  1.4087  0.1729  1.9561
  310MOL0     H41810  -0.536  -0.294   5.366 -0.3221 -2.4931  0.4143
  310MOL0     H41811  -0.729  -0.543   5.504 -0.4326 -0.7511  1.7623
  310MOL0     H41812  -0.585  -0.457   5.523 -0.5848 -4.9110 -0.2541
  310MOL0     H41813  -0.710  -0.409   5.628  1.0225 -1.3684  0.0402
  310MOL0     H41814  -1.172  -0.662   5.512  0.0332 -0.2081 -0.0358
  310MOL0     H41815  -1.354  -0.694   5.666 -1.4728  0.1108  1.2392
  310MOL0     H41816  -1.288  -0.562   6.088  1.8874 -0.9019 -1.5669
  310MOL0     H41817  -1.370  -0.421   6.054 -0.8114 -1.4728  3.3698
  310MOL0     H41818  -1.468  -0.688   6.136  0.0984  0.2559  2.4597
  310MOL0     H41819  -1.502  -0.532   6.218  4.2085 -0.6888  0.6627
  310MOL0     H41820  -1.644  -0.611   5.960  0.2757 -0.8058  0.2470
  310MOL0     H41821  -1.672  -0.472   6.066  0.7358  0.4920  3.1843
  310MOL0     H41822  -1.688  -0.768   6.141  2.0914 -0.1418 -1.4487
  310MOL0     H41823  -1.716  -0.627   6.246 -2.6959  1.8050 -0.5338
  310MOL0     H41824  -1.906  -0.769   6.134 -2.8644 -0.2957 -1.6334
  310MOL0     H41825  -1.868  -0.688   5.989 -0.0646  2.0366 -0.2937
  310MOL0     H41826  -1.970  -0.543   6.237 -0.5527 -3.5718  0.9005
  310MOL0     H41827  -1.894  -0.445   6.108  0.4196 -1.1646 -1.4833
  310MOL0     H41828  -2.129  -0.641   6.087 -3.4683  0.4811 -1.1056
  310MOL0     H41829  -2.064  -0.529   5.964 -2.6888 -0.6750  1.2797
  310MOL0     H41830  -2.200  -0.425   6.220  1.2497  1.1088 -0.4451
  310MOL0     H41831  -2.285  -0.428   6.072 -0.4193  1.0780  0.7265
  310MOL0     H41832  -1.162  -0.417   5.930  4.8206  0.0322 -0.1648
  310MOL0     H41833  -0.986  -0.393   5.765 -0.9398  0.0623 -1.2511
  310MOL0     H41834  -1.000  -0.161   5.276  0.5607  0.3373  1.8763
  310MOL0     H41835  -0.825  -0.062   5.156 -0.6336 -0.8707 -0.6332
  310MOL0     H41836   1.210   0.007   5.124 -1.0847 -1.4227  3.0937
  310MOL0     H41837   1.451  -0.106   5.134  0.7530  0.3841 -2.0092
  310MOL0     H41838   1.889  -0.106   4.984 -0.7078 -0.3603  0.3861
  310MOL0     H41839   2.116  -0.156   5.007 -0.1776  0.3366  0.3435
  310MOL0     H41840   2.466  -0.041   5.221  1.9231  4.7009 -0.6589
  310MOL0     H41841   2.333   0.081   5.228 -1.1591  0.3909  2.1867
  310MOL0     H41842   2.336   0.060   5.457  0.1232 -1.2459  1.8881
  310MOL0     H41843   2.502   0.023   5.433  2.3695 -2.0392 -3.3855
  310MOL0     H41844   2.287  -0.202   5.462 -1.4214  0.7052  2.3835
  310MOL0     H41845   2.375  -0.143   5.592  2.4392 -2.8530  0.3310
  310MOL0     H41846   2.511  -0.229   5.340 -1.3478  1.2944 -0.4565
  310MOL0     H41847   2.466  -0.342   5.485 -1.4653  0.9951  1.7304
  310MOL0     H41848   2.809  -0.123   5.603 -0.5511  0.1466  2.4618
  310MOL0     H41849   2.128  -0.003   5.416 -2.3931  3.3045  0.0712
  310MOL0     H41850   1.897   0.064   5.386  0.4836  2.0743 -0.0126
  311MOL0     O41851   9.242   1.437  11.103  0.4120  0.8594  0.1031
  311MOL0     C41852   9.201   1.403  11.213  0.2344 -0.1518  0.3726
  311MOL0     O41853   9.269   1.374  11.322 -0.6578 -0.0036  0.1857
  311MOL0     C41854   9.406   1.348  11.325 -0.6730  0.4131 -0.1888
  311MOL0     C41855   9.505   1.397  11.228  0.4508 -0.4808 -0.6186
  311MOL0     C41856   9.641   1.376  11.243  0.0256  0.0623  0.4633
  311MOL0     C41857   9.692   1.305  11.358  0.3225 -0.6190 -0.3926
  311MOL0     O41858   9.829   1.292  11.364  0.1206 -1.0608 -0.0175
  311MOL0     C41859   9.891   1.247  11.484  0.0576 -0.0999  0.7102
  311MOL0     C41860  10.041   1.288  11.489 -0.3060  0.4046 -1.1705
  311MOL0     C41861  10.132   1.253  11.375  0.4595  1.0236 -0.5002
  311MOL0     C41862  10.276   1.249  11.426 -0.2867 -0.0237  0.3628
  311MOL0     C41863  10.304   1.113  11.485 -0.1198 -0.2140  0.6559
  311MOL0     C41864  10.442   1.108  11.543 -0.4896 -0.1416 -0.3191
  311MOL0     C41865  10.489   0.967  11.580  0.1223 -0.5282 -0.5619
  311MOL0     C41866  10.623   0.964  11.647 -0.7445  0.4411  1.0870
  311MOL0     N41867  10.738   1.030  11.569  0.1737 -0.7555 -0.1892
  311MOL0     C41868  10.822   0.960  11.478 -0.0517  0.4575  0.1842
  311MOL0     C41869  10.905   1.063  11.427 -0.2289 -0.2266  0.4848
  311MOL0     C41870  11.017   1.047  11.328 -0.2603  0.1200  0.0638
  311MOL0     C41871  10.975   1.099  11.192  0.5446 -0.3874  0.5913
  311MOL0     C41872  10.970   1.258  11.192  0.2320 -0.0044 -0.3938
  311MOL0     C41873  10.951   1.320  11.057  0.6978  1.0990  0.1024
  311MOL0     O41874  10.830   1.267  11.002  0.3531 -0.5616  0.0949
  311MOL0     C41875  10.714   1.333  11.032 -0.0344  1.0659  0.0252
  311MOL0     C41876  10.694   1.451  11.099  0.2428  0.0575  0.0766
  311MOL0     C41877  10.567   1.504  11.109  0.3087 -0.1487 -0.0971
  311MOL0     C41878  10.543   1.612  11.209 -0.4375  0.2021 -0.0513
  311MOL0     C41879  10.452   1.441  11.047 -0.6012 -0.5193  0.7426
  311MOL0     C41880  10.309   1.487  11.037 -0.0269 -0.0223 -0.5845
  311MOL0     O41881  10.285   1.622  11.064  0.1216  0.6600 -0.1814
  311MOL0     C41882  10.162   1.656  11.110 -0.8798 -0.0650  0.2930
  311MOL0     C41883  10.072   1.704  11.020  0.3606  0.0123  0.4706
  311MOL0     C41884   9.934   1.732  11.057 -0.1021  0.1470  0.3377
  311MOL0     C41885   9.899   1.720  11.194 -0.1659 -0.5486 -0.1764
  311MOL0     O41886   9.771   1.755  11.229  0.1580 -0.7197  0.2539
  311MOL0     C41887   9.726   1.708  11.354 -0.4666 -0.5545  0.2899
  311MOL0     C41888   9.578   1.713  11.353 -0.1543  0.1984 -0.0549
  311MOL0     C41889   9.540   1.632  11.475 -0.1233 -0.4663  0.1364
  311MOL0     C41890   9.389   1.659  11.501  0.1653  0.0257  0.1091
  311MOL0     C41891   9.354   1.640  11.658 -0.2839  0.3595 -0.6050
  311MOL0     C41892   9.204   1.655  11.694 -0.0539 -0.1432  0.4559
  311MOL0     C41893   9.141   1.791  11.667  0.1159 -0.0318 -0.2059
  311MOL0     C41894   8.996   1.803  11.689  1.6077 -0.3435 -0.5474
  311MOL0    Cl41895   8.895   1.724  11.558  0.3313 -0.3345  0.0448
  311MOL0     C41896  10.000   1.676  11.284  0.3306  0.6611  0.1014
  311MOL0     C41897  10.127   1.629  11.242  0.6340 -0.6665  0.4093
  311MOL0     O41898  10.224   1.398  11.016  0.5038 -0.7628  0.7017
  311MOL0     C41899  10.478   1.321  10.983 -0.7503  0.2985 -0.7514
  311MOL0     C41900  10.607   1.262  10.977 -0.2292 -0.3393  0.4363
  311MOL0     N41901  10.887   1.179  11.500  0.2266 -0.1357 -0.5721
  311MOL0     N41902  10.783   1.169  11.575 -0.1788  0.2277 -0.0330
  311MOL0     C41903   9.602   1.250  11.446  0.2442 -0.3260 -0.4007
  311MOL0     C41904   9.463   1.265  11.430 -0.3522  0.0950 -0.2295
  311MOL0     C41905   9.046   1.407  11.217  0.3970 -0.4373  0.3797
  311MOL0     C41906   8.983   1.415  11.343  0.5707  0.2872 -0.6462
  311MOL0     C41907   8.845   1.397  11.361  0.1486 -0.2840  0.0228
  311MOL0     C41908   8.764   1.378  11.241  0.1337  0.6190  0.7844
  311MOL0     O41909   8.626   1.363  11.229  0.6402  0.1124  0.1426
  311MOL0     C41910   8.557   1.352  11.357  0.3411 -0.0419  0.4613
  311MOL0     C41911   8.410   1.324  11.325  0.1677  0.4421  0.3159
  311MOL0     C41912   8.341   1.293  11.454  0.3984 -0.8096 -0.1593
  311MOL0     C41913   8.195   1.249  11.423  0.6503  0.4820 -0.3914
  311MOL0     C41914   8.111   1.274  11.545  0.2713  0.7099 -0.8935
  311MOL0     C41915   8.050   1.297  11.649  0.1538 -0.5175  0.2929
  311MOL0     C41916   8.823   1.385  11.115 -1.2543  0.7729  0.5112
  311MOL0     C41917   8.961   1.393  11.103 -0.5352  0.2952 -0.3717
  311MOL0     H41918   9.478   1.457  11.142 -3.6600 -1.9537 -0.5895
  311MOL0     H41919   9.714   1.408  11.168  2.1587  2.2873  3.2667
  311MOL0     H41920   9.831   1.274  11.571 -1.0570  0.5842 -0.2287
  311MOL0     H41921   9.893   1.137  11.479  2.0405 -0.0613 -1.8472
  311MOL0     H41922  10.045   1.397  11.503  3.7747  0.1804  1.0851
  311MOL0     H41923  10.089   1.239  11.574 -0.5781 -0.7212 -1.6568
  311MOL0     H41924  10.095   1.157  11.338  1.4122  0.0697  0.9727
  311MOL0     H41925  10.122   1.319  11.288 -1.4320  0.9646 -0.3768
  311MOL0     H41926  10.330   1.267  11.332  1.2807 -0.5504  1.1226
  311MOL0     H41927  10.294   1.333  11.494  1.0676  0.7410 -0.8685
  311MOL0     H41928  10.237   1.094  11.570  0.4917 -2.2598  0.7408
  311MOL0     H41929  10.291   1.033  11.411  0.8765 -0.2998  0.5608
  311MOL0     H41930  10.506   1.157  11.470  1.8875 -2.4010  0.0912
  311MOL0     H41931  10.447   1.178  11.627  2.7469 -0.9981  0.3608
  311MOL0     H41932  10.413   0.917  11.641 -1.7038 -1.0866 -3.1643
  311MOL0     H41933  10.501   0.903  11.493 -2.2961 -2.1989  0.2372
  311MOL0     H41934  10.647   0.857  11.644 -0.0017  0.5857 -2.2297
  311MOL0     H41935  10.622   1.009  11.746  2.6254  1.6513  0.7122
  311MOL0     H41936  10.827   0.858  11.440  1.5430  1.2852 -2.0802
  311MOL0     H41937  11.105   1.101  11.365 -1.3653  0.3878  2.4819
  311MOL0     H41938  11.040   0.941  11.315  1.0699  0.4529 -0.5790
  311MOL0     H41939  10.876   1.054  11.173 -0.0580  0.0083  2.6102
  311MOL0     H41940  11.041   1.055  11.117 -0.5445  0.1869 -0.7508
  311MOL0     H41941  11.056   1.307  11.239  0.1307  0.0743 -0.2900
  311MOL0     H41942  10.887   1.290  11.256  2.1367  1.0991  1.7195
  311MOL0     H41943  11.038   1.283  11.001  0.0479  0.2001 -0.3266
  311MOL0     H41944  10.963   1.428  11.059  3.8182  0.8619  2.4470
  311MOL0     H41945  10.776   1.499  11.151  1.3226 -0.8525 -0.7273
  311MOL0     H41946  10.499   1.697  11.156  2.0048  1.2119 -0.6106
  311MOL0     H41947  10.470   1.576  11.281 -0.0767  1.8408  1.2053
  311MOL0     H41948  10.631   1.650  11.261  0.1788 -2.4207  0.9391
  311MOL0     H41949  10.118   1.713  10.922  2.1580  0.8928  1.3423
  311MOL0     H41950   9.872   1.755  10.971  0.8947  0.3767 -0.3340
  311MOL0     H41951   9.752   1.603  11.371  0.3514 -0.6199 -1.2507
  311MOL0     H41952   9.768   1.774  11.430 -2.5899  0.7121  0.4305
  311MOL0     H41953   9.548   1.818  11.362 -2.8387 -0.2780 -1.9441
  311MOL0     H41954   9.531   1.662  11.269 -1.7024 -1.7188  1.8615
  311MOL0     H41955   9.593   1.667  11.564  0.3082 -2.7083  0.8247
  311MOL0     H41956   9.554   1.525  11.461 -0.0881 -0.5007  0.4259
  311MOL0     H41957   9.363   1.762  11.475 -0.9439  0.2107  1.7358
  311MOL0     H41958   9.335   1.593  11.433  0.4425 -1.6544  1.4585
  311MOL0     H41959   9.417   1.709  11.714  0.1143 -0.7160  0.3115
  311MOL0     H41960   9.388   1.538  11.678  0.2809  0.6747  0.0902
  311MOL0     H41961   9.144   1.585  11.635 -0.9317  1.7524 -1.0446
  311MOL0     H41962   9.202   1.641  11.802  1.4667  0.5852  0.5985
  311MOL0     H41963   9.165   1.838  11.571 -1.1045  1.0045 -0.0282
  311MOL0     H41964   9.188   1.855  11.742 -0.0693 -1.4088  1.1323
  311MOL0     H41965   8.973   1.910  11.694  0.2740 -0.6714  1.3230
  311MOL0     H41966   8.984   1.758  11.788  0.8422  0.1091 -0.4307
  311MOL0     H41967   9.968   1.678  11.388  2.2600 -0.0249  0.7660
  311MOL0     H41968  10.194   1.591  11.318  0.5612  0.6824  1.1694
  311MOL0     H41969  10.406   1.260  10.930 -1.2795  1.5170 -1.4895
  311MOL0     H41970  10.623   1.164  10.934  1.2822  0.3763 -0.7513
  311MOL0     H41971   9.628   1.188  11.530  1.9341 -1.3782 -1.6414
  311MOL0     H41972   9.398   1.233  11.510  3.0000  1.1484  3.2100
  311MOL0     H41973   9.041   1.427  11.434 -1.6160 -0.6661  0.9858
  311MOL0     H41974   8.802   1.389  11.460 -0.3256 -0.8687 -0.2233
  311MOL0     H41975   8.602   1.272  11.416 -0.8478 -0.3802  0.9371
  311MOL0     H41976   8.561   1.441  11.420 -0.8809 -1.3373  2.4730
  311MOL0     H41977   8.417   1.229  11.271 -0.0033 -1.7531  3.8022
  311MOL0     H41978   8.352   1.401  11.274 -3.3305 -1.0960  1.6877
  311MOL0     H41979   8.348   1.386  11.511  1.2371 -1.5434  0.9811
  311MOL0     H41980   8.396   1.215  11.508 -0.4714 -1.4338 -0.1602
  311MOL0     H41981   8.199   1.141  11.402  1.4241  0.7690 -1.8978
  311MOL0     H41982   8.156   1.310  11.342 -0.7124  1.8125  1.1930
  311MOL0     H41983   8.003   1.328  11.741 -0.0473 -2.3233  0.8524
  311MOL0     H41984   8.756   1.378  11.030 -0.4711 -1.0035  0.0058
  311MOL0     H41985   9.015   1.393  11.009 -1.4570  3.4150 -1.0010
  312MOL0     O41986  11.029   0.749   9.322 -0.5368 -0.3276  0.0176
  312MOL0     C41987  11.052   0.746   9.443 -0.6908 -0.2795  0.3899
  312MOL0     O41988  10.964   0.737   9.542  0.0740  0.2788  0.7648
  312MOL0     C41989  10.830   0.726   9.522 -0.9856  1.1396  0.2689
  312MOL0     C41990  10.755   0.803   9.438  0.5809 -0.1500  0.2588
  312MOL0     C41991  10.610   0.791   9.428 -0.0868  0.0796 -0.4042
  312MOL0     C41992  10.540   0.707   9.513  0.3092 -0.1551  0.6727
  312MOL0     O41993  10.402   0.692   9.511 -0.8913 -0.1607 -0.1977
  312MOL0     C41994  10.327   0.796   9.455 -0.9711  0.0214  0.6081
  312MOL0     C41995  10.191   0.813   9.522  0.1635 -0.6356  0.0271
  312MOL0     C41996  10.085   0.698   9.493 -0.2423  0.0957 -0.5722
  312MOL0     C41997   9.948   0.732   9.568 -0.4755 -0.0956 -0.8692
  312MOL0     C41998   9.841   0.634   9.534  0.0383 -0.2457  0.2859
  312MOL0     C41999   9.705   0.685   9.585 -0.4065 -0.9678 -0.1878
  312MOL0     C42000   9.610   0.569   9.582  1.3174  0.0088 -0.4133
  312MOL0     C42001   9.462   0.621   9.607 -0.8404 -0.5485  0.3660
  312MOL0     N42002   9.443   0.671   9.743  0.3818  0.0894  0.1610
  312MOL0     C42003   9.418   0.594   9.856  0.6077  0.7097  1.0145
  312MOL0     C42004   9.438   0.686   9.948 -0.7214 -0.1325 -0.4294
  312MOL0     C42005   9.438   0.665  10.098  0.0297 -0.5800  0.4315
  312MOL0     C42006   9.289   0.674  10.146 -0.7153  0.1474  0.2068
  312MOL0     C42007   9.270   0.658  10.305 -0.2103  0.2025 -0.0044
  312MOL0     C42008   9.127   0.644  10.349 -0.1998  0.2351  0.1463
  312MOL0     O42009   9.069   0.530  10.286  0.0828  0.2225  1.0398
  312MOL0     C42010   8.939   0.518  10.276 -0.8096  0.4244 -1.0829
  312MOL0     C42011   8.894   0.427  10.185 -0.1824  0.7453 -0.3806
  312MOL0     C42012   8.766   0.390  10.175  0.2626 -0.2251  0.0432
  312MOL0     C42013   8.727   0.295  10.061  0.0884 -0.0555 -0.0095
  312MOL0     C42014   8.671   0.461  10.252 -1.2332 -0.0648  0.0535
  312MOL0     C42015   8.528   0.430  10.242  0.3277 -0.2024 -0.8078
  312MOL0     O42016   8.456   0.540  10.201 -0.0273  0.0619  0.5009
  312MOL0     C42017   8.318   0.540  10.209  1.2931  0.9915 -0.4945
  312MOL0     C42018   8.267   0.541  10.335  0.8446 -0.1305  0.0647
  312MOL0     C42019   8.123   0.548  10.351 -0.0789 -0.2692 -0.0460
  312MOL0     C42020   8.039   0.564  10.244  0.0273 -0.4716  0.5021
  312MOL0     O42021   7.910   0.581  10.272  0.4965 -0.2604  0.1356
  312MOL0     C42022   7.810   0.626  10.170 -0.5907 -0.4727 -0.1457
  312MOL0     C42023   7.731   0.505  10.122 -0.1088  0.1972 -0.0133
  312MOL0     C42024   7.656   0.436  10.238 -1.2536  0.0571  0.6617
  312MOL0     C42025   7.571   0.323  10.183  0.5228  0.0622  0.3929
  312MOL0     C42026   7.434   0.376  10.154  0.6606  0.5661  0.2864
  312MOL0     C42027   7.330   0.273  10.125  0.6034  0.4483  0.1241
  312MOL0     C42028   7.192   0.317  10.081 -0.5142  0.8340  0.3140
  312MOL0     C42029   7.107   0.186  10.073 -0.2650  0.0496  0.6231
  312MOL0    Cl42030   6.947   0.243  10.019  0.1192 -0.3846  0.3326
  312MOL0     C42031   8.102   0.563  10.114  0.0910 -0.2872 -0.0099
  312MOL0     C42032   8.237   0.542  10.100  0.5261 -0.4319 -0.4580
  312MOL0     O42033   8.475   0.331  10.290 -0.3924  0.3129 -0.3588
  312MOL0     C42034   8.710   0.552  10.353  1.1580 -0.9036  0.3669
  312MOL0     C42035   8.847   0.578  10.367 -0.4604  0.7896  0.3610
  312MOL0     N42036   9.471   0.809   9.889 -0.6871  0.3754 -0.4491
  312MOL0     N42037   9.480   0.797   9.765 -0.4742 -0.3840  0.0326
  312MOL0     C42038  10.616   0.631   9.610  0.4238  0.0199  1.0170
  312MOL0     C42039  10.761   0.643   9.610  0.0074 -0.0233  0.4473
  312MOL0     C42040  11.194   0.760   9.501 -0.1348  0.7369 -0.0283
  312MOL0     C42041  11.218   0.713   9.634  0.1668 -0.9243  0.7547
  312MOL0     C42042  11.343   0.703   9.684 -1.2499  1.2638 -0.5184
  312MOL0     C42043  11.451   0.732   9.612 -0.0740 -0.2554 -0.1426
  312MOL0     O42044  11.581   0.729   9.645 -0.6766  0.5597  0.3369
  312MOL0     C42045  11.622   0.679   9.773  0.3589 -0.6457  0.7961
  312MOL0     C42046  11.772   0.656   9.792  0.3805  0.7667 -0.4627
  312MOL0     C42047  11.841   0.790   9.779  0.2675 -0.6717 -0.8421
  312MOL0     C42048  11.995   0.777   9.777  0.0432 -0.5337 -0.8137
  312MOL0     C42049  12.055   0.908   9.753  0.1101 -0.9158 -0.3978
  312MOL0     C42050  12.097   1.022   9.734  0.0460  0.3034  0.0262
  312MOL0     C42051  11.431   0.784   9.487 -0.5089 -0.1988 -0.7623
  312MOL0     C42052  11.308   0.787   9.425 -0.4004  0.2632 -0.6115
  312MOL0     H42053  10.800   0.895   9.403  2.0452 -0.4089  1.3927
  312MOL0     H42054  10.563   0.853   9.352 -0.4007 -1.9904 -2.0007
  312MOL0     H42055  10.373   0.893   9.471 -0.8459 -0.0384  0.6143
  312MOL0     H42056  10.307   0.776   9.349 -1.4234 -1.5492  0.9501
  312MOL0     H42057  10.197   0.828   9.631  0.7009  0.5800 -0.1587
  312MOL0     H42058  10.144   0.901   9.476 -1.2330 -0.9034  0.8615
  312MOL0     H42059  10.067   0.705   9.386 -1.7516 -1.3812 -0.4584
  312MOL0     H42060  10.126   0.600   9.519 -2.1403 -0.7489 -0.6617
  312MOL0     H42061   9.970   0.750   9.674 -0.0561  2.5754 -1.3334
  312MOL0     H42062   9.921   0.834   9.538  2.6715  0.7797 -1.0707
  312MOL0     H42063   9.837   0.624   9.425 -3.2252 -0.9644  0.3690
  312MOL0     H42064   9.868   0.538   9.578 -2.5302 -0.9612  0.4552
  312MOL0     H42065   9.714   0.719   9.689 -2.9311 -0.1207 -0.1756
  312MOL0     H42066   9.666   0.770   9.529  1.1689 -0.3781 -0.4410
  312MOL0     H42067   9.637   0.515   9.491  1.4966 -1.5197  0.5129
  312MOL0     H42068   9.636   0.503   9.665 -0.7332  0.6880  0.8687
  312MOL0     H42069   9.382   0.548   9.594 -2.4669  0.4410  3.6743
  312MOL0     H42070   9.446   0.697   9.530  1.4177  2.0390  2.2413
  312MOL0     H42071   9.394   0.489   9.865 -2.3224  1.0574 -1.0039
  312MOL0     H42072   9.496   0.573  10.106  1.5272  0.1077 -1.5955
  312MOL0     H42073   9.495   0.748  10.141 -0.6591  0.2038 -0.1256
  312MOL0     H42074   9.229   0.605  10.087  1.5172 -0.6043 -1.2838
  312MOL0     H42075   9.259   0.778  10.128 -0.9211 -0.1660 -1.3959
  312MOL0     H42076   9.329   0.737  10.353 -1.0215  0.7515  0.0997
  312MOL0     H42077   9.314   0.565  10.343 -2.5309 -0.6890  0.6157
  312MOL0     H42078   9.076   0.732  10.308  4.4259  2.4950 -1.4094
  312MOL0     H42079   9.123   0.649  10.458  0.7959 -0.2239  0.2129
  312MOL0     H42080   8.957   0.371  10.116 -0.7523 -1.5008  0.8455
  312MOL0     H42081   8.678   0.361   9.989  1.1372  2.2181  1.2410
  312MOL0     H42082   8.808   0.235  10.018 -0.3291 -0.5042 -0.1752
  312MOL0     H42083   8.659   0.218  10.099  0.3122 -1.1056 -1.6260
  312MOL0     H42084   8.333   0.559  10.419 -0.6116  3.6658  0.6283
  312MOL0     H42085   8.096   0.560  10.455  3.7804  3.6306  0.7900
  312MOL0     H42086   7.739   0.695  10.216  0.5304  1.4143 -1.1146
  312MOL0     H42087   7.856   0.681  10.088  1.8147  0.4088  1.6645
  312MOL0     H42088   7.662   0.535  10.042 -1.5552 -3.9160 -0.5382
  312MOL0     H42089   7.802   0.435  10.077 -1.9043 -1.9534  0.3147
  312MOL0     H42090   7.605   0.505  10.305  0.7840  0.7669  1.5799
  312MOL0     H42091   7.729   0.381  10.299  0.2745 -0.4973 -1.5230
  312MOL0     H42092   7.607   0.283  10.088  0.2771 -1.0373  0.7521
  312MOL0     H42093   7.548   0.243  10.253  0.3497 -3.0961 -2.9574
  312MOL0     H42094   7.439   0.454  10.078  1.8271  1.1677  0.9535
  312MOL0     H42095   7.409   0.429  10.247 -0.4250  1.5202 -0.5216
  312MOL0     H42096   7.363   0.209  10.043 -1.6397  1.4011 -1.6479
  312MOL0     H42097   7.317   0.205  10.209  3.1725 -0.1364  0.1220
  312MOL0     H42098   7.197   0.367   9.984  0.3384  0.0829 -0.0467
  312MOL0     H42099   7.147   0.382  10.156 -0.8261  0.9167  0.0572
  312MOL0     H42100   7.095   0.142  10.172  1.1440  0.7818  1.1405
  312MOL0     H42101   7.150   0.117  10.000  1.5006 -0.9545  2.5191
  312MOL0     H42102   8.042   0.591  10.028  0.9928 -2.1528 -1.2988
  312MOL0     H42103   8.280   0.537  10.000  4.2648 -0.7247  1.0100
  312MOL0     H42104   8.641   0.617  10.406  1.6047  2.3255 -2.5813
  312MOL0     H42105   8.885   0.647  10.441  3.0244  0.9518 -1.3650
  312MOL0     H42106  10.564   0.566   9.680 -1.3760  2.5701  2.2209
  312MOL0     H42107  10.824   0.582   9.674 -0.7087 -2.1498 -0.7675
  312MOL0     H42108  11.142   0.675   9.702 -0.1173  0.3859  1.2110
  312MOL0     H42109  11.359   0.656   9.781  0.8971 -0.1864 -1.5159
  312MOL0     H42110  11.602   0.756   9.849  4.8959 -0.7265  2.3609
  312MOL0     H42111  11.564   0.590   9.795 -1.5486  0.1511 -0.6849
  312MOL0     H42112  11.819   0.595   9.715  0.2952  0.6529 -0.4254
  312MOL0     H42113  11.796   0.611   9.889 -4.7672  0.0525  0.7776
  312MOL0     H42114  11.805   0.836   9.872 -2.0094 -1.3682 -1.3346
  312MOL0     H42115  11.809   0.846   9.691  0.7831  1.4061  0.2110
  312MOL0     H42116  12.031   0.706   9.702  1.4760  0.3125 -0.9620
  312MOL0     H42117  12.023   0.747   9.878  1.3131  2.6296 -0.1161
  312MOL0     H42118  12.137   1.119   9.716  2.2655 -0.3338  1.2112
  312MOL0     H42119  11.520   0.819   9.437 -0.0304  0.3876  0.4424
  312MOL0     H42120  11.304   0.807   9.318  0.0410  3.4007 -0.1367
  313MOL0     O42121   5.648   2.744   9.473  0.2372  0.0421 -0.2600
  313MOL0     C42122   5.617   2.654   9.551  0.0957 -0.2002 -0.0465
  313MOL0     O42123   5.496   2.617   9.597 -0.3766 -0.0599  0.9558
  313MOL0     C42124   5.378   2.675   9.549 -0.0656 -0.1810 -1.1756
  313MOL0     C42125   5.371   2.812   9.520 -0.6998  0.4852 -0.1185
  313MOL0     C42126   5.251   2.878   9.485 -0.2486  0.1146  0.6217
  313MOL0     C42127   5.140   2.796   9.482  0.5980 -0.3193  0.3549
  313MOL0     O42128   5.025   2.862   9.450 -0.3120  0.0372  0.4700
  313MOL0     C42129   4.903   2.783   9.441 -0.3731  0.1179 -0.2731
  313MOL0     C42130   4.787   2.883   9.446 -0.5707  0.0973 -0.0238
  313MOL0     C42131   4.648   2.823   9.409  0.3362 -0.3344  1.1883
  313MOL0     C42132   4.533   2.930   9.412 -0.2636  0.6190  0.2615
  313MOL0     C42133   4.413   2.871   9.326  0.8602 -0.0348 -0.2419
  313MOL0     C42134   4.338   2.757   9.384 -0.3610  0.5131 -0.5222
  313MOL0     C42135   4.282   2.787   9.524 -0.0473 -0.0007 -0.0396
  313MOL0     C42136   4.197   2.662   9.579  0.7300 -0.2492 -0.7615
  313MOL0     N42137   4.067   2.662   9.508  0.2832  0.2220 -0.7894
  313MOL0     C42138   3.954   2.737   9.541  0.1432  0.8074  0.5535
  313MOL0     C42139   3.862   2.703   9.452  0.6560 -0.3278 -0.0464
  313MOL0     C42140   3.727   2.772   9.452 -0.7527  0.2169 -0.1506
  313MOL0     C42141   3.633   2.709   9.361  0.4325 -0.5649  0.1112
  313MOL0     C42142   3.500   2.782   9.353  0.0762  0.6589  0.3195
  313MOL0     C42143   3.376   2.704   9.332  0.5667  0.3267  0.4302
  313MOL0     O42144   3.269   2.790   9.368 -0.0536 -0.3619  0.0640
  313MOL0     C42145   3.147   2.744   9.401 -0.5157  1.1857  0.3546
  313MOL0     C42146   3.093   2.627   9.348 -0.1058 -1.0309 -0.3540
  313MOL0     C42147   2.952   2.592   9.369  0.5217  0.1287  0.0111
  313MOL0     C42148   2.906   2.466   9.306 -0.0776  0.4678  0.2020
  313MOL0     C42149   2.872   2.680   9.458  0.4859  0.8514  0.2468
  313MOL0     C42150   2.731   2.634   9.509  0.5816 -1.1185  0.0960
  313MOL0     O42151   2.701   2.678   9.633  0.1392 -0.0977 -0.4844
  313MOL0     C42152   2.569   2.668   9.669  0.7993  1.0802  0.6605
  313MOL0     C42153   2.465   2.737   9.600 -0.4306 -0.1471  0.4482
  313MOL0     C42154   2.330   2.735   9.657 -0.5519  0.1490  0.6108
  313MOL0     C42155   2.309   2.660   9.776  0.1188 -0.8521 -0.1351
  313MOL0     O42156   2.181   2.662   9.823 -0.0318  0.2409 -0.3557
  313MOL0     C42157   2.135   2.574   9.937 -0.4610 -0.5498 -0.2428
  313MOL0     C42158   1.991   2.602   9.961 -0.1715 -0.8289  0.3327
  313MOL0     C42159   1.925   2.544  10.087 -0.6966  0.5576 -0.1510
  313MOL0     C42160   1.908   2.396  10.083 -0.8785  0.2725  0.2996
  313MOL0     C42161   1.826   2.339  10.205  0.9916 -0.7247 -0.0968
  313MOL0     C42162   1.891   2.350  10.343  0.5129 -0.4577 -0.2906
  313MOL0     C42163   1.813   2.299  10.467 -1.0840 -0.6189  0.2526
  313MOL0     C42164   1.900   2.293  10.593  0.5404  0.5180  0.5050
  313MOL0    Cl42165   1.950   2.465  10.640 -0.3195  0.2014  0.3868
  313MOL0     C42166   2.409   2.580   9.825  0.2046  0.2022  0.0501
  313MOL0     C42167   2.537   2.582   9.771  0.3806  0.4448  0.0369
  313MOL0     O42168   2.655   2.565   9.436  0.1980 -0.3729  0.1041
  313MOL0     C42169   2.936   2.786   9.507  0.1204 -0.1832 -0.6898
  313MOL0     C42170   3.068   2.821   9.479  0.0174  0.8952 -0.3454
  313MOL0     N42171   3.912   2.612   9.365  0.0884 -0.1815  0.1508
  313MOL0     N42172   4.034   2.579   9.403  0.6973 -0.5411  1.0814
  313MOL0     C42173   5.145   2.655   9.514  0.6304 -0.4724  0.0442
  313MOL0     C42174   5.265   2.598   9.555 -0.1025  0.8050 -0.2735
  313MOL0     C42175   5.723   2.555   9.581 -0.2625 -0.2938  0.7334
  313MOL0     C42176   5.688   2.421   9.578 -0.4221  0.4463  0.6329
  313MOL0     C42177   5.785   2.319   9.573  0.8471  0.2196 -0.2361
  313MOL0     C42178   5.917   2.348   9.553  0.9482 -0.0070  0.2537
  313MOL0     O42179   6.018   2.260   9.553 -0.6133  0.1826 -0.2722
  313MOL0     C42180   6.003   2.125   9.605  0.1285 -0.5638  0.1750
  313MOL0     C42181   5.956   2.032   9.493 -0.3263 -0.4751 -0.6663
  313MOL0     C42182   6.049   1.919   9.436  0.3515 -1.3163  0.1923
  313MOL0     C42183   5.976   1.784   9.424  0.1322 -1.4983  0.1539
  313MOL0     C42184   6.066   1.704   9.346 -0.1997  0.7025 -0.1962
  313MOL0     C42185   6.141   1.614   9.303  0.8681 -0.2057 -0.4590
  313MOL0     C42186   5.949   2.479   9.550 -0.0484  0.5475  0.6866
  313MOL0     C42187   5.860   2.589   9.549  0.6408 -0.1240  0.4855
  313MOL0     H42188   5.455   2.880   9.517 -0.5168  0.2952  0.4275
  313MOL0     H42189   5.246   2.981   9.454 -0.0954  0.2369  0.9979
  313MOL0     H42190   4.911   2.716   9.355  1.0992 -2.5640  1.8083
  313MOL0     H42191   4.883   2.716   9.525  0.2555 -2.0978 -1.7867
  313MOL0     H42192   4.776   2.941   9.537  0.3992 -0.3856  0.4223
  313MOL0     H42193   4.809   2.949   9.362 -0.4760 -0.8839 -0.7965
  313MOL0     H42194   4.665   2.781   9.309  3.3592  0.4871  1.2473
  313MOL0     H42195   4.613   2.734   9.461 -0.3337  0.2992  1.8307
  313MOL0     H42196   4.504   2.946   9.516 -1.6916 -1.6921  0.3057
  313MOL0     H42197   4.575   3.023   9.374  1.2411 -1.0197 -2.4832
  313MOL0     H42198   4.340   2.950   9.302 -1.0591 -1.1223  1.6209
  313MOL0     H42199   4.451   2.835   9.230  1.0709 -0.7183  0.0910
  313MOL0     H42200   4.255   2.743   9.314  0.2472 -2.5889 -0.7755
  313MOL0     H42201   4.401   2.668   9.385 -2.1862 -0.8453  1.1249
  313MOL0     H42202   4.371   2.796   9.587  0.1995  1.7009 -0.5940
  313MOL0     H42203   4.227   2.881   9.527  2.2192  1.3782  0.1059
  313MOL0     H42204   4.187   2.686   9.685  1.8592 -0.4372 -0.5933
  313MOL0     H42205   4.245   2.563   9.572 -0.9217 -1.2004  0.5486
  313MOL0     H42206   3.936   2.819   9.609 -0.0979 -1.8146  3.9005
  313MOL0     H42207   3.687   2.774   9.554  0.5810 -1.2153  0.4345
  313MOL0     H42208   3.741   2.874   9.414  0.2506 -0.2154 -1.0049
  313MOL0     H42209   3.632   2.604   9.391  2.1738 -0.6894 -0.1484
  313MOL0     H42210   3.679   2.710   9.261 -2.6745  1.5197 -1.4826
  313MOL0     H42211   3.505   2.830   9.255 -1.4528  1.2908  0.5135
  313MOL0     H42212   3.488   2.868   9.420 -2.4945  1.0019 -0.4833
  313MOL0     H42213   3.381   2.604   9.375 -1.7698  0.2457  0.6330
  313MOL0     H42214   3.361   2.689   9.225  2.2266  1.0666  0.0556
  313MOL0     H42215   3.158   2.564   9.287  2.1238 -0.2920  1.1513
  313MOL0     H42216   2.872   2.388   9.375 -1.1580 -0.5645 -1.4436
  313MOL0     H42217   2.817   2.477   9.244 -1.8798 -0.9277  2.3655
  313MOL0     H42218   2.982   2.418   9.244 -0.7961  0.5195 -0.7387
  313MOL0     H42219   2.498   2.783   9.508 -0.1380 -1.2926 -0.0373
  313MOL0     H42220   2.251   2.793   9.611  1.4581  2.9690  0.4060
  313MOL0     H42221   2.151   2.468   9.916 -2.6206 -0.6776 -1.4674
  313MOL0     H42222   2.187   2.601  10.029 -0.3575 -1.1048 -0.1363
  313MOL0     H42223   1.982   2.711   9.961 -3.3447 -0.9424 -1.6238
  313MOL0     H42224   1.938   2.583   9.868  0.3851  0.6081 -0.3130
  313MOL0     H42225   1.823   2.582  10.088 -0.2809  1.7771  2.0664
  313MOL0     H42226   1.970   2.587  10.177 -1.1444 -0.6430  0.6675
  313MOL0     H42227   1.850   2.387   9.991 -2.3397  2.1243  0.9646
  313MOL0     H42228   2.006   2.348  10.074  0.5176  2.3190  3.0999
  313MOL0     H42229   1.805   2.234  10.186  1.2780 -0.6915 -0.6215
  313MOL0     H42230   1.732   2.394  10.196  1.2317 -0.5122 -1.6958
  313MOL0     H42231   1.983   2.294  10.329 -1.1010 -2.9974 -1.4587
  313MOL0     H42232   1.906   2.457  10.362 -2.4537 -0.0728  0.3690
  313MOL0     H42233   1.776   2.198  10.445 -0.6481 -0.7581  0.1350
  313MOL0     H42234   1.724   2.361  10.480 -0.9521 -0.5773  0.9847
  313MOL0     H42235   1.995   2.241  10.581 -0.5536 -1.5711  0.3887
  313MOL0     H42236   1.841   2.249  10.674 -0.2138 -0.5542 -0.5942
  313MOL0     H42237   2.382   2.517   9.909  0.9763  2.0771  1.7820
  313MOL0     H42238   2.621   2.543   9.829  1.4539  0.6437 -1.3198
  313MOL0     H42239   2.874   2.852   9.567  2.7801  1.9113 -0.0500
  313MOL0     H42240   3.106   2.915   9.518  0.3827  1.6739 -2.4431
  313MOL0     H42241   5.053   2.599   9.502  0.3325  0.5832 -4.1956
  313MOL0     H42242   5.285   2.495   9.582 -0.6828  0.1809 -2.0657
  313MOL0     H42243   5.587   2.382   9.579  0.7812 -3.0586 -0.5583
  313MOL0     H42244   5.744   2.221   9.552  1.0209  0.5355 -2.2531
  313MOL0     H42245   6.105   2.093   9.629  1.1822 -0.0198 -3.0357
  313MOL0     H42246   5.938   2.130   9.692 -0.4999  2.7700 -0.3706
  313MOL0     H42247   5.901   2.090   9.418 -0.2841 -1.6748 -1.6723
  313MOL0     H42248   5.876   1.971   9.537  0.9920 -0.5935  1.6710
  313MOL0     H42249   6.126   1.906   9.513 -1.0929  0.1480  1.9893
  313MOL0     H42250   6.101   1.959   9.348  1.2962 -0.4032  1.1427
  313MOL0     H42251   5.878   1.794   9.377 -0.5023 -0.6965  1.6074
  313MOL0     H42252   5.965   1.732   9.519  1.3142  0.0606  1.2114
  313MOL0     H42253   6.206   1.529   9.293 -0.0885 -1.2468  1.4907
  313MOL0     H42254   6.057   2.494   9.542 -0.0919  0.1593 -0.9195
  313MOL0     H42255   5.905   2.684   9.521 -1.5984  0.0410 -3.1197
  314MOL0     O42256   3.032   7.925   6.680 -0.7387 -0.0081 -0.3256
  314MOL0     C42257   3.119   8.010   6.712  0.0172 -1.3055  0.0416
  314MOL0     O42258   3.095   8.139   6.759 -0.2622 -0.2654 -0.0077
  314MOL0     C42259   2.978   8.201   6.753 -1.0076 -1.3991 -0.0942
  314MOL0     C42260   2.863   8.156   6.684 -0.7452 -0.4200  0.7686
  314MOL0     C42261   2.736   8.214   6.704 -1.1145 -0.5246  0.4373
  314MOL0     C42262   2.721   8.330   6.781  0.3677  0.3462 -0.4550
  314MOL0     O42263   2.605   8.406   6.791 -0.6516  0.3243 -0.3207
  314MOL0     C42264   2.486   8.368   6.715 -0.0155  0.2023  0.8018
  314MOL0     C42265   2.354   8.422   6.770  0.1549 -0.4464  0.2240
  314MOL0     C42266   2.233   8.407   6.681 -0.1861  0.9084  0.5638
  314MOL0     C42267   2.248   8.290   6.584 -0.3597 -0.0291  0.5049
  314MOL0     C42268   2.125   8.275   6.500 -0.0346  0.7662  0.1667
  314MOL0     C42269   2.126   8.378   6.387 -0.0871  0.5433  0.0299
  314MOL0     C42270   2.010   8.362   6.290 -0.2154 -0.1727  0.2050
  314MOL0     C42271   2.013   8.471   6.174 -0.5765  0.6382  0.8267
  314MOL0     N42272   1.874   8.504   6.144  0.4029 -0.3473 -0.2305
  314MOL0     C42273   1.798   8.602   6.212 -0.0618 -0.5818  0.4593
  314MOL0     C42274   1.675   8.589   6.155 -0.2585  0.7107  0.1608
  314MOL0     C42275   1.547   8.656   6.200 -0.9729  0.0788 -0.0086
  314MOL0     C42276   1.499   8.600   6.335  0.1870 -0.2954  0.1213
  314MOL0     C42277   1.509   8.442   6.360  0.6286 -0.6414 -0.2280
  314MOL0     C42278   1.401   8.361   6.284  0.7768 -0.5642  0.2144
  314MOL0     O42279   1.278   8.433   6.339 -0.6602 -0.3202 -0.0237
  314MOL0     C42280   1.174   8.434   6.255 -0.8755  0.3541 -0.6431
  314MOL0     C42281   1.129   8.326   6.173 -0.2725 -0.5408  0.1441
  314MOL0     C42282   1.024   8.344   6.088 -0.0623  0.1231  0.2767
  314MOL0     C42283   0.996   8.238   5.983 -0.7737 -0.1001  0.0839
  314MOL0     C42284   0.944   8.465   6.087 -0.9422 -0.6070 -0.6224
  314MOL0     C42285   0.819   8.504   6.006 -1.2481  0.1811  0.7193
  314MOL0     O42286   0.770   8.626   6.033  0.1638  0.6788 -0.4337
  314MOL0     C42287   0.654   8.677   5.977  0.5875 -0.6957  0.4080
  314MOL0     C42288   0.530   8.606   5.986 -0.0432 -0.6751 -0.9533
  314MOL0     C42289   0.425   8.643   5.904 -0.2813  0.4336 -0.3251
  314MOL0     C42290   0.424   8.746   5.815  0.2326 -0.0072 -0.3051
  314MOL0     O42291   0.314   8.752   5.735  0.2759 -0.7437 -0.4555
  314MOL0     C42292   0.324   8.857   5.633 -0.3411  0.6917 -0.9589
  314MOL0     C42293   0.200   8.858   5.539 -0.4962 -0.5718 -0.1835
  314MOL0     C42294   0.061   8.885   5.605  0.3423  0.2064  0.9567
  314MOL0     C42295  -0.041   8.902   5.486  0.1884 -0.8178  0.0928
  314MOL0     C42296  -0.175   8.953   5.536  0.5076 -0.5795 -0.6402
  314MOL0     C42297  -0.285   8.918   5.432 -0.6523  0.3657 -0.1000
  314MOL0     C42298  -0.428   8.935   5.478  0.2390  0.0577  0.6843
  314MOL0     C42299  -0.516   8.928   5.353 -0.0612 -0.1676 -0.7295
  314MOL0    Cl42300  -0.686   8.938   5.406 -0.2052 -0.0533  0.3870
  314MOL0     C42301   0.537   8.836   5.819  0.3374  0.0100 -0.1781
  314MOL0     C42302   0.645   8.801   5.896  0.4174  0.5597 -0.0312
  314MOL0     O42303   0.773   8.415   5.932 -0.1200  0.2430  0.1844
  314MOL0     C42304   0.990   8.564   6.180  0.1813  0.4535 -0.0826
  314MOL0     C42305   1.095   8.542   6.273 -0.2378 -0.2833  0.1959
  314MOL0     N42306   1.690   8.514   6.040 -0.3748  0.0345  0.6748
  314MOL0     N42307   1.804   8.458   6.038  0.2652  0.5375  0.4514
  314MOL0     C42308   2.841   8.386   6.828 -0.2280 -0.8108 -0.5036
  314MOL0     C42309   2.964   8.327   6.820  0.1003 -0.1653 -0.1476
  314MOL0     C42310   3.254   7.972   6.691  0.2749 -0.2944 -0.7271
  314MOL0     C42311   3.350   8.068   6.664 -0.2912 -0.8032  0.3181
  314MOL0     C42312   3.483   8.032   6.656  0.3390  0.4970 -0.7862
  314MOL0     C42313   3.517   7.902   6.671 -0.7173  0.5538  0.1853
  314MOL0     O42314   3.646   7.850   6.646  0.0223  0.2569  0.0214
  314MOL0     C42315   3.754   7.915   6.710  0.0530  0.9617  0.5014
  314MOL0     C42316   3.845   7.801   6.767 -0.7352 -0.3270 -0.0115
  314MOL0     C42317   3.775   7.736   6.897  0.6341 -0.1999  0.0565
  314MOL0     C42318   3.837   7.610   6.955 -0.4098  0.5146 -1.1863
  314MOL0     C42319   3.977   7.603   7.004  0.0449  0.3960 -0.1063
  314MOL0     C42320   4.096   7.610   7.035  0.4632 -0.5054 -0.3182
  314MOL0     C42321   3.424   7.802   6.691  0.3358 -0.2204  0.6319
  314MOL0     C42322   3.293   7.833   6.686 -0.1177  0.0674 -0.3327
  314MOL0     H42323   2.865   8.069   6.618  1.1197  0.8594 -0.9856
  314MOL0     H42324   2.653   8.166   6.654 -0.2566 -0.0514 -1.5360
  314MOL0     H42325   2.500   8.413   6.616 -1.2483 -0.5908  0.2436
  314MOL0     H42326   2.473   8.260   6.711 -2.5708  0.4852 -1.2926
  314MOL0     H42327   2.332   8.371   6.864 -0.8609 -1.5013 -0.5470
  314MOL0     H42328   2.377   8.526   6.792 -0.6748 -0.3330  0.5688
  314MOL0     H42329   2.143   8.400   6.743 -0.2937 -0.3896  0.2874
  314MOL0     H42330   2.220   8.500   6.624 -1.4064  0.4818  0.1101
  314MOL0     H42331   2.335   8.298   6.518 -0.4836  1.6927  0.5114
  314MOL0     H42332   2.265   8.205   6.650 -0.6229 -0.7647 -0.3463
  314MOL0     H42333   2.133   8.175   6.457  0.0652  0.6813  0.3813
  314MOL0     H42334   2.043   8.295   6.569  1.4876  2.6838  1.5156
  314MOL0     H42335   2.123   8.479   6.430 -2.1425  1.0782 -1.1922
  314MOL0     H42336   2.224   8.373   6.340  0.4049  0.1353  1.0793
  314MOL0     H42337   2.014   8.259   6.252  3.2076 -0.2458  0.3892
  314MOL0     H42338   1.922   8.373   6.354  0.6456 -3.0805  2.0857
  314MOL0     H42339   2.067   8.429   6.089 -0.4653  3.3239 -0.5680
  314MOL0     H42340   2.077   8.557   6.194  1.5067 -1.0073  1.5759
  314MOL0     H42341   1.834   8.672   6.287  2.4719  0.3659 -1.4779
  314MOL0     H42342   1.555   8.765   6.211  4.2913 -0.2069  1.4185
  314MOL0     H42343   1.480   8.631   6.117 -0.0611  0.5827 -0.9286
  314MOL0     H42344   1.394   8.627   6.351  0.0399 -1.4837  1.3866
  314MOL0     H42345   1.556   8.651   6.414  1.5946 -2.1949  0.4002
  314MOL0     H42346   1.490   8.419   6.466 -4.5894 -2.4809 -1.2636
  314MOL0     H42347   1.604   8.408   6.319  0.0823  0.3564 -2.4829
  314MOL0     H42348   1.412   8.255   6.310  0.7600 -1.2380 -2.2332
  314MOL0     H42349   1.397   8.380   6.176  1.0871  2.1448  0.6270
  314MOL0     H42350   1.166   8.224   6.178  2.1266  0.3328  2.2558
  314MOL0     H42351   1.067   8.155   5.987  0.0392  0.6148  0.8821
  314MOL0     H42352   0.893   8.202   5.991 -1.3549  1.5391  0.3361
  314MOL0     H42353   1.010   8.282   5.883  1.5972 -1.0420 -0.0558
  314MOL0     H42354   0.538   8.516   6.045  2.2282 -1.2461 -2.0267
  314MOL0     H42355   0.344   8.572   5.911  0.2856 -0.0578  2.1056
  314MOL0     H42356   0.338   8.957   5.676 -1.8981  1.0426 -1.2069
  314MOL0     H42357   0.409   8.831   5.570  0.0523  1.2592 -0.6706
  314MOL0     H42358   0.205   8.939   5.466 -3.3063  1.2181  1.4558
  314MOL0     H42359   0.203   8.761   5.489 -3.7358 -2.7319  3.2919
  314MOL0     H42360   0.067   8.975   5.668  3.4664 -0.7775  2.2675
  314MOL0     H42361   0.033   8.802   5.670  0.8635  0.5389  1.6224
  314MOL0     H42362  -0.007   8.974   5.411  0.9385 -2.3265 -1.0815
  314MOL0     H42363  -0.047   8.805   5.435  1.5584  0.3221 -2.4264
  314MOL0     H42364  -0.181   9.061   5.552  1.0471 -0.6736  0.2803
  314MOL0     H42365  -0.205   8.900   5.627 -4.7744 -0.9953 -2.2740
  314MOL0     H42366  -0.274   8.981   5.343 -0.3137 -1.8930 -1.7500
  314MOL0     H42367  -0.268   8.816   5.397 -1.5670  0.7409 -1.7482
  314MOL0     H42368  -0.426   9.033   5.526  1.3697  0.1102  0.5471
  314MOL0     H42369  -0.458   8.861   5.553  0.0069 -0.6772 -0.1190
  314MOL0     H42370  -0.502   8.825   5.318 -1.1683 -1.8921  3.2391
  314MOL0     H42371  -0.496   9.002   5.275 -0.2448 -1.1840 -1.7676
  314MOL0     H42372   0.544   8.936   5.778 -4.3238  0.9248  0.6884
  314MOL0     H42373   0.733   8.864   5.902  0.3768  0.7283 -1.0092
  314MOL0     H42374   0.935   8.655   6.203  0.8314  1.8515 -3.3691
  314MOL0     H42375   1.120   8.601   6.361  0.3874  0.6834 -0.6101
  314MOL0     H42376   2.833   8.479   6.883 -1.9472 -1.5183  0.5244
  314MOL0     H42377   3.045   8.375   6.875 -1.6797  2.6504  0.2150
  314MOL0     H42378   3.327   8.175   6.665  0.6386 -0.5752  2.0051
  314MOL0     H42379   3.559   8.108   6.638 -1.1037  2.0718 -0.5243
  314MOL0     H42380   3.815   7.980   6.647  3.4886 -1.1289  1.3433
  314MOL0     H42381   3.719   7.978   6.792 -1.9851 -0.1006  0.5170
  314MOL0     H42382   3.936   7.849   6.803 -2.2253  3.4394 -0.8426
  314MOL0     H42383   3.853   7.717   6.698 -0.2694 -1.1625  1.0159
  314MOL0     H42384   3.668   7.715   6.884 -0.2724  4.5397 -2.1076
  314MOL0     H42385   3.781   7.806   6.981  1.5049 -1.0806  0.7673
  314MOL0     H42386   3.829   7.535   6.876  3.0887 -0.5096 -0.7609
  314MOL0     H42387   3.773   7.580   7.038  2.2474 -3.3071 -0.2454
  314MOL0     H42388   4.197   7.633   7.063 -0.2091  0.0970  1.8707
  314MOL0     H42389   3.450   7.697   6.696  3.5077  0.4893  1.2249
  314MOL0     H42390   3.223   7.750   6.679  1.0796 -0.8750 -1.7441
  315MOL0     O42391   0.193  10.961   6.313  0.0937 -0.3605 -0.5979
  315MOL0     C42392   0.265  10.875   6.358 -0.2472 -0.1713  0.2086
  315MOL0     O42393   0.235  10.740   6.359 -0.1403 -0.9968  0.2257
  315MOL0     C42394   0.122  10.714   6.280 -0.3050  0.5618 -0.4343
  315MOL0     C42395   0.125  10.628   6.165  0.5994  0.6839  0.5595
  315MOL0     C42396   0.002  10.597   6.096  0.1134 -0.2337  0.1680
  315MOL0     C42397  -0.118  10.660   6.131 -0.6063 -0.5660  0.5837
  315MOL0     O42398  -0.241  10.652   6.073 -0.2192  0.3101 -0.0912
  315MOL0     C42399  -0.243  10.594   5.944  0.6604  0.1014  0.7449
  315MOL0     C42400  -0.399  10.589   5.909 -0.7385  0.3375 -0.0855
  315MOL0     C42401  -0.428  10.488   5.799 -0.2851 -0.5152 -0.9749
  315MOL0     C42402  -0.572  10.447   5.801  0.2756  1.2760 -0.2301
  315MOL0     C42403  -0.670  10.557   5.747 -1.0635  0.5094  0.7342
  315MOL0     C42404  -0.815  10.552   5.804  0.2309  0.3222 -0.0372
  315MOL0     C42405  -0.873  10.415   5.786 -0.1110 -0.2123 -0.2272
  315MOL0     C42406  -0.899  10.386   5.637  0.6430 -0.0308  0.2781
  315MOL0     N42407  -0.993  10.279   5.613  0.0442  0.1174  0.6150
  315MOL0     C42408  -1.129  10.286   5.596 -0.6098  0.7909  0.2034
  315MOL0     C42409  -1.172  10.153   5.594 -0.0361  0.2586  0.1523
  315MOL0     C42410  -1.316  10.123   5.586  0.0270  1.2262 -0.5756
  315MOL0     C42411  -1.369  10.084   5.450 -0.6987  0.3776 -0.0650
  315MOL0     C42412  -1.511  10.040   5.465  0.7658  0.1790  0.0661
  315MOL0     C42413  -1.559   9.972   5.340  0.0573  0.1611  0.1945
  315MOL0     O42414  -1.602  10.077   5.254 -0.1855 -0.7864  0.0739
  315MOL0     C42415  -1.729  10.108   5.263  0.1753 -0.1355  0.3909
  315MOL0     C42416  -1.769  10.238   5.311 -0.0326 -0.0234 -0.0609
  315MOL0     C42417  -1.904  10.286   5.314 -0.8106 -0.2362 -0.0394
  315MOL0     C42418  -1.922  10.434   5.353  0.1218 -0.3141 -0.1140
  315MOL0     C42419  -2.008  10.190   5.284  0.1558 -0.8000 -1.1572
  315MOL0     C42420  -2.152  10.218   5.301  0.3044 -0.4612 -0.5268
  315MOL0     O42421  -2.204  10.342   5.256 -0.4070  0.8257 -0.3479
  315MOL0     C42422  -2.337  10.343   5.219 -0.0260  0.0296  0.1632
  315MOL0     C42423  -2.397  10.238   5.146 -0.0366 -0.4514  0.5782
  315MOL0     C42424  -2.514  10.264   5.084 -0.2374  0.5170 -0.1232
  315MOL0     C42425  -2.581  10.383   5.106  0.5544 -0.1238  0.4266
  315MOL0     O42426  -2.700  10.389   5.037  0.1786 -0.3441 -0.1959
  315MOL0     C42427  -2.813  10.471   5.072  0.3210 -0.0311  0.1508
  315MOL0     C42428  -2.945  10.419   5.010  0.3982  0.1374  0.4549
  315MOL0     C42429  -3.015  10.308   5.088  0.2189  0.1301 -1.1589
  315MOL0     C42430  -3.160  10.281   5.021 -0.2225 -0.1114 -0.4213
  315MOL0     C42431  -3.227  10.150   5.068 -0.6700  0.4659  0.3405
  315MOL0     C42432  -3.225  10.147   5.220 -0.0291 -0.4357  0.3771
  315MOL0     C42433  -3.324  10.046   5.288 -0.4536  0.5306 -0.4714
  315MOL0     C42434  -3.337  10.071   5.437  0.2776  0.3227 -0.5123
  315MOL0    Cl42435  -3.415   9.947   5.525 -0.2884 -0.5760 -0.0456
  315MOL0     C42436  -2.534  10.479   5.192 -0.3055  0.1919 -0.4963
  315MOL0     C42437  -2.400  10.463   5.245  0.1890  0.4617  0.4260
  315MOL0     O42438  -2.216  10.128   5.354  0.2895 -0.2294 -0.1784
  315MOL0     C42439  -1.967  10.069   5.240  0.1723 -0.7693 -0.8319
  315MOL0     C42440  -1.832  10.022   5.237  0.8613  0.6203  0.6560
  315MOL0     N42441  -1.064  10.072   5.581 -0.5266 -0.1083  0.5774
  315MOL0     N42442  -0.951  10.147   5.590 -0.1428 -0.3177  0.9819
  315MOL0     C42443  -0.118  10.749   6.232 -1.0008 -0.0795 -0.7626
  315MOL0     C42444  -0.005  10.762   6.317 -0.5268  0.0513 -0.3304
  315MOL0     C42445   0.385  10.925   6.434  0.3149  0.7548 -0.1204
  315MOL0     C42446   0.411  11.063   6.469  0.4905  0.5778  0.4515
  315MOL0     C42447   0.533  11.082   6.543  0.4572 -0.4327  0.7728
  315MOL0     C42448   0.627  10.995   6.580  0.7008  0.6731 -0.9232
  315MOL0     O42449   0.742  11.035   6.644  0.0280  0.5235 -0.4500
  315MOL0     C42450   0.843  10.935   6.651  0.7871  0.0456 -0.1936
  315MOL0     C42451   0.972  11.007   6.667 -0.8013 -0.1678 -0.0760
  315MOL0     C42452   0.978  11.125   6.777 -0.5786  0.1744 -0.4739
  315MOL0     C42453   0.954  11.265   6.718  0.3616  0.9871  0.5270
  315MOL0     C42454   1.058  11.324   6.628 -0.2101  0.4810  0.2186
  315MOL0     C42455   1.130  11.396   6.565  0.6377  0.2346 -0.0265
  315MOL0     C42456   0.597  10.862   6.538  0.1649 -0.1243  0.1066
  315MOL0     C42457   0.482  10.826   6.464 -0.5529  0.3042 -0.8585
  315MOL0     H42458   0.216  10.583   6.128  1.0918  0.6474  1.7489
  315MOL0     H42459   0.001  10.526   6.014 -0.0576 -0.8911  0.7351
  315MOL0     H42460  -0.185  10.658   5.878  0.6527  0.2507  0.8828
  315MOL0     H42461  -0.191  10.497   5.945  2.6940  0.9651 -3.2768
  315MOL0     H42462  -0.451  10.576   6.005  1.0236  0.9988  1.0234
  315MOL0     H42463  -0.443  10.680   5.869  0.7885  1.3714  0.4945
  315MOL0     H42464  -0.400  10.525   5.700  1.1814  2.3340  0.3810
  315MOL0     H42465  -0.372  10.395   5.809 -4.3074 -3.1736 -0.7552
  315MOL0     H42466  -0.570  10.351   5.749  0.3967  1.4481 -0.5489
  315MOL0     H42467  -0.600  10.428   5.905 -1.1448 -0.5608 -0.8950
  315MOL0     H42468  -0.631  10.658   5.763  1.7132 -0.5127  1.0396
  315MOL0     H42469  -0.675  10.552   5.638 -1.6039 -1.9685  0.8034
  315MOL0     H42470  -0.814  10.583   5.909 -2.6456  0.0139  0.1698
  315MOL0     H42471  -0.877  10.625   5.752  0.7668  0.3048 -0.7139
  315MOL0     H42472  -0.809  10.335   5.822 -0.5782 -1.4075 -1.9017
  315MOL0     H42473  -0.960  10.424   5.852 -0.1497  0.1532 -0.3236
  315MOL0     H42474  -0.795  10.369   5.608  1.4202  2.9065  0.9932
  315MOL0     H42475  -0.941  10.470   5.580  3.6977 -1.8328 -5.3391
  315MOL0     H42476  -1.190  10.374   5.578 -3.4875 -1.1475 -0.0576
  315MOL0     H42477  -1.330  10.045   5.661 -0.4612  1.7428 -0.1166
  315MOL0     H42478  -1.372  10.215   5.610  1.1839  1.7120  0.3489
  315MOL0     H42479  -1.315   9.999   5.407 -0.2223  0.3120  0.6288
  315MOL0     H42480  -1.360  10.168   5.380 -2.5870 -0.3861 -1.2924
  315MOL0     H42481  -1.578  10.124   5.485  2.6223  1.1122  2.9190
  315MOL0     H42482  -1.514   9.970   5.548 -1.5109 -0.3273 -0.3834
  315MOL0     H42483  -1.642   9.907   5.368  1.7272 -1.7596  0.9431
  315MOL0     H42484  -1.483   9.914   5.287  1.4439  0.9434  1.2718
  315MOL0     H42485  -1.701  10.311   5.354 -0.1631  0.5276 -0.7814
  315MOL0     H42486  -1.956  10.447   5.456  2.5149 -0.7700  0.8151
  315MOL0     H42487  -1.829  10.484   5.324 -1.7159  1.8567 -2.7640
  315MOL0     H42488  -2.000  10.470   5.286 -0.2827 -1.4829 -0.2987
  315MOL0     H42489  -2.351  10.145   5.113 -1.9650 -0.9461 -0.9264
  315MOL0     H42490  -2.557  10.198   5.010  4.2179 -3.3102  0.2573
  315MOL0     H42491  -2.822  10.489   5.180  2.7849  0.3392  0.3480
  315MOL0     H42492  -2.794  10.568   5.025 -1.5988 -1.2474 -3.5393
  315MOL0     H42493  -3.003  10.511   4.995  0.6113 -0.0425 -1.7871
  315MOL0     H42494  -2.917  10.381   4.912 -1.1283 -0.3952  0.2084
  315MOL0     H42495  -3.030  10.346   5.189 -0.7883 -0.3113 -1.1275
  315MOL0     H42496  -2.965  10.211   5.082 -3.0635 -1.8980  0.9913
  315MOL0     H42497  -3.230  10.365   5.032 -1.0966 -1.1751  3.6718
  315MOL0     H42498  -3.154  10.263   4.913  0.0565  0.2527 -0.4726
  315MOL0     H42499  -3.174  10.061   5.030  0.5835  0.1948  2.5286
  315MOL0     H42500  -3.328  10.148   5.028 -1.1562  0.5131  1.5245
  315MOL0     H42501  -3.123  10.124   5.253 -0.0076  0.0569  0.6609
  315MOL0     H42502  -3.251  10.247   5.254  0.6727  0.5921 -1.8498
  315MOL0     H42503  -3.281   9.945   5.285  0.2594  0.8549 -1.6685
  315MOL0     H42504  -3.422  10.057   5.242 -0.2339  3.9178 -0.3642
  315MOL0     H42505  -3.398  10.162   5.437  1.0062  0.8169 -0.5915
  315MOL0     H42506  -3.240  10.100   5.479  0.2479  0.9689 -0.8874
  315MOL0     H42507  -2.576  10.577   5.213  0.3390 -0.1524  2.9461
  315MOL0     H42508  -2.350  10.533   5.310  0.0700 -0.5458  1.6386
  315MOL0     H42509  -2.047   9.995   5.236  0.8123 -1.4384 -1.6352
  315MOL0     H42510  -1.806   9.927   5.192 -2.4623  1.4597 -3.8286
  315MOL0     H42511  -0.206  10.805   6.261 -1.2343 -1.7607  2.0741
  315MOL0     H42512  -0.013  10.827   6.403 -0.8070  1.6012 -1.4753
  315MOL0     H42513   0.348  11.145   6.435 -1.8051 -1.1191  0.3889
  315MOL0     H42514   0.545  11.187   6.569  2.2783  0.1147 -1.8208
  315MOL0     H42515   0.826  10.867   6.735 -0.6965  1.7445  0.9745
  315MOL0     H42516   0.851  10.877   6.558  1.5517 -1.5801  0.8463
  315MOL0     H42517   1.018  11.043   6.575 -1.6852  0.2506 -0.3595
  315MOL0     H42518   1.035  10.932   6.716 -0.0137 -1.4316 -2.8351
  315MOL0     H42519   1.077  11.115   6.820 -1.3428 -1.1393  1.0773
  315MOL0     H42520   0.916  11.106   6.865  1.2767 -4.1638  0.1404
  315MOL0     H42521   0.940  11.336   6.800 -2.1078 -0.8329  1.7939
  315MOL0     H42522   0.862  11.258   6.660  0.1788 -0.4877  0.9581
  315MOL0     H42523   1.197  11.455   6.507  0.9081  0.7011  0.7463
  315MOL0     H42524   0.660  10.783   6.578 -0.1380 -1.7047 -2.3223
  315MOL0     H42525   0.466  10.720   6.449 -2.8005  0.5980 -0.7967
  316MOL0     O42526   0.942   8.323   3.422  0.0730 -0.5056 -0.1490
  316MOL0     C42527   0.979   8.418   3.492 -1.1203  0.3009 -0.1731
  316MOL0     O42528   0.917   8.540   3.504  0.4446  0.2552 -0.7441
  316MOL0     C42529   0.793   8.561   3.454 -0.2798 -0.0151  0.3360
  316MOL0     C42530   0.765   8.692   3.407  0.1296  0.1317 -0.2180
  316MOL0     C42531   0.634   8.727   3.373 -0.8456 -0.2190  0.6627
  316MOL0     C42532   0.532   8.642   3.370 -0.4222  0.0075  0.1868
  316MOL0     O42533   0.404   8.674   3.329  0.5325  0.4180  0.0844
  316MOL0     C42534   0.358   8.802   3.293 -0.7383  0.4851  0.7293
  316MOL0     C42535   0.293   8.882   3.413  0.7459 -0.4661 -0.2298
  316MOL0     C42536   0.187   8.791   3.471 -0.8407 -0.0200 -0.4389
  316MOL0     C42537   0.119   8.861   3.592 -0.9806  0.5755 -0.6039
  316MOL0     C42538  -0.026   8.810   3.626  0.3392  0.2219  0.8882
  316MOL0     C42539  -0.105   8.911   3.713  0.0517 -0.4399 -0.2147
  316MOL0     C42540  -0.254   8.870   3.731 -0.3401  1.1114  0.2008
  316MOL0     C42541  -0.309   8.963   3.840 -0.3640  0.0959  0.4262
  316MOL0     N42542  -0.451   8.931   3.884  0.0213 -0.1940  0.3197
  316MOL0     C42543  -0.506   8.805   3.896 -0.6418 -0.0196 -0.5997
  316MOL0     C42544  -0.637   8.822   3.930 -0.2997  0.4233 -0.5147
  316MOL0     C42545  -0.734   8.717   3.955  0.0590 -0.0943  0.0353
  316MOL0     C42546  -0.787   8.738   4.099 -0.3908 -0.3106 -0.3668
  316MOL0     C42547  -0.914   8.652   4.125 -0.2213 -0.0864 -0.0215
  316MOL0     C42548  -1.030   8.685   4.040 -0.1095 -0.7888  0.1978
  316MOL0     O42549  -1.142   8.631   4.112  0.1974  0.3225  0.5946
  316MOL0     C42550  -1.260   8.631   4.034 -0.2112  0.8854  0.9526
  316MOL0     C42551  -1.344   8.520   4.034  0.4444  0.2516 -0.4498
  316MOL0     C42552  -1.471   8.519   3.965  0.5231 -0.1631  0.4376
  316MOL0     C42553  -1.552   8.395   3.979 -0.0069 -1.1013 -0.3681
  316MOL0     C42554  -1.514   8.642   3.906 -0.8657  0.2559  0.1187
  316MOL0     C42555  -1.651   8.656   3.843  0.3688 -0.2620  0.3781
  316MOL0     O42556  -1.711   8.771   3.863 -0.2860 -0.0963 -0.1452
  316MOL0     C42557  -1.836   8.790   3.819  0.5033  0.5031 -0.8271
  316MOL0     C42558  -1.946   8.808   3.908  0.1848  0.4166 -0.1276
  316MOL0     C42559  -2.077   8.822   3.846 -0.3381 -0.4313  0.1979
  316MOL0     C42560  -2.095   8.829   3.711  0.5255  0.2599  0.0393
  316MOL0     O42561  -2.229   8.851   3.682 -0.8958  0.4543  0.3483
  316MOL0     C42562  -2.268   8.814   3.549 -0.5262 -0.4067 -0.5369
  316MOL0     C42563  -2.413   8.793   3.566  0.1536 -0.2752 -0.4615
  316MOL0     C42564  -2.485   8.745   3.437  0.5980  0.6775 -0.0653
  316MOL0     C42565  -2.626   8.704   3.470  0.4119  0.4476 -0.1991
  316MOL0     C42566  -2.709   8.668   3.343  0.5554 -0.9980 -0.3021
  316MOL0     C42567  -2.834   8.593   3.388 -1.5374  0.4977 -0.0508
  316MOL0     C42568  -2.903   8.521   3.261  0.6588  0.7046 -0.0050
  316MOL0     C42569  -3.001   8.416   3.302 -0.6285  0.0281 -0.1436
  316MOL0    Cl42570  -3.101   8.375   3.152 -0.0485  0.4769  0.3075
  316MOL0     C42571  -1.984   8.843   3.630 -0.0322 -0.0438 -0.1590
  316MOL0     C42572  -1.859   8.813   3.682 -1.1924 -0.9222  0.1754
  316MOL0     O42573  -1.693   8.563   3.775 -0.0976 -0.1310 -0.6181
  316MOL0     C42574  -1.430   8.750   3.909  0.1815 -0.4262 -0.0410
  316MOL0     C42575  -1.307   8.743   3.971 -0.6706  0.3715  0.8290
  316MOL0     N42576  -0.652   8.963   3.948 -0.3110  0.0943 -0.1827
  316MOL0     N42577  -0.542   9.024   3.925 -0.2780  0.3220 -0.7647
  316MOL0     C42578   0.564   8.508   3.406 -0.4333 -0.4399  0.5397
  316MOL0     C42579   0.690   8.470   3.452  0.3113 -0.0016  0.2462
  316MOL0     C42580   1.115   8.406   3.551  0.7124 -0.5910 -0.4544
  316MOL0     C42581   1.211   8.340   3.488  0.2657 -0.6254 -0.3318
  316MOL0     C42582   1.335   8.325   3.543  0.6661  0.6795 -0.3804
  316MOL0     C42583   1.371   8.385   3.666 -0.6624  0.1364  0.2941
  316MOL0     O42584   1.489   8.366   3.740  0.5880 -0.2388  0.2622
  316MOL0     C42585   1.592   8.308   3.665  0.6712  0.4778  0.0801
  316MOL0     C42586   1.651   8.386   3.547 -0.4861  1.0710 -0.0463
  316MOL0     C42587   1.751   8.295   3.489  0.1659 -0.1521  0.9015
  316MOL0     C42588   1.839   8.383   3.405  0.0096  0.7614  0.1552
  316MOL0     C42589   1.962   8.324   3.360 -0.3588  0.8852 -0.8414
  316MOL0     C42590   2.066   8.262   3.321  0.3476  0.7727  0.1115
  316MOL0     C42591   1.274   8.450   3.735  0.2953  0.4299 -0.5443
  316MOL0     C42592   1.141   8.470   3.680 -1.2511 -0.1269  0.5222
  316MOL0     H42593   0.841   8.768   3.391  0.8456 -0.2128  1.3185
  316MOL0     H42594   0.618   8.829   3.340 -2.7917 -0.8905 -0.6853
  316MOL0     H42595   0.432   8.858   3.236 -0.0606 -1.4808 -0.4142
  316MOL0     H42596   0.281   8.780   3.218 -0.8009  2.8193  0.0561
  316MOL0     H42597   0.370   8.903   3.487 -1.3352  3.5301  1.0813
  316MOL0     H42598   0.239   8.966   3.369 -1.5760 -1.2243  0.9743
  316MOL0     H42599   0.117   8.759   3.394 -0.2079 -1.5130 -0.4315
  316MOL0     H42600   0.247   8.704   3.500  0.2778  1.0084  0.4517
  316MOL0     H42601   0.181   8.837   3.679 -1.8688 -3.5719 -0.9046
  316MOL0     H42602   0.104   8.966   3.563 -0.7166  0.6022 -0.6414
  316MOL0     H42603  -0.088   8.788   3.539  0.9007 -0.8500  0.7427
  316MOL0     H42604  -0.025   8.718   3.686  3.2638  0.3720  1.2274
  316MOL0     H42605  -0.047   8.923   3.805 -2.0135 -3.7675  1.7442
  316MOL0     H42606  -0.093   9.008   3.663  1.0562 -0.0234  0.8084
  316MOL0     H42607  -0.317   8.881   3.642  0.6670  2.6891 -0.3759
  316MOL0     H42608  -0.251   8.765   3.758  0.8768  1.3259  0.9983
  316MOL0     H42609  -0.305   9.070   3.815 -1.2133  0.0469  0.0496
  316MOL0     H42610  -0.246   8.953   3.929  1.0971 -0.3849 -0.6160
  316MOL0     H42611  -0.462   8.708   3.875 -0.9363 -1.1753  3.3648
  316MOL0     H42612  -0.813   8.728   3.880  1.9027  2.5494 -1.7213
  316MOL0     H42613  -0.675   8.629   3.928  1.7236  0.8237  0.4901
  316MOL0     H42614  -0.807   8.842   4.124  0.0772  0.2738 -2.2888
  316MOL0     H42615  -0.705   8.705   4.164  0.0170 -0.9413 -1.1705
  316MOL0     H42616  -0.938   8.650   4.231  0.6021 -1.7502  0.1683
  316MOL0     H42617  -0.886   8.547   4.110  1.5946  0.4076 -0.3751
  316MOL0     H42618  -1.019   8.645   3.939  1.2662  2.1480 -0.9283
  316MOL0     H42619  -1.037   8.793   4.026 -0.2572 -0.6920  1.0098
  316MOL0     H42620  -1.313   8.431   4.088 -0.3073 -0.1361 -0.6338
  316MOL0     H42621  -1.488   8.314   4.015  3.5952  2.5981  2.4766
  316MOL0     H42622  -1.638   8.405   4.047  0.1638 -3.9558  0.4086
  316MOL0     H42623  -1.599   8.363   3.886 -0.3577 -0.8855 -0.2686
  316MOL0     H42624  -1.946   8.812   4.016  1.2466  1.3832 -0.1429
  316MOL0     H42625  -2.152   8.835   3.922 -0.6595  0.1859 -0.2119
  316MOL0     H42626  -2.239   8.895   3.482 -0.2469 -0.8246 -0.9293
  316MOL0     H42627  -2.216   8.723   3.516  0.8348  0.0542  0.2513
  316MOL0     H42628  -2.430   8.731   3.654 -1.0610  1.9310  0.9350
  316MOL0     H42629  -2.454   8.893   3.581 -0.6288 -0.3604 -1.8074
  316MOL0     H42630  -2.434   8.657   3.398  0.8282 -0.2524  2.2235
  316MOL0     H42631  -2.477   8.827   3.364  2.3020 -0.0126 -0.6924
  316MOL0     H42632  -2.625   8.626   3.547  1.0183 -0.7184 -1.3553
  316MOL0     H42633  -2.671   8.792   3.518 -0.9168 -0.7089  0.7655
  316MOL0     H42634  -2.655   8.598   3.279  2.5520 -0.4625  0.7067
  316MOL0     H42635  -2.727   8.758   3.283  4.8062  0.5903  0.3791
  316MOL0     H42636  -2.784   8.514   3.445  0.9129  0.6773 -1.7780
  316MOL0     H42637  -2.897   8.661   3.446  0.3156  3.0428 -0.8232
  316MOL0     H42638  -2.829   8.480   3.192  0.7915 -0.0691  0.5866
  316MOL0     H42639  -2.958   8.603   3.213 -0.0987  0.1927 -0.0173
  316MOL0     H42640  -3.065   8.458   3.380 -1.7917 -0.2437 -0.9276
  316MOL0     H42641  -2.954   8.325   3.343 -2.9253 -2.0503 -1.8148
  316MOL0     H42642  -1.980   8.869   3.525 -0.5890  0.5384 -0.0424
  316MOL0     H42643  -1.770   8.809   3.620 -3.2436 -1.0127 -2.9979
  316MOL0     H42644  -1.461   8.844   3.864  0.9246 -0.1924 -0.0808
  316MOL0     H42645  -1.253   8.836   3.975 -0.2844  0.4582 -2.8627
  316MOL0     H42646   0.492   8.428   3.398  0.1415 -0.9675  0.5581
  316MOL0     H42647   0.703   8.369   3.489 -1.1867 -1.2145 -2.2764
  316MOL0     H42648   1.197   8.291   3.392  0.3387 -0.9105 -0.2000
  316MOL0     H42649   1.408   8.270   3.484  1.7952  1.1324  0.5513
  316MOL0     H42650   1.670   8.268   3.731 -0.4889 -1.6670  0.2730
  316MOL0     H42651   1.560   8.209   3.631  2.2583  0.2540 -0.8595
  316MOL0     H42652   1.701   8.472   3.594  1.7120 -0.7319  1.0931
  316MOL0     H42653   1.571   8.405   3.475 -0.8358 -5.5959 -1.9964
  316MOL0     H42654   1.721   8.214   3.422  0.4374 -0.3322  0.9965
  316MOL0     H42655   1.816   8.256   3.568 -0.8374 -0.2052  1.7120
  316MOL0     H42656   1.862   8.472   3.464 -1.5499  0.6216  1.0457
  316MOL0     H42657   1.782   8.420   3.319  2.3908  4.1959 -0.1081
  316MOL0     H42658   2.146   8.209   3.272  0.1283  0.7055 -0.1792
  316MOL0     H42659   1.283   8.492   3.834  0.9436 -1.5658  0.2862
  316MOL0     H42660   1.059   8.519   3.733 -0.2798  2.1515  0.0493
  317MOL0     O42661   7.407  10.263   8.835  0.0380 -0.1722  0.3600
  317MOL0     C42662   7.456  10.166   8.899  0.4966 -0.2735  0.8668
  317MOL0     O42663   7.398  10.090   8.988  0.2603  0.6171 -0.0164
  317MOL0     C42664   7.260  10.072   8.990 -0.3756  0.1450 -1.0909
  317MOL0     C42665   7.215  10.004   9.108 -0.6252  0.4575 -0.2356
  317MOL0     C42666   7.079   9.972   9.125 -0.2185  0.3020 -0.5669
  317MOL0     C42667   6.982  10.015   9.031 -0.5202 -0.0304 -0.0929
  317MOL0     O42668   6.850   9.985   9.061  0.3519  0.3358  0.1564
  317MOL0     C42669   6.748  10.069   9.005 -0.1185 -0.1065 -0.9913
  317MOL0     C42670   6.604  10.038   9.061 -0.2857 -0.2169  0.1146
  317MOL0     C42671   6.512  10.153   9.024  0.7386 -0.3607  0.3008
  317MOL0     C42672   6.362  10.120   9.015  0.5371  0.0713  0.6260
  317MOL0     C42673   6.297  10.238   8.943 -0.0269  0.4564 -0.5219
  317MOL0     C42674   6.149  10.222   8.902 -0.2155  0.6881 -0.4590
  317MOL0     C42675   6.093  10.347   8.830 -0.8617  0.4345 -0.0747
  317MOL0     C42676   5.942  10.318   8.801  0.3750 -0.4308 -0.1733
  317MOL0     N42677   5.863  10.307   8.920  0.4813  0.1089 -0.4278
  317MOL0     C42678   5.761  10.401   8.950 -1.3562 -1.0833 -0.2970
  317MOL0     C42679   5.699  10.351   9.056  0.6497  0.7944 -0.0610
  317MOL0     C42680   5.575  10.424   9.119 -0.1821  1.0792 -0.8336
  317MOL0     C42681   5.436  10.357   9.099 -0.4671 -0.0248  0.8306
  317MOL0     C42682   5.334  10.446   9.161  0.6647 -0.0751  0.0953
  317MOL0     C42683   5.206  10.368   9.157  0.3174  0.2360  0.0478
  317MOL0     O42684   5.097  10.447   9.206  0.4106 -0.2941  0.2076
  317MOL0     C42685   4.970  10.410   9.187  0.1088  0.0698  0.1644
  317MOL0     C42686   4.874  10.497   9.230  0.5305  0.9417  0.3890
  317MOL0     C42687   4.739  10.456   9.230  0.0867 -0.9250 -0.1778
  317MOL0     C42688   4.648  10.544   9.311 -0.1632 -0.2020  0.5371
  317MOL0     C42689   4.699  10.332   9.179 -1.0683  0.5313  0.3470
  317MOL0     C42690   4.559  10.286   9.163 -0.1910  0.8158 -0.9211
  317MOL0     O42691   4.455  10.366   9.202  0.2197 -0.1612 -0.0555
  317MOL0     C42692   4.324  10.331   9.189 -0.0837  0.3562  0.3490
  317MOL0     C42693   4.234  10.434   9.168  0.3179 -0.7511  0.4925
  317MOL0     C42694   4.094  10.426   9.152 -0.5507 -0.5383  0.5226
  317MOL0     C42695   4.036  10.301   9.160 -0.3601 -0.3634  0.2903
  317MOL0     O42696   3.897  10.305   9.149 -0.0065  0.4205 -0.4448
  317MOL0     C42697   3.828  10.198   9.224 -0.0805  0.4315 -0.0256
  317MOL0     C42698   3.698  10.244   9.271  0.2825 -0.2033 -0.8480
  317MOL0     C42699   3.676  10.342   9.391 -0.3107 -0.5373  0.5672
  317MOL0     C42700   3.526  10.349   9.413  0.7512  1.2330 -0.0291
  317MOL0     C42701   3.450  10.449   9.328  0.4116 -0.0845  0.0752
  317MOL0     C42702   3.304  10.476   9.368 -0.1548 -0.1129  0.3031
  317MOL0     C42703   3.280  10.584   9.483 -0.4027  0.1328  0.4559
  317MOL0     C42704   3.137  10.611   9.508  0.5927  0.1899 -0.1025
  317MOL0    Cl42705   3.061  10.450   9.551  0.2669 -0.4432  0.0659
  317MOL0     C42706   4.122  10.199   9.188  0.9225  0.0492  0.5051
  317MOL0     C42707   4.265  10.202   9.210  0.2926 -0.6423  1.2447
  317MOL0     O42708   4.540  10.182   9.104  0.0581 -0.4101  0.3125
  317MOL0     C42709   4.799  10.250   9.123  0.0326  0.4385 -0.4595
  317MOL0     C42710   4.930  10.285   9.143 -0.2200  0.0193  0.6366
  317MOL0     N42711   5.757  10.229   9.089  0.0184  0.0353  0.4438
  317MOL0     N42712   5.853  10.199   9.003  0.2104 -0.3694 -1.1069
  317MOL0     C42713   7.031  10.090   8.926 -0.2507 -0.0154  0.2418
  317MOL0     C42714   7.165  10.114   8.903  0.6290  0.2251 -0.6445
  317MOL0     C42715   7.597  10.164   8.903  0.0248  0.3711  0.8707
  317MOL0     C42716   7.664  10.243   8.814 -0.1091  1.3915  0.3664
  317MOL0     C42717   7.804  10.259   8.826 -0.3991  0.5961  0.3726
  317MOL0     C42718   7.885  10.180   8.909  0.1478 -0.7459 -0.8194
  317MOL0     O42719   8.023  10.183   8.907 -1.0122  0.0025  0.0689
  317MOL0     C42720   8.080  10.277   8.823 -0.4583  0.0838 -0.4421
  317MOL0     C42721   8.230  10.292   8.817 -0.4141 -0.7189  0.4264
  317MOL0     C42722   8.294  10.286   8.950 -0.1129 -0.2601  0.3714
  317MOL0     C42723   8.436  10.330   8.958 -0.4597  0.7789 -0.5160
  317MOL0     C42724   8.528  10.252   8.865  0.4769 -0.5741  0.0629
  317MOL0     C42725   8.601  10.196   8.783 -1.1467  1.2203 -0.1647
  317MOL0     C42726   7.816  10.095   8.992 -0.6062  0.7028  1.0354
  317MOL0     C42727   7.675  10.084   8.989  0.2182 -0.6365 -0.8849
  317MOL0     H42728   7.285   9.970   9.183 -0.6883 -0.1280 -0.4329
  317MOL0     H42729   7.041   9.924   9.214  0.6707  2.4425  1.0564
  317MOL0     H42730   6.770  10.171   9.036  2.1238 -1.7856  4.1582
  317MOL0     H42731   6.743  10.056   8.897  1.4043 -1.0996 -0.9810
  317MOL0     H42732   6.574   9.937   9.032 -0.6684  0.1037 -0.6144
  317MOL0     H42733   6.616  10.036   9.170 -0.5579 -2.1795  0.1428
  317MOL0     H42734   6.525  10.239   9.091  4.0059 -1.2984  1.0405
  317MOL0     H42735   6.541  10.193   8.926 -0.8099 -0.6108 -0.2971
  317MOL0     H42736   6.348  10.024   8.965 -2.3120 -0.6359  2.5507
  317MOL0     H42737   6.317  10.111   9.114 -2.3820  2.5297 -0.3380
  317MOL0     H42738   6.315  10.321   9.012 -2.2144 -0.3759  1.1708
  317MOL0     H42739   6.356  10.268   8.855  1.4566  2.6477  1.1148
  317MOL0     H42740   6.146  10.136   8.834  0.9201  2.2330 -2.5592
  317MOL0     H42741   6.097  10.202   8.997  0.9677 -0.0011  0.0721
  317MOL0     H42742   6.102  10.442   8.883 -0.0510 -0.1868  0.9321
  317MOL0     H42743   6.133  10.350   8.728 -3.5610  3.7382 -1.2435
  317MOL0     H42744   5.935  10.230   8.736  0.0558  0.2314 -1.0367
  317MOL0     H42745   5.905  10.405   8.747 -1.2186  0.2751  1.8967
  317MOL0     H42746   5.744  10.500   8.908  0.1356  0.0562  1.6199
  317MOL0     H42747   5.592  10.447   9.225 -0.9707  1.4370 -0.7816
  317MOL0     H42748   5.563  10.519   9.065 -0.5689  0.6858 -1.4538
  317MOL0     H42749   5.441  10.256   9.140  0.9273 -0.4406 -0.2617
  317MOL0     H42750   5.420  10.341   8.992  4.0403  1.0574 -0.1970
  317MOL0     H42751   5.320  10.539   9.105 -1.4769 -0.2989  0.1761
  317MOL0     H42752   5.371  10.483   9.257  0.1227  1.8874 -0.4048
  317MOL0     H42753   5.229  10.277   9.214  2.0571 -0.3759 -1.5326
  317MOL0     H42754   5.180  10.343   9.053 -1.1688 -0.0569  0.4644
  317MOL0     H42755   4.891  10.592   9.279  0.3351  2.0187 -1.5513
  317MOL0     H42756   4.565  10.576   9.246 -0.1397  0.7164  0.9401
  317MOL0     H42757   4.606  10.492   9.397 -0.9229 -0.2440  0.1519
  317MOL0     H42758   4.703  10.632   9.344  2.8506 -0.7257 -2.5704
  317MOL0     H42759   4.281  10.531   9.156  1.0063 -1.0703  0.5552
  317MOL0     H42760   4.036  10.515   9.129 -1.8000 -0.6756  2.8510
  317MOL0     H42761   3.820  10.117   9.151  2.6073  1.3000 -1.4058
  317MOL0     H42762   3.896  10.180   9.307  1.3610 -1.0485 -1.4630
  317MOL0     H42763   3.654  10.301   9.189  0.7478  0.8532 -0.3810
  317MOL0     H42764   3.650  10.148   9.292  0.2436  0.2930  1.6764
  317MOL0     H42765   3.709  10.442   9.364 -0.4986 -0.6368 -0.0343
  317MOL0     H42766   3.734  10.306   9.477 -0.4016 -1.1337  0.3832
  317MOL0     H42767   3.479  10.250   9.419  0.6151  1.3617  1.3624
  317MOL0     H42768   3.510  10.390   9.513  1.5082 -1.5421  1.3495
  317MOL0     H42769   3.437  10.395   9.234 -1.0946 -0.4082  0.4511
  317MOL0     H42770   3.496  10.542   9.293 -3.0408  1.4473 -0.8141
  317MOL0     H42771   3.244  10.497   9.280 -0.5179 -3.4281 -0.3826
  317MOL0     H42772   3.267  10.377   9.397  0.6359 -1.5254 -3.0207
  317MOL0     H42773   3.323  10.677   9.445  1.4097 -1.7576 -2.5832
  317MOL0     H42774   3.330  10.545   9.572 -2.3264 -1.0158  1.0993
  317MOL0     H42775   3.092  10.646   9.415 -3.9565 -1.1218  1.3436
  317MOL0     H42776   3.121  10.684   9.587 -2.2616 -1.1294  0.6732
  317MOL0     H42777   4.076  10.101   9.192  0.3966  0.2669 -0.0192
  317MOL0     H42778   4.325  10.115   9.237  1.1374  0.2848  2.4613
  317MOL0     H42779   4.777  10.144   9.108  1.7709 -0.4047  2.2087
  317MOL0     H42780   5.001  10.209   9.113  1.2470  1.8531 -0.7971
  317MOL0     H42781   6.963  10.138   8.856  1.6752  2.6661  0.0628
  317MOL0     H42782   7.185  10.177   8.817 -0.2461  3.1077  1.0932
  317MOL0     H42783   7.617  10.305   8.739  0.8072  1.8155  0.1258
  317MOL0     H42784   7.847  10.328   8.754 -0.7619 -0.5085 -0.9355
  317MOL0     H42785   8.062  10.256   8.717  2.6309  0.5141 -1.1719
  317MOL0     H42786   8.034  10.373   8.848  1.4777  0.7275  0.9243
  317MOL0     H42787   8.271  10.382   8.771 -0.5436 -0.0529  1.5875
  317MOL0     H42788   8.258  10.208   8.752 -1.2472  0.2257 -1.2165
  317MOL0     H42789   8.286  10.179   8.967  0.8474 -0.6813 -1.6201
  317MOL0     H42790   8.233  10.337   9.026  1.6590  0.2471  1.5298
  317MOL0     H42791   8.479  10.317   9.058 -0.0427  2.3412 -0.4617
  317MOL0     H42792   8.449  10.439   8.947 -1.3475  1.3170  2.6834
  317MOL0     H42793   8.650  10.139   8.707 -1.7906 -1.6372  1.4036
  317MOL0     H42794   7.882  10.043   9.060 -0.1239  0.1202  0.1413
  317MOL0     H42795   7.634  10.013   9.061  1.5288  0.0963  0.6676
  318MOL0     O42796   3.218   6.124   6.183  0.4361  0.2269 -0.0091
  318MOL0     C42797   3.300   6.198   6.233  0.6997  0.3633  0.0702
  318MOL0     O42798   3.286   6.243   6.361  0.0531 -0.5949  0.3351
  318MOL0     C42799   3.179   6.214   6.440  0.4898  0.0996 -0.0781
  318MOL0     C42800   3.200   6.147   6.558  0.0510  0.6641  0.0720
  318MOL0     C42801   3.101   6.123   6.659  0.2542  0.3343 -0.6095
  318MOL0     C42802   2.973   6.165   6.625  0.5059 -0.6013  0.0889
  318MOL0     O42803   2.862   6.152   6.712  0.7265 -0.1819  0.3687
  318MOL0     C42804   2.891   6.123   6.852  0.0359  0.0532 -0.2776
  318MOL0     C42805   2.770   6.159   6.944  0.4036 -0.1639 -0.0316
  318MOL0     C42806   2.628   6.122   6.902 -0.8566 -0.0861  0.6663
  318MOL0     C42807   2.530   6.166   7.007  0.4274 -0.1407 -1.1534
  318MOL0     C42808   2.386   6.129   6.957  0.1477 -0.4406 -0.2971
  318MOL0     C42809   2.274   6.176   7.060 -0.5057 -0.5236  0.2908
  318MOL0     C42810   2.139   6.156   7.001  0.3683 -0.0792  0.8980
  318MOL0     C42811   2.038   6.223   7.090 -0.0170  0.2717  0.3094
  318MOL0     N42812   1.916   6.210   7.016  0.0043  0.0365 -0.0721
  318MOL0     C42813   1.850   6.092   6.983  0.2467 -0.5885  0.1964
  318MOL0     C42814   1.726   6.132   6.956  0.4606  0.2149 -0.6784
  318MOL0     C42815   1.619   6.046   6.934  0.2588 -0.3302  0.6760
  318MOL0     C42816   1.523   6.096   6.827 -1.5854 -0.3567 -0.2440
  318MOL0     C42817   1.412   6.001   6.817  0.1671  0.1396  0.2595
  318MOL0     C42818   1.310   6.018   6.924  0.1253  0.8707 -0.2948
  318MOL0     O42819   1.238   6.137   6.889  0.8056 -0.4158 -0.1943
  318MOL0     C42820   1.135   6.167   6.973  1.1272  0.7788 -0.0540
  318MOL0     C42821   1.094   6.112   7.096 -0.5702 -0.0406 -0.1329
  318MOL0     C42822   0.970   6.141   7.158  0.1254  0.2194  0.9247
  318MOL0     C42823   0.944   6.066   7.277 -0.7971 -1.0966 -0.1827
  318MOL0     C42824   0.868   6.215   7.086 -0.9203 -0.3654  0.4336
  318MOL0     C42825   0.729   6.232   7.134 -0.5486  0.2566 -0.3311
  318MOL0     O42826   0.683   6.156   7.225 -0.3840 -0.4077 -0.9275
  318MOL0     C42827   0.553   6.167   7.255 -0.0446  0.2850  0.1493
  318MOL0     C42828   0.530   6.190   7.393  0.1692 -0.2232 -0.1683
  318MOL0     C42829   0.403   6.201   7.449  0.6621  0.1430  0.5600
  318MOL0     C42830   0.297   6.182   7.372  0.2912  0.1830 -0.1455
  318MOL0     O42831   0.174   6.213   7.431 -0.1036  0.2851 -0.5976
  318MOL0     C42832   0.055   6.212   7.345 -1.1808  0.6227 -0.4395
  318MOL0     C42833  -0.073   6.233   7.427 -0.1741 -0.2077 -0.3001
  318MOL0     C42834  -0.189   6.173   7.341 -0.4510  0.9329 -0.4197
  318MOL0     C42835  -0.321   6.238   7.392  0.8255 -0.1020 -0.9720
  318MOL0     C42836  -0.436   6.147   7.350 -0.4528 -0.0444  0.2901
  318MOL0     C42837  -0.557   6.155   7.434  0.4389 -1.2216  1.1751
  318MOL0     C42838  -0.666   6.061   7.380 -0.5981 -0.2284 -0.0479
  318MOL0     C42839  -0.801   6.068   7.455  0.9216  0.0319 -0.2659
  318MOL0    Cl42840  -0.880   6.217   7.413 -0.1944  0.2867 -0.3403
  318MOL0     C42841   0.318   6.157   7.234  0.1050  0.3806  0.5564
  318MOL0     C42842   0.447   6.139   7.176 -0.1963 -0.2966  0.3724
  318MOL0     O42843   0.664   6.325   7.090  0.0847  0.0215 -0.0464
  318MOL0     C42844   0.907   6.265   6.959  0.0138  0.3963 -0.0821
  318MOL0     C42845   1.036   6.244   6.910 -0.0944 -0.6734 -0.3915
  318MOL0     N42846   1.716   6.272   6.963  0.3136  0.1067 -0.0142
  318MOL0     N42847   1.833   6.322   7.000  0.2559 -0.1855 -0.6444
  318MOL0     C42848   2.950   6.222   6.499 -0.5270  0.1846 -0.2481
  318MOL0     C42849   3.044   6.251   6.406  0.8948  0.5221 -0.2936
  318MOL0     C42850   3.427   6.210   6.156 -1.0198 -0.1911  1.4980
  318MOL0     C42851   3.427   6.213   6.014  0.2251 -0.2888 -0.0560
  318MOL0     C42852   3.538   6.249   5.946 -0.1711 -0.0123 -0.5808
  318MOL0     C42853   3.664   6.282   6.005 -0.1504 -0.5139  0.6588
  318MOL0     O42854   3.767   6.320   5.925 -0.0557 -0.0820  0.2740
  318MOL0     C42855   3.896   6.341   5.974  0.9996  1.2114  0.5136
  318MOL0     C42856   3.972   6.202   5.974  0.3345  0.5583  0.0425
  318MOL0     C42857   4.127   6.212   5.999 -0.4119 -0.0850 -0.4106
  318MOL0     C42858   4.206   6.093   5.975  0.3309 -0.0504  0.3737
  318MOL0     C42859   4.180   5.990   6.072 -0.0721  0.7016  0.3608
  318MOL0     C42860   4.143   5.901   6.144 -0.1678  0.5576 -0.2379
  318MOL0     C42861   3.669   6.267   6.144  0.6544  0.3632 -0.2717
  318MOL0     C42862   3.552   6.242   6.220  0.9259 -0.1660  0.0498
  318MOL0     H42863   3.302   6.125   6.587  0.3151  0.7529 -0.7794
  318MOL0     H42864   3.135   6.072   6.748  2.4307  0.3279 -1.3777
  318MOL0     H42865   2.905   6.015   6.853 -1.6778 -0.2056 -0.4423
  318MOL0     H42866   2.979   6.174   6.891 -0.0289 -0.0286 -0.0224
  318MOL0     H42867   2.797   6.111   7.039 -0.7412 -0.6378  0.0769
  318MOL0     H42868   2.769   6.268   6.952 -0.1892 -0.2570  1.7361
  318MOL0     H42869   2.615   6.175   6.808  2.4371 -0.2947 -0.0248
  318MOL0     H42870   2.608   6.018   6.873 -0.4385  0.1301 -0.4170
  318MOL0     H42871   2.548   6.118   7.104 -3.5798  0.5207  0.1114
  318MOL0     H42872   2.547   6.274   7.018  0.8491 -0.3293  0.2016
  318MOL0     H42873   2.370   6.179   6.861  0.5190 -0.8906 -0.6034
  318MOL0     H42874   2.372   6.021   6.946 -0.9752 -0.3652  0.2687
  318MOL0     H42875   2.280   6.138   7.162 -1.8707  3.9764  2.2680
  318MOL0     H42876   2.288   6.284   7.063  0.2731 -0.5855 -0.5263
  318MOL0     H42877   2.141   6.193   6.898 -0.1358  0.9335  1.2364
  318MOL0     H42878   2.116   6.050   7.016  1.1394 -0.6223 -1.3934
  318MOL0     H42879   2.060   6.330   7.089  0.4667  0.1920 -1.5801
  318MOL0     H42880   2.046   6.186   7.192  1.7501  1.7754  0.7738
  318MOL0     H42881   1.884   5.989   6.985  0.3742 -0.5395  0.6295
  318MOL0     H42882   1.654   5.949   6.898 -1.4012 -1.6757  2.5099
  318MOL0     H42883   1.569   6.023   7.028 -1.2009 -1.0717 -0.2471
  318MOL0     H42884   1.581   6.088   6.735 -1.1887 -3.6649  0.1792
  318MOL0     H42885   1.484   6.194   6.855 -0.1184  0.5077 -1.1147
  318MOL0     H42886   1.453   5.900   6.823  2.7897  1.2167  3.1472
  318MOL0     H42887   1.362   6.012   6.720 -1.4758  0.3355  1.0961
  318MOL0     H42888   1.352   6.023   7.025  1.6108  0.8522 -0.8763
  318MOL0     H42889   1.236   5.938   6.917 -2.1569  2.6588  1.6915
  318MOL0     H42890   1.159   6.040   7.145 -2.1633  0.9312  3.8084
  318MOL0     H42891   0.884   5.976   7.256 -0.9670 -0.3055 -3.7608
  318MOL0     H42892   1.037   6.036   7.324 -1.7918 -1.6336  1.5225
  318MOL0     H42893   0.887   6.126   7.348 -0.2693  1.6440 -1.9360
  318MOL0     H42894   0.615   6.218   7.454 -1.7889 -0.2226  2.7382
  318MOL0     H42895   0.397   6.217   7.557  3.7963  3.1196  0.4559
  318MOL0     H42896   0.070   6.280   7.261 -0.1157 -2.2756 -2.7715
  318MOL0     H42897   0.050   6.111   7.304 -0.1156 -0.2835  1.4982
  318MOL0     H42898  -0.072   6.194   7.529 -0.0320  0.4055 -0.0632
  318MOL0     H42899  -0.092   6.340   7.438 -2.1346 -0.4565 -0.8026
  318MOL0     H42900  -0.180   6.067   7.367 -0.2509  0.7444 -1.2461
  318MOL0     H42901  -0.169   6.191   7.235 -1.4400  1.4768 -0.5261
  318MOL0     H42902  -0.314   6.239   7.502  0.0392 -0.3717 -0.9174
  318MOL0     H42903  -0.328   6.340   7.353  0.1863  0.6152  0.8994
  318MOL0     H42904  -0.401   6.044   7.358 -1.1631 -0.3520 -0.4098
  318MOL0     H42905  -0.459   6.168   7.245  1.0569  0.4010  0.0219
  318MOL0     H42906  -0.525   6.129   7.536  2.4360 -0.3480  0.8071
  318MOL0     H42907  -0.586   6.260   7.438  3.0308 -0.2869 -1.4393
  318MOL0     H42908  -0.627   5.961   7.398 -0.1244 -0.6526 -2.9048
  318MOL0     H42909  -0.688   6.068   7.273  0.9294  2.2776 -0.2784
  318MOL0     H42910  -0.777   6.067   7.562  0.4709  1.0069 -0.1411
  318MOL0     H42911  -0.865   5.983   7.430 -1.3456  1.3348  0.7390
  318MOL0     H42912   0.239   6.137   7.163  0.1861  0.7718  0.3536
  318MOL0     H42913   0.465   6.128   7.070  0.5638 -0.5404  0.5188
  318MOL0     H42914   0.827   6.325   6.916  0.4770  1.4390  0.4771
  318MOL0     H42915   1.062   6.290   6.815 -0.5315 -2.4842 -1.4194
  318MOL0     H42916   2.846   6.242   6.476 -0.4846  0.4984 -0.1701
  318MOL0     H42917   3.007   6.317   6.328 -0.8597 -0.1316 -0.0605
  318MOL0     H42918   3.334   6.192   5.962  0.1449  0.7121 -0.3471
  318MOL0     H42919   3.548   6.249   5.838  0.2476 -0.6250 -0.5409
  318MOL0     H42920   3.956   6.401   5.906  2.4767 -0.5612  0.1711
  318MOL0     H42921   3.908   6.402   6.064  0.4149  2.4741 -0.2337
  318MOL0     H42922   3.974   6.159   5.873 -1.7922 -0.3836  0.3588
  318MOL0     H42923   3.930   6.138   6.051  1.5676  0.3090  0.5312
  318MOL0     H42924   4.157   6.251   6.097 -0.2988 -0.3572 -0.3352
  318MOL0     H42925   4.166   6.297   5.942  1.8106 -0.3671  0.5752
  318MOL0     H42926   4.311   6.113   6.001  0.5185 -1.1172  0.4971
  318MOL0     H42927   4.193   6.054   5.874  1.5135 -1.6449  0.7868
  318MOL0     H42928   4.110   5.814   6.196 -2.0439  1.5807  0.3812
  318MOL0     H42929   3.761   6.285   6.199  0.1782 -0.0002  0.6659
  318MOL0     H42930   3.566   6.250   6.327  1.2678  0.5490 -0.0472
  319MOL0     O42931   0.589   8.042   2.826 -0.8079 -0.3129 -0.4218
  319MOL0     C42932   0.596   7.928   2.785 -0.0716  0.0658 -0.0978
  319MOL0     O42933   0.506   7.832   2.808 -0.0718 -0.3388 -0.2580
  319MOL0     C42934   0.373   7.844   2.852 -0.2013 -0.4057  0.6439
  319MOL0     C42935   0.313   7.958   2.907 -0.3257  0.4781  0.1367
  319MOL0     C42936   0.188   7.934   2.970  0.0071 -0.1192 -0.6106
  319MOL0     C42937   0.114   7.820   2.968  0.8643 -0.0308 -0.0787
  319MOL0     O42938  -0.017   7.821   3.024 -0.2498  0.3679 -0.1931
  319MOL0     C42939  -0.085   7.694   3.018  0.8085  0.3912  0.2336
  319MOL0     C42940  -0.239   7.714   3.057 -0.5301  0.5213  0.1454
  319MOL0     C42941  -0.302   7.596   3.133  0.5167 -0.1763 -0.0516
  319MOL0     C42942  -0.441   7.639   3.177 -1.4541  1.0425 -0.0406
  319MOL0     C42943  -0.507   7.530   3.260 -0.7723 -0.0542 -0.4245
  319MOL0     C42944  -0.654   7.559   3.289 -1.0670  0.6513 -0.6644
  319MOL0     C42945  -0.743   7.439   3.313  1.0486 -0.1039  0.3264
  319MOL0     C42946  -0.883   7.494   3.358 -0.4647 -0.5032 -0.2888
  319MOL0     N42947  -0.987   7.403   3.318  0.7184 -0.3971 -0.2191
  319MOL0     C42948  -1.026   7.292   3.388 -0.3776  0.4107  0.4850
  319MOL0     C42949  -1.152   7.269   3.355  0.7176 -0.2824 -0.1308
  319MOL0     C42950  -1.236   7.154   3.391 -0.1145  0.0744 -0.4569
  319MOL0     C42951  -1.331   7.181   3.520  0.1087  0.0855  1.0001
  319MOL0     C42952  -1.451   7.267   3.494 -0.1341 -0.1165  0.0736
  319MOL0     C42953  -1.517   7.226   3.359 -0.1515  0.9447 -0.3771
  319MOL0     O42954  -1.626   7.314   3.322  0.4471 -0.0824  0.0913
  319MOL0     C42955  -1.753   7.260   3.314  0.6935 -0.4685 -0.7225
  319MOL0     C42956  -1.788   7.133   3.270  0.2513  0.0573 -1.5209
  319MOL0     C42957  -1.928   7.082   3.285  1.0154 -1.0098 -0.4922
  319MOL0     C42958  -1.944   6.941   3.247  1.2866 -0.3338 -0.5552
  319MOL0     C42959  -2.027   7.178   3.320  0.8731  0.2787 -0.5377
  319MOL0     C42960  -2.173   7.157   3.315 -0.2370  0.1023  0.2492
  319MOL0     O42961  -2.257   7.267   3.331 -0.2788 -0.1104 -0.1256
  319MOL0     C42962  -2.382   7.265   3.274 -0.0115 -0.6375 -0.7657
  319MOL0     C42963  -2.483   7.160   3.285 -1.8651 -0.8389 -1.0679
  319MOL0     C42964  -2.617   7.181   3.240 -0.2897  0.3779  0.8023
  319MOL0     C42965  -2.660   7.301   3.184 -0.1660  0.2538  1.3091
  319MOL0     O42966  -2.798   7.321   3.152  0.4100 -0.3242  0.4381
  319MOL0     C42967  -2.835   7.436   3.074  0.4898  0.3044 -0.1183
  319MOL0     C42968  -2.987   7.459   3.048 -0.3513 -0.5043 -0.8426
  319MOL0     C42969  -3.019   7.605   2.995  0.1211  0.6290 -0.9149
  319MOL0     C42970  -3.164   7.619   2.950  0.5235 -0.1882  0.5247
  319MOL0     C42971  -3.204   7.733   2.855  0.3882  0.4671  0.7807
  319MOL0     C42972  -3.351   7.735   2.814  0.0777 -0.0644  0.1397
  319MOL0     C42973  -3.435   7.806   2.925 -0.1334 -0.4768  0.3043
  319MOL0     C42974  -3.588   7.806   2.896  0.6861 -0.1603 -0.3096
  319MOL0    Cl42975  -3.612   7.935   2.790 -0.3792 -0.1361  0.4607
  319MOL0     C42976  -2.562   7.402   3.174 -0.4260  0.0392 -0.0696
  319MOL0     C42977  -2.429   7.387   3.224  1.3139 -0.9259 -0.3870
  319MOL0     O42978  -2.208   7.040   3.294  0.0814  0.7003 -0.3318
  319MOL0     C42979  -1.982   7.309   3.358 -0.4672  0.5649  0.6058
  319MOL0     C42980  -1.845   7.349   3.359  0.6794  0.5340  0.4607
  319MOL0     N42981  -1.209   7.372   3.280 -0.0285 -0.2810 -0.3597
  319MOL0     N42982  -1.103   7.449   3.261  0.3571 -0.3805  0.3666
  319MOL0     C42983   0.178   7.710   2.916 -0.3775 -0.3840 -0.1873
  319MOL0     C42984   0.306   7.723   2.859  0.2271  0.8474 -0.8029
  319MOL0     C42985   0.718   7.895   2.714 -0.6330 -0.5427  0.0854
  319MOL0     C42986   0.814   7.998   2.710  0.3263  0.0935  0.8296
  319MOL0     C42987   0.931   7.972   2.638  1.1117 -0.8101 -0.3159
  319MOL0     C42988   0.956   7.850   2.572 -0.4668  0.7849 -0.0767
  319MOL0     O42989   1.082   7.829   2.514  0.9645 -0.4728  0.0020
  319MOL0     C42990   1.120   7.703   2.500 -0.4179  0.2387 -0.4092
  319MOL0     C42991   1.268   7.697   2.434  0.6660  0.2409 -0.9597
  319MOL0     C42992   1.286   7.761   2.301 -0.6079 -0.6014 -0.2756
  319MOL0     C42993   1.199   7.700   2.191  0.6336 -0.7880  0.6440
  319MOL0     C42994   1.247   7.744   2.057  0.7974  0.6273  0.2842
  319MOL0     C42995   1.263   7.770   1.936  0.7035  0.0599  0.2268
  319MOL0     C42996   0.852   7.756   2.572 -0.2929  0.1875 -0.0995
  319MOL0     C42997   0.734   7.781   2.643  0.0199 -0.9557  0.5631
  319MOL0     H42998   0.361   8.052   2.931  2.1064 -1.1404  1.9935
  319MOL0     H42999   0.132   8.018   3.010 -0.9443 -0.0710 -1.9683
  319MOL0     H43000  -0.075   7.642   2.922  1.3104 -0.4997  0.7573
  319MOL0     H43001  -0.040   7.631   3.096 -1.2642 -2.3219 -0.6111
  319MOL0     H43002  -0.247   7.809   3.110 -1.7374  1.7438 -2.0591
  319MOL0     H43003  -0.304   7.718   2.969  0.8413  1.0164 -0.8689
  319MOL0     H43004  -0.306   7.507   3.070  0.6113 -0.2162 -0.0034
  319MOL0     H43005  -0.244   7.559   3.218  0.5514 -0.8298 -0.3586
  319MOL0     H43006  -0.424   7.731   3.235 -0.2898  0.2900  0.8579
  319MOL0     H43007  -0.492   7.668   3.085 -1.2567 -0.9998 -0.8288
  319MOL0     H43008  -0.508   7.437   3.203  2.2292  0.4414 -1.4366
  319MOL0     H43009  -0.447   7.524   3.351  1.3077 -0.8252 -1.7691
  319MOL0     H43010  -0.655   7.622   3.378 -0.2884 -1.1772  0.7056
  319MOL0     H43011  -0.690   7.614   3.202 -0.4062  2.3596  0.1103
  319MOL0     H43012  -0.749   7.385   3.218 -3.0382 -1.7408  1.2763
  319MOL0     H43013  -0.700   7.371   3.387  0.0967 -0.1888  0.8290
  319MOL0     H43014  -0.898   7.595   3.321  1.0039  0.6122  1.9225
  319MOL0     H43015  -0.882   7.501   3.468  2.7056 -0.9529 -0.1918
  319MOL0     H43016  -0.957   7.237   3.450  0.5230  2.6171  1.5554
  319MOL0     H43017  -1.291   7.115   3.306 -1.3810  0.3344  0.2243
  319MOL0     H43018  -1.167   7.072   3.416 -0.2766 -0.5199 -1.8924
  319MOL0     H43019  -1.284   7.237   3.602 -0.4097 -0.1158  1.4442
  319MOL0     H43020  -1.361   7.082   3.555  0.8100 -0.5521 -0.1494
  319MOL0     H43021  -1.427   7.374   3.490  2.9331 -0.7221  0.4813
  319MOL0     H43022  -1.519   7.253   3.578 -0.2396 -0.0857 -0.0055
  319MOL0     H43023  -1.538   7.119   3.363 -1.1189  1.0913 -1.0914
  319MOL0     H43024  -1.450   7.246   3.275 -0.5571  2.0852 -0.4503
  319MOL0     H43025  -1.710   7.063   3.242  0.2731 -0.2041 -0.8469
  319MOL0     H43026  -1.850   6.886   3.261  0.1668 -1.9829  0.7695
  319MOL0     H43027  -2.013   6.883   3.308  0.3496  0.1295 -1.1611
  319MOL0     H43028  -1.975   6.919   3.144  3.4222 -1.7798 -0.9495
  319MOL0     H43029  -2.450   7.062   3.319  1.4450  0.8550  1.1264
  319MOL0     H43030  -2.691   7.104   3.262 -0.7416  0.3001 -0.8486
  319MOL0     H43031  -2.788   7.519   3.127 -0.6480 -0.1492  1.6952
  319MOL0     H43032  -2.790   7.431   2.975  2.3848 -1.1183  0.7653
  319MOL0     H43033  -3.026   7.383   2.978 -4.0996  0.8814 -0.4957
  319MOL0     H43034  -3.044   7.444   3.140 -0.2473 -0.0340 -0.7014
  319MOL0     H43035  -2.956   7.634   2.910  2.0039 -3.2875 -1.0739
  319MOL0     H43036  -2.988   7.672   3.075  1.2235  0.7947 -1.4650
  319MOL0     H43037  -3.191   7.526   2.898  0.4093  0.1294  0.0007
  319MOL0     H43038  -3.224   7.633   3.040 -0.7270 -1.8071 -0.0080
  319MOL0     H43039  -3.155   7.723   2.758  1.3720  4.3555  0.7071
  319MOL0     H43040  -3.190   7.835   2.894 -1.1071  0.9036  0.2146
  319MOL0     H43041  -3.359   7.791   2.720  0.3421 -2.0562 -1.1234
  319MOL0     H43042  -3.376   7.629   2.803 -0.1727 -0.0204  0.2645
  319MOL0     H43043  -3.401   7.909   2.941  1.6551 -1.3399  2.4576
  319MOL0     H43044  -3.418   7.753   3.019  1.1446  0.6104  0.7221
  319MOL0     H43045  -3.646   7.826   2.986 -2.1256 -1.9481 -1.5870
  319MOL0     H43046  -3.612   7.712   2.846  2.4576 -1.1725  0.6427
  319MOL0     H43047  -2.580   7.504   3.141 -0.8295 -0.0821 -0.2284
  319MOL0     H43048  -2.366   7.475   3.235 -0.4117  0.2435  0.9213
  319MOL0     H43049  -2.058   7.378   3.393 -1.1529 -1.2197  2.8813
  319MOL0     H43050  -1.816   7.440   3.410 -1.5859  2.5243 -1.5608
  319MOL0     H43051   0.129   7.613   2.904  1.1135 -1.1980  0.0621
  319MOL0     H43052   0.353   7.632   2.824  0.9063 -0.6499  3.4856
  319MOL0     H43053   0.806   8.090   2.767  1.6936  2.3063 -2.2635
  319MOL0     H43054   1.010   8.047   2.645 -1.2812  1.7375  4.0285
  319MOL0     H43055   1.126   7.658   2.599  4.8443  0.5959 -0.2712
  319MOL0     H43056   1.054   7.641   2.439 -0.3661 -0.6628  0.4386
  319MOL0     H43057   1.291   7.591   2.417  1.0553  0.6254 -3.0119
  319MOL0     H43058   1.338   7.747   2.503  1.4603  0.8648 -2.1825
  319MOL0     H43059   1.391   7.755   2.272 -0.2928 -0.1597  0.7343
  319MOL0     H43060   1.272   7.869   2.304 -0.4979 -0.6094  0.9190
  319MOL0     H43061   1.098   7.730   2.221  1.5140  1.1678  1.8420
  319MOL0     H43062   1.200   7.591   2.190 -2.6618 -0.9222  1.5037
  319MOL0     H43063   1.289   7.789   1.834  1.7379 -0.0603  0.4525
  319MOL0     H43064   0.855   7.658   2.526  1.4100 -0.2105  0.7685
  319MOL0     H43065   0.662   7.701   2.631 -4.5366  2.7768  0.3391
  320MOL0     O43066   7.275  11.242   6.385 -0.1705  0.4670  0.3588
  320MOL0     C43067   7.336  11.243   6.490  0.0882  0.8242  0.0256
  320MOL0     O43068   7.280  11.233   6.611  0.2767  0.3785 -0.1190
  320MOL0     C43069   7.150  11.206   6.624  0.0194  0.5882 -0.4577
  320MOL0     C43070   7.069  11.116   6.547 -1.0984 -0.6744 -0.6998
  320MOL0     C43071   6.940  11.075   6.571  0.6195 -0.0564 -0.6075
  320MOL0     C43072   6.877  11.127   6.684 -0.0552 -0.1379  0.1004
  320MOL0     O43073   6.748  11.097   6.721  0.2593 -0.2380  0.3030
  320MOL0     C43074   6.684  10.980   6.665 -0.3300  0.2491 -0.0511
  320MOL0     C43075   6.555  10.960   6.754 -0.4498 -0.8228  0.5973
  320MOL0     C43076   6.585  10.910   6.896  0.6748 -0.1772 -0.3735
  320MOL0     C43077   6.446  10.915   6.971 -0.5325  1.0653  0.0847
  320MOL0     C43078   6.432  10.836   7.106 -0.2847 -0.0316  0.3702
  320MOL0     C43079   6.513  10.704   7.106 -0.2236  0.0153  0.6092
  320MOL0     C43080   6.480  10.604   7.215  0.2553  0.2162 -0.0732
  320MOL0     C43081   6.545  10.468   7.192 -0.7647  0.4855 -0.0437
  320MOL0     N43082   6.518  10.359   7.288 -0.4439  0.3514 -0.6872
  320MOL0     C43083   6.475  10.378   7.416  0.2518  1.0500 -0.0178
  320MOL0     C43084   6.442  10.254   7.464  0.8730 -0.5225  0.4228
  320MOL0     C43085   6.380  10.232   7.606  0.0753  0.0530 -0.2401
  320MOL0     C43086   6.231  10.242   7.595  1.1688 -0.6990 -0.1835
  320MOL0     C43087   6.185  10.137   7.498 -0.0472 -0.6545  0.7258
  320MOL0     C43088   6.038  10.096   7.505 -0.1718  0.2889 -0.2768
  320MOL0     O43089   6.027   9.973   7.584  0.1170  0.4134  0.3636
  320MOL0     C43090   5.907   9.903   7.574 -0.0199 -0.1727 -0.2777
  320MOL0     C43091   5.907   9.783   7.651  0.7744  1.3599 -0.6249
  320MOL0     C43092   5.786   9.705   7.657 -0.2616  0.2719  0.7603
  320MOL0     C43093   5.796   9.569   7.727  0.5956 -0.5050 -0.1805
  320MOL0     C43094   5.669   9.739   7.573 -1.0739  0.0029  0.0979
  320MOL0     C43095   5.546   9.652   7.561  0.1240  0.0222  0.0336
  320MOL0     O43096   5.467   9.668   7.459  0.0400  0.2824  0.1643
  320MOL0     C43097   5.360   9.593   7.442  0.2170 -0.4865 -0.4317
  320MOL0     C43098   5.239   9.650   7.395 -0.4887 -0.2063  0.0370
  320MOL0     C43099   5.118   9.584   7.369  0.2484  1.4790 -0.3840
  320MOL0     C43100   5.123   9.444   7.379 -0.0211  0.3393  0.4538
  320MOL0     O43101   5.025   9.351   7.349  0.1390 -0.2713  0.0076
  320MOL0     C43102   4.893   9.396   7.387  0.4239  0.2054  0.6858
  320MOL0     C43103   4.802   9.273   7.408 -0.3982 -0.4092 -0.3577
  320MOL0     C43104   4.767   9.204   7.276 -0.1038 -0.6188  0.5458
  320MOL0     C43105   4.648   9.119   7.290 -0.1020  0.6086 -0.1697
  320MOL0     C43106   4.527   9.204   7.301 -0.1697 -0.4429 -0.4799
  320MOL0     C43107   4.403   9.122   7.332  0.5636 -0.2517 -0.8535
  320MOL0     C43108   4.280   9.217   7.295  0.7956  0.2952  0.1745
  320MOL0     C43109   4.156   9.140   7.339 -1.1016 -0.3493  1.1093
  320MOL0    Cl43110   4.110   9.009   7.232 -0.0544  0.5363 -0.5808
  320MOL0     C43111   5.244   9.382   7.408 -0.5405 -0.6117 -0.7945
  320MOL0     C43112   5.355   9.449   7.441  0.0921 -0.2651  0.5968
  320MOL0     O43113   5.526   9.583   7.662  0.3535  0.4163 -0.1374
  320MOL0     C43114   5.675   9.852   7.491 -0.6181 -0.0087 -0.8942
  320MOL0     C43115   5.792   9.932   7.493 -0.4740 -1.0060 -0.2870
  320MOL0     N43116   6.451  10.170   7.358 -0.2087  0.0634  0.1080
  320MOL0     N43117   6.506  10.232   7.260 -0.4195 -0.0678  0.3266
  320MOL0     C43118   6.951  11.202   6.772  0.3646 -0.1649  0.3826
  320MOL0     C43119   7.082  11.244   6.748 -0.3265 -0.0571 -0.1593
  320MOL0     C43120   7.484  11.249   6.467 -0.0720  0.5523 -0.2257
  320MOL0     C43121   7.543  11.226   6.340 -0.8273  0.7092  0.1938
  320MOL0     C43122   7.676  11.232   6.325 -0.8710  0.5451  0.6240
  320MOL0     C43123   7.764  11.254   6.426 -0.4998 -0.3043 -0.8363
  320MOL0     O43124   7.906  11.250   6.407  0.8017  0.3895 -0.5853
  320MOL0     C43125   7.954  11.211   6.281 -0.4000  0.2131  0.1831
  320MOL0     C43126   8.113  11.214   6.280  0.0114 -0.6345 -0.2917
  320MOL0     C43127   8.159  11.357   6.295 -0.8653 -0.6572 -0.0653
  320MOL0     C43128   8.310  11.380   6.307  0.2397 -0.1822  0.2939
  320MOL0     C43129   8.384  11.282   6.388 -0.2599  0.0154 -0.1697
  320MOL0     C43130   8.445  11.190   6.441 -0.3916  0.4662 -0.3515
  320MOL0     C43131   7.711  11.279   6.552 -0.0420  0.4059  0.4415
  320MOL0     C43132   7.570  11.269   6.571 -0.6594  0.2281 -0.8553
  320MOL0     H43133   7.121  11.094   6.454 -0.4819 -0.5150 -0.3970
  320MOL0     H43134   6.888  11.004   6.507  0.6685 -1.9542  1.3636
  320MOL0     H43135   6.655  10.998   6.561  0.3325  1.4034 -0.0553
  320MOL0     H43136   6.749  10.892   6.661  1.9939  1.9173 -2.3845
  320MOL0     H43137   6.517  11.062   6.755  2.0932  0.1828  0.9827
  320MOL0     H43138   6.482  10.892   6.709 -0.0148  0.7853 -2.8532
  320MOL0     H43139   6.629  10.810   6.886  3.1797  0.8076  0.0307
  320MOL0     H43140   6.647  10.982   6.948  0.5014  0.3109 -0.8302
  320MOL0     H43141   6.433  11.022   6.985 -0.3443  0.7947  2.7164
  320MOL0     H43142   6.367  10.876   6.905  1.7102 -4.0290 -0.0785
  320MOL0     H43143   6.471  10.901   7.185 -0.9161  2.5343 -1.2950
  320MOL0     H43144   6.326  10.813   7.120 -1.0186  0.5264 -3.3091
  320MOL0     H43145   6.506  10.652   7.010  3.2641 -3.8394  2.1376
  320MOL0     H43146   6.621  10.720   7.116  0.2254 -1.1194 -1.7731
  320MOL0     H43147   6.499  10.648   7.314 -1.8272  3.0257 -0.7894
  320MOL0     H43148   6.372  10.590   7.207  0.5761 -1.2538 -2.5772
  320MOL0     H43149   6.653  10.482   7.204 -0.8717 -0.0234  1.8536
  320MOL0     H43150   6.523  10.437   7.090 -0.9597  3.0674 -0.8635
  320MOL0     H43151   6.456  10.471   7.469 -3.1446  0.1338  0.5931
  320MOL0     H43152   6.408  10.132   7.640 -1.9674  0.0764  1.6967
  320MOL0     H43153   6.413  10.303   7.682 -0.3135  1.2322 -1.1540
  320MOL0     H43154   6.199  10.339   7.555  2.0289 -0.4171 -0.2067
  320MOL0     H43155   6.175  10.221   7.687 -1.4856  0.1911 -1.4850
  320MOL0     H43156   6.254  10.053   7.513 -0.4316 -1.4008 -1.3297
  320MOL0     H43157   6.215  10.157   7.394  1.7429 -1.2234  1.0923
  320MOL0     H43158   6.014  10.067   7.403 -1.0977 -1.3298  0.3616
  320MOL0     H43159   5.966  10.175   7.531 -1.6244  0.2049 -3.5507
  320MOL0     H43160   5.997   9.745   7.698  1.7311  2.7808 -1.2174
  320MOL0     H43161   5.734   9.575   7.817 -0.5340  5.0218 -0.9632
  320MOL0     H43162   5.769   9.491   7.656  3.0303  0.6509 -2.5595
  320MOL0     H43163   5.900   9.549   7.751  0.8696 -1.0288 -1.7167
  320MOL0     H43164   5.237   9.758   7.394 -0.1374 -0.1903  0.5262
  320MOL0     H43165   5.022   9.633   7.357 -0.2717  0.1116 -2.2729
  320MOL0     H43166   4.905   9.462   7.473  0.2345  1.8302 -0.4741
  320MOL0     H43167   4.843   9.442   7.301 -1.9876 -3.1225  0.1507
  320MOL0     H43168   4.844   9.197   7.474 -0.4669 -1.1557 -1.1528
  320MOL0     H43169   4.712   9.321   7.448 -0.3288  0.6191 -1.4039
  320MOL0     H43170   4.855   9.142   7.254  0.4743  0.5504 -0.5967
  320MOL0     H43171   4.757   9.271   7.190  0.7268 -1.1204  0.0406
  320MOL0     H43172   4.634   9.052   7.205 -4.1439 -1.7602  2.0487
  320MOL0     H43173   4.657   9.064   7.384  0.3119  0.6746 -0.1681
  320MOL0     H43174   4.504   9.236   7.199 -0.8226 -1.0655 -0.5365
  320MOL0     H43175   4.526   9.290   7.369  0.8191  0.2371 -1.2910
  320MOL0     H43176   4.395   9.031   7.272 -0.6002 -0.6297 -0.1622
  320MOL0     H43177   4.389   9.091   7.436 -3.8258 -2.2053 -1.7537
  320MOL0     H43178   4.276   9.231   7.187  0.7425 -1.4903 -0.0852
  320MOL0     H43179   4.291   9.314   7.345 -1.7636  0.3936  0.6690
  320MOL0     H43180   4.076   9.215   7.340 -0.7799  0.2347 -2.8758
  320MOL0     H43181   4.162   9.100   7.441 -1.8268 -0.2159  1.2109
  320MOL0     H43182   5.238   9.274   7.410 -0.3299 -0.6195  1.1938
  320MOL0     H43183   5.443   9.396   7.475 -0.2476 -1.0553  0.2780
  320MOL0     H43184   5.591   9.878   7.428  2.2185  3.8147 -3.5774
  320MOL0     H43185   5.802  10.027   7.440 -0.5423 -0.6732  0.2868
  320MOL0     H43186   6.900  11.239   6.860 -0.1040  3.4737 -1.2133
  320MOL0     H43187   7.146  11.295   6.819 -0.4105 -2.1150  1.4828
  320MOL0     H43188   7.479  11.199   6.256 -1.8343  1.4497  0.6987
  320MOL0     H43189   7.713  11.226   6.223  1.2239  1.6855  1.2543
  320MOL0     H43190   7.918  11.110   6.257 -1.3267 -0.0391  2.4138
  320MOL0     H43191   7.920  11.283   6.205  0.9392  1.4782  0.7396
  320MOL0     H43192   8.144  11.165   6.187  0.5606 -0.1603 -0.3665
  320MOL0     H43193   8.149  11.156   6.366  0.2068 -0.5871 -0.3403
  320MOL0     H43194   8.111  11.393   6.386  0.6368  0.1221  0.4524
  320MOL0     H43195   8.114  11.408   6.210 -0.5115 -0.5625 -0.1959
  320MOL0     H43196   8.330  11.480   6.346  1.3309 -0.3802  0.2761
  320MOL0     H43197   8.352  11.359   6.208  3.0646  0.1434  1.3328
  320MOL0     H43198   8.489  11.108   6.496 -0.0354  1.0890  0.3058
  320MOL0     H43199   7.786  11.305   6.626  0.1714  1.8865 -0.2583
  320MOL0     H43200   7.531  11.274   6.672 -0.3581 -3.0154 -0.4550
  321MOL0     O43201   5.048  11.017   9.391  0.1381 -0.0038 -0.2873
  321MOL0     C43202   5.065  10.981   9.505 -0.3944 -0.3542  1.0962
  321MOL0     O43203   4.973  10.911   9.580  0.1361  0.2262  0.1313
  321MOL0     C43204   4.842  10.925   9.532  0.0169  0.0467 -0.6171
  321MOL0     C43205   4.752  10.988   9.618 -0.2475 -0.1433 -0.7791
  321MOL0     C43206   4.623  11.016   9.577 -0.4339 -1.1063 -0.6167
  321MOL0     C43207   4.569  10.971   9.458 -0.3318 -0.4519  0.2085
  321MOL0     O43208   4.438  10.992   9.414  0.1381 -0.8175  0.2735
  321MOL0     C43209   4.351  10.874   9.414 -0.1883 -0.3790  0.1123
  321MOL0     C43210   4.211  10.916   9.349 -0.4614 -1.1100 -0.0462
  321MOL0     C43211   4.099  10.805   9.358  0.2439  0.1279  0.3489
  321MOL0     C43212   3.960  10.842   9.303  0.0305 -0.0784 -0.9072
  321MOL0     C43213   3.964  10.821   9.152  0.3420  0.0960 -0.0324
  321MOL0     C43214   3.824  10.835   9.079 -0.2728  0.2301 -0.2114
  321MOL0     C43215   3.754  10.964   9.116 -0.1192  0.7256  0.5412
  321MOL0     C43216   3.671  11.022   8.999  0.5283 -0.2457  0.2822
  321MOL0     N43217   3.535  10.982   9.020  0.9442 -0.2153 -0.4048
  321MOL0     C43218   3.483  10.855   9.003 -0.1367  0.0348 -0.1880
  321MOL0     C43219   3.357  10.864   9.051 -0.4602  0.1634 -0.1711
  321MOL0     C43220   3.268  10.740   9.056 -0.7886 -0.3246 -0.5530
  321MOL0     C43221   3.178  10.737   8.932 -0.3378  0.0818 -0.1195
  321MOL0     C43222   3.149  10.593   8.889  0.5899  0.0643 -0.7053
  321MOL0     C43223   3.245  10.520   8.799  0.0107  0.1443  1.3944
  321MOL0     O43224   3.356  10.465   8.880 -0.6594 -0.0469 -0.3059
  321MOL0     C43225   3.493  10.480   8.854 -0.7211  0.0734  0.4483
  321MOL0     C43226   3.535  10.499   8.722 -0.8292  1.0475  0.1637
  321MOL0     C43227   3.667  10.511   8.681  0.3286  0.5412 -0.0663
  321MOL0     C43228   3.680  10.530   8.530  0.3403 -0.1889 -0.1190
  321MOL0     C43229   3.771  10.507   8.777 -0.6232  0.1373 -0.5324
  321MOL0     C43230   3.918  10.527   8.759  0.2986 -0.4642  0.1419
  321MOL0     O43231   3.996  10.546   8.866  0.7555  0.4481  0.4896
  321MOL0     C43232   4.125  10.569   8.839  0.4075  0.7451  0.3093
  321MOL0     C43233   4.204  10.462   8.811 -0.1963  0.3606  0.0717
  321MOL0     C43234   4.344  10.481   8.790 -0.7788 -0.8338 -0.4477
  321MOL0     C43235   4.401  10.607   8.806  0.1163  0.5936  0.6615
  321MOL0     O43236   4.538  10.618   8.799  0.4937  0.2505  0.2961
  321MOL0     C43237   4.604  10.717   8.871  0.1300 -0.2682  0.1233
  321MOL0     C43238   4.748  10.685   8.859  0.9903  0.4924 -0.1240
  321MOL0     C43239   4.827  10.783   8.960  0.1907  0.1928  0.0294
  321MOL0     C43240   4.980  10.755   8.962  0.2026  0.5805  0.4199
  321MOL0     C43241   5.038  10.847   9.076  0.2836 -0.9318  0.0289
  321MOL0     C43242   5.177  10.819   9.125 -0.5993  0.4450  0.5770
  321MOL0     C43243   5.282  10.833   9.011  0.3013  0.5874  0.5032
  321MOL0     C43244   5.326  10.978   8.994 -0.0465  0.5944  0.3306
  321MOL0    Cl43245   5.459  10.988   8.866  0.2029  0.0120  0.2015
  321MOL0     C43246   4.317  10.711   8.844 -0.6203  0.5541  0.7049
  321MOL0     C43247   4.183  10.688   8.864 -0.3842  0.8927  0.1032
  321MOL0     O43248   3.958  10.516   8.637  0.2261  0.1156  0.1527
  321MOL0     C43249   3.724  10.504   8.912  0.9453 -0.3728 -0.2487
  321MOL0     C43250   3.593  10.474   8.950  0.2927  0.0546  0.5275
  321MOL0     N43251   3.334  10.991   9.100 -0.7786 -0.6798 -0.3702
  321MOL0     N43252   3.438  11.060   9.082 -0.7142  0.0278 -0.4811
  321MOL0     C43253   4.650  10.891   9.382 -0.2357 -1.3669  0.8373
  321MOL0     C43254   4.787  10.874   9.413  0.7157 -0.1241 -0.3448
  321MOL0     C43255   5.189  11.032   9.570  0.0048  0.3310  0.1817
  321MOL0     C43256   5.290  11.091   9.490 -0.3503  0.3468  0.1462
  321MOL0     C43257   5.409  11.150   9.546  0.6457 -0.2169  0.0075
  321MOL0     C43258   5.423  11.143   9.689  0.7474 -0.4435 -0.5427
  321MOL0     O43259   5.536  11.193   9.759  0.8006 -0.2800 -0.0457
  321MOL0     C43260   5.647  11.237   9.681  1.0709 -0.7493 -0.0869
  321MOL0     C43261   5.736  11.296   9.793 -0.8059 -0.0568 -0.6696
  321MOL0     C43262   5.889  11.273   9.775  0.6922  0.2100  0.5063
  321MOL0     C43263   5.940  11.321   9.628 -0.4421  0.3690  0.0796
  321MOL0     C43264   6.054  11.419   9.634 -0.0649  0.5323 -0.3872
  321MOL0     C43265   6.147  11.497   9.657  0.2638  0.1634  0.1557
  321MOL0     C43266   5.312  11.090   9.761  0.0825 -0.5754 -0.2385
  321MOL0     C43267   5.199  11.037   9.705  1.1563 -1.1459  0.1993
  321MOL0     H43268   4.794  11.032   9.708  1.6921  0.9759 -2.1622
  321MOL0     H43269   4.558  11.078   9.637  0.8633 -0.3244  0.0425
  321MOL0     H43270   4.401  10.795   9.357 -0.0487  0.5144 -1.0628
  321MOL0     H43271   4.344  10.837   9.516  2.7037 -0.2729  0.4136
  321MOL0     H43272   4.182  11.002   9.411  2.5706 -1.1035  1.5453
  321MOL0     H43273   4.240  10.947   9.248  0.5993  0.5654  0.7167
  321MOL0     H43274   4.135  10.711   9.317  2.9619  0.4511  1.7760
  321MOL0     H43275   4.085  10.783   9.464  2.1942 -1.4236  0.3508
  321MOL0     H43276   3.890  10.777   9.355  1.1046 -0.7097 -0.2015
  321MOL0     H43277   3.936  10.945   9.330 -1.7068 -1.4471  3.6227
  321MOL0     H43278   4.040  10.883   9.104  0.8300 -0.5753 -0.1555
  321MOL0     H43279   3.996  10.721   9.121  0.6027  1.2682 -4.1511
  321MOL0     H43280   3.837  10.823   8.971 -0.0197 -1.1714 -0.0411
  321MOL0     H43281   3.764  10.753   9.120 -0.2076  0.0333 -0.5067
  321MOL0     H43282   3.688  10.948   9.202 -0.2002  1.0895  0.5474
  321MOL0     H43283   3.833  11.037   9.138  0.2292  0.0322  1.6754
  321MOL0     H43284   3.716  10.993   8.904  1.8760 -1.8951  1.3648
  321MOL0     H43285   3.677  11.131   9.009 -1.6023 -0.0928  0.2619
  321MOL0     H43286   3.538  10.779   8.948 -1.8038 -0.3849 -1.3469
  321MOL0     H43287   3.326  10.647   9.051  2.6158  1.6058 -0.4230
  321MOL0     H43288   3.207  10.749   9.146 -0.5628 -0.6273 -0.3645
  321MOL0     H43289   3.232  10.791   8.853 -1.0988  1.0300 -0.0116
  321MOL0     H43290   3.080  10.776   8.959 -0.1194 -0.7874  2.1517
  321MOL0     H43291   3.056  10.591   8.831  0.4212 -2.1673 -0.4598
  321MOL0     H43292   3.130  10.537   8.981 -0.0854  1.4510  0.0455
  321MOL0     H43293   3.281  10.574   8.711  1.1985 -0.9108  1.2060
  321MOL0     H43294   3.201  10.428   8.759  1.5194  0.3907 -1.0453
  321MOL0     H43295   3.458  10.490   8.645 -0.0604  0.5132 -0.5721
  321MOL0     H43296   3.761  10.601   8.509  0.1598  0.7983  2.2534
  321MOL0     H43297   3.696  10.440   8.471  2.1329 -0.1836  0.2809
  321MOL0     H43298   3.597  10.583   8.484  0.4174  0.9045  0.9445
  321MOL0     H43299   4.153  10.368   8.793  0.0105  0.2121  0.2556
  321MOL0     H43300   4.406  10.393   8.775  0.7170  0.2606 -0.9435
  321MOL0     H43301   4.582  10.817   8.832 -0.2222 -1.2360 -2.3497
  321MOL0     H43302   4.574  10.723   8.976  1.8892  0.5449  0.6073
  321MOL0     H43303   4.773  10.587   8.900 -1.0333  0.3312  0.8104
  321MOL0     H43304   4.778  10.699   8.754  2.6418 -0.8279  0.1333
  321MOL0     H43305   4.790  10.769   9.062  1.8835 -1.4683  0.4620
  321MOL0     H43306   4.819  10.889   8.935  0.2777 -0.0212 -0.9608
  321MOL0     H43307   5.016  10.656   8.989  0.8235  0.4574 -0.7894
  321MOL0     H43308   5.024  10.782   8.865 -0.5900  1.4739  0.2855
  321MOL0     H43309   4.973  10.837   9.163 -1.4907 -1.8694 -1.3276
  321MOL0     H43310   5.035  10.947   9.033 -0.4162 -1.0140 -0.1280
  321MOL0     H43311   5.201  10.889   9.205 -0.4098  1.6322 -0.4769
  321MOL0     H43312   5.176  10.716   9.162 -2.2470  0.4704  0.7057
  321MOL0     H43313   5.253  10.790   8.915  2.0988  0.4095  0.0026
  321MOL0     H43314   5.371  10.778   9.042  1.0133  1.3176 -0.1881
  321MOL0     H43315   5.364  11.013   9.090  0.3518  0.4572  0.2253
  321MOL0     H43316   5.237  11.035   8.964  0.1343 -0.6244 -3.0032
  321MOL0     H43317   4.348  10.815   8.843 -0.0825  0.4010 -0.8015
  321MOL0     H43318   4.122  10.769   8.905 -0.8256  0.9982 -0.7317
  321MOL0     H43319   3.799  10.525   8.986  1.2882 -1.5472 -0.2473
  321MOL0     H43320   3.560  10.457   9.052  1.2762 -0.9284  0.7064
  321MOL0     H43321   4.617  10.857   9.285  0.6383  1.8687 -0.7058
  321MOL0     H43322   4.856  10.827   9.344 -0.8038 -1.1658 -1.1973
  321MOL0     H43323   5.279  11.098   9.382 -1.4166  0.5795  0.2591
  321MOL0     H43324   5.485  11.188   9.478  0.9084 -0.7798 -0.0223
  321MOL0     H43325   5.695  11.153   9.630  0.3622 -0.1273 -1.8953
  321MOL0     H43326   5.625  11.310   9.602 -0.3218  0.1725  1.0848
  321MOL0     H43327   5.706  11.245   9.884 -0.0435 -2.5390 -1.7298
  321MOL0     H43328   5.712  11.402   9.806 -1.4006 -0.2383 -0.2558
  321MOL0     H43329   5.909  11.165   9.784 -0.2067  0.1606  2.5328
  321MOL0     H43330   5.944  11.323   9.856  0.6201  2.9234 -1.0196
  321MOL0     H43331   5.859  11.372   9.575 -1.1238 -2.1555 -1.5155
  321MOL0     H43332   5.980  11.239   9.567  1.9911 -0.2092  2.2756
  321MOL0     H43333   6.241  11.544   9.677  0.1551 -0.0221  1.1401
  321MOL0     H43334   5.322  11.100   9.869  0.6024 -2.2319 -0.1149
  321MOL0     H43335   5.124  10.976   9.754  0.3608 -1.2366 -1.0747
  322MOL0     O43336   2.997   1.273   5.391 -0.3214  0.5443  0.1856
  322MOL0     C43337   3.088   1.302   5.309  0.5396  0.7866  0.3276
  322MOL0     O43338   3.065   1.313   5.180 -0.3930 -0.3659  0.7009
  322MOL0     C43339   2.936   1.345   5.140  0.2997 -0.5056 -0.8018
  322MOL0     C43340   2.884   1.266   5.042 -0.4441  0.0021 -0.1558
  322MOL0     C43341   2.753   1.259   5.006  0.3400 -0.6966 -0.1961
  322MOL0     C43342   2.669   1.355   5.069  0.4868 -0.9319 -0.4446
  322MOL0     O43343   2.533   1.373   5.048  0.2830 -0.2214  0.2636
  322MOL0     C43344   2.464   1.272   4.968 -1.5100 -0.8979  0.4341
  322MOL0     C43345   2.321   1.305   4.981 -0.7279  0.2285 -0.5607
  322MOL0     C43346   2.232   1.219   4.891 -0.0217 -0.0394 -0.4452
  322MOL0     C43347   2.084   1.273   4.894  0.8058  0.4464 -0.2613
  322MOL0     C43348   2.063   1.404   4.815  0.2481  0.2837 -0.3868
  322MOL0     C43349   1.922   1.430   4.780  0.1423 -0.9224  0.6182
  322MOL0     C43350   1.915   1.551   4.684  0.2078  0.0933  0.4460
  322MOL0     C43351   1.775   1.589   4.641 -0.0528 -0.2481  0.5374
  322MOL0     N43352   1.703   1.468   4.587 -0.5500 -0.3305 -0.5640
  322MOL0     C43353   1.603   1.390   4.648  0.4809  0.4153 -0.0985
  322MOL0     C43354   1.587   1.282   4.570  0.0219  0.2805 -0.2119
  322MOL0     C43355   1.480   1.178   4.574  0.5911  0.2601 -1.1940
  322MOL0     C43356   1.356   1.201   4.665 -0.1719  0.3444 -0.1827
  322MOL0     C43357   1.246   1.102   4.624  1.3111  0.8100  0.4092
  322MOL0     C43358   1.274   0.974   4.693  0.6442 -0.5789 -0.2901
  322MOL0     O43359   1.168   0.892   4.674  0.2999 -0.4983 -0.3994
  322MOL0     C43360   1.093   0.859   4.790  0.0836 -0.4118 -0.0197
  322MOL0     C43361   1.143   0.799   4.903 -0.4637 -0.4030 -0.1599
  322MOL0     C43362   1.064   0.751   5.003  0.4741 -0.8921 -0.5298
  322MOL0     C43363   1.117   0.692   5.129 -0.3393 -0.1803  0.3489
  322MOL0     C43364   0.928   0.781   4.999  0.2236 -0.6962  0.2355
  322MOL0     C43365   0.838   0.753   5.102  0.3428  0.5662  0.4176
  322MOL0     O43366   0.741   0.656   5.074  0.2262  0.8032  0.1407
  322MOL0     C43367   0.624   0.645   5.146 -0.2524  0.3218 -0.5881
  322MOL0     C43368   0.502   0.679   5.096 -0.1069 -0.4953 -0.8149
  322MOL0     C43369   0.385   0.636   5.151 -0.2652 -0.7268 -0.7152
  322MOL0     C43370   0.376   0.567   5.271 -0.3663 -0.1475  0.6096
  322MOL0     O43371   0.257   0.534   5.334  1.0131 -0.5431 -0.0287
  322MOL0     C43372   0.140   0.497   5.257  0.0575 -0.9509 -0.1759
  322MOL0     C43373   0.024   0.498   5.352 -0.5476 -0.0112  0.4216
  322MOL0     C43374  -0.108   0.450   5.292  0.5051 -0.2107  0.2949
  322MOL0     C43375  -0.223   0.442   5.387 -0.6075 -0.6024  0.5739
  322MOL0     C43376  -0.363   0.403   5.322  0.4669  0.3319 -0.5731
  322MOL0     C43377  -0.462   0.332   5.419 -0.1990 -0.4276 -0.1567
  322MOL0     C43378  -0.593   0.315   5.345 -0.4561 -0.6141  0.1077
  322MOL0     C43379  -0.707   0.298   5.440 -1.1445  0.2849  0.0428
  322MOL0    Cl43380  -0.686   0.136   5.517 -0.1221  0.0960 -0.1337
  322MOL0     C43381   0.497   0.543   5.337  0.3495  0.9334  0.1987
  322MOL0     C43382   0.623   0.578   5.272 -0.1141 -0.1810 -0.1991
  322MOL0     O43383   0.863   0.791   5.218  0.1524  0.3721  0.4216
  322MOL0     C43384   0.871   0.851   4.891 -0.5806 -0.2141  0.4985
  322MOL0     C43385   0.959   0.888   4.781 -0.3671 -0.3585 -0.0016
  322MOL0     N43386   1.679   1.296   4.464  1.2531 -0.6428 -0.3147
  322MOL0     N43387   1.741   1.407   4.470 -0.2537 -0.1620 -0.3598
  322MOL0     C43388   2.719   1.451   5.162 -0.2385  0.7168 -0.2870
  322MOL0     C43389   2.855   1.444   5.199 -0.1642 -0.3529 -0.3826
  322MOL0     C43390   3.230   1.305   5.349  0.6394  0.9790  0.3247
  322MOL0     C43391   3.275   1.241   5.463  0.7356 -0.1681 -0.8433
  322MOL0     C43392   3.403   1.214   5.500 -0.4916  0.8323  0.1073
  322MOL0     C43393   3.506   1.252   5.418  0.3818 -0.3764  0.0114
  322MOL0     O43394   3.632   1.238   5.472 -0.2029  0.2832 -0.4299
  322MOL0     C43395   3.737   1.262   5.385  0.9004 -0.6529 -0.1991
  322MOL0     C43396   3.863   1.222   5.450 -0.0004 -0.3405  0.1908
  322MOL0     C43397   3.861   1.079   5.513  0.1222 -0.1341  0.0897
  322MOL0     C43398   3.818   0.968   5.427 -0.0473  0.1018 -0.2886
  322MOL0     C43399   3.825   0.849   5.508  0.0137 -0.0142 -1.0270
  322MOL0     C43400   3.832   0.746   5.574  0.3936  0.0727 -0.0267
  322MOL0     C43401   3.466   1.313   5.297 -0.3846 -0.4283  0.7725
  322MOL0     C43402   3.333   1.339   5.263 -0.0420  0.1920 -0.0208
  322MOL0     H43403   2.934   1.187   4.987 -1.1708 -0.7329  0.2107
  322MOL0     H43404   2.724   1.189   4.929  2.3127 -1.0130 -0.7144
  322MOL0     H43405   2.502   1.273   4.865 -0.0145 -2.7814  0.9067
  322MOL0     H43406   2.467   1.170   5.005  0.5516 -0.5525  1.4026
  322MOL0     H43407   2.297   1.296   5.088  1.0666  1.7135  0.0209
  322MOL0     H43408   2.296   1.410   4.963  0.6422  0.5130 -0.9144
  322MOL0     H43409   2.265   1.219   4.787 -0.7355 -0.2740 -0.6828
  322MOL0     H43410   2.239   1.116   4.928 -0.5017 -0.3263 -1.1203
  322MOL0     H43411   2.017   1.203   4.843  1.4502 -1.2832  1.1837
  322MOL0     H43412   2.043   1.285   4.995 -2.3382  3.4470 -1.6615
  322MOL0     H43413   2.096   1.485   4.881  1.0868 -0.6729  0.4103
  322MOL0     H43414   2.123   1.393   4.724 -0.2194 -0.6865 -0.5899
  322MOL0     H43415   1.885   1.344   4.723 -1.9768 -1.5803  2.8129
  322MOL0     H43416   1.873   1.450   4.876 -0.3930 -2.1784  0.6333
  322MOL0     H43417   1.948   1.643   4.734 -1.2400  0.2570  1.1365
  322MOL0     H43418   1.962   1.531   4.587  1.4003  2.1847  0.5217
  322MOL0     H43419   1.790   1.657   4.557  0.3101 -3.1834 -1.9538
  322MOL0     H43420   1.726   1.641   4.724 -1.4510  1.2539 -1.1359
  322MOL0     H43421   1.546   1.409   4.738  2.3919 -0.0791  1.2667
  322MOL0     H43422   1.439   1.172   4.473 -2.7422 -1.4954  0.1121
  322MOL0     H43423   1.523   1.079   4.588  0.5064 -0.1491 -3.4833
  322MOL0     H43424   1.307   1.298   4.649 -1.9626 -0.3555  0.8165
  322MOL0     H43425   1.386   1.208   4.770 -2.1745  1.0180  0.3808
  322MOL0     H43426   1.234   1.084   4.517  1.8056 -1.0242  0.6419
  322MOL0     H43427   1.149   1.131   4.666  0.2567 -1.6742 -0.1434
  322MOL0     H43428   1.280   1.003   4.799  0.3164  3.2821 -1.1756
  322MOL0     H43429   1.359   0.913   4.661 -0.1984 -1.7964 -0.2940
  322MOL0     H43430   1.251   0.787   4.907 -0.4129  0.1820  0.3613
  322MOL0     H43431   1.061   0.600   5.148  0.0596 -1.2601 -3.0681
  322MOL0     H43432   1.222   0.662   5.119 -0.4112  0.0806 -1.5423
  322MOL0     H43433   1.109   0.767   5.209 -1.7672  3.1023 -2.6264
  322MOL0     H43434   0.490   0.721   4.996  1.9582 -1.4601 -1.5228
  322MOL0     H43435   0.295   0.670   5.100 -0.3965  0.7648  0.4378
  322MOL0     H43436   0.126   0.569   5.175  2.0610  2.8018  2.4729
  322MOL0     H43437   0.147   0.397   5.214  4.2637 -0.8236 -0.2155
  322MOL0     H43438   0.051   0.443   5.442 -2.0029 -0.4775  0.6024
  322MOL0     H43439   0.002   0.603   5.374 -4.4005 -0.6719  0.4451
  322MOL0     H43440  -0.091   0.356   5.239 -0.0392 -0.5718  0.7451
  322MOL0     H43441  -0.132   0.527   5.217  0.3776  0.6956  1.2447
  322MOL0     H43442  -0.199   0.374   5.469 -2.6041 -2.7510 -0.4983
  322MOL0     H43443  -0.238   0.542   5.428 -0.2581  0.2680 -1.2855
  322MOL0     H43444  -0.344   0.331   5.242  0.0688  1.5971 -1.8335
  322MOL0     H43445  -0.409   0.495   5.286  0.1332  1.0708  1.5831
  322MOL0     H43446  -0.408   0.244   5.456 -1.9386 -0.9891  1.2098
  322MOL0     H43447  -0.482   0.400   5.502 -0.1949 -1.2585  0.5443
  322MOL0     H43448  -0.586   0.236   5.270 -0.8474 -0.2717 -0.2981
  322MOL0     H43449  -0.613   0.409   5.293  0.9739  0.3981  1.2958
  322MOL0     H43450  -0.805   0.306   5.394 -0.8164  1.4359 -0.4811
  322MOL0     H43451  -0.703   0.374   5.518  0.4484  0.2120  0.0667
  322MOL0     H43452   0.495   0.496   5.435  0.1823 -1.2826 -0.8257
  322MOL0     H43453   0.716   0.547   5.319 -0.6490  0.3439  1.2653
  322MOL0     H43454   0.765   0.874   4.884 -1.3429 -3.1715  1.2489
  322MOL0     H43455   0.918   0.940   4.695 -2.2851 -0.7370  0.6293
  322MOL0     H43456   2.651   1.526   5.202 -2.1181 -1.1104  0.1373
  322MOL0     H43457   2.900   1.517   5.265 -1.3309 -0.4936  0.6063
  322MOL0     H43458   3.199   1.195   5.525 -1.7146 -0.5723 -3.8784
  322MOL0     H43459   3.430   1.155   5.587  0.3069 -1.8100 -1.7755
  322MOL0     H43460   3.742   1.204   5.293  1.3728 -0.5849 -0.2177
  322MOL0     H43461   3.740   1.365   5.347 -2.4487 -1.0708 -1.9248
  322MOL0     H43462   3.888   1.296   5.527 -1.5748  2.5746 -1.8582
  322MOL0     H43463   3.947   1.231   5.380  0.0593 -1.5767  0.0865
  322MOL0     H43464   3.787   1.080   5.594  1.4569  0.5817  1.3545
  322MOL0     H43465   3.963   1.063   5.547  0.9133  2.4393 -0.8087
  322MOL0     H43466   3.890   0.961   5.346 -0.0708  2.1251 -0.5371
  322MOL0     H43467   3.717   0.980   5.386  0.4069 -1.6192 -2.0148
  322MOL0     H43468   3.826   0.651   5.623 -4.2996 -0.4809 -1.2590
  322MOL0     H43469   3.546   1.350   5.233 -1.0837  1.4441  0.8954
  322MOL0     H43470   3.296   1.398   5.180 -0.7244 -2.0579 -1.3953
  323MOL0     O43471   6.514   3.150   1.992 -0.0129 -0.0988 -0.2092
  323MOL0     C43472   6.540   3.060   2.068 -1.4382  0.1493 -0.4747
  323MOL0     O43473   6.447   2.970   2.118  0.3091 -0.9247  0.0569
  323MOL0     C43474   6.322   2.964   2.054 -0.1304  0.0151  0.0879
  323MOL0     C43475   6.306   2.982   1.913 -0.4245  1.0099  0.0500
  323MOL0     C43476   6.182   2.965   1.862 -0.2689  0.4392 -0.2188
  323MOL0     C43477   6.072   2.934   1.946 -0.2985 -0.6553 -0.8226
  323MOL0     O43478   5.959   2.927   1.878  0.5994  0.1371  0.0438
  323MOL0     C43479   5.857   2.833   1.914  0.3050 -0.4893 -0.0089
  323MOL0     C43480   5.786   2.787   1.788 -0.7667  0.3016 -0.1539
  323MOL0     C43481   5.717   2.912   1.720  0.0895 -0.0325 -0.4703
  323MOL0     C43482   5.624   2.889   1.609  0.0952 -0.1604  0.5168
  323MOL0     C43483   5.488   2.833   1.643 -0.5272  0.0643  0.3365
  323MOL0     C43484   5.399   2.828   1.518  0.6854  0.3908 -0.5192
  323MOL0     C43485   5.284   2.727   1.529 -0.5101  0.3514 -0.5566
  323MOL0     C43486   5.181   2.730   1.405 -0.2621 -0.5211 -0.7561
  323MOL0     N43487   5.114   2.857   1.390 -0.1892 -0.0769 -0.1952
  323MOL0     C43488   5.007   2.902   1.467 -0.1640 -0.2691 -0.9901
  323MOL0     C43489   4.994   3.032   1.425  0.4020 -0.4688 -0.2219
  323MOL0     C43490   4.899   3.137   1.479  0.7953 -0.4030  1.0301
  323MOL0     C43491   4.846   3.213   1.362 -0.5280 -0.2424 -0.1523
  323MOL0     C43492   4.763   3.338   1.401 -0.1106  0.1889 -0.8987
  323MOL0     C43493   4.616   3.304   1.445 -0.6550  0.3906  0.3788
  323MOL0     O43494   4.564   3.222   1.343  0.4153 -0.0962  0.4808
  323MOL0     C43495   4.431   3.205   1.326  0.6504  0.2212  0.3367
  323MOL0     C43496   4.323   3.299   1.328  0.9259 -0.4745  0.2962
  323MOL0     C43497   4.185   3.269   1.316 -0.7753 -0.0072  0.3391
  323MOL0     C43498   4.074   3.380   1.332  0.2547 -0.0406  0.1395
  323MOL0     C43499   4.158   3.138   1.275 -0.0001  0.4152 -0.0283
  323MOL0     C43500   4.022   3.085   1.265  0.0341  0.1453 -0.4763
  323MOL0     O43501   4.000   2.966   1.207  1.0898 -0.3665  0.0017
  323MOL0     C43502   3.877   2.921   1.179  0.5743  0.7001  0.0939
  323MOL0     C43503   3.855   2.781   1.184 -0.1519  0.0028 -0.0172
  323MOL0     C43504   3.736   2.728   1.126  0.2900 -0.3008  0.7805
  323MOL0     C43505   3.635   2.812   1.069  0.1799 -0.6744  0.7090
  323MOL0     O43506   3.509   2.762   1.024 -0.1093  0.3625 -0.4496
  323MOL0     C43507   3.483   2.620   1.050  0.9154 -0.3075  0.2221
  323MOL0     C43508   3.334   2.579   1.010  0.3881 -1.2028  0.8408
  323MOL0     C43509   3.225   2.670   1.054 -0.7282  0.5138 -0.4991
  323MOL0     C43510   3.085   2.629   1.000 -0.1041  0.1466 -0.3371
  323MOL0     C43511   2.992   2.743   0.997 -0.1226  0.3033  0.0516
  323MOL0     C43512   2.873   2.705   0.918 -0.2960 -0.3378  0.3101
  323MOL0     C43513   2.882   2.768   0.779  0.3585 -0.4498  0.2236
  323MOL0     C43514   2.769   2.703   0.696 -0.4282  0.1187  0.0724
  323MOL0    Cl43515   2.813   2.766   0.535 -0.3969 -0.3129 -0.2407
  323MOL0     C43516   3.657   2.956   1.067  0.5660  0.6050 -0.1609
  323MOL0     C43517   3.781   3.001   1.119 -0.6282 -0.2192  0.5127
  323MOL0     O43518   3.927   3.148   1.321  0.2406  0.4247  0.5589
  323MOL0     C43519   4.266   3.048   1.245  0.8483 -0.2082 -0.3824
  323MOL0     C43520   4.398   3.078   1.287  0.6106 -0.3399  0.3046
  323MOL0     N43521   5.085   3.050   1.321  0.0527  0.3234  0.2926
  323MOL0     N43522   5.155   2.946   1.296  1.2613  0.0909  0.3593
  323MOL0     C43523   6.091   2.913   2.084  0.6230 -0.3419 -0.0872
  323MOL0     C43524   6.220   2.924   2.133 -0.5151  0.9609 -0.4826
  323MOL0     C43525   6.685   3.027   2.084 -0.7179 -0.0530  0.8182
  323MOL0     C43526   6.724   2.917   2.151  0.6081 -0.5143  0.4671
  323MOL0     C43527   6.859   2.866   2.151  0.0700  0.2530 -0.3312
  323MOL0     C43528   6.960   2.931   2.086 -0.1200 -0.6719 -0.0284
  323MOL0     O43529   7.083   2.872   2.083  0.3360  0.3652 -0.0069
  323MOL0     C43530   7.199   2.952   2.060 -0.0842  0.4483  0.6211
  323MOL0     C43531   7.331   2.886   2.092  0.2586  0.4893 -0.1710
  323MOL0     C43532   7.353   2.747   2.034  0.6510  0.0891 -0.7093
  323MOL0     C43533   7.506   2.707   2.032  0.9552 -0.2999  0.0764
  323MOL0     C43534   7.580   2.699   2.160 -0.7575 -0.0915  0.1262
  323MOL0     C43535   7.647   2.671   2.255  1.3369 -0.5873 -0.1566
  323MOL0     C43536   6.919   3.051   2.009 -0.4385 -0.2045 -0.2116
  323MOL0     C43537   6.788   3.100   2.015  0.5082  0.0485 -0.5545
  323MOL0     H43538   6.387   3.001   1.843  0.1532 -2.1526 -0.2986
  323MOL0     H43539   6.173   2.993   1.758 -0.6497  0.4687 -0.1805
  323MOL0     H43540   5.906   2.758   1.977  3.8497  0.8890 -0.9043
  323MOL0     H43541   5.779   2.881   1.974 -0.5562 -0.9121 -0.7578
  323MOL0     H43542   5.850   2.732   1.718 -3.3427 -2.0780 -0.8463
  323MOL0     H43543   5.704   2.718   1.811 -0.2367 -0.3852 -0.3009
  323MOL0     H43544   5.670   2.971   1.799  1.2196 -0.9065  0.9175
  323MOL0     H43545   5.805   2.966   1.683  0.8700 -1.7992 -1.3468
  323MOL0     H43546   5.615   2.986   1.559  0.7749 -1.1874 -1.7417
  323MOL0     H43547   5.660   2.818   1.533  0.9684  0.4979  0.2963
  323MOL0     H43548   5.502   2.731   1.679  1.5000  0.0859 -0.2578
  323MOL0     H43549   5.433   2.895   1.714 -1.4219 -0.0671 -0.2178
  323MOL0     H43550   5.352   2.926   1.508  0.7439  0.7020  1.8595
  323MOL0     H43551   5.458   2.803   1.429  0.9270 -2.0488  0.2401
  323MOL0     H43552   5.321   2.624   1.537 -3.4358 -0.9858 -2.3346
  323MOL0     H43553   5.238   2.758   1.623 -0.1215 -1.0905  0.1462
  323MOL0     H43554   5.100   2.658   1.418 -0.1239 -1.0034 -2.3364
  323MOL0     H43555   5.235   2.703   1.314 -0.2801 -0.9950 -0.6277
  323MOL0     H43556   4.938   2.849   1.532 -1.2442  0.5214 -1.4634
  323MOL0     H43557   4.821   3.095   1.543 -0.3383  1.6581  1.0672
  323MOL0     H43558   4.961   3.213   1.528  2.4928  0.2487 -1.8909
  323MOL0     H43559   4.795   3.141   1.297  1.2304 -0.3890 -1.4456
  323MOL0     H43560   4.930   3.248   1.301 -1.0814  1.5450  0.0547
  323MOL0     H43561   4.748   3.387   1.303 -1.9748  0.2464 -0.6188
  323MOL0     H43562   4.805   3.395   1.484 -3.4800 -1.1535  1.9478
  323MOL0     H43563   4.561   3.398   1.455  1.2142  1.7776 -1.5936
  323MOL0     H43564   4.611   3.246   1.537 -1.2815 -1.5875 -0.8229
  323MOL0     H43565   4.346   3.404   1.343  0.3963 -0.5757  1.9339
  323MOL0     H43566   4.003   3.361   1.412  0.2576 -3.3796 -0.5142
  323MOL0     H43567   4.110   3.480   1.359 -0.1665  0.1909 -0.1504
  323MOL0     H43568   4.023   3.401   1.237  0.8209  0.8295  0.0157
  323MOL0     H43569   3.930   2.710   1.217  0.1466  0.6769  0.7694
  323MOL0     H43570   3.724   2.622   1.111 -1.3478 -0.3413  2.0767
  323MOL0     H43571   3.545   2.555   0.987  0.1774 -1.9545  1.1345
  323MOL0     H43572   3.489   2.601   1.157  0.1083 -0.5905  0.2246
  323MOL0     H43573   3.348   2.594   0.902  3.0424 -1.8144  1.0234
  323MOL0     H43574   3.323   2.473   1.034  2.3550 -1.1701  2.1386
  323MOL0     H43575   3.245   2.772   1.019 -2.0032  0.7584 -0.5820
  323MOL0     H43576   3.229   2.669   1.163 -2.1195  1.2609 -0.4147
  323MOL0     H43577   3.089   2.582   0.902 -3.2261 -2.3263  0.5849
  323MOL0     H43578   3.043   2.550   1.062 -0.5610  0.4580 -0.2433
  323MOL0     H43579   3.037   2.826   0.942 -0.0175 -2.1565 -3.9462
  323MOL0     H43580   2.963   2.776   1.097 -0.8202 -0.3188  0.0710
  323MOL0     H43581   2.853   2.598   0.908 -0.6915 -0.4166  1.7018
  323MOL0     H43582   2.788   2.740   0.977  0.1299  0.1531  0.6417
  323MOL0     H43583   2.979   2.760   0.731 -0.5254  4.0299 -2.9845
  323MOL0     H43584   2.865   2.876   0.786 -0.1109 -0.1610 -3.3908
  323MOL0     H43585   2.672   2.732   0.738 -0.8635 -0.2663 -0.6486
  323MOL0     H43586   2.779   2.594   0.708 -1.1888 -0.0630 -0.8271
  323MOL0     H43587   3.591   3.023   1.014  1.7404 -0.3217 -3.0153
  323MOL0     H43588   3.782   3.109   1.109 -1.8893 -0.3724 -2.1213
  323MOL0     H43589   4.250   2.944   1.217 -1.7668  0.1703 -0.5438
  323MOL0     H43590   4.473   3.001   1.272  0.2940 -0.6149  0.1041
  323MOL0     H43591   6.010   2.885   2.150  1.1166  1.4630  1.3911
  323MOL0     H43592   6.236   2.905   2.239  0.2259 -0.7694 -0.8736
  323MOL0     H43593   6.660   2.852   2.212  1.1492 -3.0890 -1.5289
  323MOL0     H43594   6.886   2.772   2.198 -2.6687 -1.9255 -2.7811
  323MOL0     H43595   7.203   2.970   1.952 -2.6728 -2.1865 -0.0265
  323MOL0     H43596   7.164   3.044   2.109 -5.0855 -0.1742 -1.1805
  323MOL0     H43597   7.337   2.877   2.200  1.9349  0.3181 -0.2561
  323MOL0     H43598   7.413   2.952   2.061  0.2094  0.4253 -0.4444
  323MOL0     H43599   7.321   2.743   1.930 -1.0248 -0.2215 -0.2039
  323MOL0     H43600   7.308   2.671   2.098 -0.2259  0.9849 -0.2351
  323MOL0     H43601   7.534   2.794   1.973 -3.0334  1.0945 -0.0525
  323MOL0     H43602   7.519   2.616   1.973  0.8286 -0.9878  1.0756
  323MOL0     H43603   7.718   2.651   2.332  2.9205  2.2272 -0.7448
  323MOL0     H43604   6.990   3.088   1.935  0.8008 -2.5066 -0.2614
  323MOL0     H43605   6.767   3.186   1.953 -0.3122 -1.2040 -2.0852
  324MOL0     O43606   0.395   4.771   9.331 -0.1603 -0.7354  0.1274
  324MOL0     C43607   0.461   4.702   9.252 -0.4411  0.9961 -0.1525
  324MOL0     O43608   0.424   4.652   9.129 -0.1760  0.4657 -0.0074
  324MOL0     C43609   0.312   4.721   9.082 -0.5000 -0.1492  0.1789
  324MOL0     C43610   0.185   4.667   9.101 -0.8254 -0.7406 -0.3150
  324MOL0     C43611   0.071   4.724   9.041 -0.2606  0.3437 -0.0401
  324MOL0     C43612   0.087   4.836   8.958 -0.2694  0.0473 -0.0120
  324MOL0     O43613  -0.014   4.916   8.906  0.0136 -0.3381 -0.0824
  324MOL0     C43614  -0.146   4.899   8.955 -0.3175  0.2053  0.0668
  324MOL0     C43615  -0.245   4.994   8.888  0.7493  0.5384  0.4383
  324MOL0     C43616  -0.388   4.998   8.949 -0.5051 -0.0415 -0.3045
  324MOL0     C43617  -0.481   5.080   8.862 -1.4366 -0.2162 -0.6520
  324MOL0     C43618  -0.537   4.995   8.747  0.1370 -0.3075  1.5109
  324MOL0     C43619  -0.632   4.884   8.776  1.1432  0.4403  0.3650
  324MOL0     C43620  -0.773   4.923   8.834 -0.3757  0.3547 -0.3538
  324MOL0     C43621  -0.862   4.804   8.854 -0.1503  0.7297  0.0631
  324MOL0     N43622  -0.936   4.759   8.735 -0.1159 -0.2161 -0.1146
  324MOL0     C43623  -1.070   4.794   8.721 -0.1621 -0.0739 -0.1216
  324MOL0     C43624  -1.099   4.738   8.605 -0.4017 -0.8956  0.1396
  324MOL0     C43625  -1.224   4.738   8.525  0.0976 -0.5903 -0.6164
  324MOL0     C43626  -1.327   4.646   8.581 -0.3862 -0.3650  0.5870
  324MOL0     C43627  -1.457   4.641   8.501  0.4938  0.3332  0.0414
  324MOL0     C43628  -1.558   4.547   8.561  0.3403 -0.2862 -0.6837
  324MOL0     O43629  -1.597   4.579   8.693  0.2434  0.4264 -1.3031
  324MOL0     C43630  -1.711   4.520   8.744 -0.7718 -0.9256 -0.3123
  324MOL0     C43631  -1.762   4.409   8.682  0.7905  0.4317 -0.4796
  324MOL0     C43632  -1.895   4.369   8.717  0.0483  0.0059 -0.9929
  324MOL0     C43633  -1.956   4.242   8.660  0.1940 -0.3238  0.3661
  324MOL0     C43634  -1.957   4.431   8.831  0.8831 -0.2933  0.8442
  324MOL0     C43635  -2.101   4.408   8.862 -0.7350 -0.4986 -1.4687
  324MOL0     O43636  -2.145   4.457   8.987 -0.2055 -0.8005  0.4547
  324MOL0     C43637  -2.258   4.408   9.048 -0.0244 -0.0233 -0.2380
  324MOL0     C43638  -2.347   4.303   9.015  0.7827 -0.4359 -1.0442
  324MOL0     C43639  -2.452   4.254   9.107 -0.3599  0.2850 -0.1355
  324MOL0     C43640  -2.458   4.325   9.230  0.1437  0.7591  0.5908
  324MOL0     O43641  -2.550   4.294   9.331 -0.1461  0.1708 -0.0635
  324MOL0     C43642  -2.631   4.179   9.324 -0.1847  0.8452 -0.9557
  324MOL0     C43643  -2.691   4.155   9.471 -0.3079 -0.2689 -0.2520
  324MOL0     C43644  -2.759   4.018   9.486  0.2537 -0.2050  0.1913
  324MOL0     C43645  -2.855   4.005   9.604 -0.1741 -0.2403 -0.5260
  324MOL0     C43646  -2.887   3.852   9.624 -1.3783 -0.5711 -0.5649
  324MOL0     C43647  -2.987   3.839   9.735 -0.6677  0.0123  0.0815
  324MOL0     C43648  -3.036   3.695   9.757 -0.2063 -0.8620 -0.1503
  324MOL0     C43649  -3.172   3.702   9.824  0.7912 -0.1786  0.4331
  324MOL0    Cl43650  -3.297   3.773   9.713 -0.5834 -0.0869  0.1390
  324MOL0     C43651  -2.375   4.426   9.265 -0.6631 -0.2627 -0.1239
  324MOL0     C43652  -2.288   4.475   9.173 -0.0510 -0.1075  0.4678
  324MOL0     O43653  -2.171   4.356   8.786 -0.4684 -0.0190 -0.5072
  324MOL0     C43654  -1.894   4.525   8.900 -0.0131 -0.1334 -0.5483
  324MOL0     C43655  -1.767   4.577   8.861  0.1426 -0.3474  0.2971
  324MOL0     N43656  -0.982   4.689   8.546 -0.5288 -0.0646 -0.0055
  324MOL0     N43657  -0.886   4.693   8.628 -0.7072 -0.0571 -0.1866
  324MOL0     C43658   0.212   4.891   8.935 -0.3288 -0.3056  0.1701
  324MOL0     C43659   0.325   4.826   8.990  0.4051  0.1601  0.3393
  324MOL0     C43660   0.590   4.653   9.293 -0.2165 -0.3437 -0.0766
  324MOL0     C43661   0.640   4.671   9.422 -1.3636  0.0412 -0.3690
  324MOL0     C43662   0.775   4.644   9.448  0.1609  0.3627  0.3346
  324MOL0     C43663   0.861   4.586   9.351  0.1790 -0.0558  0.0074
  324MOL0     O43664   0.987   4.546   9.394  0.2109 -0.5457  0.5503
  324MOL0     C43665   1.039   4.426   9.337  0.7789 -0.1768 -0.0440
  324MOL0     C43666   1.166   4.391   9.409 -0.4185 -0.8405 -0.0459
  324MOL0     C43667   1.285   4.500   9.390 -0.3374 -0.2505  0.2649
  324MOL0     C43668   1.420   4.455   9.452 -0.7242 -0.6453  0.0928
  324MOL0     C43669   1.414   4.473   9.595 -0.4378  0.4726  0.2080
  324MOL0     C43670   1.418   4.494   9.709 -0.7069  0.1262 -0.1764
  324MOL0     C43671   0.809   4.558   9.224  0.3838 -1.0415  0.5939
  324MOL0     C43672   0.679   4.602   9.186 -1.5480 -0.0421  0.1834
  324MOL0     H43673   0.179   4.586   9.173  0.5161 -0.2664  0.3675
  324MOL0     H43674  -0.030   4.694   9.066 -0.2841 -0.0879 -0.6320
  324MOL0     H43675  -0.173   4.795   8.938  0.6962  0.2183 -1.9206
  324MOL0     H43676  -0.154   4.929   9.060  2.3718 -1.1039  0.7323
  324MOL0     H43677  -0.204   5.094   8.904 -0.0777  1.6871 -3.4830
  324MOL0     H43678  -0.249   4.973   8.781  0.8705  0.4510  0.4510
  324MOL0     H43679  -0.436   4.900   8.944 -2.2839  0.6529  1.7388
  324MOL0     H43680  -0.382   5.055   9.043  0.2931  2.3278 -1.6827
  324MOL0     H43681  -0.566   5.113   8.924 -1.6170  0.6180 -1.3330
  324MOL0     H43682  -0.433   5.173   8.832 -1.5548 -0.0250 -0.2536
  324MOL0     H43683  -0.597   5.059   8.682 -1.0792  1.2489  4.0078
  324MOL0     H43684  -0.446   4.960   8.697  1.3828  1.7865  2.1387
  324MOL0     H43685  -0.656   4.838   8.679  3.1704 -0.3193  0.1806
  324MOL0     H43686  -0.585   4.815   8.847  2.5595 -0.0502 -0.9859
  324MOL0     H43687  -0.770   4.975   8.931  0.6386  3.4878 -1.9065
  324MOL0     H43688  -0.814   4.989   8.756 -1.8837 -2.3330 -1.9675
  324MOL0     H43689  -0.936   4.835   8.928 -1.9412  1.1089 -1.8066
  324MOL0     H43690  -0.802   4.727   8.904  0.9972 -0.1743 -2.5183
  324MOL0     H43691  -1.139   4.856   8.778 -1.7585  1.2584 -3.2329
  324MOL0     H43692  -1.273   4.834   8.505 -2.4073 -1.4331  0.9517
  324MOL0     H43693  -1.206   4.683   8.432  0.7556  0.2128 -0.9765
  324MOL0     H43694  -1.354   4.679   8.682 -1.9568  1.8537 -0.4835
  324MOL0     H43695  -1.278   4.549   8.598  2.1898  0.6074 -0.7254
  324MOL0     H43696  -1.439   4.629   8.394  4.3535  1.3539  0.4365
  324MOL0     H43697  -1.500   4.742   8.503  1.8171  0.9740 -1.3847
  324MOL0     H43698  -1.501   4.454   8.569  3.6643  1.6143 -0.2600
  324MOL0     H43699  -1.642   4.530   8.493 -0.8302 -1.5759  0.9832
  324MOL0     H43700  -1.707   4.354   8.606  0.3304 -0.6209 -0.0763
  324MOL0     H43701  -1.884   4.172   8.617 -1.4576 -1.1973 -1.0948
  324MOL0     H43702  -1.993   4.183   8.744  2.3718 -4.9087 -1.5555
  324MOL0     H43703  -2.022   4.272   8.578 -0.5382  0.0654  1.0745
  324MOL0     H43704  -2.329   4.244   8.926  0.6491  0.6082 -1.7802
  324MOL0     H43705  -2.522   4.173   9.093 -0.6480 -0.4686  4.2608
  324MOL0     H43706  -2.718   4.192   9.260 -2.8214  1.2442  2.4229
  324MOL0     H43707  -2.572   4.090   9.300  0.3497  1.1431 -0.7713
  324MOL0     H43708  -2.610   4.165   9.544 -2.1736 -0.3423  1.8957
  324MOL0     H43709  -2.768   4.229   9.492  0.3582  0.9035 -1.7118
  324MOL0     H43710  -2.676   3.946   9.487 -1.2509 -2.0247 -0.3732
  324MOL0     H43711  -2.811   3.996   9.393  1.4503 -1.5277 -0.2087
  324MOL0     H43712  -2.807   4.051   9.691 -1.9882 -0.1290  0.4722
  324MOL0     H43713  -2.944   4.067   9.585  1.7881  3.2519  0.6182
  324MOL0     H43714  -2.794   3.796   9.641  1.2678  2.8016 -2.5640
  324MOL0     H43715  -2.927   3.803   9.535 -0.4027 -2.4276 -0.0400
  324MOL0     H43716  -2.945   3.880   9.827  0.1558 -0.9866  0.1685
  324MOL0     H43717  -3.062   3.915   9.712  1.3123  1.5068 -2.0276
  324MOL0     H43718  -2.968   3.633   9.817  2.3440  1.9943  0.1604
  324MOL0     H43719  -3.057   3.642   9.664 -2.9871 -3.9674  2.0070
  324MOL0     H43720  -3.159   3.755   9.918  1.8581 -0.0237  0.2091
  324MOL0     H43721  -3.198   3.597   9.840  1.6736 -0.7989 -1.7221
  324MOL0     H43722  -2.393   4.489   9.352 -3.3333 -1.7043  0.4531
  324MOL0     H43723  -2.234   4.567   9.193  2.3052 -1.3226  0.0739
  324MOL0     H43724  -1.934   4.585   8.982  0.6987  0.2835 -0.4967
  324MOL0     H43725  -1.720   4.658   8.916  0.5137  0.7636 -1.5635
  324MOL0     H43726   0.236   4.975   8.871 -0.7229 -0.6374 -0.4202
  324MOL0     H43727   0.422   4.869   8.970 -0.5696  2.1443 -0.4476
  324MOL0     H43728   0.578   4.711   9.502 -0.6672  0.5990 -0.1005
  324MOL0     H43729   0.812   4.654   9.549  0.0663  0.1710  0.3892
  324MOL0     H43730   0.960   4.351   9.350 -0.7033  1.3101 -0.0164
  324MOL0     H43731   1.067   4.441   9.233 -0.0813  0.4838 -0.1907
  324MOL0     H43732   1.194   4.296   9.362  1.3480 -1.1686  1.5088
  324MOL0     H43733   1.147   4.385   9.517  0.4881  1.5920  0.3056
  324MOL0     H43734   1.254   4.592   9.440 -0.3349  1.3046 -2.4260
  324MOL0     H43735   1.301   4.513   9.283  0.1379 -0.4796  0.3072
  324MOL0     H43736   1.495   4.522   9.409 -1.1423 -1.7673 -2.5265
  324MOL0     H43737   1.460   4.356   9.428 -0.2670 -1.5548  3.8512
  324MOL0     H43738   1.427   4.512   9.814 -3.4280  0.5980  0.0478
  324MOL0     H43739   0.874   4.518   9.146 -1.7731  1.1909 -2.5851
  324MOL0     H43740   0.656   4.590   9.080 -1.2523 -0.3890  0.1585
  325MOL0     O43741   2.342   1.428   5.550  0.5092 -0.6677 -0.3497
  325MOL0     C43742   2.370   1.523   5.627  0.1464  0.0955  0.2128
  325MOL0     O43743   2.286   1.596   5.704 -0.4112  0.3041  0.0286
  325MOL0     C43744   2.147   1.569   5.690 -0.3810 -0.1572 -0.1554
  325MOL0     C43745   2.081   1.607   5.570 -0.8187 -0.5456  0.0131
  325MOL0     C43746   1.945   1.598   5.562  1.3373 -0.1253  0.2099
  325MOL0     C43747   1.873   1.547   5.670 -0.5218  0.6756 -0.4418
  325MOL0     O43748   1.739   1.517   5.645  0.1481  0.0957  0.7991
  325MOL0     C43749   1.657   1.502   5.768  0.0414  0.0004 -0.6831
  325MOL0     C43750   1.507   1.508   5.740 -0.0517  0.5114  1.4050
  325MOL0     C43751   1.428   1.492   5.863 -0.0723  0.1720 -0.1722
  325MOL0     C43752   1.290   1.558   5.857 -0.5658  0.7694  0.2069
  325MOL0     C43753   1.185   1.463   5.787  0.2608 -0.2533  0.1590
  325MOL0     C43754   1.050   1.519   5.747  0.4217  0.2020  1.2536
  325MOL0     C43755   0.955   1.552   5.861 -0.4571  0.4748  0.0709
  325MOL0     C43756   0.840   1.619   5.797 -0.2925 -0.7266  1.1283
  325MOL0     N43757   0.748   1.666   5.901  0.7236 -0.0796 -0.9832
  325MOL0     C43758   0.749   1.789   5.965 -1.6187 -0.1472 -0.1719
  325MOL0     C43759   0.643   1.784   6.049  0.6566 -0.8172  0.1878
  325MOL0     C43760   0.596   1.900   6.130  0.3305  0.0696  0.2059
  325MOL0     C43761   0.508   1.985   6.037 -0.2160  0.0573  0.0239
  325MOL0     C43762   0.468   2.108   6.115  1.0942 -1.0701  0.2108
  325MOL0     C43763   0.399   2.211   6.029 -0.1434 -0.3346 -0.5592
  325MOL0     O43764   0.291   2.149   5.964 -0.4530  0.0832  0.2222
  325MOL0     C43765   0.176   2.119   6.025 -0.6336  0.1852  0.4888
  325MOL0     C43766   0.132   2.165   6.152 -1.0987  0.9788 -0.5707
  325MOL0     C43767   0.012   2.128   6.198  0.3474  0.1678  0.9274
  325MOL0     C43768  -0.020   2.190   6.333 -0.5316 -0.4944  0.3902
  325MOL0     C43769  -0.070   2.035   6.129  0.7035 -0.9276 -0.9831
  325MOL0     C43770  -0.195   1.981   6.191  0.6407 -0.1785  0.0126
  325MOL0     O43771  -0.274   1.918   6.095  0.0074 -0.3257  0.3142
  325MOL0     C43772  -0.410   1.890   6.136  0.2767  0.2238 -0.0109
  325MOL0     C43773  -0.509   1.981   6.110 -0.2775 -0.7580 -0.0374
  325MOL0     C43774  -0.638   1.952   6.156  0.4037 -0.2473  0.3312
  325MOL0     C43775  -0.663   1.842   6.233 -0.1555 -0.4976  0.5891
  325MOL0     O43776  -0.791   1.817   6.279  0.0595  0.0925 -1.0751
  325MOL0     C43777  -0.883   1.794   6.174 -0.2596  0.4455 -0.2619
  325MOL0     C43778  -0.994   1.693   6.207  0.2241  0.0078 -0.0871
  325MOL0     C43779  -0.932   1.553   6.202  0.1475  1.2063 -0.1147
  325MOL0     C43780  -1.030   1.435   6.226  0.6263 -0.3180 -0.2337
  325MOL0     C43781  -0.963   1.306   6.243  0.8187 -0.3178 -0.5491
  325MOL0     C43782  -0.854   1.275   6.144  0.1675  0.3264 -0.3606
  325MOL0     C43783  -0.812   1.126   6.133 -0.0604 -0.4401 -0.1880
  325MOL0     C43784  -0.697   1.102   6.034  0.3508  0.6142  0.4360
  325MOL0    Cl43785  -0.726   1.179   5.870 -0.2941 -0.2158  0.4158
  325MOL0     C43786  -0.558   1.752   6.262 -0.0378 -0.3866 -0.1432
  325MOL0     C43787  -0.427   1.771   6.210 -0.5598  0.4133  1.4214
  325MOL0     O43788  -0.202   1.969   6.315  0.1229 -0.1431  1.1215
  325MOL0     C43789  -0.030   1.999   5.997  0.4933  0.3503  0.0352
  325MOL0     C43790   0.092   2.042   5.946  0.1708 -0.7656 -0.0875
  325MOL0     N43791   0.570   1.672   6.030  0.6895  0.2365 -0.1770
  325MOL0     N43792   0.631   1.605   5.940  1.0462  0.9321 -0.1707
  325MOL0     C43793   1.938   1.511   5.791  0.8271  0.7162  0.2100
  325MOL0     C43794   2.081   1.521   5.798 -0.2246 -0.0262 -0.2809
  325MOL0     C43795   2.517   1.563   5.633  0.5589 -0.0633 -0.1872
  325MOL0     C43796   2.607   1.483   5.563 -0.2118 -0.2935 -0.0778
  325MOL0     C43797   2.739   1.513   5.564 -0.0709  0.6837  0.2828
  325MOL0     C43798   2.793   1.626   5.625 -0.0381 -0.6149  0.3901
  325MOL0     O43799   2.927   1.662   5.634  0.2644  0.6279 -0.7235
  325MOL0     C43800   3.025   1.586   5.560 -0.0555  0.6404  0.7099
  325MOL0     C43801   3.156   1.630   5.608 -1.2155 -0.6083  0.0236
  325MOL0     C43802   3.192   1.582   5.744 -0.6036  0.5271  0.0256
  325MOL0     C43803   3.181   1.690   5.856  0.3068  0.5693 -0.6517
  325MOL0     C43804   3.212   1.625   5.981 -0.1796 -0.1558  0.7772
  325MOL0     C43805   3.231   1.550   6.074  0.2610  0.3000  0.3369
  325MOL0     C43806   2.701   1.709   5.683  0.2212  0.1314  0.2631
  325MOL0     C43807   2.562   1.677   5.698 -0.1037 -0.2901 -0.6369
  325MOL0     H43808   2.135   1.656   5.490 -0.1494 -0.3044  0.6045
  325MOL0     H43809   1.889   1.635   5.477 -0.6622  1.8160  2.2417
  325MOL0     H43810   1.670   1.403   5.813  1.2797  0.4711  0.0573
  325MOL0     H43811   1.678   1.574   5.847  2.8841 -0.5208 -0.8623
  325MOL0     H43812   1.482   1.604   5.693  2.1132 -0.0778 -1.1782
  325MOL0     H43813   1.485   1.438   5.659  1.3150  2.0622 -0.4009
  325MOL0     H43814   1.420   1.383   5.870  2.6470 -0.2693 -2.1001
  325MOL0     H43815   1.489   1.522   5.949  4.2242 -0.9134 -2.5493
  325MOL0     H43816   1.265   1.564   5.963  0.5975 -0.1853  0.5480
  325MOL0     H43817   1.289   1.657   5.810  1.2762  0.0025 -1.6066
  325MOL0     H43818   1.234   1.420   5.699 -0.3996 -0.3856 -0.1524
  325MOL0     H43819   1.155   1.388   5.861 -3.0979  2.6930  2.1130
  325MOL0     H43820   1.061   1.598   5.673  0.3453 -2.3315 -1.6322
  325MOL0     H43821   1.005   1.441   5.685  2.4634 -2.9605  3.4436
  325MOL0     H43822   0.922   1.466   5.920  0.2814  1.8315  2.6175
  325MOL0     H43823   1.005   1.622   5.928  1.2554 -0.2709 -0.3671
  325MOL0     H43824   0.787   1.552   5.728 -1.0705  0.4715  0.5340
  325MOL0     H43825   0.874   1.702   5.735 -0.4224 -0.2377  1.7138
  325MOL0     H43826   0.826   1.865   5.957  0.5640 -2.2423 -0.0335
  325MOL0     H43827   0.545   1.869   6.222 -0.6570  0.5646 -0.1526
  325MOL0     H43828   0.685   1.955   6.163  1.2139 -1.5000  0.5334
  325MOL0     H43829   0.417   1.927   6.021 -0.6507  0.1386  1.9503
  325MOL0     H43830   0.550   2.018   5.941 -0.9366 -0.5815 -0.5223
  325MOL0     H43831   0.557   2.157   6.156 -0.3620  0.2095  2.0024
  325MOL0     H43832   0.400   2.081   6.196 -2.3688  0.1693 -2.0473
  325MOL0     H43833   0.480   2.244   5.963  0.6735  1.1097  1.0754
  325MOL0     H43834   0.356   2.293   6.089  1.1921 -0.0021 -0.0050
  325MOL0     H43835   0.195   2.225   6.218 -0.4227  0.7137 -0.9606
  325MOL0     H43836  -0.127   2.212   6.335 -0.3798  0.3543 -0.3541
  325MOL0     H43837   0.017   2.117   6.405  2.3501 -1.3248 -1.7489
  325MOL0     H43838   0.037   2.279   6.359 -0.4701 -0.4158 -0.0047
  325MOL0     H43839  -0.488   2.069   6.050  1.9453 -1.7153 -0.7549
  325MOL0     H43840  -0.716   2.026   6.140  1.8622  2.1445  3.2337
  325MOL0     H43841  -0.933   1.889   6.153 -1.0828  0.3685  1.2546
  325MOL0     H43842  -0.836   1.767   6.079 -1.7354 -1.1156 -0.5889
  325MOL0     H43843  -1.024   1.715   6.310  1.4055 -2.1106  0.7752
  325MOL0     H43844  -1.085   1.698   6.147  0.0810 -2.5736 -0.2079
  325MOL0     H43845  -0.844   1.539   6.267  0.9578  0.3146 -1.3607
  325MOL0     H43846  -0.895   1.536   6.101  1.4380  0.8455  0.3878
  325MOL0     H43847  -1.094   1.462   6.310 -0.7790  0.3993 -1.4790
  325MOL0     H43848  -1.091   1.431   6.135 -2.1190  0.4290  1.4661
  325MOL0     H43849  -1.045   1.234   6.233  0.9565 -0.5126 -0.2829
  325MOL0     H43850  -0.940   1.290   6.349  0.2371  0.5515 -0.2820
  325MOL0     H43851  -0.879   1.321   6.048  1.5635  1.8620 -0.0474
  325MOL0     H43852  -0.764   1.318   6.190 -2.2962  0.2919  5.2201
  325MOL0     H43853  -0.897   1.062   6.108  0.8731 -1.4850 -0.7696
  325MOL0     H43854  -0.772   1.086   6.227  0.8315  0.0091 -0.3645
  325MOL0     H43855  -0.681   0.994   6.024  0.8694  0.6749  0.5967
  325MOL0     H43856  -0.604   1.146   6.072  0.1071  1.0449  0.5444
  325MOL0     H43857  -0.575   1.662   6.321  2.1210 -2.0925 -1.9026
  325MOL0     H43858  -0.338   1.712   6.230 -1.3172 -1.2146  0.2601
  325MOL0     H43859  -0.093   1.934   5.936 -2.4599  1.2913  1.8543
  325MOL0     H43860   0.116   2.009   5.846  1.0887 -0.3168 -0.0179
  325MOL0     H43861   1.886   1.465   5.874  2.2145 -0.8771  0.2344
  325MOL0     H43862   2.139   1.488   5.884 -2.3751  0.6136  1.4952
  325MOL0     H43863   2.579   1.389   5.517 -0.2523  0.8964 -2.6374
  325MOL0     H43864   2.791   1.436   5.508 -1.7035  0.6692 -1.3004
  325MOL0     H43865   3.019   1.478   5.579  0.0993  0.0067 -2.3879
  325MOL0     H43866   3.002   1.585   5.453  0.1024 -1.4771  0.6548
  325MOL0     H43867   3.171   1.738   5.600  3.0260 -1.0343 -0.3286
  325MOL0     H43868   3.226   1.586   5.536  1.8819 -0.5878  2.7506
  325MOL0     H43869   3.294   1.542   5.741 -0.7112  0.3234 -1.7594
  325MOL0     H43870   3.126   1.501   5.774 -0.7006  0.4047 -0.5142
  325MOL0     H43871   3.074   1.714   5.865  0.0088 -1.0025  0.5961
  325MOL0     H43872   3.243   1.777   5.833 -0.6318  1.1249 -1.1276
  325MOL0     H43873   3.247   1.482   6.156  0.0919  1.4686  1.3690
  325MOL0     H43874   2.755   1.780   5.745 -0.2404 -0.6348  1.5859
  325MOL0     H43875   2.489   1.733   5.756 -1.0234 -1.3478 -0.7512
  326MOL0     O43876   1.278  11.202   0.166 -1.2567 -0.1615 -0.1978
  326MOL0     C43877   1.268  11.106   0.091  0.2821  0.3182 -0.5609
  326MOL0     O43878   1.159  11.033   0.072  0.5679 -0.1919  0.5987
  326MOL0     C43879   1.032  11.052   0.129 -0.3976  0.0157 -0.0873
  326MOL0     C43880   1.001  11.134   0.231 -0.1960  0.2312  0.2582
  326MOL0     C43881   0.869  11.141   0.277  0.6431  0.3499 -1.3752
  326MOL0     C43882   0.774  11.049   0.235 -0.3489 -0.5303  1.1925
  326MOL0     O43883   0.645  11.034   0.278 -0.7014  0.2144  0.6063
  326MOL0     C43884   0.589  11.153   0.336 -0.3910  0.3878  0.0010
  326MOL0     C43885   0.441  11.144   0.364  0.1514  1.0096 -0.0011
  326MOL0     C43886   0.374  11.132   0.233 -0.0823  0.0052 -0.5459
  326MOL0     C43887   0.225  11.156   0.228  0.0174 -0.1106 -0.2165
  326MOL0     C43888   0.135  11.034   0.271  0.7924  0.7167 -0.6944
  326MOL0     C43889  -0.019  11.078   0.275 -0.0711 -0.4029 -0.2440
  326MOL0     C43890  -0.120  10.959   0.279  0.0187  0.4392  1.0055
  326MOL0     C43891  -0.262  11.008   0.257 -0.0232  0.4650 -0.0533
  326MOL0     N43892  -0.317  11.057   0.379 -0.0087  0.5151  0.0216
  326MOL0     C43893  -0.350  10.960   0.473  0.0405  0.1294 -0.5588
  326MOL0     C43894  -0.420  11.029   0.565  0.3531 -0.0227 -0.2771
  326MOL0     C43895  -0.473  10.955   0.685  0.7732 -0.0823  0.1223
  326MOL0     C43896  -0.596  10.877   0.653  0.2270 -0.5513  0.1790
  326MOL0     C43897  -0.605  10.748   0.731  0.3800  0.0911  0.2206
  326MOL0     C43898  -0.744  10.701   0.752  0.5783  0.1189  0.5208
  326MOL0     O43899  -0.809  10.713   0.623 -0.2178  0.3526 -0.5405
  326MOL0     C43900  -0.937  10.670   0.595 -0.3898 -0.2623 -0.2940
  326MOL0     C43901  -0.975  10.699   0.467  0.2017  0.1429 -0.3157
  326MOL0     C43902  -1.111  10.680   0.416 -0.9658 -0.1245 -0.9001
  326MOL0     C43903  -1.142  10.724   0.263 -0.3726  0.1945 -0.3877
  326MOL0     C43904  -1.210  10.617   0.513 -0.3463 -0.4533  0.5797
  326MOL0     C43905  -1.353  10.590   0.477  0.9641  0.8331  0.1798
  326MOL0     O43906  -1.432  10.555   0.588  0.3645 -0.3910  0.6864
  326MOL0     C43907  -1.567  10.516   0.569  0.5024 -0.0877  0.3870
  326MOL0     C43908  -1.602  10.390   0.616  0.0014 -0.0938  0.2125
  326MOL0     C43909  -1.730  10.327   0.587 -0.2826 -0.1578  0.5995
  326MOL0     C43910  -1.822  10.393   0.517  0.9119  0.1562  0.0363
  326MOL0     O43911  -1.940  10.331   0.505  0.0405  0.2881 -0.3050
  326MOL0     C43912  -2.021  10.316   0.627  0.0074 -1.1060  0.4177
  326MOL0     C43913  -2.145  10.404   0.612  0.0153 -0.3409  0.3712
  326MOL0     C43914  -2.227  10.406   0.742  0.1702  0.6128  0.4297
  326MOL0     C43915  -2.271  10.260   0.788  0.6883  0.3525 -0.0829
  326MOL0     C43916  -2.396  10.261   0.878  0.6766  1.1167 -0.7844
  326MOL0     C43917  -2.485  10.133   0.868  1.1419  0.7103  0.7996
  326MOL0     C43918  -2.424   9.991   0.886 -0.3415  0.7108  0.5483
  326MOL0     C43919  -2.509   9.866   0.843  0.1864 -0.0673  0.1507
  326MOL0    Cl43920  -2.537   9.870   0.668  0.1517 -0.6214  0.1780
  326MOL0     C43921  -1.791  10.515   0.458 -0.2162 -0.5681  0.0727
  326MOL0     C43922  -1.665  10.572   0.483  0.4770 -0.3575  0.8236
  326MOL0     O43923  -1.400  10.596   0.359 -0.2054  0.1265 -0.5656
  326MOL0     C43924  -1.163  10.593   0.642  0.6434  0.1527  0.5070
  326MOL0     C43925  -1.031  10.620   0.682  0.1748  0.2490 -0.1902
  326MOL0     N43926  -0.451  11.158   0.511  1.1275 -0.0905  0.1058
  326MOL0     N43927  -0.389  11.170   0.398  0.4991 -0.1425 -0.3690
  326MOL0     C43928   0.808  10.961   0.132  0.9326 -0.5072 -0.0853
  326MOL0     C43929   0.936  10.967   0.075  0.6529 -0.5453 -0.0021
  326MOL0     C43930   1.394  11.044   0.039 -0.1071 -0.5981 -0.0423
  326MOL0     C43931   1.501  11.132   0.003  1.1963  0.0657  0.8642
  326MOL0     C43932   1.616  11.077  -0.053 -0.2675 -0.6158  0.3990
  326MOL0     C43933   1.625  10.939  -0.086 -0.9558  0.0807 -0.2017
  326MOL0     O43934   1.737  10.891  -0.143  0.5674  0.0962  0.1057
  326MOL0     C43935   1.864  10.955  -0.123 -0.1462 -0.2525 -0.2046
  326MOL0     C43936   1.984  10.866  -0.165 -0.3609  0.7169  1.4937
  326MOL0     C43937   2.006  10.872  -0.320  0.2502 -0.5391 -0.1570
  326MOL0     C43938   2.134  10.812  -0.346 -0.4897  0.0195  1.1559
  326MOL0     C43939   2.153  10.806  -0.491 -0.4606 -0.6632  0.0706
  326MOL0     C43940   2.154  10.788  -0.613 -0.0463  0.1575 -0.5776
  326MOL0     C43941   1.524  10.855  -0.043  0.4932  0.5674 -0.2595
  326MOL0     C43942   1.405  10.900   0.015  0.3499  0.1667  0.4718
  326MOL0     H43943   1.071  11.204   0.276 -1.3234  1.0525  0.8164
  326MOL0     H43944   0.838  11.205   0.359  0.4445  1.2898 -2.1639
  326MOL0     H43945   0.634  11.172   0.434  0.7868 -3.1445  0.2706
  326MOL0     H43946   0.617  11.244   0.281 -0.5412  1.4252  1.5880
  326MOL0     H43947   0.413  11.066   0.435 -1.3460  3.2969  2.1171
  326MOL0     H43948   0.407  11.236   0.414 -1.3143 -0.3322  1.5847
  326MOL0     H43949   0.416  11.204   0.163 -1.5085 -0.2297 -1.6821
  326MOL0     H43950   0.392  11.033   0.189  2.6123  0.6108 -0.9496
  326MOL0     H43951   0.192  11.242   0.286  2.8779  1.1669 -0.3340
  326MOL0     H43952   0.197  11.172   0.124 -2.7174  0.5340  0.5166
  326MOL0     H43953   0.133  10.948   0.203 -0.5670 -1.3238  1.7258
  326MOL0     H43954   0.160  10.994   0.370 -1.5203  1.0846  0.0833
  326MOL0     H43955  -0.031  11.141   0.364 -2.0206  2.0151 -2.0588
  326MOL0     H43956  -0.034  11.135   0.183  0.4102  1.9238  1.0349
  326MOL0     H43957  -0.091  10.885   0.204  1.7857  0.4023  1.6803
  326MOL0     H43958  -0.111  10.905   0.373  0.9678  0.5455  0.9799
  326MOL0     H43959  -0.319  10.929   0.207  0.2616  1.5499 -2.1882
  326MOL0     H43960  -0.268  11.092   0.188 -3.0068 -0.4199 -1.0304
  326MOL0     H43961  -0.327  10.854   0.483 -1.5182 -0.0345  2.6461
  326MOL0     H43962  -0.396  10.887   0.722  0.4710 -0.6444 -0.2764
  326MOL0     H43963  -0.480  11.027   0.768  1.5314  4.5884 -3.4413
  326MOL0     H43964  -0.587  10.841   0.550 -1.4405 -0.1044 -0.1482
  326MOL0     H43965  -0.687  10.938   0.655  2.0398  2.7396 -3.5274
  326MOL0     H43966  -0.569  10.769   0.832 -0.9575 -0.8509  0.9291
  326MOL0     H43967  -0.541  10.673   0.685 -2.2750 -0.7549 -2.3804
  326MOL0     H43968  -0.801  10.760   0.825 -1.5224 -1.5023  0.2584
  326MOL0     H43969  -0.739  10.599   0.790 -1.6795 -1.7493 -3.5749
  326MOL0     H43970  -0.896  10.731   0.399 -1.4512  1.4282 -1.7221
  326MOL0     H43971  -1.055  10.756   0.206  1.2748 -2.9282  0.1637
  326MOL0     H43972  -1.174  10.632   0.214  0.5403 -1.2881  1.6626
  326MOL0     H43973  -1.218  10.803   0.275 -0.5300 -0.0417  0.2575
  326MOL0     H43974  -1.529  10.337   0.677 -0.2493 -1.8798 -0.9567
  326MOL0     H43975  -1.760  10.235   0.635 -1.8627 -0.4293 -0.8549
  326MOL0     H43976  -2.044  10.209   0.637  1.1220 -1.2481  1.7724
  326MOL0     H43977  -1.966  10.354   0.714 -0.4236 -1.1318  0.7067
  326MOL0     H43978  -2.121  10.506   0.581  0.7763 -0.8960 -0.9827
  326MOL0     H43979  -2.222  10.373   0.540  0.2339 -2.0675  0.8338
  326MOL0     H43980  -2.310  10.474   0.724 -0.9538 -0.5463  1.0280
  326MOL0     H43981  -2.175  10.458   0.823 -0.2585 -0.7525  1.6376
  326MOL0     H43982  -2.297  10.201   0.699 -3.0906  1.2404  0.2642
  326MOL0     H43983  -2.188  10.208   0.837  0.8567 -2.3422 -2.8693
  326MOL0     H43984  -2.452  10.354   0.866 -3.0990 -1.2183 -3.1184
  326MOL0     H43985  -2.367  10.268   0.983 -2.3827 -1.8877  0.4541
  326MOL0     H43986  -2.548  10.137   0.957  0.1904 -0.3098  0.2038
  326MOL0     H43987  -2.550  10.139   0.780 -0.3931  0.5957  1.8860
  326MOL0     H43988  -2.394   9.970   0.989 -0.3177  3.4456  1.1738
  326MOL0     H43989  -2.327   9.986   0.836  0.9770 -0.3781  2.9921
  326MOL0     H43990  -2.608   9.866   0.890  0.4730  1.3435  0.7941
  326MOL0     H43991  -2.453   9.779   0.880  3.8114  2.0190  0.0109
  326MOL0     H43992  -1.850  10.575   0.389  0.4858  2.1967  1.7241
  326MOL0     H43993  -1.643  10.668   0.436 -0.7366  0.3782  1.6722
  326MOL0     H43994  -1.226  10.539   0.712 -2.0456 -0.8748 -2.4689
  326MOL0     H43995  -0.993  10.604   0.782  0.0778  1.9638  0.1568
  326MOL0     H43996   0.729  10.901   0.089  0.4168 -1.4686  2.0658
  326MOL0     H43997   0.962  10.914  -0.015  2.2831  1.7718 -0.9953
  326MOL0     H43998   1.495  11.239   0.022 -0.8953  0.5993 -2.0401
  326MOL0     H43999   1.703  11.139  -0.069  0.6595 -1.7779  0.8502
  326MOL0     H44000   1.871  11.051  -0.173 -2.9036 -0.5595 -1.3631
  326MOL0     H44001   1.880  10.977  -0.017  0.7164 -0.7720 -0.2199
  326MOL0     H44002   1.952  10.765  -0.138  0.1100 -0.4745 -1.9069
  326MOL0     H44003   2.081  10.887  -0.120  0.7164 -0.4241 -0.1948
  326MOL0     H44004   2.008  10.979  -0.344  2.5557  0.5674  3.9281
  326MOL0     H44005   1.931  10.821  -0.381  1.6752 -2.4386 -0.4185
  326MOL0     H44006   2.133  10.707  -0.313 -1.4060 -0.2363  0.3703
  326MOL0     H44007   2.219  10.861  -0.297 -0.3854 -0.2985  1.3016
  326MOL0     H44008   2.155  10.772  -0.718  1.6521 -0.5594 -0.4820
  326MOL0     H44009   1.532  10.747  -0.050  2.1692  0.5915  0.7206
  326MOL0     H44010   1.323  10.837   0.046  0.9260 -0.1076  1.4904
  327MOL0     O44011   1.959   5.093   0.634 -0.1972 -0.3146  0.6478
  327MOL0     C44012   1.970   5.209   0.603 -0.9656  0.0026  0.1455
  327MOL0     O44013   1.883   5.309   0.633  0.1003 -0.0591  0.4009
  327MOL0     C44014   1.763   5.282   0.691 -0.8953  0.4949 -0.4973
  327MOL0     C44015   1.728   5.354   0.809 -0.1471  0.4283  0.6605
  327MOL0     C44016   1.602   5.322   0.870 -0.5841 -0.6988  0.0397
  327MOL0     C44017   1.520   5.222   0.814  0.5928  0.4123  0.2035
  327MOL0     O44018   1.401   5.184   0.878  0.5574  0.2530 -0.2057
  327MOL0     C44019   1.341   5.284   0.966  0.2115  0.1713  0.3825
  327MOL0     C44020   1.194   5.254   0.999  0.4648  0.4237 -0.3490
  327MOL0     C44021   1.111   5.213   0.877 -0.1733  0.7888  0.7766
  327MOL0     C44022   0.956   5.189   0.906  0.8422 -0.1202 -0.0635
  327MOL0     C44023   0.883   5.141   0.782  0.0201  0.8876  0.1568
  327MOL0     C44024   0.882   4.982   0.775 -0.4689 -0.5151 -0.9330
  327MOL0     C44025   0.793   4.945   0.660  0.5947 -0.8072  0.0486
  327MOL0     C44026   0.868   4.944   0.528 -0.4268 -0.9296  0.5957
  327MOL0     N44027   0.997   4.883   0.532 -0.0428 -0.1997 -0.2730
  327MOL0     C44028   1.121   4.936   0.532 -0.6300 -0.9668  0.6278
  327MOL0     C44029   1.206   4.841   0.524 -0.1730  0.2275  0.0530
  327MOL0     C44030   1.356   4.828   0.515 -0.9486 -0.0507  0.3848
  327MOL0     C44031   1.413   4.903   0.404 -0.6290  0.0741 -0.6080
  327MOL0     C44032   1.549   4.848   0.367  1.1075  0.5460 -0.0428
  327MOL0     C44033   1.606   4.929   0.249  0.0733 -0.0957 -0.6923
  327MOL0     O44034   1.742   4.887   0.228 -1.1959 -0.4395  0.3620
  327MOL0     C44035   1.820   4.953   0.136  0.0053 -0.0517  0.2722
  327MOL0     C44036   1.764   5.013   0.021 -0.4402  0.4496 -0.5274
  327MOL0     C44037   1.850   5.078  -0.075  0.1044 -0.0139  0.2480
  327MOL0     C44038   1.774   5.136  -0.194 -0.6911 -0.4934 -0.5258
  327MOL0     C44039   1.988   5.100  -0.044 -0.9466 -0.1825  0.0957
  327MOL0     C44040   2.072   5.182  -0.129 -0.3358 -0.2317 -0.0675
  327MOL0     O44041   2.197   5.151  -0.127 -0.1932 -0.0878 -0.0351
  327MOL0     C44042   2.293   5.241  -0.181  1.2797  0.3780 -0.1660
  327MOL0     C44043   2.325   5.234  -0.317 -0.7026  0.5556  0.3752
  327MOL0     C44044   2.413   5.323  -0.381 -0.6241 -0.5641 -0.2980
  327MOL0     C44045   2.479   5.425  -0.299  0.0818 -0.7269 -0.1019
  327MOL0     O44046   2.575   5.518  -0.348 -0.9163 -0.2097 -0.5751
  327MOL0     C44047   2.674   5.479  -0.451  0.1964 -0.6631  0.4046
  327MOL0     C44048   2.756   5.353  -0.430 -0.1255  0.0740 -1.0030
  327MOL0     C44049   2.836   5.359  -0.301  0.1872 -0.5733 -0.7471
  327MOL0     C44050   2.941   5.248  -0.269 -0.5852 -0.1900  0.4256
  327MOL0     C44051   3.016   5.285  -0.133  0.3008 -0.2002  0.0175
  327MOL0     C44052   3.139   5.196  -0.110 -0.6581  0.4368 -0.3003
  327MOL0     C44053   3.263   5.253  -0.181  0.0398 -0.1144  0.6284
  327MOL0     C44054   3.387   5.174  -0.156  0.4111  1.6247 -0.5159
  327MOL0    Cl44055   3.541   5.227  -0.250 -0.0440  0.1515 -0.0682
  327MOL0     C44056   2.443   5.438  -0.167 -0.5040 -0.5885  0.1002
  327MOL0     C44057   2.347   5.355  -0.107 -0.1658  0.3583  0.2998
  327MOL0     O44058   2.014   5.275  -0.186  0.6369 -0.9978  0.0230
  327MOL0     C44059   2.037   5.035   0.067  0.1944 -0.2446  0.2661
  327MOL0     C44060   1.960   4.965   0.154  0.3326 -0.2519 -1.1059
  327MOL0     N44061   1.139   4.723   0.517  0.7972 -0.3017  0.4974
  327MOL0     N44062   1.013   4.747   0.528 -0.5113  0.2078 -0.0683
  327MOL0     C44063   1.557   5.157   0.700  0.4706  0.7105  0.4251
  327MOL0     C44064   1.677   5.186   0.638  0.6970 -0.4378  0.1426
  327MOL0     C44065   2.090   5.236   0.517 -0.4681  0.3108  0.8391
  327MOL0     C44066   2.083   5.346   0.435 -0.1789  0.0334  0.2825
  327MOL0     C44067   2.187   5.373   0.341  1.1452  0.2430 -0.4109
  327MOL0     C44068   2.303   5.291   0.367 -0.6584 -0.8231  0.6640
  327MOL0     O44069   2.421   5.333   0.304 -0.7454 -0.1577  0.5893
  327MOL0     C44070   2.544   5.272   0.342 -0.7584  0.4851 -0.2055
  327MOL0     C44071   2.662   5.346   0.270  0.5217 -0.6193  0.3755
  327MOL0     C44072   2.662   5.339   0.121 -0.6180 -0.1748  0.1535
  327MOL0     C44073   2.675   5.203   0.056  0.9804 -1.4096  0.1563
  327MOL0     C44074   2.788   5.125   0.110  0.0638  0.2369  0.9090
  327MOL0     C44075   2.872   5.038   0.140 -0.0629 -0.7753 -0.1602
  327MOL0     C44076   2.294   5.171   0.443 -1.3298 -0.2666 -0.4419
  327MOL0     C44077   2.190   5.139   0.521 -0.3843 -0.2304  0.7219
  327MOL0     H44078   1.793   5.433   0.845 -0.1498  0.3913  0.7493
  327MOL0     H44079   1.580   5.378   0.960 -1.6028  0.1657 -0.7193
  327MOL0     H44080   1.396   5.279   1.060  2.0886 -0.7148 -0.6996
  327MOL0     H44081   1.348   5.387   0.928  0.4712 -0.5302 -1.6255
  327MOL0     H44082   1.207   5.182   1.081  0.8503  1.3054  0.3824
  327MOL0     H44083   1.140   5.334   1.050  2.2429  1.4809 -0.0399
  327MOL0     H44084   1.114   5.279   0.790  0.8631  0.3381  0.4502
  327MOL0     H44085   1.138   5.112   0.846 -0.4220  0.4799  1.5376
  327MOL0     H44086   0.939   5.127   0.994 -1.1272  0.0026 -0.3188
  327MOL0     H44087   0.917   5.289   0.928 -2.1905 -1.8795  3.5432
  327MOL0     H44088   0.784   5.188   0.781 -0.6020 -0.3872 -0.0352
  327MOL0     H44089   0.939   5.173   0.694  2.5356 -1.1802  0.8856
  327MOL0     H44090   0.984   4.945   0.786 -0.4136  0.4779  3.3438
  327MOL0     H44091   0.826   4.953   0.864  0.4802  0.8205  0.1456
  327MOL0     H44092   0.745   4.848   0.674 -0.8254 -0.0936  0.3297
  327MOL0     H44093   0.715   5.022   0.653  4.7092  3.9890  0.7400
  327MOL0     H44094   0.885   5.029   0.461  3.2805 -2.4319 -0.6913
  327MOL0     H44095   0.806   4.870   0.477  0.5767 -0.9866 -0.6082
  327MOL0     H44096   1.141   5.043   0.531 -3.9167 -0.1182  3.7130
  327MOL0     H44097   1.399   4.869   0.607  1.0474 -2.7806  0.8125
  327MOL0     H44098   1.393   4.725   0.517  2.0745  0.9575  0.5002
  327MOL0     H44099   1.431   5.007   0.432  2.6857 -0.8551  1.3627
  327MOL0     H44100   1.341   4.886   0.324  1.5115 -0.5464 -2.4898
  327MOL0     H44101   1.541   4.742   0.340  3.0289  0.3003  0.2061
  327MOL0     H44102   1.614   4.863   0.454  0.5182 -3.4894  1.3503
  327MOL0     H44103   1.613   5.037   0.267  1.2668  0.2075 -2.6488
  327MOL0     H44104   1.541   4.913   0.163 -0.0147 -1.9995 -0.3161
  327MOL0     H44105   1.660   4.998  -0.007  0.0703 -2.3436 -1.3245
  327MOL0     H44106   1.837   5.126  -0.284 -0.1007 -0.7799 -0.0926
  327MOL0     H44107   1.672   5.097  -0.200 -0.5127 -1.6100  2.2862
  327MOL0     H44108   1.765   5.244  -0.184  1.9567  0.2172 -3.7682
  327MOL0     H44109   2.272   5.160  -0.377  0.3959  1.1210 -1.3732
  327MOL0     H44110   2.451   5.323  -0.483  2.9488 -2.6735  0.8613
  327MOL0     H44111   2.618   5.453  -0.541 -0.3695  1.2193  0.1830
  327MOL0     H44112   2.735   5.564  -0.480 -2.1377  1.7570  2.1593
  327MOL0     H44113   2.695   5.262  -0.429  1.2749 -0.9065 -0.0737
  327MOL0     H44114   2.827   5.347  -0.512  1.5635  3.4266  0.0533
  327MOL0     H44115   2.766   5.346  -0.217 -0.7090  0.3388 -1.3272
  327MOL0     H44116   2.880   5.459  -0.297  1.1176 -1.0163  1.2824
  327MOL0     H44117   2.903   5.147  -0.254  4.8084 -2.5122  0.4517
  327MOL0     H44118   3.003   5.249  -0.359 -1.8967  1.5997 -0.5302
  327MOL0     H44119   2.953   5.270  -0.044 -0.3262 -1.1897 -0.5754
  327MOL0     H44120   3.050   5.389  -0.133  3.5156 -1.0693  2.1553
  327MOL0     H44121   3.159   5.189  -0.003 -1.8409 -0.7222 -0.1408
  327MOL0     H44122   3.123   5.095  -0.148  0.5142  0.4330 -0.8317
  327MOL0     H44123   3.276   5.358  -0.153  2.9358 -1.1626  3.8995
  327MOL0     H44124   3.249   5.248  -0.289  0.8983 -0.8969  0.5398
  327MOL0     H44125   3.374   5.069  -0.182 -0.2002  0.9491  2.1686
  327MOL0     H44126   3.404   5.172  -0.048 -2.2098 -1.4321 -0.0152
  327MOL0     H44127   2.499   5.510  -0.108  0.1000  1.0519 -2.3213
  327MOL0     H44128   2.328   5.381  -0.004  2.0967  0.5250  0.7299
  327MOL0     H44129   2.138   5.042   0.107  0.7930 -3.0342 -0.5383
  327MOL0     H44130   2.014   4.921   0.236  4.9003  5.1654 -0.5902
  327MOL0     H44131   1.487   5.084   0.660  1.1054  0.5775 -0.4626
  327MOL0     H44132   1.695   5.141   0.542  1.6048  0.5893 -0.1924
  327MOL0     H44133   1.995   5.405   0.458  1.1635  1.0717  3.3753
  327MOL0     H44134   2.173   5.455   0.271  0.4941 -1.0963 -1.8918
  327MOL0     H44135   2.562   5.275   0.450  0.1880 -0.3931 -0.3181
  327MOL0     H44136   2.556   5.167   0.314  2.2190  0.5070  0.6503
  327MOL0     H44137   2.761   5.308   0.296  1.3132 -1.8211 -3.7011
  327MOL0     H44138   2.655   5.451   0.299 -0.1723 -1.2529  2.6823
  327MOL0     H44139   2.747   5.396   0.083 -1.6867  0.4699 -1.3662
  327MOL0     H44140   2.572   5.392   0.087  1.8110  2.2315 -3.1932
  327MOL0     H44141   2.684   5.225  -0.051 -2.0735  0.6822  0.2285
  327MOL0     H44142   2.584   5.144   0.066 -0.0359  0.1915  0.6725
  327MOL0     H44143   2.952   4.968   0.152 -0.5121 -1.6763 -2.1485
  327MOL0     H44144   2.384   5.111   0.453  1.4452  2.9962 -3.3035
  327MOL0     H44145   2.198   5.041   0.567  0.8221 -1.8906 -2.6914
  328MOL0     O44146   5.321   3.465   5.465  0.4976 -0.2574 -0.0825
  328MOL0     C44147   5.312   3.579   5.511  0.3108 -0.1722  0.4669
  328MOL0     O44148   5.204   3.638   5.571  0.6550  0.2189  0.0546
  328MOL0     C44149   5.084   3.571   5.577 -0.8158 -0.1905 -0.4072
  328MOL0     C44150   4.975   3.617   5.498 -1.0199  0.5440 -0.7729
  328MOL0     C44151   4.851   3.547   5.510  0.9187  0.2424 -0.1706
  328MOL0     C44152   4.843   3.423   5.585  0.7159  0.5208  0.1272
  328MOL0     O44153   4.740   3.331   5.592  0.0223  0.0064  0.4102
  328MOL0     C44154   4.629   3.353   5.503  0.1908 -0.8415  0.1997
  328MOL0     C44155   4.519   3.251   5.508  0.1815 -0.0157 -0.8449
  328MOL0     C44156   4.421   3.269   5.392 -0.9897 -0.7171  0.6225
  328MOL0     C44157   4.296   3.192   5.420 -0.1410 -0.2241  0.4683
  328MOL0     C44158   4.209   3.203   5.303  0.2574 -0.2083 -0.5490
  328MOL0     C44159   4.068   3.157   5.330 -0.5267 -0.2333 -0.2886
  328MOL0     C44160   3.994   3.232   5.452  0.5827  0.2241  0.3702
  328MOL0     C44161   3.847   3.282   5.432 -0.4141  0.5124 -0.1755
  328MOL0     N44162   3.774   3.285   5.559  0.8438  0.0968 -0.4479
  328MOL0     C44163   3.730   3.179   5.634  0.5486  0.5383  0.9366
  328MOL0     C44164   3.658   3.230   5.735  0.8388 -0.7207 -0.1888
  328MOL0     C44165   3.583   3.148   5.836  0.0920  0.4646  0.2321
  328MOL0     C44166   3.445   3.098   5.788 -0.6069  0.1834  0.3140
  328MOL0     C44167   3.353   3.218   5.766 -0.0440 -0.7306 -0.3648
  328MOL0     C44168   3.212   3.164   5.726  0.2547  0.2951 -0.2538
  328MOL0     O44169   3.139   3.121   5.845 -0.5837 -0.6284  0.2389
  328MOL0     C44170   3.018   3.057   5.831 -0.0025  0.1844  0.8711
  328MOL0     C44171   2.967   2.982   5.936  0.1220  0.9012 -0.3923
  328MOL0     C44172   2.833   2.934   5.936  0.9924  0.2636  0.9125
  328MOL0     C44173   2.777   2.869   6.051  0.1103  0.0627 -0.5958
  328MOL0     C44174   2.751   2.945   5.821  0.6807 -0.4717  0.0948
  328MOL0     C44175   2.613   2.896   5.825  0.2757 -0.4576  0.1199
  328MOL0     O44176   2.582   2.765   5.782  0.0552  0.9277 -0.2244
  328MOL0     C44177   2.457   2.730   5.766  0.7560 -1.2936  1.0707
  328MOL0     C44178   2.416   2.678   5.643 -1.0412 -0.0786  0.5353
  328MOL0     C44179   2.282   2.643   5.628 -0.1489  0.0887  0.5920
  328MOL0     C44180   2.190   2.633   5.738 -0.3829  0.4850 -0.0196
  328MOL0     O44181   2.062   2.586   5.747 -0.1051  0.0344  0.4055
  328MOL0     C44182   1.996   2.561   5.625  0.5654  0.4071 -0.8196
  328MOL0     C44183   1.875   2.472   5.647 -0.6612 -0.3920  0.9486
  328MOL0     C44184   1.780   2.528   5.757  0.4437 -0.3793  0.5279
  328MOL0     C44185   1.632   2.480   5.768 -0.1713 -0.3088  0.0382
  328MOL0     C44186   1.600   2.352   5.700 -0.4469  0.6193 -0.2520
  328MOL0     C44187   1.454   2.324   5.706  0.2684 -0.0703 -0.5062
  328MOL0     C44188   1.393   2.373   5.581  0.7640  0.2448 -0.0032
  328MOL0     C44189   1.235   2.361   5.575 -0.8623 -0.6405  0.1035
  328MOL0    Cl44190   1.133   2.451   5.681 -0.1247  0.2059  0.4151
  328MOL0     C44191   2.244   2.671   5.864  0.2232  0.0957  0.0232
  328MOL0     C44192   2.366   2.738   5.872 -0.9450 -0.3204  0.5194
  328MOL0     O44193   2.530   2.982   5.865 -0.1338 -0.5463  0.5973
  328MOL0     C44194   2.810   3.005   5.712 -0.1719 -1.0084  0.1493
  328MOL0     C44195   2.940   3.063   5.715  0.0631 -0.0767  0.6667
  328MOL0     N44196   3.648   3.365   5.709  1.4472 -0.7647  0.5464
  328MOL0     N44197   3.724   3.397   5.605  0.0292 -0.3977  0.3989
  328MOL0     C44198   4.957   3.380   5.654  0.7003 -0.0789 -1.3755
  328MOL0     C44199   5.078   3.453   5.650 -0.1901 -0.2437 -0.2056
  328MOL0     C44200   5.436   3.649   5.506  0.3044  0.4111 -0.1743
  328MOL0     C44201   5.561   3.591   5.478 -0.0780 -0.5456  0.3468
  328MOL0     C44202   5.682   3.672   5.484  0.1599  0.0733  0.7114
  328MOL0     C44203   5.680   3.810   5.515  0.5749  0.1535  0.2910
  328MOL0     O44204   5.789   3.888   5.536 -0.6803  0.0396  0.3779
  328MOL0     C44205   5.923   3.833   5.510  0.1963  0.2578 -0.0212
  328MOL0     C44206   6.038   3.928   5.544 -0.8333  0.1331 -0.1304
  328MOL0     C44207   6.080   3.919   5.698  1.2538  0.4366  0.0267
  328MOL0     C44208   6.160   4.038   5.735  0.7054 -1.3726 -0.5520
  328MOL0     C44209   6.185   4.032   5.880 -0.1084  0.8135  0.6848
  328MOL0     C44210   6.222   4.022   5.995  0.2209 -0.0222 -0.8151
  328MOL0     C44211   5.552   3.863   5.547  0.7425  0.4124  0.0509
  328MOL0     C44212   5.430   3.791   5.544  0.1266 -0.3749 -0.4788
  328MOL0     H44213   4.996   3.697   5.428 -0.4798  0.8932 -0.2180
  328MOL0     H44214   4.761   3.580   5.459  0.5479  0.3719  0.5585
  328MOL0     H44215   4.589   3.454   5.509 -0.1275 -0.8825 -1.0223
  328MOL0     H44216   4.672   3.341   5.403 -2.2806 -0.7229 -0.9451
  328MOL0     H44217   4.566   3.152   5.513  1.6066  0.6303 -0.9046
  328MOL0     H44218   4.472   3.251   5.607  0.5665 -0.2595 -0.6564
  328MOL0     H44219   4.388   3.372   5.374  0.8294 -0.0855  0.6135
  328MOL0     H44220   4.463   3.231   5.299  3.0470 -1.3458  2.4837
  328MOL0     H44221   4.315   3.086   5.436 -0.7891 -0.5497 -0.8287
  328MOL0     H44222   4.236   3.228   5.505 -1.4604 -2.9080  0.7704
  328MOL0     H44223   4.211   3.305   5.265  0.5895  0.1633  0.4533
  328MOL0     H44224   4.257   3.145   5.223  0.7977 -0.0734 -0.3200
  328MOL0     H44225   4.013   3.165   5.236 -0.7175 -3.9496 -0.6433
  328MOL0     H44226   4.077   3.051   5.358 -0.4337  0.0246  0.7152
  328MOL0     H44227   3.990   3.151   5.526 -0.6179  0.2064  0.3039
  328MOL0     H44228   4.053   3.317   5.485  0.1164  0.7861 -0.2185
  328MOL0     H44229   3.796   3.212   5.366 -1.3766  0.9717  0.0452
  328MOL0     H44230   3.841   3.383   5.389 -1.4235  1.2473  1.5510
  328MOL0     H44231   3.747   3.075   5.609  1.7553  1.3873 -2.2579
  328MOL0     H44232   3.645   3.064   5.869 -0.0086  0.2898 -0.0140
  328MOL0     H44233   3.566   3.215   5.920 -2.4502  0.6118 -0.3413
  328MOL0     H44234   3.419   3.033   5.872  1.8728 -1.5589 -0.1781
  328MOL0     H44235   3.464   3.030   5.705  0.3731  1.2374 -0.3573
  328MOL0     H44236   3.381   3.272   5.675 -1.0947 -0.7781 -0.7286
  328MOL0     H44237   3.349   3.277   5.858 -0.2115  0.3224 -1.0367
  328MOL0     H44238   3.234   3.088   5.651  1.7202  1.3161 -0.9027
  328MOL0     H44239   3.156   3.246   5.678  0.7635 -0.6766 -2.6775
  328MOL0     H44240   3.028   2.971   6.025 -0.0128  3.3852  0.0820
  328MOL0     H44241   2.676   2.905   6.074 -0.1121 -1.6253  1.3727
  328MOL0     H44242   2.778   2.760   6.046  1.4703 -0.2922  3.4872
  328MOL0     H44243   2.834   2.907   6.136 -2.4381  0.6767  0.9378
  328MOL0     H44244   2.494   2.670   5.568 -1.7197 -0.0379 -0.1963
  328MOL0     H44245   2.258   2.608   5.528 -1.5953 -0.1906  1.0177
  328MOL0     H44246   1.975   2.655   5.573  1.2293 -0.3246 -2.4937
  328MOL0     H44247   2.063   2.497   5.566  1.3035 -2.3073  2.6520
  328MOL0     H44248   1.823   2.460   5.552  1.0063  1.2518 -0.2524
  328MOL0     H44249   1.908   2.369   5.666 -0.6672 -0.5565  0.1231
  328MOL0     H44250   1.782   2.637   5.754  0.6053 -0.3436  1.6740
  328MOL0     H44251   1.823   2.507   5.855 -1.3615  1.9708  1.9154
  328MOL0     H44252   1.607   2.476   5.874  2.1229 -0.8877  0.6074
  328MOL0     H44253   1.578   2.566   5.726  0.0677 -1.3305 -2.5764
  328MOL0     H44254   1.649   2.266   5.747 -2.0484 -0.1926  0.0018
  328MOL0     H44255   1.624   2.352   5.594 -0.3673 -1.0392 -0.2564
  328MOL0     H44256   1.441   2.215   5.698  3.0424 -0.3523 -2.6544
  328MOL0     H44257   1.402   2.364   5.794  0.2025 -2.3496  0.5829
  328MOL0     H44258   1.421   2.305   5.499 -1.4531 -0.7397 -0.0250
  328MOL0     H44259   1.423   2.475   5.558  2.5161 -0.4066 -0.8096
  328MOL0     H44260   1.218   2.254   5.590 -0.1222 -0.5036  2.2030
  328MOL0     H44261   1.201   2.387   5.474  2.1186  1.3639 -0.5083
  328MOL0     H44262   2.181   2.664   5.952 -0.7073  0.0729 -0.6270
  328MOL0     H44263   2.388   2.778   5.971 -1.7982 -2.1469  1.5003
  328MOL0     H44264   2.762   2.999   5.615  2.2135  0.8881 -1.2643
  328MOL0     H44265   2.984   3.106   5.626  0.3009 -2.7942 -0.6195
  328MOL0     H44266   4.957   3.297   5.724 -5.6089  0.1632 -0.5158
  328MOL0     H44267   5.158   3.432   5.719 -0.5523  4.1273  1.9155
  328MOL0     H44268   5.558   3.484   5.462  2.3347 -0.6452  0.0898
  328MOL0     H44269   5.779   3.627   5.470  0.2653  0.0387  1.5416
  328MOL0     H44270   5.938   3.735   5.558 -5.2585 -0.2414  1.4054
  328MOL0     H44271   5.943   3.817   5.404  0.7950  0.9864 -0.0253
  328MOL0     H44272   6.015   4.029   5.509 -0.6976  0.1027 -0.3137
  328MOL0     H44273   6.132   3.891   5.502 -0.7322 -1.2799  1.2769
  328MOL0     H44274   6.127   3.821   5.712  0.5370  0.0461 -0.2179
  328MOL0     H44275   5.989   3.928   5.759  1.3930 -2.5250  0.8480
  328MOL0     H44276   6.108   4.133   5.719  0.9031 -1.2938 -0.7291
  328MOL0     H44277   6.258   4.035   5.688  0.5503  2.7628 -1.4878
  328MOL0     H44278   6.250   4.002   6.097  1.0932  2.1041 -0.5764
  328MOL0     H44279   5.568   3.967   5.574 -0.2897  0.5104  0.3129
  328MOL0     H44280   5.338   3.847   5.561  0.7702  1.1433 -1.7221
  329MOL0     O44281   0.857   1.764   3.572 -0.0125 -0.2743  0.5157
  329MOL0     C44282   0.907   1.869   3.582  0.2477 -0.5516 -0.2918
  329MOL0     O44283   0.863   1.958   3.671 -1.2109 -0.3344  0.5980
  329MOL0     C44284   0.760   1.921   3.758  0.4768  0.0332  0.1490
  329MOL0     C44285   0.774   1.927   3.896  0.0200 -1.1141  0.1327
  329MOL0     C44286   0.657   1.894   3.980  0.1902  0.2068 -0.8642
  329MOL0     C44287   0.529   1.874   3.924  0.5036 -0.3473  0.8126
  329MOL0     O44288   0.413   1.842   3.991 -0.9443 -0.4361  0.0927
  329MOL0     C44289   0.421   1.805   4.127 -0.1198 -0.1774 -0.4453
  329MOL0     C44290   0.277   1.755   4.174  0.7029 -0.4991 -0.3735
  329MOL0     C44291   0.169   1.861   4.138  0.4705 -0.3334  0.2400
  329MOL0     C44292   0.039   1.825   4.216 -0.3347  0.4501  0.6561
  329MOL0     C44293  -0.077   1.912   4.177  0.5606 -0.1132 -0.3708
  329MOL0     C44294  -0.205   1.854   4.236 -0.0536 -0.0309  0.1689
  329MOL0     C44295  -0.318   1.956   4.225  0.3761  0.1424  0.5815
  329MOL0     C44296  -0.442   1.883   4.279 -0.0418 -0.3212 -0.2506
  329MOL0     N44297  -0.453   1.875   4.415  0.0150 -0.1203  0.4345
  329MOL0     C44298  -0.456   1.974   4.506 -0.1069  0.6216 -0.1990
  329MOL0     C44299  -0.442   1.913   4.628 -0.0994  0.0356  0.2579
  329MOL0     C44300  -0.462   1.980   4.758 -0.8566 -0.0817  0.1015
  329MOL0     C44301  -0.602   2.012   4.795  0.4953 -0.0787  0.6078
  329MOL0     C44302  -0.602   2.024   4.945 -0.5422  0.7988 -1.1335
  329MOL0     C44303  -0.747   2.041   5.002 -0.4292  0.8265 -0.7863
  329MOL0     O44304  -0.822   1.922   4.977 -0.3667  0.2752  0.7030
  329MOL0     C44305  -0.958   1.921   5.001  0.0641  0.0760 -0.4366
  329MOL0     C44306  -1.026   2.013   5.081  0.0262 -0.1774  0.5480
  329MOL0     C44307  -1.166   2.018   5.102 -0.8212 -0.9478  0.6160
  329MOL0     C44308  -1.204   2.134   5.193 -0.5356  0.2387 -0.0066
  329MOL0     C44309  -1.242   1.922   5.031 -0.9735 -0.7103 -0.1546
  329MOL0     C44310  -1.381   1.922   5.025 -0.8532 -0.4838 -0.4426
  329MOL0     O44311  -1.441   1.867   4.918 -0.3594 -0.3083 -1.4017
  329MOL0     C44312  -1.570   1.840   4.920  0.4602  0.8458 -0.3667
  329MOL0     C44313  -1.649   1.867   4.803  0.7213 -0.1809 -0.2074
  329MOL0     C44314  -1.791   1.838   4.801 -0.0204  0.1137 -0.0176
  329MOL0     C44315  -1.849   1.791   4.917  0.2101  0.2462  0.5245
  329MOL0     O44316  -1.979   1.750   4.913 -0.5763 -0.7829 -0.2000
  329MOL0     C44317  -2.005   1.625   4.850  0.0049 -0.0972  0.0267
  329MOL0     C44318  -2.079   1.537   4.955 -0.0590  0.2592  0.0906
  329MOL0     C44319  -2.226   1.570   4.967  0.3258  0.5998  0.3085
  329MOL0     C44320  -2.260   1.701   5.047 -0.6276 -0.5672  0.3487
  329MOL0     C44321  -2.404   1.724   5.034  0.1137 -0.1618  1.2831
  329MOL0     C44322  -2.449   1.859   5.082  0.1958  1.1404  0.0070
  329MOL0     C44323  -2.436   1.976   4.980 -0.5133 -0.2065 -0.0929
  329MOL0     C44324  -2.475   2.112   5.053 -0.3916 -0.3902  0.3758
  329MOL0    Cl44325  -2.467   2.236   4.937 -0.6949  0.0050  0.2521
  329MOL0     C44326  -1.774   1.761   5.035 -0.4136 -1.0733  0.3676
  329MOL0     C44327  -1.631   1.775   5.029  1.2777  0.0191  0.9659
  329MOL0     O44328  -1.437   1.971   5.122  0.0562 -0.6727 -0.7754
  329MOL0     C44329  -1.178   1.829   4.946  0.1473  0.2145 -1.6260
  329MOL0     C44330  -1.037   1.828   4.935  0.3290 -0.9947  0.5755
  329MOL0     N44331  -0.430   1.782   4.608 -0.6695  0.4228 -0.3883
  329MOL0     N44332  -0.436   1.761   4.483  0.1246 -0.1313 -0.5304
  329MOL0     C44333   0.515   1.906   3.790 -0.2142  0.4645  0.2175
  329MOL0     C44334   0.623   1.917   3.712 -0.0927  0.8709  0.3790
  329MOL0     C44335   1.024   1.890   3.496 -0.3535  0.5388 -0.4243
  329MOL0     C44336   1.112   1.997   3.522 -0.0160  0.2048  0.8415
  329MOL0     C44337   1.227   2.013   3.441  0.6052 -0.2609 -0.5916
  329MOL0     C44338   1.249   1.929   3.327 -0.2546  0.2011  0.1852
  329MOL0     O44339   1.355   1.973   3.251  0.1190  0.0246 -0.3779
  329MOL0     C44340   1.382   1.908   3.128 -0.5477  0.4120  0.2287
  329MOL0     C44341   1.506   1.964   3.064  0.3895  0.3677 -0.1454
  329MOL0     C44342   1.636   1.967   3.148  0.1020  1.0332  0.3193
  329MOL0     C44343   1.742   1.982   3.048  0.1596 -0.1028 -0.4111
  329MOL0     C44344   1.774   1.864   2.974  0.9198  0.0164 -0.3166
  329MOL0     C44345   1.814   1.764   2.917  0.2005 -0.4599  0.2953
  329MOL0     C44346   1.164   1.824   3.302  0.5020 -0.3262 -0.0485
  329MOL0     C44347   1.057   1.802   3.388  0.2797 -0.3206 -0.1781
  329MOL0     H44348   0.870   1.948   3.943 -1.8026  2.6668  2.7069
  329MOL0     H44349   0.684   1.893   4.085 -3.5156 -1.5568  0.2585
  329MOL0     H44350   0.492   1.723   4.141  1.3132  0.5868 -2.6425
  329MOL0     H44351   0.456   1.885   4.191 -1.1772 -1.2594  1.5700
  329MOL0     H44352   0.247   1.660   4.127 -1.3678 -0.5218  0.9043
  329MOL0     H44353   0.273   1.730   4.280  2.7671 -0.1306 -0.1527
  329MOL0     H44354   0.190   1.967   4.160 -1.6899  0.5967 -1.7860
  329MOL0     H44355   0.150   1.854   4.031 -0.1474  1.3999  0.2049
  329MOL0     H44356   0.009   1.720   4.206 -2.7797  0.7594  3.3889
  329MOL0     H44357   0.060   1.823   4.323  1.3740 -0.2947  0.3395
  329MOL0     H44358  -0.070   2.014   4.217  1.5826 -1.2489  2.5654
  329MOL0     H44359  -0.085   1.922   4.068 -2.1496  0.0174 -0.2312
  329MOL0     H44360  -0.226   1.756   4.191  0.8291 -1.4795  2.7450
  329MOL0     H44361  -0.188   1.835   4.342  1.1299 -0.1147 -0.0218
  329MOL0     H44362  -0.303   2.058   4.263 -0.5123  0.1409  0.9519
  329MOL0     H44363  -0.349   1.963   4.120 -1.4099 -0.1713  1.0519
  329MOL0     H44364  -0.446   1.786   4.230  1.2740 -0.0552 -0.9245
  329MOL0     H44365  -0.529   1.936   4.240  0.7858  2.4409  1.3785
  329MOL0     H44366  -0.473   2.078   4.478  2.2076  0.7115 -1.5342
  329MOL0     H44367  -0.413   1.904   4.820  1.1440 -0.4701 -1.8353
  329MOL0     H44368  -0.405   2.073   4.770 -0.9752 -0.2842  3.0952
  329MOL0     H44369  -0.667   1.928   4.771  1.3561 -0.3105 -1.0746
  329MOL0     H44370  -0.639   2.108   4.756 -0.3551 -0.7026 -0.1581
  329MOL0     H44371  -0.554   2.112   4.987 -0.2871 -0.8650  2.3595
  329MOL0     H44372  -0.543   1.945   4.992  2.2176  2.1140 -2.1808
  329MOL0     H44373  -0.791   2.125   4.949 -0.4104  0.1909 -1.8435
  329MOL0     H44374  -0.730   2.067   5.107 -1.2408 -1.5798  0.0165
  329MOL0     H44375  -0.965   2.088   5.129 -0.4012 -1.0103  2.4916
  329MOL0     H44376  -1.246   2.210   5.126 -1.2383 -1.1063 -1.1349
  329MOL0     H44377  -1.281   2.096   5.260  0.4484 -0.5400  0.7065
  329MOL0     H44378  -1.118   2.171   5.249 -0.3157 -2.0843  1.3076
  329MOL0     H44379  -1.611   1.921   4.717  1.0631 -2.4892 -1.5916
  329MOL0     H44380  -1.852   1.867   4.717  2.4579  1.4230 -1.4925
  329MOL0     H44381  -2.068   1.642   4.762  1.5108 -0.4052 -1.1551
  329MOL0     H44382  -1.913   1.571   4.827  0.6585  0.1229  1.9506
  329MOL0     H44383  -2.074   1.442   4.901  3.3065  0.2937  0.1203
  329MOL0     H44384  -2.031   1.524   5.052 -2.7544  1.0821  1.6476
  329MOL0     H44385  -2.272   1.483   5.016  1.5735  0.2418  0.8797
  329MOL0     H44386  -2.267   1.577   4.866 -3.0221 -2.6565  1.2158
  329MOL0     H44387  -2.223   1.707   5.150  0.5879  1.3272 -0.1521
  329MOL0     H44388  -2.220   1.787   4.993  1.4761 -3.0952 -2.4630
  329MOL0     H44389  -2.459   1.655   5.098 -0.5781 -0.7248  0.0996
  329MOL0     H44390  -2.437   1.711   4.930  2.1193 -1.5039  0.7718
  329MOL0     H44391  -2.555   1.848   5.109  0.4555 -2.6688  0.1434
  329MOL0     H44392  -2.400   1.896   5.172 -0.1082 -0.5867  0.9261
  329MOL0     H44393  -2.503   1.967   4.894  0.2446 -1.6418 -0.5617
  329MOL0     H44394  -2.334   1.997   4.949 -0.6565  1.9651  0.7163
  329MOL0     H44395  -2.421   2.137   5.145  0.5760  0.5856 -0.4293
  329MOL0     H44396  -2.576   2.099   5.092 -0.2107  0.8723  1.3653
  329MOL0     H44397  -1.827   1.713   5.117  0.0615 -0.0288  1.3152
  329MOL0     H44398  -1.571   1.747   5.114  2.0776 -1.0611  0.0785
  329MOL0     H44399  -1.228   1.751   4.890 -0.0841  0.6147 -1.9812
  329MOL0     H44400  -0.997   1.748   4.874  0.3534 -0.7207  0.2335
  329MOL0     H44401   0.412   1.894   3.756 -0.6120  1.1637  1.1334
  329MOL0     H44402   0.606   1.926   3.605  0.6715  4.0131  0.4191
  329MOL0     H44403   1.085   2.063   3.604 -1.1939  0.1949  0.4841
  329MOL0     H44404   1.296   2.096   3.453 -0.4600  0.3237  2.3977
  329MOL0     H44405   1.401   1.801   3.140  2.7389  0.9386  0.9226
  329MOL0     H44406   1.294   1.922   3.066 -0.3734 -1.9768 -0.6587
  329MOL0     H44407   1.487   2.070   3.046  1.2095  0.0639 -3.7616
  329MOL0     H44408   1.521   1.909   2.970 -1.3287  1.2269 -0.9640
  329MOL0     H44409   1.653   1.880   3.212 -1.6102  2.3931  2.7745
  329MOL0     H44410   1.616   2.051   3.215 -0.5849  1.0368  0.1210
  329MOL0     H44411   1.836   2.003   3.099  1.3111  0.3172 -2.5972
  329MOL0     H44412   1.734   2.071   2.985 -0.0788 -0.0809 -0.3541
  329MOL0     H44413   1.848   1.673   2.872 -0.7332 -0.5477 -0.2456
  329MOL0     H44414   1.175   1.742   3.232 -0.0973 -0.5046  0.0581
  329MOL0     H44415   0.992   1.721   3.358 -2.2254  1.1671  0.8733
  330MOL0     O44416   9.558   0.696   2.453 -0.6475 -0.2483  0.1217
  330MOL0     C44417   9.572   0.618   2.357  0.4339  0.1163  0.4940
  330MOL0     O44418   9.474   0.537   2.302 -0.2500  0.1574  0.2528
  330MOL0     C44419   9.334   0.560   2.323  0.5911 -0.6751  0.1329
  330MOL0     C44420   9.249   0.451   2.349  0.1521  0.0835  0.3737
  330MOL0     C44421   9.110   0.470   2.375 -0.3848 -0.6458 -0.4147
  330MOL0     C44422   9.052   0.597   2.363 -1.1771 -0.4746 -0.0445
  330MOL0     O44423   8.915   0.604   2.359  0.5578  0.2768 -0.5968
  330MOL0     C44424   8.871   0.717   2.291  1.4467 -0.5864  0.0202
  330MOL0     C44425   8.725   0.700   2.257 -0.8170  0.1302  0.3219
  330MOL0     C44426   8.703   0.564   2.182  0.2368 -0.2419 -0.0307
  330MOL0     C44427   8.547   0.545   2.159  0.1927  0.4177 -0.3628
  330MOL0     C44428   8.495   0.407   2.109  0.3549 -0.4509  0.6754
  330MOL0     C44429   8.347   0.426   2.052  0.3741 -0.6051 -0.1217
  330MOL0     C44430   8.239   0.443   2.165  0.3823  1.1718 -0.5173
  330MOL0     C44431   8.139   0.555   2.114  0.2521  0.6977  0.2376
  330MOL0     N44432   8.071   0.513   1.987  0.6524 -0.0944  0.6684
  330MOL0     C44433   8.046   0.595   1.882  0.3396  0.4203 -0.2522
  330MOL0     C44434   7.963   0.530   1.801  0.5724  0.3640  0.1981
  330MOL0     C44435   7.903   0.600   1.680  0.2442 -0.2947  0.3446
  330MOL0     C44436   7.806   0.505   1.610 -0.3267  0.4490 -0.0019
  330MOL0     C44437   7.740   0.570   1.487 -0.1121 -0.7176 -0.1006
  330MOL0     C44438   7.690   0.460   1.384  0.1333 -0.6873 -0.2431
  330MOL0     O44439   7.647   0.533   1.264 -0.1994  0.5254  0.3787
  330MOL0     C44440   7.509   0.559   1.254 -0.5733 -0.1602  0.0226
  330MOL0     C44441   7.425   0.458   1.211  0.2817 -0.3474  0.5650
  330MOL0     C44442   7.288   0.478   1.191  1.4321 -0.1677  0.2623
  330MOL0     C44443   7.201   0.367   1.135 -0.1784 -0.0842 -0.1316
  330MOL0     C44444   7.229   0.607   1.223  0.7130 -0.4524 -1.3235
  330MOL0     C44445   7.087   0.654   1.209  0.4953  0.3418  0.1290
  330MOL0     O44446   7.066   0.775   1.271  0.1284 -0.3687  0.1962
  330MOL0     C44447   6.937   0.828   1.257 -0.3371  0.8013 -0.2919
  330MOL0     C44448   6.856   0.844   1.378  0.0414  0.3910  0.0401
  330MOL0     C44449   6.724   0.885   1.355  0.9633 -0.2568  0.3385
  330MOL0     C44450   6.672   0.919   1.224  1.0379  0.4409 -0.1283
  330MOL0     O44451   6.540   0.969   1.205 -0.1307  0.1119 -0.6410
  330MOL0     C44452   6.450   0.914   1.306  0.1161 -0.2592  0.0530
  330MOL0     C44453   6.307   0.942   1.252  0.0705 -0.3184  0.2132
  330MOL0     C44454   6.269   1.089   1.245  0.4688  0.1676 -0.2715
  330MOL0     C44455   6.129   1.123   1.175 -0.6018  0.6055 -0.4124
  330MOL0     C44456   6.131   1.271   1.136 -0.2773  0.2165 -0.3848
  330MOL0     C44457   5.994   1.317   1.082 -0.2984 -0.1319 -0.6053
  330MOL0     C44458   5.947   1.249   0.947  0.7392  0.5754 -0.1488
  330MOL0     C44459   5.791   1.245   0.932 -0.6709 -0.2533 -0.3596
  330MOL0    Cl44460   5.708   1.379   0.860 -0.0794  0.0219  0.3582
  330MOL0     C44461   6.757   0.908   1.114  0.4667 -0.6090 -0.3524
  330MOL0     C44462   6.894   0.871   1.132 -0.5594 -0.3139 -0.5261
  330MOL0     O44463   6.999   0.590   1.151  1.1427 -0.5626 -0.2445
  330MOL0     C44464   7.323   0.707   1.263  0.2140 -0.6381  0.2059
  330MOL0     C44465   7.456   0.683   1.286  0.2930 -0.6013 -0.4271
  330MOL0     N44466   7.930   0.410   1.865  0.0738 -0.1348 -0.1305
  330MOL0     N44467   7.981   0.407   1.983 -0.1823  0.0171 -0.7106
  330MOL0     C44468   9.145   0.705   2.327  0.1456  0.3874  0.2014
  330MOL0     C44469   9.277   0.687   2.307 -0.7801 -0.2569 -0.0773
  330MOL0     C44470   9.706   0.594   2.306  0.3562 -0.1909  0.4828
  330MOL0     C44471   9.809   0.687   2.337  1.0454 -0.5602 -0.8814
  330MOL0     C44472   9.941   0.672   2.303  0.9526  0.6402 -0.6148
  330MOL0     C44473   9.982   0.558   2.230 -0.0053 -0.6444 -0.0196
  330MOL0     O44474  10.116   0.540   2.200 -0.1850 -0.2304  0.3648
  330MOL0     C44475  10.221   0.619   2.255 -0.5178 -0.3242 -0.9524
  330MOL0     C44476  10.350   0.539   2.216 -0.8443 -0.2766  0.9251
  330MOL0     C44477  10.392   0.540   2.066  0.0483  0.1194 -0.5829
  330MOL0     C44478  10.450   0.677   2.028  0.0295 -0.1443 -0.5484
  330MOL0     C44479  10.584   0.704   2.072 -0.3703 -0.8325  0.3102
  330MOL0     C44480  10.685   0.725   2.137  0.3123  0.4978  0.0076
  330MOL0     C44481   9.884   0.473   2.179  0.4544  0.0019 -0.2971
  330MOL0     C44482   9.749   0.484   2.223 -0.5094 -0.5586  0.2084
  330MOL0     H44483   9.287   0.350   2.357  0.7270  0.4201  2.8198
  330MOL0     H44484   9.050   0.385   2.405  0.3660 -1.4272 -1.0568
  330MOL0     H44485   8.873   0.813   2.344  1.0330 -0.2380 -0.5886
  330MOL0     H44486   8.930   0.734   2.200  1.4083 -0.3992  0.0301
  330MOL0     H44487   8.670   0.680   2.350 -0.0972  1.2298  1.0096
  330MOL0     H44488   8.684   0.780   2.195  2.1704  1.5571  0.0351
  330MOL0     H44489   8.751   0.572   2.084 -1.1695  3.3661 -0.6006
  330MOL0     H44490   8.748   0.483   2.241  1.7435 -0.8174 -1.8673
  330MOL0     H44491   8.504   0.561   2.258  0.9095  0.5167 -0.0611
  330MOL0     H44492   8.510   0.631   2.102 -1.2039  0.6363  0.8126
  330MOL0     H44493   8.565   0.376   2.031 -0.7372 -1.1272 -0.0775
  330MOL0     H44494   8.505   0.327   2.183 -0.3980 -1.4844 -0.2960
  330MOL0     H44495   8.353   0.514   1.988 -0.4648  1.8797  2.9320
  330MOL0     H44496   8.318   0.336   1.998  3.8179 -1.9403 -0.0587
  330MOL0     H44497   8.189   0.348   2.189  0.9020  0.3421 -2.5283
  330MOL0     H44498   8.297   0.477   2.252  0.8122 -0.2313 -0.2254
  330MOL0     H44499   8.198   0.640   2.080 -0.7504  0.3131 -2.8311
  330MOL0     H44500   8.070   0.577   2.196  1.0380 -1.1281  1.4612
  330MOL0     H44501   8.100   0.685   1.856  2.7489 -1.6330 -2.9951
  330MOL0     H44502   7.841   0.683   1.715 -2.3332 -0.5593 -3.0816
  330MOL0     H44503   7.986   0.638   1.619  0.6906  0.7242  1.5401
  330MOL0     H44504   7.731   0.488   1.688 -0.5013 -2.8129 -0.7233
  330MOL0     H44505   7.859   0.410   1.595  0.9630  1.3314 -1.2201
  330MOL0     H44506   7.819   0.631   1.441  1.9514 -2.4205  1.0283
  330MOL0     H44507   7.662   0.644   1.509  2.4226  2.0346  0.3654
  330MOL0     H44508   7.606   0.409   1.431 -1.8475  2.8042  0.3417
  330MOL0     H44509   7.766   0.383   1.367  0.6861 -0.3263  0.5235
  330MOL0     H44510   7.462   0.360   1.183  0.3427  0.0268 -0.7076
  330MOL0     H44511   7.174   0.383   1.030 -1.3005 -1.1343 -0.0304
  330MOL0     H44512   7.228   0.262   1.150 -0.0357  0.1295  1.2096
  330MOL0     H44513   7.099   0.381   1.173 -1.9960  0.5779 -4.5708
  330MOL0     H44514   6.895   0.833   1.479 -0.4364 -1.1148  0.0717
  330MOL0     H44515   6.653   0.891   1.437 -0.3331 -2.0663 -0.5788
  330MOL0     H44516   6.481   0.810   1.319  3.3058  0.5689 -0.2736
  330MOL0     H44517   6.464   0.970   1.398 -2.1036  1.6556 -0.6780
  330MOL0     H44518   6.298   0.913   1.147 -2.4156  1.6069 -0.1868
  330MOL0     H44519   6.229   0.892   1.311 -1.5962  0.9536 -0.8085
  330MOL0     H44520   6.349   1.134   1.186  1.5884 -0.0578  1.0216
  330MOL0     H44521   6.250   1.131   1.344 -2.8467  1.0359 -1.1393
  330MOL0     H44522   6.111   1.070   1.081 -0.9049  0.1672 -0.1111
  330MOL0     H44523   6.047   1.086   1.237  1.2926 -1.2593  1.1496
  330MOL0     H44524   6.205   1.297   1.060 -0.1174  0.4032 -0.1692
  330MOL0     H44525   6.152   1.334   1.223  1.0575 -3.6013  2.3030
  330MOL0     H44526   5.922   1.291   1.160  1.4600 -2.3020  0.4347
  330MOL0     H44527   6.000   1.426   1.070 -1.0705 -0.2615 -2.3781
  330MOL0     H44528   5.982   1.146   0.941 -2.6313 -0.6549 -0.3554
  330MOL0     H44529   5.986   1.309   0.864  1.4359 -0.6689 -0.7374
  330MOL0     H44530   5.750   1.226   1.032  4.3642  0.7000  2.1894
  330MOL0     H44531   5.775   1.153   0.875  4.0459 -1.0114 -0.8575
  330MOL0     H44532   6.716   0.923   1.014  0.2900  2.3444  0.0609
  330MOL0     H44533   6.963   0.867   1.048 -0.0389  1.4259 -0.2250
  330MOL0     H44534   7.296   0.811   1.276  0.4282  0.1472 -4.0502
  330MOL0     H44535   7.529   0.758   1.311 -2.3161  0.8005  4.2079
  330MOL0     H44536   9.116   0.803   2.292  0.3000  0.0351 -0.9661
  330MOL0     H44537   9.343   0.768   2.278 -1.2405  0.4878  0.9247
  330MOL0     H44538   9.783   0.782   2.383  1.6084 -0.2196 -1.2634
  330MOL0     H44539   9.998   0.753   2.348 -0.9820  1.9136 -0.3005
  330MOL0     H44540  10.212   0.718   2.210 -4.6240 -0.1814 -0.2274
  330MOL0     H44541  10.222   0.631   2.364 -1.0526 -2.5403 -0.6417
  330MOL0     H44542  10.339   0.440   2.261 -2.1151  0.7243  2.9925
  330MOL0     H44543  10.439   0.589   2.256  0.9138 -2.2234 -0.3381
  330MOL0     H44544  10.305   0.522   2.002  2.2716 -0.3971 -3.6902
  330MOL0     H44545  10.474   0.468   2.056 -1.0756 -1.2996  0.1071
  330MOL0     H44546  10.392   0.754   2.079  3.5251  2.2539  0.1814
  330MOL0     H44547  10.451   0.689   1.919  0.0718 -2.0841 -0.7946
  330MOL0     H44548  10.777   0.738   2.190 -0.0657  2.1392  0.3262
  330MOL0     H44549   9.898   0.385   2.116  0.9535 -0.2066  0.0998
  330MOL0     H44550   9.675   0.418   2.176  0.9727 -2.4844  0.4502
  331MOL0     O44551   0.891   3.394   1.966 -0.9760 -0.5589 -0.4355
  331MOL0     C44552   0.922   3.323   2.065  0.4837 -0.3010  0.0997
  331MOL0     O44553   0.839   3.232   2.123  0.1549  0.0290 -0.1946
  331MOL0     C44554   0.708   3.223   2.083 -0.2291  0.2342  0.0775
  331MOL0     C44555   0.665   3.203   1.947  0.4355  0.1033 -0.2745
  331MOL0     C44556   0.530   3.196   1.915  0.3983  0.2217 -0.7953
  331MOL0     C44557   0.432   3.211   2.019  0.3513  0.4723 -0.4298
  331MOL0     O44558   0.300   3.211   1.976 -0.3468  0.3172 -0.1496
  331MOL0     C44559   0.225   3.101   2.040  0.9400 -0.9466  0.1131
  331MOL0     C44560   0.124   3.053   1.928 -0.3043 -0.1173  0.0930
  331MOL0     C44561   0.028   2.959   2.002 -0.2622  0.3915  0.5325
  331MOL0     C44562  -0.074   2.893   1.902 -0.2572  0.6696 -0.3141
  331MOL0     C44563  -0.201   2.830   1.977 -0.1033  0.0324 -0.6634
  331MOL0     C44564  -0.307   2.770   1.883  0.5585 -0.4260 -0.0709
  331MOL0     C44565  -0.415   2.670   1.953  0.0851  1.0987  0.8029
  331MOL0     C44566  -0.435   2.710   2.106  0.8132 -0.2221 -0.4866
  331MOL0     N44567  -0.543   2.636   2.172 -0.6760 -0.1472  0.5731
  331MOL0     C44568  -0.538   2.618   2.311  0.7350  0.2361 -0.2915
  331MOL0     C44569  -0.649   2.548   2.340 -0.2832  0.4192 -0.5638
  331MOL0     C44570  -0.677   2.494   2.481 -0.3699 -0.7880  0.4022
  331MOL0     C44571  -0.775   2.382   2.472  0.3379  0.3261  0.0506
  331MOL0     C44572  -0.894   2.389   2.570 -0.4489  0.2754  0.5082
  331MOL0     C44573  -0.975   2.518   2.562 -0.3433 -0.4927 -0.2717
  331MOL0     O44574  -1.085   2.501   2.640  0.3940 -0.4392 -0.1142
  331MOL0     C44575  -1.196   2.567   2.596  0.7468  0.2231  0.5975
  331MOL0     C44576  -1.192   2.700   2.548  0.5708  0.4998 -0.0866
  331MOL0     C44577  -1.311   2.770   2.521 -0.7136  0.6627 -0.9833
  331MOL0     C44578  -1.298   2.919   2.486  0.0065  0.4606 -0.0665
  331MOL0     C44579  -1.427   2.712   2.549  0.0147  0.4364 -0.2369
  331MOL0     C44580  -1.558   2.782   2.526 -0.6728 -0.1271 -0.4112
  331MOL0     O44581  -1.664   2.721   2.589  0.5544  0.0044 -0.3874
  331MOL0     C44582  -1.778   2.785   2.626 -0.4691 -0.4823 -0.3305
  331MOL0     C44583  -1.893   2.704   2.641  0.2120  0.4084  0.0564
  331MOL0     C44584  -2.012   2.759   2.668  0.4162 -0.2892 -0.2974
  331MOL0     C44585  -2.027   2.894   2.697 -0.2601  0.2343 -0.6400
  331MOL0     O44586  -2.152   2.934   2.729 -0.0480  0.3628  0.3986
  331MOL0     C44587  -2.189   3.078   2.726 -0.1301 -1.0432  0.1436
  331MOL0     C44588  -2.339   3.088   2.726  0.3356 -0.2160 -0.3531
  331MOL0     C44589  -2.411   2.991   2.628 -0.0465  0.3218 -0.4673
  331MOL0     C44590  -2.535   2.928   2.696 -0.2109 -0.5577 -0.3799
  331MOL0     C44591  -2.645   3.018   2.759 -0.7639 -0.0844  0.0928
  331MOL0     C44592  -2.702   3.109   2.653 -1.0141 -0.0797  0.2978
  331MOL0     C44593  -2.826   3.191   2.704  0.1858  0.5693  0.3384
  331MOL0     C44594  -2.891   3.280   2.593 -0.3806  0.9807  0.0894
  331MOL0    Cl44595  -2.778   3.388   2.513  0.3320 -0.4060 -0.0745
  331MOL0     C44596  -1.915   2.975   2.707  0.6986  0.8539  0.4158
  331MOL0     C44597  -1.785   2.915   2.672 -0.0573  0.4715 -0.7773
  331MOL0     O44598  -1.570   2.872   2.447 -0.4687 -0.7256  0.4844
  331MOL0     C44599  -1.437   2.579   2.600  0.1893 -0.0538 -0.5398
  331MOL0     C44600  -1.319   2.506   2.622  0.9040 -0.0201 -0.2217
  331MOL0     N44601  -0.720   2.531   2.219 -0.5645  0.1849 -0.0275
  331MOL0     N44602  -0.654   2.574   2.119 -0.5710 -0.8385  0.3316
  331MOL0     C44603   0.474   3.238   2.144  0.6851  0.0597 -0.1376
  331MOL0     C44604   0.610   3.242   2.179 -0.9982  0.2901 -0.0667
  331MOL0     C44605   1.065   3.344   2.124 -0.4316 -0.7871 -0.3874
  331MOL0     C44606   1.119   3.271   2.234  0.7671  1.0186 -0.2119
  331MOL0     C44607   1.254   3.294   2.284 -0.3532  1.1222  0.1145
  331MOL0     C44608   1.332   3.396   2.232 -0.5989  0.9834 -0.5515
  331MOL0     O44609   1.454   3.400   2.291  0.0184  0.1524  0.0956
  331MOL0     C44610   1.545   3.502   2.240 -0.0386 -0.3152  0.5293
  331MOL0     C44611   1.675   3.504   2.321 -0.6012  0.6046  0.5904
  331MOL0     C44612   1.759   3.627   2.264 -0.3739 -0.2975 -0.3381
  331MOL0     C44613   1.903   3.633   2.306  0.6564  0.4859 -0.4743
  331MOL0     C44614   1.967   3.746   2.250 -0.2911 -0.9201  0.0763
  331MOL0     C44615   2.015   3.849   2.200 -0.6803 -0.2531  0.1030
  331MOL0     C44616   1.279   3.483   2.142  0.7654 -0.5524 -0.6904
  331MOL0     C44617   1.149   3.456   2.091 -0.0942 -1.0219  0.3351
  331MOL0     H44618   0.736   3.181   1.869  0.8967 -0.0470  0.1817
  331MOL0     H44619   0.491   3.183   1.814  2.1030  0.4243 -1.5171
  331MOL0     H44620   0.293   3.021   2.072  2.2134  0.9918  2.5053
  331MOL0     H44621   0.179   3.128   2.136  1.9028 -0.6927  0.5122
  331MOL0     H44622   0.077   3.147   1.895  1.0853  1.3506  2.0783
  331MOL0     H44623   0.178   3.014   1.841  0.7376  3.4245 -1.0287
  331MOL0     H44624   0.096   2.885   2.044  0.4055 -1.3859 -3.2827
  331MOL0     H44625  -0.030   3.019   2.073 -3.7696  0.0407 -1.7551
  331MOL0     H44626  -0.109   2.974   1.837 -0.0128  2.0997  1.2541
  331MOL0     H44627  -0.026   2.824   1.833  0.5051  2.1179 -1.2727
  331MOL0     H44628  -0.166   2.753   2.046  0.8137  0.8429 -0.1856
  331MOL0     H44629  -0.238   2.911   2.041 -0.4323  0.2213 -1.0882
  331MOL0     H44630  -0.356   2.855   1.835  0.3490  1.2956  2.8860
  331MOL0     H44631  -0.251   2.712   1.809  3.2155  0.1359  1.3680
  331MOL0     H44632  -0.508   2.676   1.896  0.4884  0.4650  0.0622
  331MOL0     H44633  -0.381   2.566   1.947  1.4034  1.5814 -4.0606
  331MOL0     H44634  -0.469   2.813   2.116 -3.2572 -1.5426  1.6227
  331MOL0     H44635  -0.342   2.686   2.159 -0.4296 -3.9466  0.3519
  331MOL0     H44636  -0.462   2.649   2.382 -2.1400  0.3407  2.9963
  331MOL0     H44637  -0.592   2.449   2.532  0.4302 -1.0628 -1.1193
  331MOL0     H44638  -0.708   2.577   2.546 -0.9196 -1.0625  0.4935
  331MOL0     H44639  -0.722   2.287   2.486  0.4503  0.2784 -0.6654
  331MOL0     H44640  -0.826   2.386   2.375 -0.2244 -0.5035  0.2979
  331MOL0     H44641  -0.851   2.369   2.668  1.6257 -0.9065 -0.5734
  331MOL0     H44642  -0.954   2.300   2.548  0.8613 -0.6497  0.5859
  331MOL0     H44643  -0.988   2.539   2.455  3.4856 -2.4067 -1.3009
  331MOL0     H44644  -0.911   2.597   2.604  0.1993 -1.3170  0.4714
  331MOL0     H44645  -1.092   2.740   2.536  0.4803  0.5571 -0.6660
  331MOL0     H44646  -1.350   2.988   2.554  0.2199 -0.4666  1.0777
  331MOL0     H44647  -1.195   2.953   2.467 -0.7959  3.3511  0.3167
  331MOL0     H44648  -1.339   2.911   2.385  1.0931 -2.2919 -0.3789
  331MOL0     H44649  -1.872   2.599   2.624 -1.7133 -0.0169  0.0850
  331MOL0     H44650  -2.098   2.693   2.674  0.3868 -0.1768  0.8770
  331MOL0     H44651  -2.155   3.137   2.811 -0.7197  1.5414 -1.3060
  331MOL0     H44652  -2.152   3.137   2.642  0.5270  1.4071  2.0641
  331MOL0     H44653  -2.373   3.067   2.828 -1.6171  2.2576 -0.3946
  331MOL0     H44654  -2.356   3.195   2.711  2.8072  0.6218  2.0147
  331MOL0     H44655  -2.347   2.924   2.569 -0.8074  0.9148 -2.0091
  331MOL0     H44656  -2.454   3.057   2.552 -1.0320  0.6143  0.3182
  331MOL0     H44657  -2.590   2.865   2.625 -0.5995 -0.9637  0.2808
  331MOL0     H44658  -2.500   2.864   2.777 -2.6138 -0.0761  1.1241
  331MOL0     H44659  -2.597   3.072   2.842 -0.4704  0.9198 -0.7049
  331MOL0     H44660  -2.725   2.959   2.804 -0.8848 -0.8307 -1.0560
  331MOL0     H44661  -2.630   3.186   2.623 -0.9344 -0.8228 -1.5608
  331MOL0     H44662  -2.725   3.047   2.566 -2.0549  0.9888 -0.2108
  331MOL0     H44663  -2.789   3.253   2.786 -0.5622  0.9599  0.3923
  331MOL0     H44664  -2.915   3.135   2.733  1.5637 -0.8096  2.1313
  331MOL0     H44665  -2.975   3.338   2.632 -1.9491 -0.2171 -1.3380
  331MOL0     H44666  -2.931   3.208   2.521 -0.5841  1.3704 -0.1927
  331MOL0     H44667  -1.932   3.080   2.731 -1.8457  0.5978 -0.0085
  331MOL0     H44668  -1.695   2.976   2.672  0.1875  0.1798  1.0169
  331MOL0     H44669  -1.534   2.531   2.605 -0.4142  1.2274  2.0644
  331MOL0     H44670  -1.313   2.408   2.668  2.8210 -0.5399 -1.4887
  331MOL0     H44671   0.392   3.271   2.207  0.3994  0.9025 -0.9332
  331MOL0     H44672   0.645   3.259   2.281  0.7692  2.3260 -0.9251
  331MOL0     H44673   1.053   3.199   2.281  0.2072  1.0756 -0.8889
  331MOL0     H44674   1.273   3.230   2.370 -2.8239  0.8045  0.5000
  331MOL0     H44675   1.573   3.476   2.137  0.1809  1.4995  0.1120
  331MOL0     H44676   1.502   3.602   2.250  0.1732 -0.0405 -0.9861
  331MOL0     H44677   1.722   3.407   2.304 -2.2484 -0.1403  0.0846
  331MOL0     H44678   1.649   3.517   2.427  0.0701 -0.2850  0.8783
  331MOL0     H44679   1.698   3.711   2.297  0.2350 -0.5719  1.5967
  331MOL0     H44680   1.758   3.615   2.155  2.6144  0.5982 -0.5819
  331MOL0     H44681   1.955   3.539   2.285  0.0842  0.1555 -0.4635
  331MOL0     H44682   1.905   3.640   2.415 -2.9009 -0.6881 -0.2032
  331MOL0     H44683   2.061   3.932   2.151  0.3610  0.0300  1.4945
  331MOL0     H44684   1.341   3.563   2.104  1.8542 -0.5187  1.0581
  331MOL0     H44685   1.109   3.526   2.018 -1.1001  0.5496  2.2869
  332MOL0     O44686  10.148   8.626  10.656 -0.1240  0.0794 -0.7311
  332MOL0     C44687  10.264   8.651  10.629 -0.9626  0.1922  0.3900
  332MOL0     O44688  10.305   8.751  10.545 -0.3115 -0.6838 -0.2623
  332MOL0     C44689  10.209   8.828  10.479  0.2686  0.2462  0.7021
  332MOL0     C44690  10.107   8.878  10.552  0.3028 -0.0634  0.0275
  332MOL0     C44691  10.017   8.969  10.493  0.1927  0.7517 -0.0924
  332MOL0     C44692  10.035   8.999  10.350 -0.6078  0.3708  0.0173
  332MOL0     O44693   9.956   9.088  10.289 -0.8888 -0.5579 -0.0928
  332MOL0     C44694   9.991   9.221  10.301 -0.6545  0.1089 -0.4436
  332MOL0     C44695   9.878   9.316  10.323  0.5471 -0.7081 -0.1587
  332MOL0     C44696   9.788   9.286  10.452  0.7309  0.0982  0.4363
  332MOL0     C44697   9.664   9.378  10.464  0.9800  0.2379 -0.3857
  332MOL0     C44698   9.559   9.346  10.353 -0.3657 -0.4552 -0.4587
  332MOL0     C44699   9.444   9.443  10.346  0.1945  0.5872 -0.3323
  332MOL0     C44700   9.469   9.576  10.272 -0.2036 -0.7596 -1.0147
  332MOL0     C44701   9.339   9.660  10.256 -0.7527 -0.4935 -0.2621
  332MOL0     N44702   9.244   9.606  10.158  0.8225 -0.3560 -0.5766
  332MOL0     C44703   9.129   9.533  10.196 -0.0702 -0.3388 -0.1622
  332MOL0     C44704   9.080   9.485  10.079 -0.1255 -0.0347 -0.7696
  332MOL0     C44705   8.964   9.379  10.069 -0.1272 -0.6918 -0.3132
  332MOL0     C44706   8.825   9.433  10.058  0.8243  0.2642 -0.2410
  332MOL0     C44707   8.709   9.327  10.075 -0.0997  0.0570  0.0368
  332MOL0     C44708   8.694   9.232   9.951 -0.2083 -0.3713 -0.2116
  332MOL0     O44709   8.661   9.304   9.837 -0.2728  0.0225 -0.0005
  332MOL0     C44710   8.538   9.351   9.815  0.4033 -0.0091 -0.1716
  332MOL0     C44711   8.523   9.440   9.712  0.4447 -0.6222 -0.7184
  332MOL0     C44712   8.397   9.492   9.687  0.5073 -0.0512 -0.7785
  332MOL0     C44713   8.389   9.579   9.566  0.4934 -0.4467  0.0978
  332MOL0     C44714   8.283   9.459   9.764 -0.4652 -0.5111 -0.0883
  332MOL0     C44715   8.145   9.500   9.724  0.0654 -0.6761  0.3941
  332MOL0     O44716   8.117   9.512   9.590 -0.6605 -0.1497  0.6352
  332MOL0     C44717   7.998   9.563   9.541  0.5887 -1.0848 -0.3843
  332MOL0     C44718   7.868   9.513   9.577  0.4192 -0.3208  0.3708
  332MOL0     C44719   7.752   9.563   9.520 -0.3105 -0.0053  0.0118
  332MOL0     C44720   7.768   9.674   9.429  0.6542  0.3735 -0.7135
  332MOL0     O44721   7.662   9.720   9.360 -0.0402  0.1304 -0.5242
  332MOL0     C44722   7.538   9.724   9.430  0.0994  0.4247 -0.0049
  332MOL0     C44723   7.440   9.825   9.357 -0.1015 -0.5928 -0.5682
  332MOL0     C44724   7.309   9.829   9.448  0.4665 -0.0493  0.2986
  332MOL0     C44725   7.219   9.707   9.455 -0.6255 -0.2552 -0.4715
  332MOL0     C44726   7.083   9.759   9.513  0.3126  1.2424  0.5837
  332MOL0     C44727   6.982   9.649   9.557 -0.1608 -0.2777 -0.0655
  332MOL0     C44728   6.928   9.556   9.452  1.2336 -0.2067  0.5039
  332MOL0     C44729   6.861   9.626   9.342  0.3161  0.3510  0.8220
  332MOL0    Cl44730   6.693   9.690   9.376  0.1356  0.0487 -0.0763
  332MOL0     C44731   7.888   9.732   9.402  0.4041  0.4054  0.0891
  332MOL0     C44732   8.004   9.675   9.454 -0.8384  0.4301  0.1729
  332MOL0     O44733   8.061   9.514   9.812 -0.0280  0.3927  0.2136
  332MOL0     C44734   8.299   9.364   9.864 -0.1302  0.4846 -1.6315
  332MOL0     C44735   8.419   9.309   9.895 -0.8523 -0.5848  0.0736
  332MOL0     N44736   9.168   9.523   9.976  0.3779 -1.0663 -0.4911
  332MOL0     N44737   9.275   9.587  10.025 -0.0654  1.1358  0.5463
  332MOL0     C44738  10.131   8.936  10.275  0.9414 -0.2661  0.5800
  332MOL0     C44739  10.219   8.851  10.336 -0.0073  0.2778 -0.5741
  332MOL0     C44740  10.376   8.580  10.690  0.5098 -0.4301 -0.5285
  332MOL0     C44741  10.355   8.505  10.806  0.0684 -0.4750 -0.3295
  332MOL0     C44742  10.459   8.449  10.870 -1.0592 -0.5171 -0.7561
  332MOL0     C44743  10.589   8.461  10.819  0.9664  0.2378  0.2704
  332MOL0     O44744  10.689   8.401  10.891  0.7830 -0.4789 -0.4929
  332MOL0     C44745  10.800   8.339  10.829  1.3108 -0.2678 -0.0608
  332MOL0     C44746  10.831   8.198  10.875  0.2177 -0.1830 -0.0824
  332MOL0     C44747  10.898   8.191  11.005  0.2913  0.2880 -0.1407
  332MOL0     C44748  11.052   8.202  11.004 -0.2679 -0.5051 -0.1282
  332MOL0     C44749  11.103   8.206  11.148 -0.1343  0.3905  1.0853
  332MOL0     C44750  11.126   8.245  11.261  0.7594 -0.0423  0.6954
  332MOL0     C44751  10.612   8.524  10.705  0.1519  0.0152 -0.2900
  332MOL0     C44752  10.509   8.589  10.636  0.2791 -0.8039 -0.1267
  332MOL0     H44753  10.092   8.870  10.660  3.3661  0.5667  0.5824
  332MOL0     H44754   9.939   9.021  10.547 -0.4322  0.6349 -0.8674
  332MOL0     H44755  10.061   9.238  10.383  0.3976  0.4297 -1.3799
  332MOL0     H44756  10.029   9.239  10.199 -0.9994 -0.0987 -0.6089
  332MOL0     H44757   9.916   9.418  10.331 -0.9162 -0.0990 -0.5603
  332MOL0     H44758   9.818   9.319  10.231  1.5045 -2.9067 -0.9236
  332MOL0     H44759   9.751   9.184  10.435 -1.7717  1.1798 -1.1206
  332MOL0     H44760   9.836   9.297  10.550 -3.2673  0.9978  2.4954
  332MOL0     H44761   9.614   9.356  10.559 -0.7200  1.7359 -0.8884
  332MOL0     H44762   9.687   9.485  10.469 -3.1491  1.2046  2.0369
  332MOL0     H44763   9.606   9.361  10.255 -1.6653  1.1547 -0.8835
  332MOL0     H44764   9.525   9.242  10.366 -2.0677  0.2413  1.1975
  332MOL0     H44765   9.361   9.386  10.303 -1.8526  2.3355  1.0900
  332MOL0     H44766   9.416   9.472  10.447  3.9114  0.7134  0.8132
  332MOL0     H44767   9.540   9.638  10.328 -0.1344  0.2048 -2.1348
  332MOL0     H44768   9.514   9.553  10.174 -1.2969 -3.7310 -0.9211
  332MOL0     H44769   9.375   9.759  10.226 -1.4562  0.3816  1.6183
  332MOL0     H44770   9.292   9.678  10.353  0.2254 -0.7343  0.2656
  332MOL0     H44771   9.086   9.530  10.295  2.3296 -2.5947  0.9205
  332MOL0     H44772   8.973   9.322   9.976 -1.0786  0.4201 -1.1004
  332MOL0     H44773   8.973   9.312  10.155 -3.2696  0.8303  1.3759
  332MOL0     H44774   8.805   9.494   9.970 -0.5999 -0.6535 -0.5933
  332MOL0     H44775   8.827   9.504  10.141  2.5237  0.4337 -0.3883
  332MOL0     H44776   8.609   9.368  10.090 -0.8963 -2.1844  1.3723
  332MOL0     H44777   8.733   9.265  10.162 -0.2596  0.3779  0.3116
  332MOL0     H44778   8.617   9.160   9.983 -2.3185  1.9903  0.3039
  332MOL0     H44779   8.778   9.166   9.928 -0.5473 -1.0002  0.3160
  332MOL0     H44780   8.610   9.469   9.653 -0.5861  2.9044 -0.7191
  332MOL0     H44781   8.319   9.661   9.587 -2.4235 -1.8203 -3.1543
  332MOL0     H44782   8.487   9.621   9.542  0.1310  1.9481  2.4426
  332MOL0     H44783   8.350   9.515   9.486  0.8705 -2.2682  1.3220
  332MOL0     H44784   7.868   9.433   9.650  2.6641 -0.4777  0.2843
  332MOL0     H44785   7.653   9.521   9.533  0.6341 -2.7713 -1.1535
  332MOL0     H44786   7.500   9.622   9.422  1.5888 -0.0239 -2.2826
  332MOL0     H44787   7.556   9.748   9.535 -0.3845 -1.2109  0.4817
  332MOL0     H44788   7.481   9.925   9.340  0.3258 -0.5364  0.6756
  332MOL0     H44789   7.421   9.790   9.255  0.8365  0.7343 -1.2303
  332MOL0     H44790   7.247   9.906   9.402  1.5173  0.9393  0.4913
  332MOL0     H44791   7.332   9.859   9.551 -2.6787  2.5470  0.4021
  332MOL0     H44792   7.207   9.658   9.358 -0.8374  0.5325 -0.8586
  332MOL0     H44793   7.267   9.628   9.513 -3.2259 -2.5713 -1.2317
  332MOL0     H44794   7.039   9.822   9.435  1.1140 -0.2104 -1.1303
  332MOL0     H44795   7.089   9.823   9.601 -0.6089  2.4787 -0.2248
  332MOL0     H44796   7.032   9.581   9.626 -0.3325 -2.0844 -1.6398
  332MOL0     H44797   6.898   9.694   9.610 -0.5439 -1.0594  0.0009
  332MOL0     H44798   6.850   9.490   9.489  0.3997 -0.4965 -1.6161
  332MOL0     H44799   7.004   9.485   9.419 -0.3268 -3.1383  2.8206
  332MOL0     H44800   6.863   9.552   9.261  4.4912  1.1320 -0.0375
  332MOL0     H44801   6.921   9.708   9.302 -1.0787  0.4669 -1.2104
  332MOL0     H44802   7.901   9.812   9.329  4.2827 -0.3025 -0.2191
  332MOL0     H44803   8.102   9.720   9.440  2.1009 -4.4132  2.5752
  332MOL0     H44804   8.220   9.326   9.927 -0.1424 -0.1540 -2.0319
  332MOL0     H44805   8.414   9.226   9.964 -2.3808 -1.3488 -0.9136
  332MOL0     H44806  10.145   8.945  10.168 -0.1951 -2.7689  0.1431
  332MOL0     H44807  10.303   8.807  10.283 -1.2497 -0.2136 -2.2190
  332MOL0     H44808  10.257   8.501  10.852 -0.1377  0.8238 -0.6179
  332MOL0     H44809  10.441   8.389  10.959  1.0178 -1.7735 -1.1151
  332MOL0     H44810  10.790   8.340  10.720 -0.3609 -0.8968  0.0542
  332MOL0     H44811  10.885   8.402  10.855 -0.9785  1.8547  3.1364
  332MOL0     H44812  10.881   8.144  10.794 -2.3134 -3.4055  0.2856
  332MOL0     H44813  10.733   8.149  10.875 -1.1882  2.4150 -1.5170
  332MOL0     H44814  10.866   8.096  11.049 -0.5528  0.2004 -0.8993
  332MOL0     H44815  10.860   8.269  11.071 -0.9919 -0.8074  0.4897
  332MOL0     H44816  11.092   8.297  10.966  0.6008 -0.1176  1.6583
  332MOL0     H44817  11.096   8.116  10.952  1.4140  0.3819 -0.2479
  332MOL0     H44818  11.129   8.295  11.356  0.3891 -0.6365  1.0266
  332MOL0     H44819  10.714   8.521  10.669  1.6029  2.5347  3.0477
  332MOL0     H44820  10.548   8.640  10.549 -2.2741  0.8328 -0.4136
  333MOL0     O44821   4.812   7.908   7.613 -0.4719 -0.5113  0.4960
  333MOL0     C44822   4.925   7.933   7.569  0.2552  0.4108 -0.0290
  333MOL0     O44823   4.987   7.871   7.466  0.2109  0.0992 -0.5148
  333MOL0     C44824   4.942   7.743   7.445 -0.9501  0.8164  0.3197
  333MOL0     C44825   4.913   7.649   7.547 -0.2715 -0.0580 -0.2297
  333MOL0     C44826   4.864   7.521   7.516  0.9741  0.1303 -0.9293
  333MOL0     C44827   4.842   7.489   7.384 -0.4299  0.2127 -0.4269
  333MOL0     O44828   4.802   7.361   7.358  0.3076 -0.1745 -0.0923
  333MOL0     C44829   4.894   7.292   7.259  0.4907 -0.0943 -0.1657
  333MOL0     C44830   4.899   7.137   7.292  0.1925 -0.0111  0.7269
  333MOL0     C44831   4.991   7.099   7.414  0.2685  0.0147 -0.2308
  333MOL0     C44832   5.034   6.951   7.407  0.8515 -0.1808 -0.6895
  333MOL0     C44833   5.128   6.912   7.525 -0.1698  0.4306  0.5129
  333MOL0     C44834   5.155   6.760   7.531  0.5495 -0.5455  0.2523
  333MOL0     C44835   5.225   6.728   7.666  0.1275  0.1493 -1.2970
  333MOL0     C44836   5.201   6.575   7.672  0.2233 -0.3168 -0.1148
  333MOL0     N44837   5.265   6.498   7.565  0.6364  0.4710 -0.1127
  333MOL0     C44838   5.404   6.470   7.555 -0.1247 -0.2383  0.1294
  333MOL0     C44839   5.415   6.372   7.462  1.2748 -0.0863 -0.1325
  333MOL0     C44840   5.545   6.303   7.425  0.3510  0.3781 -0.2851
  333MOL0     C44841   5.665   6.348   7.512  0.0836 -0.8903 -0.0703
  333MOL0     C44842   5.789   6.273   7.471  0.0898  0.1383 -0.3760
  333MOL0     C44843   5.897   6.299   7.574 -0.9048 -0.7575  0.0396
  333MOL0     O44844   5.966   6.181   7.594  0.8621 -1.0925  0.2294
  333MOL0     C44845   6.078   6.206   7.661  0.2075  0.8949 -1.1323
  333MOL0     C44846   6.076   6.215   7.800  0.0686 -0.5452 -0.3144
  333MOL0     C44847   6.199   6.240   7.868  1.1095  0.6100  0.1514
  333MOL0     C44848   6.182   6.273   8.013 -0.5046 -0.3265 -0.6206
  333MOL0     C44849   6.321   6.234   7.805 -0.4828 -0.3978 -0.7019
  333MOL0     C44850   6.451   6.253   7.869 -0.4747 -0.3854 -0.1938
  333MOL0     O44851   6.551   6.315   7.800 -0.2718  0.0108 -0.1761
  333MOL0     C44852   6.672   6.353   7.853  0.4543 -0.0125 -0.5126
  333MOL0     C44853   6.792   6.330   7.779 -0.3710 -0.6437 -0.2263
  333MOL0     C44854   6.912   6.379   7.828 -0.3764  0.0678  0.7617
  333MOL0     C44855   6.922   6.441   7.958 -0.2178  0.1311  0.0874
  333MOL0     O44856   7.054   6.479   7.982 -0.0744 -0.2551 -0.6174
  333MOL0     C44857   7.073   6.558   8.100  0.3668  1.5174  0.0185
  333MOL0     C44858   7.227   6.592   8.117 -0.3054 -0.4907 -0.3367
  333MOL0     C44859   7.270   6.687   7.998 -0.2862  0.7179 -0.7000
  333MOL0     C44860   7.422   6.688   7.995 -0.3113  0.2560  0.1565
  333MOL0     C44861   7.499   6.781   7.904  0.0540 -0.6440 -0.7414
  333MOL0     C44862   7.490   6.720   7.758 -0.7600  0.0164 -0.2897
  333MOL0     C44863   7.601   6.776   7.667  0.2760 -0.3364  0.4564
  333MOL0     C44864   7.610   6.694   7.535 -1.1981 -0.3430 -0.0752
  333MOL0    Cl44865   7.447   6.733   7.452  0.1719  0.0449  0.2545
  333MOL0     C44866   6.802   6.455   8.030 -0.3603 -0.7225  0.0658
  333MOL0     C44867   6.681   6.411   7.983 -0.2486  0.7026 -0.9270
  333MOL0     O44868   6.470   6.201   7.979  0.1350 -0.0111  0.0663
  333MOL0     C44869   6.322   6.233   7.665  0.0819 -0.7768 -1.0854
  333MOL0     C44870   6.201   6.219   7.596 -0.4261 -0.8153 -0.1361
  333MOL0     N44871   5.293   6.333   7.418  0.7729 -0.8419 -0.1406
  333MOL0     N44872   5.207   6.408   7.476  0.9229  0.1200 -0.4187
  333MOL0     C44873   4.876   7.576   7.283 -0.4978  0.0985  0.4666
  333MOL0     C44874   4.929   7.705   7.309 -0.0949 -0.2486 -0.0854
  333MOL0     C44875   4.988   8.053   7.627  0.5666 -0.1047  0.1257
  333MOL0     C44876   5.129   8.070   7.630 -0.0051  0.3424  0.8847
  333MOL0     C44877   5.179   8.186   7.678 -0.6297  0.7007  0.3264
  333MOL0     C44878   5.103   8.290   7.733 -0.8022 -0.2536 -0.2885
  333MOL0     O44879   5.161   8.409   7.767 -1.3275  0.0209 -0.5380
  333MOL0     C44880   5.287   8.402   7.841 -0.0410 -0.3472  0.0579
  333MOL0     C44881   5.397   8.442   7.740 -0.1598  0.9634 -0.2846
  333MOL0     C44882   5.529   8.478   7.818 -0.4100 -0.0774 -0.3497
  333MOL0     C44883   5.585   8.372   7.911  0.0815 -0.5417  0.1061
  333MOL0     C44884   5.576   8.243   7.849  0.6907  0.3657  0.0117
  333MOL0     C44885   5.568   8.132   7.796  0.5359  0.0034 -0.0119
  333MOL0     C44886   4.962   8.269   7.731 -0.5199 -0.7894 -0.1795
  333MOL0     C44887   4.910   8.154   7.686 -0.5004 -0.6227  0.3620
  333MOL0     H44888   4.925   7.677   7.651 -0.3674 -0.9615  0.0407
  333MOL0     H44889   4.845   7.443   7.589 -2.7965 -0.6826 -2.5708
  333MOL0     H44890   4.845   7.298   7.161 -0.8588  0.7666  0.5325
  333MOL0     H44891   4.997   7.327   7.260  0.6546 -0.3266 -2.7130
  333MOL0     H44892   4.794   7.107   7.299  0.4374 -1.3906 -0.8364
  333MOL0     H44893   4.932   7.079   7.206 -3.4280  0.0991 -0.8989
  333MOL0     H44894   5.081   7.160   7.401 -0.7218  1.8199  1.0761
  333MOL0     H44895   4.949   7.136   7.507  0.7327  0.4287 -0.1828
  333MOL0     H44896   4.942   6.893   7.415  0.3374  0.7985  1.0216
  333MOL0     H44897   5.075   6.932   7.307  0.3109 -1.6192 -0.6580
  333MOL0     H44898   5.221   6.970   7.515 -0.7506  1.9785  3.0508
  333MOL0     H44899   5.086   6.929   7.625  1.2352  0.6186  1.0972
  333MOL0     H44900   5.058   6.712   7.514 -1.3615  3.3574 -1.0100
  333MOL0     H44901   5.229   6.735   7.454  0.5267 -0.9417  0.3553
  333MOL0     H44902   5.333   6.743   7.664  0.3164 -1.0556 -0.9411
  333MOL0     H44903   5.165   6.773   7.746 -2.1396 -1.9190 -1.7093
  333MOL0     H44904   5.092   6.569   7.686  0.3147  0.0373  0.7846
  333MOL0     H44905   5.248   6.531   7.760  0.3749 -1.1572 -0.6070
  333MOL0     H44906   5.490   6.517   7.603  0.4226  1.0145 -1.9214
  333MOL0     H44907   5.538   6.195   7.438  0.7608  0.4097  0.2404
  333MOL0     H44908   5.559   6.331   7.320  2.7184  1.6625  0.3012
  333MOL0     H44909   5.637   6.324   7.615 -1.0700  0.4544 -0.0385
  333MOL0     H44910   5.687   6.455   7.508  0.7546 -1.0175  0.0249
  333MOL0     H44911   5.825   6.301   7.371  0.5634  1.8119  0.2233
  333MOL0     H44912   5.762   6.168   7.462  0.8770  0.0129 -1.5335
  333MOL0     H44913   5.853   6.332   7.668 -0.2175  1.1313 -0.2512
  333MOL0     H44914   5.956   6.387   7.548  2.1754 -2.4020  1.0163
  333MOL0     H44915   5.986   6.223   7.860 -0.0295 -0.2886 -0.4911
  333MOL0     H44916   6.242   6.362   8.037 -0.1577 -1.1492  1.7865
  333MOL0     H44917   6.076   6.287   8.038 -0.5540  0.1448 -1.0563
  333MOL0     H44918   6.223   6.194   8.075 -1.5613 -1.8611 -1.8025
  333MOL0     H44919   6.785   6.277   7.684 -0.7496 -1.3089  0.1655
  333MOL0     H44920   7.002   6.349   7.775 -1.2614 -0.8606 -0.2583
  333MOL0     H44921   7.025   6.656   8.094 -2.2061  0.5938  3.1537
  333MOL0     H44922   7.044   6.506   8.191  1.8838  1.0519  0.2594
  333MOL0     H44923   7.243   6.639   8.215  2.3253  0.7547 -1.2871
  333MOL0     H44924   7.283   6.498   8.113 -2.2753 -1.7059 -0.5570
  333MOL0     H44925   7.245   6.793   8.009  0.4267  1.1093 -2.5726
  333MOL0     H44926   7.222   6.644   7.910 -1.0050 -2.3455  1.0497
  333MOL0     H44927   7.449   6.713   8.098  0.8251  1.2129 -0.3466
  333MOL0     H44928   7.459   6.587   7.974  0.3897  0.9547 -2.4213
  333MOL0     H44929   7.602   6.784   7.942 -1.3669  1.4534  3.5144
  333MOL0     H44930   7.457   6.882   7.903  0.9110 -0.2584  0.1464
  333MOL0     H44931   7.512   6.616   7.783 -1.6718 -0.1128  0.0349
  333MOL0     H44932   7.388   6.729   7.719 -0.9723  0.9482  0.4378
  333MOL0     H44933   7.696   6.797   7.717  0.0472 -0.0681  0.7859
  333MOL0     H44934   7.560   6.875   7.643 -2.8657 -1.6469 -0.1352
  333MOL0     H44935   7.631   6.589   7.555  1.3121  0.3557  1.3231
  333MOL0     H44936   7.692   6.729   7.471  1.3643 -0.7378  2.7718
  333MOL0     H44937   6.801   6.500   8.129 -2.8338  3.4429 -1.5495
  333MOL0     H44938   6.586   6.426   8.033  0.0763 -0.2285  0.0039
  333MOL0     H44939   6.406   6.242   7.597 -1.0747  0.1903 -2.4353
  333MOL0     H44940   6.198   6.223   7.487 -1.2033 -0.8902 -0.1208
  333MOL0     H44941   4.873   7.550   7.178  0.9239 -0.1543  0.4635
  333MOL0     H44942   4.966   7.765   7.227 -3.3520  3.0830  0.6236
  333MOL0     H44943   5.202   8.000   7.590  0.1672  0.4218  1.0573
  333MOL0     H44944   5.288   8.187   7.679 -0.4935 -0.7808 -2.5798
  333MOL0     H44945   5.291   8.465   7.930  0.4313 -0.3925  0.0724
  333MOL0     H44946   5.309   8.302   7.879  1.9265  0.1642  0.4161
  333MOL0     H44947   5.360   8.522   7.676 -4.4875 -0.6663 -0.1662
  333MOL0     H44948   5.430   8.368   7.666  2.9360 -0.0280  1.8959
  333MOL0     H44949   5.522   8.571   7.875  0.6200 -1.7088  2.6377
  333MOL0     H44950   5.599   8.496   7.735  0.1959 -0.6112  0.0316
  333MOL0     H44951   5.523   8.364   8.001 -1.1252 -2.8669 -0.8320
  333MOL0     H44952   5.689   8.392   7.939  0.6237 -1.8478 -0.8985
  333MOL0     H44953   5.564   8.032   7.758  0.5817 -0.8063  1.9935
  333MOL0     H44954   4.903   8.356   7.758  2.3507  0.8782  1.2524
  333MOL0     H44955   4.802   8.145   7.686 -0.3862 -2.4389 -0.8861
  334MOL0     O44956   1.413   3.168   6.987 -0.1963  0.6158  0.5439
  334MOL0     C44957   1.472   3.262   7.040  0.4274 -1.3282 -0.6061
  334MOL0     O44958   1.411   3.393   7.070  0.0682 -0.7441  0.3224
  334MOL0     C44959   1.268   3.415   7.060  1.5384 -1.1082  0.5232
  334MOL0     C44960   1.218   3.542   7.048  0.2900 -0.4197  0.3963
  334MOL0     C44961   1.078   3.566   7.051 -0.6182 -0.8243 -0.2838
  334MOL0     C44962   0.988   3.469   7.077 -0.1729 -0.2944 -0.2318
  334MOL0     O44963   0.856   3.505   7.062  0.4864 -0.2878  0.0750
  334MOL0     C44964   0.764   3.402   7.084  0.1441  0.4321 -0.7603
  334MOL0     C44965   0.618   3.452   7.086  0.6217  0.5787 -0.1344
  334MOL0     C44966   0.547   3.483   6.952  0.6899  0.3670 -0.0796
  334MOL0     C44967   0.406   3.549   6.973  0.3847 -0.8569  0.1215
  334MOL0     C44968   0.303   3.559   6.859 -0.6506  0.3029  0.1529
  334MOL0     C44969   0.179   3.638   6.889  1.2565  0.5973 -1.4423
  334MOL0     C44970   0.067   3.626   6.793  0.3302 -0.1072  0.6031
  334MOL0     C44971  -0.059   3.710   6.841 -0.2496  1.1277 -0.1623
  334MOL0     N44972  -0.182   3.647   6.792 -0.4385  0.0385 -0.7015
  334MOL0     C44973  -0.244   3.532   6.850  0.1723  0.9782  0.6035
  334MOL0     C44974  -0.360   3.517   6.775 -0.3532 -0.6239 -0.0484
  334MOL0     C44975  -0.476   3.415   6.789 -0.9501  0.0548 -0.2437
  334MOL0     C44976  -0.593   3.468   6.880 -0.6031 -0.3029  0.2890
  334MOL0     C44977  -0.676   3.548   6.776 -0.2519 -0.2850  0.6394
  334MOL0     C44978  -0.814   3.555   6.833  0.7311  0.1195 -0.9310
  334MOL0     O44979  -0.894   3.624   6.739  0.3029 -0.1986  0.1406
  334MOL0     C44980  -1.024   3.649   6.775 -0.5076  1.2036 -0.3797
  334MOL0     C44981  -1.103   3.567   6.867 -0.4116 -0.3346  0.2216
  334MOL0     C44982  -1.235   3.611   6.901  0.6055  0.8517 -0.5779
  334MOL0     C44983  -1.310   3.517   6.999 -0.6326 -0.5973  0.3914
  334MOL0     C44984  -1.293   3.729   6.846 -1.1748 -0.5409  0.0585
  334MOL0     C44985  -1.435   3.772   6.871  0.0337  0.1208 -0.0009
  334MOL0     O44986  -1.537   3.683   6.903  0.0645 -0.6939 -0.0963
  334MOL0     C44987  -1.657   3.722   6.956 -0.6584  1.6352 -0.2688
  334MOL0     C44988  -1.709   3.640   7.064 -0.3374  0.3331 -0.1717
  334MOL0     C44989  -1.836   3.662   7.121  0.2885  0.1906 -0.5669
  334MOL0     C44990  -1.917   3.769   7.083 -0.3086  0.5224  0.4804
  334MOL0     O44991  -2.037   3.797   7.143  0.1778 -0.4988  0.4650
  334MOL0     C44992  -2.092   3.716   7.246  0.1864 -0.2542  0.0079
  334MOL0     C44993  -2.213   3.786   7.320  0.1301  1.0121 -0.3127
  334MOL0     C44994  -2.168   3.899   7.401  0.6582 -0.7998  0.2755
  334MOL0     C44995  -2.278   3.929   7.502 -0.1055  0.5270 -0.5805
  334MOL0     C44996  -2.232   4.048   7.586 -0.2920  0.3594 -0.7163
  334MOL0     C44997  -2.299   4.057   7.725 -0.3496  0.5239  0.3825
  334MOL0     C44998  -2.454   4.090   7.709 -0.3153 -0.6066  0.2127
  334MOL0     C44999  -2.529   4.103   7.835 -0.2759  0.0362 -0.1481
  334MOL0    Cl45000  -2.667   4.206   7.804 -0.0304  0.3395  0.1779
  334MOL0     C45001  -1.864   3.855   6.984 -0.2231  0.4035  0.0515
  334MOL0     C45002  -1.739   3.830   6.915  0.2795  0.2769 -0.9384
  334MOL0     O45003  -1.446   3.894   6.886 -0.8979 -0.2796  0.2141
  334MOL0     C45004  -1.205   3.804   6.760 -0.7420  0.8648 -0.1931
  334MOL0     C45005  -1.079   3.762   6.726  0.2985 -0.7792 -0.2109
  334MOL0     N45006  -0.361   3.627   6.685  0.3197  0.5563  0.2294
  334MOL0     N45007  -0.252   3.690   6.689  0.6430  0.0266  0.6525
  334MOL0     C45008   1.035   3.342   7.094  0.1426  0.4386  0.4452
  334MOL0     C45009   1.174   3.312   7.097  0.0010 -0.0854  0.8673
  334MOL0     C45010   1.620   3.260   7.054 -0.6853 -0.2957 -0.3993
  334MOL0     C45011   1.690   3.376   7.101  0.9551 -0.0311 -0.3135
  334MOL0     C45012   1.832   3.385   7.099  0.0156  0.5616 -1.0028
  334MOL0     C45013   1.909   3.275   7.055  0.4077 -0.5688  0.8563
  334MOL0     O45014   2.042   3.288   7.067 -0.3775 -0.2135 -0.1532
  334MOL0     C45015   2.121   3.169   7.058 -0.6626  0.0147  0.8150
  334MOL0     C45016   2.280   3.187   7.091  0.2373 -0.0560 -0.2264
  334MOL0     C45017   2.290   3.253   7.224  0.0396 -0.3019  0.9192
  334MOL0     C45018   2.320   3.399   7.198 -0.5519  0.6018 -0.2888
  334MOL0     C45019   2.460   3.420   7.165 -0.3538 -0.6090 -0.1636
  334MOL0     C45020   2.585   3.414   7.158  0.4027 -0.8793  0.3489
  334MOL0     C45021   1.845   3.158   7.010 -0.2091 -0.1000 -0.3358
  334MOL0     C45022   1.702   3.151   7.004 -0.2278  0.6457 -0.1457
  334MOL0     H45023   1.289   3.622   7.026 -0.3227 -0.2199 -1.0048
  334MOL0     H45024   1.054   3.672   7.043  0.2954 -0.4262  1.6097
  334MOL0     H45025   0.762   3.337   6.996 -0.9394  1.3849 -1.4780
  334MOL0     H45026   0.792   3.344   7.172 -1.2621  0.6798 -0.1054
  334MOL0     H45027   0.547   3.381   7.128 -1.7796  0.4978 -3.8782
  334MOL0     H45028   0.621   3.530   7.163 -2.7310 -2.7789  3.9394
  334MOL0     H45029   0.611   3.547   6.891 -2.1146  1.1415 -2.4186
  334MOL0     H45030   0.539   3.389   6.895 -1.8648 -0.0669  0.8577
  334MOL0     H45031   0.353   3.503   7.057  3.3250  0.8876  3.2060
  334MOL0     H45032   0.424   3.651   7.007  0.7236 -1.4071  1.6704
  334MOL0     H45033   0.349   3.585   6.763  0.2573  0.5148  0.6376
  334MOL0     H45034   0.277   3.454   6.845  0.2060 -0.1619  1.8121
  334MOL0     H45035   0.139   3.600   6.984  0.4489  0.7790 -1.7078
  334MOL0     H45036   0.198   3.746   6.893 -0.5489  0.9215  0.5493
  334MOL0     H45037   0.087   3.654   6.689 -1.4297 -2.3929 -0.4399
  334MOL0     H45038   0.045   3.519   6.790  1.7374 -0.4028 -0.2957
  334MOL0     H45039  -0.053   3.809   6.795 -1.4756  0.4496 -1.8897
  334MOL0     H45040  -0.050   3.731   6.948  1.4239 -0.8089  0.1468
  334MOL0     H45041  -0.222   3.460   6.928  1.7824 -1.1822 -1.6800
  334MOL0     H45042  -0.513   3.397   6.688  1.7652 -0.4308 -1.2392
  334MOL0     H45043  -0.446   3.322   6.837 -4.5010  1.2712  5.3238
  334MOL0     H45044  -0.550   3.531   6.958  2.2087  2.1738 -2.9563
  334MOL0     H45045  -0.648   3.386   6.926  0.6406  0.3763  3.2393
  334MOL0     H45046  -0.684   3.501   6.678 -4.0017 -1.7401  1.4706
  334MOL0     H45047  -0.636   3.649   6.763  0.0421 -0.5254 -0.3962
  334MOL0     H45048  -0.815   3.606   6.930  1.3885 -1.9100  0.2020
  334MOL0     H45049  -0.848   3.451   6.844  4.2476 -1.2645 -1.8039
  334MOL0     H45050  -1.060   3.474   6.901  1.5237  0.6507  0.6280
  334MOL0     H45051  -1.361   3.435   6.948 -1.3420 -0.3143  0.6284
  334MOL0     H45052  -1.235   3.485   7.072 -0.0031  1.9893  0.9851
  334MOL0     H45053  -1.392   3.574   7.044  0.7276  1.0642  0.8735
  334MOL0     H45054  -1.638   3.568   7.103 -2.3996  0.4665  4.4729
  334MOL0     H45055  -1.869   3.596   7.200  1.3060  0.8867  0.4729
  334MOL0     H45056  -2.120   3.615   7.215  3.0255 -0.8556 -0.8900
  334MOL0     H45057  -2.008   3.705   7.316  0.9699  1.3820 -0.6016
  334MOL0     H45058  -2.287   3.816   7.246  1.7176 -0.9372 -2.8670
  334MOL0     H45059  -2.261   3.714   7.387  2.6776 -0.4262  0.1169
  334MOL0     H45060  -2.147   3.990   7.344 -2.9939  2.1156  3.0698
  334MOL0     H45061  -2.079   3.874   7.459  2.0944 -2.3298 -2.3878
  334MOL0     H45062  -2.366   3.963   7.447  0.0619  0.3545 -0.9550
  334MOL0     H45063  -2.300   3.844   7.568 -2.8858  2.9225  1.9522
  334MOL0     H45064  -2.268   4.137   7.533 -0.4071  1.5355  1.2398
  334MOL0     H45065  -2.123   4.059   7.596  0.2576 -3.8391 -0.3553
  334MOL0     H45066  -2.278   3.975   7.794  2.2799  1.5634  0.9226
  334MOL0     H45067  -2.248   4.141   7.773 -0.2339 -0.7951  2.7374
  334MOL0     H45068  -2.492   4.008   7.647  2.2538 -1.4509 -0.3818
  334MOL0     H45069  -2.462   4.180   7.647 -0.7021 -1.4866 -1.0575
  334MOL0     H45070  -2.461   4.145   7.911  2.2772 -2.1021 -1.1022
  334MOL0     H45071  -2.566   4.007   7.872 -1.3965  0.5037 -0.0335
  334MOL0     H45072  -1.930   3.936   6.953  0.5945  0.6515 -1.0954
  334MOL0     H45073  -1.706   3.912   6.853  1.4431  2.4048  2.2029
  334MOL0     H45074  -1.239   3.898   6.716  1.2321  1.6421 -0.1238
  334MOL0     H45075  -1.018   3.812   6.651  1.2124  0.3127  1.2224
  334MOL0     H45076   0.972   3.254   7.092  2.7167 -1.5467  0.6804
  334MOL0     H45077   1.212   3.214   7.123  0.6375  0.1800  0.9569
  334MOL0     H45078   1.642   3.463   7.147  2.3052  0.8741 -0.5756
  334MOL0     H45079   1.890   3.469   7.135  0.1023  1.7606 -3.6674
  334MOL0     H45080   2.072   3.084   7.105 -0.6215 -0.7476 -0.4689
  334MOL0     H45081   2.120   3.138   6.953 -1.9966 -1.2732  1.1700
  334MOL0     H45082   2.324   3.243   7.008  1.6041  0.9153  1.1025
  334MOL0     H45083   2.323   3.088   7.110  0.2427  0.4228  2.8242
  334MOL0     H45084   2.358   3.200   7.291  2.3529  1.0484 -0.2390
  334MOL0     H45085   2.192   3.245   7.271 -0.5612 -3.5509 -0.5948
  334MOL0     H45086   2.302   3.447   7.295 -3.7601 -0.9639  0.0098
  334MOL0     H45087   2.257   3.439   7.118 -1.2746 -0.0418 -0.0515
  334MOL0     H45088   2.689   3.396   7.145  0.8270  1.8391 -0.7059
  334MOL0     H45089   1.911   3.079   6.976 -1.4074 -1.1507 -0.2867
  334MOL0     H45090   1.660   3.062   6.959  3.5369  0.5080 -4.0196
  335MOL0     O45091   8.262   7.148   0.709 -0.0502  0.4699  0.2432
  335MOL0     C45092   8.340   7.114   0.622 -0.2306  0.3550  0.2894
  335MOL0     O45093   8.315   7.071   0.500  0.7453  0.1144 -0.9102
  335MOL0     C45094   8.193   7.013   0.462 -0.2069 -0.8168 -0.6558
  335MOL0     C45095   8.106   6.958   0.554 -0.3319  0.9055  0.1482
  335MOL0     C45096   7.979   6.904   0.499  0.0875 -0.3271 -0.8110
  335MOL0     C45097   7.945   6.912   0.362  0.1849  0.1019 -0.1426
  335MOL0     O45098   7.830   6.858   0.326  0.2698  0.4815  0.0662
  335MOL0     C45099   7.763   6.901   0.211  0.1996 -0.2884 -1.1634
  335MOL0     C45100   7.609   6.873   0.224  0.0201 -0.4676  0.5185
  335MOL0     C45101   7.575   6.728   0.210  0.5201  0.7098 -0.9010
  335MOL0     C45102   7.442   6.698   0.291  0.7577  0.2538 -1.0127
  335MOL0     C45103   7.321   6.780   0.238  0.5041 -0.6584 -0.2531
  335MOL0     C45104   7.184   6.759   0.313 -0.8686  0.1180  0.3480
  335MOL0     C45105   7.069   6.850   0.273  0.0170  0.0725  0.4045
  335MOL0     C45106   6.942   6.770   0.259  0.7828 -0.3776  0.3687
  335MOL0     N45107   6.837   6.869   0.221 -0.1491  0.4862 -0.0289
  335MOL0     C45108   6.763   6.947   0.307  0.2335  0.4585  0.0929
  335MOL0     C45109   6.672   7.001   0.231  0.5595  0.2803 -0.3346
  335MOL0     C45110   6.568   7.100   0.281  0.5222  0.2129 -0.1677
  335MOL0     C45111   6.446   7.043   0.363 -0.1965  0.5034 -0.2481
  335MOL0     C45112   6.337   6.980   0.258  0.0300  0.5307 -0.6267
  335MOL0     C45113   6.234   6.901   0.338  0.8488 -0.7716  0.0160
  335MOL0     O45114   6.130   6.988   0.389  0.3915 -0.3017 -0.2431
  335MOL0     C45115   6.029   6.940   0.473 -0.0720  0.2532 -0.3443
  335MOL0     C45116   5.960   7.036   0.559  0.1950 -0.7562  0.4956
  335MOL0     C45117   5.850   7.000   0.630  0.9987 -0.2102 -0.2092
  335MOL0     C45118   5.785   7.109   0.712  0.4432  0.1446 -0.3518
  335MOL0     C45119   5.802   6.868   0.624 -0.7937  0.4975  0.0892
  335MOL0     C45120   5.670   6.819   0.679 -0.3957 -0.9042  0.1292
  335MOL0     O45121   5.667   6.692   0.720  0.2236 -0.1223 -0.0641
  335MOL0     C45122   5.544   6.648   0.763  0.1069 -0.4075 -0.3642
  335MOL0     C45123   5.469   6.561   0.677 -1.1769  0.0472 -0.0978
  335MOL0     C45124   5.339   6.520   0.718  0.7413 -0.9489 -0.1240
  335MOL0     C45125   5.281   6.573   0.834 -0.7749  0.2297 -0.2928
  335MOL0     O45126   5.151   6.529   0.868  0.0625 -0.1606 -0.1656
  335MOL0     C45127   5.105   6.539   1.006 -0.3722 -0.4787  0.6776
  335MOL0     C45128   4.965   6.481   1.026  0.0056 -0.5213  0.9207
  335MOL0     C45129   4.856   6.580   0.978  0.2542  0.4392  1.0972
  335MOL0     C45130   4.715   6.552   1.027 -0.0019 -0.4719 -0.3580
  335MOL0     C45131   4.614   6.663   0.980  0.2524  0.5972 -0.1373
  335MOL0     C45132   4.470   6.649   1.035  0.0097  0.2807  0.2447
  335MOL0     C45133   4.404   6.532   0.966 -0.9389  0.2929 -0.6301
  335MOL0     C45134   4.250   6.556   0.995  0.1739  0.4470 -1.1208
  335MOL0    Cl45135   4.170   6.671   0.894 -0.4241  0.0475 -0.1245
  335MOL0     C45136   5.352   6.667   0.907 -0.2320 -0.2816 -0.1087
  335MOL0     C45137   5.487   6.697   0.877  0.1959  0.4074 -0.3548
  335MOL0     O45138   5.576   6.898   0.676 -0.0022 -0.1317 -0.5132
  335MOL0     C45139   5.878   6.775   0.547 -0.0696 -0.0275 -0.2455
  335MOL0     C45140   5.990   6.810   0.478 -0.0529  0.0897 -0.2649
  335MOL0     N45141   6.677   6.955   0.102 -0.2240 -0.1621  0.1315
  335MOL0     N45142   6.779   6.878   0.092  0.6064  0.6772 -0.4776
  335MOL0     C45143   8.037   6.975   0.279  0.3419  0.5133 -0.7764
  335MOL0     C45144   8.162   7.015   0.327  0.1721 -0.5890  0.3362
  335MOL0     C45145   8.479   7.132   0.660  0.3639  0.2913 -0.8981
  335MOL0     C45146   8.520   7.230   0.759  0.2816  0.9623 -0.2892
  335MOL0     C45147   8.647   7.240   0.815  1.1560  0.3069  0.2974
  335MOL0     C45148   8.747   7.157   0.772 -0.9874  0.0159  0.6989
  335MOL0     O45149   8.878   7.165   0.813 -0.3038 -0.2692  0.4290
  335MOL0     C45150   8.912   7.260   0.911  0.7943  0.1511  0.6255
  335MOL0     C45151   9.064   7.248   0.940  0.2111 -0.0701  0.1414
  335MOL0     C45152   9.107   7.104   0.990 -0.5547 -0.1797 -0.3022
  335MOL0     C45153   9.062   7.080   1.134  0.0997 -0.6283  1.3241
  335MOL0     C45154   9.114   6.951   1.171  0.7891 -0.4236 -0.0411
  335MOL0     C45155   9.143   6.833   1.188  0.4568  0.1423  0.0495
  335MOL0     C45156   8.715   7.061   0.670  0.1887  0.6021  0.5332
  335MOL0     C45157   8.583   7.044   0.612 -0.2677  0.8279 -0.4195
  335MOL0     H45158   8.146   6.938   0.652 -0.3769  0.5463  0.0954
  335MOL0     H45159   7.912   6.850   0.565 -0.5996  1.1129 -0.2944
  335MOL0     H45160   7.764   7.011   0.213 -1.0242 -0.2244  2.4958
  335MOL0     H45161   7.805   6.858   0.120  0.7134 -0.8422 -0.6681
  335MOL0     H45162   7.572   6.914   0.319  0.8522 -0.1005  0.6981
  335MOL0     H45163   7.569   6.929   0.139 -0.2883 -1.9703 -0.3662
  335MOL0     H45164   7.566   6.704   0.104  1.5570  0.1341 -0.8787
  335MOL0     H45165   7.654   6.662   0.246 -0.2711  0.1679 -0.1281
  335MOL0     H45166   7.408   6.594   0.295 -0.4698  0.6422 -1.0713
  335MOL0     H45167   7.454   6.728   0.396 -1.1232  1.2699 -1.0380
  335MOL0     H45168   7.350   6.885   0.225  1.3989 -0.8358  0.2411
  335MOL0     H45169   7.310   6.747   0.135  1.4378 -3.5355  0.4802
  335MOL0     H45170   7.155   6.654   0.312 -3.3753  0.7355  0.2585
  335MOL0     H45171   7.217   6.786   0.414  1.0227  1.0659 -0.4585
  335MOL0     H45172   7.061   6.932   0.345  1.3952  1.9339 -1.4630
  335MOL0     H45173   7.088   6.900   0.178  1.7923  1.2559  1.3301
  335MOL0     H45174   6.907   6.729   0.354 -1.2413  1.0708  0.3106
  335MOL0     H45175   6.955   6.709   0.169 -1.6923 -0.9995  0.3616
  335MOL0     H45176   6.781   6.975   0.410  0.0791 -0.5200  0.3919
  335MOL0     H45177   6.622   7.177   0.337  0.9587 -1.9414  2.5839
  335MOL0     H45178   6.540   7.155   0.191  2.0120  2.7378  0.8112
  335MOL0     H45179   6.401   7.126   0.417  0.6525  1.3532 -0.8150
  335MOL0     H45180   6.476   6.961   0.430 -1.4121 -0.9571 -1.4082
  335MOL0     H45181   6.389   6.916   0.186 -1.5143  1.4762 -2.6442
  335MOL0     H45182   6.296   7.063   0.200  2.0847  0.5634 -2.1442
  335MOL0     H45183   6.289   6.837   0.408  1.6303 -1.5174 -1.2537
  335MOL0     H45184   6.182   6.833   0.270 -2.6020  1.5838  0.0323
  335MOL0     H45185   5.986   7.141   0.552 -2.4634 -0.0905 -0.2188
  335MOL0     H45186   5.820   7.092   0.815  0.0620  1.3932 -0.0012
  335MOL0     H45187   5.816   7.210   0.683 -0.1378  0.3621 -0.2133
  335MOL0     H45188   5.676   7.115   0.710  0.3864  1.2147  2.1208
  335MOL0     H45189   5.519   6.527   0.587 -2.1064  1.0398 -1.0306
  335MOL0     H45190   5.283   6.450   0.656  1.8963 -2.5771  0.6061
  335MOL0     H45191   5.174   6.489   1.075 -0.3819 -0.3080  0.8118
  335MOL0     H45192   5.096   6.645   1.031 -2.7289  0.3663 -2.9424
  335MOL0     H45193   4.969   6.382   0.979  0.7693  0.8587 -2.2724
  335MOL0     H45194   4.962   6.471   1.134  2.0089  2.9141  1.4677
  335MOL0     H45195   4.849   6.586   0.869 -0.3328 -0.6862  1.0560
  335MOL0     H45196   4.893   6.678   1.010  1.7710  0.4503 -0.5389
  335MOL0     H45197   4.686   6.458   0.980  1.4411 -0.8907 -0.4665
  335MOL0     H45198   4.729   6.536   1.134  0.7030 -0.7785 -0.4857
  335MOL0     H45199   4.604   6.659   0.871  1.1682  0.6458 -0.2322
  335MOL0     H45200   4.640   6.763   1.017 -0.5116  0.7923 -0.1183
  335MOL0     H45201   4.462   6.630   1.143 -3.5201  0.0952  0.0476
  335MOL0     H45202   4.410   6.738   1.015 -0.0721  0.5727  1.6957
  335MOL0     H45203   4.451   6.438   0.996 -2.8855  0.1284  2.3349
  335MOL0     H45204   4.421   6.536   0.858 -0.9471  0.2736 -0.6322
  335MOL0     H45205   4.233   6.581   1.100  0.0075  0.0022 -1.0373
  335MOL0     H45206   4.208   6.456   0.981  1.1927 -1.3478  5.3058
  335MOL0     H45207   5.307   6.710   0.996  1.1938 -2.8147  1.9948
  335MOL0     H45208   5.547   6.766   0.936  1.6731 -2.0867  1.2925
  335MOL0     H45209   5.838   6.674   0.535  1.0540 -0.5748  0.4635
  335MOL0     H45210   6.030   6.729   0.418  0.6141  1.6162 -1.9899
  335MOL0     H45211   8.024   6.973   0.171  1.9541 -2.5314 -1.0169
  335MOL0     H45212   8.241   7.053   0.262  1.4697  0.6248  2.4782
  335MOL0     H45213   8.437   7.286   0.801 -0.0989 -0.7980  1.4429
  335MOL0     H45214   8.656   7.322   0.886 -1.9760 -0.6892  2.0341
  335MOL0     H45215   8.894   7.361   0.875  1.9701 -0.5613 -2.3461
  335MOL0     H45216   8.852   7.237   0.999 -0.4106 -0.1591 -0.2463
  335MOL0     H45217   9.098   7.320   1.015 -3.4117  0.7416  1.1906
  335MOL0     H45218   9.119   7.281   0.852  0.0449  0.0828  0.0929
  335MOL0     H45219   9.215   7.093   0.972 -0.6096 -2.9391  0.5723
  335MOL0     H45220   9.061   7.018   0.939  1.2964 -2.6929  1.9611
  335MOL0     H45221   8.953   7.089   1.128  0.2690  0.9538 -0.6437
  335MOL0     H45222   9.104   7.158   1.199 -0.7152  1.2296 -0.2774
  335MOL0     H45223   9.171   6.731   1.203  0.8825  0.1549 -0.6198
  335MOL0     H45224   8.797   7.000   0.635 -0.4801 -0.1444  0.2242
  335MOL0     H45225   8.551   6.968   0.541  1.2121  1.7285 -2.1318
  336MOL0     O45226   7.623  10.345  10.430  0.3531 -0.5983 -1.0118
  336MOL0     C45227   7.635  10.281  10.538 -0.4682  0.9749  0.2317
  336MOL0     O45228   7.748  10.224  10.585 -0.1427  0.1595 -1.1543
  336MOL0     C45229   7.869  10.268  10.527  0.3873  0.3082 -0.7333
  336MOL0     C45230   7.900  10.393  10.473 -0.2621 -0.0334  0.5423
  336MOL0     C45231   8.033  10.413  10.417  0.0341  0.3418  0.3084
  336MOL0     C45232   8.137  10.321  10.433 -0.5152 -0.1470 -0.3858
  336MOL0     O45233   8.272  10.327  10.388  0.1072 -0.2905 -0.3855
  336MOL0     C45234   8.294  10.346  10.245 -0.8530 -0.3702  0.2640
  336MOL0     C45235   8.289  10.199  10.185 -0.2470 -0.0914 -0.1597
  336MOL0     C45236   8.165  10.171  10.101  0.6057 -0.9418  0.1777
  336MOL0     C45237   8.025  10.219  10.145 -0.1559 -0.1312 -0.1082
  336MOL0     C45238   7.924  10.192  10.041 -1.1660  0.0701  0.4906
  336MOL0     C45239   7.787  10.218  10.097 -0.2279 -0.5281 -0.9913
  336MOL0     C45240   7.667  10.162  10.025  0.4312  0.0593 -0.5128
  336MOL0     C45241   7.527  10.215  10.070  0.1086 -0.5857 -0.1361
  336MOL0     N45242   7.411  10.147  10.000 -0.3917  0.6668 -0.1576
  336MOL0     C45243   7.277  10.157  10.031  0.7487  1.1998 -0.3840
  336MOL0     C45244   7.210  10.093   9.934  0.1212 -0.5446  0.5986
  336MOL0     C45245   7.066  10.082   9.905  0.1240  0.6949  0.0618
  336MOL0     C45246   6.957  10.089  10.020 -0.5476 -0.5305  0.0713
  336MOL0     C45247   6.813  10.077   9.975  0.8343 -0.0886  0.5041
  336MOL0     C45248   6.716  10.047  10.093 -0.5033  0.5238 -0.0633
  336MOL0     O45249   6.580  10.082  10.062 -0.1805  0.2855 -0.1646
  336MOL0     C45250   6.503   9.982  10.026  0.2398  0.0227 -1.2810
  336MOL0     C45251   6.539   9.880   9.939  0.9338  0.2507  0.1717
  336MOL0     C45252   6.446   9.779   9.911  0.6508  0.3383  0.4076
  336MOL0     C45253   6.482   9.670   9.813  0.4452 -0.2222 -0.9601
  336MOL0     C45254   6.304   9.791   9.943 -0.1643 -0.2625 -0.7686
  336MOL0     C45255   6.200   9.695   9.915  0.6892 -0.1641 -0.2591
  336MOL0     O45256   6.221   9.564   9.952  0.4572  0.0954 -0.4037
  336MOL0     C45257   6.110   9.475   9.925  0.4201 -0.9604  0.8469
  336MOL0     C45258   6.141   9.346   9.878  0.1106  0.2233 -1.2445
  336MOL0     C45259   6.046   9.255   9.842 -0.6991 -0.3102  0.0495
  336MOL0     C45260   5.912   9.289   9.863  0.2038  0.2373 -0.4644
  336MOL0     O45261   5.805   9.204   9.831 -0.3541  0.1051 -0.1304
  336MOL0     C45262   5.834   9.064   9.798 -0.2334  0.9260 -0.4647
  336MOL0     C45263   5.724   9.003   9.715  0.2284  0.8975  0.3466
  336MOL0     C45264   5.585   8.992   9.773  0.3536  0.4595  0.0737
  336MOL0     C45265   5.486   8.949   9.673 -0.2079 -0.4572  0.2331
  336MOL0     C45266   5.344   8.923   9.721 -0.1147 -0.4759  0.2269
  336MOL0     C45267   5.254   8.848   9.612 -0.5999 -0.3625 -0.7597
  336MOL0     C45268   5.251   8.913   9.476 -0.3626 -0.3723  0.0451
  336MOL0     C45269   5.120   8.861   9.409  0.1559 -0.4424 -0.3394
  336MOL0    Cl45270   5.129   8.933   9.242  0.0950  0.3914  0.2495
  336MOL0     C45271   5.882   9.408   9.921  0.1121 -0.1370 -0.1690
  336MOL0     C45272   5.976   9.506   9.943  0.6946  0.1932 -0.0449
  336MOL0     O45273   6.103   9.734   9.846  0.1810  0.5300 -0.7966
  336MOL0     C45274   6.277   9.900  10.032  0.1113 -0.6896  0.2869
  336MOL0     C45275   6.373   9.989  10.071  0.5283 -0.5641  1.4363
  336MOL0     N45276   7.301  10.053   9.840 -0.6428 -0.8275 -0.6104
  336MOL0     N45277   7.424  10.084   9.880  0.6201  0.2181  0.3171
  336MOL0     C45278   8.099  10.203  10.490 -0.0113  0.3593 -0.5137
  336MOL0     C45279   7.976  10.180  10.552 -0.3003 -0.5438 -0.1182
  336MOL0     C45280   7.511  10.249  10.610  0.4238  0.0590  1.1420
  336MOL0     C45281   7.400  10.331  10.586  0.6927 -0.1480  1.1412
  336MOL0     C45282   7.279  10.309  10.651  0.1563  0.1172 -0.4918
  336MOL0     C45283   7.266  10.200  10.738  0.1939  0.1109 -0.4554
  336MOL0     O45284   7.155  10.175  10.819 -0.9030 -0.1311 -0.4094
  336MOL0     C45285   7.036  10.237  10.782 -0.4465  0.5504  0.7115
  336MOL0     C45286   6.921  10.181  10.863  0.1493 -0.2836 -0.2021
  336MOL0     C45287   6.790  10.264  10.828  0.7269  0.2416 -0.0114
  336MOL0     C45288   6.727  10.363  10.927  0.2236  0.1019  0.4799
  336MOL0     C45289   6.687  10.295  11.042 -0.2847  0.2685 -0.4352
  336MOL0     C45290   6.658  10.250  11.149 -0.3745 -0.6639  0.2713
  336MOL0     C45291   7.371  10.112  10.749 -0.1207 -0.3749 -0.8365
  336MOL0     C45292   7.488  10.127  10.680  0.1653 -0.6541 -0.1761
  336MOL0     H45293   7.840  10.484  10.476  1.4476  1.1189  1.3985
  336MOL0     H45294   8.049  10.512  10.376 -0.3524  1.3357  2.3927
  336MOL0     H45295   8.233  10.410  10.182  0.2427 -0.0102 -0.4643
  336MOL0     H45296   8.396  10.385  10.234 -1.2619  0.5982 -0.1557
  336MOL0     H45297   8.379  10.180  10.125 -0.8188  0.7488 -1.3163
  336MOL0     H45298   8.299  10.128  10.268  0.9059  2.5557  2.0962
  336MOL0     H45299   8.179  10.222  10.005  1.5000  1.6977  1.6244
  336MOL0     H45300   8.166  10.062  10.084  3.0213 -0.7740 -1.2428
  336MOL0     H45301   8.002  10.168  10.239  0.9605 -1.6868 -0.6241
  336MOL0     H45302   8.036  10.327  10.155  0.0522  0.0224 -1.6627
  336MOL0     H45303   7.951  10.258   9.959  1.1885  0.3651  1.4360
  336MOL0     H45304   7.931  10.092   9.998  0.2071  0.4342 -0.1965
  336MOL0     H45305   7.780  10.174  10.196  1.2359 -0.7096 -0.9438
  336MOL0     H45306   7.778  10.326  10.113  0.7933 -0.9584  3.6637
  336MOL0     H45307   7.689  10.180   9.919 -0.3728 -1.4748 -0.9766
  336MOL0     H45308   7.670  10.052  10.027  2.9663  0.0851 -0.3623
  336MOL0     H45309   7.519  10.322  10.048  0.7040 -0.0697  1.8968
  336MOL0     H45310   7.502  10.195  10.175 -2.3376  0.3618 -0.4628
  336MOL0     H45311   7.237  10.194  10.124  1.3547 -2.2296  1.3773
  336MOL0     H45312   7.042  10.164   9.836 -2.6336 -0.8006 -0.8988
  336MOL0     H45313   7.046   9.989   9.851 -0.3278  0.4470  0.6410
  336MOL0     H45314   6.983  10.178  10.077 -0.5017 -1.2838  1.2610
  336MOL0     H45315   6.983  10.020  10.102  0.2059 -0.6135 -0.2231
  336MOL0     H45316   6.807  10.000   9.898 -1.2183  1.5431 -1.1106
  336MOL0     H45317   6.774  10.165   9.922 -2.1751 -1.9668 -0.6562
  336MOL0     H45318   6.743  10.113  10.176  0.1172 -1.1263  1.1154
  336MOL0     H45319   6.731   9.944  10.128 -1.1644  0.4226 -0.0781
  336MOL0     H45320   6.636   9.852   9.901  0.2493  0.9164 -2.2599
  336MOL0     H45321   6.495   9.579   9.873 -1.7392  0.0695  0.0489
  336MOL0     H45322   6.396   9.639   9.752 -1.0204  0.9823  0.4024
  336MOL0     H45323   6.574   9.696   9.760  2.3532 -0.7837  1.8352
  336MOL0     H45324   6.246   9.325   9.865  0.4722 -0.9750  2.6296
  336MOL0     H45325   6.076   9.158   9.802  4.7940  1.1230 -0.0467
  336MOL0     H45326   5.922   9.048   9.735  1.0440 -1.8429  1.7810
  336MOL0     H45327   5.849   9.022   9.898  1.1888 -0.3740 -1.1935
  336MOL0     H45328   5.712   9.071   9.630 -0.8024 -0.4449 -0.6376
  336MOL0     H45329   5.758   8.908   9.672  3.1761  0.9206  2.2976
  336MOL0     H45330   5.545   9.084   9.816 -0.5053 -0.7340  1.9218
  336MOL0     H45331   5.592   8.917   9.852 -0.3996 -0.9592 -1.1663
  336MOL0     H45332   5.488   9.026   9.595  0.8390 -0.1260  0.5655
  336MOL0     H45333   5.515   8.851   9.633 -1.1508 -0.9415  0.7011
  336MOL0     H45334   5.285   9.013   9.744  1.6525  0.8438 -0.1655
  336MOL0     H45335   5.348   8.876   9.820  0.8674 -3.7683 -1.2584
  336MOL0     H45336   5.291   8.746   9.605 -0.5941 -0.5111  1.0558
  336MOL0     H45337   5.160   8.839   9.667  0.2230 -0.5129  0.6554
  336MOL0     H45338   5.344   8.879   9.430  0.6553  2.2547  0.0228
  336MOL0     H45339   5.249   9.022   9.477 -4.2506 -0.3296 -0.1471
  336MOL0     H45340   5.037   8.918   9.453 -0.5088 -0.9034 -0.9706
  336MOL0     H45341   5.106   8.752   9.411 -1.7328 -0.2902 -2.1789
  336MOL0     H45342   5.779   9.422   9.953 -0.6086  0.3431 -2.4897
  336MOL0     H45343   5.945   9.604   9.979  0.7850  1.2921 -2.7190
  336MOL0     H45344   6.174   9.906  10.064 -0.1160  2.1437 -0.6812
  336MOL0     H45345   6.348  10.075  10.133 -0.8924  0.9446 -1.0484
  336MOL0     H45346   8.167  10.119  10.500 -0.4309 -0.5004 -3.7480
  336MOL0     H45347   7.949  10.085  10.597 -3.2761 -0.9842 -2.5059
  336MOL0     H45348   7.401  10.430  10.541 -2.8312  0.0678  1.2459
  336MOL0     H45349   7.199  10.381  10.638 -1.1740 -1.2796 -0.3506
  336MOL0     H45350   7.053  10.345  10.783 -0.0275  0.4873  1.4519
  336MOL0     H45351   7.015  10.212  10.678  0.1669 -0.1633  0.7479
  336MOL0     H45352   6.936  10.191  10.971 -0.7974  0.2408 -0.1077
  336MOL0     H45353   6.912  10.073  10.851 -1.2713 -0.0944 -1.0306
  336MOL0     H45354   6.710  10.202  10.786 -2.0946  2.9990  0.9759
  336MOL0     H45355   6.819  10.327  10.744 -1.5262 -1.3939 -2.1742
  336MOL0     H45356   6.646  10.427  10.889 -0.5635  0.3128  2.3999
  336MOL0     H45357   6.808  10.433  10.952  0.5510 -0.5937  1.3979
  336MOL0     H45358   6.626  10.208  11.242  1.7351 -1.1584  0.8245
  336MOL0     H45359   7.362  10.023  10.810  2.1687 -0.6548 -0.8419
  336MOL0     H45360   7.576  10.064  10.690 -0.1400 -1.0726 -0.1203
  337MOL0     O45361   6.970   8.656   9.956  0.0739 -0.7591 -0.0615
  337MOL0     C45362   7.014   8.769   9.939  0.0658 -1.2004  0.8394
  337MOL0     O45363   6.933   8.882   9.914 -0.4800  0.3189 -0.3300
  337MOL0     C45364   6.799   8.877   9.916 -0.1288  0.0700 -0.4807
  337MOL0     C45365   6.740   9.001   9.944  0.4617  0.9883  0.7042
  337MOL0     C45366   6.596   9.004   9.946 -0.7462  0.2123  0.3542
  337MOL0     C45367   6.514   8.889   9.914 -0.1867 -0.5668  0.0740
  337MOL0     O45368   6.385   8.913   9.904  0.1600 -0.7211 -0.7139
  337MOL0     C45369   6.301   8.797   9.924 -0.2121  0.2533 -0.5488
  337MOL0     C45370   6.159   8.842   9.905  0.6307 -0.5814  0.0747
  337MOL0     C45371   6.084   8.713   9.905  0.7219 -0.2685  0.4742
  337MOL0     C45372   5.935   8.736   9.885  0.4590 -0.0665 -0.1858
  337MOL0     C45373   5.857   8.609   9.868 -0.4933 -0.0096  0.1023
  337MOL0     C45374   5.710   8.641   9.836 -0.6864  0.5241  0.2541
  337MOL0     C45375   5.629   8.507   9.852  0.2006  0.0682 -0.4621
  337MOL0     C45376   5.489   8.525   9.796  0.0846 -0.4752  0.3920
  337MOL0     N45377   5.419   8.398   9.791 -0.0946 -0.1270  0.2748
  337MOL0     C45378   5.284   8.389   9.789  0.0348  1.1940  0.2313
  337MOL0     C45379   5.261   8.258   9.789  0.7662  0.3425  0.3156
  337MOL0     C45380   5.124   8.202   9.797  0.3742  0.2973 -0.1184
  337MOL0     C45381   5.046   8.252   9.928  0.6250 -0.1011  0.1038
  337MOL0     C45382   4.896   8.218   9.926  0.4410  0.2353 -0.4996
  337MOL0     C45383   4.823   8.270  10.054 -0.2984 -0.3336 -0.2736
  337MOL0     O45384   4.816   8.410  10.055  0.0965 -0.7320 -0.3788
  337MOL0     C45385   4.739   8.471  10.154 -0.1112  1.0602 -0.3031
  337MOL0     C45386   4.788   8.466  10.276  0.7898 -0.6373  0.1006
  337MOL0     C45387   4.734   8.539  10.381  0.4270 -0.4996 -0.1709
  337MOL0     C45388   4.824   8.546  10.512 -0.0368 -0.8918  0.5690
  337MOL0     C45389   4.614   8.612  10.366  0.5690  0.7561  0.7749
  337MOL0     C45390   4.565   8.696  10.477 -0.1339 -0.6196  0.5268
  337MOL0     O45391   4.490   8.803  10.440  0.6057  0.1232 -0.8444
  337MOL0     C45392   4.377   8.830  10.514  0.6179  0.6891 -0.0942
  337MOL0     C45393   4.333   8.966  10.517  0.2951 -0.3607  0.3473
  337MOL0     C45394   4.206   9.001  10.574  0.5634  1.6221 -0.0097
  337MOL0     C45395   4.124   8.901  10.632 -0.7984  0.2344 -0.4731
  337MOL0     O45396   4.005   8.928  10.685  0.5136 -0.7928  0.3055
  337MOL0     C45397   3.997   8.903  10.827 -0.7127 -0.9499  0.1145
  337MOL0     C45398   3.872   8.973  10.894  0.6805 -0.1872  0.1612
  337MOL0     C45399   3.732   8.922  10.835  0.2702  0.1746  0.3154
  337MOL0     C45400   3.626   8.889  10.941 -0.0864 -0.5877 -0.7831
  337MOL0     C45401   3.576   9.006  11.032 -0.0673 -0.8600  0.8848
  337MOL0     C45402   3.484   8.966  11.136  0.3491  0.1359 -0.1273
  337MOL0     C45403   3.405   9.089  11.188 -0.6455  0.2242  0.2652
  337MOL0     C45404   3.297   9.060  11.293 -0.0205 -0.6119 -0.1764
  337MOL0    Cl45405   3.145   8.974  11.227 -0.2614 -0.2130 -0.2586
  337MOL0     C45406   4.169   8.768  10.624 -0.3774  1.2038 -0.5354
  337MOL0     C45407   4.290   8.738  10.570 -0.8406 -0.0677 -0.0468
  337MOL0     O45408   4.575   8.655  10.590  0.4813  0.2857 -0.3363
  337MOL0     C45409   4.554   8.622  10.236 -0.9095 -0.5647  0.5078
  337MOL0     C45410   4.622   8.552  10.128 -0.2918 -0.5646  0.3188
  337MOL0     N45411   5.379   8.191   9.790 -0.3677 -0.5722 -0.3220
  337MOL0     N45412   5.475   8.273   9.794  0.3464  0.6568 -0.0752
  337MOL0     C45413   6.578   8.769   9.884 -0.0334 -0.2314 -0.4953
  337MOL0     C45414   6.718   8.761   9.891  0.0024 -0.1369 -0.7117
  337MOL0     C45415   7.158   8.793   9.931 -0.2071  0.7335  0.5071
  337MOL0     C45416   7.226   8.905   9.972 -0.2771  1.0450  0.7182
  337MOL0     C45417   7.363   8.923   9.970  0.0235  0.2395  0.9812
  337MOL0     C45418   7.443   8.816   9.927 -0.8893 -0.3947 -0.5299
  337MOL0     O45419   7.578   8.838   9.931 -0.3380  0.1945 -0.6922
  337MOL0     C45420   7.666   8.745   9.872  0.0167  0.0663  0.2740
  337MOL0     C45421   7.808   8.805   9.867 -0.5178  0.6250 -0.7471
  337MOL0     C45422   7.907   8.707   9.806  0.9759  0.4183  0.1037
  337MOL0     C45423   8.047   8.753   9.799 -0.2417 -0.0191  0.1142
  337MOL0     C45424   8.123   8.676   9.698  0.6705  0.4118  0.2508
  337MOL0     C45425   8.175   8.610   9.614 -0.3247  0.0669  0.6481
  337MOL0     C45426   7.387   8.697   9.883 -0.3530 -0.8971  0.0287
  337MOL0     C45427   7.246   8.685   9.887 -0.3608  0.6779  0.8327
  337MOL0     H45428   6.805   9.087   9.956  2.0575  0.3910 -2.4093
  337MOL0     H45429   6.553   9.102   9.961 -0.2280  0.4265  0.4209
  337MOL0     H45430   6.331   8.720   9.852  0.9424 -0.0212  0.2081
  337MOL0     H45431   6.314   8.759  10.025  1.9539 -1.0602 -1.2697
  337MOL0     H45432   6.130   8.902   9.992 -0.1638 -2.7924  1.4231
  337MOL0     H45433   6.150   8.899   9.812  1.9789  1.8561  1.3376
  337MOL0     H45434   6.119   8.649   9.824  0.4983 -0.9080  0.8737
  337MOL0     H45435   6.104   8.653   9.994  2.7232  0.0839  0.2954
  337MOL0     H45436   5.903   8.798   9.970 -1.2472 -0.6388 -0.3834
  337MOL0     H45437   5.922   8.782   9.787  0.5013 -0.7220 -0.5038
  337MOL0     H45438   5.903   8.546   9.791  0.0349 -0.6232  0.9018
  337MOL0     H45439   5.874   8.552   9.960  3.1881 -2.0575 -1.6323
  337MOL0     H45440   5.676   8.716   9.908  2.4918  0.3684  2.1305
  337MOL0     H45441   5.703   8.670   9.731 -1.1947  0.3489  0.2377
  337MOL0     H45442   5.679   8.428   9.794  2.5837  2.0904 -1.3150
  337MOL0     H45443   5.625   8.484   9.958  0.5051 -1.5493 -0.7735
  337MOL0     H45444   5.475   8.568   9.696 -0.3299  1.7417  1.3308
  337MOL0     H45445   5.432   8.594   9.859 -2.2801 -1.0512 -0.9985
  337MOL0     H45446   5.204   8.461   9.807 -2.2348 -0.7282 -1.4550
  337MOL0     H45447   5.076   8.230   9.703  0.1044 -0.3605 -0.1834
  337MOL0     H45448   5.134   8.093   9.794  0.0839  0.2935 -1.3199
  337MOL0     H45449   5.074   8.354   9.955  0.2071 -0.2686  1.2170
  337MOL0     H45450   5.088   8.191  10.009  1.9494  0.6790  0.0255
  337MOL0     H45451   4.862   8.115   9.911 -0.6357  0.0268  2.6395
  337MOL0     H45452   4.850   8.271   9.842 -1.7976  0.8223  0.9968
  337MOL0     H45453   4.864   8.222  10.144 -0.1819 -0.1719 -0.2373
  337MOL0     H45454   4.720   8.233  10.053  0.6536 -3.5713  2.3158
  337MOL0     H45455   4.870   8.397  10.295 -2.9799 -5.0656  2.3103
  337MOL0     H45456   4.844   8.650  10.539  1.8073 -0.3767 -2.3382
  337MOL0     H45457   4.778   8.498  10.599 -0.1720 -1.2802  0.2868
  337MOL0     H45458   4.922   8.498  10.510 -0.6769 -2.4982  2.9625
  337MOL0     H45459   4.388   9.037  10.456  0.4307  0.1540  1.0449
  337MOL0     H45460   4.182   9.107  10.579  2.3059  2.1896 -2.3880
  337MOL0     H45461   3.982   8.795  10.843 -0.4436 -0.5955  3.3970
  337MOL0     H45462   4.092   8.933  10.872 -1.9321  0.9675  1.5550
  337MOL0     H45463   3.886   8.962  11.002 -0.1284  1.2970  0.4503
  337MOL0     H45464   3.875   9.080  10.871 -0.1335 -0.3856 -0.8887
  337MOL0     H45465   3.758   8.840  10.768 -3.0510 -1.4011  0.7491
  337MOL0     H45466   3.690   9.001  10.771 -0.7718 -1.0212 -0.5171
  337MOL0     H45467   3.539   8.857  10.883  0.6293 -0.7413 -1.8097
  337MOL0     H45468   3.660   8.810  11.009 -0.3474  1.0527  1.3573
  337MOL0     H45469   3.529   9.083  10.970 -0.7642 -2.2052 -0.3203
  337MOL0     H45470   3.666   9.046  11.080  1.5768 -3.5793  0.2481
  337MOL0     H45471   3.423   8.886  11.093  3.3991 -0.9765 -2.7734
  337MOL0     H45472   3.534   8.921  11.222  3.2652  1.0789 -1.2224
  337MOL0     H45473   3.364   9.133  11.097  0.6117  0.1893 -0.3361
  337MOL0     H45474   3.469   9.156  11.245 -1.1226 -0.6056  1.8389
  337MOL0     H45475   3.264   9.158  11.327  1.7597 -0.4404  1.2431
  337MOL0     H45476   3.336   9.001  11.377 -0.5085 -1.1130 -0.2988
  337MOL0     H45477   4.110   8.688  10.667  1.4602  0.6663  1.1884
  337MOL0     H45478   4.309   8.631  10.568 -0.4543 -0.0145  0.5155
  337MOL0     H45479   4.460   8.671  10.215 -1.4031 -1.5495  0.4084
  337MOL0     H45480   4.584   8.566  10.027  1.5770  0.2342 -0.3182
  337MOL0     H45481   6.521   8.678   9.869 -1.0486 -0.3192  2.9747
  337MOL0     H45482   6.766   8.667   9.868  2.0768  0.7316 -0.1407
  337MOL0     H45483   7.165   8.990  10.001 -2.0636 -0.0816  0.4650
  337MOL0     H45484   7.403   9.020   9.997 -2.1501  1.3865  0.3090
  337MOL0     H45485   7.673   8.652   9.929  2.0798 -1.2737 -1.9813
  337MOL0     H45486   7.627   8.720   9.773 -3.2776  1.2976  1.1047
  337MOL0     H45487   7.856   8.806   9.965  0.7038 -1.0435 -1.2762
  337MOL0     H45488   7.815   8.905   9.823  0.3936  0.5907 -0.7061
  337MOL0     H45489   7.862   8.690   9.707  0.4098 -3.0214  0.8319
  337MOL0     H45490   7.899   8.619   9.871  2.2610  1.3969  1.6576
  337MOL0     H45491   8.096   8.761   9.897 -2.3838 -1.4461  1.4058
  337MOL0     H45492   8.038   8.853   9.757  3.2378  0.2415 -0.2654
  337MOL0     H45493   8.234   8.565   9.537  2.0850  2.5284  0.8840
  337MOL0     H45494   7.453   8.617   9.850  0.3285 -0.2945 -0.0685
  337MOL0     H45495   7.205   8.586   9.869 -1.1776  1.1750 -0.1157
  338MOL0     O45496   7.110   3.934   8.861 -0.7230  0.1710 -0.6317
  338MOL0     C45497   7.173   3.849   8.920  0.5203  0.7996  0.2573
  338MOL0     O45498   7.132   3.731   8.979  0.3169  0.0083 -0.0394
  338MOL0     C45499   7.005   3.690   8.959  0.2704 -0.0528  0.1279
  338MOL0     C45500   6.893   3.772   9.004  0.4303 -0.2258 -0.0996
  338MOL0     C45501   6.762   3.737   8.975  0.2072 -0.0673  0.2249
  338MOL0     C45502   6.733   3.613   8.912  1.0181 -0.2552 -0.0619
  338MOL0     O45503   6.609   3.568   8.877 -1.0901  0.3452 -0.0053
  338MOL0     C45504   6.494   3.654   8.870 -0.1760  0.3042 -0.0950
  338MOL0     C45505   6.366   3.566   8.843  0.1049 -0.3952 -0.2031
  338MOL0     C45506   6.343   3.445   8.942  0.8882  0.4225  0.0101
  338MOL0     C45507   6.254   3.340   8.878 -0.0605  0.1920  0.2023
  338MOL0     C45508   6.106   3.364   8.861 -0.0719 -0.0024 -0.0660
  338MOL0     C45509   6.028   3.229   8.843 -0.2321  0.0730  0.7101
  338MOL0     C45510   5.891   3.243   8.778  0.3442  0.6335 -0.6378
  338MOL0     C45511   5.824   3.105   8.768  0.3594  1.1680 -0.5430
  338MOL0     N45512   5.734   3.088   8.879 -0.1978 -0.5903  0.1396
  338MOL0     C45513   5.757   3.100   9.014 -0.0688  0.1565  0.2199
  338MOL0     C45514   5.635   3.086   9.074  0.1835 -0.3752  1.0297
  338MOL0     C45515   5.599   3.063   9.214 -0.1202 -0.2185  0.2450
  338MOL0     C45516   5.452   3.105   9.242  0.2343 -0.2480  0.1075
  338MOL0     C45517   5.436   3.255   9.236  0.0223 -0.0730  0.1142
  338MOL0     C45518   5.291   3.290   9.214 -0.4155  0.2548 -0.5575
  338MOL0     O45519   5.233   3.261   9.346 -0.1755 -0.1456  0.0002
  338MOL0     C45520   5.094   3.281   9.343 -0.2465 -0.0609 -0.1102
  338MOL0     C45521   5.021   3.239   9.451 -0.1534  0.1828  0.2259
  338MOL0     C45522   4.881   3.264   9.454 -0.5915 -0.0563 -0.3565
  338MOL0     C45523   4.806   3.237   9.585  0.8604 -0.4856 -0.5079
  338MOL0     C45524   4.810   3.318   9.345  0.8828 -0.5805 -0.0459
  338MOL0     C45525   4.665   3.329   9.334 -0.6750 -0.4505  1.2775
  338MOL0     O45526   4.620   3.421   9.241  0.7860  0.0954  0.2438
  338MOL0     C45527   4.488   3.410   9.216  0.4004 -0.1890  0.5239
  338MOL0     C45528   4.425   3.308   9.142 -1.3681 -0.5683  0.6132
  338MOL0     C45529   4.290   3.317   9.117 -0.9414  0.0124  0.1859
  338MOL0     C45530   4.216   3.429   9.160 -1.3628 -0.4647 -0.1528
  338MOL0     O45531   4.084   3.452   9.134  0.1067 -0.7473 -1.0667
  338MOL0     C45532   4.030   3.368   9.031 -0.2197  0.4436 -0.1500
  338MOL0     C45533   3.887   3.412   9.028 -0.5386 -1.0105 -0.0326
  338MOL0     C45534   3.836   3.381   8.886 -0.3173 -0.5223 -0.2643
  338MOL0     C45535   3.684   3.377   8.888 -0.4810  0.8055  0.2762
  338MOL0     C45536   3.633   3.394   8.740 -0.0336  0.6958 -0.2961
  338MOL0     C45537   3.479   3.371   8.732 -0.0651  0.3371  0.8125
  338MOL0     C45538   3.394   3.464   8.822  0.1031 -0.0363  0.4679
  338MOL0     C45539   3.240   3.444   8.800 -0.8077  0.2206 -0.6849
  338MOL0    Cl45540   3.196   3.277   8.841 -0.0184  0.1720  0.0096
  338MOL0     C45541   4.274   3.530   9.240  0.2664  0.1987  0.3850
  338MOL0     C45542   4.411   3.524   9.261 -1.1149  0.2310  0.2388
  338MOL0     O45543   4.595   3.266   9.411 -0.5808  0.6388  0.2591
  338MOL0     C45544   4.890   3.363   9.235  0.0480  0.1558 -0.4497
  338MOL0     C45545   5.024   3.335   9.235  0.2269 -0.3256 -0.1694
  338MOL0     N45546   5.541   3.055   8.971  0.4044 -1.0749 -1.0774
  338MOL0     N45547   5.604   3.076   8.856  0.5974 -0.0247 -0.4026
  338MOL0     C45548   6.837   3.531   8.882 -0.3542 -0.0239  1.4554
  338MOL0     C45549   6.979   3.569   8.895 -0.0676  0.1717 -0.8503
  338MOL0     C45550   7.313   3.884   8.920 -0.2277 -0.2431  0.1457
  338MOL0     C45551   7.361   4.009   8.877  0.5421 -0.3077 -0.3647
  338MOL0     C45552   7.500   4.038   8.859 -0.1538  0.0101 -0.0159
  338MOL0     C45553   7.596   3.945   8.883 -0.9469  0.2331 -0.4897
  338MOL0     O45554   7.731   3.957   8.891  0.1251  0.2993  0.1444
  338MOL0     C45555   7.795   4.074   8.840  0.2897  0.5431 -0.4609
  338MOL0     C45556   7.936   4.027   8.801  0.0077 -0.1914  0.8225
  338MOL0     C45557   8.030   3.986   8.917 -0.4928 -0.2570 -0.6731
  338MOL0     C45558   8.176   3.991   8.869  0.1644 -0.4922  0.6946
  338MOL0     C45559   8.196   3.909   8.752  0.9505 -0.1411 -0.2025
  338MOL0     C45560   8.224   3.847   8.655 -0.3747 -0.2655 -0.5094
  338MOL0     C45561   7.552   3.817   8.922  0.3215 -0.3298 -0.0493
  338MOL0     C45562   7.414   3.792   8.942  0.7580  0.2565 -0.3419
  338MOL0     H45563   6.910   3.866   9.056  2.2299 -0.8470  0.5141
  338MOL0     H45564   6.684   3.809   8.997  2.8502  2.7672  0.9086
  338MOL0     H45565   6.472   3.713   8.960 -1.8339  1.2516 -1.0732
  338MOL0     H45566   6.518   3.725   8.790  2.5180 -2.9920 -2.4583
  338MOL0     H45567   6.277   3.628   8.828  0.0067 -0.7420 -1.0665
  338MOL0     H45568   6.381   3.520   8.745  1.2473 -0.1146 -0.1687
  338MOL0     H45569   6.437   3.397   8.966  0.6575  0.3632  0.8125
  338MOL0     H45570   6.301   3.488   9.033  2.7049  0.2935  0.9444
  338MOL0     H45571   6.286   3.314   8.777  0.5554  1.0025  0.1807
  338MOL0     H45572   6.268   3.249   8.937 -1.8179 -0.5674 -0.4991
  338MOL0     H45573   6.057   3.410   8.948  1.2887 -0.0933  0.7759
  338MOL0     H45574   6.104   3.429   8.774 -1.2010 -1.4712 -1.1899
  338MOL0     H45575   6.085   3.175   8.768  0.6702  0.6398  0.9645
  338MOL0     H45576   6.023   3.185   8.943 -0.1508 -0.0467  0.6610
  338MOL0     H45577   5.819   3.318   8.812 -1.1887 -0.6924 -0.8359
  338MOL0     H45578   5.909   3.278   8.676  0.0611  0.2571 -0.8192
  338MOL0     H45579   5.900   3.026   8.764 -0.6055  0.1044  0.7840
  338MOL0     H45580   5.766   3.092   8.677 -1.8320  0.7855  0.8268
  338MOL0     H45581   5.855   3.116   9.059 -0.9625  3.9954  1.1912
  338MOL0     H45582   5.599   2.957   9.240 -2.5588 -0.3938 -0.2583
  338MOL0     H45583   5.674   3.110   9.279  0.0398 -0.9988  0.6299
  338MOL0     H45584   5.439   3.064   9.343  1.7704 -1.7534 -0.2657
  338MOL0     H45585   5.389   3.049   9.173  2.7464 -0.3088 -2.2947
  338MOL0     H45586   5.506   3.286   9.159  0.8549 -0.7611  0.5740
  338MOL0     H45587   5.486   3.302   9.321 -2.9950 -1.9834  3.2076
  338MOL0     H45588   5.258   3.217   9.139 -0.6413 -2.6908  2.1835
  338MOL0     H45589   5.281   3.397   9.193 -1.5815  0.5466  1.2878
  338MOL0     H45590   5.075   3.202   9.537  1.4027 -1.3930 -1.3264
  338MOL0     H45591   4.733   3.315   9.607  3.9301  2.2977  0.5831
  338MOL0     H45592   4.755   3.140   9.584  1.6787 -0.9545  0.7630
  338MOL0     H45593   4.880   3.231   9.666  1.6760  0.4598 -1.1501
  338MOL0     H45594   4.481   3.220   9.110 -2.1001 -0.8569  0.1026
  338MOL0     H45595   4.252   3.239   9.051  1.8115 -0.2004 -1.2990
  338MOL0     H45596   4.069   3.396   8.933  0.2213  2.9703  0.6650
  338MOL0     H45597   4.045   3.261   9.043 -0.6052  0.2402 -1.3699
  338MOL0     H45598   3.835   3.358   9.108  0.7561 -2.8751 -0.3939
  338MOL0     H45599   3.883   3.522   9.030  0.1040 -0.9735 -0.5666
  338MOL0     H45600   3.860   3.276   8.867 -4.3756 -1.8033  0.7148
  338MOL0     H45601   3.866   3.458   8.814  2.0237  1.5752  2.6800
  338MOL0     H45602   3.654   3.283   8.934 -1.2982  0.7616 -0.3128
  338MOL0     H45603   3.645   3.459   8.950 -2.8283 -0.6342  0.8562
  338MOL0     H45604   3.685   3.323   8.674  2.3618  0.8842  1.2537
  338MOL0     H45605   3.648   3.496   8.706  1.2737  0.3063 -0.9571
  338MOL0     H45606   3.444   3.386   8.629  3.3115 -2.0750 -0.9004
  338MOL0     H45607   3.452   3.269   8.760  0.1239  0.0464 -0.0173
  338MOL0     H45608   3.413   3.568   8.795 -0.8648 -0.1126 -0.5854
  338MOL0     H45609   3.422   3.450   8.927 -1.8665 -1.9428  0.8178
  338MOL0     H45610   3.204   3.459   8.698 -0.5358 -0.8419 -0.9524
  338MOL0     H45611   3.182   3.508   8.866  1.4532  0.1926  1.4890
  338MOL0     H45612   4.217   3.612   9.281  2.1124  2.8229 -1.9053
  338MOL0     H45613   4.456   3.604   9.319 -2.9824  2.7579 -1.5616
  338MOL0     H45614   4.844   3.398   9.143 -4.7028 -0.4204  1.4243
  338MOL0     H45615   5.077   3.361   9.144  0.7884 -0.6720  0.0547
  338MOL0     H45616   6.823   3.427   8.854 -0.2015  0.3463 -0.0729
  338MOL0     H45617   7.064   3.516   8.853  0.9319  1.9409 -1.1335
  338MOL0     H45618   7.289   4.084   8.848  0.8240 -0.0610 -0.4257
  338MOL0     H45619   7.529   4.141   8.843 -1.9004  0.9941  2.5030
  338MOL0     H45620   7.757   4.121   8.749 -2.6303 -2.2604 -0.8642
  338MOL0     H45621   7.777   4.143   8.923 -2.6673  0.7636 -1.1810
  338MOL0     H45622   7.986   4.104   8.741  0.5827 -0.5241  0.8650
  338MOL0     H45623   7.927   3.931   8.750  2.6631  1.4076 -3.1411
  338MOL0     H45624   7.997   3.884   8.940 -0.5015 -0.7515 -2.6835
  338MOL0     H45625   8.022   4.053   9.003  0.1101  1.9645 -2.2336
  338MOL0     H45626   8.255   3.956   8.937  1.0300 -3.8825 -1.7954
  338MOL0     H45627   8.198   4.097   8.855  0.0737 -0.6731 -0.9833
  338MOL0     H45628   8.258   3.798   8.566  0.1912 -1.1836  0.1868
  338MOL0     H45629   7.623   3.736   8.937  2.6252  1.0680 -2.5655
  338MOL0     H45630   7.387   3.692   8.973 -1.2651 -0.1920 -3.1274
  339MOL0     O45631   8.481   7.616   8.235 -0.4162  0.0835  0.4190
  339MOL0     C45632   8.582   7.555   8.259 -0.4864  0.4987  0.6339
  339MOL0     O45633   8.618   7.436   8.207 -0.7650 -0.0636 -0.5451
  339MOL0     C45634   8.533   7.381   8.118  0.6292  1.8177  0.0108
  339MOL0     C45635   8.581   7.352   7.987  0.7806 -0.2533 -0.6257
  339MOL0     C45636   8.506   7.276   7.895 -0.1456  0.2294  0.4937
  339MOL0     C45637   8.369   7.240   7.927 -0.3912  0.6623  0.0010
  339MOL0     O45638   8.283   7.164   7.838 -0.1827 -0.3955  0.0428
  339MOL0     C45639   8.318   7.188   7.699  0.1506 -0.1357  0.6851
  339MOL0     C45640   8.208   7.141   7.607 -1.1670 -0.3789 -0.5824
  339MOL0     C45641   8.088   7.235   7.639 -0.0235  0.6321 -0.1657
  339MOL0     C45642   7.974   7.171   7.554 -0.3806 -0.3451 -1.0951
  339MOL0     C45643   7.834   7.208   7.617  0.2283 -0.1701  0.0487
  339MOL0     C45644   7.720   7.184   7.519  0.1803 -0.4041 -0.5324
  339MOL0     C45645   7.587   7.250   7.560 -0.8633 -0.2760  0.0441
  339MOL0     C45646   7.465   7.166   7.549 -0.8847 -0.3278 -0.6408
  339MOL0     N45647   7.344   7.248   7.558 -0.1151  0.2089  0.5915
  339MOL0     C45648   7.261   7.268   7.667 -0.3507  0.2213  0.6765
  339MOL0     C45649   7.172   7.355   7.618  0.6411  0.4023  0.7184
  339MOL0     C45650   7.070   7.396   7.709  0.3038  0.5756 -0.5408
  339MOL0     C45651   6.982   7.517   7.666 -0.3172 -0.0904 -0.5643
  339MOL0     C45652   6.901   7.561   7.798 -0.2871  0.3209 -0.0051
  339MOL0     C45653   6.785   7.654   7.777  0.6325  0.0451 -0.1128
  339MOL0     O45654   6.698   7.582   7.699 -0.0144 -0.6997 -0.3050
  339MOL0     C45655   6.582   7.649   7.656 -0.2923  0.2694 -0.2392
  339MOL0     C45656   6.563   7.789   7.665 -0.2157  0.0699 -0.4888
  339MOL0     C45657   6.443   7.849   7.629 -0.7617 -0.3280 -0.0064
  339MOL0     C45658   6.431   7.994   7.643  0.5034  0.3263  0.5684
  339MOL0     C45659   6.340   7.779   7.569  0.2087  0.3045 -0.2865
  339MOL0     C45660   6.216   7.827   7.499  0.3289  0.6425 -0.8841
  339MOL0     O45661   6.124   7.731   7.474  0.7071  0.2211 -0.1089
  339MOL0     C45662   6.022   7.745   7.377  1.0498  0.2007 -1.0940
  339MOL0     C45663   6.032   7.832   7.268  0.5072 -0.3443  0.4487
  339MOL0     C45664   5.924   7.840   7.172 -0.3117  0.3035 -0.1380
  339MOL0     C45665   5.804   7.766   7.195  0.4108 -0.2369  0.5970
  339MOL0     O45666   5.702   7.784   7.104  0.0673  0.1642 -0.0800
  339MOL0     C45667   5.694   7.704   6.981 -0.1176 -0.1616 -0.5046
  339MOL0     C45668   5.702   7.787   6.853 -0.0805  0.1702 -0.0747
  339MOL0     C45669   5.655   7.729   6.717  0.3921  0.1531 -1.0969
  339MOL0     C45670   5.638   7.823   6.598 -0.0954 -0.1100 -0.1782
  339MOL0     C45671   5.602   7.739   6.472  0.5116  0.4594  0.0540
  339MOL0     C45672   5.575   7.832   6.348 -0.5076 -0.1600 -0.5028
  339MOL0     C45673   5.540   7.751   6.225 -0.2050  1.4015  0.0363
  339MOL0     C45674   5.494   7.845   6.111 -0.1621  0.0314  0.9213
  339MOL0    Cl45675   5.622   7.972   6.077 -0.1074  0.1056  0.1748
  339MOL0     C45676   5.791   7.698   7.315 -0.5720 -0.6158 -0.2139
  339MOL0     C45677   5.895   7.683   7.408 -0.1579  0.3358  0.3251
  339MOL0     O45678   6.206   7.942   7.480  0.1455  0.2739 -0.0908
  339MOL0     C45679   6.361   7.636   7.554  0.1388  0.6326  0.2092
  339MOL0     C45680   6.476   7.576   7.607 -0.4072 -0.0928  0.2172
  339MOL0     N45681   7.198   7.375   7.487  0.4608 -0.1458 -0.3281
  339MOL0     N45682   7.303   7.312   7.446  0.6188  0.3563 -0.2139
  339MOL0     C45683   8.324   7.267   8.058 -0.7537  1.2424  1.1916
  339MOL0     C45684   8.406   7.340   8.147  0.2899 -0.5203 -0.1109
  339MOL0     C45685   8.688   7.629   8.329  0.2917  0.6117  0.8715
  339MOL0     C45686   8.665   7.753   8.396  0.2401 -0.4107 -0.3077
  339MOL0     C45687   8.775   7.829   8.448 -0.1458 -0.3840 -0.4299
  339MOL0     C45688   8.902   7.781   8.449  0.5276 -0.3743 -0.1634
  339MOL0     O45689   9.005   7.849   8.513 -0.5435 -0.1922  0.0765
  339MOL0     C45690   8.977   7.982   8.556  0.6415  0.4530 -1.4379
  339MOL0     C45691   9.098   8.058   8.601  0.1195  0.5595  0.2614
  339MOL0     C45692   9.216   7.990   8.678  0.4541 -0.5671 -0.7660
  339MOL0     C45693   9.175   7.965   8.829  0.5614  0.4699 -0.1889
  339MOL0     C45694   9.286   7.901   8.892  0.7523  0.1439  0.4370
  339MOL0     C45695   9.381   7.845   8.939 -0.1604 -0.5380 -0.8840
  339MOL0     C45696   8.926   7.655   8.389 -0.2183 -0.3993  0.2870
  339MOL0     C45697   8.818   7.583   8.331 -0.7054 -0.5042  0.6943
  339MOL0     H45698   8.683   7.383   7.968  1.2783 -0.2937  1.6211
  339MOL0     H45699   8.536   7.245   7.795 -2.8729 -1.1748  0.0255
  339MOL0     H45700   8.323   7.297   7.691 -0.1012 -0.2158 -0.9130
  339MOL0     H45701   8.413   7.141   7.675 -0.1742 -0.8934  0.8639
  339MOL0     H45702   8.241   7.149   7.503 -3.1520 -2.0050 -1.3981
  339MOL0     H45703   8.186   7.035   7.619 -0.3897 -0.5966 -0.9975
  339MOL0     H45704   8.065   7.235   7.746  0.8734 -2.1617  0.1131
  339MOL0     H45705   8.108   7.340   7.616 -1.3915  0.6299 -1.5049
  339MOL0     H45706   7.982   7.203   7.450 -0.5549  1.0580 -0.6901
  339MOL0     H45707   7.990   7.063   7.546 -2.2376 -0.8910  1.2474
  339MOL0     H45708   7.820   7.144   7.705  2.2460 -2.4530 -1.1530
  339MOL0     H45709   7.838   7.312   7.649  1.5628 -0.0659 -0.3954
  339MOL0     H45710   7.745   7.221   7.419 -0.3246 -0.4599 -0.6826
  339MOL0     H45711   7.717   7.074   7.517 -1.8766 -0.3818 -1.3783
  339MOL0     H45712   7.599   7.269   7.667 -0.1844  0.7067 -0.1918
  339MOL0     H45713   7.591   7.354   7.527  2.0873  0.6364  2.7710
  339MOL0     H45714   7.464   7.094   7.631 -2.8383 -0.8312 -1.0559
  339MOL0     H45715   7.450   7.101   7.462 -0.0897 -1.6833  0.1992
  339MOL0     H45716   7.270   7.222   7.765  0.8176 -0.5285  0.2304
  339MOL0     H45717   7.005   7.311   7.732 -2.4650  2.8124  0.5054
  339MOL0     H45718   7.123   7.422   7.801  2.8999 -0.5594 -1.6280
  339MOL0     H45719   6.911   7.496   7.586  0.8825  2.6423 -2.4654
  339MOL0     H45720   7.050   7.594   7.630  2.8569 -2.7520 -0.8218
  339MOL0     H45721   6.971   7.613   7.864 -0.8185  0.4865  0.4328
  339MOL0     H45722   6.868   7.471   7.849  1.5673 -0.9030 -0.8380
  339MOL0     H45723   6.825   7.738   7.719  0.6869  0.9497  1.1834
  339MOL0     H45724   6.743   7.684   7.873 -2.0813  2.0487 -1.7782
  339MOL0     H45725   6.634   7.851   7.720 -0.6527 -0.4442  0.6880
  339MOL0     H45726   6.448   8.054   7.553 -2.5306  1.4717  0.6375
  339MOL0     H45727   6.332   8.021   7.681 -0.4534 -2.0725 -0.0490
  339MOL0     H45728   6.506   8.025   7.716  1.3137  0.8584 -0.4589
  339MOL0     H45729   6.119   7.897   7.259 -1.0405  2.1145  2.1348
  339MOL0     H45730   5.931   7.912   7.092 -0.5697  1.5391  0.9099
  339MOL0     H45731   5.777   7.634   6.992 -0.4635 -0.7668 -1.5854
  339MOL0     H45732   5.590   7.668   6.989  0.9661 -3.5027  0.4075
  339MOL0     H45733   5.636   7.870   6.879 -0.9504 -0.5014 -0.1252
  339MOL0     H45734   5.809   7.812   6.849 -0.0443 -0.1662 -2.2791
  339MOL0     H45735   5.560   7.678   6.734  1.4733 -1.4993  0.3380
  339MOL0     H45736   5.733   7.657   6.690 -0.1166 -1.0208  0.4527
  339MOL0     H45737   5.571   7.907   6.619  1.8862  1.5309 -0.1583
  339MOL0     H45738   5.734   7.871   6.577 -0.1439  0.1726  0.2265
  339MOL0     H45739   5.512   7.681   6.492  0.6478  0.3183  0.2585
  339MOL0     H45740   5.683   7.671   6.447  0.1417  0.7594 -2.2631
  339MOL0     H45741   5.494   7.904   6.366  0.2902  1.4047 -2.6865
  339MOL0     H45742   5.663   7.896   6.336  0.3214 -1.0638  0.5666
  339MOL0     H45743   5.464   7.676   6.248 -0.0541  0.7853 -1.3553
  339MOL0     H45744   5.637   7.711   6.192  1.0608  4.0199  0.3288
  339MOL0     H45745   5.406   7.902   6.144 -2.0203 -2.7722  1.1442
  339MOL0     H45746   5.464   7.783   6.026 -0.7133  1.3881  0.0874
  339MOL0     H45747   5.694   7.654   7.335 -2.6553  0.5559 -5.8085
  339MOL0     H45748   5.889   7.625   7.500 -1.6893  0.5977  0.4130
  339MOL0     H45749   6.285   7.571   7.512 -0.0706  0.3199  1.0450
  339MOL0     H45750   6.494   7.470   7.595  0.4997  0.2164 -1.5505
  339MOL0     H45751   8.221   7.235   8.077 -0.4647 -2.8397 -2.3540
  339MOL0     H45752   8.386   7.354   8.253  0.3652 -1.3503  0.0189
  339MOL0     H45753   8.568   7.801   8.400  0.7579  0.6085  2.8234
  339MOL0     H45754   8.752   7.924   8.495  1.9592  0.2831 -0.6719
  339MOL0     H45755   8.923   8.039   8.480 -2.9768 -0.5828  0.1398
  339MOL0     H45756   8.905   7.977   8.637 -1.3961 -2.2006 -3.2472
  339MOL0     H45757   9.071   8.152   8.649  0.4240  0.3402  0.8704
  339MOL0     H45758   9.129   8.092   8.502 -0.2814 -0.0482 -0.0794
  339MOL0     H45759   9.306   8.052   8.690  0.0782 -0.1487  0.0063
  339MOL0     H45760   9.243   7.894   8.633  1.1834 -1.1259  0.7822
  339MOL0     H45761   9.099   7.886   8.832  2.3366 -1.2951  2.0709
  339MOL0     H45762   9.142   8.044   8.897 -1.1984 -1.5195  1.3978
  339MOL0     H45763   9.459   7.792   8.988 -1.5984  1.0595  3.6451
  339MOL0     H45764   9.029   7.622   8.391  0.5073  1.7108 -0.2855
  339MOL0     H45765   8.828   7.485   8.286 -0.7693 -0.5581  0.7974
  340MOL0     O45766   6.522   1.082   3.423  0.6847  0.7060  0.3688
  340MOL0     C45767   6.520   1.165   3.329 -0.1310 -0.3574 -0.6688
  340MOL0     O45768   6.428   1.181   3.236 -0.4730 -0.0659  0.4116
  340MOL0     C45769   6.314   1.102   3.249 -0.2603 -0.0895  0.2729
  340MOL0     C45770   6.238   1.092   3.373 -0.1645 -0.2936  0.5127
  340MOL0     C45771   6.118   1.028   3.374 -0.0704  0.5261 -0.0069
  340MOL0     C45772   6.058   0.971   3.264 -0.1913  0.1054 -0.3980
  340MOL0     O45773   5.942   0.905   3.287 -0.3500 -0.0406 -0.5910
  340MOL0     C45774   5.911   0.808   3.191  0.0326  0.0484 -0.5111
  340MOL0     C45775   5.800   0.722   3.240  0.2552 -0.0307 -0.3217
  340MOL0     C45776   5.669   0.806   3.255 -0.8518  0.3736  0.2664
  340MOL0     C45777   5.561   0.729   3.326 -0.8316 -0.0769 -0.3268
  340MOL0     C45778   5.426   0.800   3.331  0.0605  0.6881 -0.1664
  340MOL0     C45779   5.349   0.823   3.198 -0.3947 -0.6885 -0.0297
  340MOL0     C45780   5.203   0.852   3.211  0.4483  0.6623  0.6589
  340MOL0     C45781   5.133   0.721   3.248 -0.1131 -0.1056 -0.3019
  340MOL0     N45782   4.984   0.717   3.230 -0.3078 -0.9008 -0.0287
  340MOL0     C45783   4.905   0.826   3.271  0.0438 -0.2318 -0.0172
  340MOL0     C45784   4.795   0.820   3.195  0.4667  0.0666 -0.1708
  340MOL0     C45785   4.688   0.918   3.180  0.2548 -0.0927  0.0169
  340MOL0     C45786   4.552   0.848   3.172  0.3463 -0.0519 -0.4642
  340MOL0     C45787   4.452   0.948   3.115  0.3661 -0.6737  0.4072
  340MOL0     C45788   4.313   0.892   3.082 -0.1255 -0.1995  0.6235
  340MOL0     O45789   4.247   1.021   3.054  0.1664  0.0078  0.7815
  340MOL0     C45790   4.108   1.036   3.041  0.0314 -0.3896  0.6352
  340MOL0     C45791   4.068   1.162   2.998 -0.8182 -0.4471  0.0745
  340MOL0     C45792   3.935   1.184   2.953  0.1816  0.1207  0.8978
  340MOL0     C45793   3.904   1.318   2.907 -0.7982 -0.8747 -0.2434
  340MOL0     C45794   3.839   1.079   2.958  0.0379  0.0114 -0.0950
  340MOL0     C45795   3.694   1.087   2.918  0.6351 -0.0110  0.6574
  340MOL0     O45796   3.639   1.201   2.935 -0.0390 -0.0182 -0.3467
  340MOL0     C45797   3.500   1.216   2.921 -0.3171 -0.7033 -0.4274
  340MOL0     C45798   3.455   1.335   2.873  0.3887 -1.0082 -0.0465
  340MOL0     C45799   3.320   1.371   2.882  0.5769  0.0514  0.0230
  340MOL0     C45800   3.216   1.276   2.923 -0.8197  0.1687  0.3677
  340MOL0     O45801   3.086   1.306   2.917 -0.4994 -0.0543 -0.6406
  340MOL0     C45802   3.000   1.202   2.864  0.2437  0.3206  0.0832
  340MOL0     C45803   3.026   1.177   2.710  0.1364 -0.4136  0.3022
  340MOL0     C45804   2.907   1.111   2.630  0.4843  0.0392 -0.1791
  340MOL0     C45805   2.793   1.214   2.601  0.1099  0.2209  1.1789
  340MOL0     C45806   2.685   1.169   2.491 -0.6064 -0.3366 -0.1710
  340MOL0     C45807   2.576   1.074   2.545 -0.2788 -0.2070  0.5498
  340MOL0     C45808   2.554   0.948   2.471  0.0593  0.0224 -0.0763
  340MOL0     C45809   2.528   0.959   2.323  0.8026  0.0789  0.0029
  340MOL0    Cl45810   2.524   0.794   2.260  0.0521 -0.1569 -0.4514
  340MOL0     C45811   3.264   1.157   2.970 -0.2970 -0.5169 -0.4051
  340MOL0     C45812   3.406   1.128   2.977  0.4959 -0.4800  0.2486
  340MOL0     O45813   3.652   0.988   2.864 -0.0067  0.1834 -0.6407
  340MOL0     C45814   3.874   0.955   3.012  0.0943 -0.1068 -0.2892
  340MOL0     C45815   4.007   0.933   3.050  1.1492  0.5568 -0.9812
  340MOL0     N45816   4.794   0.702   3.123  0.1515 -0.2146  0.5797
  340MOL0     N45817   4.906   0.642   3.154 -0.1101  0.3891  0.2752
  340MOL0     C45818   6.133   0.979   3.146 -0.1581 -0.9232 -0.3831
  340MOL0     C45819   6.258   1.045   3.141 -0.4934  0.1303  0.6044
  340MOL0     C45820   6.634   1.251   3.316 -1.6252 -0.5549  1.2955
  340MOL0     C45821   6.623   1.360   3.235  1.1718 -0.0854 -0.1299
  340MOL0     C45822   6.732   1.445   3.204  0.3534  0.7230  0.1241
  340MOL0     C45823   6.855   1.429   3.264 -0.2179  0.6759 -0.9778
  340MOL0     O45824   6.949   1.521   3.234 -0.0551 -0.3201  0.1270
  340MOL0     C45825   7.086   1.520   3.264 -0.5993 -0.0042 -0.4789
  340MOL0     C45826   7.166   1.399   3.203 -0.2466  0.7156  0.0641
  340MOL0     C45827   7.308   1.408   3.224 -1.2715 -0.1804 -0.7154
  340MOL0     C45828   7.345   1.383   3.377 -0.8251  0.5727 -0.9341
  340MOL0     C45829   7.479   1.328   3.388  0.6775  0.6688  1.0370
  340MOL0     C45830   7.599   1.298   3.406 -0.1791 -0.6572  0.8676
  340MOL0     C45831   6.869   1.318   3.357 -0.1094 -0.0878 -1.0898
  340MOL0     C45832   6.762   1.232   3.380  0.2593  0.7909 -0.8316
  340MOL0     H45833   6.277   1.147   3.458  1.0657  0.8627 -0.7583
  340MOL0     H45834   6.061   1.026   3.466  2.1228 -0.6317  1.4014
  340MOL0     H45835   5.878   0.862   3.102 -0.0211  3.0005  1.1828
  340MOL0     H45836   5.998   0.744   3.171  2.1229  1.8697  1.9651
  340MOL0     H45837   5.784   0.641   3.169 -1.4468 -1.8921  2.0171
  340MOL0     H45838   5.828   0.690   3.340  0.4994 -1.7321 -0.9046
  340MOL0     H45839   5.684   0.891   3.321 -3.8700  1.5402 -0.3642
  340MOL0     H45840   5.647   0.838   3.153  2.3966 -3.0226 -1.7579
  340MOL0     H45841   5.547   0.633   3.275  0.6729 -0.6674  0.3049
  340MOL0     H45842   5.589   0.693   3.426 -1.5917 -0.4406 -0.2383
  340MOL0     H45843   5.358   0.742   3.394  1.6730 -0.6765  0.4056
  340MOL0     H45844   5.436   0.894   3.386  0.7483 -0.7749  2.4020
  340MOL0     H45845   5.402   0.904   3.148  2.1203 -0.7477  2.2991
  340MOL0     H45846   5.352   0.733   3.138 -1.4194 -1.0627  0.4455
  340MOL0     H45847   5.184   0.924   3.292 -0.3747 -1.4314  2.4208
  340MOL0     H45848   5.166   0.885   3.114  0.1971  0.6408  0.7484
  340MOL0     H45849   5.153   0.688   3.350 -0.2825  3.8265  1.1530
  340MOL0     H45850   5.167   0.634   3.190 -0.7378  0.2739 -1.2604
  340MOL0     H45851   4.932   0.913   3.328  2.4234  0.1707 -1.6147
  340MOL0     H45852   4.685   0.997   3.256 -0.4880  3.8967 -3.7997
  340MOL0     H45853   4.700   0.981   3.092 -1.7989  0.1241 -0.1529
  340MOL0     H45854   4.524   0.821   3.274  0.3530 -4.2651 -1.3944
  340MOL0     H45855   4.538   0.761   3.108 -5.8294 -2.0487  2.8551
  340MOL0     H45856   4.504   0.982   3.025 -0.9132  2.6261  0.7824
  340MOL0     H45857   4.450   1.035   3.181 -0.9682 -0.8349  0.6178
  340MOL0     H45858   4.266   0.845   3.169  0.3110  0.3029  1.1358
  340MOL0     H45859   4.308   0.837   2.988  1.6135 -0.2927  0.5641
  340MOL0     H45860   4.146   1.237   2.999 -1.3526  0.1166  0.9249
  340MOL0     H45861   3.957   1.332   2.812  1.1672 -1.5358  0.7010
  340MOL0     H45862   3.799   1.343   2.892  0.0788  3.1264 -0.8837
  340MOL0     H45863   3.946   1.386   2.982  0.9225 -2.7915  0.6063
  340MOL0     H45864   3.532   1.399   2.831  0.3744  0.0304  1.4441
  340MOL0     H45865   3.272   1.460   2.843 -0.5329 -0.7032 -0.3790
  340MOL0     H45866   3.000   1.107   2.918 -0.6679  1.7841  2.9035
  340MOL0     H45867   2.899   1.234   2.892  0.9151  1.4663  1.2887
  340MOL0     H45868   3.047   1.278   2.673  1.8640 -0.6821  0.4533
  340MOL0     H45869   3.122   1.125   2.707  0.2924 -0.1587  0.8210
  340MOL0     H45870   2.868   1.033   2.695  0.4775 -0.2814 -0.5624
  340MOL0     H45871   2.936   1.059   2.538 -3.7023 -2.5292 -0.2721
  340MOL0     H45872   2.731   1.242   2.687 -0.7978  2.3566 -0.1090
  340MOL0     H45873   2.845   1.304   2.568  0.1373  0.0925  0.8703
  340MOL0     H45874   2.743   1.122   2.412  0.1427  0.6127 -0.1940
  340MOL0     H45875   2.633   1.257   2.454  1.5720  0.0256 -2.6134
  340MOL0     H45876   2.606   1.045   2.646  2.9682  3.4271  0.8897
  340MOL0     H45877   2.478   1.122   2.551  0.3215  1.3414 -1.0160
  340MOL0     H45878   2.466   0.912   2.525  0.3140  1.9365  1.7569
  340MOL0     H45879   2.639   0.880   2.479  0.4855  0.6901  1.5436
  340MOL0     H45880   2.607   1.008   2.264  0.0042  0.3814 -0.8431
  340MOL0     H45881   2.439   1.021   2.310  2.6477  2.6667 -1.4586
  340MOL0     H45882   3.203   1.081   3.019  0.6123  0.8969  3.2491
  340MOL0     H45883   3.430   1.030   3.018 -0.2757 -1.0672 -0.6600
  340MOL0     H45884   3.805   0.873   3.027 -0.2143  0.1708 -0.1862
  340MOL0     H45885   4.033   0.833   3.085 -0.3595  0.2748 -0.6227
  340MOL0     H45886   6.095   0.937   3.053  1.3550 -0.5694 -1.2054
  340MOL0     H45887   6.315   1.041   3.049  2.5331 -0.3076  2.3223
  340MOL0     H45888   6.525   1.381   3.194  0.3152 -3.3193  0.0512
  340MOL0     H45889   6.711   1.529   3.139 -1.8867 -0.9218 -1.4358
  340MOL0     H45890   7.124   1.622   3.246 -0.9629  0.4795  1.3364
  340MOL0     H45891   7.098   1.520   3.372 -1.4552  0.7293 -0.3730
  340MOL0     H45892   7.150   1.403   3.095  0.1065  1.5749  0.0363
  340MOL0     H45893   7.124   1.307   3.245  0.0008  0.9058  0.7332
  340MOL0     H45894   7.347   1.507   3.199  3.5188 -1.4401  0.6534
  340MOL0     H45895   7.368   1.337   3.166  1.6532  0.0549  1.7452
  340MOL0     H45896   7.286   1.298   3.414  0.8892 -0.9066 -1.4586
  340MOL0     H45897   7.319   1.468   3.440 -3.2904  1.1116 -2.5199
  340MOL0     H45898   7.705   1.283   3.410 -0.1636 -0.4456  1.2862
  340MOL0     H45899   6.964   1.290   3.402  0.4285  0.6800 -1.7324
  340MOL0     H45900   6.760   1.146   3.446 -0.7755  0.8319 -0.7949
  341MOL0     O45901   8.779   4.718   1.435  0.1230 -0.3781 -0.2622
  341MOL0     C45902   8.839   4.798   1.355  0.1772 -0.8399 -0.0812
  341MOL0     O45903   8.781   4.863   1.252 -0.1839 -0.3646  0.0560
  341MOL0     C45904   8.643   4.851   1.245 -0.2790 -0.3599 -0.4165
  341MOL0     C45905   8.553   4.875   1.354  0.3117  0.0178  0.2784
  341MOL0     C45906   8.413   4.869   1.335  0.2115  0.2782  0.5083
  341MOL0     C45907   8.370   4.843   1.205  0.7306 -0.1902 -0.1802
  341MOL0     O45908   8.230   4.825   1.190  0.4404  1.0964 -0.5796
  341MOL0     C45909   8.164   4.822   1.060 -0.3535  0.7668  0.5381
  341MOL0     C45910   8.012   4.830   1.081  0.3346 -0.0590  0.3588
  341MOL0     C45911   7.936   4.882   0.962  0.9003  0.3802 -0.5471
  341MOL0     C45912   7.805   4.950   1.017 -0.1007 -0.2527  0.2163
  341MOL0     C45913   7.700   4.950   0.913 -0.2215 -0.0627 -0.0818
  341MOL0     C45914   7.565   4.997   0.971  0.3857 -0.0385 -0.1819
  341MOL0     C45915   7.562   5.153   0.981  0.4361 -0.0003  0.2302
  341MOL0     C45916   7.530   5.222   0.847 -0.1124 -0.3700 -0.0594
  341MOL0     N45917   7.401   5.296   0.841 -0.0372  0.3007 -0.2707
  341MOL0     C45918   7.282   5.238   0.796 -0.1561  0.1424 -0.3608
  341MOL0     C45919   7.199   5.334   0.784  0.1877 -0.3477  0.0788
  341MOL0     C45920   7.059   5.326   0.727 -0.5573  0.4251 -1.3216
  341MOL0     C45921   6.951   5.413   0.806  0.2405  0.1203  0.7890
  341MOL0     C45922   6.841   5.472   0.721 -0.0369  0.3380 -0.0706
  341MOL0     C45923   6.726   5.537   0.801  0.3191  0.1994 -0.3975
  341MOL0     O45924   6.684   5.444   0.903 -0.2513 -0.2130 -0.5089
  341MOL0     C45925   6.564   5.476   0.975  0.1781 -0.0396  1.3139
  341MOL0     C45926   6.513   5.611   0.987  0.6713 -0.4075  0.2449
  341MOL0     C45927   6.391   5.632   1.050 -0.0042 -0.1141  0.0174
  341MOL0     C45928   6.352   5.770   1.079 -0.0728 -0.3627 -0.1132
  341MOL0     C45929   6.312   5.523   1.101 -0.7565  0.3271  0.2853
  341MOL0     C45930   6.186   5.540   1.172 -0.1514  0.3404 -0.1350
  341MOL0     O45931   6.104   5.640   1.146 -0.0280  0.0640  0.0249
  341MOL0     C45932   6.004   5.668   1.236  0.2054 -0.1847 -0.0118
  341MOL0     C45933   6.020   5.709   1.372 -0.4336  0.3090  0.4052
  341MOL0     C45934   5.909   5.752   1.442 -0.1064 -0.2407  0.5206
  341MOL0     C45935   5.776   5.739   1.392 -0.1612 -0.7885 -1.3023
  341MOL0     O45936   5.660   5.785   1.457 -0.8554 -0.1579 -0.0629
  341MOL0     C45937   5.678   5.858   1.581 -0.7807 -0.1215 -0.2968
  341MOL0     C45938   5.550   5.856   1.652  0.6945  0.4497  0.5181
  341MOL0     C45939   5.552   5.902   1.793  0.4518  0.0709 -0.3993
  341MOL0     C45940   5.424   5.870   1.874  0.2598  0.1422  1.1212
  341MOL0     C45941   5.415   5.939   2.010 -0.0912  0.4819 -0.0204
  341MOL0     C45942   5.339   5.854   2.106 -0.5652 -1.0860  0.4024
  341MOL0     C45943   5.184   5.873   2.084  0.0735  0.5514  0.9124
  341MOL0     C45944   5.111   5.775   2.176 -0.5297 -0.1277  0.8609
  341MOL0    Cl45945   4.937   5.829   2.171 -0.1828  0.2666 -0.0868
  341MOL0     C45946   5.757   5.702   1.260 -0.7674 -0.3372 -0.1510
  341MOL0     C45947   5.872   5.676   1.179 -0.1961  0.2388 -0.3284
  341MOL0     O45948   6.159   5.445   1.244 -0.5067  0.9676 -0.0428
  341MOL0     C45949   6.368   5.388   1.086 -0.8511  0.1645 -0.1380
  341MOL0     C45950   6.493   5.369   1.028 -0.0973  0.8905  0.4413
  341MOL0     N45951   7.267   5.448   0.816  0.1988 -0.4645  0.5753
  341MOL0     N45952   7.383   5.427   0.867  0.5438  0.2205 -0.1617
  341MOL0     C45953   8.453   4.820   1.098  0.1309 -0.1240 -0.4498
  341MOL0     C45954   8.586   4.822   1.124 -0.1255  0.1049  0.1953
  341MOL0     C45955   8.986   4.812   1.364 -1.2944 -1.0855 -0.5785
  341MOL0     C45956   9.056   4.910   1.285  0.0415 -0.3442  0.0945
  341MOL0     C45957   9.196   4.914   1.293 -0.2706 -0.3932  0.5244
  341MOL0     C45958   9.272   4.828   1.373  0.3358 -0.4568  1.0621
  341MOL0     O45959   9.406   4.850   1.369 -0.2847  0.2764 -0.6735
  341MOL0     C45960   9.476   4.805   1.486 -0.1397 -0.7725 -0.0985
  341MOL0     C45961   9.619   4.832   1.452 -0.6502  0.2462  0.5568
  341MOL0     C45962   9.710   4.776   1.561 -0.4695  0.3296  0.6720
  341MOL0     C45963   9.851   4.838   1.569 -0.3300  0.1451  0.0174
  341MOL0     C45964   9.925   4.827   1.441  1.0028 -0.1593  0.4576
  341MOL0     C45965   9.982   4.808   1.340 -0.2950  0.7897  0.4864
  341MOL0     C45966   9.202   4.732   1.445  0.3368 -0.7891  0.8346
  341MOL0     C45967   9.066   4.720   1.438 -0.1084 -0.1551 -0.3301
  341MOL0     H45968   8.590   4.916   1.447  0.7703  2.9685 -1.0786
  341MOL0     H45969   8.344   4.882   1.418 -1.1814 -1.6592 -0.2648
  341MOL0     H45970   8.208   4.897   0.994 -2.5808  1.3171 -0.4123
  341MOL0     H45971   8.184   4.727   1.011  1.1518  1.2049  0.2472
  341MOL0     H45972   7.976   4.727   1.088  1.4833 -0.4811  0.2487
  341MOL0     H45973   7.993   4.893   1.168 -0.5501  1.5590 -0.9595
  341MOL0     H45974   7.988   4.965   0.913  0.8769  1.3530  1.0211
  341MOL0     H45975   7.909   4.796   0.900 -0.2653 -0.9409  1.6670
  341MOL0     H45976   7.784   4.880   1.099  1.5106 -0.9756  0.0552
  341MOL0     H45977   7.825   5.048   1.060  2.0079 -1.5867  2.5868
  341MOL0     H45978   7.719   5.018   0.830 -1.0887 -1.5078 -1.5070
  341MOL0     H45979   7.677   4.850   0.875 -5.3958  0.8982 -0.1806
  341MOL0     H45980   7.481   4.964   0.910  0.5653 -2.3235  0.7087
  341MOL0     H45981   7.550   4.958   1.072 -0.5126 -0.2808 -0.4049
  341MOL0     H45982   7.485   5.186   1.052 -0.1850  1.3835 -1.0241
  341MOL0     H45983   7.655   5.194   1.021  0.1609  1.1913 -0.3028
  341MOL0     H45984   7.534   5.155   0.761 -2.5665  1.4308 -1.7440
  341MOL0     H45985   7.606   5.299   0.827  0.2247 -0.5401  0.5563
  341MOL0     H45986   7.254   5.134   0.784 -0.0520  0.2881 -2.3197
  341MOL0     H45987   7.055   5.361   0.623 -1.2230 -1.2147 -1.8776
  341MOL0     H45988   7.030   5.221   0.728  0.3715  0.1543 -0.1035
  341MOL0     H45989   7.004   5.501   0.843 -0.0921  1.4471 -1.6422
  341MOL0     H45990   6.907   5.358   0.889 -0.4534  1.6831  1.4981
  341MOL0     H45991   6.795   5.384   0.674  0.5486 -0.9554  1.6377
  341MOL0     H45992   6.879   5.541   0.646  0.2180  0.1222 -0.1421
  341MOL0     H45993   6.647   5.555   0.728 -0.7955 -3.3148 -0.2450
  341MOL0     H45994   6.762   5.628   0.849  4.5133 -1.4568  0.0374
  341MOL0     H45995   6.570   5.696   0.952 -0.6864  0.3197 -0.2826
  341MOL0     H45996   6.301   5.813   0.991  1.5097 -1.3684 -1.5727
  341MOL0     H45997   6.296   5.788   1.171  1.8392  1.1162  0.8372
  341MOL0     H45998   6.442   5.831   1.090 -0.6030  0.3160  0.6700
  341MOL0     H45999   6.120   5.708   1.415  1.8999  0.4492 -4.3808
  341MOL0     H46000   5.942   5.787   1.539  2.3222 -0.8931 -0.0105
  341MOL0     H46001   5.750   5.810   1.647 -0.7164  0.5521  0.1298
  341MOL0     H46002   5.720   5.956   1.557  0.8570 -1.2933 -2.7646
  341MOL0     H46003   5.477   5.917   1.599  0.1041 -1.5358 -1.0894
  341MOL0     H46004   5.513   5.753   1.648  0.9727  0.2935 -4.4196
  341MOL0     H46005   5.558   6.008   1.768  1.3905 -0.3467 -2.0721
  341MOL0     H46006   5.643   5.865   1.841 -1.0056  0.2276  2.7149
  341MOL0     H46007   5.337   5.907   1.820  1.2371  1.5260  0.4283
  341MOL0     H46008   5.417   5.761   1.876 -0.9600  0.1074 -1.4546
  341MOL0     H46009   5.375   6.041   2.008  0.6977  1.1531  5.3872
  341MOL0     H46010   5.517   5.950   2.047 -0.3119  0.7070  0.5290
  341MOL0     H46011   5.362   5.749   2.084  1.6043 -0.3876 -0.9312
  341MOL0     H46012   5.362   5.867   2.212  2.5526 -1.7833 -0.0945
  341MOL0     H46013   5.152   5.849   1.982 -0.1089 -0.1033  1.1135
  341MOL0     H46014   5.149   5.974   2.108  0.9206  0.7341  1.3905
  341MOL0     H46015   5.144   5.784   2.280  0.5280 -0.6030  0.5685
  341MOL0     H46016   5.134   5.674   2.143  0.9761  0.4063  0.1875
  341MOL0     H46017   5.657   5.709   1.219 -0.5896  1.2019 -0.3598
  341MOL0     H46018   5.863   5.655   1.073  0.9649 -0.1315 -0.3778
  341MOL0     H46019   6.296   5.314   1.118 -2.5568  1.9208  0.2510
  341MOL0     H46020   6.536   5.270   1.041  2.0796  1.9119  1.3880
  341MOL0     H46021   8.401   4.805   1.004 -1.1061  3.6779 -0.5695
  341MOL0     H46022   8.663   4.820   1.047 -0.6963  1.9877 -0.4866
  341MOL0     H46023   9.008   4.982   1.220  2.7282  2.3821  0.8728
  341MOL0     H46024   9.250   4.994   1.244 -0.3192  2.0319  4.0278
  341MOL0     H46025   9.454   4.864   1.575 -0.2139 -1.1437  0.1283
  341MOL0     H46026   9.461   4.698   1.504 -1.1643 -0.7462 -0.6846
  341MOL0     H46027   9.652   4.937   1.447 -1.4071  0.4461 -2.2198
  341MOL0     H46028   9.644   4.789   1.354 -0.7089  0.0586  0.6246
  341MOL0     H46029   9.724   4.669   1.544 -0.7832  0.3614  0.1766
  341MOL0     H46030   9.673   4.798   1.661  1.8280  0.7929  1.4759
  341MOL0     H46031   9.909   4.805   1.655 -2.0926  2.5861  2.3323
  341MOL0     H46032   9.833   4.943   1.596  1.0624 -0.6209  4.8630
  341MOL0     H46033  10.045   4.803   1.253  0.4592 -2.2407  1.1092
  341MOL0     H46034   9.252   4.652   1.500  0.5869 -0.0900  1.6554
  341MOL0     H46035   9.027   4.639   1.500  2.4632 -0.4998  0.9768
  342MOL0     O46036   7.809   6.471   1.170 -0.3494 -0.4190  0.3198
  342MOL0     C46037   7.897   6.556   1.185 -0.2206  0.6081  0.5699
  342MOL0     O46038   7.880   6.682   1.235 -0.7660 -0.7331 -0.5190
  342MOL0     C46039   7.758   6.744   1.249  0.6759  0.8797  0.2911
  342MOL0     C46040   7.734   6.876   1.196  0.7259  0.0498  0.2276
  342MOL0     C46041   7.612   6.940   1.209 -0.4893 -0.2911 -0.7090
  342MOL0     C46042   7.499   6.863   1.267 -0.0362  0.9707  0.4216
  342MOL0     O46043   7.366   6.900   1.264  0.0485  0.0639  0.2538
  342MOL0     C46044   7.329   7.016   1.187  1.2122  0.1883  0.7843
  342MOL0     C46045   7.353   7.140   1.281 -0.0522  0.4021  1.1925
  342MOL0     C46046   7.270   7.255   1.213 -0.2430  0.4179 -0.5727
  342MOL0     C46047   7.119   7.238   1.220  0.4952  0.1547  0.3607
  342MOL0     C46048   7.036   7.360   1.166  0.1480 -0.7072 -0.1565
  342MOL0     C46049   6.888   7.314   1.154  0.4105  0.2054  0.1396
  342MOL0     C46050   6.797   7.434   1.112  0.1503  0.2900  0.0728
  342MOL0     C46051   6.862   7.522   1.004 -0.1087  0.5565 -0.5040
  342MOL0     N46052   6.760   7.611   0.947 -0.6501  0.1504  0.2886
  342MOL0     C46053   6.672   7.575   0.846  0.2326  0.1872 -0.0256
  342MOL0     C46054   6.585   7.681   0.833  1.2591 -1.0413  0.4386
  342MOL0     C46055   6.467   7.700   0.739  0.1256 -0.1479 -0.0191
  342MOL0     C46056   6.339   7.771   0.804  0.3399  0.4849 -0.1803
  342MOL0     C46057   6.228   7.764   0.704 -0.0807  0.1327 -0.2146
  342MOL0     C46058   6.137   7.884   0.697 -0.1746 -0.0123  0.0134
  342MOL0     O46059   6.034   7.866   0.593 -0.3769  0.1818  0.7125
  342MOL0     C46060   5.908   7.920   0.600 -0.2953 -0.5724 -0.3479
  342MOL0     C46061   5.810   7.880   0.512  0.5916  0.1992  0.6381
  342MOL0     C46062   5.668   7.902   0.547 -0.2317 -0.3391 -0.1678
  342MOL0     C46063   5.564   7.856   0.445  0.4897  0.0922  1.1814
  342MOL0     C46064   5.634   7.982   0.659  0.2780  0.2951  0.8477
  342MOL0     C46065   5.490   8.016   0.717  0.3811 -0.0720 -0.6419
  342MOL0     O46066   5.486   8.063   0.851  0.1706  0.1278  0.0691
  342MOL0     C46067   5.367   8.052   0.910 -0.7641 -0.7378  0.3141
  342MOL0     C46068   5.309   8.169   0.953  0.0891 -0.1873 -0.0419
  342MOL0     C46069   5.188   8.164   1.030 -0.5399  0.2129 -0.1138
  342MOL0     C46070   5.134   8.043   1.069  0.9499 -0.4530  1.0467
  342MOL0     O46071   5.016   8.036   1.138 -0.3339  0.2644 -0.1680
  342MOL0     C46072   5.017   7.968   1.266 -0.6285  0.3252  0.6952
  342MOL0     C46073   4.918   8.029   1.371  0.4431  0.2304 -0.3499
  342MOL0     C46074   4.920   7.985   1.517 -0.6137  0.3967 -0.1469
  342MOL0     C46075   4.819   8.067   1.604 -0.7471  0.4966 -0.0754
  342MOL0     C46076   4.790   8.016   1.755 -0.5676 -0.5805 -0.5632
  342MOL0     C46077   4.921   8.002   1.838  0.4967  0.9964  1.1762
  342MOL0     C46078   4.962   8.148   1.859 -0.1307  0.6070  1.1573
  342MOL0     C46079   5.103   8.152   1.920  1.5556 -0.4667 -0.2862
  342MOL0    Cl46080   5.141   8.327   1.964  0.0291  0.0793 -0.1198
  342MOL0     C46081   5.192   7.931   1.028 -0.2143  0.1996  0.5667
  342MOL0     C46082   5.305   7.926   0.939  0.0196  0.3134 -0.3996
  342MOL0     O46083   5.391   8.005   0.642 -0.1351  0.2195 -0.2045
  342MOL0     C46084   5.735   8.033   0.729 -0.2677  0.0407  0.1363
  342MOL0     C46085   5.875   8.013   0.696  0.1968  0.0263  0.1445
  342MOL0     N46086   6.645   7.779   0.907  0.8574  0.4255 -0.2406
  342MOL0     N46087   6.743   7.742   0.972  0.3468  0.1441 -0.0456
  342MOL0     C46088   7.519   6.737   1.329 -0.2965  0.3026  0.1824
  342MOL0     C46089   7.648   6.690   1.320 -0.4577  0.3109 -0.6197
  342MOL0     C46090   8.037   6.507   1.182  0.5277  0.5768 -0.6937
  342MOL0     C46091   8.059   6.383   1.120 -0.0718 -0.0009  0.6985
  342MOL0     C46092   8.188   6.333   1.120 -0.8117 -0.1250  0.2383
  342MOL0     C46093   8.295   6.396   1.183 -0.2534 -0.4533  0.0628
  342MOL0     O46094   8.432   6.363   1.182  0.0556 -1.0480 -0.1214
  342MOL0     C46095   8.470   6.263   1.094 -0.1678  0.3489 -0.2187
  342MOL0     C46096   8.625   6.250   1.091 -0.2158 -0.0752  0.3570
  342MOL0     C46097   8.676   6.127   1.025  0.3586 -0.3754  0.0142
  342MOL0     C46098   8.827   6.127   1.020  1.0393  0.0056 -0.1144
  342MOL0     C46099   8.881   6.246   0.942 -0.8813  0.1778 -0.1598
  342MOL0     C46100   8.938   6.346   0.890 -0.7641  0.6907  0.0613
  342MOL0     C46101   8.260   6.513   1.252  0.0026 -0.4809 -0.1692
  342MOL0     C46102   8.138   6.581   1.253 -0.1098  0.2068  0.6997
  342MOL0     H46103   7.813   6.929   1.144  1.2687  0.8192  1.7635
  342MOL0     H46104   7.587   7.037   1.168  0.9185  0.9021  1.1024
  342MOL0     H46105   7.380   7.019   1.091  0.9430  0.4108  0.6461
  342MOL0     H46106   7.224   6.998   1.164  1.2244  1.3308 -0.2360
  342MOL0     H46107   7.321   7.105   1.380  1.9438  1.1535  2.1494
  342MOL0     H46108   7.459   7.162   1.274  0.1539 -1.0166 -1.4410
  342MOL0     H46109   7.302   7.348   1.261  0.4298  0.7719 -1.6686
  342MOL0     H46110   7.299   7.263   1.108  0.9593  2.0072 -0.1635
  342MOL0     H46111   7.095   7.148   1.163  1.8207 -1.5527  2.3740
  342MOL0     H46112   7.091   7.219   1.324  0.1951 -0.1450  0.2287
  342MOL0     H46113   7.039   7.446   1.233 -1.5108 -0.2478 -0.6171
  342MOL0     H46114   7.076   7.396   1.070  1.7580  1.8229  1.3594
  342MOL0     H46115   6.889   7.234   1.079  0.7668  0.6780 -0.3645
  342MOL0     H46116   6.858   7.272   1.250  0.5673  1.1930  0.6313
  342MOL0     H46117   6.695   7.398   1.096  0.6460 -0.5378 -1.4180
  342MOL0     H46118   6.782   7.488   1.206 -1.8312 -1.5096  0.8936
  342MOL0     H46119   6.898   7.459   0.922  1.9755  1.8591 -0.6717
  342MOL0     H46120   6.941   7.591   1.034 -1.0990  1.7818 -0.6325
  342MOL0     H46121   6.661   7.475   0.805  0.2202 -0.5679  1.7324
  342MOL0     H46122   6.502   7.769   0.661  3.3614  1.5292  2.6786
  342MOL0     H46123   6.450   7.604   0.690  1.7069 -0.5425  0.1710
  342MOL0     H46124   6.360   7.877   0.818  0.7741  0.3326  0.3515
  342MOL0     H46125   6.313   7.723   0.899  0.4926 -0.3959 -0.5770
  342MOL0     H46126   6.170   7.674   0.726  3.0490 -2.3291 -1.3622
  342MOL0     H46127   6.275   7.739   0.608  1.9147  0.0499  0.7339
  342MOL0     H46128   6.205   7.963   0.665  2.3446 -2.2817 -0.5713
  342MOL0     H46129   6.097   7.906   0.797  1.3004  0.5137  0.5199
  342MOL0     H46130   5.824   7.819   0.423  4.1752  0.6641  0.7431
  342MOL0     H46131   5.460   7.846   0.478  0.8871 -3.9588  1.7399
  342MOL0     H46132   5.550   7.930   0.367 -1.7149 -1.3317  0.1209
  342MOL0     H46133   5.596   7.762   0.399 -1.2593  1.6023 -3.7587
  342MOL0     H46134   5.360   8.265   0.940 -0.6995  0.2987  0.3785
  342MOL0     H46135   5.133   8.247   1.073  0.0657  0.8828 -0.5979
  342MOL0     H46136   4.988   7.865   1.243  1.9484 -1.3620  4.1416
  342MOL0     H46137   5.121   7.979   1.299 -0.8316  1.3877  1.0168
  342MOL0     H46138   4.947   8.135   1.367 -1.3651  0.7433 -1.4109
  342MOL0     H46139   4.814   8.028   1.336  1.4161 -1.3052 -3.5587
  342MOL0     H46140   5.019   7.994   1.562 -0.8876  1.5240  0.2516
  342MOL0     H46141   4.891   7.880   1.528 -1.1676  0.2315 -2.4746
  342MOL0     H46142   4.843   8.174   1.603  1.9980 -0.0343 -0.4886
  342MOL0     H46143   4.722   8.059   1.554 -1.9623 -1.1879  2.3517
  342MOL0     H46144   4.739   7.919   1.761  0.2324 -0.9147  2.8173
  342MOL0     H46145   4.725   8.090   1.801 -1.6549 -1.7680 -0.1125
  342MOL0     H46146   4.909   7.941   1.928  1.1780  0.1455  0.7032
  342MOL0     H46147   5.000   7.957   1.778  0.0311 -0.9774  1.9845
  342MOL0     H46148   4.889   8.198   1.923 -0.9859 -0.6646  1.1914
  342MOL0     H46149   4.966   8.204   1.764 -0.7479  0.0020  0.7715
  342MOL0     H46150   5.178   8.102   1.858  0.6863  1.3134 -2.9275
  342MOL0     H46151   5.087   8.089   2.008  0.9511 -1.4676 -1.0890
  342MOL0     H46152   5.143   7.837   1.049 -1.8083  0.4712 -1.5643
  342MOL0     H46153   5.351   7.831   0.915  0.7475  0.4590  0.3691
  342MOL0     H46154   5.720   8.098   0.815  1.7667  0.7102  0.0337
  342MOL0     H46155   5.939   8.075   0.758 -0.8489  0.9970  0.3003
  342MOL0     H46156   7.443   6.671   1.369 -0.6149 -0.5227 -1.6828
  342MOL0     H46157   7.658   6.590   1.361 -2.5755  0.5864  0.7130
  342MOL0     H46158   7.988   6.315   1.074  1.1223 -1.5381  1.0504
  342MOL0     H46159   8.208   6.242   1.065  0.8768  0.2921  0.0955
  342MOL0     H46160   8.433   6.162   1.112  3.1452 -1.4421 -2.3615
  342MOL0     H46161   8.439   6.277   0.990 -0.7758 -1.5935 -0.3443
  342MOL0     H46162   8.647   6.252   1.198 -1.3225  2.0544  0.5925
  342MOL0     H46163   8.663   6.342   1.047 -1.6997  1.1662  1.5864
  342MOL0     H46164   8.635   6.118   0.924 -2.3357  2.9995  0.6269
  342MOL0     H46165   8.634   6.047   1.087 -0.0813  0.4485  0.8115
  342MOL0     H46166   8.863   6.034   0.973  4.8527  0.9969  0.4905
  342MOL0     H46167   8.858   6.140   1.124  0.3575  2.3272 -0.1469
  342MOL0     H46168   8.982   6.421   0.827 -0.1570  0.2514 -0.0539
  342MOL0     H46169   8.337   6.567   1.307 -0.2134  2.8670 -2.8519
  342MOL0     H46170   8.115   6.677   1.298 -1.8588  0.7571 -1.2364
  343MOL0     O46171   7.282   1.943   0.004 -0.1161 -0.0448 -0.3765
  343MOL0     C46172   7.231   1.843  -0.041 -0.6058  0.2811  0.4934
  343MOL0     O46173   7.120   1.786   0.001  0.5924  0.2279  0.0607
  343MOL0     C46174   7.035   1.825   0.109 -0.4444  0.4210  0.1334
  343MOL0     C46175   7.075   1.918   0.207 -0.3715 -0.9856  0.7299
  343MOL0     C46176   6.983   1.947   0.309  0.0906 -0.0311 -0.8265
  343MOL0     C46177   6.857   1.905   0.319 -0.3518 -0.4942  0.5289
  343MOL0     O46178   6.781   1.954   0.422 -0.3859  0.1535  0.1341
  343MOL0     C46179   6.647   1.943   0.406 -0.5632  0.2773 -0.0098
  343MOL0     C46180   6.578   2.006   0.521  0.8565  0.0620  0.1808
  343MOL0     C46181   6.614   1.941   0.654  0.5654 -1.0336 -1.0981
  343MOL0     C46182   6.556   2.018   0.770 -0.2379 -0.1501 -0.0273
  343MOL0     C46183   6.595   1.961   0.907  0.0072 -0.2484 -0.1285
  343MOL0     C46184   6.500   2.008   1.026 -0.4597 -0.8923 -0.1377
  343MOL0     C46185   6.548   1.949   1.155  0.1204 -0.2147 -0.4449
  343MOL0     C46186   6.488   2.022   1.281  0.5150  0.7475  0.4758
  343MOL0     N46187   6.349   2.000   1.305  0.0357 -0.7441 -0.3742
  343MOL0     C46188   6.267   1.896   1.336  0.5223  0.1646  0.0841
  343MOL0     C46189   6.143   1.943   1.314  0.0771 -0.8109 -0.4993
  343MOL0     C46190   6.016   1.868   1.321 -0.6384  0.2602  0.8438
  343MOL0     C46191   6.025   1.729   1.254 -0.3423 -1.8009 -0.4371
  343MOL0     C46192   5.895   1.641   1.272 -0.1327 -0.2074  0.0721
  343MOL0     C46193   5.765   1.713   1.249 -0.0229 -0.6795  0.0203
  343MOL0     O46194   5.652   1.617   1.246 -0.0926  0.2473 -0.0476
  343MOL0     C46195   5.523   1.671   1.230 -0.6179 -0.5552 -0.5808
  343MOL0     C46196   5.411   1.584   1.229  0.7538  0.1449  0.1538
  343MOL0     C46197   5.283   1.630   1.202 -1.0484 -0.5703 -0.5256
  343MOL0     C46198   5.168   1.537   1.208  0.1200  0.5934 -0.4923
  343MOL0     C46199   5.255   1.769   1.187 -0.0052 -0.3225 -0.1974
  343MOL0     C46200   5.120   1.820   1.168  0.0935 -0.0304  0.9579
  343MOL0     O46201   5.043   1.757   1.079  0.3743 -0.0639 -0.1444
  343MOL0     C46202   4.916   1.805   1.059 -0.2457 -0.1545 -0.4850
  343MOL0     C46203   4.900   1.900   0.958 -0.4603  0.3800  0.0501
  343MOL0     C46204   4.779   1.964   0.943  0.4836 -0.4721  0.2939
  343MOL0     C46205   4.668   1.940   1.026 -1.1111 -0.0037  0.9508
  343MOL0     O46206   4.546   2.003   1.015 -0.2546 -0.0381 -0.0832
  343MOL0     C46207   4.436   1.967   1.105  0.4098 -0.6080  0.1807
  343MOL0     C46208   4.303   2.024   1.063  0.2568 -0.0389  0.5136
  343MOL0     C46209   4.282   1.986   0.910 -0.0066  0.2137  1.0163
  343MOL0     C46210   4.143   2.029   0.839  0.1554  0.6689 -0.0765
  343MOL0     C46211   4.138   2.180   0.843  0.2939 -0.0261  0.5672
  343MOL0     C46212   3.995   2.232   0.826 -0.1200 -0.5600 -0.6962
  343MOL0     C46213   3.943   2.192   0.686 -0.7618  0.1851  0.0497
  343MOL0     C46214   3.811   2.272   0.658 -0.5068  0.0665 -0.0571
  343MOL0    Cl46215   3.726   2.227   0.516  0.1588 -0.1989 -0.1833
  343MOL0     C46216   4.680   1.838   1.123  0.2589  0.2126 -0.7747
  343MOL0     C46217   4.805   1.773   1.137  0.0238 -0.8555  0.0220
  343MOL0     O46218   5.097   1.915   1.241  0.5338  0.2997 -0.6596
  343MOL0     C46219   5.363   1.863   1.198  0.5924 -0.0701  0.6857
  343MOL0     C46220   5.487   1.812   1.214 -0.0735  0.2468 -0.7180
  343MOL0     N46221   6.144   2.076   1.280 -0.9705  0.3143  0.1034
  343MOL0     N46222   6.265   2.107   1.266 -0.7213  0.5844  0.4436
  343MOL0     C46223   6.808   1.807   0.225 -0.1683  0.4496  0.1784
  343MOL0     C46224   6.902   1.768   0.123 -0.0700 -0.4284  0.0491
  343MOL0     C46225   7.312   1.775  -0.145  0.1271 -0.2330 -0.8018
  343MOL0     C46226   7.250   1.681  -0.232 -0.1882 -0.2062  0.8625
  343MOL0     C46227   7.329   1.598  -0.311  0.2084  0.4717  0.5875
  343MOL0     C46228   7.469   1.613  -0.318  0.5402  0.7366  0.1083
  343MOL0     O46229   7.538   1.540  -0.413  0.3539 -0.1529 -0.0061
  343MOL0     C46230   7.677   1.536  -0.417 -0.0215 -0.7477 -0.9449
  343MOL0     C46231   7.735   1.446  -0.524 -0.6860  0.4478 -0.6388
  343MOL0     C46232   7.736   1.301  -0.479 -0.1129 -0.3843 -0.6775
  343MOL0     C46233   7.592   1.239  -0.472 -0.1042 -0.1148 -0.6240
  343MOL0     C46234   7.532   1.234  -0.607 -0.1358  0.3252  0.2814
  343MOL0     C46235   7.483   1.218  -0.716  0.7582 -0.0457  0.2536
  343MOL0     C46236   7.524   1.707  -0.233 -0.5042 -0.9896  0.2716
  343MOL0     C46237   7.451   1.785  -0.140 -1.2748  0.8683  0.9514
  343MOL0     H46238   7.172   1.964   0.221 -0.8371 -0.1605  1.2873
  343MOL0     H46239   7.026   2.027   0.369 -1.4007 -0.5853  1.0996
  343MOL0     H46240   6.617   1.972   0.304 -0.6638 -0.6363 -0.2446
  343MOL0     H46241   6.621   1.837   0.417  2.0659 -0.4030  0.1141
  343MOL0     H46242   6.617   2.108   0.522 -0.0118  0.3957  0.6671
  343MOL0     H46243   6.470   2.023   0.520  0.5819 -1.3549  1.7174
  343MOL0     H46244   6.583   1.836   0.661  3.0218 -1.7466  0.5120
  343MOL0     H46245   6.722   1.951   0.662  0.6861 -1.5362 -2.0322
  343MOL0     H46246   6.599   2.119   0.772 -1.3661  0.3309  0.7647
  343MOL0     H46247   6.448   2.036   0.762 -0.0089  2.4026  1.5355
  343MOL0     H46248   6.593   1.852   0.918 -0.8137 -0.1126  1.2502
  343MOL0     H46249   6.696   1.999   0.926  0.1115 -0.2458 -0.6709
  343MOL0     H46250   6.498   2.117   1.023  0.2175 -0.8850 -2.4666
  343MOL0     H46251   6.400   1.971   1.000  0.0071 -2.4055  0.1189
  343MOL0     H46252   6.533   1.841   1.161 -0.4714 -0.1868 -1.2087
  343MOL0     H46253   6.656   1.964   1.164  0.0570 -0.9850  2.3547
  343MOL0     H46254   6.518   2.127   1.280  1.2246  0.6059  2.5242
  343MOL0     H46255   6.532   1.969   1.366 -0.6299  1.0494  1.2649
  343MOL0     H46256   6.295   1.792   1.350  1.2706  0.4028  0.4209
  343MOL0     H46257   5.996   1.834   1.423 -0.8217  0.3386  0.8339
  343MOL0     H46258   5.932   1.926   1.283 -0.6830  0.4654  1.2506
  343MOL0     H46259   6.113   1.679   1.295  1.8258  1.7335 -0.3383
  343MOL0     H46260   6.046   1.743   1.148 -2.9437  0.9583 -0.7235
  343MOL0     H46261   5.875   1.609   1.374 -1.8210 -0.0035 -0.1607
  343MOL0     H46262   5.902   1.565   1.193  0.5067  1.4622 -1.5658
  343MOL0     H46263   5.775   1.784   1.166  2.2330  0.4006  1.1195
  343MOL0     H46264   5.753   1.774   1.340 -2.3518  3.4265 -2.6852
  343MOL0     H46265   5.433   1.478   1.235  1.3968  0.1979 -1.0515
  343MOL0     H46266   5.101   1.576   1.285 -0.2142  1.4241 -1.1878
  343MOL0     H46267   5.113   1.526   1.114 -0.2388  4.4017 -0.8794
  343MOL0     H46268   5.188   1.433   1.238 -1.5734  0.4727  0.3434
  343MOL0     H46269   4.975   1.940   0.891 -2.4997  0.3442 -2.4351
  343MOL0     H46270   4.765   2.037   0.863  0.2071  0.0792  0.8376
  343MOL0     H46271   4.432   1.858   1.109  2.5306 -0.6862  2.0404
  343MOL0     H46272   4.467   1.997   1.206  1.0283 -1.4465  0.2528
  343MOL0     H46273   4.215   1.984   1.115 -1.6429  0.1950 -2.3163
  343MOL0     H46274   4.310   2.132   1.075 -1.8077 -0.0100  1.9598
  343MOL0     H46275   4.303   1.880   0.888  2.1719  0.1206  3.0801
  343MOL0     H46276   4.368   2.029   0.858  0.6665 -1.9248  0.2142
  343MOL0     H46277   4.151   1.992   0.736 -0.1191 -0.7914  0.4062
  343MOL0     H46278   4.060   1.979   0.890  0.9212 -0.9895 -0.3788
  343MOL0     H46279   4.202   2.218   0.763  2.0777  0.0422  1.9458
  343MOL0     H46280   4.173   2.229   0.935 -0.0996 -0.2653  0.8477
  343MOL0     H46281   3.928   2.176   0.892 -0.3991 -1.8165 -1.9904
  343MOL0     H46282   3.999   2.341   0.837  0.5364 -0.7188  0.8891
  343MOL0     H46283   3.929   2.083   0.685 -1.3292  0.2522  0.0784
  343MOL0     H46284   4.019   2.220   0.612 -0.1122 -1.1392  0.1837
  343MOL0     H46285   3.838   2.377   0.647  2.3558 -0.5790  0.0090
  343MOL0     H46286   3.742   2.262   0.742 -2.4920  0.1443 -1.6243
  343MOL0     H46287   4.605   1.827   1.201 -0.8716  2.7485 -1.3735
  343MOL0     H46288   4.810   1.696   1.213 -3.6197 -0.7513  0.5269
  343MOL0     H46289   5.350   1.969   1.182 -0.2355 -0.4136 -1.1804
  343MOL0     H46290   5.550   1.901   1.207  0.3570 -0.1925 -3.9418
  343MOL0     H46291   6.708   1.772   0.247  0.7396 -1.2372  1.9314
  343MOL0     H46292   6.877   1.693   0.049  0.3773  1.1815 -1.8153
  343MOL0     H46293   7.143   1.668  -0.243 -0.2560  0.3772  0.7708
  343MOL0     H46294   7.282   1.530  -0.382  1.9410 -0.3054  0.1346
  343MOL0     H46295   7.723   1.633  -0.434  2.7358 -1.0325  3.2092
  343MOL0     H46296   7.715   1.511  -0.317  2.0095 -2.4952 -2.0652
  343MOL0     H46297   7.842   1.465  -0.536 -0.1592  0.0809  2.6252
  343MOL0     H46298   7.682   1.462  -0.618  0.7273  2.5219 -1.1625
  343MOL0     H46299   7.795   1.289  -0.387 -0.9768 -1.1021 -0.1990
  343MOL0     H46300   7.789   1.225  -0.537 -0.3382 -1.2638  0.2222
  343MOL0     H46301   7.524   1.298  -0.410  2.7244  0.9012  1.7375
  343MOL0     H46302   7.595   1.140  -0.427  3.4673 -0.1744 -0.7642
  343MOL0     H46303   7.424   1.200  -0.804  0.8668  0.6072  0.0390
  343MOL0     H46304   7.628   1.739  -0.236 -0.7032 -0.3003  0.5820
  343MOL0     H46305   7.503   1.861  -0.081  0.8685  1.6245 -1.7089
  344MOL0     O46306   4.541  11.075   8.519 -0.1400  0.4584 -0.7682
  344MOL0     C46307   4.545  11.184   8.473  0.2059 -0.0402 -0.8807
  344MOL0     O46308   4.450  11.249   8.415 -0.3913 -0.4063  0.0927
  344MOL0     C46309   4.353  11.178   8.349 -0.4856 -0.5217 -0.4432
  344MOL0     C46310   4.381  11.092   8.245  0.1934 -0.0262 -0.6617
  344MOL0     C46311   4.281  11.017   8.178 -0.1899 -0.1827 -0.1266
  344MOL0     C46312   4.148  11.056   8.175  0.7023  0.1699  0.0420
  344MOL0     O46313   4.045  10.988   8.108 -0.0517  0.8407  0.3295
  344MOL0     C46314   4.028  10.851   8.153 -0.0406 -0.5855  0.0466
  344MOL0     C46315   3.897  10.791   8.116 -0.0053 -0.2470 -0.9068
  344MOL0     C46316   3.900  10.641   8.152 -0.3381 -0.8223  0.4741
  344MOL0     C46317   3.819  10.569   8.041  0.1413  0.3486 -0.2053
  344MOL0     C46318   3.701  10.497   8.110  0.1961 -0.4540  0.4513
  344MOL0     C46319   3.573  10.578   8.120 -0.2456  0.1924  1.1202
  344MOL0     C46320   3.461  10.507   8.186 -0.3713 -1.2840 -0.8801
  344MOL0     C46321   3.353  10.613   8.210  0.5445 -0.1179 -0.1718
  344MOL0     N46322   3.250  10.554   8.309 -0.5400  0.4038 -0.4813
  344MOL0     C46323   3.151  10.465   8.282 -0.1980  0.4363  0.1739
  344MOL0     C46324   3.089  10.448   8.403 -0.4147  0.7401 -0.8170
  344MOL0     C46325   2.993  10.334   8.440  0.4872 -0.4848  0.3186
  344MOL0     C46326   2.890  10.383   8.546  0.0301  0.4429 -0.1430
  344MOL0     C46327   2.903  10.303   8.675 -0.1367  0.1391  0.3346
  344MOL0     C46328   2.801  10.344   8.783 -0.1208  0.3836 -0.4720
  344MOL0     O46329   2.818  10.485   8.812 -0.1742 -0.3855 -0.2018
  344MOL0     C46330   2.725  10.552   8.882 -0.0852 -0.5306 -0.5738
  344MOL0     C46331   2.755  10.680   8.922  1.1827 -0.3030  0.7386
  344MOL0     C46332   2.673  10.767   8.995  0.1216 -0.3405 -0.7617
  344MOL0     C46333   2.719  10.910   9.012  0.0826 -0.2870  1.2595
  344MOL0     C46334   2.548  10.714   9.045 -0.3123 -0.0292 -0.2415
  344MOL0     C46335   2.446  10.796   9.124 -0.7484 -0.7273 -0.1372
  344MOL0     O46336   2.328  10.734   9.137 -0.5112  0.6283 -0.3494
  344MOL0     C46337   2.215  10.786   9.194 -0.2897 -0.0223  0.7232
  344MOL0     C46338   2.188  10.920   9.227 -0.4895 -0.3063 -0.2784
  344MOL0     C46339   2.062  10.958   9.268  0.5218 -0.5284  0.7560
  344MOL0     C46340   1.964  10.857   9.287  0.5971  0.1955  0.8110
  344MOL0     O46341   1.847  10.885   9.349  0.7588 -0.4218 -0.2461
  344MOL0     C46342   1.759  10.968   9.272 -0.6094  0.0620  0.5699
  344MOL0     C46343   1.614  10.927   9.309  0.6819  0.1878 -0.7091
  344MOL0     C46344   1.571  10.796   9.239 -0.1338  0.8227  0.7034
  344MOL0     C46345   1.433  10.759   9.292  0.3210  0.0636 -0.6732
  344MOL0     C46346   1.385  10.627   9.241 -0.2935 -0.3144  0.6977
  344MOL0     C46347   1.242  10.597   9.289  0.1656 -0.8175 -0.2865
  344MOL0     C46348   1.173  10.481   9.220  0.3544  0.0719 -0.3497
  344MOL0     C46349   1.021  10.472   9.244 -1.1810 -0.4124  0.3257
  344MOL0    Cl46350   0.989  10.432   9.415 -0.5863 -0.3528 -0.1319
  344MOL0     C46351   1.988  10.725   9.251  0.4912 -1.0389  0.0885
  344MOL0     C46352   2.111  10.688   9.204 -0.4664 -0.6707  0.6984
  344MOL0     O46353   2.480  10.907   9.171 -1.0582 -0.2275  0.4111
  344MOL0     C46354   2.525  10.576   9.022 -0.4665  0.0723 -0.2621
  344MOL0     C46355   2.608  10.496   8.936  0.2408 -0.5372 -0.0378
  344MOL0     N46356   3.157  10.521   8.497 -0.0558 -0.6923 -0.8147
  344MOL0     N46357   3.254  10.580   8.443 -0.2619  1.1318 -0.3761
  344MOL0     C46358   4.119  11.157   8.274  0.7969  0.4571  0.6113
  344MOL0     C46359   4.218  11.214   8.358  0.4829  0.3876  0.6156
  344MOL0     C46360   4.671  11.265   8.484  0.7689  0.1648 -0.3586
  344MOL0     C46361   4.681  11.400   8.441  0.2046  0.1686  0.3656
  344MOL0     C46362   4.801  11.467   8.442 -0.4356  0.1403 -0.9447
  344MOL0     C46363   4.915  11.396   8.478 -0.4326  0.3966  0.1429
  344MOL0     O46364   5.034  11.466   8.471  0.1740  0.1069 -0.6799
  344MOL0     C46365   5.124  11.454   8.586  0.3615  0.0287  0.1534
  344MOL0     C46366   5.231  11.562   8.583 -0.2984 -0.2299 -0.8106
  344MOL0     C46367   5.174  11.697   8.601 -0.5864 -0.8330 -0.2749
  344MOL0     C46368   5.081  11.715   8.726  0.3195 -0.5340  0.5250
  344MOL0     C46369   5.140  11.699   8.857  0.8124 -0.3855  0.0659
  344MOL0     C46370   5.192  11.688   8.965 -0.5950 -0.0686 -1.0019
  344MOL0     C46371   4.905  11.265   8.532  1.1913 -0.7321  0.3555
  344MOL0     C46372   4.786  11.193   8.529 -0.5419 -0.7051  0.5268
  344MOL0     H46373   4.483  11.088   8.209  0.1694  0.9848 -0.8697
  344MOL0     H46374   4.316  10.943   8.106 -2.1485 -2.1449  0.8466
  344MOL0     H46375   4.113  10.800   8.108 -1.1590 -1.1516 -1.5243
  344MOL0     H46376   4.047  10.847   8.261  0.7679 -0.7367 -0.0952
  344MOL0     H46377   3.815  10.839   8.171  0.0974 -0.6727 -0.3732
  344MOL0     H46378   3.871  10.810   8.011 -2.6292 -0.5499 -0.3900
  344MOL0     H46379   4.003  10.605   8.154  0.0344  0.2467  1.3468
  344MOL0     H46380   3.863  10.618   8.252 -0.4225  0.4561  0.7474
  344MOL0     H46381   3.782  10.629   7.957 -2.5793 -3.6727 -2.1953
  344MOL0     H46382   3.882  10.491   7.996 -1.6686 -0.6343 -1.1229
  344MOL0     H46383   3.677  10.415   8.042 -1.8567  0.4406  0.0433
  344MOL0     H46384   3.731  10.448   8.204  3.3611 -3.7298 -1.9523
  344MOL0     H46385   3.600  10.664   8.182 -1.6738  1.1187  0.5035
  344MOL0     H46386   3.542  10.616   8.022  1.0701  0.7301  0.8952
  344MOL0     H46387   3.420  10.424   8.129 -2.3127 -2.3022  1.8050
  344MOL0     H46388   3.512  10.474   8.277  1.5009  1.3053 -0.8480
  344MOL0     H46389   3.297  10.628   8.117 -0.1495 -0.5700  0.1644
  344MOL0     H46390   3.388  10.710   8.247 -1.4194  1.5889 -2.4678
  344MOL0     H46391   3.132  10.410   8.190  1.7090 -0.6241  0.3684
  344MOL0     H46392   2.949  10.289   8.351  0.7060 -2.3486  1.1115
  344MOL0     H46393   3.051  10.248   8.476  0.3518 -0.9852 -0.6353
  344MOL0     H46394   2.794  10.351   8.503  1.0671  1.2333 -3.3461
  344MOL0     H46395   2.888  10.492   8.554  0.8179  0.5138 -0.7828
  344MOL0     H46396   3.007  10.298   8.709 -0.7316 -1.8475  2.1106
  344MOL0     H46397   2.883  10.200   8.645  1.7351  0.3868 -1.9850
  344MOL0     H46398   2.824  10.276   8.866  2.0040 -0.3782 -1.5982
  344MOL0     H46399   2.702  10.320   8.745 -0.1358  1.4255 -1.1333
  344MOL0     H46400   2.828  10.725   8.855 -1.2245  1.4297 -0.9104
  344MOL0     H46401   2.800  10.935   8.943 -0.3522 -2.7252 -0.2571
  344MOL0     H46402   2.627  10.960   8.981  1.5371  3.2040  2.1032
  344MOL0     H46403   2.721  10.944   9.116 -3.0797  3.2487  0.3687
  344MOL0     H46404   2.264  10.997   9.230  0.0223 -0.8303  1.2378
  344MOL0     H46405   2.043  11.061   9.297 -1.3021  0.8760 -4.2988
  344MOL0     H46406   1.763  11.074   9.299  1.7454  0.2025 -0.0861
  344MOL0     H46407   1.764  10.970   9.163  0.3492 -0.6429  0.5867
  344MOL0     H46408   1.618  10.911   9.417 -2.5192  1.0242 -0.3535
  344MOL0     H46409   1.535  11.002   9.294  3.5851  3.7896  0.2964
  344MOL0     H46410   1.642  10.725   9.281 -1.1607 -1.2486 -0.8575
  344MOL0     H46411   1.585  10.798   9.131 -0.8367  0.2958  0.5944
  344MOL0     H46412   1.432  10.771   9.401 -1.1278 -1.2407 -0.4947
  344MOL0     H46413   1.359  10.835   9.265 -2.2047 -0.7135  3.2783
  344MOL0     H46414   1.457  10.553   9.277  2.2856  2.6024  2.0876
  344MOL0     H46415   1.390  10.628   9.132  3.8255 -1.9418  0.6618
  344MOL0     H46416   1.254  10.573   9.395  2.0490 -0.0648 -0.3031
  344MOL0     H46417   1.172  10.681   9.277  1.0383  0.5671  3.1436
  344MOL0     H46418   1.214  10.385   9.253 -1.0741 -0.4129  0.0917
  344MOL0     H46419   1.196  10.490   9.114 -2.1495  1.4920 -0.8356
  344MOL0     H46420   0.968  10.398   9.182  0.0320  1.7177 -3.5396
  344MOL0     H46421   0.981  10.573   9.232  2.9176  1.7198  2.4862
  344MOL0     H46422   1.914  10.647   9.260 -1.6813  0.6573 -1.6215
  344MOL0     H46423   2.151  10.592   9.172  1.7760  0.8679 -1.5022
  344MOL0     H46424   2.444  10.528   9.077 -0.5658  2.2660  1.6555
  344MOL0     H46425   2.578  10.393   8.926 -0.6485 -0.2005 -1.0283
  344MOL0     H46426   4.019  11.199   8.283  1.2558  1.2993  2.0478
  344MOL0     H46427   4.194  11.292   8.429 -0.8692 -0.8385  1.5668
  344MOL0     H46428   4.593  11.460   8.419  2.0818  2.8908 -0.1940
  344MOL0     H46429   4.823  11.572   8.426  3.1849 -0.1492  1.1685
  344MOL0     H46430   5.060  11.463   8.674  0.0086 -1.2016  0.0416
  344MOL0     H46431   5.161  11.352   8.571  0.6522  0.4528 -2.6110
  344MOL0     H46432   5.279  11.554   8.485 -0.4888 -0.1096 -0.9141
  344MOL0     H46433   5.308  11.539   8.657 -1.4708 -1.7297  0.0091
  344MOL0     H46434   5.117  11.727   8.512  2.0932  2.5574 -1.0561
  344MOL0     H46435   5.250  11.773   8.623 -2.5363  0.9990  0.5127
  344MOL0     H46436   4.995  11.648   8.716  0.1354  0.0394 -3.3708
  344MOL0     H46437   5.046  11.819   8.724  1.9888  0.0608  0.3862
  344MOL0     H46438   5.245  11.700   9.057 -1.4394  0.2635 -0.5466
  344MOL0     H46439   4.990  11.229   8.588 -0.3015 -1.8950  1.9956
  344MOL0     H46440   4.797  11.091   8.563 -0.8492 -1.6003 -1.8646
  345MOL0     O46441   0.635   5.070  10.660 -0.3693  0.6926 -0.0283
  345MOL0     C46442   0.661   5.189  10.622 -0.1886  0.1867  0.7782
  345MOL0     O46443   0.579   5.290  10.590 -0.6664  0.1080  0.0434
  345MOL0     C46444   0.442   5.265  10.587 -0.4515  1.1997  0.5603
  345MOL0     C46445   0.369   5.231  10.707 -1.1276  0.4798  0.4351
  345MOL0     C46446   0.231   5.213  10.700  0.8638 -0.8137 -0.0554
  345MOL0     C46447   0.162   5.221  10.583  1.2028 -0.4297 -0.1640
  345MOL0     O46448   0.027   5.224  10.574  0.1949 -0.9503  0.9327
  345MOL0     C46449  -0.040   5.342  10.623 -0.5177  0.7554  0.2864
  345MOL0     C46450  -0.184   5.329  10.592  0.0662  0.2796  0.4337
  345MOL0     C46451  -0.242   5.472  10.595 -0.0367 -0.0609  0.1337
  345MOL0     C46452  -0.396   5.478  10.614 -0.0091  0.2795 -0.7665
  345MOL0     C46453  -0.453   5.615  10.567  0.3732 -0.8328  0.0159
  345MOL0     C46454  -0.592   5.642  10.632 -0.4184 -0.6655  0.0108
  345MOL0     C46455  -0.700   5.544  10.606 -0.0195  0.0683 -0.6910
  345MOL0     C46456  -0.835   5.593  10.673  0.3401  0.4574  0.3649
  345MOL0     N46457  -0.879   5.717  10.604 -0.1800 -0.4294  0.0014
  345MOL0     C46458  -0.904   5.748  10.472 -0.2749 -0.3768  0.0564
  345MOL0     C46459  -0.888   5.875  10.459  0.8341 -0.3589 -0.0068
  345MOL0     C46460  -0.903   5.949  10.329  0.1562  0.3007 -1.0010
  345MOL0     C46461  -1.035   6.010  10.309 -0.7782  0.8839  0.9028
  345MOL0     C46462  -1.148   5.920  10.338  0.9917  0.1553  0.7325
  345MOL0     C46463  -1.278   5.971  10.278  0.1088 -0.4868 -0.0654
  345MOL0     O46464  -1.380   5.889  10.324 -0.4900  0.5480  0.0768
  345MOL0     C46465  -1.514   5.920  10.316 -0.4933  0.7027  0.6015
  345MOL0     C46466  -1.567   6.036  10.257  1.0249  1.2898 -0.4016
  345MOL0     C46467  -1.706   6.061  10.259 -0.5070  0.3599 -0.5598
  345MOL0     C46468  -1.752   6.189  10.198  1.4821 -0.4895  0.5757
  345MOL0     C46469  -1.796   5.971  10.332  0.5774  0.3405 -0.0166
  345MOL0     C46470  -1.942   5.993  10.344  0.2818 -0.1996  0.3940
  345MOL0     O46471  -1.992   5.906  10.433  0.0340  0.2979  0.3738
  345MOL0     C46472  -2.130   5.889  10.459  0.0922  0.6846  0.0905
  345MOL0     C46473  -2.181   5.759  10.464 -0.1047 -0.5545  0.1657
  345MOL0     C46474  -2.315   5.740  10.491  0.3732 -0.1680  0.2661
  345MOL0     C46475  -2.403   5.846  10.516  0.4552 -1.1414  0.2907
  345MOL0     O46476  -2.541   5.823  10.534 -0.4798 -0.1504 -0.0729
  345MOL0     C46477  -2.640   5.930  10.539 -0.5575 -0.1990  0.3206
  345MOL0     C46478  -2.776   5.877  10.519  0.4905  0.6995  1.2455
  345MOL0     C46479  -2.894   5.978  10.538 -1.1770 -0.3352 -0.9078
  345MOL0     C46480  -3.019   5.929  10.469 -0.1815  1.2275 -0.6312
  345MOL0     C46481  -3.145   5.989  10.519 -0.6328  0.2403  0.5394
  345MOL0     C46482  -3.264   5.928  10.438 -0.0264 -0.2415 -0.0642
  345MOL0     C46483  -3.403   5.983  10.467  0.7655  0.2477 -0.3036
  345MOL0     C46484  -3.491   5.976  10.344  0.3800  0.0639 -0.9537
  345MOL0    Cl46485  -3.663   5.982  10.379  0.0109  0.1833  0.2649
  345MOL0     C46486  -2.349   5.976  10.522  0.2353  0.2582  0.0787
  345MOL0     C46487  -2.210   5.997  10.495  0.6132 -0.0339 -0.4692
  345MOL0     O46488  -2.002   6.095  10.305  0.1942  0.6100  0.5068
  345MOL0     C46489  -1.737   5.848  10.376 -0.8411  0.0929  0.1453
  345MOL0     C46490  -1.596   5.825  10.372 -0.3801 -1.5393 -0.0847
  345MOL0     N46491  -0.881   5.933  10.584  0.3616 -0.6338 -0.3547
  345MOL0     N46492  -0.864   5.842  10.667  0.5027  0.3050  0.1997
  345MOL0     C46493   0.225   5.251  10.468  0.4123  0.8864  0.0986
  345MOL0     C46494   0.361   5.261  10.469  0.1784 -0.0234  0.8883
  345MOL0     C46495   0.808   5.230  10.616  1.1717  0.3386 -0.3778
  345MOL0     C46496   0.845   5.341  10.545  0.0447 -0.1221 -0.0399
  345MOL0     C46497   0.975   5.385  10.567 -0.1328 -0.2506  0.5941
  345MOL0     C46498   1.068   5.317  10.636 -0.2916 -0.0516 -0.3196
  345MOL0     O46499   1.195   5.363  10.651  0.0317 -0.6474 -0.1510
  345MOL0     C46500   1.233   5.411  10.780 -0.0118 -0.0381  0.2886
  345MOL0     C46501   1.284   5.305  10.879 -0.1119 -0.3223 -0.3483
  345MOL0     C46502   1.386   5.214  10.811  0.0776 -0.4347 -0.0992
  345MOL0     C46503   1.479   5.134  10.896 -0.1189 -1.1883 -0.3853
  345MOL0     C46504   1.421   5.060  11.006 -0.9192  0.4848 -0.3001
  345MOL0     C46505   1.392   4.999  11.109 -0.5374  0.8240  0.0840
  345MOL0     C46506   1.035   5.193  10.697 -1.0278  0.5598  0.7832
  345MOL0     C46507   0.899   5.153  10.692  0.5880  0.1495 -0.0507
  345MOL0     H46508   0.424   5.239  10.800 -1.1061  0.5046  0.4207
  345MOL0     H46509   0.191   5.194  10.799  2.8422 -1.5981  0.6383
  345MOL0     H46510  -0.027   5.365  10.729  1.4070 -0.7460  0.4290
  345MOL0     H46511   0.005   5.424  10.566  0.8623 -1.9493 -2.8472
  345MOL0     H46512  -0.207   5.282  10.495  1.6734 -1.9660  1.0552
  345MOL0     H46513  -0.241   5.271  10.665  0.6222  0.2671  0.8637
  345MOL0     H46514  -0.195   5.532  10.674  2.4925  1.6819 -2.4869
  345MOL0     H46515  -0.218   5.520  10.500  2.3856  0.6061  1.0027
  345MOL0     H46516  -0.443   5.398  10.557 -0.3242  1.1389 -1.7488
  345MOL0     H46517  -0.421   5.459  10.719 -1.7150  1.4491 -0.9121
  345MOL0     H46518  -0.387   5.697  10.594  0.2888 -0.3380 -1.2346
  345MOL0     H46519  -0.460   5.613  10.458  1.3320 -1.1425 -0.0430
  345MOL0     H46520  -0.572   5.664  10.737  2.6810  3.0491 -1.1294
  345MOL0     H46521  -0.618   5.738  10.588  4.0001  0.3682 -0.8909
  345MOL0     H46522  -0.713   5.511  10.502  0.9762 -2.0381 -0.1891
  345MOL0     H46523  -0.686   5.453  10.664 -1.3715 -0.0781 -0.5575
  345MOL0     H46524  -0.825   5.603  10.781 -3.1190 -0.8228  0.9455
  345MOL0     H46525  -0.912   5.516  10.663 -0.4525  0.8732  2.7025
  345MOL0     H46526  -0.927   5.684  10.387  0.7370 -0.3584 -0.2491
  345MOL0     H46527  -0.821   6.021  10.321  0.6469  0.0674  1.3120
  345MOL0     H46528  -0.894   5.886  10.240 -0.5448 -2.0874  0.5294
  345MOL0     H46529  -1.041   6.039  10.204 -0.5123  0.4718  0.7687
  345MOL0     H46530  -1.036   6.101  10.369  0.7583  1.1428  0.5969
  345MOL0     H46531  -1.159   5.904  10.446  2.8659 -1.6051  0.7333
  345MOL0     H46532  -1.135   5.819  10.297 -1.6068 -0.0834  0.2640
  345MOL0     H46533  -1.275   5.975  10.168  1.0623  1.6705 -0.0196
  345MOL0     H46534  -1.311   6.065  10.322  0.2918 -0.5898  0.2963
  345MOL0     H46535  -1.505   6.107  10.203  4.2237 -1.2180 -0.3111
  345MOL0     H46536  -1.796   6.187  10.098  1.4314  1.5629  0.5243
  345MOL0     H46537  -1.816   6.249  10.263  0.4429 -0.8137 -0.1253
  345MOL0     H46538  -1.671   6.258  10.176  0.6921 -0.2190 -1.7463
  345MOL0     H46539  -2.107   5.684  10.438  1.4639  1.3348 -1.1859
  345MOL0     H46540  -2.353   5.639  10.499  2.2889 -1.0399 -0.7930
  345MOL0     H46541  -2.635   5.977  10.638  1.9778  2.1204 -0.7495
  345MOL0     H46542  -2.620   6.015  10.473  0.1771 -0.0415  0.7288
  345MOL0     H46543  -2.784   5.833  10.419 -0.8647  3.1388  0.1966
  345MOL0     H46544  -2.786   5.799  10.595  3.7771 -3.0803 -1.7735
  345MOL0     H46545  -2.871   6.079  10.502 -0.9407 -0.5623 -1.4014
  345MOL0     H46546  -2.919   5.992  10.644  0.7293  3.1935 -0.7663
  345MOL0     H46547  -3.013   5.958  10.364  2.6648  1.4318 -0.5042
  345MOL0     H46548  -3.024   5.820  10.477  3.0337  1.1130  2.7130
  345MOL0     H46549  -3.142   6.096  10.497  3.9401  0.2080 -0.0635
  345MOL0     H46550  -3.148   5.981  10.628  1.1794  2.4274  0.8172
  345MOL0     H46551  -3.234   5.976  10.344 -0.4638  1.6840  0.7441
  345MOL0     H46552  -3.259   5.821  10.418  0.8458 -0.1562 -0.3559
  345MOL0     H46553  -3.398   6.086  10.502 -2.8118  0.4626 -0.0782
  345MOL0     H46554  -3.447   5.919  10.545  2.4148  1.5572  1.8406
  345MOL0     H46555  -3.461   5.881  10.297 -1.8313 -1.3369  0.2953
  345MOL0     H46556  -3.464   6.058  10.277 -0.5510  1.2682  0.1007
  345MOL0     H46557  -2.400   6.069  10.542  0.5735  0.5805 -0.5226
  345MOL0     H46558  -2.175   6.099  10.491  0.0137  0.1453 -3.2863
  345MOL0     H46559  -1.793   5.760  10.405  0.4297 -1.5921 -2.2273
  345MOL0     H46560  -1.557   5.731  10.412 -0.6200 -2.4559 -1.9119
  345MOL0     H46561   0.168   5.254  10.375 -0.4329 -1.4910  0.4495
  345MOL0     H46562   0.398   5.270  10.367 -1.1509 -3.0809  0.0198
  345MOL0     H46563   0.777   5.387  10.474 -3.0599 -0.2576  2.6023
  345MOL0     H46564   1.011   5.468  10.507 -0.4547 -0.6203 -0.1280
  345MOL0     H46565   1.310   5.488  10.774 -1.6335  1.7293  1.1236
  345MOL0     H46566   1.153   5.464  10.834 -1.3321  0.1270 -1.7216
  345MOL0     H46567   1.204   5.245  10.923  0.5400 -0.5770  0.5129
  345MOL0     H46568   1.336   5.360  10.958  0.6791 -1.6978  0.1023
  345MOL0     H46569   1.448   5.276  10.745  3.2980 -2.1017  1.1604
  345MOL0     H46570   1.333   5.137  10.754  0.2334 -0.1380 -0.6484
  345MOL0     H46571   1.538   5.211  10.947 -2.4924  1.9751 -2.0696
  345MOL0     H46572   1.542   5.073  10.831  0.6888  1.3177 -2.1188
  345MOL0     H46573   1.363   4.933  11.188  2.7205 -0.1248  0.6513
  345MOL0     H46574   1.105   5.134  10.756 -0.4747  1.4708  1.0591
  345MOL0     H46575   0.865   5.067  10.748  0.0434 -0.3709 -1.1481
  346MOL0     O46576   9.029   6.014   4.451  0.0534  0.7144  0.2428
  346MOL0     C46577   9.049   6.096   4.536  1.0038  0.3108 -0.5075
  346MOL0     O46578   8.961   6.126   4.636 -0.1780  0.1206  0.9454
  346MOL0     C46579   8.827   6.086   4.626 -0.8689 -0.4835  0.3359
  346MOL0     C46580   8.747   6.130   4.520  0.0530 -0.8597 -0.1526
  346MOL0     C46581   8.606   6.100   4.526  0.2627 -0.4821 -0.5965
  346MOL0     C46582   8.554   6.014   4.628 -0.0694 -0.0077  0.7471
  346MOL0     O46583   8.426   5.975   4.627  0.3961 -0.0332  0.1012
  346MOL0     C46584   8.338   6.001   4.514  0.0735 -0.0149 -0.6399
  346MOL0     C46585   8.213   5.920   4.541 -0.1474 -0.5668 -0.7404
  346MOL0     C46586   8.088   5.988   4.500  0.6120 -1.2227 -0.1944
  346MOL0     C46587   7.961   5.940   4.571  0.3946 -0.5821  0.2301
  346MOL0     C46588   7.831   5.982   4.482  0.4957 -0.1056  0.0123
  346MOL0     C46589   7.705   5.939   4.550  0.5506 -0.7163 -1.0892
  346MOL0     C46590   7.585   5.931   4.465 -0.4402  0.1161  1.0239
  346MOL0     C46591   7.448   5.888   4.539 -0.7031  0.3523  0.4231
  346MOL0     N46592   7.336   5.962   4.487  1.1153 -0.7091  0.5507
  346MOL0     C46593   7.277   5.954   4.367 -0.6917  0.2321  1.0254
  346MOL0     C46594   7.175   6.042   4.363  0.4372  0.6589 -0.0236
  346MOL0     C46595   7.063   6.065   4.263  0.0792 -0.9162 -0.1133
  346MOL0     C46596   6.957   5.954   4.288  0.0904 -0.6873  0.7038
  346MOL0     C46597   6.833   5.996   4.206  0.3957  0.1238  0.2413
  346MOL0     C46598   6.743   6.104   4.258  0.4958 -0.6009 -0.4019
  346MOL0     O46599   6.697   6.097   4.395 -0.1678  0.2806 -0.0028
  346MOL0     C46600   6.570   6.043   4.424  0.2604 -0.1247 -0.3110
  346MOL0     C46601   6.486   5.979   4.337  0.2777 -0.1644  0.1815
  346MOL0     C46602   6.354   5.943   4.369  0.0725  0.0786  0.4880
  346MOL0     C46603   6.282   5.869   4.257  0.4862 -0.9338 -0.0433
  346MOL0     C46604   6.310   5.951   4.502  1.0864  0.0498  0.6442
  346MOL0     C46605   6.185   5.892   4.549  0.6888 -0.1413  0.5470
  346MOL0     O46606   6.172   5.904   4.688  0.8852 -0.6789  0.0407
  346MOL0     C46607   6.067   5.847   4.761  0.5191  0.1324  0.3780
  346MOL0     C46608   5.957   5.764   4.714  0.7689  0.1608 -0.3860
  346MOL0     C46609   5.873   5.703   4.803  0.2099  0.2576 -0.9732
  346MOL0     C46610   5.889   5.722   4.940  0.3866  0.1536  0.4930
  346MOL0     O46611   5.810   5.641   5.018 -0.5233 -0.1848  0.1812
  346MOL0     C46612   5.808   5.671   5.163 -1.4040 -0.1292  0.0273
  346MOL0     C46613   5.692   5.611   5.236 -0.4628 -0.4039 -0.7577
  346MOL0     C46614   5.713   5.604   5.393 -0.3532  0.4891 -0.5338
  346MOL0     C46615   5.615   5.498   5.448 -0.0680 -0.5072 -0.5718
  346MOL0     C46616   5.477   5.558   5.451 -0.3488 -0.1763 -0.0083
  346MOL0     C46617   5.371   5.472   5.516 -0.6555  0.3636 -0.5777
  346MOL0     C46618   5.392   5.444   5.665 -0.2776  0.3962  0.5259
  346MOL0     C46619   5.307   5.321   5.711  0.1163  0.1412 -0.2555
  346MOL0    Cl46620   5.326   5.277   5.886 -0.2368 -0.0661 -0.0082
  346MOL0     C46621   5.987   5.815   4.986  0.1790  0.3887  0.6561
  346MOL0     C46622   6.071   5.875   4.893 -0.6901  0.4179  0.1189
  346MOL0     O46623   6.100   5.849   4.475 -0.1485 -0.6126  0.3328
  346MOL0     C46624   6.392   6.027   4.595  0.3638  0.3404  0.0877
  346MOL0     C46625   6.516   6.064   4.555 -0.0373 -0.8648 -0.2530
  346MOL0     N46626   7.174   6.108   4.484  0.6282 -0.7659  0.1419
  346MOL0     N46627   7.263   6.055   4.555  0.1122 -0.3467 -0.8277
  346MOL0     C46628   8.637   5.961   4.715 -0.2547 -0.0155 -0.4255
  346MOL0     C46629   8.770   6.011   4.721 -0.0293  0.4669 -0.1054
  346MOL0     C46630   9.188   6.144   4.546 -0.2371  0.1902  0.0969
  346MOL0     C46631   9.235   6.235   4.651 -0.0168  0.6932 -0.2594
  346MOL0     C46632   9.357   6.295   4.655  0.4996 -0.9118 -0.0089
  346MOL0     C46633   9.453   6.259   4.560 -0.0484 -1.0382 -0.4356
  346MOL0     O46634   9.575   6.311   4.548  0.1289  0.0955 -0.7362
  346MOL0     C46635   9.607   6.413   4.633 -0.3589 -0.4866  0.3327
  346MOL0     C46636   9.759   6.434   4.634 -0.2949 -0.8970  0.3535
  346MOL0     C46637   9.793   6.576   4.675  1.0510  0.2642 -0.0832
  346MOL0     C46638   9.940   6.596   4.669 -0.1315 -0.6856  0.3604
  346MOL0     C46639  10.004   6.526   4.775 -0.3451  0.3879 -0.5212
  346MOL0     C46640  10.058   6.459   4.860 -0.1410 -1.1899  0.6338
  346MOL0     C46641   9.417   6.169   4.458 -0.8202  0.0690  0.7566
  346MOL0     C46642   9.287   6.113   4.452 -0.4459 -0.9475  0.2810
  346MOL0     H46643   8.797   6.192   4.446 -1.4264 -0.1907 -0.6314
  346MOL0     H46644   8.541   6.151   4.456 -0.6921  0.4307  0.8876
  346MOL0     H46645   8.313   6.107   4.523 -0.6659 -0.0763 -1.7179
  346MOL0     H46646   8.376   5.972   4.415 -0.5583 -1.1683 -0.5649
  346MOL0     H46647   8.216   5.824   4.490  3.9621 -0.6254 -0.7125
  346MOL0     H46648   8.209   5.892   4.647 -0.4392 -0.7394 -0.7954
  346MOL0     H46649   8.095   6.093   4.529 -1.4102 -1.1031  0.0154
  346MOL0     H46650   8.083   5.981   4.391 -1.0127  2.1016 -0.4541
  346MOL0     H46651   7.955   5.833   4.593 -2.7417 -0.3043  1.3432
  346MOL0     H46652   7.952   5.994   4.666  1.8316  0.2777 -0.0941
  346MOL0     H46653   7.829   6.089   4.464 -0.0164 -0.1700 -0.3278
  346MOL0     H46654   7.838   5.934   4.384 -2.3841 -0.0701 -0.2888
  346MOL0     H46655   7.714   5.840   4.596  0.5827  0.4456  1.6269
  346MOL0     H46656   7.675   5.994   4.640  0.9008 -1.1750 -0.6777
  346MOL0     H46657   7.576   6.019   4.401  0.3740 -0.3338  0.2581
  346MOL0     H46658   7.601   5.846   4.397 -0.5778 -0.5559  1.8106
  346MOL0     H46659   7.449   5.894   4.648 -2.5608 -0.9214  0.5505
  346MOL0     H46660   7.426   5.785   4.512  0.3218  1.1210 -4.1704
  346MOL0     H46661   7.301   5.876   4.296 -3.5042  0.1577  0.0166
  346MOL0     H46662   7.020   6.165   4.276  1.4831 -0.4590  1.3573
  346MOL0     H46663   7.104   6.060   4.162  1.8743  1.3750  0.4137
  346MOL0     H46664   6.926   5.948   4.393 -2.7956  4.0270  0.4090
  346MOL0     H46665   7.004   5.862   4.251  3.7352  1.2613  0.0133
  346MOL0     H46666   6.772   5.908   4.187 -1.4842  1.6986 -1.4161
  346MOL0     H46667   6.872   6.032   4.110  0.6492  1.4356  0.8102
  346MOL0     H46668   6.658   6.124   4.193  1.3618 -0.5191 -1.5441
  346MOL0     H46669   6.806   6.193   4.247  0.5217 -0.7035 -1.1708
  346MOL0     H46670   6.519   5.948   4.238  0.4130 -0.2928  0.2677
  346MOL0     H46671   6.243   5.774   4.294  0.5024 -0.0202  2.4810
  346MOL0     H46672   6.197   5.922   4.214  1.0947  0.5508  0.5232
  346MOL0     H46673   6.359   5.858   4.179  2.3928 -0.2887  1.6647
  346MOL0     H46674   5.933   5.730   4.614  0.3278 -1.4508  0.2372
  346MOL0     H46675   5.796   5.632   4.776  0.4497 -0.6172  0.5168
  346MOL0     H46676   5.905   5.645   5.208 -1.0222  0.0933 -0.6641
  346MOL0     H46677   5.796   5.778   5.185 -2.4172  0.0690 -1.3919
  346MOL0     H46678   5.601   5.669   5.218 -0.6224  0.8325  3.0650
  346MOL0     H46679   5.689   5.508   5.198  1.0565 -0.7919  0.0776
  346MOL0     H46680   5.686   5.700   5.437  0.7474  1.3953 -1.7322
  346MOL0     H46681   5.819   5.580   5.409  0.3128  2.1690 -2.0520
  346MOL0     H46682   5.618   5.406   5.389 -2.5906 -0.0842 -1.4490
  346MOL0     H46683   5.637   5.484   5.554 -0.5382  0.0546 -0.3953
  346MOL0     H46684   5.447   5.602   5.355  1.9723  2.0972  0.1871
  346MOL0     H46685   5.488   5.648   5.513 -0.8423 -0.1729  0.0796
  346MOL0     H46686   5.272   5.517   5.517 -1.5307 -1.4226 -1.9651
  346MOL0     H46687   5.365   5.386   5.448  0.4745 -1.5889  1.6466
  346MOL0     H46688   5.384   5.536   5.724  4.4044  0.7395  1.0500
  346MOL0     H46689   5.498   5.423   5.685 -0.3408 -0.6188 -0.1304
  346MOL0     H46690   5.327   5.232   5.651 -2.4755 -1.3921  0.9638
  346MOL0     H46691   5.202   5.341   5.689  0.5243  2.4230 -0.4017
  346MOL0     H46692   6.000   5.820   5.093  0.1900 -1.5046  0.7760
  346MOL0     H46693   6.153   5.934   4.934 -1.7786  0.7647  1.9421
  346MOL0     H46694   6.364   6.042   4.699 -0.1003 -2.7637  0.5112
  346MOL0     H46695   6.579   6.122   4.622  1.5262 -0.7997 -1.7168
  346MOL0     H46696   8.606   5.885   4.786  0.3456 -1.2904 -1.4798
  346MOL0     H46697   8.835   5.999   4.807  2.0925  3.5374 -1.1032
  346MOL0     H46698   9.164   6.254   4.731  1.2579 -0.7240  1.2795
  346MOL0     H46699   9.377   6.361   4.739  1.0974 -1.9053  0.6492
  346MOL0     H46700   9.559   6.502   4.593 -0.8980 -0.6517  0.5976
  346MOL0     H46701   9.577   6.397   4.737  4.2746  1.8118  2.3351
  346MOL0     H46702   9.788   6.412   4.531  1.9774 -2.2963  1.2268
  346MOL0     H46703   9.813   6.367   4.702 -0.5228 -0.0472  1.4031
  346MOL0     H46704   9.762   6.598   4.778  2.1716  0.2456  0.2705
  346MOL0     H46705   9.737   6.642   4.608 -0.9066 -3.2924 -2.2911
  346MOL0     H46706   9.974   6.700   4.676 -1.3029 -0.2192 -0.6811
  346MOL0     H46707   9.966   6.564   4.568 -2.4134 -0.7268 -0.2614
  346MOL0     H46708  10.091   6.409   4.949  3.0024 -2.3742 -1.0430
  346MOL0     H46709   9.492   6.133   4.389 -1.2657 -0.0725  0.3385
  346MOL0     H46710   9.269   6.047   4.368  1.8977 -1.7052  0.3239
  347MOL0     O46711   7.392   9.854   1.716  0.0160  0.1667 -0.3296
  347MOL0     C46712   7.444   9.947   1.656 -0.3759 -0.3931  0.0744
  347MOL0     O46713   7.380  10.035   1.576  0.0189  0.2597  0.4978
  347MOL0     C46714   7.245  10.056   1.587 -0.1239  0.5476  1.3738
  347MOL0     C46715   7.148   9.953   1.595 -0.0064  0.2751 -0.5658
  347MOL0     C46716   7.006   9.984   1.577 -0.2828  0.5672 -0.6558
  347MOL0     C46717   6.963  10.112   1.597 -0.1403 -0.6830 -0.0975
  347MOL0     O46718   6.830  10.141   1.604  0.9396 -0.2672  0.8068
  347MOL0     C46719   6.789  10.221   1.490  0.7428 -0.0504 -0.0757
  347MOL0     C46720   6.640  10.206   1.462 -0.9760 -0.7220 -0.5054
  347MOL0     C46721   6.594  10.080   1.395 -0.1176 -0.4547  1.0375
  347MOL0     C46722   6.445  10.048   1.414  0.1875 -1.3222  0.2316
  347MOL0     C46723   6.343  10.140   1.346 -0.6864  0.0655 -0.1377
  347MOL0     C46724   6.202  10.117   1.388 -0.2751 -0.4412 -0.4738
  347MOL0     C46725   6.102  10.231   1.352  0.1266  0.4253 -0.9298
  347MOL0     C46726   6.062  10.215   1.209  0.3563  0.7471 -0.2186
  347MOL0     N46727   5.948  10.308   1.175  0.1081  0.0291 -0.3459
  347MOL0     C46728   5.933  10.450   1.206  0.5944  0.5257 -0.1642
  347MOL0     C46729   5.812  10.483   1.160  0.6354 -0.6328  0.5978
  347MOL0     C46730   5.763  10.624   1.143  0.4651 -0.1964 -0.1181
  347MOL0     C46731   5.613  10.626   1.170  0.1965  0.4260 -0.4845
  347MOL0     C46732   5.538  10.757   1.205 -0.0028 -0.0751  0.6232
  347MOL0     C46733   5.398  10.730   1.276 -0.2989  0.8153  0.2185
  347MOL0     O46734   5.353  10.851   1.335 -0.2575 -1.1436 -0.0371
  347MOL0     C46735   5.227  10.892   1.306  0.2317 -0.1753 -0.4167
  347MOL0     C46736   5.207  11.031   1.305  0.3481  0.4609 -0.9019
  347MOL0     C46737   5.081  11.091   1.285  0.0336 -0.3975 -0.1399
  347MOL0     C46738   5.069  11.233   1.291 -0.1964 -1.7118 -0.0914
  347MOL0     C46739   4.966  11.003   1.292  0.3747  0.0204 -0.5864
  347MOL0     C46740   4.826  11.033   1.261  0.5414 -1.1499  0.2116
  347MOL0     O46741   4.736  10.961   1.329  0.4244 -0.3260  0.3476
  347MOL0     C46742   4.608  10.996   1.329  1.1337 -0.4951 -0.0878
  347MOL0     C46743   4.525  10.997   1.211 -0.1081 -0.5392  0.7477
  347MOL0     C46744   4.394  11.033   1.215 -0.2643 -0.5657  0.0778
  347MOL0     C46745   4.337  11.063   1.343  0.4116  0.8237 -0.0007
  347MOL0     O46746   4.206  11.096   1.343  0.3405  0.3601  0.0486
  347MOL0     C46747   4.164  11.208   1.272 -0.1105  0.2376 -0.7663
  347MOL0     C46748   4.031  11.254   1.322  0.6923  0.2050 -0.4196
  347MOL0     C46749   4.044  11.402   1.358 -0.2070 -0.1952 -0.1392
  347MOL0     C46750   3.929  11.452   1.434 -0.1579  0.0614 -0.0748
  347MOL0     C46751   3.920  11.598   1.433  0.5983 -0.1738 -0.7894
  347MOL0     C46752   3.793  11.647   1.498 -0.9476 -0.4471 -0.5514
  347MOL0     C46753   3.676  11.665   1.388 -0.8985 -0.2644  0.0751
  347MOL0     C46754   3.544  11.720   1.460 -0.1322  0.1606 -1.0655
  347MOL0    Cl46755   3.502  11.607   1.592  0.3531  0.4026  0.1207
  347MOL0     C46756   4.414  11.071   1.459  0.6632  0.1357  0.2643
  347MOL0     C46757   4.551  11.030   1.455 -0.3357 -0.2572  0.0942
  347MOL0     O46758   4.798  11.126   1.181 -0.2779  0.2986 -0.7266
  347MOL0     C46759   4.986  10.867   1.305  0.1429 -0.4201  0.0775
  347MOL0     C46760   5.116  10.814   1.308 -0.2453 -0.0945 -0.0966
  347MOL0     N46761   5.743  10.368   1.137 -0.1612 -0.1615 -0.1704
  347MOL0     N46762   5.827  10.271   1.134 -0.5298 -0.6595 -0.4028
  347MOL0     C46763   7.057  10.218   1.609  0.4488 -0.1221  0.3316
  347MOL0     C46764   7.194  10.184   1.596 -1.0583 -0.7668 -0.8399
  347MOL0     C46765   7.598   9.954   1.657 -0.1698 -0.0838  0.7150
  347MOL0     C46766   7.671  10.062   1.589  0.0069 -0.1270 -0.8983
  347MOL0     C46767   7.808  10.072   1.596 -0.3866 -0.4468  0.0321
  347MOL0     C46768   7.880   9.968   1.653  0.3370 -0.0295  0.6165
  347MOL0     O46769   8.017   9.980   1.628  0.5481  0.0523  0.0282
  347MOL0     C46770   8.098   9.875   1.697  1.0818 -0.4082  0.1983
  347MOL0     C46771   8.242   9.913   1.674 -0.3257  0.0491 -0.1055
  347MOL0     C46772   8.286   9.852   1.533  0.4981 -0.2791  0.2447
  347MOL0     C46773   8.428   9.897   1.514  0.3278  0.0349  0.3020
  347MOL0     C46774   8.497   9.848   1.392  0.3549 -0.1588  0.1103
  347MOL0     C46775   8.541   9.818   1.284 -0.7036  0.8265  0.6749
  347MOL0     C46776   7.815   9.863   1.723 -0.8216 -0.5936  0.3792
  347MOL0     C46777   7.678   9.869   1.734  0.2200 -0.8441  0.0961
  347MOL0     H46778   7.186   9.851   1.596  1.3998  0.7914 -0.2557
  347MOL0     H46779   6.939   9.903   1.551  1.1080 -1.2793  1.1505
  347MOL0     H46780   6.807  10.327   1.513  0.9135  0.3486 -1.8907
  347MOL0     H46781   6.850  10.192   1.404  0.4764 -1.5011  0.2025
  347MOL0     H46782   6.586  10.224   1.556 -0.0030 -0.0750 -0.0572
  347MOL0     H46783   6.605  10.282   1.392  2.2902  0.0172 -1.5036
  347MOL0     H46784   6.608  10.088   1.287  2.4499  1.6081  1.4290
  347MOL0     H46785   6.666  10.006   1.430  3.1795  1.4632 -1.0785
  347MOL0     H46786   6.426   9.948   1.375  2.8201 -1.8412  0.1019
  347MOL0     H46787   6.431  10.054   1.522 -2.1549 -0.2571 -0.0767
  347MOL0     H46788   6.374  10.243   1.364  0.2547 -0.5257  1.8259
  347MOL0     H46789   6.355  10.130   1.237 -4.6861 -0.6645 -0.6938
  347MOL0     H46790   6.173  10.019   1.350  2.0113 -1.4950  0.3035
  347MOL0     H46791   6.206  10.110   1.498 -2.2729  0.3596 -0.3158
  347MOL0     H46792   6.013  10.230   1.416  0.7282 -0.0507 -0.0759
  347MOL0     H46793   6.156  10.324   1.370 -0.6928  0.4463  2.0796
  347MOL0     H46794   6.032  10.115   1.177  1.0746  1.5090 -3.5981
  347MOL0     H46795   6.158  10.229   1.159  0.4937 -0.3762 -0.2954
  347MOL0     H46796   5.992  10.533   1.245 -1.3530  1.8878  0.0634
  347MOL0     H46797   5.798  10.698   1.216 -3.8064  0.5392  1.5017
  347MOL0     H46798   5.778  10.661   1.042 -3.1530  2.6892  0.1748
  347MOL0     H46799   5.592  10.554   1.250  0.0683  0.5104 -0.4413
  347MOL0     H46800   5.562  10.584   1.082  1.3238 -1.7648 -0.1656
  347MOL0     H46801   5.508  10.805   1.111 -0.3086  0.9040  1.2139
  347MOL0     H46802   5.603  10.816   1.270 -0.0741  0.9820 -0.2485
  347MOL0     H46803   5.409  10.649   1.348  1.3783  1.5909  0.8628
  347MOL0     H46804   5.341  10.687   1.193  0.8787  0.6843 -0.5423
  347MOL0     H46805   5.294  11.091   1.327  0.8589 -0.3730 -0.6016
  347MOL0     H46806   5.110  11.300   1.215  1.4510  0.1233  2.2513
  347MOL0     H46807   4.965  11.257   1.311  0.1229 -0.8764  0.6412
  347MOL0     H46808   5.110  11.258   1.390  1.2280  0.5878 -1.1797
  347MOL0     H46809   4.568  10.970   1.115 -3.0029  0.1537 -0.8590
  347MOL0     H46810   4.322  11.046   1.135 -1.9558 -1.6754  1.3376
  347MOL0     H46811   4.240  11.286   1.269 -0.0991  0.2235 -0.8446
  347MOL0     H46812   4.148  11.181   1.167  2.1013 -1.4704 -0.7484
  347MOL0     H46813   3.951  11.239   1.249  1.0864  0.2929 -0.8776
  347MOL0     H46814   4.006  11.202   1.415  1.2940 -0.0446 -0.3929
  347MOL0     H46815   4.039  11.468   1.270 -1.7676  2.1662  1.5917
  347MOL0     H46816   4.136  11.420   1.414  0.2939  1.3148 -1.3580
  347MOL0     H46817   3.838  11.425   1.379  0.5534 -0.7752 -0.8567
  347MOL0     H46818   3.912  11.406   1.532 -1.9702  1.9874  0.6044
  347MOL0     H46819   3.937  11.650   1.338 -0.0200  1.2006 -0.1743
  347MOL0     H46820   3.993  11.637   1.504 -1.8526  0.0211  1.7795
  347MOL0     H46821   3.762  11.578   1.577 -2.6713 -0.2707 -1.0491
  347MOL0     H46822   3.813  11.741   1.551 -2.2063  0.1092 -1.0271
  347MOL0     H46823   3.658  11.582   1.320  0.6400 -1.3342  0.9318
  347MOL0     H46824   3.707  11.753   1.331  2.0212  0.0490  1.9653
  347MOL0     H46825   3.466  11.736   1.385  1.6172  2.7685 -2.4983
  347MOL0     H46826   3.569  11.822   1.490  2.2647 -0.3392 -1.2078
  347MOL0     H46827   4.367  11.117   1.545 -2.4579  0.9381 -1.6792
  347MOL0     H46828   4.607  11.014   1.547 -0.1112  0.7429  0.1363
  347MOL0     H46829   4.907  10.793   1.308 -2.3658  2.1309  2.1319
  347MOL0     H46830   5.128  10.707   1.302  4.8861  0.3310 -3.2462
  347MOL0     H46831   7.037  10.322   1.631  2.1105 -0.2057  2.4895
  347MOL0     H46832   7.254  10.274   1.592  0.9204 -1.9798  0.0967
  347MOL0     H46833   7.627  10.146   1.535  2.6557  1.7839 -0.3103
  347MOL0     H46834   7.856  10.149   1.537 -0.6799  0.2315  0.6503
  347MOL0     H46835   8.074   9.879   1.804  0.3916 -2.7166  0.1890
  347MOL0     H46836   8.059   9.780   1.659 -1.9147  0.7250  0.2232
  347MOL0     H46837   8.315   9.877   1.748  1.0114  0.9711 -0.9358
  347MOL0     H46838   8.249  10.022   1.676 -0.1583  0.0448  1.6478
  347MOL0     H46839   8.234   9.892   1.446  1.9604  2.6868  0.6110
  347MOL0     H46840   8.279   9.743   1.543 -3.7777 -0.5271 -2.7275
  347MOL0     H46841   8.473   9.860   1.606  2.5853 -3.1956 -1.8846
  347MOL0     H46842   8.446  10.005   1.510 -1.2005  0.2795 -0.7771
  347MOL0     H46843   8.566   9.807   1.180 -2.8876 -1.1316  0.2802
  347MOL0     H46844   7.860   9.782   1.779 -3.5145 -2.0883  0.5853
  347MOL0     H46845   7.633   9.798   1.802 -1.3460  0.6589  0.7126
  348MOL0     O46846   7.026   0.596   4.160 -0.7290 -0.2199  0.0328
  348MOL0     C46847   7.073   0.557   4.265 -0.2160  1.2286 -0.5882
  348MOL0     O46848   7.007   0.552   4.382 -0.5766 -0.3354  0.1937
  348MOL0     C46849   6.873   0.585   4.386  0.6055 -0.4744  0.0477
  348MOL0     C46850   6.785   0.488   4.446 -0.7782  0.7223  1.1178
  348MOL0     C46851   6.647   0.515   4.458  0.2769 -0.7260  0.4376
  348MOL0     C46852   6.594   0.629   4.417  0.4280 -0.1495  0.5886
  348MOL0     O46853   6.458   0.646   4.441 -0.0779  0.5711 -0.2882
  348MOL0     C46854   6.385   0.754   4.376 -0.2446  0.3599  0.4671
  348MOL0     C46855   6.235   0.740   4.385  0.2042  0.3555 -0.1836
  348MOL0     C46856   6.178   0.628   4.290  0.3734  0.1444  0.4229
  348MOL0     C46857   6.197   0.666   4.137 -0.0480  0.0533 -0.5315
  348MOL0     C46858   6.099   0.621   4.030 -0.4561  0.4095  0.1838
  348MOL0     C46859   6.091   0.464   4.001  0.0734 -0.6844 -0.7444
  348MOL0     C46860   6.225   0.399   3.947 -0.3096  0.5321 -0.4970
  348MOL0     C46861   6.289   0.317   4.059 -0.6786 -0.1426  0.5132
  348MOL0     N46862   6.213   0.212   4.121 -0.4936 -0.0384  0.7648
  348MOL0     C46863   6.164   0.097   4.052  0.1799 -0.3004  0.2530
  348MOL0     C46864   6.074   0.037   4.140  1.2630 -0.5171  0.6318
  348MOL0     C46865   5.989  -0.088   4.130  0.1920  0.2033  1.0173
  348MOL0     C46866   6.056  -0.214   4.181 -0.8557  0.1171 -0.4722
  348MOL0     C46867   5.977  -0.338   4.156  0.6767  0.0445  0.2406
  348MOL0     C46868   5.848  -0.348   4.233 -0.1720  0.2124  0.1758
  348MOL0     O46869   5.746  -0.272   4.177 -0.1764  0.4670  0.9164
  348MOL0     C46870   5.628  -0.262   4.245 -0.2802 -0.9950  0.7968
  348MOL0     C46871   5.592  -0.306   4.370 -0.3640  0.6383 -0.4519
  348MOL0     C46872   5.459  -0.314   4.417 -0.2550  0.3858 -0.1596
  348MOL0     C46873   5.436  -0.374   4.548 -0.0967 -0.0518 -0.8169
  348MOL0     C46874   5.365  -0.253   4.332 -0.1007  0.7139  1.4816
  348MOL0     C46875   5.219  -0.238   4.359 -0.3068  0.2206 -0.0435
  348MOL0     O46876   5.143  -0.145   4.283  0.1922  0.8294 -0.1229
  348MOL0     C46877   5.006  -0.144   4.305 -0.4857 -0.1349  0.0558
  348MOL0     C46878   4.932  -0.168   4.194  0.8270 -0.5481  0.6352
  348MOL0     C46879   4.793  -0.165   4.191  0.0168  0.6523 -0.7038
  348MOL0     C46880   4.730  -0.155   4.313 -0.2527 -0.2775 -0.6519
  348MOL0     O46881   4.595  -0.143   4.336 -0.3477 -0.7128 -0.1776
  348MOL0     C46882   4.521  -0.064   4.245  0.3774 -0.3634  0.0217
  348MOL0     C46883   4.406   0.007   4.308 -1.0714 -0.1133  0.6984
  348MOL0     C46884   4.320   0.085   4.209  0.5048 -0.3342  0.2752
  348MOL0     C46885   4.219  -0.017   4.154  0.0075  0.2416  0.5629
  348MOL0     C46886   4.160   0.020   4.007  0.0836 -0.2781 -1.3032
  348MOL0     C46887   4.268   0.055   3.901  0.6737 -0.0800 -0.7351
  348MOL0     C46888   4.365  -0.052   3.854  0.5300 -0.4138  0.2443
  348MOL0     C46889   4.294  -0.152   3.764 -0.2047 -0.1049 -0.5415
  348MOL0    Cl46890   4.408  -0.276   3.706 -0.1620  0.1466 -0.1494
  348MOL0     C46891   4.808  -0.133   4.431  0.6996 -0.3416 -0.3012
  348MOL0     C46892   4.943  -0.123   4.425 -0.2070  0.0673 -0.7959
  348MOL0     O46893   5.174  -0.326   4.433  0.5468  0.0639  0.2747
  348MOL0     C46894   5.404  -0.190   4.212  0.2231  0.2044 -0.7599
  348MOL0     C46895   5.537  -0.192   4.176 -0.5555 -0.7232  0.1593
  348MOL0     N46896   6.075   0.111   4.261  0.8559 -0.2191 -0.1576
  348MOL0     N46897   6.159   0.213   4.244  0.5821 -0.0302 -0.7280
  348MOL0     C46898   6.678   0.722   4.358 -0.2499 -0.2270 -0.2117
  348MOL0     C46899   6.812   0.704   4.341  0.1644  0.0978  0.4729
  348MOL0     C46900   7.210   0.497   4.260 -0.2264 -0.1131 -0.0015
  348MOL0     C46901   7.279   0.492   4.137 -0.5280 -0.4798  0.3483
  348MOL0     C46902   7.390   0.417   4.128 -0.0259 -0.0836 -0.0419
  348MOL0     C46903   7.449   0.355   4.249  0.2285 -0.9177  0.4145
  348MOL0     O46904   7.565   0.281   4.267  0.4283  0.4228 -0.1960
  348MOL0     C46905   7.676   0.297   4.173 -0.2650 -0.2731  0.5171
  348MOL0     C46906   7.744   0.425   4.218 -0.5342 -0.1872 -0.6123
  348MOL0     C46907   7.892   0.439   4.189 -0.9657  0.5645  0.4810
  348MOL0     C46908   7.988   0.326   4.241 -0.8983 -1.0599  0.9854
  348MOL0     C46909   8.128   0.363   4.257 -0.2077 -0.2206  0.2778
  348MOL0     C46910   8.244   0.398   4.250  0.5325 -0.3516  0.6145
  348MOL0     C46911   7.377   0.368   4.366 -0.7142  0.2726 -0.3171
  348MOL0     C46912   7.270   0.447   4.381 -0.0097  0.4687  0.1841
  348MOL0     H46913   6.830   0.399   4.490  1.4327  0.2136 -1.8286
  348MOL0     H46914   6.602   0.445   4.528  0.9368  0.3026  1.9464
  348MOL0     H46915   6.423   0.841   4.431  0.2822 -0.0261  0.7140
  348MOL0     H46916   6.418   0.764   4.272  1.6002  1.9217  1.1444
  348MOL0     H46917   6.202   0.717   4.487  0.6450  2.5996  0.5256
  348MOL0     H46918   6.179   0.831   4.366  1.1585  0.7808 -1.0357
  348MOL0     H46919   6.229   0.535   4.315  1.2883  0.7077  0.6741
  348MOL0     H46920   6.073   0.601   4.303  0.6416 -0.7911  0.6765
  348MOL0     H46921   6.198   0.776   4.136 -1.1239  0.0698 -0.5178
  348MOL0     H46922   6.298   0.630   4.112 -0.2751 -1.9635  1.1688
  348MOL0     H46923   5.997   0.650   4.060 -0.6292  0.8700 -0.8067
  348MOL0     H46924   6.134   0.665   3.936  1.9230  1.2892  1.4018
  348MOL0     H46925   6.057   0.421   4.095 -3.7206  2.1180 -0.6103
  348MOL0     H46926   6.014   0.446   3.926 -0.8515  1.1214 -0.2819
  348MOL0     H46927   6.209   0.340   3.856  3.2495 -0.9294 -0.3312
  348MOL0     H46928   6.290   0.479   3.911 -2.9901  2.4168 -1.5782
  348MOL0     H46929   6.308   0.399   4.129 -1.6290 -0.4717  1.1907
  348MOL0     H46930   6.383   0.275   4.024 -0.9872 -0.0631 -0.4406
  348MOL0     H46931   6.178   0.054   3.953  0.3993 -0.9468  0.5616
  348MOL0     H46932   5.891  -0.078   4.179  0.1733 -1.6805  1.4277
  348MOL0     H46933   5.957  -0.106   4.027  0.2506 -0.4117  1.1038
  348MOL0     H46934   6.067  -0.206   4.289  0.6039  0.7106 -0.6408
  348MOL0     H46935   6.154  -0.228   4.133  0.5803 -1.8800  2.6996
  348MOL0     H46936   6.040  -0.418   4.196 -0.3182 -0.6016  0.5685
  348MOL0     H46937   5.947  -0.361   4.053 -0.7095  1.5206  0.2810
  348MOL0     H46938   5.873  -0.324   4.337  1.3427  0.4675 -0.2107
  348MOL0     H46939   5.816  -0.452   4.232  2.1586 -0.7549 -4.9430
  348MOL0     H46940   5.675  -0.340   4.431  0.4848 -1.2387 -2.5130
  348MOL0     H46941   5.370  -0.461   4.551  0.0158 -0.1017  1.2977
  348MOL0     H46942   5.529  -0.416   4.587 -0.3848 -1.5271 -1.6258
  348MOL0     H46943   5.397  -0.297   4.615  1.2742 -1.8664  2.2611
  348MOL0     H46944   4.982  -0.178   4.097  0.5565  3.3632 -0.0749
  348MOL0     H46945   4.730  -0.156   4.104  0.2471 -1.7673 -1.1674
  348MOL0     H46946   4.585   0.009   4.195 -0.9093 -1.5924 -3.8048
  348MOL0     H46947   4.484  -0.126   4.163  1.7447  0.9321 -1.6405
  348MOL0     H46948   4.345  -0.067   4.360  0.0734 -3.7277 -2.6339
  348MOL0     H46949   4.450   0.080   4.376 -0.5347  1.3391 -1.1317
  348MOL0     H46950   4.386   0.122   4.129 -2.0329 -1.1468 -2.3730
  348MOL0     H46951   4.269   0.170   4.256 -2.0162 -1.3339 -0.4809
  348MOL0     H46952   4.254  -0.120   4.148  1.8941  0.9198 -1.6749
  348MOL0     H46953   4.142  -0.018   4.232 -0.3361 -2.3987  0.2708
  348MOL0     H46954   4.101   0.112   4.010  3.3950  1.9705  0.9697
  348MOL0     H46955   4.091  -0.063   3.989 -1.5325  0.3131  1.6055
  348MOL0     H46956   4.214   0.084   3.810  1.5341  2.6154 -0.4542
  348MOL0     H46957   4.321   0.149   3.918  1.3599 -0.6555  0.4517
  348MOL0     H46958   4.400  -0.106   3.942  0.7806 -1.5630 -0.5244
  348MOL0     H46959   4.442   0.001   3.798  0.7855  1.4599  2.2668
  348MOL0     H46960   4.238  -0.104   3.683 -1.0718 -0.8941 -0.4320
  348MOL0     H46961   4.232  -0.210   3.833  0.7163  0.3681  0.7144
  348MOL0     H46962   4.750  -0.129   4.523  0.2580  1.4340 -0.6240
  348MOL0     H46963   5.001  -0.102   4.515 -0.2711  1.5084 -1.0652
  348MOL0     H46964   5.335  -0.131   4.152 -1.3547  2.6109  3.0427
  348MOL0     H46965   5.573  -0.132   4.093  0.5938  2.1408  2.5574
  348MOL0     H46966   6.633   0.819   4.337  0.1887  0.0971  0.3017
  348MOL0     H46967   6.879   0.782   4.304 -1.2683  0.7445 -0.8965
  348MOL0     H46968   7.234   0.515   4.041 -0.2854 -1.9431 -0.1404
  348MOL0     H46969   7.440   0.401   4.033 -1.2848 -1.6178 -0.4966
  348MOL0     H46970   7.734   0.206   4.189 -0.1014 -0.5950 -1.6087
  348MOL0     H46971   7.641   0.301   4.069 -1.8095 -1.1880  0.9529
  348MOL0     H46972   7.730   0.431   4.326 -1.8270 -1.1691 -0.7012
  348MOL0     H46973   7.698   0.514   4.175 -0.5829  1.2059  2.0982
  348MOL0     H46974   7.933   0.533   4.227  1.8899  0.0808 -1.0376
  348MOL0     H46975   7.906   0.450   4.081  1.3578 -0.0376  0.6617
  348MOL0     H46976   7.985   0.233   4.183  0.0593  1.4765 -3.6903
  348MOL0     H46977   7.948   0.314   4.342 -1.1455 -0.0418  1.0191
  348MOL0     H46978   8.350   0.414   4.242  0.7503 -0.6038  2.3605
  348MOL0     H46979   7.427   0.328   4.453  3.0582  1.3623 -1.7802
  348MOL0     H46980   7.232   0.453   4.482  1.9283  0.2011  0.9610
  349MOL0     O46981  10.353   2.107   6.453  0.2377  0.0585 -0.0427
  349MOL0     C46982  10.384   2.080   6.571  0.0865 -0.1907  0.4383
  349MOL0     O46983  10.296   2.064   6.672 -0.5757  0.3391  0.0013
  349MOL0     C46984  10.162   2.096   6.654 -0.3179 -0.1044 -0.1754
  349MOL0     C46985  10.106   2.188   6.739  0.0237  0.0342 -0.7565
  349MOL0     C46986   9.968   2.211   6.739  1.0270  0.7358 -0.2716
  349MOL0     C46987   9.886   2.135   6.657  0.6713  0.3633  0.0373
  349MOL0     O46988   9.746   2.151   6.683  0.1030 -0.6442  0.7583
  349MOL0     C46989   9.677   2.032   6.649  0.3007  0.2979  0.1021
  349MOL0     C46990   9.539   2.065   6.700 -0.2786  0.5400  0.2470
  349MOL0     C46991   9.437   1.951   6.681 -1.0776 -0.3763  0.1119
  349MOL0     C46992   9.315   1.969   6.769  0.1580 -0.1184  0.0155
  349MOL0     C46993   9.201   1.879   6.729  0.2158 -0.0361 -0.1392
  349MOL0     C46994   9.148   1.914   6.594  0.3025  0.5992  1.2157
  349MOL0     C46995   9.015   1.834   6.559 -0.6594 -0.9798 -0.4099
  349MOL0     C46996   8.952   1.890   6.432 -0.1086 -0.6030  0.4681
  349MOL0     N46997   8.803   1.889   6.427 -0.2889  0.1038  0.4072
  349MOL0     C46998   8.739   1.789   6.360  0.0234 -0.8270 -0.6031
  349MOL0     C46999   8.619   1.836   6.325 -0.2844 -1.7906  0.0110
  349MOL0     C47000   8.517   1.758   6.240 -0.9784  0.6959 -0.7124
  349MOL0     C47001   8.429   1.848   6.163 -0.7400  0.8533 -0.0746
  349MOL0     C47002   8.298   1.777   6.124 -0.4186 -0.5268  0.0870
  349MOL0     C47003   8.202   1.885   6.071 -0.0994  0.3217 -0.5020
  349MOL0     O47004   8.076   1.826   6.037  0.1681  0.2216  0.6306
  349MOL0     C47005   7.972   1.906   5.991  0.4320 -0.4490 -0.0488
  349MOL0     C47006   7.845   1.850   5.974 -0.5243  0.4777 -0.5180
  349MOL0     C47007   7.729   1.923   5.933 -0.5347 -0.5022  0.9968
  349MOL0     C47008   7.601   1.850   5.908 -0.0757 -0.1727  0.6468
  349MOL0     C47009   7.744   2.065   5.926 -0.1528  0.0009 -0.2418
  349MOL0     C47010   7.635   2.161   5.898 -0.6658  0.1216  0.4686
  349MOL0     O47011   7.503   2.117   5.904  0.2243 -0.1775 -0.4191
  349MOL0     C47012   7.403   2.217   5.876 -0.0639 -0.3695 -0.1448
  349MOL0     C47013   7.367   2.245   5.741 -0.0649  0.5185 -0.2080
  349MOL0     C47014   7.267   2.347   5.730  0.5179 -0.6186 -0.2143
  349MOL0     C47015   7.199   2.408   5.839 -0.2206 -0.3264 -0.2999
  349MOL0     O47016   7.100   2.501   5.820 -0.0536 -0.1955  0.0563
  349MOL0     C47017   7.008   2.519   5.927  0.1638 -0.1518 -0.3078
  349MOL0     C47018   6.857   2.528   5.877  0.2752 -0.0647  0.7092
  349MOL0     C47019   6.786   2.393   5.888  0.2006  0.1893  0.4629
  349MOL0     C47020   6.650   2.389   5.825  0.3091 -0.8333  0.5624
  349MOL0     C47021   6.534   2.449   5.907  0.1265 -0.2275 -0.4997
  349MOL0     C47022   6.387   2.403   5.874 -0.5570 -0.0168  0.4324
  349MOL0     C47023   6.277   2.464   5.963  0.3032  0.2926  0.2256
  349MOL0     C47024   6.145   2.388   5.948 -0.4860 -0.1496  0.6255
  349MOL0    Cl47025   6.013   2.461   6.042  0.1390  0.5609 -0.0432
  349MOL0     C47026   7.244   2.380   5.967  0.9892  1.1792 -0.7093
  349MOL0     C47027   7.339   2.278   5.984  0.4057 -0.4076  0.4771
  349MOL0     O47028   7.669   2.278   5.878  0.3130 -0.2477 -0.4222
  349MOL0     C47029   7.871   2.123   5.948  0.1138 -0.3863  0.5208
  349MOL0     C47030   7.981   2.042   5.972  0.2249 -0.8921  0.7964
  349MOL0     N47031   8.611   1.965   6.380  0.7433 -0.5051  0.8407
  349MOL0     N47032   8.724   1.997   6.428  0.1086 -0.4311 -0.2293
  349MOL0     C47033   9.937   2.049   6.567  0.3629  1.4372 -0.3172
  349MOL0     C47034  10.076   2.028   6.565 -0.8944  0.7915 -0.0882
  349MOL0     C47035  10.524   2.058   6.606 -0.7550 -0.1418  0.7698
  349MOL0     C47036  10.562   2.052   6.745 -0.5731  0.3026 -0.2241
  349MOL0     C47037  10.696   2.039   6.774  0.5644  1.2004 -0.1745
  349MOL0     C47038  10.801   2.026   6.676  1.0069  0.1362 -0.2042
  349MOL0     O47039  10.928   1.987   6.721 -0.0853 -0.4268  0.7503
  349MOL0     C47040  11.017   1.969   6.621 -0.3663  0.2169  0.3105
  349MOL0     C47041  11.153   1.947   6.677 -0.7244  0.4298 -0.2522
  349MOL0     C47042  11.189   1.805   6.707  0.1987 -1.1184 -0.3003
  349MOL0     C47043  11.343   1.797   6.725  0.6831 -0.6356 -0.6117
  349MOL0     C47044  11.383   1.661   6.710 -0.7251  0.2919 -0.7021
  349MOL0     C47045  11.389   1.538   6.701 -0.1336 -0.6764  0.0489
  349MOL0     C47046  10.764   2.046   6.542  0.7242 -0.1638 -0.2355
  349MOL0     C47047  10.627   2.060   6.511 -0.2709  0.0709  0.5350
  349MOL0     H47048  10.168   2.248   6.804 -0.7844 -0.9104  0.9532
  349MOL0     H47049   9.909   2.283   6.794  1.3675  1.2321 -0.5472
  349MOL0     H47050   9.683   2.022   6.540  2.9472  3.0109 -0.1376
  349MOL0     H47051   9.728   1.959   6.712  1.8920  2.9815  2.1464
  349MOL0     H47052   9.554   2.089   6.805  1.5676 -2.0802  0.6732
  349MOL0     H47053   9.504   2.154   6.645 -2.0328 -2.3017 -3.7550
  349MOL0     H47054   9.414   1.937   6.576 -3.0472 -1.2827  0.6198
  349MOL0     H47055   9.492   1.864   6.718  2.0611  0.4259 -2.2927
  349MOL0     H47056   9.327   1.955   6.877  0.4086  4.0409  0.7034
  349MOL0     H47057   9.285   2.072   6.749  1.3639 -0.0619 -1.6844
  349MOL0     H47058   9.238   1.776   6.738  1.2521 -0.2385 -4.3963
  349MOL0     H47059   9.113   1.881   6.793  2.0805 -1.4621  2.6421
  349MOL0     H47060   9.130   2.021   6.585 -0.0267  0.4216 -0.6178
  349MOL0     H47061   9.221   1.891   6.515 -1.3303  0.4372 -0.3221
  349MOL0     H47062   9.035   1.727   6.560  1.4665 -0.6922 -2.7051
  349MOL0     H47063   8.950   1.857   6.644 -0.8348  2.9734 -1.3859
  349MOL0     H47064   9.006   1.857   6.342 -1.4082  1.6814 -1.2540
  349MOL0     H47065   8.964   1.998   6.432 -1.5261 -0.0430 -5.7469
  349MOL0     H47066   8.781   1.699   6.316 -1.0143 -1.1035 -1.0350
  349MOL0     H47067   8.577   1.693   6.175  2.1395  0.2508  2.3370
  349MOL0     H47068   8.457   1.696   6.306  0.4392  0.9403  0.8517
  349MOL0     H47069   8.487   1.892   6.082  2.1537 -2.2515  0.1198
  349MOL0     H47070   8.403   1.929   6.232 -1.0883 -1.1554  2.2703
  349MOL0     H47071   8.257   1.710   6.201  0.3158 -1.6641 -0.4852
  349MOL0     H47072   8.320   1.714   6.037 -3.8951 -0.9275 -0.6553
  349MOL0     H47073   8.249   1.937   5.987  0.6819  2.0189  0.9209
  349MOL0     H47074   8.192   1.954   6.155  0.4502  2.9703 -2.4752
  349MOL0     H47075   7.834   1.745   6.001  1.8958  0.6988  1.6744
  349MOL0     H47076   7.568   1.878   5.808  0.3680 -1.4808  0.0999
  349MOL0     H47077   7.609   1.740   5.906 -0.4285 -0.1910 -0.1313
  349MOL0     H47078   7.518   1.881   5.971 -2.3624 -0.9741 -1.8062
  349MOL0     H47079   7.412   2.200   5.653 -1.6588 -0.0331 -0.7877
  349MOL0     H47080   7.232   2.380   5.633  2.8470 -0.6596 -1.1387
  349MOL0     H47081   7.003   2.439   6.001 -0.1153 -0.1983 -0.3790
  349MOL0     H47082   7.027   2.609   5.987  1.6236  0.3801 -1.4799
  349MOL0     H47083   6.798   2.595   5.941 -0.9509  0.4901 -0.9302
  349MOL0     H47084   6.859   2.562   5.773  1.1594  3.6697  1.8112
  349MOL0     H47085   6.781   2.368   5.995 -1.2049  2.0786  0.8838
  349MOL0     H47086   6.838   2.311   5.837  1.1211  0.0030  1.6504
  349MOL0     H47087   6.649   2.441   5.729  2.2126 -0.3778  0.7433
  349MOL0     H47088   6.636   2.281   5.812  2.8978 -1.1770 -0.0234
  349MOL0     H47089   6.545   2.557   5.922  0.2910 -0.4899  1.6043
  349MOL0     H47090   6.551   2.415   6.010  0.7731  1.3906 -0.0438
  349MOL0     H47091   6.360   2.448   5.778  1.4243  3.4530  1.3261
  349MOL0     H47092   6.388   2.293   5.870  4.5805 -0.2784  1.3152
  349MOL0     H47093   6.259   2.569   5.936 -0.8851  0.2166  0.6688
  349MOL0     H47094   6.314   2.472   6.065  0.5681 -0.9314  0.2399
  349MOL0     H47095   6.162   2.286   5.982  0.7520 -0.7378 -1.5687
  349MOL0     H47096   6.120   2.393   5.841 -1.7287  1.3390  0.9374
  349MOL0     H47097   7.193   2.418   6.056 -1.8821  0.2427 -1.8511
  349MOL0     H47098   7.366   2.248   6.085 -1.4320  0.0666  1.1497
  349MOL0     H47099   7.880   2.231   5.947  0.9257 -0.4430  0.5625
  349MOL0     H47100   8.074   2.094   5.989 -0.8717  2.0739 -1.4505
  349MOL0     H47101   9.878   1.997   6.493  1.7132  2.1136 -1.9393
  349MOL0     H47102  10.120   1.955   6.497  0.2098  1.1187  0.2591
  349MOL0     H47103  10.486   2.062   6.822 -1.9139  0.2395 -1.4887
  349MOL0     H47104  10.710   2.017   6.879 -1.2330 -1.2905 -0.3595
  349MOL0     H47105  10.993   1.886   6.554  1.3991 -0.1140  0.0381
  349MOL0     H47106  11.024   2.064   6.567 -1.7051  1.7287  2.6239
  349MOL0     H47107  11.157   2.003   6.771 -1.4505  0.2286 -0.0886
  349MOL0     H47108  11.223   1.992   6.607  0.9503 -2.4818 -0.5990
  349MOL0     H47109  11.155   1.737   6.627 -0.4701 -2.2337  0.8985
  349MOL0     H47110  11.139   1.776   6.800  0.2617 -0.8042 -0.1679
  349MOL0     H47111  11.377   1.843   6.819  1.9237 -0.7510 -0.9923
  349MOL0     H47112  11.402   1.857   6.655 -0.1399  1.1630  0.1474
  349MOL0     H47113  11.394   1.431   6.701 -0.1104 -0.8589  4.2624
  349MOL0     H47114  10.829   2.028   6.457  1.7143 -0.6431  0.6134
  349MOL0     H47115  10.592   2.061   6.408  2.2749 -4.8299 -0.6865
  350MOL0     O47116   1.197   6.427   6.046  0.2170  0.3549  0.5417
  350MOL0     C47117   1.285   6.487   5.994  0.0260 -0.5305 -0.4432
  350MOL0     O47118   1.273   6.614   5.950 -0.1232  0.0148  0.6428
  350MOL0     C47119   1.149   6.678   5.937  0.0167 -0.6137  0.0644
  350MOL0     C47120   1.022   6.622   5.930  0.4849 -0.2669  0.6404
  350MOL0     C47121   0.904   6.698   5.932  0.2022  0.0649 -0.0698
  350MOL0     C47122   0.919   6.835   5.946 -0.3231 -0.2058  0.1787
  350MOL0     O47123   0.815   6.927   5.961  0.2938 -0.0546  0.5160
  350MOL0     C47124   0.673   6.893   5.942  0.3716 -1.1103 -0.2790
  350MOL0     C47125   0.647   6.848   5.796 -0.5353  0.0881 -0.6997
  350MOL0     C47126   0.501   6.794   5.784  0.7998  0.4146 -0.3146
  350MOL0     C47127   0.474   6.772   5.637 -0.1827 -0.2158 -0.5869
  350MOL0     C47128   0.320   6.771   5.595 -0.6007 -0.7276  0.4453
  350MOL0     C47129   0.242   6.666   5.674  0.5341 -0.3245  0.2846
  350MOL0     C47130   0.095   6.655   5.621 -0.1263  0.1578 -0.1926
  350MOL0     C47131   0.006   6.783   5.612 -0.1173 -0.6291  0.0388
  350MOL0     N47132  -0.142   6.759   5.576  0.2651 -0.2154  0.7918
  350MOL0     C47133  -0.249   6.705   5.651  0.1740  0.1987  0.1126
  350MOL0     C47134  -0.355   6.703   5.567 -0.0249  0.5339  0.3769
  350MOL0     C47135  -0.492   6.673   5.620  0.6515 -0.3745  0.6717
  350MOL0     C47136  -0.587   6.668   5.500 -0.4270 -0.0055 -0.7132
  350MOL0     C47137  -0.729   6.629   5.552  0.0079 -0.3676  0.0785
  350MOL0     C47138  -0.729   6.488   5.605  0.3427 -1.5334 -0.1791
  350MOL0     O47139  -0.667   6.392   5.524 -0.2230  0.4354  0.4650
  350MOL0     C47140  -0.661   6.262   5.570  0.1111  0.0709 -0.2941
  350MOL0     C47141  -0.738   6.156   5.513 -0.0167  0.0950 -0.1026
  350MOL0     C47142  -0.754   6.030   5.564  0.7464 -0.2070 -0.9698
  350MOL0     C47143  -0.842   5.924   5.496  0.2225  0.1597 -0.5325
  350MOL0     C47144  -0.701   6.002   5.691 -0.7455 -0.7851 -0.2451
  350MOL0     C47145  -0.710   5.867   5.764 -0.3998 -0.2736  0.3930
  350MOL0     O47146  -0.601   5.833   5.837 -0.3940  0.2217  0.1958
  350MOL0     C47147  -0.620   5.729   5.935 -0.6185 -0.1905  0.9723
  350MOL0     C47148  -0.553   5.611   5.924 -0.3690 -0.0599  0.0981
  350MOL0     C47149  -0.570   5.510   6.029 -0.9855  0.3157  0.2217
  350MOL0     C47150  -0.657   5.525   6.132  0.0511 -0.9210 -1.2897
  350MOL0     O47151  -0.665   5.422   6.222 -1.0803 -0.3060  0.0530
  350MOL0     C47152  -0.744   5.441   6.340  0.1560  0.3098 -0.5521
  350MOL0     C47153  -0.686   5.381   6.463 -0.8705 -0.2929  0.3838
  350MOL0     C47154  -0.662   5.230   6.439 -0.1340 -0.4299  0.7617
  350MOL0     C47155  -0.654   5.135   6.559 -0.5160 -0.6740  0.4816
  350MOL0     C47156  -0.553   5.180   6.660  0.0207  0.4973 -0.2572
  350MOL0     C47157  -0.533   5.077   6.766 -0.2161 -0.0451  0.0995
  350MOL0     C47158  -0.439   5.123   6.874  0.0281  1.1256 -0.5387
  350MOL0     C47159  -0.300   5.117   6.823 -0.5081  0.1556 -0.8789
  350MOL0    Cl47160  -0.175   5.183   6.952 -0.1557  0.0155 -0.1321
  350MOL0     C47161  -0.726   5.653   6.140 -0.4935  0.2595 -0.5521
  350MOL0     C47162  -0.716   5.747   6.035 -0.2326  0.4329 -0.5610
  350MOL0     O47163  -0.818   5.802   5.754 -0.4852  0.1260  0.1834
  350MOL0     C47164  -0.620   6.100   5.749 -0.0819 -0.7460 -0.8646
  350MOL0     C47165  -0.592   6.227   5.691  0.1176  1.2983  0.3216
  350MOL0     N47166  -0.312   6.747   5.444 -0.5384  0.2762  0.3396
  350MOL0     N47167  -0.189   6.790   5.449 -0.9488 -1.0310 -1.0459
  350MOL0     C47168   1.040   6.897   5.939  0.5168 -0.5162  1.0172
  350MOL0     C47169   1.155   6.815   5.935  0.4277 -1.1244 -0.0598
  350MOL0     C47170   1.416   6.421   5.999  0.4211 -0.2937 -0.0881
  350MOL0     C47171   1.444   6.301   6.070 -0.0021 -0.3270 -0.7086
  350MOL0     C47172   1.573   6.240   6.069  0.3251 -0.9109  0.7264
  350MOL0     C47173   1.673   6.290   5.984 -0.4362 -0.1576  0.7756
  350MOL0     O47174   1.799   6.233   5.972  0.4528 -0.2092  0.2346
  350MOL0     C47175   1.808   6.096   6.025 -0.1944 -0.3981  0.9123
  350MOL0     C47176   1.937   6.037   5.985  0.1568 -0.4289  0.8200
  350MOL0     C47177   2.050   6.110   6.048 -1.1064  0.1980 -0.6865
  350MOL0     C47178   2.182   6.031   6.025  0.1043 -0.1376 -0.1408
  350MOL0     C47179   2.287   6.116   6.090 -0.6991 -0.3264 -0.7290
  350MOL0     C47180   2.373   6.171   6.152  0.2708  0.1138 -0.2068
  350MOL0     C47181   1.645   6.408   5.918  0.2954 -0.2213  0.3563
  350MOL0     C47182   1.520   6.471   5.917  0.0915  1.1979 -0.4876
  350MOL0     H47183   1.007   6.514   5.932 -1.1959 -0.0907 -0.5401
  350MOL0     H47184   0.810   6.646   5.948 -0.7511  1.7176 -0.0234
  350MOL0     H47185   0.648   6.820   6.020 -0.5207 -0.5939 -0.0755
  350MOL0     H47186   0.608   6.978   5.962 -0.6216 -1.6610 -1.0814
  350MOL0     H47187   0.673   6.928   5.726  1.8438  0.4632  0.5173
  350MOL0     H47188   0.715   6.770   5.762 -1.5381 -0.0714 -2.4695
  350MOL0     H47189   0.478   6.701   5.837  2.1580 -1.0102 -2.1047
  350MOL0     H47190   0.433   6.867   5.829  0.7748  0.3645 -0.2714
  350MOL0     H47191   0.526   6.848   5.577 -0.4284  2.1305  1.9644
  350MOL0     H47192   0.522   6.677   5.613  0.9032  0.2138 -0.1941
  350MOL0     H47193   0.283   6.872   5.619  1.2224 -0.0595  0.6035
  350MOL0     H47194   0.322   6.745   5.489  1.9335 -0.5682  0.3945
  350MOL0     H47195   0.284   6.565   5.670 -0.3801 -0.7034 -2.7896
  350MOL0     H47196   0.247   6.708   5.775  1.6797 -1.4543  0.7319
  350MOL0     H47197   0.101   6.603   5.525 -1.5291 -0.6636  0.1346
  350MOL0     H47198   0.047   6.595   5.698  2.3384  0.3019  1.5871
  350MOL0     H47199   0.060   6.844   5.539  2.3516 -0.8691  1.5301
  350MOL0     H47200   0.018   6.850   5.698  0.3989  0.2540 -0.7129
  350MOL0     H47201  -0.248   6.677   5.756  0.6086 -0.9403 -0.1861
  350MOL0     H47202  -0.483   6.583   5.681  0.0490 -0.5517  0.5057
  350MOL0     H47203  -0.523   6.758   5.682 -2.7399  1.4490 -3.0466
  350MOL0     H47204  -0.536   6.607   5.425  2.0459  0.4020  0.5314
  350MOL0     H47205  -0.586   6.768   5.456  3.1224  1.5846  2.3992
  350MOL0     H47206  -0.793   6.649   5.465 -0.5677  1.4894  0.8732
  350MOL0     H47207  -0.761   6.702   5.627 -1.9381 -1.3099  0.2436
  350MOL0     H47208  -0.836   6.464   5.612  0.0653 -0.6781 -1.1451
  350MOL0     H47209  -0.685   6.492   5.705 -2.1575 -0.4558  0.9587
  350MOL0     H47210  -0.788   6.175   5.418  2.5990 -0.7886 -1.7856
  350MOL0     H47211  -0.946   5.932   5.529  1.1092  1.3658  2.2851
  350MOL0     H47212  -0.846   5.932   5.387 -0.7191 -2.2250 -0.7443
  350MOL0     H47213  -0.807   5.822   5.516  1.1682  0.9912  2.6661
  350MOL0     H47214  -0.504   5.591   5.830 -0.4307  3.1560 -0.7591
  350MOL0     H47215  -0.522   5.413   6.021 -1.2178  0.0627  1.6145
  350MOL0     H47216  -0.761   5.546   6.368  3.5262  0.7336  0.3155
  350MOL0     H47217  -0.836   5.384   6.324  1.6463 -3.2961  2.2533
  350MOL0     H47218  -0.586   5.425   6.470  0.9407 -2.5954 -5.2771
  350MOL0     H47219  -0.734   5.397   6.559  0.9080  2.6338  0.9103
  350MOL0     H47220  -0.571   5.220   6.380 -0.1337  1.8017  0.2890
  350MOL0     H47221  -0.744   5.205   6.370  0.4984 -1.3070  0.3163
  350MOL0     H47222  -0.754   5.125   6.601 -1.1586  1.1242 -0.5108
  350MOL0     H47223  -0.622   5.038   6.520  0.0091  0.3894 -1.9426
  350MOL0     H47224  -0.593   5.265   6.717 -2.6144 -1.7263  1.4962
  350MOL0     H47225  -0.463   5.213   6.608  1.4519  3.3813  3.5436
  350MOL0     H47226  -0.625   5.049   6.818 -2.4303  0.8701 -3.0339
  350MOL0     H47227  -0.494   4.986   6.719  2.1208  0.1696  1.4653
  350MOL0     H47228  -0.451   5.059   6.962  0.4806  0.5925 -0.8589
  350MOL0     H47229  -0.455   5.226   6.905  2.6426  1.1329  1.0254
  350MOL0     H47230  -0.269   5.178   6.738  1.5079  2.3755  1.2655
  350MOL0     H47231  -0.275   5.013   6.803 -3.1807 -0.7702  0.2159
  350MOL0     H47232  -0.796   5.682   6.218  1.2330 -2.1389  2.0825
  350MOL0     H47233  -0.772   5.839   6.047 -1.9952 -0.9359  3.3912
  350MOL0     H47234  -0.579   6.099   5.849  0.2805 -0.0357 -1.0024
  350MOL0     H47235  -0.534   6.302   5.743 -1.6523  4.0490 -1.3755
  350MOL0     H47236   1.043   7.005   5.932  2.0963 -0.6297 -2.5681
  350MOL0     H47237   1.254   6.860   5.924 -0.6566  2.2584  2.2063
  350MOL0     H47238   1.365   6.244   6.118  0.7334  0.6544  1.8739
  350MOL0     H47239   1.594   6.150   6.127  0.0727  0.4993  3.1295
  350MOL0     H47240   1.811   6.099   6.134  1.4282  2.7640  0.8885
  350MOL0     H47241   1.727   6.030   5.993 -1.6498  0.6176  2.3048
  350MOL0     H47242   1.936   6.036   5.876  0.9096 -3.3672  0.7612
  350MOL0     H47243   1.933   5.930   6.010  0.5895 -1.1542 -1.9257
  350MOL0     H47244   2.028   6.130   6.154  1.0839  1.5748 -0.4300
  350MOL0     H47245   2.072   6.201   5.991 -0.2429 -0.0039 -0.6893
  350MOL0     H47246   2.199   6.016   5.918  1.0866  0.2313 -0.0419
  350MOL0     H47247   2.187   5.943   6.090  0.6646 -0.2927 -0.3901
  350MOL0     H47248   2.445   6.217   6.217  0.1796 -0.8290  0.5986
  350MOL0     H47249   1.723   6.450   5.856  0.2703  0.5248  0.8150
  350MOL0     H47250   1.521   6.565   5.864 -2.7635  3.2053  2.5981
  351MOL0     O47251   2.320   0.550   9.960 -0.9412 -0.1735 -0.3388
  351MOL0     C47252   2.425   0.578  10.020  0.8884  0.2121 -0.2373
  351MOL0     O47253   2.445   0.684  10.107  0.1185  0.2959  0.1991
  351MOL0     C47254   2.334   0.757  10.138 -0.3363  1.0022 -0.2430
  351MOL0     C47255   2.239   0.691  10.219 -0.5452 -1.0303 -0.2103
  351MOL0     C47256   2.133   0.767  10.269 -0.2251 -0.8164 -0.1933
  351MOL0     C47257   2.107   0.894  10.212 -0.2378 -0.4165  0.2251
  351MOL0     O47258   1.992   0.961  10.256  0.7211  0.1836  0.1359
  351MOL0     C47259   1.945   1.071  10.175 -0.8312  0.4796  0.5011
  351MOL0     C47260   1.805   1.102  10.230 -0.3136 -0.5030 -0.4623
  351MOL0     C47261   1.787   1.248  10.212  0.0287  0.3835 -0.1105
  351MOL0     C47262   1.650   1.283  10.268 -0.5111 -0.3577 -0.2023
  351MOL0     C47263   1.649   1.432  10.253  0.4160 -0.0379 -0.3706
  351MOL0     C47264   1.540   1.501  10.339 -0.2530  0.0633  0.0581
  351MOL0     C47265   1.403   1.450  10.299  0.3686 -0.4634 -0.1772
  351MOL0     C47266   1.338   1.512  10.161 -0.0686 -1.0051 -0.4803
  351MOL0     N47267   1.291   1.646  10.194 -0.5630 -0.1164 -0.0968
  351MOL0     C47268   1.161   1.697  10.208  0.0182 -0.3874 -0.9277
  351MOL0     C47269   1.157   1.832  10.185 -0.2309  0.5514 -0.6466
  351MOL0     C47270   1.029   1.918  10.203 -0.8869  0.1493 -0.4466
  351MOL0     C47271   0.905   1.840  10.253  0.1860  0.3376  0.7433
  351MOL0     C47272   0.841   1.762  10.142  0.1682  0.0217  0.9568
  351MOL0     C47273   0.700   1.707  10.183  0.1373 -0.3568 -0.1478
  351MOL0     O47274   0.715   1.602  10.277 -0.4281  0.2678  0.6044
  351MOL0     C47275   0.599   1.520  10.297  0.0722  0.3370 -0.4267
  351MOL0     C47276   0.628   1.405  10.377  0.8137 -0.2234  0.3568
  351MOL0     C47277   0.525   1.306  10.400 -1.2216  0.0761  0.7168
  351MOL0     C47278   0.567   1.207  10.507  0.2231 -0.6741  0.0058
  351MOL0     C47279   0.402   1.322  10.342  0.9970  0.6843 -0.2405
  351MOL0     C47280   0.281   1.241  10.376 -0.7920 -0.0547 -0.7396
  351MOL0     O47281   0.160   1.310  10.361 -0.3515  0.2382 -0.6884
  351MOL0     C47282   0.049   1.224  10.367 -0.7519  0.4892 -0.0728
  351MOL0     C47283  -0.036   1.225  10.475 -0.3694  0.2287 -0.0831
  351MOL0     C47284  -0.158   1.152  10.470  0.7291  0.0373  0.1531
  351MOL0     C47285  -0.195   1.080  10.357  0.3279 -0.0045 -0.3026
  351MOL0     O47286  -0.320   1.011  10.366 -0.4641  0.1737  0.2289
  351MOL0     C47287  -0.364   0.944  10.242  0.7224 -0.2279 -0.7376
  351MOL0     C47288  -0.496   0.866  10.263 -0.1668 -0.1480  0.0648
  351MOL0     C47289  -0.617   0.964  10.287 -0.3361  0.4586  0.0621
  351MOL0     C47290  -0.740   0.902  10.361 -0.5552 -0.2553 -0.3495
  351MOL0     C47291  -0.836   1.007  10.404 -0.3971  0.2349 -0.6211
  351MOL0     C47292  -0.953   0.947  10.483  0.2459 -0.2232 -0.1194
  351MOL0     C47293  -1.056   1.059  10.500 -1.3384 -0.1391 -0.2442
  351MOL0     C47294  -1.156   1.069  10.383  0.4529  0.5937 -0.4961
  351MOL0    Cl47295  -1.291   0.944  10.406  0.2328 -0.0642  0.2484
  351MOL0     C47296  -0.100   1.060  10.261  0.6580 -0.6866  0.2332
  351MOL0     C47297   0.022   1.130  10.263  0.4481  0.3535 -0.4502
  351MOL0     O47298   0.294   1.127  10.424  0.0667 -0.4376  0.5041
  351MOL0     C47299   0.377   1.436  10.260 -0.4147 -0.2953  0.2009
  351MOL0     C47300   0.474   1.536  10.232 -0.4463 -0.0607  0.1434
  351MOL0     N47301   1.295   1.867  10.179  0.5972 -0.5437 -0.8647
  351MOL0     N47302   1.370   1.759  10.174  0.3786 -0.4366  0.2019
  351MOL0     C47303   2.196   0.948  10.116 -0.7496 -0.2664 -0.2991
  351MOL0     C47304   2.311   0.880  10.079 -0.4327 -0.1517 -0.5225
  351MOL0     C47305   2.544   0.493  10.009  0.9556 -0.5572 -1.3183
  351MOL0     C47306   2.642   0.497  10.104  0.3551 -0.3238 -0.4075
  351MOL0     C47307   2.760   0.427  10.090  0.5504  0.5309 -0.4916
  351MOL0     C47308   2.779   0.339   9.979 -0.5740 -0.1959  0.1164
  351MOL0     O47309   2.882   0.245   9.957  0.7892 -0.6750  0.0326
  351MOL0     C47310   3.000   0.265  10.033  0.5357  0.4633  0.7432
  351MOL0     C47311   3.123   0.195   9.962 -0.4229 -0.4488 -0.0364
  351MOL0     C47312   3.255   0.213  10.036  0.6378 -0.3570  0.7028
  351MOL0     C47313   3.366   0.144   9.951 -0.3530 -0.4509 -0.1328
  351MOL0     C47314   3.497   0.174  10.015  1.0406 -0.5563 -0.0429
  351MOL0     C47315   3.600   0.207  10.054 -1.2073  0.1329  0.4734
  351MOL0     C47316   2.679   0.337   9.888  0.5802 -0.3867 -0.7529
  351MOL0     C47317   2.564   0.412   9.895  0.1135  0.2734 -0.3853
  351MOL0     H47318   2.264   0.591  10.252  2.2407 -0.2221  0.3633
  351MOL0     H47319   2.070   0.717  10.343  0.5339 -0.6473  0.5870
  351MOL0     H47320   2.002   1.164  10.185 -1.4280  1.1970 -2.0840
  351MOL0     H47321   1.946   1.043  10.070  0.3319  0.7572  0.4163
  351MOL0     H47322   1.739   1.049  10.161 -2.1534 -3.4512  3.2297
  351MOL0     H47323   1.794   1.088  10.338  3.0940  3.8287  0.7226
  351MOL0     H47324   1.862   1.304  10.268  0.4243  0.4795 -0.7305
  351MOL0     H47325   1.780   1.269  10.105 -2.1633  0.7964  0.0629
  351MOL0     H47326   1.568   1.233  10.216  0.6441 -1.5920 -0.8813
  351MOL0     H47327   1.649   1.256  10.374  1.2846 -0.0408 -0.0685
  351MOL0     H47328   1.744   1.477  10.283 -0.4896  0.7167  1.5909
  351MOL0     H47329   1.640   1.452  10.146 -0.0239 -2.7147 -0.8804
  351MOL0     H47330   1.565   1.482  10.444  1.9254  1.1150 -0.2086
  351MOL0     H47331   1.544   1.610  10.339  0.7636  0.0369  0.2140
  351MOL0     H47332   1.393   1.341  10.292 -3.3754 -0.4501  2.1420
  351MOL0     H47333   1.337   1.463  10.385 -1.4503 -0.4928 -1.4845
  351MOL0     H47334   1.253   1.454  10.122 -0.8266 -0.4184  0.2616
  351MOL0     H47335   1.412   1.514  10.081  0.2155  0.8844 -0.2008
  351MOL0     H47336   1.078   1.629  10.228 -0.2669 -0.7285 -2.9927
  351MOL0     H47337   1.060   1.990  10.280 -1.1082 -0.4839  0.2542
  351MOL0     H47338   0.993   1.970  10.114 -0.1840 -1.3994 -1.6596
  351MOL0     H47339   0.839   1.918  10.292  0.8537 -1.0091  5.1524
  351MOL0     H47340   0.928   1.783  10.344  1.2940  1.6735  1.3427
  351MOL0     H47341   0.897   1.674  10.106 -1.7582  0.3344 -3.4586
  351MOL0     H47342   0.829   1.827  10.055  3.0945 -3.7650 -2.7224
  351MOL0     H47343   0.656   1.662  10.094 -2.4432  1.0319  0.3441
  351MOL0     H47344   0.633   1.787  10.215  0.5344 -0.2180  0.3456
  351MOL0     H47345   0.733   1.391  10.403  0.1341 -2.4577  2.2844
  351MOL0     H47346   0.676   1.207  10.515  0.1791 -3.5061  2.0629
  351MOL0     H47347   0.521   1.242  10.599 -0.7746 -0.9314 -0.3784
  351MOL0     H47348   0.529   1.108  10.480 -0.4125 -0.7073  0.9897
  351MOL0     H47349  -0.026   1.288  10.563  0.1922 -1.5445  1.1773
  351MOL0     H47350  -0.226   1.160  10.554  0.5852 -1.4187  0.2065
  351MOL0     H47351  -0.380   1.003  10.151 -1.1206 -0.4580 -0.6096
  351MOL0     H47352  -0.293   0.863  10.225  0.9148 -0.3187  0.4378
  351MOL0     H47353  -0.506   0.808  10.170  0.1076 -1.7772  1.0241
  351MOL0     H47354  -0.481   0.800  10.349 -1.0305 -1.9449 -1.0958
  351MOL0     H47355  -0.643   1.011  10.192 -2.1239 -0.1226  0.2379
  351MOL0     H47356  -0.574   1.038  10.355  0.3100 -0.5900  0.8276
  351MOL0     H47357  -0.781   0.827  10.293 -0.8507 -0.7223  0.3414
  351MOL0     H47358  -0.706   0.850  10.450 -0.1968  1.3390  0.4887
  351MOL0     H47359  -0.867   1.054  10.310 -0.8167 -2.5812 -2.0029
  351MOL0     H47360  -0.784   1.086  10.459 -1.3223  0.0378  0.5855
  351MOL0     H47361  -1.006   0.863  10.437 -0.9195  0.9709 -1.0417
  351MOL0     H47362  -0.918   0.904  10.577 -2.2448  1.3940  1.6550
  351MOL0     H47363  -1.008   1.158  10.500  2.7542 -1.9212  0.7902
  351MOL0     H47364  -1.108   1.060  10.596  0.8381  1.7392  1.0322
  351MOL0     H47365  -1.112   1.052  10.284 -0.7872  0.3239 -1.0121
  351MOL0     H47366  -1.200   1.169  10.385 -1.2210 -0.0752  2.8187
  351MOL0     H47367  -0.119   0.987  10.183  0.6260  2.2989 -2.8268
  351MOL0     H47368   0.092   1.130  10.180 -0.6192 -0.1450 -1.3808
  351MOL0     H47369   0.277   1.438  10.218 -1.1571  0.1795  1.9083
  351MOL0     H47370   0.451   1.625  10.173 -0.2601  0.4126  0.7794
  351MOL0     H47371   2.175   1.041  10.063  0.1371 -0.3762 -0.8568
  351MOL0     H47372   2.379   0.928  10.009 -2.8630  2.0520 -1.5450
  351MOL0     H47373   2.636   0.562  10.190 -0.1911 -0.7399 -0.1211
  351MOL0     H47374   2.831   0.437  10.172  1.6303 -0.3385 -1.2841
  351MOL0     H47375   3.033   0.368  10.049 -2.2202  1.1182  3.1137
  351MOL0     H47376   2.979   0.228  10.134  2.6256 -0.8037  0.7744
  351MOL0     H47377   3.142   0.247   9.868 -3.0736  2.3746  0.8224
  351MOL0     H47378   3.094   0.090   9.955  1.0657 -0.7592 -2.8683
  351MOL0     H47379   3.249   0.173  10.137 -0.0329  1.0439  1.2543
  351MOL0     H47380   3.269   0.319  10.060 -2.7890 -0.0683  2.0084
  351MOL0     H47381   3.357   0.176   9.846 -5.1952 -1.4757 -0.2268
  351MOL0     H47382   3.365   0.035   9.938  3.7922 -0.6437 -0.2303
  351MOL0     H47383   3.700   0.231  10.083 -1.0659 -0.2390  0.3010
  351MOL0     H47384   2.682   0.276   9.798  0.8458  0.4406 -1.3172
  351MOL0     H47385   2.486   0.405   9.819  0.9912 -1.3400 -1.1871
  352MOL0     O47386   8.012   5.304   7.432  0.7867 -0.2158 -0.0589
  352MOL0     C47387   7.974   5.316   7.312 -0.0938  0.1920  0.1580
  352MOL0     O47388   8.047   5.385   7.218 -0.3950 -0.0328  0.4670
  352MOL0     C47389   8.151   5.458   7.263 -0.2883 -0.5721  0.1621
  352MOL0     C47390   8.132   5.580   7.321  0.0568  0.0074 -0.5750
  352MOL0     C47391   8.239   5.667   7.340  0.6516  0.1300  0.0457
  352MOL0     C47392   8.372   5.623   7.328  0.0815 -0.7222 -0.1083
  352MOL0     O47393   8.477   5.713   7.352 -0.0091  0.9290  0.5880
  352MOL0     C47394   8.476   5.785   7.470 -0.3490 -0.8202  0.8274
  352MOL0     C47395   8.497   5.695   7.593 -0.2822 -0.2816  0.4511
  352MOL0     C47396   8.512   5.776   7.725  1.0006 -0.1129  0.6922
  352MOL0     C47397   8.502   5.683   7.848  0.5202  0.6349 -0.1984
  352MOL0     C47398   8.512   5.762   7.977  0.9544 -0.4414 -0.1837
  352MOL0     C47399   8.489   5.689   8.108 -0.2203  0.0166 -0.3648
  352MOL0     C47400   8.554   5.548   8.117  0.3124 -0.0608 -0.3664
  352MOL0     C47401   8.522   5.466   8.245 -0.3416  0.6216  0.5649
  352MOL0     N47402   8.591   5.334   8.241  0.6568 -0.5174  0.0349
  352MOL0     C47403   8.573   5.233   8.155 -0.0064  0.0534  0.7470
  352MOL0     C47404   8.665   5.139   8.179  0.1635  0.1098 -0.0080
  352MOL0     C47405   8.672   5.007   8.102 -0.3553  0.1646  0.7505
  352MOL0     C47406   8.672   5.034   7.947 -1.0527  0.0556  0.5273
  352MOL0     C47407   8.671   4.911   7.853  0.2330 -0.3767 -0.3185
  352MOL0     C47408   8.541   4.821   7.850 -0.2773  0.1978  0.5486
  352MOL0     O47409   8.438   4.879   7.765  0.0684 -0.2091 -0.1410
  352MOL0     C47410   8.309   4.829   7.768 -0.3861 -0.4778  0.1496
  352MOL0     C47411   8.271   4.704   7.809  0.0154 -0.0775 -0.2270
  352MOL0     C47412   8.146   4.646   7.775  0.3675 -0.1551 -0.0098
  352MOL0     C47413   8.132   4.504   7.822 -0.5160 -0.3487  0.2803
  352MOL0     C47414   8.050   4.725   7.707  0.1045  0.0791  0.0688
  352MOL0     C47415   7.909   4.677   7.687 -0.2813 -0.1888 -0.1395
  352MOL0     O47416   7.836   4.743   7.587  0.4786 -0.1031  0.4997
  352MOL0     C47417   7.705   4.725   7.547  0.1502  0.5150 -0.1041
  352MOL0     C47418   7.665   4.822   7.444 -0.2337  0.3801  0.6947
  352MOL0     C47419   7.530   4.834   7.406  0.8045 -0.0375 -0.0976
  352MOL0     C47420   7.433   4.747   7.462  0.3718  1.0292  0.3162
  352MOL0     O47421   7.299   4.748   7.443  0.6535  0.1286  0.2994
  352MOL0     C47422   7.239   4.850   7.365  0.7166 -0.1855  0.1548
  352MOL0     C47423   7.094   4.791   7.367  0.2215  0.1546 -0.3604
  352MOL0     C47424   7.085   4.672   7.272 -0.9799  0.0996  0.7697
  352MOL0     C47425   6.947   4.619   7.260 -0.2983 -0.5461  0.2950
  352MOL0     C47426   6.957   4.491   7.184 -0.1139 -0.2501 -0.2207
  352MOL0     C47427   6.820   4.424   7.189 -0.3813  0.1029 -0.3061
  352MOL0     C47428   6.817   4.333   7.070  0.3632 -0.0637  0.1179
  352MOL0     C47429   6.692   4.241   7.064 -0.8394  0.1799  0.0255
  352MOL0    Cl47430   6.713   4.135   6.917  0.3719 -0.6849  0.2762
  352MOL0     C47431   7.479   4.645   7.552 -0.8744  0.5889 -0.2818
  352MOL0     C47432   7.611   4.633   7.594 -0.6252  1.0023 -0.1986
  352MOL0     O47433   7.859   4.590   7.753 -0.1428 -0.1031  0.4683
  352MOL0     C47434   8.090   4.850   7.658  0.3602 -0.0846 -0.6819
  352MOL0     C47435   8.215   4.903   7.700 -0.7022 -1.0014 -0.4750
  352MOL0     N47436   8.745   5.182   8.281  0.9116 -0.0738  0.3452
  352MOL0     N47437   8.704   5.307   8.305 -0.3364  0.5891 -0.1006
  352MOL0     C47438   8.395   5.497   7.281 -0.2467  0.5393 -0.4301
  352MOL0     C47439   8.283   5.416   7.246  0.1853 -1.1891  0.2339
  352MOL0     C47440   7.846   5.257   7.287 -0.1527 -0.2831 -0.0980
  352MOL0     C47441   7.757   5.240   7.391  0.2877 -0.6279  0.1227
  352MOL0     C47442   7.631   5.187   7.359  0.4980  0.0657 -0.0221
  352MOL0     C47443   7.587   5.163   7.228  0.1495  0.8770 -0.3717
  352MOL0     O47444   7.458   5.125   7.217 -0.1203 -0.5081 -0.1605
  352MOL0     C47445   7.388   5.161   7.097 -0.0228 -0.4768 -0.0178
  352MOL0     C47446   7.398   5.055   6.988 -0.0102  1.0539  0.6500
  352MOL0     C47447   7.357   5.093   6.845  0.2253  0.7022 -0.0160
  352MOL0     C47448   7.207   5.117   6.833  0.4889 -0.0100  0.7308
  352MOL0     C47449   7.168   5.238   6.895  0.0265 -0.8525  0.2352
  352MOL0     C47450   7.150   5.353   6.928 -0.9371 -0.9200  0.1229
  352MOL0     C47451   7.681   5.178   7.123 -0.4151  0.0598 -0.9845
  352MOL0     C47452   7.812   5.231   7.150  0.8444 -0.3801  0.8643
  352MOL0     H47453   8.033   5.604   7.360 -0.5140 -2.5944 -0.2361
  352MOL0     H47454   8.210   5.766   7.375  1.1665 -0.5710  2.6526
  352MOL0     H47455   8.552   5.863   7.460 -1.9490  0.9734  2.0259
  352MOL0     H47456   8.380   5.836   7.478 -0.9931 -1.5774 -1.4604
  352MOL0     H47457   8.411   5.628   7.590 -3.0212  2.9921 -0.3138
  352MOL0     H47458   8.590   5.637   7.587 -0.9028 -1.8721  3.9432
  352MOL0     H47459   8.610   5.824   7.733 -0.4339  3.0339  0.8102
  352MOL0     H47460   8.436   5.855   7.723  0.7011 -0.3988  0.6929
  352MOL0     H47461   8.406   5.629   7.852  1.4370 -1.0776 -0.3862
  352MOL0     H47462   8.581   5.608   7.844  0.9092  1.1134 -1.8979
  352MOL0     H47463   8.612   5.806   7.980  0.8635 -0.2184  2.5293
  352MOL0     H47464   8.436   5.841   7.968  0.5630 -0.4184  2.4466
  352MOL0     H47465   8.522   5.747   8.195 -0.7683 -2.3600  1.5416
  352MOL0     H47466   8.380   5.689   8.114 -0.2774  0.3963 -1.2956
  352MOL0     H47467   8.539   5.493   8.023 -1.6588  3.0509 -2.0554
  352MOL0     H47468   8.663   5.556   8.120  0.5562 -1.3804 -3.0955
  352MOL0     H47469   8.413   5.457   8.251 -0.1193 -1.3592  2.4338
  352MOL0     H47470   8.560   5.519   8.333  2.8413  1.3046 -1.0563
  352MOL0     H47471   8.496   5.225   8.079 -0.9379  0.2634  1.6409
  352MOL0     H47472   8.761   4.953   8.134 -0.1208 -1.4661 -2.3551
  352MOL0     H47473   8.581   4.949   8.118  0.4703 -2.8309 -3.6823
  352MOL0     H47474   8.766   5.084   7.921 -0.1394 -2.3350 -1.1892
  352MOL0     H47475   8.585   5.090   7.912 -0.3049  1.4977  0.9282
  352MOL0     H47476   8.754   4.845   7.879  0.2234  0.0890  0.9148
  352MOL0     H47477   8.698   4.939   7.750  2.9405 -1.2282  0.0912
  352MOL0     H47478   8.513   4.795   7.952 -0.3082  0.5724  0.6340
  352MOL0     H47479   8.571   4.723   7.811 -4.1041 -2.1025  2.6848
  352MOL0     H47480   8.351   4.647   7.856  0.3303  1.6780  1.4896
  352MOL0     H47481   8.221   4.469   7.874  0.8359  0.9005 -1.1079
  352MOL0     H47482   8.055   4.492   7.899  1.2876  1.5440  2.5042
  352MOL0     H47483   8.108   4.435   7.740  1.0331  2.2581 -2.5856
  352MOL0     H47484   7.743   4.892   7.416 -1.9728  1.9660 -0.4269
  352MOL0     H47485   7.500   4.909   7.334  1.8380 -0.6966 -1.2504
  352MOL0     H47486   7.236   4.948   7.412  1.3875 -0.3889  0.6322
  352MOL0     H47487   7.276   4.856   7.262  0.0267 -0.4769 -0.1157
  352MOL0     H47488   7.072   4.759   7.469 -0.2929 -0.2426 -0.5897
  352MOL0     H47489   7.029   4.876   7.344  1.2178  1.4780  1.4924
  352MOL0     H47490   7.151   4.596   7.315 -1.4826 -1.0348 -0.3754
  352MOL0     H47491   7.123   4.703   7.174 -0.6595 -2.4672  0.0078
  352MOL0     H47492   6.929   4.612   7.368  1.1017  3.7896  1.0060
  352MOL0     H47493   6.892   4.702   7.216  1.7988  1.4905  1.2436
  352MOL0     H47494   7.036   4.431   7.228 -0.4614 -0.1623  0.5369
  352MOL0     H47495   6.985   4.515   7.081 -2.8235  0.7177 -0.8164
  352MOL0     H47496   6.802   4.366   7.280 -1.9527 -1.2885 -1.4473
  352MOL0     H47497   6.735   4.492   7.189 -2.8048 -2.7155  1.0383
  352MOL0     H47498   6.909   4.274   7.076  0.4369 -0.1238 -1.2888
  352MOL0     H47499   6.809   4.378   6.971  1.0334  2.3365  1.0871
  352MOL0     H47500   6.600   4.300   7.052 -0.7916 -0.0996 -2.1775
  352MOL0     H47501   6.682   4.176   7.151 -3.0500 -0.1615 -0.4233
  352MOL0     H47502   7.409   4.576   7.597  1.6545 -2.1576 -0.2855
  352MOL0     H47503   7.642   4.546   7.651  2.5774  1.4404 -1.0786
  352MOL0     H47504   8.025   4.919   7.605  0.0151 -1.2982 -1.8956
  352MOL0     H47505   8.237   5.005   7.669  0.3283 -1.0694  0.0050
  352MOL0     H47506   8.498   5.467   7.262 -0.4622 -1.9774  1.9127
  352MOL0     H47507   8.294   5.315   7.207 -1.2291 -1.0263 -0.6671
  352MOL0     H47508   7.786   5.268   7.492 -0.2713 -0.1484  0.1601
  352MOL0     H47509   7.570   5.156   7.443  0.6068 -0.8612 -0.2677
  352MOL0     H47510   7.283   5.178   7.123 -0.5240 -3.1660 -0.0597
  352MOL0     H47511   7.423   5.257   7.057  3.4081 -1.3414  0.6237
  352MOL0     H47512   7.338   4.970   7.022 -2.1112  2.1570 -0.1723
  352MOL0     H47513   7.496   5.007   6.978 -2.0422 -3.1044 -2.5687
  352MOL0     H47514   7.376   5.004   6.785 -0.7026  0.1123  0.5442
  352MOL0     H47515   7.408   5.180   6.803  4.1765 -1.3638 -0.0071
  352MOL0     H47516   7.155   5.035   6.884 -1.0476 -0.0358 -0.8098
  352MOL0     H47517   7.157   5.127   6.737  1.7203 -0.1346  0.0529
  352MOL0     H47518   7.130   5.456   6.949  1.3490 -0.4665  0.2904
  352MOL0     H47519   7.655   5.154   7.020 -0.1473  1.3207 -1.3647
  352MOL0     H47520   7.881   5.245   7.067  1.2016 -3.8322  0.4123
  353MOL0     O47521   1.778   7.382   0.446 -0.9386 -0.5079  0.4775
  353MOL0     C47522   1.836   7.278   0.486 -0.0577 -0.9504 -0.1162
  353MOL0     O47523   1.775   7.176   0.546 -0.3097  0.8547  0.0696
  353MOL0     C47524   1.639   7.193   0.570  0.5605  0.2228  0.1189
  353MOL0     C47525   1.550   7.091   0.532 -0.1074  0.3242 -0.1019
  353MOL0     C47526   1.414   7.093   0.551  0.5508 -0.0899 -0.7207
  353MOL0     C47527   1.357   7.200   0.621  0.2950  0.2224 -0.6290
  353MOL0     O47528   1.218   7.198   0.637  0.0564 -0.0228 -0.1889
  353MOL0     C47529   1.166   7.093   0.724  0.8202  0.6979  1.1234
  353MOL0     C47530   1.037   7.029   0.657 -0.5834 -0.0676 -0.2803
  353MOL0     C47531   1.060   6.971   0.517 -0.4678  0.0168 -0.1491
  353MOL0     C47532   0.924   6.961   0.443  0.3783  0.6969 -0.2227
  353MOL0     C47533   0.949   6.894   0.312 -0.7373 -0.0752  0.8276
  353MOL0     C47534   0.960   6.738   0.308  0.2228 -0.7136 -0.0095
  353MOL0     C47535   0.830   6.653   0.325 -0.4713 -0.4535  0.1731
  353MOL0     C47536   0.849   6.501   0.292 -0.8239  0.5705  0.2498
  353MOL0     N47537   0.723   6.427   0.282 -0.6137  0.3393 -0.3114
  353MOL0     C47538   0.598   6.459   0.336 -0.4430  0.9164  0.2308
  353MOL0     C47539   0.517   6.351   0.314  0.0194  0.0135  0.3143
  353MOL0     C47540   0.383   6.327   0.375  0.3962  0.4977 -0.6187
  353MOL0     C47541   0.349   6.175   0.394  0.0819  0.0935 -0.2973
  353MOL0     C47542   0.208   6.159   0.439 -0.0988  0.0281  0.3397
  353MOL0     C47543   0.163   6.018   0.436 -0.6028 -0.0407 -0.4604
  353MOL0     O47544   0.161   5.959   0.305 -0.0418 -0.9309 -0.3504
  353MOL0     C47545   0.094   5.840   0.285 -0.0331  0.0371 -0.2520
  353MOL0     C47546   0.041   5.759   0.389 -0.0121 -0.2035  0.5411
  353MOL0     C47547  -0.014   5.634   0.373 -0.3068  0.5714  0.7636
  353MOL0     C47548  -0.066   5.557   0.492 -0.4570  0.2468  0.3328
  353MOL0     C47549  -0.006   5.576   0.241 -0.2515  0.0038  0.4074
  353MOL0     C47550  -0.052   5.444   0.198  0.4447 -0.7941 -0.5850
  353MOL0     O47551  -0.076   5.431   0.060  0.6416  0.4213  0.3973
  353MOL0     C47552  -0.146   5.316   0.028  0.6636  0.2680 -0.1444
  353MOL0     C47553  -0.281   5.289   0.067 -0.3519 -0.1691 -0.5965
  353MOL0     C47554  -0.346   5.167   0.031 -0.0350 -0.9202  0.2518
  353MOL0     C47555  -0.298   5.075  -0.054  0.2065 -0.2657  0.1998
  353MOL0     O47556  -0.370   4.956  -0.061  0.1755  0.0274 -0.3318
  353MOL0     C47557  -0.321   4.860  -0.159 -0.6554 -0.3868  0.2732
  353MOL0     C47558  -0.414   4.738  -0.149 -0.4592 -0.0833  0.5231
  353MOL0     C47559  -0.428   4.677  -0.281  0.6058  0.9099  0.0119
  353MOL0     C47560  -0.534   4.561  -0.279  0.7495  0.1307  0.3659
  353MOL0     C47561  -0.571   4.502  -0.415  0.2083  0.5732  1.2563
  353MOL0     C47562  -0.657   4.369  -0.416 -0.3921  0.1159 -0.3971
  353MOL0     C47563  -0.767   4.379  -0.511 -0.3587  0.5267 -0.1936
  353MOL0     C47564  -0.862   4.274  -0.466 -0.2234  0.3253 -1.0308
  353MOL0    Cl47565  -0.997   4.242  -0.583  0.1243  0.2065 -0.1930
  353MOL0     C47566  -0.167   5.111  -0.102 -0.3883  0.1089  0.1243
  353MOL0     C47567  -0.094   5.224  -0.066  0.4776 -0.4580  0.5017
  353MOL0     O47568  -0.049   5.355   0.277 -0.0440  0.5960 -0.5218
  353MOL0     C47569   0.056   5.649   0.129 -0.4568  0.0296 -0.0947
  353MOL0     C47570   0.102   5.779   0.158 -0.6754 -0.6136 -0.4123
  353MOL0     N47571   0.593   6.263   0.242 -0.3790 -0.2930 -0.8660
  353MOL0     N47572   0.713   6.306   0.224  0.0327  0.5624  0.3051
  353MOL0     C47573   1.439   7.293   0.669  0.0187 -0.5234 -0.7515
  353MOL0     C47574   1.579   7.285   0.660  0.0552  0.5295  0.1473
  353MOL0     C47575   1.985   7.272   0.476 -0.3157  0.2892  0.4616
  353MOL0     C47576   2.062   7.161   0.519 -0.6908  0.0566  1.1486
  353MOL0     C47577   2.204   7.166   0.505  0.5961  0.6200 -0.1062
  353MOL0     C47578   2.270   7.281   0.460 -0.2923  0.4965  1.4100
  353MOL0     O47579   2.402   7.294   0.442  0.0835  0.5111 -0.3376
  353MOL0     C47580   2.483   7.177   0.460 -0.1159 -0.2244  0.0886
  353MOL0     C47581   2.637   7.201   0.431  0.4040  0.3385 -0.2094
  353MOL0     C47582   2.709   7.073   0.399 -0.1112 -0.9759 -0.7040
  353MOL0     C47583   2.840   7.103   0.331 -0.2150  0.2905 -0.9428
  353MOL0     C47584   2.825   7.160   0.198 -0.0727 -0.3974 -0.0506
  353MOL0     C47585   2.794   7.209   0.088 -1.1143 -0.1727  0.1894
  353MOL0     C47586   2.192   7.388   0.418  0.3352  0.3320 -0.4886
  353MOL0     C47587   2.053   7.383   0.421  0.2334  0.4197  0.2123
  353MOL0     H47588   1.590   7.004   0.481 -1.0426 -1.2807  1.7811
  353MOL0     H47589   1.356   7.008   0.517 -1.7804  0.4988  1.5011
  353MOL0     H47590   1.244   7.017   0.733  1.1464  0.1666 -3.5393
  353MOL0     H47591   1.137   7.125   0.824 -1.1643  0.1274  0.7829
  353MOL0     H47592   1.013   6.946   0.724 -0.0058 -2.1708 -2.5196
  353MOL0     H47593   0.948   7.093   0.664 -1.8991 -1.8516  0.3348
  353MOL0     H47594   1.123   7.044   0.465  0.5032 -0.6536  0.0683
  353MOL0     H47595   1.107   6.873   0.519  0.5896  0.5206  0.2823
  353MOL0     H47596   0.845   6.897   0.485 -0.3027 -0.2500 -2.7371
  353MOL0     H47597   0.873   7.057   0.433  0.0038  0.5689  0.4313
  353MOL0     H47598   0.876   6.911   0.232  2.0489  0.3362 -1.8452
  353MOL0     H47599   1.039   6.935   0.264 -3.1649  3.0321 -1.5749
  353MOL0     H47600   1.000   6.694   0.216 -1.9104 -0.0026 -1.3334
  353MOL0     H47601   1.030   6.703   0.385  1.0911  0.1967 -0.3637
  353MOL0     H47602   0.771   6.676   0.414 -1.7362 -3.3142  0.1933
  353MOL0     H47603   0.756   6.692   0.255 -2.6592  1.3096  3.2404
  353MOL0     H47604   0.906   6.450   0.370 -1.0486  1.0670  0.7481
  353MOL0     H47605   0.901   6.480   0.198 -1.0261  1.1534  0.0030
  353MOL0     H47606   0.573   6.545   0.398 -0.2389 -0.4292  2.2645
  353MOL0     H47607   0.386   6.374   0.474  0.4312  0.8137 -0.7672
  353MOL0     H47608   0.305   6.371   0.312  0.0836  0.8824  0.0249
  353MOL0     H47609   0.414   6.121   0.463 -1.4689 -0.4516  0.7934
  353MOL0     H47610   0.361   6.133   0.294  0.8584  1.0644 -0.6223
  353MOL0     H47611   0.141   6.217   0.375 -1.2113 -2.0696 -0.4645
  353MOL0     H47612   0.209   6.195   0.542 -3.2346 -3.5561  1.8810
  353MOL0     H47613   0.066   6.014   0.488 -0.2827 -2.6145  0.0938
  353MOL0     H47614   0.223   5.954   0.502  0.2722  0.9881 -0.2286
  353MOL0     H47615   0.041   5.809   0.486 -0.4080  2.1420 -0.6014
  353MOL0     H47616  -0.152   5.492   0.473  0.9494 -2.3998  2.3220
  353MOL0     H47617   0.015   5.491   0.526 -0.0817  1.1555  1.2526
  353MOL0     H47618  -0.078   5.625   0.577  1.7419  2.2600 -0.8808
  353MOL0     H47619  -0.325   5.355   0.141  1.0325  0.7572 -0.5515
  353MOL0     H47620  -0.440   5.140   0.078 -1.0196  2.7933  0.7262
  353MOL0     H47621  -0.307   4.904  -0.258 -0.1484  0.4439  0.6972
  353MOL0     H47622  -0.222   4.828  -0.127 -0.2579 -1.3615 -1.7694
  353MOL0     H47623  -0.371   4.661  -0.084  0.6687  0.0500 -0.0371
  353MOL0     H47624  -0.506   4.773  -0.102  0.3615 -0.4579  2.5281
  353MOL0     H47625  -0.329   4.644  -0.313  0.5145  0.5918  0.0530
  353MOL0     H47626  -0.472   4.753  -0.346 -0.5238  0.9910  0.8492
  353MOL0     H47627  -0.488   4.481  -0.219 -0.2267 -0.5049  0.3012
  353MOL0     H47628  -0.622   4.586  -0.219 -1.4656 -0.2770 -2.4788
  353MOL0     H47629  -0.480   4.474  -0.469 -1.1078 -1.1753 -0.1805
  353MOL0     H47630  -0.612   4.579  -0.481  1.7989 -1.2228 -2.1163
  353MOL0     H47631  -0.589   4.287  -0.443  0.5519  0.2058  1.5283
  353MOL0     H47632  -0.679   4.353  -0.310  3.7321 -1.4572  0.3835
  353MOL0     H47633  -0.728   4.355  -0.610  0.4120  1.0428 -0.0234
  353MOL0     H47634  -0.801   4.483  -0.520  2.5047  1.4757 -1.4676
  353MOL0     H47635  -0.910   4.300  -0.372 -2.7799 -1.3965 -1.7625
  353MOL0     H47636  -0.802   4.183  -0.455  1.1327  1.4640  2.3237
  353MOL0     H47637  -0.111   5.052  -0.174 -1.6070 -1.7271  0.6111
  353MOL0     H47638   0.002   5.233  -0.116  0.7662 -4.0990  0.1069
  353MOL0     H47639   0.089   5.602   0.037  3.6533  0.8826  0.7637
  353MOL0     H47640   0.156   5.832   0.080  2.7027 -2.1723  0.6952
  353MOL0     H47641   1.410   7.379   0.729  2.3729  1.7528 -2.6137
  353MOL0     H47642   1.635   7.372   0.693  0.0820  0.6007 -0.0807
  353MOL0     H47643   2.014   7.070   0.554 -0.6606 -0.3067  0.2746
  353MOL0     H47644   2.257   7.074   0.528 -2.2563 -0.7517  1.5291
  353MOL0     H47645   2.482   7.148   0.566  0.7257  0.4994  0.3071
  353MOL0     H47646   2.455   7.097   0.391  3.2226 -1.9090  0.4382
  353MOL0     H47647   2.690   7.254   0.510  1.1772  0.9596 -1.1169
  353MOL0     H47648   2.647   7.274   0.350  0.4703  1.5663  0.8622
  353MOL0     H47649   2.653   6.997   0.344  0.3512 -1.2621 -0.7881
  353MOL0     H47650   2.730   7.022   0.494 -3.0835 -1.7297 -0.3696
  353MOL0     H47651   2.892   7.008   0.320  1.6810  1.3036 -1.2224
  353MOL0     H47652   2.895   7.167   0.400 -0.2370  0.0229 -0.6797
  353MOL0     H47653   2.762   7.254  -0.004 -0.5204  0.9076  0.4940
  353MOL0     H47654   2.250   7.473   0.382  0.7840 -0.3977 -1.5549
  353MOL0     H47655   2.004   7.477   0.399  3.6197  1.9057 -1.7595
  354MOL0     O47656   8.518   2.236   9.440  0.4534  0.3499  0.1101
  354MOL0     C47657   8.632   2.199   9.394  0.3080  0.3620 -0.2614
  354MOL0     O47658   8.655   2.106   9.299  0.1396 -0.4031 -0.8872
  354MOL0     C47659   8.566   2.005   9.280  0.1451 -0.0169  0.4248
  354MOL0     C47660   8.474   1.952   9.377 -0.4550 -0.8809  0.2746
  354MOL0     C47661   8.406   1.834   9.356  0.1990 -0.3089 -0.6017
  354MOL0     C47662   8.411   1.771   9.230  0.5031 -0.1114  0.1774
  354MOL0     O47663   8.321   1.676   9.190 -0.2397  0.5848 -0.1441
  354MOL0     C47664   8.215   1.630   9.275 -0.6191  0.9543 -0.4241
  354MOL0     C47665   8.129   1.540   9.192  1.0028 -0.4156  0.8808
  354MOL0     C47666   7.990   1.505   9.251 -0.4252 -0.3915 -0.2522
  354MOL0     C47667   7.925   1.384   9.190 -0.2761  0.5376 -0.8178
  354MOL0     C47668   7.827   1.308   9.294  0.6623 -0.2790  0.9193
  354MOL0     C47669   7.811   1.151   9.271 -0.0051 -0.2191  0.3490
  354MOL0     C47670   7.713   1.085   9.377 -0.2851 -0.5287  0.7360
  354MOL0     C47671   7.799   1.055   9.496 -0.8314  0.0313 -0.0063
  354MOL0     N47672   7.727   1.044   9.620  0.7142 -0.0846 -0.6796
  354MOL0     C47673   7.641   0.941   9.650  0.7996 -0.0299 -0.3639
  354MOL0     C47674   7.605   0.963   9.781  0.1792 -0.7585  0.1908
  354MOL0     C47675   7.528   0.871   9.867  0.0760  1.2145 -0.3621
  354MOL0     C47676   7.398   0.842   9.802 -1.1864 -0.1065 -0.0914
  354MOL0     C47677   7.303   0.741   9.872 -0.7254 -0.0050 -0.0685
  354MOL0     C47678   7.206   0.800   9.979 -1.2355  0.1407  0.4129
  354MOL0     O47679   7.173   0.706  10.077  0.1897  0.1169  0.0092
  354MOL0     C47680   7.052   0.723  10.145  0.1163  0.4175  0.9047
  354MOL0     C47681   6.963   0.618  10.152 -0.4262  0.9414  0.3719
  354MOL0     C47682   6.837   0.625  10.204 -0.1500  0.3577  0.8015
  354MOL0     C47683   6.749   0.505  10.195  0.0756 -0.2840 -0.1134
  354MOL0     C47684   6.788   0.754  10.250 -0.3646  0.1012  0.9722
  354MOL0     C47685   6.648   0.775  10.302 -0.0804 -0.5913 -0.1662
  354MOL0     O47686   6.647   0.876  10.390 -0.6966 -0.7821 -0.1137
  354MOL0     C47687   6.526   0.921  10.438 -0.2410 -0.0719  0.0668
  354MOL0     C47688   6.461   0.845  10.548  0.7893 -0.1956  0.0718
  354MOL0     C47689   6.350   0.909  10.604 -0.4624 -0.3031 -1.0781
  354MOL0     C47690   6.284   1.019  10.552  0.5424 -0.8089 -0.1584
  354MOL0     O47691   6.159   1.057  10.588 -0.4830 -0.2176 -1.3019
  354MOL0     C47692   6.079   0.981  10.680  0.3754 -0.0194 -1.0582
  354MOL0     C47693   5.938   1.051  10.684  0.5553 -0.1105  0.3947
  354MOL0     C47694   5.847   1.011  10.562  0.2683  0.3731  0.4871
  354MOL0     C47695   5.721   1.105  10.558  0.0876 -0.1674  0.0310
  354MOL0     C47696   5.617   1.044  10.465 -1.1209  0.7544 -0.2423
  354MOL0     C47697   5.493   1.131  10.442  0.2390  0.8670 -0.7498
  354MOL0     C47698   5.406   1.100  10.318  0.4729  1.1453  0.2277
  354MOL0     C47699   5.286   1.187  10.315 -0.1129 -0.8942  0.6313
  354MOL0    Cl47700   5.351   1.362  10.312  0.1470  0.2758  0.2847
  354MOL0     C47701   6.354   1.081  10.442  0.3542 -0.1440  1.2259
  354MOL0     C47702   6.468   1.035  10.385  0.4687  0.6913  0.1794
  354MOL0     O47703   6.552   0.703  10.272  0.1730 -0.6032  0.0805
  354MOL0     C47704   6.882   0.862  10.246  0.4744 -0.1164 -0.1959
  354MOL0     C47705   7.004   0.848  10.185 -0.7017  0.3048  0.8844
  354MOL0     N47706   7.647   1.091   9.821 -0.0197 -0.0868 -0.4085
  354MOL0     N47707   7.725   1.135   9.724  0.4546 -0.3246 -0.5996
  354MOL0     C47708   8.497   1.819   9.135  0.2547 -0.4738 -0.4529
  354MOL0     C47709   8.572   1.934   9.161 -0.3220  1.1731 -0.3540
  354MOL0     C47710   8.756   2.279   9.423 -0.1131 -0.2692  0.3118
  354MOL0     C47711   8.771   2.315   9.554  0.3442  0.2660  0.3666
  354MOL0     C47712   8.887   2.389   9.592 -0.3967  0.3377 -0.5516
  354MOL0     C47713   8.986   2.426   9.504 -0.2693  0.6021 -1.3106
  354MOL0     O47714   9.092   2.502   9.544  0.6834  0.0571 -0.0758
  354MOL0     C47715   9.125   2.524   9.679 -0.3347  0.2216  0.5914
  354MOL0     C47716   9.253   2.608   9.677  0.1283 -0.3956  0.5631
  354MOL0     C47717   9.321   2.616   9.809 -0.2148  0.8050  0.0183
  354MOL0     C47718   9.254   2.693   9.918  0.8158  0.3466  0.1758
  354MOL0     C47719   9.127   2.630   9.969 -0.1647  0.1622  0.8675
  354MOL0     C47720   9.022   2.587  10.008  0.2845 -0.4556 -0.7392
  354MOL0     C47721   8.961   2.393   9.372 -0.5439 -0.6932  0.0052
  354MOL0     C47722   8.853   2.322   9.321  0.0968  0.1132  0.2438
  354MOL0     H47723   8.471   1.994   9.477 -0.2671 -1.2113  0.4199
  354MOL0     H47724   8.339   1.806   9.437  1.7303 -0.0673  0.8080
  354MOL0     H47725   8.259   1.577   9.360  3.3929 -0.3661 -3.0158
  354MOL0     H47726   8.147   1.711   9.301 -1.8780  0.3526 -1.6427
  354MOL0     H47727   8.120   1.582   9.092  0.8660 -1.4485  0.4488
  354MOL0     H47728   8.183   1.446   9.179  3.9514  1.3403 -0.6732
  354MOL0     H47729   7.995   1.494   9.360  1.4070  1.4632 -0.0858
  354MOL0     H47730   7.930   1.595   9.238  0.6330  0.6338  1.5348
  354MOL0     H47731   7.881   1.419   9.097 -0.1184  1.8000 -0.4429
  354MOL0     H47732   8.011   1.320   9.165 -0.5332 -1.0768  2.0037
  354MOL0     H47733   7.870   1.323   9.393 -1.5074 -1.1226  2.0500
  354MOL0     H47734   7.733   1.362   9.299  1.9977  2.1016  1.8428
  354MOL0     H47735   7.768   1.136   9.171 -0.8522  3.6009 -0.0192
  354MOL0     H47736   7.907   1.097   9.272 -0.6366 -1.3599  0.4041
  354MOL0     H47737   7.635   1.161   9.392  0.3947  0.1779  0.7650
  354MOL0     H47738   7.674   0.989   9.342  0.7500 -1.0723  1.0305
  354MOL0     H47739   7.874   1.133   9.511  0.4421 -0.7518 -1.9224
  354MOL0     H47740   7.854   0.961   9.484 -0.7893  0.1308 -0.6001
  354MOL0     H47741   7.620   0.849   9.597  1.6776 -1.0248  0.9392
  354MOL0     H47742   7.585   0.780   9.887 -2.3497 -0.1616  0.6285
  354MOL0     H47743   7.505   0.913   9.965  0.9298  0.4255  0.1859
  354MOL0     H47744   7.419   0.802   9.702  2.0771  0.9903  0.0552
  354MOL0     H47745   7.348   0.939   9.792  0.7157  0.9948  0.6113
  354MOL0     H47746   7.363   0.661   9.917  0.2194  1.8378  2.2029
  354MOL0     H47747   7.243   0.692   9.796 -2.8738  2.3736 -0.0288
  354MOL0     H47748   7.122   0.838   9.921 -0.9951  0.2849  0.1559
  354MOL0     H47749   7.257   0.887  10.023  0.4813 -0.7655  0.2846
  354MOL0     H47750   7.002   0.523  10.115  1.0413  0.8152  2.0905
  354MOL0     H47751   6.695   0.507  10.099 -0.0868  2.2795 -0.0517
  354MOL0     H47752   6.812   0.416  10.201  1.4735  0.7506  1.2350
  354MOL0     H47753   6.674   0.497  10.274 -0.2399 -0.1720 -0.3981
  354MOL0     H47754   6.517   0.761  10.588 -0.2206  0.2803  2.6491
  354MOL0     H47755   6.299   0.858  10.686  1.9284 -2.1092 -0.6048
  354MOL0     H47756   6.067   0.876  10.652  3.1511 -0.5969 -0.3185
  354MOL0     H47757   6.127   0.974  10.778 -0.7819  2.0673 -0.2805
  354MOL0     H47758   5.887   1.030  10.778  2.1660 -0.6347  1.1974
  354MOL0     H47759   5.964   1.157  10.685 -1.7915  0.5262 -0.5245
  354MOL0     H47760   5.814   0.907  10.575 -0.0223  0.5290  1.0580
  354MOL0     H47761   5.901   1.024  10.468  3.5887 -1.5048  1.9306
  354MOL0     H47762   5.683   1.147  10.651 -0.9143  1.2340 -0.9827
  354MOL0     H47763   5.764   1.191  10.506  4.8785 -0.7976  2.3313
  354MOL0     H47764   5.578   0.950  10.506 -1.8164  0.9718 -0.3939
  354MOL0     H47765   5.665   1.018  10.370 -0.5150  0.7922  0.0463
  354MOL0     H47766   5.437   1.119  10.535  0.6702  1.6022 -0.3866
  354MOL0     H47767   5.521   1.237  10.447 -2.1903  1.5022  0.6492
  354MOL0     H47768   5.366   0.999  10.333 -0.7905  1.4928 -0.6776
  354MOL0     H47769   5.462   1.113  10.225  2.5956 -0.8812  1.1250
  354MOL0     H47770   5.227   1.178  10.407  0.8684 -0.2103  1.3553
  354MOL0     H47771   5.218   1.180  10.230 -0.3998  0.4742  0.7285
  354MOL0     H47772   6.294   1.159  10.398  0.1618 -0.5079  0.8402
  354MOL0     H47773   6.503   1.092  10.299  0.3087  2.6885  1.3551
  354MOL0     H47774   6.859   0.965  10.269  2.5130 -0.0321  1.8013
  354MOL0     H47775   7.069   0.934  10.173 -0.8263 -0.0024 -3.3385
  354MOL0     H47776   8.497   1.763   9.041  3.0523 -1.2213 -0.0828
  354MOL0     H47777   8.640   1.971   9.084  2.3835  2.7280  2.5552
  354MOL0     H47778   8.705   2.264   9.623  0.9760 -1.3334 -0.1733
  354MOL0     H47779   8.903   2.399   9.698  0.9825 -2.8113 -0.3365
  354MOL0     H47780   9.058   2.595   9.728  0.3665  1.5887 -0.3645
  354MOL0     H47781   9.142   2.436   9.743  3.0813 -0.8323 -1.4926
  354MOL0     H47782   9.227   2.706   9.637 -1.8006  0.4599  3.5522
  354MOL0     H47783   9.315   2.553   9.605 -1.5857  0.4683 -1.6862
  354MOL0     H47784   9.421   2.652   9.781  0.1757 -1.0271 -1.1179
  354MOL0     H47785   9.338   2.513   9.841  1.3466  0.1785 -2.5758
  354MOL0     H47786   9.221   2.793   9.886  0.2512 -0.0532 -0.5262
  354MOL0     H47787   9.324   2.699  10.001  0.6081 -0.4777  0.4141
  354MOL0     H47788   8.933   2.542  10.047 -0.7680  1.5964 -0.6922
  354MOL0     H47789   9.033   2.431   9.299 -0.0948  1.5459  1.5235
  354MOL0     H47790   8.852   2.296   9.215 -1.9954  1.1265 -0.0462
  355MOL0     O47791   7.175   9.867   5.540 -0.5330 -0.3487 -0.3789
  355MOL0     C47792   7.288   9.893   5.587  0.2883 -0.0157  0.8325
  355MOL0     O47793   7.354   9.817   5.673  0.2901  0.3508 -0.5720
  355MOL0     C47794   7.311   9.691   5.707  0.2654  0.1027 -0.0508
  355MOL0     C47795   7.247   9.596   5.623 -0.4164 -0.4785 -0.3686
  355MOL0     C47796   7.227   9.470   5.664 -0.2986  1.0598 -0.3721
  355MOL0     C47797   7.269   9.418   5.787 -1.2087 -0.2493  0.3447
  355MOL0     O47798   7.255   9.280   5.819 -0.7681 -0.2775  0.1020
  355MOL0     C47799   7.125   9.229   5.815 -0.0620  0.4238 -0.5389
  355MOL0     C47800   7.054   9.286   5.935 -0.8033 -0.2297 -0.6424
  355MOL0     C47801   6.928   9.188   5.967 -0.4855  0.1750  0.1837
  355MOL0     C47802   6.877   9.177   6.113 -0.1895  0.4012 -0.9784
  355MOL0     C47803   6.739   9.115   6.113 -0.3346  0.5134  0.1877
  355MOL0     C47804   6.678   9.087   6.256  0.3886 -0.7725  0.1765
  355MOL0     C47805   6.535   9.013   6.230 -0.7878 -0.4260  0.0145
  355MOL0     C47806   6.524   8.880   6.302 -0.6882  0.5621  0.2546
  355MOL0     N47807   6.527   8.877   6.452  1.0861  0.6316  0.4474
  355MOL0     C47808   6.446   8.945   6.545  0.7584 -0.6162  1.2510
  355MOL0     C47809   6.494   8.901   6.668  1.0092  0.0068  0.0140
  355MOL0     C47810   6.436   8.936   6.802 -0.0557  0.3589  0.5464
  355MOL0     C47811   6.284   8.905   6.817  0.3531  0.2589  0.8922
  355MOL0     C47812   6.230   8.951   6.951  1.1347  0.3613 -0.7671
  355MOL0     C47813   6.094   8.876   6.992 -0.6428 -0.2875  0.3143
  355MOL0     O47814   6.011   8.986   7.030  0.0826 -0.0726  0.5674
  355MOL0     C47815   5.879   8.962   7.027 -0.1320  0.1009 -0.1947
  355MOL0     C47816   5.794   9.069   7.010 -0.4608 -0.0507  0.3387
  355MOL0     C47817   5.652   9.045   7.008 -0.0158 -0.3794  0.9338
  355MOL0     C47818   5.565   9.172   7.008  0.0642 -0.3861 -0.0325
  355MOL0     C47819   5.605   8.914   7.014  0.7828  0.7670 -0.5076
  355MOL0     C47820   5.458   8.879   6.994 -0.1212 -0.9437  0.1504
  355MOL0     O47821   5.414   8.762   7.038  0.6440  1.0807  0.2632
  355MOL0     C47822   5.279   8.752   7.038 -0.6264 -0.0296 -0.8755
  355MOL0     C47823   5.218   8.667   6.944 -0.5629 -0.9957  0.3709
  355MOL0     C47824   5.078   8.666   6.946 -0.9389  0.2428 -0.0588
  355MOL0     C47825   4.996   8.731   7.037 -0.1302  0.0105 -0.6603
  355MOL0     O47826   4.859   8.716   7.056  0.5574 -0.1360  0.3444
  355MOL0     C47827   4.780   8.640   6.957  0.3409  1.0534  0.2627
  355MOL0     C47828   4.635   8.654   6.982  0.5899  0.0856 -0.4161
  355MOL0     C47829   4.588   8.629   7.119 -0.6956  0.2539  0.3463
  355MOL0     C47830   4.459   8.705   7.147  0.5546  0.0136 -1.1290
  355MOL0     C47831   4.411   8.674   7.292 -0.5632 -0.0515  0.4794
  355MOL0     C47832   4.276   8.731   7.340 -0.6385 -0.3725 -0.7039
  355MOL0     C47833   4.238   8.671   7.473  0.1564 -0.0223  0.1570
  355MOL0     C47834   4.090   8.722   7.484 -0.2404  0.3506  0.1772
  355MOL0    Cl47835   4.005   8.655   7.620 -0.0067 -0.6763  0.4526
  355MOL0     C47836   5.065   8.806   7.139 -0.0226  0.1728  0.7485
  355MOL0     C47837   5.202   8.815   7.144 -0.5414 -0.3786 -0.5047
  355MOL0     O47838   5.390   8.961   6.933  0.2543 -0.3577  0.2814
  355MOL0     C47839   5.686   8.806   7.058 -0.3490  0.5725 -0.2524
  355MOL0     C47840   5.824   8.832   7.059 -0.2944 -0.6791  0.4436
  355MOL0     N47841   6.596   8.813   6.645 -0.4448 -0.4457 -0.5482
  355MOL0     N47842   6.617   8.806   6.520 -0.0193  0.1725  0.1310
  355MOL0     C47843   7.327   9.511   5.870  0.1915 -0.2217  0.1770
  355MOL0     C47844   7.356   9.640   5.829  0.0189  0.2024  0.0339
  355MOL0     C47845   7.353  10.011   5.532 -0.0644 -0.2167 -0.1130
  355MOL0     C47846   7.282  10.094   5.444  0.8300 -0.3987  0.7595
  355MOL0     C47847   7.348  10.200   5.382 -1.0834  0.6731 -0.3500
  355MOL0     C47848   7.485  10.220   5.398 -0.0409  0.6599  0.0133
  355MOL0     O47849   7.545  10.314   5.320 -0.5895  0.6327 -0.4352
  355MOL0     C47850   7.687  10.299   5.286  0.1255  0.1036 -0.4886
  355MOL0     C47851   7.709  10.330   5.134  0.5897  0.4329  0.5065
  355MOL0     C47852   7.657  10.197   5.070  0.3965  0.3925  0.0799
  355MOL0     C47853   7.694  10.168   4.924 -0.0639  0.5044  0.6464
  355MOL0     C47854   7.651  10.281   4.845 -0.1823 -0.1830  0.0583
  355MOL0     C47855   7.624  10.367   4.767  0.6994 -0.5157  0.1567
  355MOL0     C47856   7.551  10.135   5.482 -0.3808  0.3454  0.8659
  355MOL0     C47857   7.493  10.030   5.550  0.3451  0.2938 -0.3004
  355MOL0     H47858   7.220   9.625   5.522 -0.0276 -1.7279 -0.8555
  355MOL0     H47859   7.176   9.411   5.588 -0.4172  1.1273 -0.3434
  355MOL0     H47860   7.072   9.262   5.725  0.3169  0.4862 -0.7375
  355MOL0     H47861   7.132   9.120   5.821 -1.5256  0.2990 -0.6313
  355MOL0     H47862   7.122   9.279   6.021 -0.1262  2.2340 -0.8997
  355MOL0     H47863   7.029   9.390   5.912  0.9862  0.6165  0.9095
  355MOL0     H47864   6.845   9.231   5.911 -1.4286 -1.3247  0.3624
  355MOL0     H47865   6.933   9.085   5.932  0.6511  0.1452  0.3878
  355MOL0     H47866   6.938   9.113   6.178 -1.7195  0.0974  0.2217
  355MOL0     H47867   6.876   9.277   6.158  2.1603  1.0224 -2.1551
  355MOL0     H47868   6.671   9.181   6.059  0.6951  0.3549 -1.3618
  355MOL0     H47869   6.739   9.023   6.055 -2.2769  1.6846 -1.8215
  355MOL0     H47870   6.747   9.022   6.310 -0.4815 -0.3467  1.8751
  355MOL0     H47871   6.658   9.173   6.320  0.4791 -0.5885 -0.0438
  355MOL0     H47872   6.449   9.072   6.263 -0.9200 -0.7038  0.1665
  355MOL0     H47873   6.520   9.003   6.123  0.9217 -1.8800 -0.1451
  355MOL0     H47874   6.611   8.819   6.276 -1.0969 -0.7527  1.8474
  355MOL0     H47875   6.438   8.826   6.264  0.6548 -0.2251 -1.8900
  355MOL0     H47876   6.375   9.027   6.545  0.4352 -0.8847  0.4359
  355MOL0     H47877   6.484   8.887   6.887 -0.7373  0.2843  0.8976
  355MOL0     H47878   6.448   9.043   6.819 -2.1729  1.2110 -2.3958
  355MOL0     H47879   6.274   8.796   6.809  0.5303  0.2190  1.2218
  355MOL0     H47880   6.225   8.963   6.745  1.5570  0.4497  0.0243
  355MOL0     H47881   6.202   9.057   6.943 -2.0577 -0.4334 -1.7253
  355MOL0     H47882   6.303   8.943   7.032 -0.6985 -0.0646  0.9204
  355MOL0     H47883   6.101   8.801   7.071 -0.0189 -2.0898 -1.3556
  355MOL0     H47884   6.059   8.822   6.903 -0.3147 -1.1673  0.7026
  355MOL0     H47885   5.826   9.173   7.010 -0.7317  0.0335  1.1741
  355MOL0     H47886   5.492   9.172   7.090  1.7944  3.9357  1.8152
  355MOL0     H47887   5.632   9.250   7.045  1.5143 -2.3559  1.7299
  355MOL0     H47888   5.529   9.199   6.908 -2.9284 -2.4849  0.3390
  355MOL0     H47889   5.277   8.618   6.867 -2.7410 -2.4921 -0.4158
  355MOL0     H47890   5.032   8.617   6.862  1.4062  2.7878 -3.0718
  355MOL0     H47891   4.797   8.683   6.858  0.7248  4.0897  1.5360
  355MOL0     H47892   4.818   8.537   6.955  0.4418  1.0498  1.3992
  355MOL0     H47893   4.618   8.760   6.962 -0.4115 -0.5182 -3.3008
  355MOL0     H47894   4.579   8.601   6.904 -0.6853 -0.9324  1.1472
  355MOL0     H47895   4.667   8.657   7.189 -0.0088  5.9271 -2.1368
  355MOL0     H47896   4.567   8.522   7.127 -1.5664  0.3822 -0.1045
  355MOL0     H47897   4.475   8.813   7.142 -0.9105  0.2662 -0.6590
  355MOL0     H47898   4.385   8.679   7.071  0.2861 -2.0043 -0.2386
  355MOL0     H47899   4.475   8.701   7.376  0.0677 -1.3311  0.4309
  355MOL0     H47900   4.396   8.565   7.290 -4.0818  0.3139  0.3724
  355MOL0     H47901   4.279   8.839   7.353 -1.0728 -0.3748 -0.5611
  355MOL0     H47902   4.201   8.712   7.262 -1.6808 -0.0175  0.1941
  355MOL0     H47903   4.297   8.711   7.556  3.3095  0.4287 -2.1153
  355MOL0     H47904   4.250   8.562   7.472  2.5618  0.1789 -0.7710
  355MOL0     H47905   4.031   8.699   7.395 -1.5593  2.5458  0.4227
  355MOL0     H47906   4.095   8.830   7.500 -0.3047  0.4497 -0.4585
  355MOL0     H47907   5.008   8.850   7.220 -0.9009  0.0189  0.2283
  355MOL0     H47908   5.256   8.859   7.227 -0.7509 -1.1823  0.0653
  355MOL0     H47909   5.646   8.707   7.078 -2.3008  1.3461 -0.0681
  355MOL0     H47910   5.884   8.744   7.079 -0.1034 -1.0527 -1.5185
  355MOL0     H47911   7.346   9.482   5.973 -0.9935 -1.3516  0.1002
  355MOL0     H47912   7.405   9.707   5.898  1.3668 -2.3437  1.7151
  355MOL0     H47913   7.178  10.082   5.417  1.2911  1.8499 -2.4740
  355MOL0     H47914   7.288  10.264   5.318 -2.6367 -1.2954 -0.9708
  355MOL0     H47915   7.735  10.368   5.355 -1.1486 -1.4971  2.1693
  355MOL0     H47916   7.722  10.198   5.312 -2.1351 -0.3984  0.9285
  355MOL0     H47917   7.813  10.345   5.104  0.1615  0.9838 -0.7515
  355MOL0     H47918   7.641  10.410   5.103  1.0256  0.4568 -0.3899
  355MOL0     H47919   7.550  10.177   5.080  1.0566 -3.0624  1.8504
  355MOL0     H47920   7.706  10.114   5.122 -0.2639  0.6303  1.0935
  355MOL0     H47921   7.648  10.075   4.891  0.0963  0.3107  0.9634
  355MOL0     H47922   7.803  10.165   4.913 -0.2423 -1.6886 -1.3753
  355MOL0     H47923   7.586  10.447   4.708 -3.9392 -0.5189  2.7079
  355MOL0     H47924   7.653  10.151   5.516 -1.4596  2.7254  3.3254
  355MOL0     H47925   7.556   9.965   5.610 -1.2706  0.3084  1.4857
  356MOL0     O47926  10.421   5.325   8.261  0.2103  0.6234 -0.0639
  356MOL0     C47927  10.417   5.397   8.161 -0.3419  0.2499 -0.1828
  356MOL0     O47928  10.303   5.448   8.101 -0.1430  0.0483 -0.7047
  356MOL0     C47929  10.193   5.475   8.180  0.2118 -0.1166  0.4739
  356MOL0     C47930  10.063   5.437   8.149  0.1665  0.2184  0.0524
  356MOL0     C47931   9.959   5.464   8.238 -0.4776  0.4099  0.2504
  356MOL0     C47932   9.977   5.546   8.346  0.0240  0.7054 -0.1833
  356MOL0     O47933   9.881   5.573   8.438  0.1767  0.3048  0.1593
  356MOL0     C47934   9.778   5.478   8.486  0.3920 -0.3102 -0.5691
  356MOL0     C47935   9.700   5.552   8.591  0.7353 -0.2896 -0.2333
  356MOL0     C47936   9.626   5.674   8.548  0.5016 -0.0564 -0.0709
  356MOL0     C47937   9.481   5.636   8.497 -0.2156 -0.0380 -0.3579
  356MOL0     C47938   9.415   5.773   8.457 -0.4463  0.3426 -0.2405
  356MOL0     C47939   9.264   5.789   8.434  0.3217 -0.6998  0.5318
  356MOL0     C47940   9.224   5.756   8.292 -0.0482 -0.4569  0.8890
  356MOL0     C47941   9.071   5.736   8.274 -0.4700  0.2981 -0.3810
  356MOL0     N47942   9.053   5.649   8.162  0.6903  0.3365  1.0405
  356MOL0     C47943   9.032   5.518   8.173 -0.1681 -0.8569 -0.3670
  356MOL0     C47944   9.006   5.475   8.055  0.7521  0.6542  0.3965
  356MOL0     C47945   8.986   5.332   8.012  0.1516 -0.1369  0.6543
  356MOL0     C47946   9.091   5.282   7.917 -0.0244  0.1561 -0.8286
  356MOL0     C47947   9.087   5.129   7.908  0.4864 -0.5957 -1.0705
  356MOL0     C47948   9.199   5.091   7.810 -0.4525  0.7998 -0.4688
  356MOL0     O47949   9.184   4.951   7.794  0.5216 -0.4846 -0.0082
  356MOL0     C47950   9.213   4.907   7.669 -0.6951 -0.3454 -0.0126
  356MOL0     C47951   9.354   4.887   7.636 -0.6085 -0.1232 -0.1034
  356MOL0     C47952   9.389   4.837   7.513 -1.1792 -0.1670 -0.0854
  356MOL0     C47953   9.535   4.805   7.484  0.2998 -0.0598  0.5204
  356MOL0     C47954   9.287   4.806   7.424 -0.0350  0.3486  0.3669
  356MOL0     C47955   9.314   4.757   7.284  0.1647 -0.4628  0.5483
  356MOL0     O47956   9.249   4.821   7.182  0.8369 -0.4944 -0.7329
  356MOL0     C47957   9.284   4.784   7.057  0.6616  0.5825  0.3962
  356MOL0     C47958   9.406   4.811   6.994  0.4268 -0.1465  0.5007
  356MOL0     C47959   9.420   4.771   6.860  0.0805  0.7588  0.1063
  356MOL0     C47960   9.323   4.701   6.788 -0.1160  0.8790  0.8465
  356MOL0     O47961   9.348   4.671   6.661  0.3602  0.9708 -0.0357
  356MOL0     C47962   9.239   4.628   6.577 -0.0554 -0.0862  1.1787
  356MOL0     C47963   9.293   4.567   6.451  0.3545  1.0486  0.2291
  356MOL0     C47964   9.179   4.544   6.350 -0.6748 -0.4286  1.1025
  356MOL0     C47965   9.233   4.463   6.222 -0.2376  0.2058  0.8978
  356MOL0     C47966   9.132   4.455   6.108  0.0027  0.1939  0.4276
  356MOL0     C47967   9.005   4.373   6.139  0.5097  0.2188 -0.5867
  356MOL0     C47968   8.960   4.265   6.039 -0.7951  0.0341 -0.5303
  356MOL0     C47969   8.953   4.299   5.892  0.5779 -0.1211  0.2103
  356MOL0    Cl47970   8.874   4.452   5.870 -0.4781  0.1528 -0.2278
  356MOL0     C47971   9.198   4.686   6.851  1.0211  0.0523 -0.1788
  356MOL0     C47972   9.181   4.721   6.985  0.3753 -0.2284 -0.8406
  356MOL0     O47973   9.403   4.671   7.278  0.2886 -0.6130  0.4971
  356MOL0     C47974   9.156   4.827   7.458  0.7252  0.3043  0.0695
  356MOL0     C47975   9.118   4.868   7.584  0.5868  0.1369  0.2508
  356MOL0     N47976   9.015   5.582   7.968 -0.0994  0.3621 -0.2359
  356MOL0     N47977   9.042   5.686   8.031  0.0255  0.2539  0.0925
  356MOL0     C47978  10.100   5.608   8.369 -0.1507 -0.9694  0.1432
  356MOL0     C47979  10.206   5.553   8.296  0.2564  0.0663 -0.1577
  356MOL0     C47980  10.544   5.449   8.097  0.4665 -0.1358  0.5670
  356MOL0     C47981  10.669   5.398   8.138  0.1964 -0.2699  0.6669
  356MOL0     C47982  10.787   5.432   8.069  0.2746 -0.5688  0.2926
  356MOL0     C47983  10.785   5.542   7.976 -0.6286  0.6375 -0.0328
  356MOL0     O47984  10.907   5.590   7.921  0.4529  0.1796  0.2930
  356MOL0     C47985  11.028   5.570   7.991 -0.0829 -0.7579 -0.4126
  356MOL0     C47986  11.141   5.673   7.959 -0.4893  0.3690 -0.0515
  356MOL0     C47987  11.259   5.635   8.051 -0.4005 -0.2896  0.0581
  356MOL0     C47988  11.349   5.761   8.067 -0.7484  0.2262  0.1599
  356MOL0     C47989  11.476   5.733   8.129  0.9195  0.3808 -1.2237
  356MOL0     C47990  11.570   5.733   8.209 -0.3474  0.5950  0.1491
  356MOL0     C47991  10.660   5.593   7.941 -0.0793  0.5128  0.4404
  356MOL0     C47992  10.539   5.546   7.995  1.3320 -0.1048  0.0150
  356MOL0     H47993  10.054   5.365   8.068 -0.6858 -0.6732  0.9154
  356MOL0     H47994   9.861   5.428   8.211  0.6927 -1.9836 -1.1996
  356MOL0     H47995   9.717   5.441   8.403  0.0820 -1.4737  0.1554
  356MOL0     H47996   9.829   5.394   8.533  0.6716 -1.0112 -2.0682
  356MOL0     H47997   9.625   5.485   8.635  0.3899 -0.5568 -1.1909
  356MOL0     H47998   9.764   5.590   8.671 -1.9118  0.3639  1.7116
  356MOL0     H47999   9.604   5.729   8.640 -1.0335 -1.0449  0.1806
  356MOL0     H48000   9.684   5.743   8.486  1.2230  1.2895  1.9891
  356MOL0     H48001   9.474   5.574   8.407 -1.2620  3.5105 -2.9164
  356MOL0     H48002   9.425   5.588   8.578  0.6336 -0.9467 -0.2748
  356MOL0     H48003   9.432   5.831   8.548 -0.1997  0.6305 -0.4711
  356MOL0     H48004   9.472   5.812   8.373  3.1823  1.0340  2.3268
  356MOL0     H48005   9.205   5.731   8.505  0.2065 -0.2115  0.8443
  356MOL0     H48006   9.238   5.892   8.460 -3.1674 -1.4590  0.4748
  356MOL0     H48007   9.264   5.838   8.232  0.9276 -1.7170 -0.2168
  356MOL0     H48008   9.278   5.662   8.288 -0.9965 -1.1030  2.1610
  356MOL0     H48009   9.017   5.830   8.258 -1.8720 -0.3076  0.5678
  356MOL0     H48010   9.037   5.690   8.367  0.6929  4.2370  2.2162
  356MOL0     H48011   9.051   5.461   8.262  0.5798  2.7936  2.0288
  356MOL0     H48012   8.975   5.260   8.094  2.2750  0.0709  1.2033
  356MOL0     H48013   8.894   5.327   7.954 -0.1509  1.5139  0.9697
  356MOL0     H48014   9.190   5.307   7.955  0.6785 -0.3272 -2.2605
  356MOL0     H48015   9.075   5.322   7.817  0.2199  1.0782 -0.5073
  356MOL0     H48016   8.993   5.095   7.863  0.0547 -0.7795 -0.0574
  356MOL0     H48017   9.088   5.087   8.009  0.4950  3.6725  0.9103
  356MOL0     H48018   9.301   5.115   7.839 -0.6292  1.1719 -0.1340
  356MOL0     H48019   9.177   5.140   7.714 -1.1100  1.4089 -0.0268
  356MOL0     H48020   9.433   4.924   7.702  1.3411 -1.2801 -1.6686
  356MOL0     H48021   9.546   4.872   7.398 -1.1020  0.2353  0.5496
  356MOL0     H48022   9.595   4.846   7.566  0.3851  0.8404  0.0322
  356MOL0     H48023   9.550   4.699   7.464  3.7447  0.8153 -3.0733
  356MOL0     H48024   9.483   4.862   7.050  1.3723 -0.1783 -0.7106
  356MOL0     H48025   9.505   4.801   6.799 -2.2369  1.0624 -3.2496
  356MOL0     H48026   9.165   4.567   6.630 -3.7963  2.6577 -0.3650
  356MOL0     H48027   9.189   4.718   6.540 -0.4294  0.6338  3.2778
  356MOL0     H48028   9.371   4.624   6.399  0.2882  0.0601 -1.0070
  356MOL0     H48029   9.333   4.470   6.484 -3.2184 -0.3001  1.0670
  356MOL0     H48030   9.151   4.644   6.316 -0.9721 -0.6121  0.8006
  356MOL0     H48031   9.094   4.491   6.394 -2.7684  1.1171 -0.8895
  356MOL0     H48032   9.326   4.514   6.198 -1.3422  2.6268  1.4256
  356MOL0     H48033   9.263   4.362   6.252 -0.0781  0.2844  1.0037
  356MOL0     H48034   9.161   4.413   6.011 -0.0033  0.7259  0.1919
  356MOL0     H48035   9.109   4.557   6.076  0.0084  0.0997  0.1172
  356MOL0     H48036   9.010   4.315   6.232 -1.6777  0.0326 -0.5284
  356MOL0     H48037   8.931   4.450   6.161  1.8633  1.0550  1.3456
  356MOL0     H48038   8.861   4.230   6.068 -0.5626 -0.5063 -0.3947
  356MOL0     H48039   9.035   4.187   6.051  0.7572  1.8988  3.9772
  356MOL0     H48040   8.902   4.222   5.833  0.1901  0.0190  0.3573
  356MOL0     H48041   9.052   4.300   5.845 -0.5576  0.0712 -2.3908
  356MOL0     H48042   9.107   4.653   6.801  0.3886 -1.1708  1.6665
  356MOL0     H48043   9.085   4.700   7.032  0.9932  2.2082  1.8299
  356MOL0     H48044   9.085   4.784   7.387 -0.0382 -0.6422  1.3629
  356MOL0     H48045   9.013   4.866   7.610  0.1853  1.8385 -1.0076
  356MOL0     H48046  10.111   5.660   8.464 -1.0023  2.0186 -1.2818
  356MOL0     H48047  10.300   5.580   8.343 -0.1608  0.5477  0.4055
  356MOL0     H48048  10.673   5.319   8.212 -0.6974 -2.5751 -1.5737
  356MOL0     H48049  10.878   5.377   8.091  0.9954  0.6119  0.2809
  356MOL0     H48050  11.003   5.579   8.097 -0.6310 -0.8476 -0.5315
  356MOL0     H48051  11.058   5.467   7.969 -1.5986 -1.1827 -0.5663
  356MOL0     H48052  11.099   5.774   7.971  0.4862  0.6596  1.0814
  356MOL0     H48053  11.173   5.657   7.856  1.1752 -0.8208  0.5986
  356MOL0     H48054  11.318   5.553   8.010  1.9354  1.9589 -1.3944
  356MOL0     H48055  11.224   5.609   8.151 -0.6612  1.4753  0.4627
  356MOL0     H48056  11.294   5.834   8.126  0.9745  0.5914  1.3837
  356MOL0     H48057  11.363   5.803   7.967 -1.7310 -0.1333 -0.1340
  356MOL0     H48058  11.663   5.744   8.262  0.8194 -3.2625 -0.7680
  356MOL0     H48059  10.659   5.673   7.868 -0.1031 -0.3663 -0.5510
  356MOL0     H48060  10.441   5.573   7.957  1.4408 -1.4252 -1.2578
  357MOL0     O48061   2.781   3.585   4.927 -0.2436  0.6467 -0.1422
  357MOL0     C48062   2.812   3.474   4.978  0.1418 -0.3678 -0.3928
  357MOL0     O48063   2.760   3.419   5.086  0.1305  0.5213 -0.5703
  357MOL0     C48064   2.648   3.475   5.146 -0.1945 -0.3125 -0.0018
  357MOL0     C48065   2.649   3.513   5.277 -0.3076  0.2551 -0.6516
  357MOL0     C48066   2.533   3.558   5.337  0.6741  0.9639 -0.0548
  357MOL0     C48067   2.418   3.576   5.255  0.5298  0.1437 -0.1635
  357MOL0     O48068   2.303   3.640   5.297  0.8069 -0.1165 -0.1300
  357MOL0     C48069   2.313   3.738   5.402  0.4480 -0.0924  0.0629
  357MOL0     C48070   2.171   3.791   5.416  0.3697  0.4453 -0.3527
  357MOL0     C48071   2.125   3.867   5.288 -0.5957  0.3453 -0.4501
  357MOL0     C48072   1.973   3.874   5.295 -0.4225 -0.4189  0.2334
  357MOL0     C48073   1.929   3.939   5.167  0.4648  0.1525 -0.2030
  357MOL0     C48074   1.768   3.954   5.152 -0.3341  0.3461  0.1325
  357MOL0     C48075   1.688   3.999   5.274  0.3112 -0.3221  0.2940
  357MOL0     C48076   1.547   4.061   5.241 -0.3930  0.3268  0.8947
  357MOL0     N48077   1.453   3.977   5.170 -0.5104 -0.4686 -0.1280
  357MOL0     C48078   1.324   3.951   5.214 -0.5959 -0.6713  0.0734
  357MOL0     C48079   1.270   3.884   5.115  0.5045  0.4698  0.1921
  357MOL0     C48080   1.134   3.827   5.095 -0.1731 -0.2429  0.3196
  357MOL0     C48081   1.126   3.709   5.199 -0.0390  0.4789  0.7413
  357MOL0     C48082   0.985   3.653   5.210 -0.0238  0.2945 -0.1940
  357MOL0     C48083   0.967   3.576   5.349 -0.3415  0.0329  0.2551
  357MOL0     O48084   0.872   3.461   5.335 -0.1141 -0.3414 -0.2621
  357MOL0     C48085   0.739   3.488   5.345 -0.2717 -0.3467  1.2055
  357MOL0     C48086   0.672   3.486   5.466  0.8653 -0.4528 -0.6289
  357MOL0     C48087   0.534   3.529   5.472 -0.3898  1.3590  0.5872
  357MOL0     C48088   0.459   3.543   5.608  1.0427  0.1701  0.4229
  357MOL0     C48089   0.472   3.561   5.350 -0.0130  0.6927  0.6088
  357MOL0     C48090   0.319   3.588   5.341 -0.7147 -1.4430 -0.7332
  357MOL0     O48091   0.262   3.542   5.234  0.8362 -0.4419  0.2686
  357MOL0     C48092   0.125   3.532   5.232 -0.2440 -0.1195  0.1151
  357MOL0     C48093   0.074   3.419   5.288  0.9209  0.0533 -1.6431
  357MOL0     C48094  -0.071   3.409   5.309  0.1315 -0.1375 -0.1015
  357MOL0     C48095  -0.158   3.504   5.259  0.0258  0.1867  0.1679
  357MOL0     O48096  -0.294   3.499   5.281  0.2595  0.4121 -0.5469
  357MOL0     C48097  -0.367   3.379   5.330 -0.5816 -0.5106 -0.7526
  357MOL0     C48098  -0.518   3.388   5.341  0.2163  0.1055  0.0691
  357MOL0     C48099  -0.582   3.249   5.351 -0.5402  0.4263 -0.3706
  357MOL0     C48100  -0.742   3.271   5.356  0.4019  0.0150  0.2153
  357MOL0     C48101  -0.821   3.141   5.378 -0.2964 -0.5211  0.8295
  357MOL0     C48102  -0.944   3.144   5.466 -0.4019 -1.2703  0.0221
  357MOL0     C48103  -0.945   3.049   5.587 -0.1344  0.8702  0.8562
  357MOL0     C48104  -1.077   3.054   5.665  0.8602 -0.4114 -0.4684
  357MOL0    Cl48105  -1.223   2.972   5.585 -0.2625 -0.1980  0.3456
  357MOL0     C48106  -0.099   3.617   5.190  0.4737  0.5267 -0.1708
  357MOL0     C48107   0.038   3.630   5.183 -0.0206 -0.0177  0.0541
  357MOL0     O48108   0.265   3.654   5.432 -0.3581 -0.4969  0.5073
  357MOL0     C48109   0.541   3.547   5.229 -0.2291 -0.7219  0.7242
  357MOL0     C48110   0.675   3.512   5.225  0.2657 -0.4268 -0.2063
  357MOL0     N48111   1.362   3.872   5.007  0.0435  1.2430  0.1103
  357MOL0     N48112   1.470   3.918   5.050  0.1864 -0.7381 -0.5232
  357MOL0     C48113   2.414   3.531   5.122  0.2259  0.0167 -0.2387
  357MOL0     C48114   2.533   3.483   5.067  0.0396 -0.3857  0.2881
  357MOL0     C48115   2.917   3.407   4.903  0.3309 -0.2846  0.4241
  357MOL0     C48116   2.979   3.456   4.789  0.0505 -0.4376  0.5591
  357MOL0     C48117   3.090   3.385   4.733 -0.3429  1.1734 -1.2265
  357MOL0     C48118   3.139   3.264   4.792 -0.0970 -0.8798 -0.5981
  357MOL0     O48119   3.254   3.202   4.753  0.8357  0.2259 -0.1854
  357MOL0     C48120   3.286   3.203   4.615 -0.6660  0.0719  0.1551
  357MOL0     C48121   3.391   3.086   4.598  0.0441  0.7282 -0.4017
  357MOL0     C48122   3.498   3.094   4.709 -0.7890 -0.5320 -0.0930
  357MOL0     C48123   3.579   3.229   4.717  0.3703 -0.3969 -0.0861
  357MOL0     C48124   3.641   3.270   4.594  0.0671  0.2228 -0.2356
  357MOL0     C48125   3.698   3.310   4.490  0.2048 -0.3657  0.1066
  357MOL0     C48126   3.076   3.222   4.907  0.1574 -0.2976 -0.1544
  357MOL0     C48127   2.957   3.283   4.955 -0.6377  0.1840 -0.2718
  357MOL0     H48128   2.741   3.500   5.332  0.2150 -0.4495 -1.6601
  357MOL0     H48129   2.531   3.582   5.442 -0.8975  2.4417 -0.3610
  357MOL0     H48130   2.354   3.688   5.491  3.0798 -1.8225 -1.9591
  357MOL0     H48131   2.379   3.824   5.383 -0.7095  0.9803  0.7073
  357MOL0     H48132   2.107   3.703   5.423  0.8575  0.0895 -0.3586
  357MOL0     H48133   2.157   3.842   5.512  1.2869  0.4496 -0.2170
  357MOL0     H48134   2.169   3.966   5.272  0.5174 -0.0344  0.1450
  357MOL0     H48135   2.150   3.816   5.195 -4.3622  0.3097 -1.6220
  357MOL0     H48136   1.932   3.772   5.294  1.3033 -1.2679 -3.6589
  357MOL0     H48137   1.952   3.927   5.388  2.8825 -1.6398  1.8693
  357MOL0     H48138   1.969   4.041   5.173 -2.9806  1.5919  1.5826
  357MOL0     H48139   1.978   3.897   5.079  1.9046  0.1336  0.5816
  357MOL0     H48140   1.754   4.032   5.077 -0.1250 -2.4779 -3.0453
  357MOL0     H48141   1.721   3.864   5.113  0.8799 -0.4760  0.5218
  357MOL0     H48142   1.676   3.916   5.345 -3.0230  1.1032  1.5995
  357MOL0     H48143   1.748   4.076   5.324  0.5066  0.2909 -0.8704
  357MOL0     H48144   1.550   4.156   5.187 -1.0368 -0.0433  0.1822
  357MOL0     H48145   1.504   4.073   5.341 -5.1355  2.3638 -1.0520
  357MOL0     H48146   1.270   3.997   5.296 -0.5424 -1.8834  0.8016
  357MOL0     H48147   1.061   3.898   5.133  0.1732 -0.7569  2.0382
  357MOL0     H48148   1.119   3.791   4.993  2.5954 -1.0862  0.1299
  357MOL0     H48149   1.146   3.754   5.296  0.6662  2.3255 -0.1962
  357MOL0     H48150   1.198   3.636   5.162  0.1102  0.6685  0.6595
  357MOL0     H48151   0.954   3.589   5.127  0.1621 -1.1792  0.8272
  357MOL0     H48152   0.910   3.733   5.205 -3.2630 -2.5585 -2.8617
  357MOL0     H48153   0.932   3.647   5.424  0.0333  0.1806  0.2952
  357MOL0     H48154   1.069   3.547   5.376 -0.1373  2.2483  2.2001
  357MOL0     H48155   0.734   3.466   5.553 -0.1336  0.4188  0.3181
  357MOL0     H48156   0.373   3.475   5.615  0.6831  0.2856 -1.9349
  357MOL0     H48157   0.524   3.516   5.692 -1.5585 -1.4148  2.0842
  357MOL0     H48158   0.425   3.644   5.632 -1.9835 -1.1801  2.3909
  357MOL0     H48159   0.146   3.352   5.334  2.2708  0.2399 -3.3808
  357MOL0     H48160  -0.115   3.318   5.350 -2.1518  1.8435  2.2124
  357MOL0     H48161  -0.337   3.293   5.268 -2.1860 -1.8133  0.1988
  357MOL0     H48162  -0.322   3.364   5.429 -0.9167  1.0033 -0.3521
  357MOL0     H48163  -0.551   3.453   5.423  2.0588  2.3737 -0.8858
  357MOL0     H48164  -0.550   3.426   5.244 -0.3955 -2.0830 -0.6554
  357MOL0     H48165  -0.550   3.202   5.444 -2.0193 -1.4422 -0.7407
  357MOL0     H48166  -0.559   3.180   5.269  0.0225  0.4113 -0.2035
  357MOL0     H48167  -0.755   3.333   5.446  0.3475 -0.3450  0.4574
  357MOL0     H48168  -0.781   3.330   5.273 -0.2841 -1.4272 -0.5187
  357MOL0     H48169  -0.752   3.059   5.401 -0.1236 -0.3999  0.7429
  357MOL0     H48170  -0.857   3.102   5.282  0.3755 -0.4424  0.5353
  357MOL0     H48171  -0.960   3.247   5.499  2.2006 -1.0964  1.0597
  357MOL0     H48172  -1.023   3.120   5.395  0.0787 -0.6171 -0.7588
  357MOL0     H48173  -0.858   3.077   5.647 -0.1706 -1.5435  2.1900
  357MOL0     H48174  -0.932   2.944   5.556 -2.5292  0.4457  1.1268
  357MOL0     H48175  -1.107   3.159   5.677  1.7770 -0.0410 -1.3359
  357MOL0     H48176  -1.066   3.001   5.760  1.2869  0.6829  0.1100
  357MOL0     H48177  -0.170   3.691   5.155  2.5550  1.3992 -2.9565
  357MOL0     H48178   0.074   3.718   5.131 -0.7065 -0.7679 -1.7987
  357MOL0     H48179   0.489   3.551   5.133 -1.4795 -3.2273  1.2265
  357MOL0     H48180   0.719   3.487   5.129  0.5028 -1.6630  0.2082
  357MOL0     H48181   2.325   3.536   5.061  0.7729  3.0673 -0.9401
  357MOL0     H48182   2.537   3.456   4.962 -0.1695  0.6877 -0.0083
  357MOL0     H48183   2.954   3.557   4.758  0.3583  0.8450  4.0372
  357MOL0     H48184   3.142   3.419   4.645  1.3517  2.6668  0.2675
  357MOL0     H48185   3.196   3.182   4.557 -0.8725  1.6466 -0.1214
  357MOL0     H48186   3.332   3.298   4.587  2.0562 -1.6001 -1.5302
  357MOL0     H48187   3.436   3.088   4.498 -0.6867  1.5448 -0.7261
  357MOL0     H48188   3.344   2.987   4.594  0.1089  0.6403  0.8163
  357MOL0     H48189   3.572   3.014   4.701 -2.4209 -2.2382  0.8759
  357MOL0     H48190   3.463   3.070   4.810  0.6673 -1.1221  0.2967
  357MOL0     H48191   3.656   3.207   4.791 -1.3139 -2.9625  1.0502
  357MOL0     H48192   3.519   3.308   4.764 -0.8515 -0.0417 -2.1027
  357MOL0     H48193   3.758   3.340   4.406  2.0321 -2.1178  0.7053
  357MOL0     H48194   3.108   3.130   4.956 -0.6805 -0.3275  0.3480
  357MOL0     H48195   2.907   3.238   5.039  0.5427  0.6536  0.7148
  358MOL0     O48196   2.624   9.378   4.714 -0.7018  0.3082  0.1177
  358MOL0     C48197   2.665   9.494   4.719  0.9910 -0.3097 -0.4662
  358MOL0     O48198   2.588   9.596   4.714 -0.2033 -0.2666 -0.4461
  358MOL0     C48199   2.455   9.577   4.731 -0.2177 -0.0650 -0.1381
  358MOL0     C48200   2.361   9.528   4.638  0.8418  0.9989  0.7100
  358MOL0     C48201   2.231   9.511   4.666  0.2288 -0.3839 -0.7899
  358MOL0     C48202   2.181   9.535   4.797 -0.6825  0.0095  1.4880
  358MOL0     O48203   2.050   9.508   4.836  0.2110  0.6244 -1.1421
  358MOL0     C48204   1.984   9.394   4.775  0.4035 -0.6180 -0.0906
  358MOL0     C48205   1.896   9.445   4.665 -0.0486  0.1509 -0.4068
  358MOL0     C48206   1.770   9.529   4.702 -0.1086  0.3413  0.3435
  358MOL0     C48207   1.663   9.460   4.795 -0.7032 -0.1233 -0.2848
  358MOL0     C48208   1.555   9.564   4.835  0.5111  0.3589  0.0522
  358MOL0     C48209   1.474   9.503   4.961  0.4306  0.1324 -0.1129
  358MOL0     C48210   1.331   9.559   4.978  0.3632 -0.1402 -0.0489
  358MOL0     C48211   1.262   9.496   5.103 -0.2237 -0.7965 -0.3097
  358MOL0     N48212   1.248   9.586   5.220 -0.9760  0.9305  0.1228
  358MOL0     C48213   1.134   9.645   5.260  0.4280 -0.7213  0.1019
  358MOL0     C48214   1.156   9.696   5.381  0.3551 -0.7534 -0.1195
  358MOL0     C48215   1.049   9.753   5.481 -0.2324 -0.1859 -0.3766
  358MOL0     C48216   0.905   9.721   5.441 -0.3534  1.1235  0.9825
  358MOL0     C48217   0.802   9.791   5.531  0.2216  0.1867 -0.6878
  358MOL0     C48218   0.656   9.753   5.479 -0.5043  0.2584 -0.0400
  358MOL0     O48219   0.634   9.613   5.534 -0.6270 -0.5675  0.4267
  358MOL0     C48220   0.529   9.533   5.504 -0.2183 -1.1007  0.8279
  358MOL0     C48221   0.549   9.402   5.497  0.6499 -0.2735 -0.8807
  358MOL0     C48222   0.448   9.314   5.470  0.1065 -0.1776 -0.1289
  358MOL0     C48223   0.471   9.169   5.485 -0.1148  0.2465 -0.7542
  358MOL0     C48224   0.319   9.361   5.430  0.3430  0.1373 -0.4602
  358MOL0     C48225   0.205   9.281   5.395 -1.1734 -0.1791  0.0827
  358MOL0     O48226   0.082   9.347   5.402  0.6047 -0.2372 -0.5480
  358MOL0     C48227  -0.020   9.299   5.323  0.8613  0.1858 -0.0505
  358MOL0     C48228  -0.152   9.291   5.378 -0.9903  0.6996 -0.1588
  358MOL0     C48229  -0.257   9.252   5.303 -1.0446 -0.2211 -0.5386
  358MOL0     C48230  -0.237   9.229   5.171  0.8937 -0.2299  0.7949
  358MOL0     O48231  -0.341   9.199   5.084  0.2101 -0.1103 -0.3294
  358MOL0     C48232  -0.468   9.269   5.089  0.0660  0.0173 -0.3600
  358MOL0     C48233  -0.510   9.268   4.938 -0.3284  0.7200 -0.1675
  358MOL0     C48234  -0.661   9.301   4.937  0.2834  0.1112 -0.1265
  358MOL0     C48235  -0.721   9.410   5.022  0.6128 -0.7714  0.3367
  358MOL0     C48236  -0.883   9.422   5.005  0.4911 -0.0933  0.0522
  358MOL0     C48237  -0.933   9.541   5.085 -0.9967 -0.2941  0.0297
  358MOL0     C48238  -1.078   9.533   5.122 -0.1553 -0.8645  0.2835
  358MOL0     C48239  -1.169   9.566   4.999 -0.1116  0.5655  0.0538
  358MOL0    Cl48240  -1.169   9.737   4.958  0.0662 -0.1009  0.5868
  358MOL0     C48241  -0.112   9.232   5.104  0.4137  0.2361 -0.8752
  358MOL0     C48242  -0.003   9.263   5.190  0.4960 -0.5670 -0.4870
  358MOL0     O48243   0.230   9.181   5.323  0.0779  0.3306 -0.6654
  358MOL0     C48244   0.298   9.499   5.428 -0.0494 -0.1916  0.2803
  358MOL0     C48245   0.406   9.582   5.458 -0.2069 -0.1449 -0.0782
  358MOL0     N48246   1.291   9.686   5.409 -0.5089  0.0473  0.5356
  358MOL0     N48247   1.347   9.613   5.313  0.3805 -0.4181 -0.2265
  358MOL0     C48248   2.272   9.585   4.884  0.1200  0.9954 -0.1319
  358MOL0     C48249   2.401   9.606   4.858  0.2834 -0.1060  0.5015
  358MOL0     C48250   2.800   9.512   4.748 -0.4976 -0.0107 -0.7613
  358MOL0     C48251   2.860   9.448   4.863  0.0867  0.3795  0.4402
  358MOL0     C48252   2.992   9.457   4.881  1.2422  0.2201  0.0250
  358MOL0     C48253   3.065   9.530   4.787 -0.1565  0.9288  0.4042
  358MOL0     O48254   3.203   9.545   4.797  0.1308  0.4504  0.2299
  358MOL0     C48255   3.261   9.502   4.921  0.4125 -1.1128  0.1583
  358MOL0     C48256   3.416   9.528   4.907  0.2429  0.1517 -0.1360
  358MOL0     C48257   3.501   9.541   5.037 -0.5609 -0.4754  1.0264
  358MOL0     C48258   3.647   9.611   5.004 -0.2076  0.3080 -0.0983
  358MOL0     C48259   3.704   9.643   5.130 -0.7385 -0.3440 -0.5743
  358MOL0     C48260   3.746   9.679   5.237  0.4101 -0.6762  0.2114
  358MOL0     C48261   3.009   9.580   4.671  0.0701  0.3711 -0.3404
  358MOL0     C48262   2.877   9.590   4.666 -0.6160 -0.1863 -0.5810
  358MOL0     H48263   2.397   9.504   4.539 -2.0546  0.8588 -0.3950
  358MOL0     H48264   2.161   9.473   4.592 -1.7068  2.0890 -0.3525
  358MOL0     H48265   2.058   9.326   4.731  0.5065 -0.1819 -0.5977
  358MOL0     H48266   1.921   9.340   4.847  0.9505 -0.0417  0.8404
  358MOL0     H48267   1.944   9.503   4.586 -0.1620  0.4630 -0.2460
  358MOL0     H48268   1.856   9.355   4.616 -1.4271  0.6506 -0.2457
  358MOL0     H48269   1.807   9.617   4.755  2.0941 -0.4415  0.2031
  358MOL0     H48270   1.719   9.559   4.609 -0.1152  1.0877  0.5872
  358MOL0     H48271   1.615   9.385   4.731 -1.7738 -0.1788  0.5447
  358MOL0     H48272   1.715   9.411   4.878  0.9895 -1.0606 -1.8316
  358MOL0     H48273   1.606   9.659   4.857  2.9181 -1.0866  1.2307
  358MOL0     H48274   1.483   9.583   4.756  0.4911 -1.8176 -0.5321
  358MOL0     H48275   1.486   9.394   4.953  1.0907  0.2818 -1.4735
  358MOL0     H48276   1.525   9.531   5.054 -0.4237  0.4499  0.2682
  358MOL0     H48277   1.350   9.663   5.005  1.1610 -1.0622  3.4634
  358MOL0     H48278   1.277   9.548   4.884  1.7826  2.5828 -1.2839
  358MOL0     H48279   1.318   9.404   5.117  2.2504  0.1103 -3.1654
  358MOL0     H48280   1.159   9.469   5.074 -0.2822 -2.8535  1.5514
  358MOL0     H48281   1.038   9.646   5.209  1.2656  2.0961 -1.6390
  358MOL0     H48282   1.063   9.716   5.583 -1.4893 -0.7983 -0.4064
  358MOL0     H48283   1.068   9.860   5.477 -2.6007  0.4788  2.6845
  358MOL0     H48284   0.887   9.613   5.440 -2.9900  1.4142 -2.2196
  358MOL0     H48285   0.878   9.749   5.339 -1.9023 -1.2025  0.6881
  358MOL0     H48286   0.815   9.899   5.543  1.7305  0.1466 -1.7212
  358MOL0     H48287   0.814   9.759   5.635 -2.1855  1.9020  0.2130
  358MOL0     H48288   0.656   9.739   5.371 -2.3652 -1.3269  0.1036
  358MOL0     H48289   0.580   9.825   5.510 -0.5056 -0.1718  0.9947
  358MOL0     H48290   0.641   9.362   5.538  0.2451 -0.2851  0.0637
  358MOL0     H48291   0.382   9.114   5.517 -0.2444  1.1585  0.5265
  358MOL0     H48292   0.506   9.124   5.392  0.9316 -1.3039  0.3340
  358MOL0     H48293   0.552   9.150   5.556  0.0378  0.1909 -0.9416
  358MOL0     H48294  -0.164   9.297   5.485  0.4918  1.2648  0.0001
  358MOL0     H48295  -0.358   9.237   5.342 -1.9644 -0.5390 -2.8949
  358MOL0     H48296  -0.543   9.223   5.155  1.3341  1.2628  2.0959
  358MOL0     H48297  -0.460   9.376   5.111 -1.1630  0.2466 -0.9301
  358MOL0     H48298  -0.452   9.340   4.878  1.5894  1.0592  1.9758
  358MOL0     H48299  -0.485   9.175   4.886 -0.5879  1.0337 -0.8697
  358MOL0     H48300  -0.711   9.204   4.948 -1.1361  0.5109 -2.3961
  358MOL0     H48301  -0.683   9.338   4.836 -0.1857  1.3425  0.4106
  358MOL0     H48302  -0.687   9.397   5.126  1.4490 -0.8943  0.0595
  358MOL0     H48303  -0.676   9.499   4.978  0.9823 -1.8306 -1.5343
  358MOL0     H48304  -0.933   9.337   5.050 -0.1733 -0.0851 -0.6627
  358MOL0     H48305  -0.903   9.426   4.898  0.0189  1.2664  0.1635
  358MOL0     H48306  -0.868   9.571   5.168 -4.7769  1.5865  2.6571
  358MOL0     H48307  -0.926   9.629   5.020 -0.3391  0.1576  0.6963
  358MOL0     H48308  -1.100   9.600   5.205  4.4670 -0.4172  1.4179
  358MOL0     H48309  -1.101   9.431   5.156  1.4036 -1.3266  0.0150
  358MOL0     H48310  -1.272   9.533   5.016  0.4225 -1.7792 -0.9030
  358MOL0     H48311  -1.149   9.505   4.910 -0.1705  1.7989 -0.8414
  358MOL0     H48312  -0.092   9.214   4.999  1.7192 -0.2812 -0.5636
  358MOL0     H48313   0.094   9.270   5.143 -1.5461 -0.4011 -5.3017
  358MOL0     H48314   0.207   9.543   5.390  1.1704  0.7278 -1.7546
  358MOL0     H48315   0.383   9.687   5.447 -0.9772 -0.0960  1.6946
  358MOL0     H48316   2.243   9.599   4.988  0.5216 -1.0312  0.2985
  358MOL0     H48317   2.476   9.655   4.920  1.0935 -1.2925  0.5057
  358MOL0     H48318   2.796   9.394   4.933  0.1346 -1.4007 -0.8069
  358MOL0     H48319   3.026   9.413   4.974 -1.4409  0.5862  1.2616
  358MOL0     H48320   3.215   9.564   4.999 -5.1354 -0.7479 -2.8793
  358MOL0     H48321   3.249   9.395   4.944  2.0905 -0.7351  3.3378
  358MOL0     H48322   3.432   9.621   4.852  2.0343 -0.3959 -0.6012
  358MOL0     H48323   3.456   9.454   4.837 -0.5618 -0.1121 -0.3283
  358MOL0     H48324   3.514   9.445   5.087  3.5411 -0.1159  1.0006
  358MOL0     H48325   3.457   9.606   5.113 -0.7474  1.3290 -0.5291
  358MOL0     H48326   3.639   9.701   4.942  2.0334 -1.3746 -3.1290
  358MOL0     H48327   3.707   9.541   4.946 -2.0144 -0.9465 -0.5629
  358MOL0     H48328   3.768   9.724   5.331 -0.6348  0.6135 -0.1433
  358MOL0     H48329   3.069   9.648   4.611  0.4706  0.5596  0.2670
  358MOL0     H48330   2.827   9.643   4.585  0.5537  2.6345  0.4371
  359MOL0     O48331   5.438   7.102  11.034  0.4202  0.5554 -0.5001
  359MOL0     C48332   5.459   7.073  10.915  0.5992  0.1816 -0.0731
  359MOL0     O48333   5.365   7.076  10.823 -0.2555 -0.8929 -0.3556
  359MOL0     C48334   5.233   7.112  10.841  0.1985  0.8676 -0.7344
  359MOL0     C48335   5.174   7.170  10.955  0.1847  0.2130 -0.0508
  359MOL0     C48336   5.038   7.210  10.942  0.4787 -0.2526 -0.1538
  359MOL0     C48337   4.958   7.194  10.837  0.2619  0.1568  0.7531
  359MOL0     O48338   4.822   7.214  10.826 -0.4547 -0.2129 -0.1456
  359MOL0     C48339   4.752   7.223  10.948 -0.3030 -0.2562  0.9179
  359MOL0     C48340   4.599   7.231  10.919 -0.3693  0.3955 -0.1454
  359MOL0     C48341   4.508   7.235  11.040 -0.2110 -0.3471  0.7631
  359MOL0     C48342   4.364   7.211  10.993  0.0163 -0.5082 -0.1695
  359MOL0     C48343   4.267   7.268  11.096 -0.6688  0.3394  0.7202
  359MOL0     C48344   4.114   7.289  11.059 -0.8021  0.1096  0.0167
  359MOL0     C48345   4.053   7.150  11.028  0.7381 -0.4812 -0.5095
  359MOL0     C48346   3.897   7.166  11.005 -0.1805 -0.2085 -0.0199
  359MOL0     N48347   3.831   7.213  11.124  0.9068  0.1507 -0.7345
  359MOL0     C48348   3.794   7.343  11.149  0.4645  0.1701 -0.3902
  359MOL0     C48349   3.720   7.342  11.260  1.2869 -0.2619  0.5504
  359MOL0     C48350   3.647   7.465  11.322  0.2716 -0.7376 -0.4291
  359MOL0     C48351   3.526   7.522  11.242 -0.3683  0.5326 -0.2684
  359MOL0     C48352   3.417   7.412  11.225  0.4431 -0.0430  0.1535
  359MOL0     C48353   3.304   7.454  11.134 -0.0868 -0.2643 -0.1294
  359MOL0     O48354   3.217   7.540  11.205 -0.7098  0.4717 -0.2249
  359MOL0     C48355   3.082   7.535  11.166 -0.3354  0.1870  0.1015
  359MOL0     C48356   3.046   7.547  11.031 -0.4134 -0.1928  1.0355
  359MOL0     C48357   2.911   7.551  10.989  0.1855 -0.4677 -0.8547
  359MOL0     C48358   2.884   7.558  10.849 -0.4989 -0.6769  0.9778
  359MOL0     C48359   2.813   7.554  11.097 -0.6184  1.1834 -0.4074
  359MOL0     C48360   2.664   7.547  11.076  0.0920  0.5987 -0.0980
  359MOL0     O48361   2.586   7.536  11.189  0.5986 -0.2699 -0.3586
  359MOL0     C48362   2.449   7.500  11.192  0.2417  0.0912 -0.8576
  359MOL0     C48363   2.400   7.478  11.314 -0.0088 -0.3052  0.8836
  359MOL0     C48364   2.269   7.442  11.347 -0.5055  0.2820  0.1858
  359MOL0     C48365   2.180   7.440  11.243  0.2491 -0.4941  0.2603
  359MOL0     O48366   2.050   7.411  11.251 -0.0075 -0.2090 -0.5500
  359MOL0     C48367   1.993   7.376  11.384  0.0166  0.2583  0.1405
  359MOL0     C48368   1.871   7.290  11.339 -0.4384 -0.4394  0.2554
  359MOL0     C48369   1.776   7.234  11.439 -0.5925  0.1452 -0.2257
  359MOL0     C48370   1.666   7.144  11.386 -0.3463  0.6016 -0.0345
  359MOL0     C48371   1.595   7.072  11.503  0.0652 -0.4033  0.6721
  359MOL0     C48372   1.485   6.980  11.442 -0.0255 -0.2754 -0.3379
  359MOL0     C48373   1.409   6.917  11.563  0.1403 -0.2203  0.1362
  359MOL0     C48374   1.294   6.831  11.522 -0.4637 -0.8538 -0.0641
  359MOL0    Cl48375   1.339   6.675  11.446 -0.4911 -0.2882 -0.3158
  359MOL0     C48376   2.222   7.466  11.109  0.0380 -0.1005  0.0790
  359MOL0     C48377   2.359   7.491  11.087  0.7781  0.8924  0.4392
  359MOL0     O48378   2.628   7.524  10.961 -0.5386 -0.1669 -0.1474
  359MOL0     C48379   2.855   7.538  11.229 -0.2129  0.4387  0.1585
  359MOL0     C48380   2.987   7.530  11.266  0.4445  0.3770  0.2515
  359MOL0     N48381   3.711   7.208  11.302 -0.9383  0.4006  0.2001
  359MOL0     N48382   3.778   7.134  11.221  0.3120  0.2967 -0.2123
  359MOL0     C48383   5.017   7.131  10.732  0.0221 -0.1313  0.3347
  359MOL0     C48384   5.153   7.103  10.732  0.0631  0.8290  1.2121
  359MOL0     C48385   5.602   7.043  10.875 -0.7200  0.1498  1.1193
  359MOL0     C48386   5.631   7.003  10.742 -0.4941  0.6775 -0.4627
  359MOL0     C48387   5.751   6.958  10.697  0.5364 -0.2870 -0.2969
  359MOL0     C48388   5.864   6.959  10.777 -0.1638 -0.5777 -0.0347
  359MOL0     O48389   5.984   6.934  10.717 -0.0267  0.0719 -0.2805
  359MOL0     C48390   6.086   7.027  10.756 -0.4417  0.3126 -0.1811
  359MOL0     C48391   6.225   6.949  10.780 -0.2711  0.5360  0.8627
  359MOL0     C48392   6.243   6.844  10.666 -0.4988 -0.4433 -0.0325
  359MOL0     C48393   6.173   6.704  10.692 -0.0110 -0.5286 -0.5400
  359MOL0     C48394   6.198   6.614  10.585  0.0274  0.4233  0.7939
  359MOL0     C48395   6.233   6.552  10.491 -0.2503  0.2403 -0.0664
  359MOL0     C48396   5.843   7.006  10.915  0.3233 -0.3961 -0.7348
  359MOL0     C48397   5.711   7.035  10.965 -0.1129 -0.1034  0.1668
  359MOL0     H48398   5.225   7.196  11.048  1.9858 -0.0265 -0.9361
  359MOL0     H48399   4.993   7.247  11.034 -1.1347 -0.6644 -0.7402
  359MOL0     H48400   4.758   7.132  11.008 -1.1494  0.2436  1.7828
  359MOL0     H48401   4.793   7.308  11.003  2.9684  0.3386 -2.0382
  359MOL0     H48402   4.581   7.322  10.861  0.7719 -0.5988 -2.1400
  359MOL0     H48403   4.575   7.143  10.859  1.8581  0.8477 -1.8125
  359MOL0     H48404   4.526   7.149  11.105 -2.6044 -0.2891  1.5703
  359MOL0     H48405   4.518   7.330  11.093  1.4490 -0.4351  0.6763
  359MOL0     H48406   4.342   7.275  10.906 -4.3035  0.1063  1.1599
  359MOL0     H48407   4.360   7.102  10.980  3.6080 -0.5891 -1.9247
  359MOL0     H48408   4.278   7.211  11.188 -2.3157 -2.6591 -0.8077
  359MOL0     H48409   4.300   7.373  11.102  1.1099 -0.0569 -1.0362
  359MOL0     H48410   4.076   7.336  11.150  0.6799  0.4041  0.5064
  359MOL0     H48411   4.102   7.367  10.983  2.9296  1.3749  0.5285
  359MOL0     H48412   4.103   7.103  10.943  2.2293  0.9583 -0.4707
  359MOL0     H48413   4.066   7.078  11.109  3.2571 -1.0167 -1.3019
  359MOL0     H48414   3.870   7.065  10.973  2.6199 -1.0344 -0.0445
  359MOL0     H48415   3.873   7.238  10.927 -2.6698 -0.7683  0.1413
  359MOL0     H48416   3.819   7.435  11.097  0.4152  1.5697  1.9022
  359MOL0     H48417   3.611   7.434  11.421 -0.0162  1.1046  0.0668
  359MOL0     H48418   3.719   7.544  11.346  0.4731 -1.8804  3.5297
  359MOL0     H48419   3.556   7.547  11.140  1.7606  1.7281  0.5772
  359MOL0     H48420   3.483   7.608  11.295 -0.5719  0.5675 -0.4874
  359MOL0     H48421   3.375   7.393  11.325  0.5038 -2.1657 -0.1871
  359MOL0     H48422   3.463   7.319  11.189 -2.3446 -2.3621  2.1165
  359MOL0     H48423   3.250   7.367  11.095  0.2864 -1.0976  1.1563
  359MOL0     H48424   3.349   7.508  11.051  3.2089 -1.4044  0.7703
  359MOL0     H48425   3.125   7.557  10.957 -1.6022  3.9262  0.0984
  359MOL0     H48426   2.970   7.530  10.788 -0.4370  0.1001  0.7023
  359MOL0     H48427   2.801   7.491  10.825 -2.0619  1.3743  0.3795
  359MOL0     H48428   2.858   7.661  10.822 -0.9107 -0.9565  0.2825
  359MOL0     H48429   2.471   7.479  11.397  0.0456 -1.9160  0.8919
  359MOL0     H48430   2.241   7.450  11.451 -1.9150 -0.7568 -0.0862
  359MOL0     H48431   2.062   7.315  11.443 -0.5653 -0.2438  0.3053
  359MOL0     H48432   1.969   7.462  11.448 -0.6056 -0.0901  0.3809
  359MOL0     H48433   1.821   7.346  11.259 -0.9981 -0.3220  0.6796
  359MOL0     H48434   1.925   7.211  11.287  2.3469  0.9505  0.8160
  359MOL0     H48435   1.738   7.314  11.503 -2.0487  0.7510 -1.7721
  359MOL0     H48436   1.840   7.170  11.501 -4.6440 -2.1819  1.9505
  359MOL0     H48437   1.595   7.210  11.335 -0.4794  1.9717  1.8229
  359MOL0     H48438   1.702   7.067  11.317 -2.1696  0.0082 -0.3643
  359MOL0     H48439   1.559   7.159  11.560  1.0821  1.0957 -0.8493
  359MOL0     H48440   1.660   7.025  11.578 -0.1262  0.4454  1.3972
  359MOL0     H48441   1.418   7.048  11.389 -1.0438 -1.8841 -1.2086
  359MOL0     H48442   1.519   6.901  11.374 -2.2155 -3.9347  2.4376
  359MOL0     H48443   1.371   7.005  11.615 -0.1009  0.6108 -1.3819
  359MOL0     H48444   1.480   6.865  11.627  0.6128  0.2297 -0.0133
  359MOL0     H48445   1.212   6.877  11.466 -2.1085 -0.7473  2.3039
  359MOL0     H48446   1.255   6.805  11.621  1.6035 -1.2428  0.7083
  359MOL0     H48447   2.156   7.449  11.025  1.8378  1.6130 -1.7916
  359MOL0     H48448   2.374   7.505  10.980  0.2871  2.6089  0.5578
  359MOL0     H48449   2.778   7.527  11.305 -0.7100 -0.2658 -0.4399
  359MOL0     H48450   3.023   7.524  11.368  1.8177  1.6858 -0.1166
  359MOL0     H48451   4.946   7.100  10.656 -1.3282  0.6145  1.2577
  359MOL0     H48452   5.207   7.062  10.647  3.4913  0.6590  3.2718
  359MOL0     H48453   5.549   6.999  10.671 -2.3873 -0.2340  1.6228
  359MOL0     H48454   5.760   6.911  10.600  1.5213 -0.7374 -0.0107
  359MOL0     H48455   6.107   7.098  10.676  1.0864  1.3681  1.1003
  359MOL0     H48456   6.067   7.099  10.836  3.3027  4.3126 -2.4087
  359MOL0     H48457   6.217   6.897  10.876  0.4876  0.8795  1.1222
  359MOL0     H48458   6.313   7.014  10.785  2.7605 -2.8826 -2.0629
  359MOL0     H48459   6.349   6.819  10.657 -0.7473 -3.0474  2.6660
  359MOL0     H48460   6.209   6.883  10.570  2.2077  0.5949 -0.6743
  359MOL0     H48461   6.066   6.713  10.712  0.7041  2.3159  3.2615
  359MOL0     H48462   6.220   6.654  10.777 -2.1742 -2.0945 -0.1883
  359MOL0     H48463   6.272   6.492  10.412 -0.5937  1.2232 -1.0000
  359MOL0     H48464   5.927   7.012  10.984 -1.1121  0.6450  1.0119
  359MOL0     H48465   5.677   7.045  11.067 -0.3962 -1.9678  0.2915
  360MOL0     O48466   6.704   9.375   9.803  0.7677 -0.0065 -0.1440
  360MOL0     C48467   6.761   9.287   9.731  0.9036 -0.7018 -0.1840
  360MOL0     O48468   6.700   9.198   9.647  0.0433 -0.8038  0.4672
  360MOL0     C48469   6.567   9.233   9.622  0.2151 -0.8125  0.4510
  360MOL0     C48470   6.479   9.123   9.609 -0.2609  0.4126 -0.7979
  360MOL0     C48471   6.356   9.143   9.555 -1.1740 -0.4217 -0.1647
  360MOL0     C48472   6.301   9.263   9.550 -0.5970  0.0583  0.0799
  360MOL0     O48473   6.170   9.257   9.508 -0.5132  0.4561 -0.7538
  360MOL0     C48474   6.095   9.380   9.515  0.2045 -0.1080  1.0057
  360MOL0     C48475   5.951   9.352   9.489  0.5951 -0.2228 -0.3956
  360MOL0     C48476   5.930   9.298   9.345  0.6996 -0.4175 -0.4401
  360MOL0     C48477   5.777   9.286   9.296 -0.7601 -0.5216  0.4552
  360MOL0     C48478   5.762   9.239   9.150  0.5173  0.2720  0.0185
  360MOL0     C48479   5.619   9.186   9.114  0.4444  0.7755 -0.1313
  360MOL0     C48480   5.579   9.057   9.183  0.1990 -0.9898 -0.1904
  360MOL0     C48481   5.708   8.957   9.189  0.1473 -0.1053  0.0058
  360MOL0     N48482   5.686   8.829   9.262 -0.1904 -0.4045  0.1548
  360MOL0     C48483   5.586   8.730   9.252  0.9520  0.1145 -0.0752
  360MOL0     C48484   5.617   8.639   9.352  0.5216 -0.5110  0.1890
  360MOL0     C48485   5.547   8.506   9.381  0.7021  0.2304 -0.3416
  360MOL0     C48486   5.388   8.512   9.387 -0.6466 -0.3143 -0.1994
  360MOL0     C48487   5.332   8.372   9.395 -0.2937 -0.6532 -0.5664
  360MOL0     C48488   5.178   8.380   9.405 -0.2542 -0.0402  0.1484
  360MOL0     O48489   5.128   8.462   9.506  0.3049 -0.6508  0.1182
  360MOL0     C48490   4.993   8.471   9.525  0.6603  0.0957 -1.2181
  360MOL0     C48491   4.948   8.558   9.626 -0.5669  0.3430  0.9477
  360MOL0     C48492   4.820   8.584   9.658  0.1708 -0.4001 -0.6246
  360MOL0     C48493   4.798   8.695   9.765  0.8175  0.8568  0.4557
  360MOL0     C48494   4.722   8.509   9.596  1.1529  0.2769 -0.1817
  360MOL0     C48495   4.569   8.517   9.625 -0.1698  0.3025 -0.8619
  360MOL0     O48496   4.488   8.454   9.531 -0.1021 -0.2757 -0.2420
  360MOL0     C48497   4.355   8.457   9.561 -0.1436 -0.7761  0.7816
  360MOL0     C48498   4.283   8.574   9.589 -0.6518  0.1474 -0.3018
  360MOL0     C48499   4.149   8.564   9.606  0.5425 -0.9222 -1.2386
  360MOL0     C48500   4.085   8.446   9.610 -0.5912  0.0723 -0.5515
  360MOL0     O48501   3.949   8.446   9.645 -0.5888 -0.2579  0.2882
  360MOL0     C48502   3.874   8.572   9.627 -0.1395 -0.0810  0.0885
  360MOL0     C48503   3.725   8.540   9.617  0.6051 -0.1266 -0.0459
  360MOL0     C48504   3.630   8.649   9.572 -0.5119 -0.5420 -0.2184
  360MOL0     C48505   3.611   8.646   9.420 -0.0028  0.1311 -0.9579
  360MOL0     C48506   3.477   8.701   9.376 -0.2278  0.8332  0.7832
  360MOL0     C48507   3.442   8.842   9.431  0.3573  0.3877 -0.2564
  360MOL0     C48508   3.316   8.903   9.373 -0.1651 -1.0242  0.1662
  360MOL0     C48509   3.262   9.031   9.437  0.4391 -0.2608  0.2842
  360MOL0    Cl48510   3.372   9.169   9.445 -0.1285  0.5213 -0.3849
  360MOL0     C48511   4.157   8.327   9.590 -0.0205  0.1274 -0.0074
  360MOL0     C48512   4.295   8.333   9.561 -0.0186 -1.2142  0.6862
  360MOL0     O48513   4.540   8.569   9.731 -0.2856 -0.3491  0.7018
  360MOL0     C48514   4.764   8.411   9.510 -0.6034  0.0997 -0.0901
  360MOL0     C48515   4.893   8.382   9.480 -1.4255 -0.3592  0.0457
  360MOL0     N48516   5.723   8.693   9.429 -0.7186  0.2751  0.7231
  360MOL0     N48517   5.761   8.807   9.375 -1.6716 -0.4286 -0.1144
  360MOL0     C48518   6.377   9.382   9.571  0.2469  0.0104  0.1969
  360MOL0     C48519   6.512   9.365   9.599  1.0106  0.6693  0.5104
  360MOL0     C48520   6.913   9.300   9.732  0.2645 -0.8901  0.2125
  360MOL0     C48521   6.973   9.395   9.818 -0.2752  0.4863  0.1409
  360MOL0     C48522   7.109   9.402   9.814  0.1143 -0.0635 -0.4451
  360MOL0     C48523   7.189   9.332   9.723  0.5866  0.7812  0.0567
  360MOL0     O48524   7.324   9.343   9.696 -0.4587 -1.3252 -0.0100
  360MOL0     C48525   7.403   9.440   9.764  1.1661 -0.2335 -0.2676
  360MOL0     C48526   7.543   9.381   9.753  0.6941  0.4751 -0.1028
  360MOL0     C48527   7.559   9.258   9.841 -0.1586 -0.2529  0.2080
  360MOL0     C48528   7.672   9.158   9.786  0.6031 -0.4093  0.1860
  360MOL0     C48529   7.792   9.216   9.838  0.7567 -0.1048 -0.7228
  360MOL0     C48530   7.900   9.242   9.887 -0.6136 -0.5778  0.3014
  360MOL0     C48531   7.127   9.242   9.637 -0.9863 -0.0833  0.1918
  360MOL0     C48532   6.992   9.233   9.640  0.9722 -0.1843  0.4478
  360MOL0     H48533   6.519   9.024   9.627 -0.0700  0.9615  2.5826
  360MOL0     H48534   6.291   9.060   9.528  2.0895 -3.0707 -0.4810
  360MOL0     H48535   6.105   9.424   9.615 -1.0877  2.6831  0.0173
  360MOL0     H48536   6.135   9.451   9.441  2.1021  0.3695  2.4148
  360MOL0     H48537   5.923   9.277   9.563 -1.3559 -1.3231 -2.1396
  360MOL0     H48538   5.892   9.443   9.505 -0.3053 -0.9801  0.7165
  360MOL0     H48539   5.977   9.370   9.276  1.3895  2.6589  2.8891
  360MOL0     H48540   5.975   9.199   9.334  0.7325 -0.3686 -0.7704
  360MOL0     H48541   5.713   9.225   9.360 -2.0498  0.4119  0.0748
  360MOL0     H48542   5.734   9.386   9.292  0.6739  0.0938 -1.7983
  360MOL0     H48543   5.785   9.327   9.090  1.2202  0.9064  1.1805
  360MOL0     H48544   5.844   9.170   9.130  2.2237  1.9226  0.9689
  360MOL0     H48545   5.550   9.265   9.147  1.8900  2.1384 -0.2778
  360MOL0     H48546   5.602   9.173   9.007 -1.2730  0.5150  0.1306
  360MOL0     H48547   5.542   9.088   9.281 -0.5490  0.3001 -0.8537
  360MOL0     H48548   5.500   9.007   9.126 -1.5217 -1.3841  2.3578
  360MOL0     H48549   5.794   9.007   9.234  0.1032  1.6862 -1.8056
  360MOL0     H48550   5.730   8.936   9.084 -1.4681  0.9212 -0.5820
  360MOL0     H48551   5.507   8.725   9.177  1.5851 -5.8745 -0.8265
  360MOL0     H48552   5.582   8.440   9.301  3.2669 -0.6053  1.3503
  360MOL0     H48553   5.581   8.470   9.479  0.9214  0.5995 -0.2789
  360MOL0     H48554   5.351   8.567   9.300  1.4530 -0.3869 -1.2012
  360MOL0     H48555   5.371   8.580   9.472  1.5981  1.8947 -1.3949
  360MOL0     H48556   5.366   8.329   9.489  1.5395  0.6715 -0.5563
  360MOL0     H48557   5.370   8.309   9.314  3.5267  0.6543 -0.0330
  360MOL0     H48558   5.140   8.279   9.425  0.3015 -0.1159  0.8746
  360MOL0     H48559   5.137   8.421   9.313  1.3159 -0.2522 -0.6902
  360MOL0     H48560   5.025   8.630   9.652  0.6603 -1.0024  1.1721
  360MOL0     H48561   4.720   8.767   9.739 -0.6676 -0.9482 -0.3268
  360MOL0     H48562   4.789   8.649   9.864  1.8578  0.8863  0.5714
  360MOL0     H48563   4.885   8.761   9.763  1.7996 -0.4136  0.4023
  360MOL0     H48564   4.338   8.667   9.598  0.5578 -0.5400 -0.3999
  360MOL0     H48565   4.102   8.661   9.619  4.6349  1.2383 -0.9074
  360MOL0     H48566   3.895   8.644   9.707 -0.9064  0.5746 -0.2836
  360MOL0     H48567   3.901   8.614   9.530 -1.9663  0.5177 -0.1866
  360MOL0     H48568   3.713   8.449   9.557 -0.1413  2.2185 -3.8088
  360MOL0     H48569   3.694   8.508   9.717 -2.0424 -1.4354 -1.1807
  360MOL0     H48570   3.667   8.746   9.604 -3.2139 -0.2586  2.4786
  360MOL0     H48571   3.534   8.628   9.619  0.3080 -1.3753  1.1474
  360MOL0     H48572   3.688   8.718   9.392  0.1195  0.9064  1.2429
  360MOL0     H48573   3.636   8.550   9.372  1.6201  0.7287 -1.3571
  360MOL0     H48574   3.402   8.626   9.405  1.6636 -1.0921  0.9907
  360MOL0     H48575   3.484   8.711   9.268  1.5657 -0.0303  0.7746
  360MOL0     H48576   3.432   8.847   9.540  0.3357  1.7155 -0.2949
  360MOL0     H48577   3.531   8.901   9.407  0.9299 -0.3864 -0.0216
  360MOL0     H48578   3.225   8.842   9.379 -2.2371  1.8890  0.7000
  360MOL0     H48579   3.335   8.910   9.265  2.8734 -3.1067  0.4524
  360MOL0     H48580   3.240   8.998   9.539 -0.8861  0.4917  0.2693
  360MOL0     H48581   3.170   9.065   9.388  0.0459 -0.5318  0.8226
  360MOL0     H48582   4.116   8.227   9.584  1.8369 -0.5732 -4.3834
  360MOL0     H48583   4.359   8.247   9.546  0.3925 -0.6415 -1.1422
  360MOL0     H48584   4.703   8.328   9.475 -0.7644 -0.2665  0.9860
  360MOL0     H48585   4.915   8.301   9.411 -2.1880 -0.7179  0.2175
  360MOL0     H48586   6.333   9.481   9.562  1.7250  0.8893  1.9094
  360MOL0     H48587   6.575   9.454   9.607  0.7026  0.7459  2.3730
  360MOL0     H48588   6.907   9.442   9.890 -3.2038 -1.5150 -1.0169
  360MOL0     H48589   7.158   9.462   9.890 -0.5779  1.0690 -0.8640
  360MOL0     H48590   7.396   9.535   9.712 -3.0066 -0.4142 -0.3777
  360MOL0     H48591   7.377   9.461   9.869  2.0829  0.4797 -0.1708
  360MOL0     H48592   7.619   9.452   9.785  3.0992 -1.5063 -1.0737
  360MOL0     H48593   7.556   9.357   9.647  0.4479 -0.3772  0.0459
  360MOL0     H48594   7.464   9.204   9.837  0.9375 -2.6070  2.6820
  360MOL0     H48595   7.573   9.283   9.947  0.6194 -1.0111  0.2945
  360MOL0     H48596   7.685   9.165   9.678 -1.2516 -0.8756 -0.0942
  360MOL0     H48597   7.650   9.056   9.818 -0.5211 -0.8523 -1.8536
  360MOL0     H48598   7.997   9.257   9.929 -1.0124  0.1585  0.9754
  360MOL0     H48599   7.184   9.194   9.559 -2.5533 -0.1059 -0.9914
  360MOL0     H48600   6.945   9.172   9.564  1.6045  0.7948 -0.7787
  361MOL0     O48601  11.281   0.378   4.766 -0.3988  0.1586  0.4475
  361MOL0     C48602  11.290   0.479   4.833 -0.2523 -0.3697 -0.0449
  361MOL0     O48603  11.198   0.521   4.923  0.3291  0.7656 -1.0877
  361MOL0     C48604  11.079   0.457   4.938  0.3787 -0.4010 -0.5060
  361MOL0     C48605  10.974   0.541   4.929  0.2408  0.3653  0.3560
  361MOL0     C48606  10.844   0.495   4.955  0.1062 -0.5660 -0.1382
  361MOL0     C48607  10.813   0.361   4.982 -0.3925  0.6478  0.0028
  361MOL0     O48608  10.690   0.301   5.003  0.4504  0.4117 -0.7318
  361MOL0     C48609  10.578   0.383   4.958  0.0069 -0.5129 -0.4515
  361MOL0     C48610  10.446   0.309   4.947  0.4399 -0.7087 -1.5379
  361MOL0     C48611  10.383   0.253   5.084 -0.8104 -0.1580 -0.5632
  361MOL0     C48612  10.278   0.150   5.057  0.0167 -0.7072 -0.6126
  361MOL0     C48613  10.214   0.098   5.189  0.2640 -0.4630 -0.5109
  361MOL0     C48614  10.100  -0.008   5.173 -0.3736  0.8168 -0.4254
  361MOL0     C48615  10.054  -0.062   5.304 -0.1827 -0.1974  0.0342
  361MOL0     C48616   9.974  -0.195   5.296  0.1782 -0.1602 -0.2600
  361MOL0     N48617   9.831  -0.174   5.276  0.2583 -1.2545  0.5060
  361MOL0     C48618   9.772  -0.150   5.154  0.3398 -0.6937  0.5570
  361MOL0     C48619   9.640  -0.125   5.179  0.2719 -0.5207  0.8003
  361MOL0     C48620   9.520  -0.120   5.084 -0.9007  0.1563  0.0516
  361MOL0     C48621   9.553  -0.015   4.976 -0.2598 -0.4572  0.9823
  361MOL0     C48622   9.477   0.123   4.993 -0.0290  0.3623 -0.2065
  361MOL0     C48623   9.524   0.229   4.891  0.6558  0.1632 -0.4852
  361MOL0     O48624   9.433   0.341   4.906 -0.3104 -0.1211  0.2132
  361MOL0     C48625   9.459   0.461   4.842  0.6535 -0.6131 -0.2303
  361MOL0     C48626   9.576   0.489   4.763  0.5370 -0.2174 -0.3441
  361MOL0     C48627   9.594   0.623   4.712 -0.1755 -0.6413  1.0715
  361MOL0     C48628   9.725   0.657   4.641  0.6001 -0.0788 -0.4317
  361MOL0     C48629   9.496   0.725   4.737  0.6526  0.6951 -0.2642
  361MOL0     C48630   9.511   0.863   4.681  0.3950  0.4174  0.2345
  361MOL0     O48631   9.602   0.943   4.742 -0.3496  0.1799 -0.3883
  361MOL0     C48632   9.677   1.037   4.677  0.6286 -0.6239 -0.4967
  361MOL0     C48633   9.688   1.047   4.533 -0.7619 -0.0434 -0.0933
  361MOL0     C48634   9.772   1.140   4.474  0.2071 -0.1600 -0.3270
  361MOL0     C48635   9.849   1.218   4.553 -0.6959 -0.6972 -0.4843
  361MOL0     O48636   9.934   1.309   4.493 -0.4878 -0.1460  0.4683
  361MOL0     C48637  10.067   1.288   4.527 -0.3752 -0.8711 -0.0885
  361MOL0     C48638  10.157   1.326   4.405  0.1738 -1.0486 -0.2049
  361MOL0     C48639  10.231   1.461   4.438 -0.1023  0.0878  0.2642
  361MOL0     C48640  10.378   1.450   4.486  0.6080  0.8492  0.1639
  361MOL0     C48641  10.424   1.592   4.488 -0.2660 -0.4118  0.3720
  361MOL0     C48642  10.585   1.610   4.496  0.6623 -0.3521 -0.5975
  361MOL0     C48643  10.655   1.525   4.603 -0.2572  0.0037 -0.3395
  361MOL0     C48644  10.613   1.563   4.744  0.0720 -0.0181 -0.7531
  361MOL0    Cl48645  10.687   1.450   4.856  0.0905  0.0941 -0.5032
  361MOL0     C48646   9.851   1.204   4.691  0.6990  0.0042 -0.8365
  361MOL0     C48647   9.759   1.116   4.754 -0.1874 -0.1070  0.0746
  361MOL0     O48648   9.436   0.894   4.582 -0.2463 -0.0065 -0.3165
  361MOL0     C48649   9.371   0.691   4.804  0.1416  0.2056 -0.2702
  361MOL0     C48650   9.362   0.561   4.856 -0.3641 -0.0168 -0.0378
  361MOL0     N48651   9.618  -0.128   5.317  0.0666  0.0921  0.7646
  361MOL0     N48652   9.735  -0.152   5.367 -0.5935 -0.0650  0.4616
  361MOL0     C48653  10.924   0.275   5.006 -0.4327 -0.1069 -0.2693
  361MOL0     C48654  11.057   0.315   4.974  0.2174 -0.7229  0.4836
  361MOL0     C48655  11.415   0.561   4.814 -0.3491 -0.7527  0.6674
  361MOL0     C48656  11.426   0.692   4.857  0.4097 -0.4914 -0.1518
  361MOL0     C48657  11.533   0.775   4.813 -0.4719  0.1579 -0.2519
  361MOL0     C48658  11.637   0.723   4.736  0.2842  0.0719  0.5911
  361MOL0     O48659  11.743   0.796   4.681 -0.3097  0.7211  0.6697
  361MOL0     C48660  11.774   0.911   4.751  0.6385 -0.2811  0.6192
  361MOL0     C48661  11.873   0.990   4.672  0.2880 -0.5236 -0.0009
  361MOL0     C48662  11.905   1.128   4.728 -0.4151  0.5450 -0.7354
  361MOL0     C48663  11.959   1.232   4.630  0.3899 -0.5805  0.1901
  361MOL0     C48664  12.100   1.206   4.594  0.3842 -0.5134  0.0900
  361MOL0     C48665  12.213   1.194   4.553 -0.5293  0.8793  0.3284
  361MOL0     C48666  11.630   0.583   4.721  0.1366 -0.0833 -0.1955
  361MOL0     C48667  11.515   0.508   4.740  0.3828  0.8603  0.6956
  361MOL0     H48668  10.986   0.647   4.906  1.1506  0.0074 -0.9226
  361MOL0     H48669  10.764   0.569   4.957  2.0001  1.5726 -0.5143
  361MOL0     H48670  10.574   0.470   5.023  1.0358 -2.5614  2.5672
  361MOL0     H48671  10.599   0.417   4.856 -0.5019 -2.4301 -1.2327
  361MOL0     H48672  10.374   0.380   4.906 -1.7691 -1.9288  0.0203
  361MOL0     H48673  10.470   0.232   4.874  0.4179  0.9250 -3.3316
  361MOL0     H48674  10.465   0.207   5.140 -2.5092 -0.4472  1.8328
  361MOL0     H48675  10.347   0.332   5.151  0.3400 -2.5634  3.1762
  361MOL0     H48676  10.210   0.188   4.980  1.8761 -1.8968 -2.9858
  361MOL0     H48677  10.325   0.067   5.003 -0.9372 -2.0317  0.5082
  361MOL0     H48678  10.290   0.060   5.258 -2.2064 -3.9458  0.5903
  361MOL0     H48679  10.179   0.190   5.238  1.4977 -0.4850  0.4685
  361MOL0     H48680  10.010   0.031   5.126 -1.5660  1.5395  2.2570
  361MOL0     H48681  10.137  -0.092   5.114 -1.3245 -0.1318  0.2802
  361MOL0     H48682  10.137  -0.062   5.375 -1.6729 -1.3755  1.8960
  361MOL0     H48683   9.991   0.014   5.351  0.0953  0.2299 -0.2844
  361MOL0     H48684   9.978  -0.253   5.389 -1.8488  0.7949  0.4921
  361MOL0     H48685  10.009  -0.253   5.210  0.6901  0.3581 -0.4082
  361MOL0     H48686   9.821  -0.152   5.058  1.0137 -2.1827  0.9119
  361MOL0     H48687   9.517  -0.222   5.044 -3.5828 -0.2781  1.1682
  361MOL0     H48688   9.422  -0.098   5.127 -1.4836  1.1331 -1.6681
  361MOL0     H48689   9.526  -0.053   4.877  0.5390  1.3681  0.0245
  361MOL0     H48690   9.662  -0.006   4.968 -0.4980  1.4019 -0.8260
  361MOL0     H48691   9.493   0.156   5.097  0.0555  0.3321 -0.2096
  361MOL0     H48692   9.370   0.112   4.975 -0.5356  2.0364  1.4252
  361MOL0     H48693   9.516   0.189   4.789 -2.5602 -0.4353 -0.1213
  361MOL0     H48694   9.624   0.264   4.915  1.3381 -2.6774  1.1926
  361MOL0     H48695   9.656   0.418   4.742  2.9547  2.3197 -0.3752
  361MOL0     H48696   9.765   0.750   4.681 -1.9173  1.1279 -0.5704
  361MOL0     H48697   9.800   0.579   4.659  1.0229  0.3954 -0.1261
  361MOL0     H48698   9.710   0.667   4.533 -1.3100 -0.8516 -0.2743
  361MOL0     H48699   9.634   0.983   4.464  0.1589 -1.0316  0.0815
  361MOL0     H48700   9.778   1.146   4.366 -3.3862 -2.0256 -0.7726
  361MOL0     H48701  10.090   1.348   4.615  0.0579  2.8181 -2.4923
  361MOL0     H48702  10.084   1.182   4.544  0.9195 -0.8190 -0.8984
  361MOL0     H48703  10.231   1.248   4.382  0.7938 -0.2424 -1.0480
  361MOL0     H48704  10.094   1.333   4.317 -2.3318  0.2934  1.5850
  361MOL0     H48705  10.164   1.516   4.505 -2.5756 -0.3717 -1.6816
  361MOL0     H48706  10.229   1.509   4.339  0.0466  0.8644  0.6307
  361MOL0     H48707  10.387   1.406   4.586 -0.5444 -0.4384 -0.2659
  361MOL0     H48708  10.440   1.395   4.413 -2.9366  0.4388 -2.8185
  361MOL0     H48709  10.374   1.640   4.573 -2.8533 -1.1698 -0.6238
  361MOL0     H48710  10.384   1.642   4.399 -0.3498 -2.0282 -0.5294
  361MOL0     H48711  10.624   1.580   4.398 -0.8162 -1.6533 -0.8429
  361MOL0     H48712  10.609   1.716   4.510  0.3195 -0.1080 -1.7323
  361MOL0     H48713  10.760   1.553   4.598  0.4130 -2.1215  0.4634
  361MOL0     H48714  10.650   1.416   4.590  2.1507 -0.6712  3.0061
  361MOL0     H48715  10.507   1.536   4.744  0.5457 -2.4737  2.4444
  361MOL0     H48716  10.620   1.671   4.763  0.1740 -0.1748  0.1461
  361MOL0     H48717   9.920   1.262   4.751 -0.6844  0.0649  0.7839
  361MOL0     H48718   9.767   1.101   4.861  0.0429 -1.2552 -0.0889
  361MOL0     H48719   9.280   0.749   4.817  0.1749  0.7442 -2.0564
  361MOL0     H48720   9.264   0.539   4.898 -0.6703  0.9556 -0.2047
  361MOL0     H48721  10.902   0.171   5.027  2.0499 -0.4155  1.0914
  361MOL0     H48722  11.135   0.239   4.985 -1.0884 -2.1708  0.0573
  361MOL0     H48723  11.350   0.735   4.922  1.2311 -1.2853  1.4012
  361MOL0     H48724  11.538   0.879   4.843 -1.6634 -0.0606  0.7856
  361MOL0     H48725  11.689   0.978   4.764 -1.1006 -1.7726 -2.1459
  361MOL0     H48726  11.815   0.891   4.850 -1.2444  2.7331  2.1608
  361MOL0     H48727  11.826   1.005   4.574  0.2319 -2.7798 -0.3755
  361MOL0     H48728  11.965   0.935   4.650  0.6979  0.3706 -0.5467
  361MOL0     H48729  11.973   1.129   4.814 -0.9413  3.2001 -0.2591
  361MOL0     H48730  11.811   1.164   4.771 -0.1444 -1.5933  1.9567
  361MOL0     H48731  11.950   1.332   4.672 -3.5483 -0.1501 -1.2536
  361MOL0     H48732  11.896   1.226   4.541 -0.1650 -0.0182  0.5401
  361MOL0     H48733  12.312   1.198   4.512  0.5149  2.1306  2.7603
  361MOL0     H48734  11.713   0.529   4.677  2.4322  1.1588  2.2754
  361MOL0     H48735  11.503   0.409   4.697 -1.3119  2.6829 -3.5568
  362MOL0     O48736   5.157   2.218   3.790 -0.6803 -0.2677  0.0352
  362MOL0     C48737   5.153   2.327   3.848  0.6056 -0.3735 -0.3592
  362MOL0     O48738   5.038   2.391   3.868 -0.4614  0.1796  0.6109
  362MOL0     C48739   4.917   2.318   3.853 -0.3519 -0.9138  0.2092
  362MOL0     C48740   4.821   2.326   3.957  0.0349 -0.3871  0.0782
  362MOL0     C48741   4.688   2.277   3.934  0.1049  0.6439  0.4089
  362MOL0     C48742   4.651   2.219   3.813  0.0230 -0.3886  0.3817
  362MOL0     O48743   4.520   2.182   3.796 -0.1513  0.8493  0.1822
  362MOL0     C48744   4.476   2.128   3.662 -0.8873  0.4382  0.2483
  362MOL0     C48745   4.327   2.091   3.658 -0.1606 -0.2311 -0.5563
  362MOL0     C48746   4.227   2.207   3.690  0.9244 -0.5127  0.4178
  362MOL0     C48747   4.088   2.156   3.730 -0.5291 -0.1688 -0.5234
  362MOL0     C48748   3.993   2.278   3.772  0.2673  0.6705  0.0018
  362MOL0     C48749   3.871   2.213   3.834  0.0088 -0.7533  0.0189
  362MOL0     C48750   3.756   2.312   3.872 -0.9870 -0.6464 -0.6307
  362MOL0     C48751   3.698   2.376   3.742  0.0571  0.1451  0.7869
  362MOL0     N48752   3.564   2.422   3.765 -0.0371 -1.0823  0.6747
  362MOL0     C48753   3.448   2.368   3.713  1.1237  0.1234 -0.3887
  362MOL0     C48754   3.339   2.440   3.759  0.4320  0.3665  0.7395
  362MOL0     C48755   3.193   2.394   3.736  0.7449 -0.2054 -0.6173
  362MOL0     C48756   3.122   2.391   3.600  0.2735 -0.5548 -0.1483
  362MOL0     C48757   2.977   2.418   3.605  0.4267  0.7487  0.3917
  362MOL0     C48758   2.895   2.371   3.487  0.9412  0.0028  0.3325
  362MOL0     O48759   2.936   2.445   3.366  0.2858 -0.8983  0.3727
  362MOL0     C48760   2.855   2.432   3.261  0.5134  1.3462  0.3044
  362MOL0     C48761   2.755   2.332   3.248  0.3736  0.9317  0.3594
  362MOL0     C48762   2.666   2.330   3.142 -0.0335  0.0491 -1.1208
  362MOL0     C48763   2.558   2.233   3.171  0.2212 -0.6809 -0.1875
  362MOL0     C48764   2.675   2.432   3.044 -0.5687  0.2580 -0.5545
  362MOL0     C48765   2.580   2.449   2.933 -0.0836 -0.1073  0.1014
  362MOL0     O48766   2.600   2.555   2.854  0.3146  0.2658  0.9193
  362MOL0     C48767   2.527   2.575   2.735 -0.6419  1.3842 -0.4770
  362MOL0     C48768   2.509   2.477   2.638 -1.0226  0.7510  0.0928
  362MOL0     C48769   2.480   2.509   2.508  1.1756  0.5378  0.3801
  362MOL0     C48770   2.457   2.646   2.473  0.0078 -0.4141 -0.9808
  362MOL0     O48771   2.424   2.687   2.348  0.3733  0.3685 -0.1699
  362MOL0     C48772   2.537   2.668   2.263 -0.4513 -0.5182  0.3055
  362MOL0     C48773   2.651   2.765   2.300  0.4219  0.0480 -0.5204
  362MOL0     C48774   2.739   2.817   2.191 -1.4711  0.4106  0.2988
  362MOL0     C48775   2.850   2.712   2.160 -0.9523 -0.1221 -0.1120
  362MOL0     C48776   2.956   2.762   2.053  0.4035  0.7073 -0.0611
  362MOL0     C48777   2.886   2.765   1.918 -0.1018  0.1612 -0.1639
  362MOL0     C48778   2.989   2.801   1.811 -0.4410 -0.6507  0.1254
  362MOL0     C48779   2.992   2.939   1.751 -0.0173  0.2550 -1.3661
  362MOL0    Cl48780   2.831   2.951   1.670  0.5331 -0.3225 -0.3857
  362MOL0     C48781   2.480   2.746   2.577 -0.0146 -0.0384 -0.0384
  362MOL0     C48782   2.505   2.705   2.709 -0.4057  0.2069 -0.2955
  362MOL0     O48783   2.492   2.365   2.915 -0.2584  0.2852  0.6564
  362MOL0     C48784   2.785   2.523   3.055 -0.2598 -0.1415 -0.4628
  362MOL0     C48785   2.877   2.520   3.159  1.7113  0.3581 -0.5761
  362MOL0     N48786   3.398   2.539   3.839  0.9627 -0.4651 -0.9304
  362MOL0     N48787   3.531   2.529   3.839  0.0959  1.0499  0.5920
  362MOL0     C48788   4.755   2.200   3.715 -0.0973  0.3799  0.2208
  362MOL0     C48789   4.878   2.267   3.728 -0.1002  0.2712  0.4250
  362MOL0     C48790   5.283   2.393   3.901  0.9788 -0.1478 -0.1321
  362MOL0     C48791   5.409   2.369   3.840 -0.9728  0.1147  0.6942
  362MOL0     C48792   5.525   2.439   3.876  0.3037  0.0915 -0.2265
  362MOL0     C48793   5.515   2.546   3.963  0.5410  0.7611  0.2830
  362MOL0     O48794   5.634   2.617   3.982 -1.1808 -0.1904 -0.5675
  362MOL0     C48795   5.635   2.740   4.061  0.7561 -0.2395  0.5141
  362MOL0     C48796   5.766   2.816   4.032  0.0106  0.6086  0.4176
  362MOL0     C48797   5.888   2.721   4.065  0.2364 -0.4606 -0.3386
  362MOL0     C48798   6.015   2.780   4.018  0.2018  0.0776 -0.6990
  362MOL0     C48799   6.033   2.892   4.109  0.2368 -0.0003  0.1775
  362MOL0     C48800   6.028   2.975   4.201 -0.4374 -0.5730  1.0877
  362MOL0     C48801   5.396   2.566   4.028 -0.3567 -0.8530  0.3606
  362MOL0     C48802   5.279   2.497   4.002  0.5734 -0.2086  0.0600
  362MOL0     H48803   4.848   2.390   4.041  4.5841 -0.8657 -0.7918
  362MOL0     H48804   4.613   2.302   4.009  1.3485  0.4144  1.7560
  362MOL0     H48805   4.491   2.202   3.583  2.8441 -0.6756 -0.3038
  362MOL0     H48806   4.536   2.041   3.633  0.9015  1.8179 -0.3693
  362MOL0     H48807   4.300   2.053   3.559 -0.0569 -2.0976  0.0765
  362MOL0     H48808   4.313   2.005   3.725 -0.6662  0.6155  0.4544
  362MOL0     H48809   4.263   2.275   3.768  0.0697  0.2682  0.1539
  362MOL0     H48810   4.224   2.260   3.595  0.1999 -2.1000 -0.4897
  362MOL0     H48811   4.046   2.096   3.648 -2.8796  2.9098 -1.7935
  362MOL0     H48812   4.094   2.088   3.815  0.7633  1.7434  0.9797
  362MOL0     H48813   4.048   2.350   3.834  0.8704  0.3843 -0.1962
  362MOL0     H48814   3.963   2.342   3.689  0.6441  1.9659  0.8311
  362MOL0     H48815   3.825   2.137   3.770  1.3436 -1.0535 -0.6195
  362MOL0     H48816   3.897   2.164   3.928 -1.0405 -0.9257  0.2408
  362MOL0     H48817   3.684   2.260   3.936  1.1148  0.4574  2.9292
  362MOL0     H48818   3.802   2.394   3.927  1.2962 -0.8578 -2.0767
  362MOL0     H48819   3.710   2.305   3.659  3.9731  1.7071 -0.2194
  362MOL0     H48820   3.757   2.463   3.711 -0.0892  0.4355  1.3210
  362MOL0     H48821   3.434   2.283   3.647  0.0139  0.5086 -0.6719
  362MOL0     H48822   3.192   2.289   3.767 -1.3606 -0.4690 -1.3857
  362MOL0     H48823   3.139   2.457   3.808  2.1183 -1.4813  1.6367
  362MOL0     H48824   3.143   2.301   3.542 -0.1240  0.7978 -2.4905
  362MOL0     H48825   3.176   2.473   3.552 -0.1189  1.3236  2.3773
  362MOL0     H48826   2.966   2.527   3.612  1.9640  0.8298  4.4290
  362MOL0     H48827   2.924   2.368   3.687 -1.2253  0.6292 -0.6912
  362MOL0     H48828   2.787   2.390   3.496  0.3636 -2.0630 -1.5042
  362MOL0     H48829   2.907   2.266   3.460 -2.4760 -0.2355 -0.7637
  362MOL0     H48830   2.764   2.252   3.321  2.5965  2.4871  1.9259
  362MOL0     H48831   2.550   2.195   3.274 -2.7772  1.7525  0.6431
  362MOL0     H48832   2.461   2.282   3.161 -0.9397 -2.6506  0.7862
  362MOL0     H48833   2.566   2.159   3.092  0.0970 -2.3889  1.3241
  362MOL0     H48834   2.526   2.371   2.652 -2.4838  0.5015  0.1229
  362MOL0     H48835   2.459   2.433   2.434  1.6378 -0.1757  0.9740
  362MOL0     H48836   2.560   2.562   2.255 -0.5701 -0.4861 -0.5238
  362MOL0     H48837   2.499   2.700   2.166  1.3634  1.1103  0.0606
  362MOL0     H48838   2.590   2.854   2.321 -1.1469 -0.4417 -2.6529
  362MOL0     H48839   2.707   2.724   2.384  1.2518 -2.5636 -2.2447
  362MOL0     H48840   2.797   2.906   2.218  0.7998 -0.3125 -1.8504
  362MOL0     H48841   2.677   2.841   2.105  0.2478  2.2183 -0.5144
  362MOL0     H48842   2.910   2.695   2.250  2.0575  1.1578 -1.7301
  362MOL0     H48843   2.800   2.621   2.127 -0.0199 -0.6306 -0.1313
  362MOL0     H48844   3.043   2.696   2.058  0.3654  0.6793  0.2239
  362MOL0     H48845   2.986   2.863   2.082  0.6896  0.2451  1.2963
  362MOL0     H48846   2.841   2.667   1.896  0.4135 -0.5834  1.8614
  362MOL0     H48847   2.807   2.839   1.928  1.5355  1.9298  0.1580
  362MOL0     H48848   2.988   2.724   1.734 -2.8151  1.5844 -2.2950
  362MOL0     H48849   3.090   2.798   1.854 -0.4451  0.8982  0.3179
  362MOL0     H48850   3.066   2.931   1.670 -2.0645  0.7276 -3.4043
  362MOL0     H48851   3.009   3.016   1.826  1.1209 -0.1818 -1.1521
  362MOL0     H48852   2.484   2.853   2.560  0.3098  0.3253  2.0647
  362MOL0     H48853   2.516   2.790   2.775 -0.2127  1.4298 -1.8458
  362MOL0     H48854   2.816   2.591   2.976 -0.8387  1.0162  0.2734
  362MOL0     H48855   2.950   2.599   3.170 -0.7588  2.4875  1.7614
  362MOL0     H48856   4.735   2.145   3.624  1.9124 -3.3280  1.8263
  362MOL0     H48857   4.944   2.267   3.641  1.8443  0.0145  1.8383
  362MOL0     H48858   5.412   2.286   3.769  0.7050  0.9899 -0.3192
  362MOL0     H48859   5.617   2.414   3.824  0.0001  1.0458 -1.2514
  362MOL0     H48860   5.543   2.799   4.049  0.7282 -0.1372  1.1729
  362MOL0     H48861   5.639   2.705   4.165  0.7334 -2.6872 -0.2509
  362MOL0     H48862   5.776   2.910   4.085  0.5098 -0.7610  2.9033
  362MOL0     H48863   5.768   2.837   3.925 -3.1938  0.1071  0.1657
  362MOL0     H48864   5.872   2.622   4.021 -2.8557 -0.8962  1.4597
  362MOL0     H48865   5.889   2.709   4.174  0.7878  1.7545 -0.0588
  362MOL0     H48866   6.013   2.812   3.914  0.1784  1.0958 -0.3972
  362MOL0     H48867   6.092   2.703   4.017  1.1843  1.0458 -1.1062
  362MOL0     H48868   6.034   3.063   4.261  1.3969  0.9599 -1.1707
  362MOL0     H48869   5.373   2.639   4.105 -1.6100 -1.1251  0.2577
  362MOL0     H48870   5.191   2.513   4.063  1.3810  0.6973  1.0271
  363MOL0     O48871  10.712  10.444   3.822  0.2248  0.6382 -0.4674
  363MOL0     C48872  10.686  10.565   3.826 -0.9289 -0.4852  0.1934
  363MOL0     O48873  10.571  10.630   3.792 -0.4302  0.2416  0.5042
  363MOL0     C48874  10.458  10.560   3.746 -0.1267  0.8983 -0.2427
  363MOL0     C48875  10.337  10.607   3.788 -0.4334  0.0813  0.5263
  363MOL0     C48876  10.217  10.544   3.755 -0.0624 -0.5968  0.0920
  363MOL0     C48877  10.219  10.441   3.656  0.5889  0.0550 -0.2395
  363MOL0     O48878  10.094  10.381   3.634 -0.6088  0.1623 -0.1062
  363MOL0     C48879  10.097  10.244   3.597  0.1961  0.0177 -0.3332
  363MOL0     C48880   9.951  10.198   3.595  0.7806  0.4042  0.9004
  363MOL0     C48881   9.941  10.048   3.548 -0.2822 -0.0847 -0.6403
  363MOL0     C48882   9.793  10.019   3.514  0.0026  1.1018  0.1193
  363MOL0     C48883   9.787   9.864   3.491 -0.2732 -0.3984 -0.2225
  363MOL0     C48884   9.672   9.828   3.401  0.1101  0.3232 -0.4905
  363MOL0     C48885   9.537   9.878   3.448  0.4032 -0.4024 -0.1587
  363MOL0     C48886   9.428   9.820   3.362  0.1032  0.9353  0.3930
  363MOL0     N48887   9.302   9.890   3.384  0.2754  0.5329 -0.4390
  363MOL0     C48888   9.241   9.881   3.504  1.4883 -0.3994 -0.5530
  363MOL0     C48889   9.125   9.946   3.486  0.6652  0.2810 -0.5003
  363MOL0     C48890   9.017   9.939   3.599  0.0112 -0.1063 -0.4023
  363MOL0     C48891   9.035  10.035   3.714  0.5021  0.4178  0.3704
  363MOL0     C48892   8.973   9.992   3.844 -0.2053  0.2240  0.1675
  363MOL0     C48893   8.825   9.957   3.832  0.2069 -0.4027 -0.0131
  363MOL0     O48894   8.760  10.086   3.820  0.0293  0.4050 -0.7909
  363MOL0     C48895   8.628  10.089   3.793  0.2644 -0.4604 -0.5618
  363MOL0     C48896   8.568  10.204   3.750 -1.3956 -0.1477  0.7280
  363MOL0     C48897   8.436  10.227   3.719  0.0020 -0.7628 -0.1609
  363MOL0     C48898   8.400  10.365   3.678 -0.0949  0.9105 -0.1478
  363MOL0     C48899   8.351  10.112   3.732 -0.8151 -0.6600 -0.2338
  363MOL0     C48900   8.204  10.119   3.709 -0.1803 -0.2443  0.3974
  363MOL0     O48901   8.155  10.214   3.616  0.1567  0.0611 -0.1987
  363MOL0     C48902   8.021  10.219   3.602  0.1410  0.4128 -0.5321
  363MOL0     C48903   7.952  10.332   3.631  0.4370 -0.3295  0.4584
  363MOL0     C48904   7.814  10.338   3.629  1.1640  0.1898  0.3545
  363MOL0     C48905   7.742  10.221   3.599  0.4921 -0.3491  0.1629
  363MOL0     O48906   7.602  10.245   3.597  0.2110 -0.0665 -0.4512
  363MOL0     C48907   7.523  10.129   3.582 -0.3384 -0.0571  0.0538
  363MOL0     C48908   7.371  10.171   3.562  0.0884  0.4046  0.2931
  363MOL0     C48909   7.342  10.207   3.416  0.3490  0.4549  0.1521
  363MOL0     C48910   7.194  10.244   3.390  0.0626 -0.7783 -0.0255
  363MOL0     C48911   7.150  10.230   3.248  0.6218  0.3093 -0.4068
  363MOL0     C48912   7.003  10.279   3.234 -0.4469  0.2202 -0.4754
  363MOL0     C48913   6.955  10.280   3.079 -0.8361  0.4055 -0.0870
  363MOL0     C48914   6.948  10.133   3.018 -0.5533  0.3024 -0.0539
  363MOL0    Cl48915   6.925  10.130   2.838 -0.0751 -0.4666  0.2672
  363MOL0     C48916   7.810  10.101   3.570  0.1510  0.4904  0.3927
  363MOL0     C48917   7.948  10.101   3.574 -0.7311  0.8364 -1.1118
  363MOL0     O48918   8.137  10.039   3.770 -0.0704 -0.2739  0.0867
  363MOL0     C48919   8.413   9.990   3.765  0.0604 -0.4917 -0.6652
  363MOL0     C48920   8.547   9.977   3.793 -0.5311  0.2605 -0.4331
  363MOL0     N48921   9.128   9.998   3.363  0.2755 -1.1238  0.5210
  363MOL0     N48922   9.219   9.948   3.292  0.0754  0.4661 -0.4970
  363MOL0     C48923  10.337  10.406   3.598  0.1645  0.5456  0.4921
  363MOL0     C48924  10.456  10.454   3.650 -0.0680  0.3043  0.2351
  363MOL0     C48925  10.805  10.656   3.860  0.6788 -0.0862 -0.3090
  363MOL0     C48926  10.896  10.621   3.965  0.2326 -0.4273 -0.8308
  363MOL0     C48927  10.997  10.715   4.009 -0.5605  0.9864  0.1892
  363MOL0     C48928  11.014  10.838   3.959  0.0125 -0.0561  0.0408
  363MOL0     O48929  11.104  10.932   4.009  0.3208 -0.2017  0.0404
  363MOL0     C48930  11.231  10.890   4.053 -0.9978  0.2007 -0.4436
  363MOL0     C48931  11.311  10.898   3.921  0.2718 -0.2338 -0.3061
  363MOL0     C48932  11.447  10.975   3.930 -0.3696 -0.1081  0.1941
  363MOL0     C48933  11.533  10.921   4.051  1.0209 -0.2347  0.1476
  363MOL0     C48934  11.669  10.966   4.049 -0.6482 -0.1865 -0.3741
  363MOL0     C48935  11.783  11.011   4.049  0.3205 -0.1875  0.7322
  363MOL0     C48936  10.924  10.880   3.852 -0.5918  0.2959  0.6869
  363MOL0     C48937  10.821  10.787   3.808  0.4144  0.2163  0.4894
  363MOL0     H48938  10.349  10.705   3.834  5.3048  0.3957 -0.8793
  363MOL0     H48939  10.120  10.570   3.794 -0.7487 -2.1526 -0.4884
  363MOL0     H48940  10.143  10.239   3.497 -1.7318  1.7612 -1.3830
  363MOL0     H48941  10.146  10.183   3.672 -2.3067 -0.7730  0.7723
  363MOL0     H48942   9.910  10.222   3.694  0.4295  3.8278  0.0767
  363MOL0     H48943   9.895  10.252   3.518  1.3182 -1.9408 -1.2772
  363MOL0     H48944  10.011  10.030   3.466 -1.9815  0.8449 -2.3930
  363MOL0     H48945   9.963   9.981   3.630  0.4970  2.3247  1.2403
  363MOL0     H48946   9.721  10.045   3.593 -1.1882 -1.2499 -0.0841
  363MOL0     H48947   9.763  10.060   3.418 -0.6710  1.2593  0.3914
  363MOL0     H48948   9.881   9.830   3.447 -0.8874  2.5906 -4.3765
  363MOL0     H48949   9.777   9.821   3.592  1.5413 -0.0593  0.1309
  363MOL0     H48950   9.689   9.872   3.303 -0.0223  5.3638  1.4449
  363MOL0     H48951   9.658   9.720   3.397  1.9160 -0.3048  4.2044
  363MOL0     H48952   9.516   9.848   3.551 -1.4821 -1.4747 -0.8024
  363MOL0     H48953   9.540   9.987   3.457  3.1002 -0.4744  0.7292
  363MOL0     H48954   9.418   9.714   3.389 -0.4792  0.2702 -2.1445
  363MOL0     H48955   9.456   9.822   3.257  2.0840  1.5943  0.8951
  363MOL0     H48956   9.280   9.828   3.591  0.4412  1.1049  0.8917
  363MOL0     H48957   8.924   9.968   3.549  1.0253  0.0462 -2.2938
  363MOL0     H48958   9.012   9.839   3.642  1.0978  0.4469  1.1247
  363MOL0     H48959   8.988  10.130   3.687 -1.1988  0.6402  3.5274
  363MOL0     H48960   9.137  10.061   3.743 -0.1695  0.7423  2.6508
  363MOL0     H48961   8.988  10.075   3.913  2.6281  0.0950 -0.1592
  363MOL0     H48962   9.023   9.905   3.888 -1.2192 -0.2010  0.5083
  363MOL0     H48963   8.782   9.913   3.922  1.2190 -0.6687  0.3488
  363MOL0     H48964   8.803   9.891   3.747  1.2260 -1.6550  0.6722
  363MOL0     H48965   8.643  10.281   3.736  0.3603 -1.9865 -0.3445
  363MOL0     H48966   8.476  10.443   3.695 -0.3203  0.9671  0.6429
  363MOL0     H48967   8.376  10.372   3.571  0.2503 -0.2641 -0.3107
  363MOL0     H48968   8.308  10.386   3.733  0.6400 -1.4175  2.1606
  363MOL0     H48969   7.996  10.430   3.648  0.3270 -0.1747 -0.1159
  363MOL0     H48970   7.775  10.435   3.660  2.9143  0.3489  2.3165
  363MOL0     H48971   7.555  10.071   3.494 -0.5993  0.3960 -0.3480
  363MOL0     H48972   7.526  10.074   3.676 -1.6711  2.4648  1.6765
  363MOL0     H48973   7.313  10.086   3.598  0.5057  0.4877  1.1884
  363MOL0     H48974   7.346  10.256   3.627 -0.6763  2.1803 -2.1580
  363MOL0     H48975   7.365  10.122   3.352 -0.4317  0.8476 -0.6843
  363MOL0     H48976   7.391  10.302   3.392 -1.8358  1.8415  0.8217
  363MOL0     H48977   7.130  10.188   3.459 -0.0807  0.2592  0.7028
  363MOL0     H48978   7.174  10.350   3.409 -0.2577 -0.8357 -0.0341
  363MOL0     H48979   7.161  10.127   3.214  2.1161  0.5143 -0.6088
  363MOL0     H48980   7.214  10.281   3.175  0.1852  1.0165 -0.3102
  363MOL0     H48981   6.949  10.208   3.298  0.4593  0.3772  0.4926
  363MOL0     H48982   7.002  10.381   3.274  1.4161 -0.1101  0.5469
  363MOL0     H48983   7.041  10.329   3.032  0.5896 -1.0674  0.9029
  363MOL0     H48984   6.866  10.343   3.069 -1.1425  0.0188  0.2074
  363MOL0     H48985   6.867  10.093   3.080 -0.2211 -0.1838  0.0743
  363MOL0     H48986   7.036  10.072   3.039 -0.2590  0.0241 -1.9339
  363MOL0     H48987   7.768  10.005   3.542 -2.0570  1.4993  0.0483
  363MOL0     H48988   8.008  10.011   3.570 -1.1622  0.5992 -3.2061
  363MOL0     H48989   8.359   9.896   3.770 -0.0958 -0.3609  0.1483
  363MOL0     H48990   8.587   9.876   3.800  1.0818  0.8800 -0.2525
  363MOL0     H48991  10.350  10.341   3.512  1.6936  2.5778 -0.9167
  363MOL0     H48992  10.553  10.431   3.607  0.1146 -0.4013  1.0167
  363MOL0     H48993  10.870  10.523   4.006 -1.9271 -0.3225 -1.7949
  363MOL0     H48994  11.058  10.674   4.089 -1.8186 -0.5194  0.4495
  363MOL0     H48995  11.256  10.945   4.144 -0.4113  0.0193 -0.4921
  363MOL0     H48996  11.227  10.784   4.078 -2.4988 -0.2632 -2.4078
  363MOL0     H48997  11.257  10.942   3.837  1.2780  0.4428 -0.6198
  363MOL0     H48998  11.333  10.798   3.882 -0.5562 -0.0719 -1.2324
  363MOL0     H48999  11.434  11.083   3.938  2.2571  0.2558  0.4731
  363MOL0     H49000  11.503  10.967   3.836 -0.7964  3.1402 -0.4649
  363MOL0     H49001  11.527  10.812   4.040 -0.0853 -0.0855 -1.0198
  363MOL0     H49002  11.482  10.948   4.143  0.7397  0.5017 -0.2164
  363MOL0     H49003  11.882  11.052   4.045  1.0995 -1.6604  2.9913
  363MOL0     H49004  10.930  10.979   3.806 -0.5240 -0.2940 -0.6246
  363MOL0     H49005  10.757  10.816   3.726  2.1508  1.0754 -0.6318
  364MOL0     O49006   6.055   6.613   5.289 -0.2461  0.4569 -0.0486
  364MOL0     C49007   6.154   6.663   5.223  0.3474  0.2244  0.4215
  364MOL0     O49008   6.132   6.753   5.116 -0.4637  0.0329 -0.0709
  364MOL0     C49009   6.006   6.801   5.095 -0.5898 -0.3962  0.0284
  364MOL0     C49010   5.889   6.722   5.050  0.6487 -0.6072 -1.2374
  364MOL0     C49011   5.771   6.786   5.022  0.3943 -0.7077 -0.5133
  364MOL0     C49012   5.752   6.925   5.042 -0.5262 -0.3016  0.5910
  364MOL0     O49013   5.636   6.998   5.028 -0.6327 -0.0976 -0.0401
  364MOL0     C49014   5.509   6.936   5.033  1.1070 -0.2831 -0.4204
  364MOL0     C49015   5.472   6.906   5.187 -0.2293  0.0448  1.0745
  364MOL0     C49016   5.328   6.847   5.199 -0.5868  0.7143  0.2066
  364MOL0     C49017   5.220   6.956   5.219 -0.2973  0.3147  0.6660
  364MOL0     C49018   5.077   6.906   5.264 -0.9770 -0.4747  0.6129
  364MOL0     C49019   5.001   7.030   5.307  0.4178  0.2381  0.6790
  364MOL0     C49020   4.852   7.017   5.325  0.3516  0.8753 -0.2221
  364MOL0     C49021   4.802   7.143   5.396 -0.2472  0.6578  0.5591
  364MOL0     N49022   4.661   7.121   5.424 -0.1826 -0.0577 -0.2152
  364MOL0     C49023   4.578   7.227   5.454  0.7672  0.4683 -0.0034
  364MOL0     C49024   4.463   7.174   5.500 -0.3549 -0.7726  0.7651
  364MOL0     C49025   4.338   7.258   5.531  0.5290  0.0298 -0.4303
  364MOL0     C49026   4.340   7.358   5.651 -0.4266  0.3661  0.3638
  364MOL0     C49027   4.404   7.303   5.777 -0.1631  0.1241 -0.0106
  364MOL0     C49028   4.525   7.383   5.836  0.5085 -0.5391 -0.2493
  364MOL0     O49029   4.639   7.373   5.748  0.1460  0.2260 -0.5944
  364MOL0     C49030   4.759   7.405   5.806 -1.1003 -0.1438  0.0260
  364MOL0     C49031   4.786   7.511   5.892 -0.0969  0.7466  0.2706
  364MOL0     C49032   4.910   7.547   5.941 -0.5763  0.3173  0.1445
  364MOL0     C49033   4.927   7.666   6.034 -0.7732 -0.2823 -0.4174
  364MOL0     C49034   5.025   7.475   5.886 -0.0488 -0.2205 -0.2165
  364MOL0     C49035   5.165   7.521   5.918 -0.4774  0.2468 -0.7369
  364MOL0     O49036   5.262   7.480   5.833  0.1574 -0.3985 -0.0642
  364MOL0     C49037   5.392   7.481   5.875  0.0297 -0.7427 -0.3407
  364MOL0     C49038   5.443   7.368   5.949  0.4857 -0.4103  0.6342
  364MOL0     C49039   5.574   7.358   5.992 -0.6166  0.0426 -0.7151
  364MOL0     C49040   5.661   7.462   5.976  0.3763  0.1266  1.0600
  364MOL0     O49041   5.795   7.460   6.012  0.1912 -0.3935  0.4298
  364MOL0     C49042   5.844   7.345   6.078 -0.2896  0.5510  0.3902
  364MOL0     C49043   5.982   7.372   6.134  0.9046  0.1787 -0.5923
  364MOL0     C49044   6.073   7.453   6.033 -0.2308 -0.5599 -0.5265
  364MOL0     C49045   6.211   7.473   6.098 -0.6051 -0.8107  0.1692
  364MOL0     C49046   6.316   7.494   5.987 -0.3490  0.1970 -0.5604
  364MOL0     C49047   6.450   7.529   6.058 -0.8727  1.0134 -0.8059
  364MOL0     C49048   6.571   7.528   5.962  0.9085  0.1695 -0.3937
  364MOL0     C49049   6.702   7.535   6.038  0.2835  0.4732  0.6041
  364MOL0    Cl49050   6.736   7.692   6.128 -0.1012 -0.0644  0.1794
  364MOL0     C49051   5.612   7.578   5.902  0.3496 -0.3011 -0.1628
  364MOL0     C49052   5.484   7.584   5.847  0.2053  0.1007 -0.9338
  364MOL0     O49053   5.189   7.582   6.024 -0.5880 -0.6111 -0.5276
  364MOL0     C49054   5.005   7.370   5.801 -0.1904  0.2012 -0.2974
  364MOL0     C49055   4.875   7.334   5.763  0.2594  0.7631  0.2669
  364MOL0     N49056   4.475   7.043   5.489  0.2321  0.1128  0.4988
  364MOL0     N49057   4.596   7.003   5.454 -0.3245 -0.1275  0.2231
  364MOL0     C49058   5.859   7.004   5.091  0.0342 -0.2229  0.0903
  364MOL0     C49059   5.986   6.940   5.119  1.1250 -0.2887  0.2304
  364MOL0     C49060   6.288   6.615   5.260  0.2686 -0.3319 -0.4310
  364MOL0     C49061   6.308   6.492   5.325  0.1267 -0.0863 -0.5208
  364MOL0     C49062   6.436   6.442   5.344  0.0453  0.5487 -0.4244
  364MOL0     C49063   6.550   6.515   5.313  0.7483  1.1549  0.3888
  364MOL0     O49064   6.679   6.483   5.348  0.0540  0.1381  0.0193
  364MOL0     C49065   6.703   6.390   5.458 -0.0453  0.6493 -0.3582
  364MOL0     C49066   6.840   6.383   5.511 -0.5204  0.1987  0.5310
  364MOL0     C49067   6.874   6.516   5.576 -0.6344 -0.3018  1.1786
  364MOL0     C49068   7.008   6.509   5.645 -0.3086 -0.3784 -0.4930
  364MOL0     C49069   7.111   6.437   5.569  0.3941 -0.2163 -0.2771
  364MOL0     C49070   7.196   6.366   5.519  0.0274  0.8895  0.1819
  364MOL0     C49071   6.532   6.629   5.235 -0.1407 -0.8237  0.7355
  364MOL0     C49072   6.398   6.675   5.200 -0.4181  0.4603  0.1496
  364MOL0     H49073   5.887   6.614   5.043 -0.4190 -1.0578  3.1650
  364MOL0     H49074   5.691   6.726   4.981 -1.1880  0.4870  0.6718
  364MOL0     H49075   5.428   6.993   4.986 -0.1191 -0.4746  1.3416
  364MOL0     H49076   5.510   6.843   4.975 -3.5347  0.1587 -1.6071
  364MOL0     H49077   5.548   6.835   5.221 -0.8615 -1.4716 -0.5449
  364MOL0     H49078   5.482   6.994   5.253 -2.4633  1.8323 -0.7938
  364MOL0     H49079   5.313   6.794   5.105  2.5428 -0.3806  0.2046
  364MOL0     H49080   5.334   6.784   5.289  1.2629  3.7066  2.3863
  364MOL0     H49081   5.258   7.021   5.299  0.3404  1.4729 -0.5503
  364MOL0     H49082   5.206   7.011   5.126 -2.2296  2.2055  1.9663
  364MOL0     H49083   5.022   6.853   5.186  1.5117 -2.0664 -0.1776
  364MOL0     H49084   5.100   6.843   5.350  1.6645  1.7909  1.7357
  364MOL0     H49085   5.047   7.078   5.394  1.1056 -1.9851  1.5983
  364MOL0     H49086   5.013   7.093   5.218 -2.1949  0.5104  0.4347
  364MOL0     H49087   4.805   7.012   5.226 -0.2568 -3.6275  0.0826
  364MOL0     H49088   4.827   6.922   5.372  0.9474  1.5766  1.5752
  364MOL0     H49089   4.809   7.222   5.320  3.1615 -1.4862 -1.6676
  364MOL0     H49090   4.864   7.180   5.478 -1.0084  0.8318  1.0582
  364MOL0     H49091   4.598   7.334   5.453 -0.4707  0.7609  1.9110
  364MOL0     H49092   4.312   7.318   5.443 -2.2416 -0.0162  0.2700
  364MOL0     H49093   4.260   7.183   5.547  0.7021 -0.6276 -2.4105
  364MOL0     H49094   4.240   7.390   5.680 -0.7127 -0.8199  0.7165
  364MOL0     H49095   4.385   7.451   5.614  0.6846 -0.0516  0.6096
  364MOL0     H49096   4.436   7.200   5.762  1.5730  0.6783 -0.3021
  364MOL0     H49097   4.341   7.306   5.867  0.7724 -0.7933  0.7054
  364MOL0     H49098   4.557   7.338   5.930  1.3675 -4.5919 -2.2385
  364MOL0     H49099   4.493   7.486   5.851 -0.5034 -0.7682 -0.6996
  364MOL0     H49100   4.702   7.573   5.921 -2.0816 -1.5818 -0.3090
  364MOL0     H49101   4.846   7.740   6.044  1.1241  2.7429 -4.3141
  364MOL0     H49102   4.955   7.624   6.131 -0.5552 -1.6417 -1.0464
  364MOL0     H49103   5.005   7.726   5.987  0.0776  0.5088  1.8800
  364MOL0     H49104   5.376   7.284   5.967  1.8660 -1.5722  0.4828
  364MOL0     H49105   5.601   7.262   6.034 -0.6255  0.7758  1.0634
  364MOL0     H49106   5.774   7.308   6.153 -0.8576  1.2846  0.2347
  364MOL0     H49107   5.859   7.258   6.013  0.7239  1.2272 -0.3227
  364MOL0     H49108   5.974   7.422   6.231 -0.6879 -2.0216  0.4702
  364MOL0     H49109   6.031   7.276   6.151  4.9473  2.1528  0.3285
  364MOL0     H49110   6.026   7.550   6.014  1.7078  1.2411  2.9172
  364MOL0     H49111   6.077   7.392   5.942  0.2871  1.7180 -2.1115
  364MOL0     H49112   6.214   7.551   6.174 -1.0869 -1.4596  0.8699
  364MOL0     H49113   6.240   7.387   6.160  1.0442  0.2541  0.9434
  364MOL0     H49114   6.283   7.574   5.920 -1.1465 -0.3814 -0.8766
  364MOL0     H49115   6.326   7.402   5.928 -4.8202 -0.4662 -0.6587
  364MOL0     H49116   6.441   7.624   6.111 -1.7497 -0.2490  1.4276
  364MOL0     H49117   6.457   7.452   6.135 -1.5680  2.5791  0.8924
  364MOL0     H49118   6.562   7.619   5.901 -2.0465 -0.1597 -0.5838
  364MOL0     H49119   6.557   7.439   5.900 -3.9557  0.3558  0.0841
  364MOL0     H49120   6.790   7.530   5.974  0.1045 -1.9414  0.4655
  364MOL0     H49121   6.718   7.445   6.097  0.9337 -0.5176 -1.0294
  364MOL0     H49122   5.684   7.654   5.874 -0.1723  1.4043  2.8059
  364MOL0     H49123   5.451   7.667   5.785 -2.8429  0.2612  0.7414
  364MOL0     H49124   5.083   7.301   5.770  0.8808  2.5539 -3.4576
  364MOL0     H49125   4.859   7.241   5.709  1.9494 -0.7500  2.2307
  364MOL0     H49126   5.857   7.112   5.103 -0.0439 -0.0124 -1.5138
  364MOL0     H49127   6.068   7.001   5.156  1.8391  0.4892 -2.3987
  364MOL0     H49128   6.223   6.429   5.352  1.3072 -0.1834  3.6072
  364MOL0     H49129   6.453   6.346   5.392  2.2212  1.0008 -0.1937
  364MOL0     H49130   6.630   6.410   5.537  0.2505 -0.4579  0.2220
  364MOL0     H49131   6.687   6.286   5.427 -0.3620  0.1723  1.2842
  364MOL0     H49132   6.913   6.361   5.433 -0.2573 -0.1342  0.8625
  364MOL0     H49133   6.848   6.309   5.592  0.4943  0.5624  0.7771
  364MOL0     H49134   6.801   6.534   5.656  1.0094 -0.0100  2.6678
  364MOL0     H49135   6.869   6.594   5.499 -0.0683 -0.2005  1.2442
  364MOL0     H49136   6.996   6.450   5.737 -0.9067 -4.4508 -2.9355
  364MOL0     H49137   7.049   6.608   5.666  0.0553 -0.9592  1.7794
  364MOL0     H49138   7.263   6.295   5.473  0.6603  1.7967 -0.3288
  364MOL0     H49139   6.619   6.690   5.213 -1.2526  0.5418 -0.0639
  364MOL0     H49140   6.382   6.764   5.140 -0.2802  2.6805  3.1946
  365MOL0     O49141   7.268  10.982   1.291  0.4149 -0.8868  0.1035
  365MOL0     C49142   7.321  10.998   1.400 -1.3294 -0.1149  0.3316
  365MOL0     O49143   7.259  11.043   1.508  0.8515 -0.4481 -0.2905
  365MOL0     C49144   7.124  11.061   1.489  0.5908 -0.6191 -0.1870
  365MOL0     C49145   7.090  11.190   1.461 -0.6285 -0.3595 -0.3149
  365MOL0     C49146   6.951  11.219   1.461 -0.0951  0.3694  0.5344
  365MOL0     C49147   6.837  11.130   1.477  0.3995  0.3001  0.7661
  365MOL0     O49148   6.709  11.181   1.474 -0.0993 -0.0742  0.0973
  365MOL0     C49149   6.601  11.087   1.443  0.1353  0.5014 -0.7296
  365MOL0     C49150   6.479  11.159   1.391  0.7215 -0.1173 -0.6971
  365MOL0     C49151   6.410  11.254   1.492  0.2690  0.3393 -0.0256
  365MOL0     C49152   6.256  11.232   1.471  0.0840  0.4625  1.1293
  365MOL0     C49153   6.191  11.310   1.361  0.2329  0.1350 -0.3658
  365MOL0     C49154   6.170  11.460   1.392  0.2220 -0.0063  0.5332
  365MOL0     C49155   6.112  11.537   1.271  1.7861  0.0369 -0.0474
  365MOL0     C49156   5.952  11.521   1.261 -0.1158 -0.1614  0.7041
  365MOL0     N49157   5.897  11.588   1.139 -0.3605  0.0759 -0.1447
  365MOL0     C49158   5.796  11.675   1.144  0.3632  0.0502  0.1670
  365MOL0     C49159   5.781  11.710   1.013  0.2013 -0.7307  0.6738
  365MOL0     C49160   5.672  11.800   0.966  0.3593  0.0907 -0.1339
  365MOL0     C49161   5.602  11.747   0.837 -0.5102  0.3658 -0.7208
  365MOL0     C49162   5.520  11.844   0.765  0.7680 -0.4608 -0.4288
  365MOL0     C49163   5.379  11.880   0.849 -0.3817  0.9057 -0.3257
  365MOL0     O49164   5.328  11.980   0.767  0.6711 -0.1751 -0.2969
  365MOL0     C49165   5.211  12.037   0.808 -0.6944  0.4034 -0.0501
  365MOL0     C49166   5.113  12.065   0.722 -0.0539 -0.3377 -0.1086
  365MOL0     C49167   4.993  12.119   0.759  1.2036  0.2750  0.9205
  365MOL0     C49168   4.888  12.123   0.648  0.2114 -0.1155  0.2756
  365MOL0     C49169   4.975  12.180   0.889  0.0601 -0.3912  0.2475
  365MOL0     C49170   4.843  12.231   0.946  0.4520  0.1529 -0.6279
  365MOL0     O49171   4.726  12.207   0.877  0.2954 -0.2088  0.6613
  365MOL0     C49172   4.626  12.294   0.897  0.3226  0.9977  0.2809
  365MOL0     C49173   4.611  12.403   0.810  0.6344  0.2753 -0.2049
  365MOL0     C49174   4.494  12.484   0.822 -0.0202 -0.4656  0.3601
  365MOL0     C49175   4.394  12.447   0.910 -0.1646  0.4738 -0.1433
  365MOL0     O49176   4.275  12.519   0.932  0.1243 -0.0383  0.6846
  365MOL0     C49177   4.289  12.658   0.977 -0.0293  0.2001 -0.7780
  365MOL0     C49178   4.148  12.711   0.982 -0.2135 -0.9137 -0.1240
  365MOL0     C49179   4.132  12.850   1.037 -0.3071 -0.6995 -0.0579
  365MOL0     C49180   3.988  12.907   1.038 -0.3813  0.5634 -1.1546
  365MOL0     C49181   4.002  13.049   1.081  0.9814 -0.1424 -0.8498
  365MOL0     C49182   3.868  13.124   1.085  0.3598  0.3547  0.0633
  365MOL0     C49183   3.763  13.069   1.184 -0.0745 -0.1669 -1.0499
  365MOL0     C49184   3.650  13.170   1.214 -0.3835  0.9372 -0.3803
  365MOL0    Cl49185   3.508  13.092   1.277 -0.1021 -0.3956  0.0060
  365MOL0     C49186   4.415  12.338   0.995 -0.6584 -0.4043 -0.1878
  365MOL0     C49187   4.529  12.255   0.989 -1.0457 -0.2377  0.4190
  365MOL0     O49188   4.852  12.295   1.049 -0.1564  0.0879  0.0398
  365MOL0     C49189   5.085  12.169   0.972 -0.2967  0.4344  0.2153
  365MOL0     C49190   5.196  12.089   0.940 -0.5807 -0.2453  0.5638
  365MOL0     N49191   5.881  11.666   0.937  0.4762  0.2022 -0.1905
  365MOL0     N49192   5.950  11.591   1.010  0.6169  0.4042  0.2777
  365MOL0     C49193   6.880  11.001   1.515 -0.5631  0.0038  0.5903
  365MOL0     C49194   7.021  10.966   1.518 -1.3379 -0.2571  0.1687
  365MOL0     C49195   7.461  10.949   1.411  0.2466 -0.1052 -0.5706
  365MOL0     C49196   7.544  10.989   1.523  0.1453 -0.3153  0.4835
  365MOL0     C49197   7.679  10.955   1.536  0.4559  0.3265 -0.2847
  365MOL0     C49198   7.730  10.859   1.434  0.6186  0.3803 -0.1182
  365MOL0     O49199   7.863  10.827   1.440  0.1292  0.1004 -0.7554
  365MOL0     C49200   7.956  10.915   1.364  0.0693 -0.7600  0.0902
  365MOL0     C49201   8.096  10.917   1.427  0.3064  0.5973  0.6777
  365MOL0     C49202   8.204  10.988   1.340  1.0205  0.4144  0.1902
  365MOL0     C49203   8.343  10.917   1.333 -0.5160  0.3046  0.1329
  365MOL0     C49204   8.335  10.784   1.269  0.4342  0.0206 -0.0288
  365MOL0     C49205   8.320  10.671   1.229 -0.0619  0.4718  0.7048
  365MOL0     C49206   7.651  10.819   1.329  0.6590 -0.2726  0.0607
  365MOL0     C49207   7.518  10.872   1.313 -0.6101  1.1931  0.6217
  365MOL0     H49208   7.167  11.267   1.456  1.5356 -2.4661 -1.4622
  365MOL0     H49209   6.912  11.318   1.439 -0.5256  0.4019  1.4150
  365MOL0     H49210   6.632  11.018   1.364  0.6617 -0.8679  0.6369
  365MOL0     H49211   6.583  11.033   1.535  3.7262 -1.5676 -1.0565
  365MOL0     H49212   6.502  11.229   1.311  0.3907 -0.6173 -1.2367
  365MOL0     H49213   6.413  11.083   1.348 -0.4731  0.5552 -0.1089
  365MOL0     H49214   6.443  11.231   1.594  2.4720  2.5014 -0.1447
  365MOL0     H49215   6.433  11.360   1.473  1.3164  0.2086  0.4188
  365MOL0     H49216   6.230  11.127   1.461 -2.8608  1.2962 -2.1056
  365MOL0     H49217   6.204  11.277   1.556  1.2745  0.4540  1.8719
  365MOL0     H49218   6.248  11.303   1.267 -0.5097 -2.1340 -0.7076
  365MOL0     H49219   6.099  11.254   1.347 -1.1383  2.1780  0.0458
  365MOL0     H49220   6.107  11.477   1.479 -2.2422  1.4366 -1.3970
  365MOL0     H49221   6.259  11.516   1.423 -1.5116  2.4942  1.3756
  365MOL0     H49222   6.125  11.645   1.285 -0.4585 -0.0132  3.4138
  365MOL0     H49223   6.158  11.508   1.175  0.9074 -1.3736 -0.0713
  365MOL0     H49224   5.903  11.572   1.343  0.1788  2.1680 -0.4898
  365MOL0     H49225   5.922  11.416   1.274  2.9319 -0.8194  3.7453
  365MOL0     H49226   5.730  11.699   1.227  1.0349  2.9158 -0.0521
  365MOL0     H49227   5.597  11.802   1.045 -1.2396  1.3893 -1.5933
  365MOL0     H49228   5.712  11.900   0.950  2.4596 -0.8370 -1.2455
  365MOL0     H49229   5.547  11.657   0.866 -0.3078  0.2569 -0.6710
  365MOL0     H49230   5.688  11.719   0.776  1.3003  0.3644  1.6629
  365MOL0     H49231   5.486  11.790   0.676 -1.1963 -1.9731  1.1179
  365MOL0     H49232   5.570  11.937   0.739  0.0910 -0.4848 -1.9050
  365MOL0     H49233   5.409  11.918   0.947 -0.0757  0.0036 -0.0591
  365MOL0     H49234   5.315  11.791   0.845  2.2430 -1.0858 -3.7372
  365MOL0     H49235   5.133  12.036   0.619  1.5490  0.4533 -0.0458
  365MOL0     H49236   4.809  12.050   0.671 -1.1932  1.2072 -0.1371
  365MOL0     H49237   4.837  12.220   0.641  2.0526  0.7895 -3.2342
  365MOL0     H49238   4.935  12.107   0.550 -0.9585  2.8718 -0.8928
  365MOL0     H49239   4.693  12.438   0.749 -0.1417 -3.1981 -3.6372
  365MOL0     H49240   4.476  12.578   0.771 -1.9816 -1.7105 -1.4208
  365MOL0     H49241   4.336  12.665   1.075 -1.4008 -0.5744 -0.0376
  365MOL0     H49242   4.352  12.715   0.908  1.2450  0.5607  0.6311
  365MOL0     H49243   4.102  12.715   0.883  0.3010  1.5295 -0.3231
  365MOL0     H49244   4.092  12.650   1.053 -0.6129  0.4530  0.7694
  365MOL0     H49245   4.201  12.902   0.970 -0.4458 -1.8622 -1.1553
  365MOL0     H49246   4.155  12.857   1.143 -2.8578  0.5281  0.4818
  365MOL0     H49247   3.946  12.902   0.937 -1.4169 -0.9632 -0.6770
  365MOL0     H49248   3.924  12.851   1.107 -1.6435  1.4163 -1.5939
  365MOL0     H49249   4.072  13.108   1.020  0.7232  2.0127  0.8129
  365MOL0     H49250   4.042  13.044   1.182 -2.8629  0.0248  0.8456
  365MOL0     H49251   3.885  13.228   1.114 -1.1749  0.6356  0.0596
  365MOL0     H49252   3.817  13.123   0.988  1.3685 -3.0087 -0.5785
  365MOL0     H49253   3.815  13.060   1.280 -1.9186  2.3956  0.3003
  365MOL0     H49254   3.717  12.978   1.145 -3.3218  1.0386 -0.3258
  365MOL0     H49255   3.612  13.211   1.120  0.3230 -0.0827 -1.1349
  365MOL0     H49256   3.685  13.261   1.265 -3.2616  1.1640  1.4151
  365MOL0     H49257   4.333  12.321   1.064  0.6830  0.5517  1.7582
  365MOL0     H49258   4.549  12.173   1.056  1.2923  0.9461  1.2556
  365MOL0     H49259   5.078  12.202   1.075 -2.2638  1.7825 -0.2949
  365MOL0     H49260   5.280  12.078   1.007  0.6116  2.3290 -0.3838
  365MOL0     H49261   6.803  10.926   1.529 -0.8084  0.0345 -0.4535
  365MOL0     H49262   7.051  10.864   1.540  2.9504  1.1194  1.9814
  365MOL0     H49263   7.497  11.036   1.608  2.1456  1.3818  0.7426
  365MOL0     H49264   7.738  10.977   1.624  1.2185  1.5241 -1.0586
  365MOL0     H49265   7.941  10.884   1.260 -3.2672  1.6698 -0.3061
  365MOL0     H49266   7.920  11.017   1.355 -0.1071 -0.2690  4.3387
  365MOL0     H49267   8.117  10.811   1.445 -1.3336  0.3475  1.3111
  365MOL0     H49268   8.106  10.958   1.528  3.4165  0.7755  0.4097
  365MOL0     H49269   8.217  11.086   1.385  2.8747  0.9972 -1.5098
  365MOL0     H49270   8.160  10.996   1.240 -0.3593 -1.7312  0.5525
  365MOL0     H49271   8.385  10.906   1.434  0.9839  0.5899 -0.4357
  365MOL0     H49272   8.420  10.974   1.280 -0.2379 -1.0513 -0.9617
  365MOL0     H49273   8.310  10.566   1.207  1.4547  0.6672 -1.2686
  365MOL0     H49274   7.689  10.745   1.260 -2.5312 -1.5670 -0.4982
  365MOL0     H49275   7.458  10.836   1.230  0.6912 -0.5757  0.3828
  366MOL0     O49276   6.465   2.705   0.118  0.8925 -0.3680  0.1078
  366MOL0     C49277   6.537   2.697   0.218 -0.0467 -0.3029  0.2074
  366MOL0     O49278   6.494   2.668   0.343  0.0815 -0.6642 -0.3027
  366MOL0     C49279   6.357   2.643   0.372 -0.0718 -0.0707 -0.3901
  366MOL0     C49280   6.272   2.571   0.294  0.2055 -0.4758 -0.4411
  366MOL0     C49281   6.139   2.563   0.331  0.7392 -0.7627  0.9012
  366MOL0     C49282   6.094   2.614   0.450 -0.2983  0.6259  0.5216
  366MOL0     O49283   5.954   2.592   0.470  0.0223 -0.5403 -0.3656
  366MOL0     C49284   5.917   2.631   0.604 -0.4734 -0.0307  0.2485
  366MOL0     C49285   5.770   2.623   0.642 -0.2295 -0.2019  0.7675
  366MOL0     C49286   5.722   2.478   0.651  0.5727  0.8459  0.4798
  366MOL0     C49287   5.568   2.468   0.657  0.6134 -0.1169  0.0154
  366MOL0     C49288   5.499   2.526   0.533 -0.2463 -0.3735 -0.1519
  366MOL0     C49289   5.353   2.491   0.548  0.5741  0.5428  0.2707
  366MOL0     C49290   5.291   2.515   0.411 -0.7448 -0.1952  0.3562
  366MOL0     C49291   5.144   2.493   0.423  0.3031 -0.2562 -0.1076
  366MOL0     N49292   5.073   2.624   0.457  0.1338  0.1170  0.1769
  366MOL0     C49293   5.034   2.657   0.585  0.1202 -0.0399 -0.4114
  366MOL0     C49294   4.953   2.769   0.574 -0.9510  1.2741  0.1132
  366MOL0     C49295   4.885   2.834   0.690 -0.3508  0.1419  0.5747
  366MOL0     C49296   4.728   2.833   0.681  0.5342  0.4411 -0.1614
  366MOL0     C49297   4.663   2.927   0.775 -0.8054 -0.0161  0.2702
  366MOL0     C49298   4.567   3.017   0.703 -0.0002 -0.2279 -1.1995
  366MOL0     O49299   4.474   3.078   0.800 -0.5523 -0.6903 -0.8415
  366MOL0     C49300   4.362   3.154   0.766  0.0787  0.8059  0.5835
  366MOL0     C49301   4.259   3.178   0.853  0.1638 -0.9595  0.4232
  366MOL0     C49302   4.146   3.249   0.816 -0.5712 -0.8031  0.3232
  366MOL0     C49303   4.038   3.254   0.921 -0.1454 -0.0167  0.2747
  366MOL0     C49304   4.135   3.299   0.682  0.2784 -0.5506 -0.1102
  366MOL0     C49305   4.018   3.372   0.638 -0.0682  0.7064  1.0566
  366MOL0     O49306   3.973   3.350   0.506 -0.1863  0.0334  0.2473
  366MOL0     C49307   3.864   3.419   0.450 -0.4298  0.3562  0.2558
  366MOL0     C49308   3.743   3.414   0.504 -0.0641 -0.8262 -0.8772
  366MOL0     C49309   3.646   3.513   0.485 -0.4586  0.5995  0.6769
  366MOL0     C49310   3.664   3.607   0.379  0.4091 -0.5477  0.9402
  366MOL0     O49311   3.557   3.689   0.357  0.2971 -0.6258  0.0197
  366MOL0     C49312   3.583   3.801   0.267  0.3511  1.0995 -0.8911
  366MOL0     C49313   3.474   3.911   0.279 -0.7823 -0.4453 -0.0434
  366MOL0     C49314   3.335   3.849   0.239 -0.7325 -0.2891  0.4221
  366MOL0     C49315   3.230   3.960   0.236  0.2536  0.4283 -0.2263
  366MOL0     C49316   3.218   4.060   0.352  0.2502  0.0212  0.5955
  366MOL0     C49317   3.083   4.138   0.355  0.3245 -0.3612  0.0035
  366MOL0     C49318   2.958   4.050   0.378  0.2352  0.9904  0.5307
  366MOL0     C49319   2.840   4.148   0.406 -0.4724  0.1270 -0.1873
  366MOL0    Cl49320   2.851   4.245   0.566  0.1117 -0.0775 -0.3211
  366MOL0     C49321   3.793   3.615   0.309 -0.5943 -0.2954 -0.3130
  366MOL0     C49322   3.886   3.517   0.350  0.3926 -0.5471  0.1894
  366MOL0     O49323   3.964   3.441   0.725 -0.2567 -0.2823 -0.0542
  366MOL0     C49324   4.232   3.269   0.591  0.0982  0.8977  0.2167
  366MOL0     C49325   4.344   3.196   0.634  0.1271 -0.4912  0.1373
  366MOL0     N49326   4.942   2.810   0.439  0.1223  0.8110 -0.4771
  366MOL0     N49327   5.004   2.714   0.369  0.1012 -0.1237  0.2095
  366MOL0     C49328   6.176   2.701   0.522 -0.7621  0.3425  0.6667
  366MOL0     C49329   6.305   2.716   0.481 -0.1374 -0.2375  0.4147
  366MOL0     C49330   6.674   2.724   0.189 -0.4507  0.1566 -0.0695
  366MOL0     C49331   6.728   2.720   0.056  1.8296 -0.6234 -0.1615
  366MOL0     C49332   6.858   2.758   0.028  0.2246 -0.4706 -0.5876
  366MOL0     C49333   6.947   2.804   0.125  0.2825  0.5683 -0.6542
  366MOL0     O49334   7.063   2.859   0.080  0.5062 -0.1781 -0.2507
  366MOL0     C49335   7.152   2.912   0.180  0.4211 -0.1309  0.5747
  366MOL0     C49336   7.287   2.930   0.104  0.8636 -0.0850 -0.0814
  366MOL0     C49337   7.336   2.794   0.046  0.6433 -0.1628  0.1232
  366MOL0     C49338   7.471   2.800  -0.022  0.9437  0.6605 -0.4982
  366MOL0     C49339   7.575   2.851   0.069 -0.3339  0.3740 -0.2021
  366MOL0     C49340   7.668   2.885   0.139  0.1175  1.1061  0.1394
  366MOL0     C49341   6.901   2.793   0.260  0.4309 -0.0749  0.4262
  366MOL0     C49342   6.769   2.752   0.288 -0.1656 -0.2327 -0.0108
  366MOL0     H49343   6.298   2.518   0.203 -0.7064  3.2368 -3.0932
  366MOL0     H49344   6.067   2.512   0.267 -2.2370  2.4483  1.3172
  366MOL0     H49345   5.977   2.580   0.679 -1.4007  2.1492  2.6337
  366MOL0     H49346   5.942   2.737   0.620  1.8363 -0.6361  1.0716
  366MOL0     H49347   5.764   2.683   0.733 -1.4897  3.1822 -1.3525
  366MOL0     H49348   5.719   2.676   0.561  0.8024 -0.9746 -0.4237
  366MOL0     H49349   5.757   2.432   0.558 -0.3505  2.1674 -0.5694
  366MOL0     H49350   5.770   2.434   0.739  2.9802  1.0538 -0.6353
  366MOL0     H49351   5.533   2.365   0.659  0.4479 -0.1054 -1.3623
  366MOL0     H49352   5.540   2.523   0.748 -0.5976 -2.9132  1.4559
  366MOL0     H49353   5.504   2.634   0.512 -2.2284  0.0299  1.1785
  366MOL0     H49354   5.542   2.477   0.445  1.1364  0.6847 -0.1214
  366MOL0     H49355   5.339   2.383   0.555 -2.4779  0.8370 -0.0549
  366MOL0     H49356   5.304   2.540   0.633  1.8848 -1.8272  2.5401
  366MOL0     H49357   5.318   2.612   0.367  1.2344 -0.7105  0.3359
  366MOL0     H49358   5.323   2.448   0.331 -2.7537  1.8251 -2.3088
  366MOL0     H49359   5.115   2.431   0.508 -2.8883  0.8072 -0.2966
  366MOL0     H49360   5.109   2.455   0.327 -1.3231  0.3493  0.2145
  366MOL0     H49361   5.068   2.613   0.678  0.5750  0.1360 -0.4944
  366MOL0     H49362   4.913   2.777   0.779  0.5310  1.0890  0.9243
  366MOL0     H49363   4.932   2.933   0.691  1.6770 -0.7123 -1.4057
  366MOL0     H49364   4.692   2.733   0.706 -1.0042  1.4063  1.7688
  366MOL0     H49365   4.705   2.859   0.578 -0.0525 -5.1093 -1.7568
  366MOL0     H49366   4.739   2.986   0.828 -0.1701  0.5473 -1.2225
  366MOL0     H49367   4.611   2.867   0.851  1.6117 -1.0908  1.1901
  366MOL0     H49368   4.509   2.954   0.636 -0.3177 -0.3171 -0.8449
  366MOL0     H49369   4.622   3.092   0.646 -0.3967  1.4209  0.4897
  366MOL0     H49370   4.266   3.140   0.954  0.5487 -3.5009 -0.4961
  366MOL0     H49371   4.028   3.157   0.970  0.1574  1.1005  2.6870
  366MOL0     H49372   4.067   3.320   1.003 -5.2694 -0.2955  2.6734
  366MOL0     H49373   3.937   3.279   0.887 -0.5123  0.5352  1.6916
  366MOL0     H49374   3.716   3.341   0.580 -0.5839  0.9061  0.6767
  366MOL0     H49375   3.557   3.517   0.547 -0.3937  2.4648  0.7305
  366MOL0     H49376   3.677   3.846   0.301  0.2710 -0.2190  1.2578
  366MOL0     H49377   3.601   3.770   0.164 -1.0320  0.6959 -1.0253
  366MOL0     H49378   3.474   3.958   0.377  3.5124 -0.9160  0.3835
  366MOL0     H49379   3.504   3.995   0.216 -1.6588 -0.4731 -0.5250
  366MOL0     H49380   3.313   3.778   0.319  2.1102 -0.4782  1.1266
  366MOL0     H49381   3.351   3.811   0.138  1.4661 -1.4155  1.1346
  366MOL0     H49382   3.244   4.024   0.148 -0.4785 -0.2290 -0.8365
  366MOL0     H49383   3.134   3.912   0.215 -1.2391  1.9741  2.5451
  366MOL0     H49384   3.306   4.121   0.331  1.2312 -2.2004 -2.3152
  366MOL0     H49385   3.227   4.018   0.452 -2.7896 -0.6294  0.6975
  366MOL0     H49386   3.088   4.212   0.435 -1.4949 -0.0998 -0.0664
  366MOL0     H49387   3.073   4.188   0.258 -0.8872 -0.8159 -0.1285
  366MOL0     H49388   2.968   3.986   0.466  1.3071 -1.7823 -1.4844
  366MOL0     H49389   2.936   3.974   0.304 -3.1026  2.0865  0.2462
  366MOL0     H49390   2.758   4.078   0.419 -0.1404  0.0125  1.5936
  366MOL0     H49391   2.822   4.219   0.325  1.4827 -2.2206 -2.9067
  366MOL0     H49392   3.809   3.679   0.223  2.2091 -3.1331 -2.1533
  366MOL0     H49393   3.981   3.500   0.299  1.0232  0.9126  0.8090
  366MOL0     H49394   4.234   3.300   0.487  1.0073  3.0980  0.8425
  366MOL0     H49395   4.426   3.170   0.568 -0.8262 -0.8114 -0.9418
  366MOL0     H49396   6.140   2.746   0.614 -1.3449 -1.1174  1.1855
  366MOL0     H49397   6.369   2.789   0.528 -1.0782  3.3067 -3.2309
  366MOL0     H49398   6.656   2.709  -0.024 -0.3261  0.0336  1.6038
  366MOL0     H49399   6.879   2.775  -0.077 -1.4996 -2.8204 -1.4039
  366MOL0     H49400   7.107   3.004   0.218 -1.6340 -0.2832 -1.2635
  366MOL0     H49401   7.160   2.841   0.263 -0.8151 -0.6493  0.2810
  366MOL0     H49402   7.364   2.964   0.173  0.8955  0.6166 -0.4601
  366MOL0     H49403   7.268   3.001   0.023 -0.7091 -0.5238 -0.1258
  366MOL0     H49404   7.267   2.743  -0.021  0.7841 -0.4993  0.2310
  366MOL0     H49405   7.341   2.723   0.130 -2.0541 -0.3175  0.2389
  366MOL0     H49406   7.467   2.860  -0.114 -0.7945  1.1447 -0.1379
  366MOL0     H49407   7.507   2.705  -0.063  0.3743  1.3786 -2.8105
  366MOL0     H49408   7.747   2.919   0.204  1.1107  2.7882 -1.8279
  366MOL0     H49409   6.957   2.832   0.345 -0.4746  0.6383  0.7159
  366MOL0     H49410   6.741   2.742   0.392  0.5718 -0.7209  0.1498
  367MOL0     O49411   3.124   8.533   9.426  0.9718  0.0569 -0.2354
  367MOL0     C49412   3.081   8.425   9.472  0.5730 -0.7449 -0.3586
  367MOL0     O49413   2.953   8.381   9.466 -0.0310 -0.0163  0.7416
  367MOL0     C49414   2.852   8.453   9.410 -0.2783 -0.0640 -0.4119
  367MOL0     C49415   2.774   8.392   9.315 -0.2708 -0.4773 -0.2566
  367MOL0     C49416   2.673   8.470   9.273  0.4171  0.3942  0.2614
  367MOL0     C49417   2.641   8.599   9.315  0.4844  0.2052  0.9457
  367MOL0     O49418   2.530   8.661   9.257 -0.8474 -0.0363  0.1052
  367MOL0     C49419   2.476   8.771   9.333  0.9146 -0.8410 -0.1710
  367MOL0     C49420   2.349   8.816   9.263 -0.2524  0.2066 -1.5786
  367MOL0     C49421   2.272   8.943   9.322 -0.6151 -0.5106  0.2585
  367MOL0     C49422   2.146   8.965   9.254 -0.0373 -0.1663  0.0643
  367MOL0     C49423   2.096   9.109   9.269  0.0101 -0.4082 -0.2764
  367MOL0     C49424   1.954   9.138   9.224  0.4973  0.7207  0.1750
  367MOL0     C49425   1.842   9.060   9.290 -0.4198  0.0741  0.1306
  367MOL0     C49426   1.822   9.084   9.439  0.6116  0.3973 -0.2954
  367MOL0     N49427   1.699   9.018   9.487  0.2616  0.0800  0.3666
  367MOL0     C49428   1.567   9.046   9.439 -0.3536 -0.0153 -0.3773
  367MOL0     C49429   1.491   8.940   9.464 -0.1227 -0.1405  0.4420
  367MOL0     C49430   1.345   8.925   9.436 -0.5992  0.6381  0.1217
  367MOL0     C49431   1.266   9.045   9.466 -0.3826 -0.8808  0.5636
  367MOL0     C49432   1.131   9.037   9.393 -0.1062 -0.0015 -0.7155
  367MOL0     C49433   1.020   8.970   9.480 -0.2159  0.2135  0.7599
  367MOL0     O49434   0.894   8.979   9.411  0.2431 -0.2814 -0.3637
  367MOL0     C49435   0.784   8.914   9.449  0.9513 -0.8948 -0.2560
  367MOL0     C49436   0.674   8.903   9.365  0.4145  0.5862  0.9364
  367MOL0     C49437   0.549   8.848   9.400 -0.1348  0.6365  0.0081
  367MOL0     C49438   0.439   8.847   9.293 -0.1018 -0.3160 -0.6570
  367MOL0     C49439   0.537   8.778   9.527  0.1410  0.0821  0.6119
  367MOL0     C49440   0.408   8.710   9.570  0.0390  0.0379  0.4206
  367MOL0     O49441   0.296   8.742   9.506 -0.2798 -0.8009 -0.1780
  367MOL0     C49442   0.170   8.691   9.539  0.2956 -0.5262 -0.0382
  367MOL0     C49443   0.057   8.735   9.459 -0.4302  0.4982 -0.6317
  367MOL0     C49444  -0.076   8.692   9.483  0.9942 -0.2144  0.5805
  367MOL0     C49445  -0.102   8.621   9.601 -0.3380 -0.0100  0.9759
  367MOL0     O49446  -0.227   8.572   9.641 -0.5974  0.2595  0.4094
  367MOL0     C49447  -0.345   8.623   9.582 -0.1805 -0.2734  1.0258
  367MOL0     C49448  -0.473   8.569   9.655 -0.0847 -0.2907  0.8440
  367MOL0     C49449  -0.583   8.673   9.619  0.9874  1.1455  1.5399
  367MOL0     C49450  -0.594   8.699   9.466  0.6762  0.5588 -0.6341
  367MOL0     C49451  -0.735   8.753   9.439 -0.2918  0.2236  0.2658
  367MOL0     C49452  -0.745   8.902   9.433 -0.8648 -0.7770 -0.3070
  367MOL0     C49453  -0.902   8.946   9.450  0.1395 -0.1964 -0.7064
  367MOL0     C49454  -0.937   9.075   9.375  0.9827  0.1403 -0.2064
  367MOL0    Cl49455  -1.112   9.134   9.408  0.0246  0.3384 -0.2216
  367MOL0     C49456   0.006   8.567   9.674 -1.0716 -0.8833  0.3993
  367MOL0     C49457   0.139   8.597   9.640 -0.6578  1.0880 -0.5163
  367MOL0     O49458   0.415   8.652   9.673  0.9454  0.1557 -0.1048
  367MOL0     C49459   0.652   8.778   9.607 -1.0751  0.4140  0.0178
  367MOL0     C49460   0.771   8.850   9.576  0.3525  0.0769  0.6677
  367MOL0     N49461   1.572   8.851   9.534  0.1890  0.0575  0.0947
  367MOL0     N49462   1.689   8.897   9.549 -0.2040  0.1000  0.1260
  367MOL0     C49463   2.714   8.650   9.419  0.8872  0.2151  0.3596
  367MOL0     C49464   2.823   8.575   9.465 -0.2471  0.9212 -0.2804
  367MOL0     C49465   3.186   8.337   9.540  0.1771 -0.4728  0.9822
  367MOL0     C49466   3.183   8.202   9.535 -0.6977 -0.5225  0.3147
  367MOL0     C49467   3.275   8.131   9.610 -0.5488  0.7649  0.2159
  367MOL0     C49468   3.379   8.188   9.686  0.0330  0.2217 -0.6774
  367MOL0     O49469   3.478   8.107   9.742  0.1325 -0.0795 -0.2818
  367MOL0     C49470   3.620   8.143   9.721  0.1238 -0.5953 -0.6948
  367MOL0     C49471   3.685   8.059   9.608 -1.0603 -0.5614 -0.5341
  367MOL0     C49472   3.679   7.910   9.655 -0.4410  0.2448  0.1971
  367MOL0     C49473   3.774   7.818   9.565  0.7309 -0.8040 -0.8019
  367MOL0     C49474   3.909   7.858   9.593 -0.3242 -0.5802  0.0515
  367MOL0     C49475   4.024   7.889   9.617  0.2924 -0.5934  0.3965
  367MOL0     C49476   3.387   8.334   9.684 -0.6940  0.0390 -0.0364
  367MOL0     C49477   3.292   8.405   9.619 -0.4805 -0.2289 -0.5125
  367MOL0     H49478   2.795   8.290   9.283  2.1504 -1.1492  2.9868
  367MOL0     H49479   2.591   8.430   9.214 -1.2150  2.5229  0.9445
  367MOL0     H49480   2.448   8.750   9.436 -2.3315 -0.7258 -0.9005
  367MOL0     H49481   2.541   8.859   9.324  0.6471 -0.6234  0.0008
  367MOL0     H49482   2.385   8.832   9.161  1.1170 -1.2912 -1.3683
  367MOL0     H49483   2.284   8.729   9.267 -0.5469  0.4734 -0.2710
  367MOL0     H49484   2.261   8.926   9.430  0.4112 -1.1474  0.2734
  367MOL0     H49485   2.340   9.027   9.303  1.3422 -1.5793  2.0741
  367MOL0     H49486   2.159   8.958   9.146 -0.5830 -0.1103 -0.0079
  367MOL0     H49487   2.071   8.894   9.290 -0.0284  0.6936  1.9234
  367MOL0     H49488   2.109   9.133   9.375  0.1180 -2.0235  0.1136
  367MOL0     H49489   2.160   9.179   9.215  2.3848  0.1417  2.9433
  367MOL0     H49490   1.935   9.242   9.249  0.6606  0.5828  0.8865
  367MOL0     H49491   1.938   9.119   9.117  1.0877 -1.2265  0.3948
  367MOL0     H49492   1.749   9.084   9.238 -0.1386  1.3448  0.1792
  367MOL0     H49493   1.848   8.953   9.270 -1.1476 -0.4396  2.3499
  367MOL0     H49494   1.805   9.191   9.456 -0.1869  0.0041  1.5682
  367MOL0     H49495   1.904   9.052   9.504 -1.0189  2.5367  3.1335
  367MOL0     H49496   1.529   9.133   9.386 -2.6281 -0.2292  0.8059
  367MOL0     H49497   1.338   8.904   9.329 -1.5850  0.5385  0.1943
  367MOL0     H49498   1.308   8.839   9.492  0.9633  0.5400  1.0532
  367MOL0     H49499   1.315   9.134   9.428 -0.4708 -0.4288  1.4752
  367MOL0     H49500   1.251   9.049   9.575  0.2619  1.8317  0.6044
  367MOL0     H49501   1.139   9.006   9.288 -1.2690  1.8586 -1.3941
  367MOL0     H49502   1.098   9.141   9.385 -1.3794 -0.3544 -0.2355
  367MOL0     H49503   1.013   9.018   9.578 -0.6410  1.6408  0.0620
  367MOL0     H49504   1.044   8.865   9.498 -0.4913  0.1331  0.6742
  367MOL0     H49505   0.680   8.935   9.262 -1.7946  0.6637  0.7810
  367MOL0     H49506   0.364   8.922   9.320 -0.5350 -0.9668 -0.0303
  367MOL0     H49507   0.477   8.871   9.193 -1.6160  2.5656 -0.6330
  367MOL0     H49508   0.401   8.744   9.296  0.2537 -0.4206  1.2133
  367MOL0     H49509   0.086   8.791   9.371 -2.3749  0.4480 -1.3524
  367MOL0     H49510  -0.151   8.724   9.411  0.6454 -0.3824  0.8670
  367MOL0     H49511  -0.339   8.732   9.587 -2.9338  0.4961 -4.3892
  367MOL0     H49512  -0.347   8.602   9.475  0.3080  3.5901  0.1377
  367MOL0     H49513  -0.493   8.464   9.630  1.3407  0.1645 -2.7370
  367MOL0     H49514  -0.462   8.572   9.764  3.0326 -5.0068  0.9354
  367MOL0     H49515  -0.553   8.765   9.671  0.2695  1.6557  1.0620
  367MOL0     H49516  -0.682   8.647   9.659 -0.1773  1.2566 -1.0863
  367MOL0     H49517  -0.522   8.766   9.417  1.5422  0.7785  0.8922
  367MOL0     H49518  -0.579   8.608   9.406 -0.2644 -0.5540  0.7414
  367MOL0     H49519  -0.811   8.717   9.509 -1.6326  2.7978  0.2319
  367MOL0     H49520  -0.774   8.720   9.341 -0.0620 -0.6903  0.4682
  367MOL0     H49521  -0.689   8.951   9.513 -0.5403  0.8538 -1.4778
  367MOL0     H49522  -0.707   8.936   9.336 -0.5531  3.4342  1.0900
  367MOL0     H49523  -0.921   8.952   9.558 -4.0854  0.7127 -1.3177
  367MOL0     H49524  -0.977   8.877   9.410 -1.2909  1.3423 -0.7767
  367MOL0     H49525  -0.938   9.046   9.269 -0.8793 -1.2806  0.1590
  367MOL0     H49526  -0.865   9.149   9.412  1.3358 -0.3283  0.0502
  367MOL0     H49527  -0.004   8.488   9.748 -0.3785 -1.7068 -0.3787
  367MOL0     H49528   0.218   8.554   9.700 -0.5744  2.2209  0.2267
  367MOL0     H49529   0.660   8.740   9.708 -0.7843  1.5614  0.4335
  367MOL0     H49530   0.852   8.852   9.648  0.5688  0.6709  0.4126
  367MOL0     H49531   2.692   8.743   9.471 -4.4512 -1.6910  2.1291
  367MOL0     H49532   2.881   8.617   9.547 -1.2235  2.0168 -0.1263
  367MOL0     H49533   3.112   8.145   9.478  1.2727 -2.1299 -0.6695
  367MOL0     H49534   3.282   8.022   9.604  3.0075  0.7204  2.4386
  367MOL0     H49535   3.630   8.248   9.690 -0.2658 -0.1113  0.7511
  367MOL0     H49536   3.673   8.140   9.816  1.0188 -2.5298 -1.2143
  367MOL0     H49537   3.788   8.092   9.599 -0.9696 -1.0355 -1.3084
  367MOL0     H49538   3.625   8.065   9.516 -0.3311 -1.7440 -1.1095
  367MOL0     H49539   3.576   7.874   9.649 -1.1749  1.8881  1.9362
  367MOL0     H49540   3.711   7.917   9.760 -0.9032 -0.8405  0.4291
  367MOL0     H49541   3.743   7.830   9.460 -1.8407  1.0328  0.0532
  367MOL0     H49542   3.752   7.716   9.598 -1.5280  0.8201  3.4079
  367MOL0     H49543   4.121   7.917   9.652 -0.2751  3.3069 -0.6590
  367MOL0     H49544   3.460   8.391   9.741 -0.1963  0.0415 -0.6608
  367MOL0     H49545   3.302   8.513   9.616  0.2907 -0.3059 -1.1636
  368MOL0     O49546   9.623   7.184  10.956 -0.9734  0.4154 -0.1351
  368MOL0     C49547   9.684   7.289  10.985 -0.5793  0.1459 -0.3789
  368MOL0     O49548   9.626   7.416  10.990 -0.5887  0.6690  0.5252
  368MOL0     C49549   9.498   7.430  10.939 -0.6986  0.4624  0.9737
  368MOL0     C49550   9.483   7.438  10.804  0.1381 -0.3377 -1.0709
  368MOL0     C49551   9.354   7.445  10.748  0.2696  0.3547 -0.5323
  368MOL0     C49552   9.235   7.424  10.834 -0.6013  0.3031  0.1912
  368MOL0     O49553   9.114   7.424  10.769 -0.3405 -0.6042 -0.2179
  368MOL0     C49554   9.001   7.354  10.819 -0.2276 -0.0479 -0.7230
  368MOL0     C49555   8.880   7.440  10.813 -0.6099 -0.1237  0.6538
  368MOL0     C49556   8.754   7.367  10.862  0.1151 -0.4266  0.6432
  368MOL0     C49557   8.632   7.469  10.873  0.1657  0.7899 -0.2384
  368MOL0     C49558   8.524   7.402  10.954  0.8937 -0.8586 -1.1567
  368MOL0     C49559   8.405   7.498  10.985 -0.0083 -0.6715 -0.1380
  368MOL0     C49560   8.328   7.557  10.870  0.6978  0.4817 -0.7409
  368MOL0     C49561   8.279   7.439  10.778 -0.1634  0.0342  0.0139
  368MOL0     N49562   8.227   7.487  10.647 -0.0914 -1.0711  0.5565
  368MOL0     C49563   8.299   7.518  10.533  0.7838 -0.1590  0.0268
  368MOL0     C49564   8.215   7.576  10.449  0.8912 -0.4307 -0.2419
  368MOL0     C49565   8.246   7.608  10.310  0.9640  0.2688 -0.0801
  368MOL0     C49566   8.187   7.505  10.213  0.6489  0.1021 -0.4190
  368MOL0     C49567   8.039   7.531  10.189  0.1079  0.2988  0.1860
  368MOL0     C49568   7.969   7.414  10.098 -0.0275 -1.2619 -0.2030
  368MOL0     O49569   7.999   7.287  10.143 -0.2256  0.0044 -0.1870
  368MOL0     C49570   7.965   7.181  10.068 -0.6108 -0.0575 -0.5977
  368MOL0     C49571   7.982   7.057  10.127 -0.4564  0.3084 -0.1558
  368MOL0     C49572   7.979   6.939  10.050 -0.7908 -0.3981 -0.5093
  368MOL0     C49573   8.028   6.817  10.123 -0.0444 -0.3131 -1.2429
  368MOL0     C49574   7.942   6.946   9.913  0.5805 -0.2654 -0.1690
  368MOL0     C49575   7.924   6.833   9.822 -0.0338  0.5248 -0.8247
  368MOL0     O49576   7.901   6.866   9.683 -0.2441 -0.0957  0.5147
  368MOL0     C49577   7.875   6.766   9.594  0.9953  0.3108  0.2501
  368MOL0     C49578   7.769   6.794   9.504 -0.1100  0.0253  0.3133
  368MOL0     C49579   7.745   6.711   9.395  0.1537 -0.3582 -0.8380
  368MOL0     C49580   7.823   6.599   9.379 -0.3969  0.5148  0.8309
  368MOL0     O49581   7.777   6.515   9.277  0.0817 -0.0078 -0.4051
  368MOL0     C49582   7.856   6.411   9.227 -0.4497  0.6181  0.7634
  368MOL0     C49583   7.804   6.356   9.096 -0.6807 -0.0807  0.4300
  368MOL0     C49584   7.665   6.290   9.132  0.3926  0.8659  0.6185
  368MOL0     C49585   7.597   6.258   9.000 -0.2918 -0.3955 -0.0106
  368MOL0     C49586   7.482   6.166   9.023  1.0704  0.3633  0.5025
  368MOL0     C49587   7.392   6.162   8.893 -0.5284  1.2432 -0.2162
  368MOL0     C49588   7.280   6.060   8.898  0.4340  0.2957  0.2727
  368MOL0     C49589   7.184   6.096   8.790  0.5335  0.1175  0.5196
  368MOL0    Cl49590   7.066   5.951   8.783  0.0840  0.1162  0.2683
  368MOL0     C49591   7.938   6.577   9.455  0.2739  0.0246 -0.8293
  368MOL0     C49592   7.953   6.659   9.566  0.2867  1.2809  0.3274
  368MOL0     O49593   7.903   6.719   9.871 -0.1741 -0.1522 -0.0998
  368MOL0     C49594   7.913   7.075   9.860  0.3756  0.9574 -0.8467
  368MOL0     C49595   7.918   7.194   9.936 -1.0424  0.3825  0.2376
  368MOL0     N49596   8.088   7.581  10.502  0.5273  0.2553 -0.4345
  368MOL0     N49597   8.100   7.529  10.616 -0.7268 -0.0781 -0.2891
  368MOL0     C49598   9.262   7.409  10.976  0.4385  0.1127  0.0128
  368MOL0     C49599   9.393   7.410  11.021 -0.4147 -0.4997 -0.4355
  368MOL0     C49600   9.827   7.266  11.023  0.0534 -0.3001 -0.5336
  368MOL0     C49601   9.897   7.148  10.998 -0.4611 -0.4496  0.1886
  368MOL0     C49602  10.034   7.143  11.041  0.5881 -0.9416 -0.5409
  368MOL0     C49603  10.099   7.255  11.088  0.2558 -0.2199 -0.2894
  368MOL0     O49604  10.238   7.243  11.098  0.2273  0.1361 -0.3644
  368MOL0     C49605  10.302   7.352  11.160 -1.4060 -0.2678 -0.3226
  368MOL0     C49606  10.452   7.347  11.167  0.0963  0.0318  0.2594
  368MOL0     C49607  10.492   7.439  11.278  0.0426 -0.1347 -0.6763
  368MOL0     C49608  10.646   7.410  11.292  0.2872  0.4140 -0.2440
  368MOL0     C49609  10.700   7.489  11.402 -0.2752 -0.5490  0.8516
  368MOL0     C49610  10.737   7.578  11.482  0.9171  0.5347 -0.3753
  368MOL0     C49611  10.019   7.371  11.123 -0.5135  0.1056  0.2025
  368MOL0     C49612   9.887   7.379  11.086 -0.1751  0.0460 -0.8201
  368MOL0     H49613   9.570   7.447  10.740  0.0069 -0.4049 -1.2604
  368MOL0     H49614   9.348   7.459  10.640 -2.0280 -0.7415 -0.6025
  368MOL0     H49615   8.992   7.276  10.742 -1.1766 -0.5215 -0.1410
  368MOL0     H49616   9.019   7.314  10.919 -0.5336 -3.8051 -1.9956
  368MOL0     H49617   8.893   7.534  10.868 -1.8779 -0.0330  0.8349
  368MOL0     H49618   8.858   7.474  10.712 -0.9057 -2.7437 -0.2512
  368MOL0     H49619   8.724   7.297  10.784  0.3940  1.2004 -0.9994
  368MOL0     H49620   8.772   7.305  10.950  1.2745 -0.3671  0.4745
  368MOL0     H49621   8.676   7.559  10.917 -0.7783  1.4001 -0.5103
  368MOL0     H49622   8.602   7.503  10.774  0.8405 -1.9106 -1.4735
  368MOL0     H49623   8.489   7.310  10.907 -0.9796 -1.6545  1.5996
  368MOL0     H49624   8.571   7.377  11.049 -1.3102 -0.7869  0.0043
  368MOL0     H49625   8.346   7.454  11.065 -1.2268 -1.4497 -1.4283
  368MOL0     H49626   8.446   7.592  11.024 -2.6627  0.3277  0.4405
  368MOL0     H49627   8.239   7.617  10.889  1.1346  1.1075 -0.5967
  368MOL0     H49628   8.398   7.616  10.810 -0.8984  0.6057 -2.5771
  368MOL0     H49629   8.200   7.381  10.827 -1.6573  0.5728 -1.6486
  368MOL0     H49630   8.364   7.378  10.747  0.0926  0.5717 -0.3547
  368MOL0     H49631   8.400   7.485  10.509  1.8300  4.2317 -2.7016
  368MOL0     H49632   8.232   7.712  10.277 -1.7601 -0.3855 -1.2220
  368MOL0     H49633   8.350   7.576  10.309  0.2545 -2.1919 -1.0237
  368MOL0     H49634   8.210   7.405  10.252 -1.7105  0.1525  1.3134
  368MOL0     H49635   8.233   7.525  10.116 -0.3817  2.5122 -0.4655
  368MOL0     H49636   8.029   7.633  10.152  3.3049  0.6460  0.0341
  368MOL0     H49637   7.990   7.526  10.287 -0.4747  3.2968  0.1321
  368MOL0     H49638   8.009   7.439  10.000 -0.5351 -0.7438 -0.2833
  368MOL0     H49639   7.860   7.424  10.098 -0.0437 -1.3540 -1.1127
  368MOL0     H49640   8.004   7.062  10.233 -4.2523  1.0016  0.7524
  368MOL0     H49641   7.951   6.739  10.120 -0.2739 -0.1601  0.1546
  368MOL0     H49642   8.122   6.779  10.081  0.5930 -1.1388  0.8273
  368MOL0     H49643   8.058   6.842  10.225  0.1591  0.2611 -1.4403
  368MOL0     H49644   7.719   6.890   9.509 -0.6190 -0.2961  2.1668
  368MOL0     H49645   7.663   6.737   9.329 -2.8520 -0.3525  2.5949
  368MOL0     H49646   7.953   6.460   9.210 -0.5715  0.6523  0.1559
  368MOL0     H49647   7.852   6.320   9.288 -8.9397  0.8942  1.7497
  368MOL0     H49648   7.790   6.432   9.019  1.3811 -1.6340 -1.6106
  368MOL0     H49649   7.870   6.277   9.058 -3.0452 -0.9406 -2.2023
  368MOL0     H49650   7.606   6.371   9.176 -3.7664 -0.3584 -2.0995
  368MOL0     H49651   7.674   6.200   9.193 -2.0039 -0.0313 -0.2230
  368MOL0     H49652   7.563   6.351   8.954 -1.7099 -0.7896  0.1766
  368MOL0     H49653   7.668   6.206   8.935  0.3767 -1.1466  1.2807
  368MOL0     H49654   7.418   6.203   9.103 -0.9651 -0.9452 -0.4345
  368MOL0     H49655   7.514   6.067   9.056  0.9597  0.3772  0.6496
  368MOL0     H49656   7.356   6.264   8.876 -3.1732  0.4188 -0.1021
  368MOL0     H49657   7.456   6.131   8.810  0.7984 -2.6684  2.0386
  368MOL0     H49658   7.235   6.063   8.997 -0.9346  0.0593 -0.3216
  368MOL0     H49659   7.323   5.960   8.894 -1.2025 -0.4044 -2.2142
  368MOL0     H49660   7.239   6.095   8.695 -1.1027 -1.4946 -0.4608
  368MOL0     H49661   7.127   6.187   8.812 -3.4324 -2.0023 -0.2473
  368MOL0     H49662   8.000   6.492   9.428 -0.1825  0.5001 -3.6966
  368MOL0     H49663   8.033   6.631   9.634 -0.2110 -1.3042 -0.0683
  368MOL0     H49664   7.870   7.092   9.761 -2.1810 -0.1115 -0.0038
  368MOL0     H49665   7.887   7.289   9.895 -0.2689  1.4943  2.1059
  368MOL0     H49666   9.190   7.391  11.055  2.4729  0.2507  1.9823
  368MOL0     H49667   9.408   7.381  11.125 -3.8779 -1.7858 -0.1568
  368MOL0     H49668   9.847   7.062  10.954 -0.3459 -1.4124  1.8636
  368MOL0     H49669  10.076   7.046  11.018  2.0774 -0.4724  0.0435
  368MOL0     H49670  10.272   7.443  11.107 -0.7282  0.6317  0.8148
  368MOL0     H49671  10.265   7.342  11.262  4.1933 -2.4231  1.8867
  368MOL0     H49672  10.488   7.388  11.071 -3.4394 -0.5458 -1.4735
  368MOL0     H49673  10.488   7.244  11.175 -2.7188 -1.1707 -1.0024
  368MOL0     H49674  10.444   7.410  11.372  4.7473  0.6964  2.3165
  368MOL0     H49675  10.455   7.536  11.243 -0.2800  0.2504  0.6876
  368MOL0     H49676  10.696   7.441  11.200 -0.6488  2.5664 -0.0839
  368MOL0     H49677  10.655   7.302  11.312  0.6232  0.2244 -1.3307
  368MOL0     H49678  10.774   7.651  11.551  1.2388 -0.7252  0.8212
  368MOL0     H49679  10.067   7.455  11.173  0.9636  0.2229 -1.3174
  368MOL0     H49680   9.829   7.469  11.101 -2.0692 -1.3323  0.6544
  369MOL0     O49681   6.677   7.825   4.306 -0.0600  0.0273  0.1462
  369MOL0     C49682   6.627   7.722   4.356  0.9047 -0.6725  0.3562
  369MOL0     O49683   6.488   7.693   4.351 -0.2616 -0.1877  0.5161
  369MOL0     C49684   6.402   7.768   4.273 -0.2546  0.7833  0.9498
  369MOL0     C49685   6.376   7.901   4.297 -0.7033 -0.0930  0.6893
  369MOL0     C49686   6.277   7.975   4.235  0.1248 -0.2770 -0.5373
  369MOL0     C49687   6.201   7.906   4.138  0.1235 -0.4548  0.7442
  369MOL0     O49688   6.106   7.963   4.063  0.1091  0.9259  0.4790
  369MOL0     C49689   6.067   8.098   4.078 -0.3912  0.4054 -0.2895
  369MOL0     C49690   5.980   8.154   3.971  0.3164  0.2442  0.8720
  369MOL0     C49691   5.985   8.304   3.976 -0.3353 -0.5827 -0.3526
  369MOL0     C49692   5.859   8.356   3.900 -0.3729 -0.5848  0.0983
  369MOL0     C49693   5.839   8.510   3.929 -0.0941 -0.5685  0.0364
  369MOL0     C49694   5.954   8.619   3.889  1.1487  0.4256 -0.2184
  369MOL0     C49695   5.982   8.631   3.735 -0.6218  0.8016  0.4544
  369MOL0     C49696   5.874   8.722   3.669 -0.7447 -0.1230  0.2377
  369MOL0     N49697   5.866   8.862   3.712  0.1169 -0.1983 -0.5560
  369MOL0     C49698   5.970   8.950   3.721 -0.4558 -0.3116  0.2079
  369MOL0     C49699   5.904   9.068   3.747  0.2040 -0.4096  0.9713
  369MOL0     C49700   5.970   9.208   3.762 -0.3591 -0.2430 -0.6459
  369MOL0     C49701   5.943   9.305   3.644  0.0517 -0.6123 -0.3176
  369MOL0     C49702   6.026   9.284   3.523 -0.3551 -0.2434  0.5808
  369MOL0     C49703   5.951   9.315   3.402 -0.3534 -0.0213 -0.0982
  369MOL0     O49704   5.919   9.459   3.399  0.1151 -0.3948 -0.1122
  369MOL0     C49705   5.795   9.501   3.365 -0.1211 -0.4151  0.9743
  369MOL0     C49706   5.714   9.589   3.447 -0.1910 -0.3893 -0.5621
  369MOL0     C49707   5.575   9.615   3.411  0.3217  0.2925 -1.0571
  369MOL0     C49708   5.506   9.731   3.489 -0.1247 -1.1982  0.7108
  369MOL0     C49709   5.521   9.561   3.293  0.2235  0.2807  0.2916
  369MOL0     C49710   5.380   9.574   3.246  0.4682 -0.1612  0.1368
  369MOL0     O49711   5.290   9.621   3.340 -0.9402 -0.1660 -0.1785
  369MOL0     C49712   5.162   9.625   3.303 -0.8236  0.5830  1.0445
  369MOL0     C49713   5.090   9.520   3.244 -0.2311  0.3274 -0.2918
  369MOL0     C49714   4.959   9.544   3.213 -0.4632  0.3946 -0.5048
  369MOL0     C49715   4.899   9.672   3.232 -0.1469 -0.2876  0.3959
  369MOL0     O49716   4.770   9.701   3.186  0.1594 -0.5904  0.4475
  369MOL0     C49717   4.677   9.591   3.167  0.3173 -0.2150 -0.0398
  369MOL0     C49718   4.548   9.650   3.105 -0.3041 -1.1943  0.4474
  369MOL0     C49719   4.443   9.538   3.098  0.0788 -0.2618 -0.2932
  369MOL0     C49720   4.315   9.595   3.038 -0.5135 -0.0051 -0.6998
  369MOL0     C49721   4.194   9.505   3.061 -0.5482 -0.7482  0.3467
  369MOL0     C49722   4.058   9.568   3.054 -0.3556 -0.0457  0.4431
  369MOL0     C49723   3.948   9.448   3.050 -0.0889  0.4509 -0.1676
  369MOL0     C49724   3.808   9.500   3.009  0.1698  0.1799 -0.2788
  369MOL0    Cl49725   3.688   9.367   3.068  0.3243  0.6192  0.3577
  369MOL0     C49726   4.965   9.777   3.290 -0.0959  0.1032 -0.6382
  369MOL0     C49727   5.101   9.744   3.325 -0.1338 -0.4645 -0.6303
  369MOL0     O49728   5.350   9.521   3.138  0.0831  0.0615  0.1423
  369MOL0     C49729   5.609   9.479   3.206 -0.2534 -0.7853  0.5386
  369MOL0     C49730   5.737   9.450   3.249 -0.0416  0.5189  0.3520
  369MOL0     N49731   5.769   9.037   3.765 -0.9120 -0.1786 -0.3046
  369MOL0     N49732   5.749   8.915   3.760  0.4691  0.3118  1.0685
  369MOL0     C49733   6.245   7.773   4.102 -0.3343  0.5984 -0.3043
  369MOL0     C49734   6.334   7.701   4.174  0.2452 -0.2306 -0.4523
  369MOL0     C49735   6.719   7.635   4.430  0.2420 -0.5592 -0.4963
  369MOL0     C49736   6.682   7.508   4.450 -0.2511  0.2522 -0.1030
  369MOL0     C49737   6.774   7.423   4.515  0.2898 -0.4180  1.0644
  369MOL0     C49738   6.912   7.459   4.538  0.6740 -0.4577  0.6141
  369MOL0     O49739   7.004   7.383   4.603 -0.5744 -0.6361 -0.3999
  369MOL0     C49740   6.969   7.249   4.638 -0.1606  0.2995 -0.0699
  369MOL0     C49741   6.970   7.160   4.515 -0.1678  0.5943  0.4598
  369MOL0     C49742   7.096   7.201   4.426  0.0018 -0.2387  0.4536
  369MOL0     C49743   7.125   7.103   4.319 -0.0635  0.5550  0.1652
  369MOL0     C49744   7.187   6.985   4.379 -0.6818 -0.5083 -0.9251
  369MOL0     C49745   7.254   6.890   4.409 -0.2010 -0.2279  0.1207
  369MOL0     C49746   6.949   7.598   4.521  0.0625 -0.3194 -0.1881
  369MOL0     C49747   6.843   7.680   4.481  0.5486 -0.7422 -0.4824
  369MOL0     H49748   6.431   7.933   4.386 -0.9108 -1.0266  1.1611
  369MOL0     H49749   6.270   8.075   4.278 -1.2428 -1.4966  2.3252
  369MOL0     H49750   6.012   8.126   4.168 -2.1929  3.4693 -2.1735
  369MOL0     H49751   6.160   8.156   4.073  0.7331 -1.2576  0.6371
  369MOL0     H49752   6.023   8.116   3.878  2.3119 -0.2595  1.9491
  369MOL0     H49753   5.877   8.118   3.985 -0.4795  1.0634 -2.1329
  369MOL0     H49754   5.987   8.337   4.080 -0.3083 -0.7047 -0.3136
  369MOL0     H49755   6.076   8.347   3.933  0.5334  0.0852  1.9858
  369MOL0     H49756   5.885   8.339   3.795 -1.3318 -2.6349  0.1312
  369MOL0     H49757   5.773   8.295   3.928 -1.4582 -0.5002 -2.7135
  369MOL0     H49758   5.750   8.540   3.874  0.9852  1.8094 -0.5313
  369MOL0     H49759   5.818   8.522   4.035  0.3955 -0.7483  0.1543
  369MOL0     H49760   5.920   8.714   3.932  2.2246 -0.0245  1.6860
  369MOL0     H49761   6.045   8.595   3.943  1.9679  3.1218 -0.2578
  369MOL0     H49762   6.078   8.679   3.713 -0.6359  0.1886 -1.0057
  369MOL0     H49763   5.990   8.532   3.690  1.3189  0.6773  0.9533
  369MOL0     H49764   5.780   8.673   3.694 -1.4840  1.7603  1.3786
  369MOL0     H49765   5.885   8.727   3.560 -2.9034  1.5837  0.0329
  369MOL0     H49766   6.075   8.924   3.714  0.1255  0.9303  2.9007
  369MOL0     H49767   5.949   9.253   3.860 -1.5168 -1.2505 -0.4035
  369MOL0     H49768   6.076   9.184   3.757 -0.7206 -2.0513 -0.3462
  369MOL0     H49769   5.959   9.405   3.685 -2.6099 -0.3995  0.4391
  369MOL0     H49770   5.837   9.310   3.618 -0.3379  1.2498  1.3839
  369MOL0     H49771   6.049   9.177   3.519  1.2238  0.1141 -0.8837
  369MOL0     H49772   6.122   9.336   3.526 -0.6118  0.1984  1.5648
  369MOL0     H49773   5.861   9.255   3.385 -0.6282  0.8984 -2.3472
  369MOL0     H49774   6.018   9.298   3.316 -0.2519  1.8395 -0.4191
  369MOL0     H49775   5.755   9.631   3.538 -0.4731 -2.6819  0.6966
  369MOL0     H49776   5.470   9.809   3.422 -1.1874 -2.7450 -0.6002
  369MOL0     H49777   5.420   9.712   3.554 -1.4494  0.6958 -0.3976
  369MOL0     H49778   5.579   9.773   3.558 -1.4109  2.5244  0.0461
  369MOL0     H49779   5.124   9.418   3.228 -0.7838  0.3732 -1.9787
  369MOL0     H49780   4.902   9.464   3.167 -3.2621  1.6514  0.5369
  369MOL0     H49781   4.720   9.509   3.109  2.4959  0.2590  0.8179
  369MOL0     H49782   4.652   9.545   3.263 -0.2908 -2.1043 -1.0658
  369MOL0     H49783   4.518   9.734   3.168 -1.5717 -0.5986 -0.8896
  369MOL0     H49784   4.567   9.695   3.007  2.1969 -0.8704  1.0020
  369MOL0     H49785   4.413   9.509   3.199  0.6140 -0.2785 -0.1365
  369MOL0     H49786   4.474   9.452   3.039 -0.2193  0.0812 -0.9606
  369MOL0     H49787   4.291   9.694   3.076 -0.0373  0.4673 -1.5958
  369MOL0     H49788   4.339   9.612   2.932  2.6391  1.1974  0.1169
  369MOL0     H49789   4.201   9.438   3.148  0.4206 -0.4936  0.4799
  369MOL0     H49790   4.192   9.436   2.976  3.9966 -2.0900  1.0380
  369MOL0     H49791   4.043   9.631   3.142 -0.6806 -1.9267  1.7802
  369MOL0     H49792   4.055   9.628   2.962  1.9133 -1.1198 -0.4019
  369MOL0     H49793   3.950   9.388   3.141  2.1603 -0.6283 -0.8499
  369MOL0     H49794   3.983   9.374   2.977  0.3489  1.2277 -0.7672
  369MOL0     H49795   3.812   9.514   2.901  4.0318 -2.0286 -0.6064
  369MOL0     H49796   3.793   9.593   3.064  2.4753  0.4622 -0.0141
  369MOL0     H49797   4.915   9.869   3.316  0.7159  0.3704  0.0071
  369MOL0     H49798   5.153   9.815   3.388  0.3677 -1.6062  0.2782
  369MOL0     H49799   5.573   9.444   3.110  0.7704 -0.2082 -0.0674
  369MOL0     H49800   5.805   9.393   3.186  2.1296  1.7683  1.4441
  369MOL0     H49801   6.193   7.722   4.021 -0.8043  0.3741  0.1369
  369MOL0     H49802   6.342   7.594   4.156 -0.3387 -0.2809 -0.4177
  369MOL0     H49803   6.580   7.479   4.427 -0.2157  0.1576 -0.1407
  369MOL0     H49804   6.740   7.326   4.550 -0.1264 -0.9779 -0.7816
  369MOL0     H49805   7.046   7.217   4.710  2.8467  3.2700 -1.6808
  369MOL0     H49806   6.871   7.240   4.686  0.2500  0.5774  0.8548
  369MOL0     H49807   6.879   7.179   4.457 -0.1283 -0.2447  0.1145
  369MOL0     H49808   6.973   7.054   4.542  1.2860  0.5854  0.3336
  369MOL0     H49809   7.185   7.226   4.484 -1.2035  0.2874  2.1552
  369MOL0     H49810   7.069   7.288   4.366  0.1251 -2.4078 -3.0395
  369MOL0     H49811   7.185   7.150   4.240  0.6677 -0.1316  0.2989
  369MOL0     H49812   7.032   7.070   4.271 -1.0597 -4.7599  4.8026
  369MOL0     H49813   7.324   6.810   4.421  0.5986  0.4762  0.2391
  369MOL0     H49814   7.045   7.644   4.543 -0.8668  2.0302 -0.6944
  369MOL0     H49815   6.864   7.785   4.498  0.6715 -1.1206  2.1183
  370MOL0     O49816   3.771   1.029   8.711 -1.3935 -0.4982 -0.4042
  370MOL0     C49817   3.833   1.122   8.648 -0.9022 -0.2964  1.1952
  370MOL0     O49818   3.780   1.197   8.544  0.8088  0.5722 -0.7281
  370MOL0     C49819   3.644   1.179   8.514 -0.6063  0.4513 -0.2482
  370MOL0     C49820   3.586   1.051   8.487 -0.1153  0.5305  0.4957
  370MOL0     C49821   3.451   1.047   8.470 -1.0371 -0.5920  0.2742
  370MOL0     C49822   3.373   1.161   8.453 -0.2520  0.0950 -0.3461
  370MOL0     O49823   3.236   1.155   8.439 -0.3726 -0.6211  0.3448
  370MOL0     C49824   3.143   1.256   8.470  0.0187 -0.3762 -0.4829
  370MOL0     C49825   3.007   1.212   8.518  0.7618  0.5310 -0.5534
  370MOL0     C49826   2.933   1.136   8.400  0.2425  1.0750 -0.1130
  370MOL0     C49827   2.793   1.102   8.440 -0.2037  0.7938 -0.4372
  370MOL0     C49828   2.696   1.159   8.325  0.1135 -0.1699  0.0680
  370MOL0     C49829   2.544   1.160   8.361 -0.0161  0.0206  0.0233
  370MOL0     C49830   2.453   1.212   8.251 -0.4010 -0.2478  0.3077
  370MOL0     C49831   2.318   1.237   8.319 -0.0194  0.3492  0.4129
  370MOL0     N49832   2.213   1.295   8.236  0.4883 -0.1091  0.2570
  370MOL0     C49833   2.082   1.286   8.270 -0.5475 -0.2256 -0.2179
  370MOL0     C49834   2.012   1.337   8.162 -0.9123  0.0701 -0.0359
  370MOL0     C49835   1.866   1.365   8.141 -0.3026  0.0859  0.4460
  370MOL0     C49836   1.806   1.235   8.082 -0.4456  0.3512 -0.0674
  370MOL0     C49837   1.654   1.222   8.101  0.1618  0.1791  0.4204
  370MOL0     C49838   1.567   1.315   8.021  0.7130 -1.0033  0.0238
  370MOL0     O49839   1.593   1.455   8.043  0.3880  0.5042  0.9165
  370MOL0     C49840   1.487   1.537   8.065  1.0001 -0.6332 -0.4488
  370MOL0     C49841   1.503   1.615   8.176  1.5417  0.0601  0.1229
  370MOL0     C49842   1.403   1.713   8.208 -0.2867  0.4180 -0.6855
  370MOL0     C49843   1.448   1.809   8.315 -0.3863  0.6625 -0.3910
  370MOL0     C49844   1.287   1.717   8.131 -0.2891  0.4225 -0.3782
  370MOL0     C49845   1.185   1.821   8.154 -0.0246  0.1642  0.6336
  370MOL0     O49846   1.089   1.830   8.046  0.6203 -0.4217 -0.4270
  370MOL0     C49847   0.975   1.905   8.076  0.0302  0.0190  0.3967
  370MOL0     C49848   0.895   1.895   8.191  0.2174  0.5342 -0.0886
  370MOL0     C49849   0.771   1.964   8.195  0.3993  0.3388 -0.3119
  370MOL0     C49850   0.721   2.041   8.089 -0.0375  0.4254  0.3232
  370MOL0     O49851   0.612   2.121   8.078 -0.3087  0.0868 -0.1818
  370MOL0     C49852   0.528   2.117   8.188  0.4896  0.6340 -0.4035
  370MOL0     C49853   0.394   2.173   8.122  0.0451 -0.3071 -0.7099
  370MOL0     C49854   0.278   2.198   8.215  0.5523  0.0382  0.1093
  370MOL0     C49855   0.154   2.224   8.127  0.1350  1.0202  0.2111
  370MOL0     C49856   0.042   2.281   8.209 -0.0072  1.1308 -0.2637
  370MOL0     C49857  -0.018   2.196   8.329  0.1403 -0.9069 -0.4618
  370MOL0     C49858  -0.160   2.243   8.384 -0.3131 -0.3160 -0.3922
  370MOL0     C49859  -0.139   2.385   8.431  0.6136  0.6771 -0.9048
  370MOL0    Cl49860  -0.275   2.424   8.540 -0.0016  0.2637  0.0970
  370MOL0     C49861   0.798   2.039   7.973 -0.0065  0.2203  0.1251
  370MOL0     C49862   0.925   1.980   7.969  0.5199  0.9834 -0.1012
  370MOL0     O49863   1.183   1.884   8.258 -0.3739 -0.4416  0.3713
  370MOL0     C49864   1.273   1.626   8.024  0.5493 -0.0882  0.0694
  370MOL0     C49865   1.371   1.540   7.995  0.0772  0.4835  0.2087
  370MOL0     N49866   2.109   1.373   8.072  0.5415 -0.3193  0.3972
  370MOL0     N49867   2.222   1.352   8.118  0.0354  0.1539 -0.0152
  370MOL0     C49868   3.436   1.288   8.459 -0.3721 -0.5791 -0.6151
  370MOL0     C49869   3.567   1.295   8.502 -0.0160  0.3758  0.2091
  370MOL0     C49870   3.962   1.176   8.691  0.9072 -0.6232 -0.9299
  370MOL0     C49871   4.037   1.263   8.609 -0.0542  0.7235 -0.2363
  370MOL0     C49872   4.163   1.308   8.662  0.2805  0.0552  0.1847
  370MOL0     C49873   4.217   1.273   8.785  1.2543  0.0604  0.2374
  370MOL0     O49874   4.341   1.315   8.845  0.4623  0.2479  0.0681
  370MOL0     C49875   4.455   1.322   8.757 -0.5409 -1.4749 -1.0132
  370MOL0     C49876   4.588   1.365   8.836 -0.5517 -0.2715  0.2658
  370MOL0     C49877   4.712   1.301   8.777 -0.0059  0.6594  0.3127
  370MOL0     C49878   4.762   1.370   8.647  0.5009 -0.4799  0.6973
  370MOL0     C49879   4.661   1.362   8.536 -0.5789 -0.0274  0.1561
  370MOL0     C49880   4.580   1.348   8.449 -0.1601 -0.1184 -0.0694
  370MOL0     C49881   4.131   1.192   8.867  0.2802 -0.7564  0.9376
  370MOL0     C49882   4.010   1.150   8.821  0.1555  0.5105  0.0903
  370MOL0     H49883   3.636   0.956   8.505  1.5350  1.4109  0.8091
  370MOL0     H49884   3.403   0.949   8.464  3.6776 -3.1305 -1.1567
  370MOL0     H49885   3.194   1.311   8.550  1.8581 -0.5050 -1.5077
  370MOL0     H49886   3.135   1.321   8.382  0.9656 -1.0678 -1.1081
  370MOL0     H49887   3.014   1.147   8.606 -1.0850 -1.4396 -1.7660
  370MOL0     H49888   2.951   1.298   8.555 -0.6985 -0.6449  0.0779
  370MOL0     H49889   2.929   1.197   8.310  0.8764 -0.5012 -1.2432
  370MOL0     H49890   2.986   1.043   8.381 -1.4837  0.4277 -2.1557
  370MOL0     H49891   2.802   0.993   8.433  3.7401  0.7001  2.6034
  370MOL0     H49892   2.760   1.131   8.540 -0.8809  1.3878 -0.8294
  370MOL0     H49893   2.710   1.266   8.308  0.0707 -0.4173 -1.6882
  370MOL0     H49894   2.725   1.106   8.234  0.5969  0.9128 -0.4334
  370MOL0     H49895   2.506   1.063   8.394 -0.9385 -0.5451 -2.4686
  370MOL0     H49896   2.526   1.230   8.443 -2.1174  0.5320 -0.8227
  370MOL0     H49897   2.489   1.307   8.211 -2.2264  0.5422  0.4489
  370MOL0     H49898   2.443   1.128   8.181 -1.9862  1.9413 -2.3064
  370MOL0     H49899   2.334   1.310   8.399  1.7313  2.1954 -1.4911
  370MOL0     H49900   2.276   1.142   8.354 -1.2475  0.3138 -1.0648
  370MOL0     H49901   2.040   1.228   8.352 -1.5361 -1.1117 -1.3160
  370MOL0     H49902   1.810   1.376   8.235 -0.7290  2.1187 -0.0108
  370MOL0     H49903   1.854   1.454   8.079  0.4714 -1.0439 -1.4029
  370MOL0     H49904   1.842   1.160   8.152  2.4772  1.4420 -0.2652
  370MOL0     H49905   1.850   1.219   7.983  0.1896  1.4135  0.0198
  370MOL0     H49906   1.634   1.229   8.208  1.1452 -0.0783  0.6288
  370MOL0     H49907   1.618   1.122   8.073  0.0441  0.2596  0.2828
  370MOL0     H49908   1.463   1.285   8.042  1.0665 -3.1402 -1.0273
  370MOL0     H49909   1.591   1.295   7.916 -1.2608 -2.3707 -0.2277
  370MOL0     H49910   1.590   1.595   8.238  0.7601 -2.0027  0.6264
  370MOL0     H49911   1.555   1.810   8.337 -0.5403  0.3851  0.3870
  370MOL0     H49912   1.427   1.915   8.301  3.0809  1.9138  2.4468
  370MOL0     H49913   1.414   1.767   8.410  1.4371 -0.6226 -0.2412
  370MOL0     H49914   0.920   1.828   8.273  0.0349  0.3176 -0.2085
  370MOL0     H49915   0.704   1.941   8.278  3.2240 -1.2340  1.7328
  370MOL0     H49916   0.502   2.014   8.215  2.1900 -0.4577 -2.5276
  370MOL0     H49917   0.570   2.170   8.273  0.6789 -3.2315  2.1886
  370MOL0     H49918   0.411   2.266   8.067 -0.7820  0.8611  0.9557
  370MOL0     H49919   0.363   2.093   8.054 -0.6114 -0.3510 -0.3639
  370MOL0     H49920   0.299   2.288   8.273 -0.6419  1.1164 -1.0940
  370MOL0     H49921   0.270   2.115   8.286  0.4800 -0.1122 -0.0720
  370MOL0     H49922   0.173   2.293   8.044 -2.2589  2.4266  0.7436
  370MOL0     H49923   0.134   2.126   8.084  0.1733 -0.1032  2.6162
  370MOL0     H49924  -0.044   2.286   8.142  0.6674 -1.3747 -1.3986
  370MOL0     H49925   0.056   2.382   8.251 -1.8112  0.3324  2.5850
  370MOL0     H49926  -0.042   2.099   8.284 -1.2286 -0.2533 -1.2111
  370MOL0     H49927   0.058   2.193   8.408  0.8618  0.8910 -1.0574
  370MOL0     H49928  -0.185   2.180   8.470  2.5267 -0.0902  0.6982
  370MOL0     H49929  -0.239   2.233   8.310 -3.2610 -1.7016  2.6783
  370MOL0     H49930  -0.142   2.456   8.347 -0.3982  0.0413 -1.4182
  370MOL0     H49931  -0.045   2.385   8.487  0.1383  0.0819 -0.0920
  370MOL0     H49932   0.762   2.076   7.878  0.3691 -2.2401 -1.0401
  370MOL0     H49933   0.972   1.978   7.872 -2.8358  1.2215 -1.8864
  370MOL0     H49934   1.179   1.622   7.972  0.1811 -1.2066  0.7810
  370MOL0     H49935   1.369   1.477   7.907  0.8137 -0.6140  0.9552
  370MOL0     H49936   3.380   1.381   8.448  0.7654 -0.0183 -1.9786
  370MOL0     H49937   3.618   1.390   8.516  1.6894 -0.3376 -0.8552
  370MOL0     H49938   4.012   1.283   8.506  0.8498  0.0823 -0.5899
  370MOL0     H49939   4.223   1.374   8.599 -0.1473 -0.5797 -0.9114
  370MOL0     H49940   4.465   1.226   8.705  2.6729 -1.1614 -1.1582
  370MOL0     H49941   4.433   1.400   8.683  1.0588  2.1087  1.9794
  370MOL0     H49942   4.582   1.341   8.942 -2.7150  2.1895  0.8188
  370MOL0     H49943   4.601   1.474   8.828 -0.5569 -0.2995 -0.2071
  370MOL0     H49944   4.695   1.195   8.753  2.1312  0.0555  1.1306
  370MOL0     H49945   4.795   1.311   8.848 -0.6528  3.5624  0.7545
  370MOL0     H49946   4.854   1.321   8.614  0.4415 -0.9394  1.1941
  370MOL0     H49947   4.788   1.475   8.660  0.7730 -0.4151 -0.3562
  370MOL0     H49948   4.501   1.333   8.378  0.1418  0.8053 -0.6236
  370MOL0     H49949   4.170   1.172   8.966  0.0922  4.1101  2.2348
  370MOL0     H49950   3.952   1.091   8.891 -0.7230 -0.9410 -1.7660
  371MOL0     O49951   8.074   0.045  10.580 -0.1336  0.6345 -0.2116
  371MOL0     C49952   8.097   0.048  10.700  0.4267  0.3661  0.7531
  371MOL0     O49953   8.009  -0.004  10.799 -0.1728 -0.3304  0.2994
  371MOL0     C49954   7.909  -0.089  10.764 -0.6126  0.0687  0.2641
  371MOL0     C49955   7.946  -0.208  10.685 -0.9981 -0.0001 -0.2158
  371MOL0     C49956   7.851  -0.297  10.646  0.1251  0.2498  0.0309
  371MOL0     C49957   7.715  -0.271  10.686 -0.7240  0.1001  0.6527
  371MOL0     O49958   7.631  -0.360  10.633 -0.2883  0.5907  0.0725
  371MOL0     C49959   7.495  -0.358  10.662  0.4179  0.5242  1.1475
  371MOL0     C49960   7.424  -0.464  10.579 -0.1991  0.0327  1.0723
  371MOL0     C49961   7.279  -0.444  10.560 -0.5588  0.4332 -0.2441
  371MOL0     C49962   7.199  -0.574  10.546 -0.2594  0.2107  0.1392
  371MOL0     C49963   7.049  -0.528  10.541 -0.4307  0.3312 -0.0850
  371MOL0     C49964   6.982  -0.550  10.682  0.0306 -1.0503  0.1201
  371MOL0     C49965   6.850  -0.470  10.690 -0.8372  0.2619 -0.8436
  371MOL0     C49966   6.736  -0.527  10.600 -0.9069  0.1796  0.0378
  371MOL0     N49967   6.604  -0.491  10.653  0.3915 -0.3607 -0.7980
  371MOL0     C49968   6.539  -0.551  10.764 -0.0921  0.3545  0.6636
  371MOL0     C49969   6.410  -0.518  10.761  0.2029  0.0035  0.6452
  371MOL0     C49970   6.308  -0.580  10.853  0.3459  0.8996 -0.2790
  371MOL0     C49971   6.253  -0.714  10.792 -0.5193  0.0979 -0.4368
  371MOL0     C49972   6.170  -0.789  10.894  0.1109 -0.0597  0.1935
  371MOL0     C49973   6.103  -0.902  10.828  0.5749 -0.4406 -0.7697
  371MOL0     O49974   5.975  -0.871  10.771 -0.2622  0.0721  0.6289
  371MOL0     C49975   5.864  -0.900  10.840  0.4903  1.2366  0.1751
  371MOL0     C49976   5.838  -0.826  10.950  0.5619 -1.0396 -1.2122
  371MOL0     C49977   5.713  -0.819  11.016 -0.0335 -0.0863  0.4751
  371MOL0     C49978   5.694  -0.715  11.123  1.1242  0.8382  0.3745
  371MOL0     C49979   5.613  -0.912  10.980  0.0859 -0.4363  0.5361
  371MOL0     C49980   5.481  -0.920  11.045  0.0117 -0.4830  0.7131
  371MOL0     O49981   5.401  -0.810  11.033  0.0145  0.5694  0.1590
  371MOL0     C49982   5.272  -0.812  11.087 -0.7584  0.7210 -1.2015
  371MOL0     C49983   5.170  -0.773  11.005  0.7156 -0.3252  0.2136
  371MOL0     C49984   5.039  -0.753  11.059 -1.1785 -0.0452  0.0761
  371MOL0     C49985   5.010  -0.791  11.189 -0.5902 -0.6770 -0.2354
  371MOL0     O49986   4.888  -0.788  11.253 -0.4132  0.6072 -0.3118
  371MOL0     C49987   4.777  -0.820  11.172  0.4421 -0.1371 -0.2118
  371MOL0     C49988   4.642  -0.834  11.246  0.1825 -0.1769 -0.9744
  371MOL0     C49989   4.522  -0.867  11.147  0.3079 -0.3393 -0.7771
  371MOL0     C49990   4.383  -0.819  11.197  0.0877  0.4940  0.0447
  371MOL0     C49991   4.375  -0.667  11.206 -0.6932 -0.4477 -0.0028
  371MOL0     C49992   4.240  -0.605  11.222  1.1672  0.7482 -0.6128
  371MOL0     C49993   4.192  -0.651  11.365 -0.6840  0.1936  0.4447
  371MOL0     C49994   4.081  -0.564  11.418  0.2850 -1.4125 -0.1963
  371MOL0    Cl49995   3.944  -0.524  11.320  0.1792 -0.7109 -0.8148
  371MOL0     C49996   5.114  -0.847  11.270  0.5696  0.3587 -1.1307
  371MOL0     C49997   5.245  -0.856  11.227  0.0961 -0.0551  0.4589
  371MOL0     O49998   5.457  -1.025  11.095  0.5647  0.0998  0.5098
  371MOL0     C49999   5.645  -1.002  10.877 -0.2546 -0.0781  0.1658
  371MOL0     C50000   5.768  -0.992  10.808  0.4429  0.4237 -0.1114
  371MOL0     N50001   6.392  -0.427  10.656  0.6153 -0.0665 -0.3379
  371MOL0     N50002   6.503  -0.417  10.594  0.2703 -0.1015 -0.8284
  371MOL0     C50003   7.687  -0.161  10.763 -0.8233  1.0669 -0.8640
  371MOL0     C50004   7.786  -0.076  10.813 -0.0923 -0.1026 -0.1413
  371MOL0     C50005   8.216   0.110  10.754  0.4630 -0.2215 -0.4326
  371MOL0     C50006   8.270   0.092  10.880  0.6900  1.2750 -0.5249
  371MOL0     C50007   8.391   0.152  10.916 -0.5933  0.3262 -1.3998
  371MOL0     C50008   8.476   0.223  10.829 -0.2345  0.3373 -0.2654
  371MOL0     O50009   8.588   0.265  10.881 -1.3182 -0.0737  0.2196
  371MOL0     C50010   8.658   0.384  10.827  0.6022  0.3745 -0.4389
  371MOL0     C50011   8.784   0.333  10.754 -0.2552  0.2530 -0.0056
  371MOL0     C50012   8.882   0.437  10.746 -0.3422 -0.3973 -0.5670
  371MOL0     C50013   9.019   0.403  10.682  0.3803 -0.1592 -0.1850
  371MOL0     C50014   9.124   0.491  10.733 -0.1311  0.6048 -0.2548
  371MOL0     C50015   9.221   0.552  10.762  0.3128  0.3738  1.0345
  371MOL0     C50016   8.425   0.242  10.701  0.0994 -0.1461 -0.7160
  371MOL0     C50017   8.297   0.188  10.665  1.2081  0.4786 -0.2029
  371MOL0     H50018   8.051  -0.206  10.658 -0.0658  0.8132  3.0602
  371MOL0     H50019   7.865  -0.384  10.582 -0.8428  1.4487 -1.9034
  371MOL0     H50020   7.481  -0.371  10.770  0.7151  0.5018  1.1843
  371MOL0     H50021   7.460  -0.255  10.652  0.1344  0.3618  0.4704
  371MOL0     H50022   7.465  -0.460  10.478 -0.2881 -1.8131  0.9151
  371MOL0     H50023   7.449  -0.563  10.620  0.4124 -0.1543  0.2749
  371MOL0     H50024   7.238  -0.395  10.648 -1.2850  0.0354 -0.3485
  371MOL0     H50025   7.265  -0.387  10.468  1.2807  0.7187 -0.3838
  371MOL0     H50026   7.221  -0.627  10.453 -1.0058  1.9770 -1.0871
  371MOL0     H50027   7.224  -0.638  10.632  5.4371  3.6680  1.5226
  371MOL0     H50028   7.045  -0.421  10.519 -0.2806  0.5083  0.6986
  371MOL0     H50029   6.994  -0.591  10.470 -5.2667  3.8230  0.1112
  371MOL0     H50030   6.961  -0.654  10.709 -0.3116 -0.5740  1.8335
  371MOL0     H50031   7.041  -0.509  10.765  0.6957  3.6624 -2.3372
  371MOL0     H50032   6.815  -0.480  10.793 -1.9741  0.6574 -1.1742
  371MOL0     H50033   6.855  -0.365  10.660  2.9774  0.5145  0.1352
  371MOL0     H50034   6.745  -0.635  10.586 -2.8054 -0.0384  0.2208
  371MOL0     H50035   6.743  -0.493  10.496  0.6733  0.3967  0.1922
  371MOL0     H50036   6.588  -0.619  10.833  2.3257  1.2800 -0.0236
  371MOL0     H50037   6.345  -0.601  10.954 -0.6520 -2.1444 -0.4601
  371MOL0     H50038   6.226  -0.507  10.861  0.5472  1.0866  0.1284
  371MOL0     H50039   6.332  -0.781  10.759 -1.0697 -2.6050  3.1602
  371MOL0     H50040   6.180  -0.683  10.716 -1.4476  1.3982  0.9258
  371MOL0     H50041   6.107  -0.719  10.951  1.5068  0.7300  0.8363
  371MOL0     H50042   6.234  -0.841  10.966 -0.9467 -0.5510  0.8054
  371MOL0     H50043   6.075  -0.966  10.912 -2.3849  2.1861  0.4308
  371MOL0     H50044   6.159  -0.946  10.745  0.9861  0.1118 -0.7910
  371MOL0     H50045   5.903  -0.743  10.975 -0.8687 -0.5696  1.2245
  371MOL0     H50046   5.641  -0.763  11.206 -0.8754  0.8104 -0.8570
  371MOL0     H50047   5.788  -0.674  11.161  0.5431  2.0169  0.5626
  371MOL0     H50048   5.631  -0.633  11.089  1.5996  1.8876  1.8946
  371MOL0     H50049   5.190  -0.755  10.900  1.4546 -2.8972 -0.1393
  371MOL0     H50050   4.958  -0.714  10.997 -1.4070 -0.4330  0.1315
  371MOL0     H50051   4.760  -0.734  11.106  0.5986  0.8051  0.9566
  371MOL0     H50052   4.794  -0.909  11.110  0.1964  0.5280 -1.2575
  371MOL0     H50053   4.631  -0.907  11.327 -1.6668  0.8377 -0.2438
  371MOL0     H50054   4.626  -0.734  11.289  0.8799 -0.8846  1.0310
  371MOL0     H50055   4.532  -0.976  11.139  2.7288 -0.7317  4.1033
  371MOL0     H50056   4.532  -0.821  11.048  0.4187 -0.2389 -0.7200
  371MOL0     H50057   4.314  -0.856  11.121  0.7352 -0.2991 -0.1680
  371MOL0     H50058   4.362  -0.864  11.294  1.3587  0.6175  0.3920
  371MOL0     H50059   4.412  -0.629  11.111  0.5234 -0.0589  0.6035
  371MOL0     H50060   4.431  -0.627  11.292 -2.7808  2.0252  0.3278
  371MOL0     H50061   4.245  -0.496  11.220  0.8906  0.8534  1.9086
  371MOL0     H50062   4.171  -0.626  11.139  2.2528  1.4007 -1.7238
  371MOL0     H50063   4.279  -0.651  11.432 -0.4707  1.9362  0.2141
  371MOL0     H50064   4.158  -0.755  11.356  0.9804 -0.2888 -0.7055
  371MOL0     H50065   4.124  -0.465  11.440 -2.0454 -0.7078  1.5475
  371MOL0     H50066   4.042  -0.598  11.514  0.4303 -1.7028 -0.2402
  371MOL0     H50067   5.092  -0.853  11.377  1.1289  1.1965 -0.9531
  371MOL0     H50068   5.314  -0.903  11.295 -1.6670 -0.4259  2.0809
  371MOL0     H50069   5.581  -1.083  10.843 -0.8646  0.3941  0.1628
  371MOL0     H50070   5.785  -1.065  10.729  3.3675  0.3229  0.4996
  371MOL0     H50071   7.582  -0.147  10.787 -0.8925  0.0082 -0.4950
  371MOL0     H50072   7.763   0.020  10.858 -0.4237 -0.1075 -0.3002
  371MOL0     H50073   8.202   0.041  10.947  1.8843  1.7064  1.0702
  371MOL0     H50074   8.425   0.142  11.019 -0.6185  1.3829 -1.2782
  371MOL0     H50075   8.597   0.443  10.759  0.9405  1.9070  0.5352
  371MOL0     H50076   8.687   0.450  10.910  2.7948 -1.9517  0.7987
  371MOL0     H50077   8.761   0.312  10.649  3.7416  0.2364 -1.0149
  371MOL0     H50078   8.810   0.237  10.801 -2.8952  0.4637  2.1112
  371MOL0     H50079   8.903   0.479  10.844  1.4076 -1.9877 -0.1896
  371MOL0     H50080   8.837   0.517  10.686 -0.1531 -1.5240 -2.3066
  371MOL0     H50081   9.008   0.414  10.574  0.0745 -1.6475 -0.3289
  371MOL0     H50082   9.028   0.296  10.706  2.1099 -0.3020 -1.2884
  371MOL0     H50083   9.293   0.625  10.790 -0.5489  2.6050 -2.0396
  371MOL0     H50084   8.489   0.270  10.618 -0.7223 -0.9890 -1.6556
  371MOL0     H50085   8.257   0.202  10.564 -1.8891  2.6411  1.1559
  372MOL0     O50086   5.932   6.398  10.474  0.7650  0.0745 -0.1183
  372MOL0     C50087   5.853   6.342  10.398  0.3160  0.2615  0.3860
  372MOL0     O50088   5.718   6.361  10.393 -0.7833 -0.2554  0.3812
  372MOL0     C50089   5.673   6.460  10.483 -0.4686  0.0428  0.4646
  372MOL0     C50090   5.684   6.595  10.444 -0.0062 -0.3683 -0.8981
  372MOL0     C50091   5.609   6.690  10.516 -0.1879 -0.0520  1.1346
  372MOL0     C50092   5.535   6.650  10.625 -0.2897 -0.5087 -0.2396
  372MOL0     O50093   5.463   6.755  10.673 -0.1489  0.2254 -0.2319
  372MOL0     C50094   5.320   6.732  10.700 -0.0431  0.2865 -0.2279
  372MOL0     C50095   5.232   6.731  10.579  0.2457  0.5102 -0.3845
  372MOL0     C50096   5.100   6.664  10.618  0.2727 -0.1369 -0.7982
  372MOL0     C50097   4.995   6.769  10.665 -0.1949  0.5094  0.0465
  372MOL0     C50098   4.861   6.704  10.696 -0.6700 -0.1773 -1.0417
  372MOL0     C50099   4.768   6.806  10.750 -0.0138  0.5700  0.2241
  372MOL0     C50100   4.625   6.742  10.763 -0.3073 -0.4750 -1.0050
  372MOL0     C50101   4.539   6.833  10.855 -0.0158  0.4904 -0.0491
  372MOL0     N50102   4.391   6.838  10.824 -0.0245 -0.3091  1.0175
  372MOL0     C50103   4.347   6.899  10.714  0.2034  0.1423  0.1659
  372MOL0     C50104   4.210   6.901  10.731  0.1807 -0.8279  0.5069
  372MOL0     C50105   4.128   6.964  10.625  0.4417 -0.0427  0.0052
  372MOL0     C50106   4.066   6.860  10.524  0.0633 -0.1734  0.3123
  372MOL0     C50107   3.963   6.771  10.594  0.0867 -0.3312 -0.2997
  372MOL0     C50108   3.842   6.847  10.659 -0.0916  0.6207 -0.3031
  372MOL0     O50109   3.763   6.924  10.564 -0.0875  1.0490  0.4519
  372MOL0     C50110   3.678   7.014  10.607 -0.0165  1.1426 -0.2952
  372MOL0     C50111   3.635   7.015  10.746 -0.5280  0.4972 -0.4036
  372MOL0     C50112   3.541   7.107  10.794 -0.1901 -0.7583  0.6101
  372MOL0     C50113   3.502   7.114  10.945 -0.1300  0.1686  0.6482
  372MOL0     C50114   3.500   7.205  10.699  1.0047 -0.3193  0.8156
  372MOL0     C50115   3.398   7.311  10.724  0.6545  0.0781  0.7929
  372MOL0     O50116   3.336   7.366  10.618  0.2668 -0.6843  0.3664
  372MOL0     C50117   3.275   7.485  10.642 -0.7991 -0.5212  0.6116
  372MOL0     C50118   3.324   7.599  10.715 -1.4299 -0.6056 -0.7272
  372MOL0     C50119   3.265   7.730  10.699 -0.5936 -0.5241 -0.3858
  372MOL0     C50120   3.158   7.743  10.609 -0.7142 -0.1691 -0.1038
  372MOL0     O50121   3.097   7.862  10.596 -0.7760  0.0267  0.4595
  372MOL0     C50122   3.090   7.958  10.707 -1.1678 -1.1194 -0.6044
  372MOL0     C50123   2.962   8.026  10.710 -0.7346 -0.2420  0.0429
  372MOL0     C50124   2.892   7.994  10.842 -0.0037  0.1424  0.7031
  372MOL0     C50125   2.747   8.020  10.820  0.5072  0.2919 -0.7868
  372MOL0     C50126   2.660   7.962  10.928 -1.1286 -0.2331 -0.6584
  372MOL0     C50127   2.505   7.978  10.919 -0.3312 -1.0708 -0.0927
  372MOL0     C50128   2.454   7.876  11.024 -0.5963  0.2199  0.0411
  372MOL0     C50129   2.317   7.926  11.053 -0.2190  0.2247  0.5371
  372MOL0    Cl50130   2.227   7.819  11.180  0.0613 -0.3727 -0.3773
  372MOL0     C50131   3.119   7.637  10.525 -0.4186  0.4545  0.6779
  372MOL0     C50132   3.174   7.507  10.545 -0.6324  0.1404  0.3215
  372MOL0     O50133   3.362   7.325  10.843 -0.0413  0.5164  0.4696
  372MOL0     C50134   3.542   7.202  10.566  0.3959  0.4651 -0.3947
  372MOL0     C50135   3.636   7.109  10.515 -0.2241  0.0805  0.0159
  372MOL0     N50136   4.176   6.862  10.861  0.2413 -0.1327 -0.5917
  372MOL0     N50137   4.289   6.822  10.916  0.2243  0.6005  1.0215
  372MOL0     C50138   5.533   6.520  10.673  0.0232 -0.9683 -0.3681
  372MOL0     C50139   5.599   6.425  10.599 -0.3420  0.0824  0.2659
  372MOL0     C50140   5.913   6.247  10.309 -0.0804 -0.2275  0.6209
  372MOL0     C50141   6.049   6.202  10.330  0.1692  0.0436  0.5607
  372MOL0     C50142   6.116   6.121  10.241 -0.4271  1.3957  0.4646
  372MOL0     C50143   6.062   6.096  10.114 -0.5148  0.0563 -0.1745
  372MOL0     O50144   6.152   6.040  10.028 -0.5159  0.2290 -0.3561
  372MOL0     C50145   6.129   6.059   9.886 -0.2043 -0.9111 -0.0437
  372MOL0     C50146   6.060   5.934   9.823 -0.3813  0.6896 -0.6672
  372MOL0     C50147   6.037   5.963   9.681 -0.2776 -0.3113  0.0190
  372MOL0     C50148   5.924   6.065   9.663 -0.2360 -0.3785 -0.1414
  372MOL0     C50149   5.878   6.093   9.529 -0.4561  0.4199  1.1215
  372MOL0     C50150   5.866   6.112   9.414 -0.2534 -0.3707  0.2654
  372MOL0     C50151   5.939   6.148  10.088 -0.3782 -0.9589  0.3767
  372MOL0     C50152   5.855   6.214  10.182  0.1036  0.1297  0.2177
  372MOL0     H50153   5.757   6.629  10.371 -0.9769 -1.2023 -2.2800
  372MOL0     H50154   5.610   6.796  10.491  0.1309 -0.5992 -1.3864
  372MOL0     H50155   5.314   6.633  10.746 -0.1312  0.0413 -0.7630
  372MOL0     H50156   5.283   6.809  10.769  0.2258  0.8863 -0.7507
  372MOL0     H50157   5.222   6.832  10.539 -3.8230 -0.7066 -3.0907
  372MOL0     H50158   5.287   6.673  10.504  0.5515 -1.2898  1.1522
  372MOL0     H50159   5.060   6.604  10.536  0.1198 -2.5977  0.9649
  372MOL0     H50160   5.103   6.589  10.698 -0.7093 -2.0486 -2.4517
  372MOL0     H50161   5.032   6.831  10.747 -0.6547  0.7240  0.0989
  372MOL0     H50162   4.982   6.841  10.584 -0.3645  2.1985  1.5095
  372MOL0     H50163   4.821   6.651  10.609 -1.3717 -0.2253 -0.6940
  372MOL0     H50164   4.873   6.638  10.782  4.0900  2.5383  0.8089
  372MOL0     H50165   4.801   6.852  10.843 -0.2092 -2.1465  1.7444
  372MOL0     H50166   4.755   6.883  10.674 -1.6700  1.3245  1.2159
  372MOL0     H50167   4.584   6.728  10.662  0.0350 -1.1084 -1.0641
  372MOL0     H50168   4.621   6.637  10.796  0.6841  0.1928  1.5019
  372MOL0     H50169   4.573   6.937  10.851  2.2597 -0.2342 -2.3721
  372MOL0     H50170   4.562   6.804  10.958  0.6129  0.5284 -0.1731
  372MOL0     H50171   4.416   6.933  10.637  1.8342  1.6253  2.1450
  372MOL0     H50172   4.055   7.027  10.676 -0.6798 -0.2126 -1.3181
  372MOL0     H50173   4.198   7.031  10.574 -0.5008  1.1722  0.2740
  372MOL0     H50174   4.148   6.800  10.485  0.0833  0.4813 -0.6789
  372MOL0     H50175   4.031   6.913  10.436  0.0057 -1.7500 -0.6467
  372MOL0     H50176   4.022   6.709  10.663 -0.5237 -1.6405 -0.9147
  372MOL0     H50177   3.917   6.694  10.531  1.9611 -3.6337  2.0488
  372MOL0     H50178   3.884   6.909  10.738  2.1744 -0.4729 -0.5690
  372MOL0     H50179   3.771   6.780  10.709  2.0780 -2.7019 -1.3409
  372MOL0     H50180   3.679   6.946  10.817  2.3899 -1.7724 -4.0291
  372MOL0     H50181   3.570   7.045  10.995 -0.7761 -2.2225 -1.5284
  372MOL0     H50182   3.523   7.215  10.981  2.2659 -0.0455  0.0464
  372MOL0     H50183   3.399   7.081  10.964 -0.3589  0.5495  0.1073
  372MOL0     H50184   3.413   7.598  10.777 -1.3349  3.2973 -0.5748
  372MOL0     H50185   3.312   7.814  10.749 -1.8195  0.4921 -0.8860
  372MOL0     H50186   3.091   7.900  10.800  1.0342  1.8095  1.3659
  372MOL0     H50187   3.166   8.036  10.706 -1.3822 -0.9144 -1.5796
  372MOL0     H50188   2.967   8.135  10.699  1.7903 -0.2833  0.1576
  372MOL0     H50189   2.905   7.993  10.622  0.5574 -2.5758 -0.0025
  372MOL0     H50190   2.934   8.048  10.927 -1.5733 -3.2289  3.9132
  372MOL0     H50191   2.898   7.889  10.871 -1.6092  0.3840  2.0820
  372MOL0     H50192   2.739   8.128  10.835  2.9077  0.7837 -2.4936
  372MOL0     H50193   2.700   7.990  10.726  0.2085  3.7072 -1.8638
  372MOL0     H50194   2.693   7.990  11.028 -0.0904 -1.5369 -0.6122
  372MOL0     H50195   2.674   7.854  10.916 -0.4537 -0.4929  1.9709
  372MOL0     H50196   2.478   8.083  10.936 -2.3603 -1.7006  0.8443
  372MOL0     H50197   2.468   7.941  10.823 -0.2312 -2.9308  0.5540
  372MOL0     H50198   2.520   7.880  11.111 -0.1746  2.1803 -0.3207
  372MOL0     H50199   2.453   7.778  10.976 -1.0502  0.2511 -0.0160
  372MOL0     H50200   2.261   7.924  10.960 -1.0514 -3.9957  0.9196
  372MOL0     H50201   2.319   8.027  11.095  1.4430 -0.2935  1.8699
  372MOL0     H50202   3.046   7.644  10.445 -0.5767 -4.1945  0.1356
  372MOL0     H50203   3.150   7.426  10.477  1.5439 -0.3872  0.0906
  372MOL0     H50204   3.504   7.277  10.497  0.6826  2.2374  1.2788
  372MOL0     H50205   3.675   7.095  10.415 -0.6661 -0.6124 -0.0683
  372MOL0     H50206   5.472   6.486  10.756 -2.1205 -0.1467 -1.5198
  372MOL0     H50207   5.580   6.320  10.619 -0.7237  0.0351 -0.3303
  372MOL0     H50208   6.102   6.242  10.416  2.6247 -0.6194 -0.5299
  372MOL0     H50209   6.217   6.114  10.279 -0.6938  3.1506  1.6476
  372MOL0     H50210   6.080   6.156   9.872  0.5297 -0.6483 -0.8460
  372MOL0     H50211   6.219   6.073   9.826 -0.6940 -2.9841 -1.3605
  372MOL0     H50212   5.972   5.903   9.879  1.9012 -0.7267  2.4623
  372MOL0     H50213   6.127   5.847   9.823 -0.8460  0.3260 -0.4368
  372MOL0     H50214   6.009   5.869   9.633 -0.0042  0.6172 -2.1007
  372MOL0     H50215   6.130   5.997   9.632 -1.7995  2.9620 -0.8784
  372MOL0     H50216   5.962   6.158   9.706 -1.5351 -0.8701  2.2733
  372MOL0     H50217   5.832   6.043   9.718 -1.1550  0.2626 -1.3849
  372MOL0     H50218   5.863   6.128   9.308 -1.3739 -0.7918  0.2233
  372MOL0     H50219   5.900   6.142   9.987 -2.1127  1.4271  0.8100
  372MOL0     H50220   5.756   6.250  10.158  0.0822 -0.0386  0.0519
  373MOL0     O50221   3.393   4.004   0.723  0.0824 -0.2291 -0.2208
  373MOL0     C50222   3.486   4.079   0.714  0.7014 -0.6399 -0.3915
  373MOL0     O50223   3.480   4.205   0.743  0.1503 -0.0319  0.3366
  373MOL0     C50224   3.364   4.261   0.796 -0.3151  0.2900  0.0348
  373MOL0     C50225   3.242   4.247   0.732 -0.2237  0.1703 -0.7409
  373MOL0     C50226   3.129   4.318   0.775 -0.3071  0.4042  0.4845
  373MOL0     C50227   3.136   4.401   0.891 -1.1686  0.1463  0.7479
  373MOL0     O50228   3.020   4.460   0.936 -0.5726 -0.1876  0.0145
  373MOL0     C50229   3.019   4.484   1.076 -0.3768  0.3824  0.2202
  373MOL0     C50230   2.877   4.482   1.131 -0.1062 -0.1836 -0.4559
  373MOL0     C50231   2.873   4.524   1.278 -0.6760  0.1547 -0.0228
  373MOL0     C50232   2.746   4.495   1.356  0.2287 -0.4144 -0.5056
  373MOL0     C50233   2.772   4.549   1.505  0.1180 -0.1836 -0.1038
  373MOL0     C50234   2.667   4.489   1.607  0.2311 -0.2112  0.5086
  373MOL0     C50235   2.659   4.566   1.741 -0.4035  0.3058  0.1728
  373MOL0     C50236   2.575   4.478   1.837  0.4132  0.7319 -0.3416
  373MOL0     N50237   2.431   4.507   1.858 -0.7456 -0.7409  0.9988
  373MOL0     C50238   2.326   4.520   1.772 -0.5972  1.1039  0.1283
  373MOL0     C50239   2.220   4.551   1.854 -0.6205 -0.4856 -0.2194
  373MOL0     C50240   2.075   4.588   1.815 -0.1400 -1.4130  0.1229
  373MOL0     C50241   1.986   4.466   1.818  0.4035  0.0665  0.8569
  373MOL0     C50242   1.931   4.431   1.958  1.1944 -0.2816  1.0177
  373MOL0     C50243   1.831   4.323   1.951  0.4360 -0.6526  0.2003
  373MOL0     O50244   1.732   4.348   1.848 -0.6717  0.4746 -0.4553
  373MOL0     C50245   1.614   4.277   1.836  0.3006  0.4735 -0.8193
  373MOL0     C50246   1.541   4.280   1.711 -0.3885 -0.2193 -0.0633
  373MOL0     C50247   1.415   4.227   1.690 -0.3982  0.2714 -1.0230
  373MOL0     C50248   1.350   4.235   1.554  0.0966 -0.0954 -0.4169
  373MOL0     C50249   1.353   4.162   1.801  0.0732 -0.1232  0.4286
  373MOL0     C50250   1.214   4.113   1.804 -0.5257 -0.3705 -0.2958
  373MOL0     O50251   1.165   4.074   1.927 -0.4465  0.9304  0.1113
  373MOL0     C50252   1.052   3.994   1.925 -0.0448  0.5697  0.0553
  373MOL0     C50253   0.926   4.049   1.895 -0.0469 -0.2921  0.3563
  373MOL0     C50254   0.808   3.973   1.905  0.0906 -0.3506  0.5335
  373MOL0     C50255   0.810   3.838   1.934 -0.4932  0.1664  0.1314
  373MOL0     O50256   0.689   3.772   1.910 -0.0184 -0.0172 -0.5377
  373MOL0     C50257   0.687   3.625   1.925 -0.8539 -0.4099 -0.1113
  373MOL0     C50258   0.541   3.572   1.937  0.2625  0.2759  0.4528
  373MOL0     C50259   0.443   3.625   1.825  0.1820  0.9666  0.0241
  373MOL0     C50260   0.355   3.508   1.771 -0.5805 -0.1862 -0.2187
  373MOL0     C50261   0.236   3.555   1.685  0.0129 -0.1989 -0.5118
  373MOL0     C50262   0.289   3.624   1.549  0.5126  0.8630 -0.6796
  373MOL0     C50263   0.177   3.712   1.492  0.0750 -0.7047  0.8617
  373MOL0     C50264   0.034   3.670   1.490 -0.0557 -0.1813  0.0186
  373MOL0    Cl50265  -0.001   3.529   1.385 -0.4216 -0.2339 -0.1433
  373MOL0     C50266   0.939   3.789   1.970  0.0670  0.3984 -0.1451
  373MOL0     C50267   1.053   3.867   1.977  0.9493 -0.2743  0.4928
  373MOL0     O50268   1.164   4.087   1.693  0.6979 -0.0639  0.9034
  373MOL0     C50269   1.422   4.160   1.922 -0.7764  0.1867  0.0687
  373MOL0     C50270   1.544   4.220   1.943 -0.3345 -0.0693  0.5872
  373MOL0     N50271   2.261   4.532   1.986 -0.1599  0.2639  0.4461
  373MOL0     N50272   2.386   4.504   1.980 -0.3542  0.1164 -0.6159
  373MOL0     C50273   3.264   4.425   0.949 -0.0863 -0.5125 -0.3331
  373MOL0     C50274   3.374   4.353   0.903  0.0071 -0.2566 -0.2560
  373MOL0     C50275   3.617   4.040   0.668 -0.2307 -0.2110  0.7738
  373MOL0     C50276   3.642   3.908   0.639  0.2798 -0.0473  0.3854
  373MOL0     C50277   3.768   3.858   0.601  0.2105 -0.7913  0.3017
  373MOL0     C50278   3.871   3.953   0.578  0.9880  0.5103 -0.2315
  373MOL0     O50279   3.991   3.921   0.512 -0.0853  0.6185 -0.7705
  373MOL0     C50280   4.077   3.802   0.553 -0.3037  0.1863  0.0945
  373MOL0     C50281   4.206   3.804   0.472 -0.0396  0.4444  0.0417
  373MOL0     C50282   4.289   3.675   0.499  0.6081 -0.5506  0.4746
  373MOL0     C50283   4.344   3.681   0.637 -1.0784  0.2990  0.3626
  373MOL0     C50284   4.470   3.762   0.641 -0.7193  0.5307 -0.1829
  373MOL0     C50285   4.574   3.826   0.649 -0.4260 -0.2422 -0.0354
  373MOL0     C50286   3.840   4.088   0.586 -0.8515 -0.3617 -0.5411
  373MOL0     C50287   3.720   4.131   0.645  0.1447 -0.8257 -0.6034
  373MOL0     H50288   3.238   4.195   0.637 -0.8316 -0.7253 -0.2381
  373MOL0     H50289   3.031   4.310   0.730 -0.3867  0.6996  0.6021
  373MOL0     H50290   3.079   4.413   1.133  0.2673 -0.5188 -1.5234
  373MOL0     H50291   3.064   4.581   1.101 -0.4795 -0.1807  2.8293
  373MOL0     H50292   2.815   4.547   1.069  1.1555  0.5118 -1.0344
  373MOL0     H50293   2.847   4.377   1.126  3.1014 -1.2556  0.3497
  373MOL0     H50294   2.954   4.468   1.327 -1.1989 -2.7475 -2.2361
  373MOL0     H50295   2.889   4.632   1.275 -1.2939  0.3639  2.2837
  373MOL0     H50296   2.660   4.548   1.316 -0.5776  0.8718  2.6054
  373MOL0     H50297   2.720   4.389   1.356 -0.1280 -0.3326  0.1026
  373MOL0     H50298   2.868   4.518   1.549  0.7559  0.6919 -0.8402
  373MOL0     H50299   2.765   4.658   1.503 -0.5536 -0.2258 -0.0313
  373MOL0     H50300   2.568   4.494   1.560  1.2503 -1.9234 -2.0307
  373MOL0     H50301   2.676   4.380   1.614  1.4998 -0.4236 -2.6826
  373MOL0     H50302   2.763   4.571   1.773 -0.9629  1.0442  1.9831
  373MOL0     H50303   2.621   4.668   1.730  1.7411  1.2022  0.5493
  373MOL0     H50304   2.625   4.484   1.935 -2.0575 -3.7028  1.4721
  373MOL0     H50305   2.594   4.373   1.816  0.9288  0.4767  1.2338
  373MOL0     H50306   2.325   4.508   1.664  1.8671  0.2694  0.1419
  373MOL0     H50307   2.036   4.646   1.899 -1.3726 -0.9155 -0.7591
  373MOL0     H50308   2.070   4.641   1.720  2.6611 -2.3261 -0.6178
  373MOL0     H50309   2.039   4.386   1.767 -0.8598  1.0791 -2.3127
  373MOL0     H50310   1.901   4.491   1.752 -1.5036 -2.5506  2.1360
  373MOL0     H50311   1.880   4.519   1.998  1.6013  0.4741 -0.0738
  373MOL0     H50312   2.018   4.411   2.022  0.4716 -1.6975  1.6066
  373MOL0     H50313   1.786   4.316   2.051  2.4732 -1.2795  1.1434
  373MOL0     H50314   1.887   4.231   1.933  1.7414  0.3378 -1.0803
  373MOL0     H50315   1.584   4.330   1.625  1.0775  2.9423  2.3111
  373MOL0     H50316   1.354   4.131   1.520  0.3725  0.2461 -1.4549
  373MOL0     H50317   1.248   4.274   1.560 -1.1502 -3.1324 -0.0019
  373MOL0     H50318   1.412   4.299   1.490 -0.3972  0.8523  0.0364
  373MOL0     H50319   0.906   4.149   1.858 -2.1157 -0.8189 -0.1105
  373MOL0     H50320   0.715   4.026   1.887  0.3501  0.3428  1.2128
  373MOL0     H50321   0.733   3.580   1.836  0.7460  0.3251  0.3015
  373MOL0     H50322   0.739   3.600   2.017 -2.3606  0.1196  0.9149
  373MOL0     H50323   0.536   3.464   1.951  1.3083  0.4702  2.8922
  373MOL0     H50324   0.501   3.613   2.031  0.9338  3.0001 -0.3700
  373MOL0     H50325   0.502   3.668   1.744  1.1754  0.1561  0.2895
  373MOL0     H50326   0.370   3.690   1.873 -2.0162 -2.3900  1.6732
  373MOL0     H50327   0.421   3.442   1.714  1.5179  0.5500  1.2324
  373MOL0     H50328   0.317   3.444   1.851  0.7508 -2.0170 -0.9730
  373MOL0     H50329   0.190   3.626   1.755  0.8853 -2.1145  2.1719
  373MOL0     H50330   0.159   3.484   1.653 -0.1613  0.1713 -0.9302
  373MOL0     H50331   0.380   3.684   1.558 -0.6090  3.1954 -3.1455
  373MOL0     H50332   0.302   3.534   1.487  0.2181 -0.0013  0.4869
  373MOL0     H50333   0.206   3.751   1.394 -3.8943 -1.5968 -0.8879
  373MOL0     H50334   0.174   3.800   1.557 -1.8135 -0.4164  0.4378
  373MOL0     H50335  -0.042   3.744   1.462  0.6572  0.7963  0.6429
  373MOL0     H50336   0.004   3.641   1.592  1.2576  1.4033  0.9012
  373MOL0     H50337   0.956   3.686   1.999  0.3512  0.2515 -0.8248
  373MOL0     H50338   1.148   3.837   2.020  1.5509 -0.4345 -0.9056
  373MOL0     H50339   1.373   4.115   2.008 -2.3188 -2.5817 -2.1081
  373MOL0     H50340   1.585   4.233   2.043 -2.7996 -0.0618  1.6708
  373MOL0     H50341   3.279   4.494   1.031 -0.8688 -0.9819  0.2219
  373MOL0     H50342   3.466   4.376   0.956 -0.5694 -2.9493  2.1791
  373MOL0     H50343   3.558   3.840   0.649  0.9697 -1.2408 -1.4425
  373MOL0     H50344   3.775   3.751   0.583 -0.9214 -1.0275  1.1396
  373MOL0     H50345   4.101   3.795   0.660  1.6982 -1.6969 -0.4088
  373MOL0     H50346   4.025   3.710   0.524  1.4388 -0.9815  0.4944
  373MOL0     H50347   4.275   3.883   0.504 -0.4971  0.8079  0.1482
  373MOL0     H50348   4.184   3.820   0.366 -1.0210  0.5969  0.2598
  373MOL0     H50349   4.365   3.650   0.423 -1.5038  1.1004 -2.3653
  373MOL0     H50350   4.219   3.591   0.496  0.9063 -0.8808  1.8308
  373MOL0     H50351   4.361   3.579   0.671 -1.9646 -0.6444 -1.8244
  373MOL0     H50352   4.276   3.717   0.715 -1.6167  3.9167 -1.5517
  373MOL0     H50353   4.667   3.878   0.641  0.4172 -1.5954  0.4998
  373MOL0     H50354   3.913   4.162   0.554 -3.0491  1.7996 -0.8667
  373MOL0     H50355   3.712   4.239   0.656 -0.3931 -0.6924 -2.0236
  374MOL0     O50356   7.197   0.514   0.464  0.6197  0.1935 -0.2510
  374MOL0     C50357   7.179   0.441   0.560 -0.2339 -0.1418 -0.1375
  374MOL0     O50358   7.058   0.421   0.631 -0.5190  0.7772 -0.3395
  374MOL0     C50359   6.940   0.465   0.583 -0.2761 -0.1234  0.1262
  374MOL0     C50360   6.913   0.526   0.458 -0.0324  0.6277  0.7694
  374MOL0     C50361   6.781   0.570   0.428 -0.3220  0.0834  0.1638
  374MOL0     C50362   6.672   0.524   0.506  0.7029 -0.3616 -0.2280
  374MOL0     O50363   6.540   0.547   0.485  0.5826  0.5148 -0.2151
  374MOL0     C50364   6.496   0.558   0.348  0.7262  0.2826 -0.8886
  374MOL0     C50365   6.477   0.701   0.304  0.0253  0.4709  0.7683
  374MOL0     C50366   6.446   0.697   0.155  0.1381 -0.2220  0.2851
  374MOL0     C50367   6.403   0.835   0.099  0.3335 -0.8051  0.4201
  374MOL0     C50368   6.365   0.825  -0.047 -0.1576  0.3691 -0.1345
  374MOL0     C50369   6.321   0.961  -0.101 -0.7212  0.6506  0.2556
  374MOL0     C50370   6.169   0.995  -0.090 -0.3817  0.3209 -0.2263
  374MOL0     C50371   6.125   1.096  -0.200  0.1024  0.3138 -0.1320
  374MOL0     N50372   5.979   1.112  -0.205 -0.3880 -0.2872  0.1271
  374MOL0     C50373   5.912   1.205  -0.131 -0.4135 -0.1212 -0.1339
  374MOL0     C50374   5.783   1.191  -0.172  0.0040  1.0330 -0.2684
  374MOL0     C50375   5.662   1.270  -0.115 -0.3770  0.4997  0.4244
  374MOL0     C50376   5.664   1.413  -0.182 -0.2538 -0.2555 -0.0866
  374MOL0     C50377   5.605   1.401  -0.331  0.2678  0.0627 -0.6412
  374MOL0     C50378   5.454   1.347  -0.340 -0.3824 -0.2028 -0.2731
  374MOL0     O50379   5.401   1.392  -0.474 -0.5256  0.0151  0.3946
  374MOL0     C50380   5.272   1.355  -0.505  0.5699  0.0985  0.2692
  374MOL0     C50381   5.221   1.362  -0.639  0.7518  0.1867 -0.1269
  374MOL0     C50382   5.091   1.320  -0.674  0.5080 -0.5643 -0.0868
  374MOL0     C50383   5.034   1.358  -0.814 -0.4485  0.1610 -0.3106
  374MOL0     C50384   5.006   1.263  -0.579 -0.1152 -0.4224  0.2693
  374MOL0     C50385   4.863   1.209  -0.605 -0.2597  0.2253 -0.1304
  374MOL0     O50386   4.832   1.098  -0.525 -0.2019  0.5372  0.0693
  374MOL0     C50387   4.714   1.032  -0.537  0.2125 -0.0707 -0.2806
  374MOL0     C50388   4.712   0.892  -0.566 -0.8854  0.1075  0.4200
  374MOL0     C50389   4.596   0.819  -0.568  0.1701 -0.0671  0.1835
  374MOL0     C50390   4.472   0.887  -0.542  1.5243  1.3397  1.2810
  374MOL0     O50391   4.347   0.823  -0.549  0.1208 -0.2661  0.0532
  374MOL0     C50392   4.327   0.699  -0.609  0.0622  1.2059  0.6162
  374MOL0     C50393   4.193   0.682  -0.677  0.1135 -0.2441  0.2659
  374MOL0     C50394   4.079   0.674  -0.578  0.9300 -0.2953 -0.0709
  374MOL0     C50395   3.952   0.681  -0.666  0.4653  0.5013 -0.6508
  374MOL0     C50396   3.822   0.655  -0.589 -1.2305  0.8275  0.5633
  374MOL0     C50397   3.773   0.783  -0.535  0.1989  0.0743 -0.4591
  374MOL0     C50398   3.636   0.775  -0.463  0.5932  0.1213  0.0794
  374MOL0     C50399   3.518   0.699  -0.542  0.7722  0.5511  0.5265
  374MOL0    Cl50400   3.384   0.698  -0.440 -0.0521  0.2663 -0.1795
  374MOL0     C50401   4.462   1.027  -0.524 -0.1546  0.7895  0.3394
  374MOL0     C50402   4.587   1.096  -0.520  0.0365 -0.2839  0.0543
  374MOL0     O50403   4.782   1.264  -0.682 -0.2405  0.3439 -0.7247
  374MOL0     C50404   5.057   1.253  -0.453  0.2226  0.2932 -0.3323
  374MOL0     C50405   5.184   1.305  -0.412  0.9553 -0.4330  0.1299
  374MOL0     N50406   5.777   1.089  -0.258  1.1145  0.4504 -0.0639
  374MOL0     N50407   5.893   1.047  -0.289 -0.3164  1.1465  0.2598
  374MOL0     C50408   6.704   0.461   0.630 -0.1320  0.1136 -0.1421
  374MOL0     C50409   6.835   0.435   0.667  0.5237  0.1200  0.3023
  374MOL0     C50410   7.298   0.371   0.609  0.1073  0.5221 -0.0907
  374MOL0     C50411   7.282   0.284   0.721 -0.5118 -0.3001 -0.4611
  374MOL0     C50412   7.389   0.209   0.765  0.0214  0.3793 -0.3070
  374MOL0     C50413   7.511   0.227   0.708 -1.4193 -0.1343 -0.4726
  374MOL0     O50414   7.622   0.161   0.764  0.2677 -0.4576  0.2016
  374MOL0     C50415   7.737   0.152   0.684 -0.6233  0.8959  1.5900
  374MOL0     C50416   7.816   0.032   0.733  0.5579  0.2552  1.1526
  374MOL0     C50417   7.759  -0.102   0.695  0.7521 -0.5512  0.3291
  374MOL0     C50418   7.852  -0.223   0.706  0.3223 -0.2268 -0.1343
  374MOL0     C50419   7.788  -0.339   0.643 -0.4083 -0.5370 -0.3184
  374MOL0     C50420   7.719  -0.432   0.589 -0.1357 -0.4885 -0.7004
  374MOL0     C50421   7.535   0.331   0.616  0.3153  0.2904  0.0257
  374MOL0     C50422   7.419   0.397   0.559 -0.2384  0.7989 -0.3035
  374MOL0     H50423   6.992   0.563   0.394 -0.4769 -0.2562 -0.3192
  374MOL0     H50424   6.762   0.635   0.343 -3.1140  0.0315  0.6652
  374MOL0     H50425   6.568   0.508   0.282 -0.7320 -2.9560 -0.2043
  374MOL0     H50426   6.403   0.502   0.334  1.3851 -2.1189  2.9704
  374MOL0     H50427   6.399   0.745   0.367  0.1986  0.3004  1.1079
  374MOL0     H50428   6.574   0.744   0.329  0.3935 -1.5436  3.3023
  374MOL0     H50429   6.522   0.656   0.089  0.2208  0.4620 -0.0603
  374MOL0     H50430   6.360   0.633   0.135 -0.9757  0.9916  0.9759
  374MOL0     H50431   6.324   0.883   0.157 -0.1482 -0.1598 -0.7249
  374MOL0     H50432   6.490   0.901   0.106 -0.1745 -0.1016  0.2084
  374MOL0     H50433   6.453   0.788  -0.101 -1.0953 -1.3472 -0.5422
  374MOL0     H50434   6.293   0.743  -0.055 -4.0056  3.3962  0.8665
  374MOL0     H50435   6.386   1.030  -0.047  1.8209 -0.7263 -0.8175
  374MOL0     H50436   6.342   0.982  -0.206 -1.4633 -0.2471 -0.0833
  374MOL0     H50437   6.115   0.901  -0.100  3.3464 -2.3183  1.6924
  374MOL0     H50438   6.151   1.047   0.005  1.4886  3.9810 -1.6747
  374MOL0     H50439   6.169   1.056  -0.293  0.7731 -1.4169  0.8753
  374MOL0     H50440   6.172   1.194  -0.192  0.0231  0.3634 -0.2554
  374MOL0     H50441   5.962   1.266  -0.056  0.9267  1.3089 -2.0922
  374MOL0     H50442   5.573   1.207  -0.128  1.4927 -2.3083  0.4557
  374MOL0     H50443   5.670   1.284  -0.007  0.5476 -1.1450  0.5973
  374MOL0     H50444   5.760   1.464  -0.186  1.0308 -2.3172  1.9030
  374MOL0     H50445   5.602   1.480  -0.122 -1.7309 -2.5579  1.1036
  374MOL0     H50446   5.675   1.332  -0.379  1.2870  0.5140  0.1334
  374MOL0     H50447   5.614   1.498  -0.382 -1.1922  0.8946  0.6167
  374MOL0     H50448   5.389   1.395  -0.266 -2.1448 -0.5131 -1.5329
  374MOL0     H50449   5.459   1.239  -0.328  2.0808 -0.6377 -3.7637
  374MOL0     H50450   5.287   1.406  -0.713  1.6067 -1.0580 -0.1370
  374MOL0     H50451   4.949   1.426  -0.800 -0.8067 -0.7012  2.3359
  374MOL0     H50452   5.112   1.412  -0.869  0.3145  0.0059  0.6033
  374MOL0     H50453   5.003   1.265  -0.861  0.5266 -1.1719  1.5537
  374MOL0     H50454   4.804   0.835  -0.575  0.0911  1.6852  0.1149
  374MOL0     H50455   4.609   0.713  -0.583  0.0224  0.1872 -2.1291
  374MOL0     H50456   4.397   0.681  -0.691  0.1272 -1.7223  1.1759
  374MOL0     H50457   4.340   0.618  -0.536  0.2725  1.8869  1.3444
  374MOL0     H50458   4.177   0.767  -0.743 -0.2765  0.9360  1.8088
  374MOL0     H50459   4.207   0.587  -0.728 -0.4789 -0.0355 -0.2987
  374MOL0     H50460   4.076   0.751  -0.500  1.5975 -0.1793 -0.1507
  374MOL0     H50461   4.088   0.581  -0.520 -1.6709 -0.5048  0.1049
  374MOL0     H50462   3.953   0.776  -0.720  2.0830 -0.1586 -1.8547
  374MOL0     H50463   3.945   0.608  -0.747 -1.9544 -1.8141  1.4683
  374MOL0     H50464   3.855   0.586  -0.510  2.8702  1.2469 -0.5427
  374MOL0     H50465   3.753   0.607  -0.660  0.3833  0.2575 -0.6865
  374MOL0     H50466   3.851   0.814  -0.465  1.6678 -2.6730 -0.7461
  374MOL0     H50467   3.768   0.868  -0.604  1.7728  0.2905 -0.3358
  374MOL0     H50468   3.603   0.879  -0.458 -1.3100 -0.4098 -0.6241
  374MOL0     H50469   3.649   0.736  -0.362 -1.4846 -0.0956  0.3019
  374MOL0     H50470   3.541   0.595  -0.566  0.0479 -0.2258  2.9448
  374MOL0     H50471   3.485   0.756  -0.629 -0.4097  1.2657  1.4097
  374MOL0     H50472   4.364   1.072  -0.505 -0.1547  0.6370  0.7137
  374MOL0     H50473   4.583   1.202  -0.494  0.8577 -0.4208  0.7851
  374MOL0     H50474   5.000   1.194  -0.383 -1.2916  1.1565 -0.7981
  374MOL0     H50475   5.197   1.297  -0.305 -2.5311 -0.5104  0.6561
  374MOL0     H50476   6.621   0.431   0.694  1.0782  1.4926  2.2054
  374MOL0     H50477   6.845   0.392   0.766  0.5828 -0.7397 -0.0607
  374MOL0     H50478   7.184   0.280   0.767  0.3031  0.8772  1.5001
  374MOL0     H50479   7.385   0.139   0.848 -2.8497 -0.9837 -1.4421
  374MOL0     H50480   7.729   0.144   0.575  2.1981  0.8867  1.3056
  374MOL0     H50481   7.795   0.241   0.710 -0.6205  1.2360  0.4798
  374MOL0     H50482   7.809   0.022   0.842  0.0087 -2.3969  0.9344
  374MOL0     H50483   7.918   0.047   0.696  0.2730  0.4119  0.4122
  374MOL0     H50484   7.731  -0.090   0.590  0.6709 -1.3600  0.2522
  374MOL0     H50485   7.668  -0.130   0.748 -0.1971 -0.2503 -1.0781
  374MOL0     H50486   7.869  -0.245   0.811 -2.0108  0.9473  0.5586
  374MOL0     H50487   7.948  -0.213   0.654  0.0040 -2.3387 -1.2573
  374MOL0     H50488   7.642  -0.498   0.556 -0.4310 -0.9654  0.8285
  374MOL0     H50489   7.635   0.354   0.582  0.7685  1.7029  2.0975
  374MOL0     H50490   7.436   0.466   0.476 -0.7496  1.8629  0.4486
  375MOL0     O50491   5.550   0.448   7.259 -0.6149  0.0261  0.7361
  375MOL0     C50492   5.641   0.375   7.293 -0.4862 -0.1422 -0.0350
  375MOL0     O50493   5.636   0.286   7.403 -0.1123 -0.0359 -0.2165
  375MOL0     C50494   5.511   0.264   7.454 -0.1458 -0.5861 -0.0223
  375MOL0     C50495   5.459   0.351   7.555  0.4701 -0.2901  0.3490
  375MOL0     C50496   5.329   0.324   7.606 -0.3160 -0.9055  0.1923
  375MOL0     C50497   5.245   0.229   7.557  0.0258  0.8109 -0.5400
  375MOL0     O50498   5.111   0.220   7.592 -0.5494  0.1694 -0.5599
  375MOL0     C50499   5.059   0.285   7.713  1.1551  0.4035  0.1467
  375MOL0     C50500   4.921   0.223   7.747 -0.0053  0.6366  0.5929
  375MOL0     C50501   4.854   0.314   7.845  0.6605  0.5484 -0.2483
  375MOL0     C50502   4.728   0.237   7.895 -0.1867 -0.1940 -0.5624
  375MOL0     C50503   4.674   0.302   8.023 -0.7731  0.3367  0.1656
  375MOL0     C50504   4.581   0.206   8.107 -1.0589 -0.2218  0.0819
  375MOL0     C50505   4.450   0.166   8.033  0.0069  0.5332 -0.1419
  375MOL0     C50506   4.345   0.259   8.083  0.2982 -0.0130  0.4937
  375MOL0     N50507   4.217   0.222   8.034 -0.0325  0.4386  0.6461
  375MOL0     C50508   4.160   0.096   8.026  0.6007 -0.6894  1.2115
  375MOL0     C50509   4.059   0.112   7.940  0.2777 -0.3995 -0.4649
  375MOL0     C50510   3.992  -0.009   7.881 -0.3472  0.1887  1.6929
  375MOL0     C50511   3.853   0.010   7.829 -0.1587 -0.3756 -0.0802
  375MOL0     C50512   3.836   0.088   7.697 -0.1448 -0.4479  0.4258
  375MOL0     C50513   3.690   0.122   7.673  0.5587  0.3878 -0.3518
  375MOL0     O50514   3.639   0.195   7.784  0.2628 -0.7481  0.0715
  375MOL0     C50515   3.501   0.182   7.801 -1.1343 -0.0195 -0.9665
  375MOL0     C50516   3.410   0.167   7.702  0.4542 -0.3660  0.4260
  375MOL0     C50517   3.275   0.148   7.733 -0.3893  0.0274 -0.4985
  375MOL0     C50518   3.185   0.123   7.610 -0.5246  0.1183  0.2119
  375MOL0     C50519   3.226   0.163   7.868 -0.1654 -0.8484  0.4838
  375MOL0     C50520   3.079   0.148   7.910 -0.6235  1.7213  0.3790
  375MOL0     O50521   3.002   0.058   7.839 -0.1937 -1.0109  0.1140
  375MOL0     C50522   2.862   0.031   7.860 -0.7353 -0.0674 -0.2273
  375MOL0     C50523   2.790   0.055   7.977  0.3979 -0.5184  0.2979
  375MOL0     C50524   2.654   0.013   7.989 -0.5594  0.5112  0.6535
  375MOL0     C50525   2.594  -0.060   7.883 -0.3076 -0.8402  0.7323
  375MOL0     O50526   2.466  -0.093   7.890 -0.2033  0.5595 -0.6444
  375MOL0     C50527   2.370   0.013   7.887  0.4495  0.1788 -0.7297
  375MOL0     C50528   2.316   0.035   7.749 -0.5402 -0.0546 -0.4646
  375MOL0     C50529   2.256  -0.095   7.689 -0.7427  0.4034  0.7712
  375MOL0     C50530   2.214  -0.064   7.551 -0.4956  0.0297  0.6870
  375MOL0     C50531   2.124  -0.175   7.496 -0.6787 -0.6123 -0.6795
  375MOL0     C50532   2.181  -0.313   7.473 -0.9535  0.1685  0.3007
  375MOL0     C50533   2.315  -0.324   7.397 -0.6231 -0.1930  0.5298
  375MOL0     C50534   2.374  -0.463   7.399  0.1872 -0.1391  0.0969
  375MOL0    Cl50535   2.438  -0.514   7.553 -0.3519  0.1440  0.3746
  375MOL0     C50536   2.671  -0.094   7.769 -0.1211 -0.4098 -0.2855
  375MOL0     C50537   2.795  -0.040   7.760 -0.6211  0.5824  0.0522
  375MOL0     O50538   3.036   0.209   8.004 -1.2723 -0.5723 -0.0064
  375MOL0     C50539   3.321   0.185   7.970 -0.2833 -0.3810  0.2151
  375MOL0     C50540   3.456   0.196   7.936 -0.3265 -0.9185  0.6637
  375MOL0     N50541   4.048   0.253   7.908 -0.3459  0.6049  0.2654
  375MOL0     N50542   4.145   0.309   7.973 -0.2386 -0.6523 -0.1076
  375MOL0     C50543   5.298   0.142   7.461 -0.2808  0.6191 -0.0883
  375MOL0     C50544   5.434   0.156   7.415 -0.0608  0.4753 -0.1162
  375MOL0     C50545   5.772   0.392   7.230  0.0709  0.9679  0.2657
  375MOL0     C50546   5.785   0.478   7.113 -0.7397  1.1125 -0.8595
  375MOL0     C50547   5.914   0.500   7.059 -0.0235 -0.2717 -0.0829
  375MOL0     C50548   6.031   0.431   7.102 -0.3775  0.7277 -0.7898
  375MOL0     O50549   6.156   0.446   7.045 -0.4709  0.5621  0.7132
  375MOL0     C50550   6.205   0.339   6.961 -0.6097 -0.2723 -0.4354
  375MOL0     C50551   6.358   0.314   6.964  0.6036 -0.4922 -0.0188
  375MOL0     C50552   6.422   0.288   7.104  0.3918 -1.0095  0.5961
  375MOL0     C50553   6.570   0.248   7.085  0.4358 -0.2486  0.7407
  375MOL0     C50554   6.578   0.126   7.002  0.0882 -0.1062 -0.9551
  375MOL0     C50555   6.600   0.023   6.936 -0.1167  0.1395  0.6757
  375MOL0     C50556   6.009   0.339   7.215 -0.2575  0.2129  0.0077
  375MOL0     C50557   5.881   0.314   7.272  0.2031 -0.0225 -0.2786
  375MOL0     H50558   5.525   0.425   7.599  0.2453  0.4924 -0.5922
  375MOL0     H50559   5.293   0.394   7.680  0.5091  1.3523 -1.4065
  375MOL0     H50560   5.130   0.273   7.795  2.4294 -0.2049 -0.9981
  375MOL0     H50561   5.044   0.392   7.694 -1.6329 -0.3321 -2.8958
  375MOL0     H50562   4.866   0.217   7.652 -0.7327  0.6857  1.0043
  375MOL0     H50563   4.950   0.125   7.786  2.7977  0.4507 -1.6224
  375MOL0     H50564   4.915   0.337   7.932  1.3243 -0.0721 -0.5378
  375MOL0     H50565   4.823   0.406   7.794 -2.3335  0.2785  0.9012
  375MOL0     H50566   4.657   0.234   7.812  0.2741  0.0618 -0.9672
  375MOL0     H50567   4.748   0.131   7.915 -0.7822 -0.5431 -1.6902
  375MOL0     H50568   4.749   0.353   8.085 -0.7909 -0.2942  0.7184
  375MOL0     H50569   4.616   0.388   7.987  1.1284  1.1934 -0.9971
  375MOL0     H50570   4.639   0.114   8.117  0.8538  1.0007  1.0440
  375MOL0     H50571   4.551   0.233   8.208 -3.1928 -5.5502  1.1894
  375MOL0     H50572   4.463   0.160   7.925 -1.0394  0.6733 -0.2899
  375MOL0     H50573   4.438   0.065   8.073  3.7759 -0.8520 -2.0840
  375MOL0     H50574   4.364   0.362   8.054  1.3443 -0.1767  0.5538
  375MOL0     H50575   4.328   0.259   8.192 -2.1307  0.7666  0.1732
  375MOL0     H50576   4.186  -0.006   8.052  0.6847 -1.2803 -0.9542
  375MOL0     H50577   4.056  -0.048   7.801 -2.0133 -0.0216  0.3976
  375MOL0     H50578   3.997  -0.078   7.966 -1.7473 -1.2484  0.6625
  375MOL0     H50579   3.803   0.068   7.907  0.0935 -1.2990  0.8023
  375MOL0     H50580   3.803  -0.087   7.823 -1.0996  0.1272 -0.6761
  375MOL0     H50581   3.864   0.029   7.610 -0.9966 -1.4037  0.7708
  375MOL0     H50582   3.892   0.182   7.697  3.8484 -2.5884  1.5279
  375MOL0     H50583   3.635   0.028   7.664  0.9140  0.3457 -2.6619
  375MOL0     H50584   3.668   0.183   7.585 -0.4688  0.2550 -0.2028
  375MOL0     H50585   3.450   0.134   7.607  1.4558  0.4310  0.5543
  375MOL0     H50586   3.242   0.111   7.518 -1.4667  3.3804 -0.9157
  375MOL0     H50587   3.122   0.036   7.631  2.0346 -1.4607  2.0220
  375MOL0     H50588   3.130   0.216   7.592 -0.3416  0.9316  3.2082
  375MOL0     H50589   2.825   0.107   8.065 -1.2235 -0.1218  0.7553
  375MOL0     H50590   2.599   0.043   8.078  1.7448  1.8498  1.7310
  375MOL0     H50591   2.290  -0.007   7.959 -0.4653  0.5815 -1.6123
  375MOL0     H50592   2.409   0.106   7.928  0.8222 -0.7045  0.9931
  375MOL0     H50593   2.243   0.115   7.761 -0.5532  0.0234 -1.0465
  375MOL0     H50594   2.404   0.074   7.697  0.0932  0.9726  1.2703
  375MOL0     H50595   2.170  -0.135   7.744  2.3926 -6.3134  1.8372
  375MOL0     H50596   2.330  -0.176   7.686 -0.2052  0.9117 -1.8805
  375MOL0     H50597   2.144   0.020   7.559  0.3138  0.5434  3.6364
  375MOL0     H50598   2.304  -0.046   7.490 -1.3477 -0.5026 -0.7706
  375MOL0     H50599   2.072  -0.137   7.407 -1.0160 -0.0502 -0.2464
  375MOL0     H50600   2.039  -0.189   7.563 -0.5744 -0.5483 -0.5330
  375MOL0     H50601   2.194  -0.362   7.570 -1.1201 -1.3806 -0.4268
  375MOL0     H50602   2.104  -0.361   7.412  1.0900  1.3553 -3.5806
  375MOL0     H50603   2.390  -0.253   7.436  1.4995 -2.1874  0.3069
  375MOL0     H50604   2.299  -0.300   7.291  2.7008  0.5178  0.0718
  375MOL0     H50605   2.463  -0.480   7.337  0.8884  2.1707  0.3538
  375MOL0     H50606   2.291  -0.527   7.369  0.1645  0.6362 -1.5761
  375MOL0     H50607   2.629  -0.162   7.697  5.1830 -4.4707 -0.1522
  375MOL0     H50608   2.859  -0.061   7.676 -0.2986  0.7719  0.2487
  375MOL0     H50609   3.288   0.202   8.073  0.1567  1.5646  0.0809
  375MOL0     H50610   3.528   0.216   8.015  1.4292 -0.5319 -0.9540
  375MOL0     H50611   5.243   0.054   7.428 -2.1945  0.3801  3.2879
  375MOL0     H50612   5.486   0.079   7.358  0.0941  1.0092 -0.7145
  375MOL0     H50613   5.696   0.528   7.075  0.5852  1.0248 -4.4867
  375MOL0     H50614   5.932   0.563   6.973 -0.3416  0.4643  0.3744
  375MOL0     H50615   6.155   0.242   6.971 -0.2253 -0.4418 -0.1314
  375MOL0     H50616   6.183   0.366   6.857 -0.3157 -1.5797 -0.8608
  375MOL0     H50617   6.402   0.402   6.916 -1.1618 -0.3448 -1.4963
  375MOL0     H50618   6.367   0.228   6.896 -1.9709 -3.3157  2.8664
  375MOL0     H50619   6.369   0.202   7.146 -0.3257 -1.2389 -0.7185
  375MOL0     H50620   6.418   0.373   7.172 -0.4658  0.6191 -1.3782
  375MOL0     H50621   6.620   0.241   7.182  0.2852  2.2110  1.0612
  375MOL0     H50622   6.621   0.328   7.030 -0.1716 -1.5296 -1.8092
  375MOL0     H50623   6.624  -0.054   6.865  0.1801  0.7305  0.1268
  375MOL0     H50624   6.097   0.279   7.238 -1.2864 -1.0424  0.7685
  375MOL0     H50625   5.870   0.241   7.352  0.3090  1.4752  1.1522
  376MOL0     O50626   1.701   7.397   6.671 -0.4855  0.5338 -0.0481
  376MOL0     C50627   1.707   7.378   6.547  0.1920  0.6151 -0.7778
  376MOL0     O50628   1.604   7.370   6.455 -0.0183  0.6331 -0.0954
  376MOL0     C50629   1.482   7.415   6.479  0.0112  0.4434  0.5415
  376MOL0     C50630   1.456   7.532   6.560 -1.0773  0.3388 -0.2976
  376MOL0     C50631   1.319   7.560   6.580 -1.1211 -0.6147  0.0772
  376MOL0     C50632   1.224   7.491   6.515  0.4423 -0.1138 -0.2312
  376MOL0     O50633   1.095   7.532   6.548  0.4997 -0.3504 -0.1947
  376MOL0     C50634   0.976   7.487   6.480 -0.7918  0.1423  1.0190
  376MOL0     C50635   0.964   7.545   6.334  0.1212 -0.4239  0.0217
  376MOL0     C50636   0.845   7.499   6.266  1.0906  0.1581 -0.4755
  376MOL0     C50637   0.700   7.553   6.296 -0.8247 -0.6994  0.2058
  376MOL0     C50638   0.587   7.479   6.206 -0.4366 -0.3277  0.3128
  376MOL0     C50639   0.452   7.522   6.255  0.1413 -0.4069  0.4445
  376MOL0     C50640   0.321   7.465   6.185 -0.3676 -0.2844 -0.0427
  376MOL0     C50641   0.199   7.525   6.246  0.3736  0.0081 -0.0670
  376MOL0     N50642   0.075   7.457   6.209 -0.7760  0.5406 -0.1069
  376MOL0     C50643  -0.007   7.492   6.101  0.5762  0.0883  1.2148
  376MOL0     C50644  -0.106   7.402   6.105 -0.3558 -0.4678  0.8733
  376MOL0     C50645  -0.219   7.384   6.008 -0.1888  0.1635  0.1995
  376MOL0     C50646  -0.262   7.516   5.941  0.2042  0.0302 -0.6631
  376MOL0     C50647  -0.359   7.592   6.027 -1.4134 -0.3856 -0.0362
  376MOL0     C50648  -0.491   7.532   6.033  0.0235  0.1035 -1.1270
  376MOL0     O50649  -0.569   7.541   5.920 -0.5114  0.1664  0.1148
  376MOL0     C50650  -0.706   7.520   5.931  0.8105 -0.3966  0.1552
  376MOL0     C50651  -0.764   7.448   6.032  1.9044  0.5406 -0.1772
  376MOL0     C50652  -0.900   7.422   6.035 -0.2698 -0.4820  0.0153
  376MOL0     C50653  -0.950   7.347   6.152  0.7931 -0.1995 -0.3225
  376MOL0     C50654  -0.986   7.471   5.924 -0.8190  0.4474 -0.3525
  376MOL0     C50655  -1.130   7.461   5.912  0.3005 -0.2092 -0.5115
  376MOL0     O50656  -1.198   7.397   6.020  0.1481  0.0757  0.1393
  376MOL0     C50657  -1.335   7.389   6.029  0.4189  0.3318  0.7831
  376MOL0     C50658  -1.376   7.343   6.153  0.3170  0.8573 -0.9352
  376MOL0     C50659  -1.511   7.343   6.191 -0.0680 -0.1374  0.3745
  376MOL0     C50660  -1.612   7.376   6.091 -1.0349  0.0271 -0.6521
  376MOL0     O50661  -1.742   7.392   6.139  0.3790 -0.1695 -0.0821
  376MOL0     C50662  -1.841   7.389   6.044  0.5111  0.0438  0.0377
  376MOL0     C50663  -1.975   7.344   6.111 -0.5203  0.0733  0.7559
  376MOL0     C50664  -2.077   7.328   6.000 -0.5619  0.1888 -0.3683
  376MOL0     C50665  -2.210   7.267   6.052 -0.0750 -0.3143  0.3688
  376MOL0     C50666  -2.304   7.266   5.925 -0.4553  0.1167 -0.1805
  376MOL0     C50667  -2.443   7.260   5.964 -0.5751 -0.5564  0.8338
  376MOL0     C50668  -2.532   7.220   5.843 -0.4069  0.1023  0.4649
  376MOL0     C50669  -2.671   7.268   5.866  0.4970 -0.1502  0.5571
  376MOL0    Cl50670  -2.794   7.194   5.756 -0.0789 -0.1999  0.4042
  376MOL0     C50671  -1.567   7.407   5.963 -0.3074  0.5536  0.7222
  376MOL0     C50672  -1.428   7.418   5.931  1.1202 -0.8658 -0.4310
  376MOL0     O50673  -1.187   7.508   5.816  0.2416 -0.3243 -0.5133
  376MOL0     C50674  -0.915   7.532   5.814  0.0546 -0.6094  0.1585
  376MOL0     C50675  -0.775   7.552   5.822  0.8995 -0.2582 -0.0006
  376MOL0     N50676  -0.093   7.318   6.214 -0.2988 -0.0443  0.1554
  376MOL0     N50677   0.019   7.348   6.270  0.6713  0.3334  0.6466
  376MOL0     C50678   1.259   7.388   6.426 -0.2981  0.1436  0.2691
  376MOL0     C50679   1.387   7.343   6.413  0.3925  0.1123 -0.1121
  376MOL0     C50680   1.839   7.398   6.489 -0.1392  0.4608 -0.4462
  376MOL0     C50681   1.864   7.399   6.353  1.2957 -0.0473  0.3222
  376MOL0     C50682   1.995   7.435   6.308  0.2323 -0.0243  0.1225
  376MOL0     C50683   2.104   7.464   6.397 -0.3855 -0.3180  0.3091
  376MOL0     O50684   2.231   7.494   6.341  0.2217  0.6290 -0.4916
  376MOL0     C50685   2.353   7.451   6.412 -0.2640 -0.7417  0.1591
  376MOL0     C50686   2.477   7.462   6.321 -0.1866  0.0409  0.1092
  376MOL0     C50687   2.466   7.394   6.184  0.2106 -0.5039 -0.0994
  376MOL0     C50688   2.590   7.434   6.095 -0.7736  0.3213  0.0351
  376MOL0     C50689   2.718   7.387   6.155  0.2028 -1.2073  0.0039
  376MOL0     C50690   2.831   7.365   6.194 -0.2261  0.4985  0.1497
  376MOL0     C50691   2.080   7.456   6.533  1.5196  0.3749 -0.0105
  376MOL0     C50692   1.955   7.422   6.581 -0.2890 -0.0411  0.3166
  376MOL0     H50693   1.530   7.596   6.608 -1.8054  1.0036 -0.0380
  376MOL0     H50694   1.299   7.645   6.644  0.6734 -0.7385  0.8692
  376MOL0     H50695   0.971   7.379   6.468 -0.3829  0.2577 -0.4819
  376MOL0     H50696   0.886   7.520   6.532 -3.2571 -1.8927 -1.7076
  376MOL0     H50697   0.970   7.654   6.326  2.0066 -0.6097 -2.3084
  376MOL0     H50698   1.045   7.494   6.281 -0.0450 -1.9608  1.1914
  376MOL0     H50699   0.856   7.513   6.158  1.1075 -1.0273 -0.6501
  376MOL0     H50700   0.845   7.390   6.279  0.7735 -0.0748 -2.1826
  376MOL0     H50701   0.680   7.531   6.401 -0.8078 -0.1233  0.3307
  376MOL0     H50702   0.700   7.661   6.279  1.0655 -0.9777 -2.2195
  376MOL0     H50703   0.605   7.494   6.099  1.8136 -1.0036  0.5275
  376MOL0     H50704   0.582   7.370   6.216 -3.0969 -0.2740  0.1567
  376MOL0     H50705   0.443   7.491   6.359  0.3449  3.2341  1.6716
  376MOL0     H50706   0.435   7.630   6.260 -0.9895 -0.4538 -1.3756
  376MOL0     H50707   0.323   7.510   6.085 -2.7251  3.5933  1.4559
  376MOL0     H50708   0.321   7.355   6.183 -1.0234 -0.3815  2.5955
  376MOL0     H50709   0.194   7.632   6.223 -1.8798 -0.6024 -2.9165
  376MOL0     H50710   0.221   7.525   6.354 -0.2056 -0.2201  0.0521
  376MOL0     H50711   0.006   7.579   6.037  0.2545  0.2990  1.4301
  376MOL0     H50712  -0.211   7.306   5.932  0.6367  1.5503 -1.1745
  376MOL0     H50713  -0.308   7.346   6.058 -0.0549 -1.1132 -0.4846
  376MOL0     H50714  -0.308   7.487   5.846  1.3827  1.7116 -1.7941
  376MOL0     H50715  -0.184   7.580   5.899 -0.2574  0.2043 -1.2770
  376MOL0     H50716  -0.374   7.692   5.985  0.5501  0.1979  0.5441
  376MOL0     H50717  -0.327   7.605   6.131 -0.9976 -1.8967  0.0474
  376MOL0     H50718  -0.548   7.580   6.113  0.3977 -0.9656 -0.2038
  376MOL0     H50719  -0.489   7.429   6.071 -1.2459  0.0235 -1.2230
  376MOL0     H50720  -0.700   7.417   6.114  0.5556 -2.9774 -0.2914
  376MOL0     H50721  -1.022   7.268   6.125 -0.1634 -0.4879  2.6679
  376MOL0     H50722  -0.868   7.289   6.194 -1.1377 -4.4665 -1.7860
  376MOL0     H50723  -0.992   7.412   6.229  1.8434  0.6546 -0.4542
  376MOL0     H50724  -1.296   7.310   6.219 -0.9839  2.0028  1.3343
  376MOL0     H50725  -1.551   7.310   6.287 -3.8287  0.4914 -0.8158
  376MOL0     H50726  -1.860   7.489   6.003 -0.3712 -0.4948 -0.9274
  376MOL0     H50727  -1.816   7.318   5.964  0.1392 -1.0347  0.8539
  376MOL0     H50728  -1.967   7.245   6.158  2.5274 -1.1433 -1.9200
  376MOL0     H50729  -2.000   7.423   6.181 -0.2081 -0.3006  1.2989
  376MOL0     H50730  -2.026   7.262   5.930  0.8008 -0.1535  0.9116
  376MOL0     H50731  -2.078   7.426   5.951  1.2087  0.3910 -0.0595
  376MOL0     H50732  -2.209   7.171   6.106 -2.5027 -1.4876 -1.4731
  376MOL0     H50733  -2.255   7.335   6.125 -0.4587 -0.8814  0.6683
  376MOL0     H50734  -2.281   7.187   5.853 -0.1143 -0.9014  1.0024
  376MOL0     H50735  -2.298   7.363   5.874 -1.2375  0.3363  0.1311
  376MOL0     H50736  -2.466   7.189   6.044 -2.1523 -0.9578  0.0697
  376MOL0     H50737  -2.456   7.360   6.006  1.4148  0.5369 -0.9510
  376MOL0     H50738  -2.526   7.113   5.824  0.0112  0.1824  0.1110
  376MOL0     H50739  -2.500   7.272   5.752 -1.8940  1.8144  0.8636
  376MOL0     H50740  -2.674   7.376   5.845  1.5903 -0.6133 -2.3954
  376MOL0     H50741  -2.688   7.238   5.970  1.7340  0.0370  0.8331
  376MOL0     H50742  -1.636   7.436   5.885  0.2228 -4.6881 -2.1583
  376MOL0     H50743  -1.401   7.463   5.836  1.0963  1.8721  0.7811
  376MOL0     H50744  -0.965   7.564   5.724  1.7584  1.4419 -0.1349
  376MOL0     H50745  -0.727   7.600   5.737 -2.3985  0.5917 -1.5790
  376MOL0     H50746   1.174   7.330   6.391 -0.7333  1.0107 -0.1144
  376MOL0     H50747   1.400   7.252   6.355 -0.1015  0.9666 -1.6314
  376MOL0     H50748   1.786   7.370   6.284  0.8850  1.2671  0.1989
  376MOL0     H50749   2.014   7.453   6.203  2.0681 -1.4898  0.1460
  376MOL0     H50750   2.361   7.503   6.508 -0.3222  0.1147 -0.2970
  376MOL0     H50751   2.345   7.345   6.439  1.2631 -0.5794  1.3845
  376MOL0     H50752   2.569   7.426   6.368 -0.1408 -2.5445 -1.7544
  376MOL0     H50753   2.475   7.567   6.292 -2.2304  0.1498  0.4957
  376MOL0     H50754   2.366   7.410   6.142 -0.1907  0.4962  1.1355
  376MOL0     H50755   2.477   7.289   6.212 -1.9111 -0.2282  2.1212
  376MOL0     H50756   2.589   7.544   6.097  0.2276  0.3792 -1.2464
  376MOL0     H50757   2.587   7.411   5.988 -1.7020 -1.3973  0.4070
  376MOL0     H50758   2.923   7.319   6.227 -0.9687 -0.6060  0.7466
  376MOL0     H50759   2.161   7.472   6.603  0.3545  0.6575  1.3279
  376MOL0     H50760   1.947   7.424   6.689  0.2658  1.3224  0.3501
  377MOL0     O50761   3.332   0.459   5.216  0.3346 -0.0178  0.4031
  377MOL0     C50762   3.398   0.379   5.141  0.0657  0.1156 -0.5651
  377MOL0     O50763   3.344   0.314   5.035  0.4241 -0.8388  0.6359
  377MOL0     C50764   3.226   0.360   4.979 -0.0128  0.4452  0.2654
  377MOL0     C50765   3.121   0.266   4.981  0.0059 -0.1055  0.3621
  377MOL0     C50766   2.996   0.299   4.924 -0.9460  0.1408  0.4492
  377MOL0     C50767   2.980   0.429   4.864  0.5928  0.3061 -0.5142
  377MOL0     O50768   2.866   0.472   4.803 -0.0357 -0.0513 -0.8037
  377MOL0     C50769   2.756   0.382   4.814  0.3515 -0.1906  0.4864
  377MOL0     C50770   2.638   0.456   4.753 -0.0726  0.1054 -0.2527
  377MOL0     C50771   2.617   0.589   4.824  0.3684 -1.6008 -0.4393
  377MOL0     C50772   2.481   0.659   4.788 -0.4554  0.1023 -0.0265
  377MOL0     C50773   2.424   0.762   4.887 -0.5962  0.5525 -0.3824
  377MOL0     C50774   2.275   0.793   4.863 -0.1461  0.3797  0.4389
  377MOL0     C50775   2.206   0.832   4.989  0.2690 -0.9111  0.7406
  377MOL0     C50776   2.170   0.706   5.066  0.3719  0.1330  0.0808
  377MOL0     N50777   2.098   0.736   5.187 -0.1858 -0.4091 -0.0125
  377MOL0     C50778   1.972   0.783   5.191 -0.0802 -0.6102 -0.3138
  377MOL0     C50779   1.938   0.774   5.324 -0.3371  0.7513 -0.7567
  377MOL0     C50780   1.799   0.788   5.377  0.0552 -1.3246  0.4006
  377MOL0     C50781   1.751   0.645   5.398  0.6040  0.8952  0.4430
  377MOL0     C50782   1.608   0.620   5.437  0.0673 -0.3761 -0.1056
  377MOL0     C50783   1.552   0.695   5.558  0.8454 -0.6715 -0.3426
  377MOL0     O50784   1.406   0.687   5.526 -0.6771 -0.4830  0.2078
  377MOL0     C50785   1.335   0.799   5.495  0.8503  0.2955  0.0117
  377MOL0     C50786   1.363   0.928   5.526 -0.0269  0.2294 -0.1361
  377MOL0     C50787   1.268   1.030   5.516 -0.8171 -0.7634 -0.5744
  377MOL0     C50788   1.321   1.174   5.550 -0.4777  0.4487  0.7779
  377MOL0     C50789   1.134   1.001   5.487  0.5773  0.1001 -0.7791
  377MOL0     C50790   1.025   1.101   5.496  0.5457  0.6037 -0.0980
  377MOL0     O50791   0.898   1.057   5.521  1.4484 -0.6844  0.1379
  377MOL0     C50792   0.805   1.143   5.551  0.8438  0.2879  0.1133
  377MOL0     C50793   0.782   1.201   5.678  0.7272 -0.0988  0.2300
  377MOL0     C50794   0.672   1.286   5.689  0.0029 -0.7723 -0.3400
  377MOL0     C50795   0.594   1.321   5.585  0.8823 -0.3381 -0.0670
  377MOL0     O50796   0.486   1.405   5.610 -0.4835  0.3759  0.2900
  377MOL0     C50797   0.401   1.391   5.721 -0.1598  1.0613 -0.9109
  377MOL0     C50798   0.291   1.490   5.706 -0.0293  0.0835  0.0005
  377MOL0     C50799   0.197   1.510   5.822  0.8261  0.0647 -0.0544
  377MOL0     C50800   0.044   1.480   5.800  0.3546 -0.3093  0.8549
  377MOL0     C50801  -0.035   1.491   5.926  0.4368 -0.0357 -0.7458
  377MOL0     C50802  -0.172   1.422   5.907  0.0040  0.2396  0.1987
  377MOL0     C50803  -0.247   1.447   6.040  0.4075 -0.0652  0.5448
  377MOL0     C50804  -0.401   1.399   6.030  0.0289  0.3148 -1.1257
  377MOL0    Cl50805  -0.461   1.369   6.197 -0.2859 -0.0790  0.3065
  377MOL0     C50806   0.616   1.279   5.460 -0.0956  0.3413  0.6083
  377MOL0     C50807   0.724   1.190   5.440 -0.2224  0.4574  0.0814
  377MOL0     O50808   1.057   1.216   5.478  0.3811  0.2353 -0.4093
  377MOL0     C50809   1.097   0.867   5.453 -0.8938 -0.2440 -0.0323
  377MOL0     C50810   1.206   0.773   5.461  0.6916 -0.2666 -1.1093
  377MOL0     N50811   2.054   0.735   5.396 -0.3125 -0.5859  0.1725
  377MOL0     N50812   2.152   0.727   5.314 -0.5818 -0.3833  0.2716
  377MOL0     C50813   3.083   0.526   4.866 -0.2638  0.8490  1.1269
  377MOL0     C50814   3.207   0.487   4.928  0.0896 -0.3608  0.4167
  377MOL0     C50815   3.539   0.373   5.166  0.5247 -0.5007  0.5610
  377MOL0     C50816   3.636   0.331   5.079 -0.5673 -0.2231 -0.2211
  377MOL0     C50817   3.770   0.342   5.111 -0.8698 -0.0381  0.5854
  377MOL0     C50818   3.815   0.397   5.234 -1.2466  0.2154 -0.2248
  377MOL0     O50819   3.950   0.394   5.267  0.1239  0.2910  0.1867
  377MOL0     C50820   4.004   0.487   5.365 -0.8158 -0.1249  0.6625
  377MOL0     C50821   4.158   0.474   5.344  0.3156 -1.1005 -0.1352
  377MOL0     C50822   4.202   0.535   5.212 -0.1661  0.4078 -0.5026
  377MOL0     C50823   4.332   0.465   5.158 -0.7695 -1.3031  0.2598
  377MOL0     C50824   4.407   0.542   5.051 -0.2209 -0.2552 -0.2430
  377MOL0     C50825   4.464   0.605   4.965 -0.1666  1.0250 -0.7980
  377MOL0     C50826   3.728   0.448   5.321  0.5326 -0.1487  0.7147
  377MOL0     C50827   3.588   0.437   5.288 -1.4860 -0.1253  0.6828
  377MOL0     H50828   3.128   0.163   5.016 -2.4018  0.0829  1.5787
  377MOL0     H50829   2.923   0.220   4.922  0.8526 -1.5787 -0.0425
  377MOL0     H50830   2.766   0.283   4.768 -0.4138 -1.5725  3.0704
  377MOL0     H50831   2.723   0.378   4.918 -0.8374  1.6183  0.2207
  377MOL0     H50832   2.660   0.474   4.647  0.8659 -1.3235 -0.3311
  377MOL0     H50833   2.542   0.405   4.747  0.8032 -1.7895  0.8411
  377MOL0     H50834   2.620   0.569   4.932  0.6310  0.4976 -0.0176
  377MOL0     H50835   2.697   0.660   4.801 -0.7123 -1.3478 -4.0336
  377MOL0     H50836   2.489   0.702   4.687  1.2013 -3.1785 -1.4237
  377MOL0     H50837   2.419   0.570   4.775  2.5221 -1.8383 -2.1316
  377MOL0     H50838   2.442   0.726   4.989  0.6709 -0.5194 -0.9459
  377MOL0     H50839   2.480   0.854   4.869  2.7177 -1.2992 -0.3577
  377MOL0     H50840   2.277   0.879   4.795 -0.7593  0.7941  0.9356
  377MOL0     H50841   2.228   0.712   4.806 -1.6284  1.1661  0.5164
  377MOL0     H50842   2.269   0.896   5.051 -0.0876  1.2079 -0.9691
  377MOL0     H50843   2.112   0.880   4.960 -0.1243 -2.0568  0.0149
  377MOL0     H50844   2.265   0.659   5.093  0.2344  0.7504  1.7421
  377MOL0     H50845   2.111   0.627   5.018  3.6829 -1.4850 -1.6952
  377MOL0     H50846   1.902   0.800   5.109  1.6742  1.4666 -1.4887
  377MOL0     H50847   1.793   0.843   5.472  0.7872  0.1323 -0.3651
  377MOL0     H50848   1.741   0.841   5.302  1.7822 -1.5606 -1.1565
  377MOL0     H50849   1.816   0.599   5.473  0.7860  0.4702  0.0331
  377MOL0     H50850   1.763   0.589   5.304 -1.2794 -0.6095  1.0266
  377MOL0     H50851   1.605   0.512   5.458  0.2053 -0.1813  0.9692
  377MOL0     H50852   1.558   0.646   5.344  1.1148 -0.3456 -0.6741
  377MOL0     H50853   1.589   0.798   5.568  2.7500 -1.1175 -2.0850
  377MOL0     H50854   1.550   0.636   5.649 -1.4366 -0.8915 -0.4909
  377MOL0     H50855   1.464   0.957   5.554  0.1899 -2.6483  2.5490
  377MOL0     H50856   1.253   1.224   5.620 -0.2233  3.7497 -1.1463
  377MOL0     H50857   1.427   1.176   5.578 -0.5721  0.3474  1.1537
  377MOL0     H50858   1.321   1.239   5.462  0.3758  2.4211  2.1529
  377MOL0     H50859   0.839   1.189   5.769  2.2329 -0.0963 -0.6880
  377MOL0     H50860   0.658   1.328   5.789 -2.6909 -3.3169  0.5089
  377MOL0     H50861   0.360   1.290   5.730  2.9190 -0.0925  2.7896
  377MOL0     H50862   0.453   1.404   5.816 -1.0820 -0.0759 -0.2174
  377MOL0     H50863   0.353   1.577   5.683  1.6570 -1.4048 -1.3253
  377MOL0     H50864   0.227   1.458   5.623  0.2238 -1.2682  0.3132
  377MOL0     H50865   0.210   1.611   5.862 -1.0913 -1.0309  3.9681
  377MOL0     H50866   0.232   1.461   5.913 -0.9661 -0.0168  0.6439
  377MOL0     H50867  -0.002   1.540   5.721  0.2797 -1.6772 -0.1774
  377MOL0     H50868   0.035   1.380   5.756 -2.3579 -0.1283  0.8529
  377MOL0     H50869  -0.050   1.596   5.953 -2.5124 -0.7415  0.7686
  377MOL0     H50870   0.024   1.463   6.014 -0.9669 -2.7150 -0.5729
  377MOL0     H50871  -0.223   1.459   5.818  0.6043  1.7636  0.4616
  377MOL0     H50872  -0.157   1.315   5.889  1.2205  0.7797 -2.4396
  377MOL0     H50873  -0.236   1.554   6.061 -0.1521  0.2308 -0.6022
  377MOL0     H50874  -0.204   1.393   6.124 -2.9560  0.7154  2.9768
  377MOL0     H50875  -0.407   1.299   5.986  0.4154  0.0029 -0.4995
  377MOL0     H50876  -0.467   1.463   5.972  0.0015  0.2923 -1.1197
  377MOL0     H50877   0.557   1.306   5.373  0.6770 -1.6516 -0.5846
  377MOL0     H50878   0.743   1.139   5.346  2.6821 -0.9370  1.2755
  377MOL0     H50879   0.997   0.835   5.423 -0.5168 -1.1092 -0.4033
  377MOL0     H50880   1.191   0.668   5.434 -0.1095 -0.1377 -1.2082
  377MOL0     H50881   3.067   0.624   4.821  0.2489  0.6320  0.4463
  377MOL0     H50882   3.282   0.565   4.934 -1.1202  0.9094 -0.3732
  377MOL0     H50883   3.620   0.280   4.984  0.3313 -0.2239 -0.3838
  377MOL0     H50884   3.835   0.295   5.038 -1.4804 -0.8394  0.5365
  377MOL0     H50885   3.972   0.591   5.355 -2.6541 -0.8047 -1.1606
  377MOL0     H50886   3.984   0.450   5.466  0.4203 -2.7735  0.0417
  377MOL0     H50887   4.183   0.368   5.341  0.6250 -1.1289  2.0426
  377MOL0     H50888   4.211   0.523   5.426  0.8665  0.7982 -1.5533
  377MOL0     H50889   4.207   0.643   5.228  1.8337  0.2073  0.5777
  377MOL0     H50890   4.122   0.523   5.138 -0.6833  1.6181 -0.1491
  377MOL0     H50891   4.297   0.366   5.126 -2.2661 -1.0287  0.9691
  377MOL0     H50892   4.403   0.438   5.237  0.9070 -0.7123 -0.9927
  377MOL0     H50893   4.521   0.667   4.898 -0.6386  2.4202  0.0614
  377MOL0     H50894   3.753   0.496   5.415  1.0285 -0.0330  0.5269
  377MOL0     H50895   3.525   0.475   5.367  0.1570 -2.1739  3.1358
  378MOL0     O50896   5.330   2.059   9.615  0.2183 -0.2654 -0.1671
  378MOL0     C50897   5.392   2.115   9.708 -0.4128  0.4035 -0.5244
  378MOL0     O50898   5.363   2.229   9.773  0.1178 -0.6769 -0.3312
  378MOL0     C50899   5.239   2.289   9.761 -0.9794  1.2992  0.1168
  378MOL0     C50900   5.143   2.265   9.658  0.2154  0.3713  0.1895
  378MOL0     C50901   5.022   2.341   9.664  1.0302 -0.0102 -0.8616
  378MOL0     C50902   4.995   2.421   9.767  0.0446 -0.8839  0.8836
  378MOL0     O50903   4.883   2.501   9.773 -0.2336  0.3287  0.1284
  378MOL0     C50904   4.769   2.478   9.692 -0.0336  0.6097  0.4582
  378MOL0     C50905   4.697   2.355   9.720 -0.9904  0.8228 -0.1454
  378MOL0     C50906   4.589   2.369   9.835 -0.1178  0.1620  0.7136
  378MOL0     C50907   4.450   2.423   9.791  1.1048  0.3527 -0.9726
  378MOL0     C50908   4.374   2.487   9.908 -0.3347 -0.3871  2.2332
  378MOL0     C50909   4.344   2.395  10.030 -0.9240  0.7154  0.2864
  378MOL0     C50910   4.267   2.274  10.004 -0.1049  0.5015  0.3701
  378MOL0     C50911   4.148   2.282   9.917  0.2430 -0.2939  0.3557
  378MOL0     N50912   4.036   2.366   9.971 -0.0365  0.2840  0.2298
  378MOL0     C50913   3.985   2.377  10.095 -0.4466  0.9394  0.3646
  378MOL0     C50914   3.883   2.467  10.081 -0.5336 -0.8597 -0.1045
  378MOL0     C50915   3.806   2.529  10.200  0.1557 -0.4836  1.0760
  378MOL0     C50916   3.680   2.452  10.225  0.2820 -0.2880 -0.2364
  378MOL0     C50917   3.585   2.456  10.100  0.6220  0.1962 -0.4402
  378MOL0     C50918   3.447   2.416  10.149  0.3883  0.3769  0.0353
  378MOL0     O50919   3.384   2.503  10.246  0.0427 -0.1144  0.7237
  378MOL0     C50920   3.270   2.467  10.315 -0.3802 -0.1028 -0.9411
  378MOL0     C50921   3.247   2.538  10.423  0.2513 -0.2876 -0.1803
  378MOL0     C50922   3.152   2.503  10.520  0.9111  0.7017 -0.5906
  378MOL0     C50923   3.140   2.584  10.651 -0.4111 -0.5444  1.0688
  378MOL0     C50924   3.079   2.373  10.504  0.4602 -0.6050 -0.0884
  378MOL0     C50925   3.011   2.294  10.600 -0.2609  0.4224  0.0401
  378MOL0     O50926   2.902   2.226  10.563 -0.8580  0.0762  0.6589
  378MOL0     C50927   2.820   2.174  10.666  0.8915 -0.9262  0.3208
  378MOL0     C50928   2.747   2.060  10.630  0.2195 -0.0381 -0.2065
  378MOL0     C50929   2.653   1.996  10.722  0.4262 -0.6120 -0.1731
  378MOL0     C50930   2.637   2.048  10.853 -0.9146  0.7668  0.3289
  378MOL0     O50931   2.563   1.988  10.948  0.2683 -0.4026 -0.7461
  378MOL0     C50932   2.533   1.843  10.940 -1.3365 -1.2759  0.2944
  378MOL0     C50933   2.473   1.777  11.072  0.3508 -0.1527  0.1103
  378MOL0     C50934   2.332   1.819  11.097 -0.0390 -0.3401  0.2159
  378MOL0     C50935   2.266   1.727  11.201 -0.0692  0.1447  0.4676
  378MOL0     C50936   2.128   1.784  11.216  0.6693 -0.2669  0.4753
  378MOL0     C50937   2.047   1.732  11.336  0.4804  0.2435  0.3261
  378MOL0     C50938   1.901   1.788  11.321 -0.7560  0.5651  0.1745
  378MOL0     C50939   1.879   1.933  11.369 -0.6346  0.6129 -0.3594
  378MOL0    Cl50940   1.716   1.977  11.358  0.9891  0.2753  0.1286
  378MOL0     C50941   2.714   2.163  10.882  0.4130  1.1366 -0.2300
  378MOL0     C50942   2.793   2.230  10.793  0.1110 -0.8567 -0.3075
  378MOL0     O50943   3.057   2.290  10.707  0.7477 -0.3421 -0.2410
  378MOL0     C50944   3.106   2.307  10.376 -0.0312 -0.1622 -0.1414
  378MOL0     C50945   3.197   2.361  10.277 -0.3358 -0.3268 -0.2300
  378MOL0     N50946   3.872   2.509   9.950  0.6711  0.6989 -0.6630
  378MOL0     N50947   3.961   2.450   9.888 -0.0609 -0.1981 -0.4646
  378MOL0     C50948   5.088   2.443   9.862 -0.2731 -0.8801 -0.5473
  378MOL0     C50949   5.210   2.377   9.860 -0.6469  0.4368  0.3567
  378MOL0     C50950   5.510   2.037   9.743 -0.5085  0.5498 -0.6167
  378MOL0     C50951   5.550   1.914   9.684 -0.8919  0.4437  0.7993
  378MOL0     C50952   5.671   1.850   9.721  0.2539 -0.0844  0.2098
  378MOL0     C50953   5.756   1.903   9.812 -0.1895 -0.6179  0.2253
  378MOL0     O50954   5.873   1.829   9.837  0.4657 -0.1415  0.5534
  378MOL0     C50955   5.938   1.855   9.960 -0.2623  0.5150  0.6297
  378MOL0     C50956   5.899   1.762  10.070 -0.1276  0.1485 -0.0610
  378MOL0     C50957   5.926   1.614  10.023  0.2940  0.1767 -0.4288
  378MOL0     C50958   6.059   1.570   9.969  0.3859 -0.9195  0.6932
  378MOL0     C50959   6.163   1.602  10.061  0.3344  0.2165  0.2396
  378MOL0     C50960   6.226   1.618  10.158 -0.4802 -0.5214 -0.0491
  378MOL0     C50961   5.721   2.026   9.874 -0.1072 -0.6995  0.4853
  378MOL0     C50962   5.597   2.086   9.836 -1.4278 -0.2986  0.5852
  378MOL0     H50963   5.153   2.189   9.581  1.0175 -0.7749  1.3979
  378MOL0     H50964   4.957   2.320   9.579  0.3608 -0.1984 -0.3026
  378MOL0     H50965   4.701   2.562   9.708 -1.6089 -0.7389  1.0403
  378MOL0     H50966   4.793   2.494   9.586 -0.7241  1.9441  0.4775
  378MOL0     H50967   4.641   2.329   9.629  0.1561  2.0646 -1.2577
  378MOL0     H50968   4.769   2.279   9.750 -0.4724  0.5292 -1.9973
  378MOL0     H50969   4.583   2.265   9.868 -0.2972 -0.6870 -1.8277
  378MOL0     H50970   4.621   2.429   9.921 -0.7513 -2.5251  2.9835
  378MOL0     H50971   4.460   2.502   9.716 -1.8761  2.7377  0.9209
  378MOL0     H50972   4.398   2.336   9.750  0.3618  0.9000 -1.2130
  378MOL0     H50973   4.430   2.577   9.937  1.2452 -0.3295 -0.5949
  378MOL0     H50974   4.276   2.524   9.880 -0.4822 -1.8197  0.7042
  378MOL0     H50975   4.439   2.361  10.074 -0.5696  0.8437 -0.3579
  378MOL0     H50976   4.284   2.452  10.101  0.6513 -0.7883  3.0258
  378MOL0     H50977   4.343   2.210   9.959  2.9178  3.0904  1.4073
  378MOL0     H50978   4.233   2.227  10.097 -0.7586  1.5942  0.7039
  378MOL0     H50979   4.117   2.177   9.906  2.0305 -1.1883  2.8631
  378MOL0     H50980   4.173   2.319   9.818  0.0559 -2.1062 -0.4204
  378MOL0     H50981   4.018   2.326  10.185  2.4448  4.5406  1.6021
  378MOL0     H50982   3.882   2.538  10.279  1.6452  0.5337 -0.3887
  378MOL0     H50983   3.788   2.634  10.174  1.7376 -0.5029 -0.3308
  378MOL0     H50984   3.635   2.492  10.316 -1.0922 -1.7591 -0.2271
  378MOL0     H50985   3.701   2.345  10.234 -3.4949 -1.0506  1.2103
  378MOL0     H50986   3.617   2.382  10.026  2.2036  0.2156  0.1729
  378MOL0     H50987   3.585   2.558  10.061 -2.8525 -0.0002 -1.2734
  378MOL0     H50988   3.448   2.315  10.190 -0.4911  0.4055  0.1456
  378MOL0     H50989   3.393   2.421  10.054  0.7724  1.2798 -0.1489
  378MOL0     H50990   3.288   2.637  10.443 -1.1348  0.4345 -0.8173
  378MOL0     H50991   3.136   2.691  10.630 -0.6763 -1.0049 -1.5466
  378MOL0     H50992   3.045   2.570  10.704 -1.7393  0.9453 -0.7768
  378MOL0     H50993   3.226   2.570  10.717  0.6927  0.5958 -0.0640
  378MOL0     H50994   2.758   2.017  10.531  3.9600 -2.5900  1.1097
  378MOL0     H50995   2.595   1.917  10.675  0.0079  0.6683 -1.9517
  378MOL0     H50996   2.476   1.823  10.849  0.0103 -1.5855 -0.5151
  378MOL0     H50997   2.629   1.794  10.923 -1.2454 -1.4395  1.1867
  378MOL0     H50998   2.476   1.668  11.058  1.1712 -0.1351  0.0968
  378MOL0     H50999   2.534   1.794  11.161 -2.2392  0.2108  1.9321
  378MOL0     H51000   2.278   1.829  11.002  3.8822 -0.7679 -2.3032
  378MOL0     H51001   2.335   1.919  11.142  0.8557  0.2663 -1.1109
  378MOL0     H51002   2.261   1.621  11.177 -1.6481  0.5371 -1.2085
  378MOL0     H51003   2.330   1.756  11.285  0.6682 -0.2311  0.0404
  378MOL0     H51004   2.071   1.768  11.125  1.5608  1.6764 -0.4837
  378MOL0     H51005   2.152   1.890  11.230  3.8885 -0.9263  0.7573
  378MOL0     H51006   2.037   1.623  11.331 -2.1945  0.4315 -0.0062
  378MOL0     H51007   2.085   1.754  11.436 -0.3862  2.7068  0.1705
  378MOL0     H51008   1.847   1.727  11.394 -0.1133 -1.6783 -1.1279
  378MOL0     H51009   1.856   1.768  11.224 -0.5560 -0.3765  0.2689
  378MOL0     H51010   1.929   1.994  11.293 -0.2619 -0.3878 -0.9447
  378MOL0     H51011   1.919   1.956  11.468  1.2007  1.2113 -1.1913
  378MOL0     H51012   2.699   2.201  10.982  2.3305 -0.3221  0.6794
  378MOL0     H51013   2.821   2.331  10.818  1.5864 -1.3724  0.2348
  378MOL0     H51014   3.069   2.208  10.356 -0.0523 -0.2100  0.1329
  378MOL0     H51015   3.219   2.319  10.179  2.9647 -0.8775  0.6058
  378MOL0     H51016   5.068   2.511   9.945 -2.2896  0.6785 -2.1969
  378MOL0     H51017   5.287   2.388   9.935 -2.0002  0.7474  1.7506
  378MOL0     H51018   5.484   1.888   9.602  0.3032  2.6681 -0.9862
  378MOL0     H51019   5.703   1.756   9.675  0.0470  0.7133 -1.6519
  378MOL0     H51020   6.047   1.844   9.951 -0.1588  0.6608  1.6107
  378MOL0     H51021   5.935   1.961   9.984 -1.6675  0.5331  0.4438
  378MOL0     H51022   5.793   1.774  10.094 -0.3518  2.0660 -1.6799
  378MOL0     H51023   5.957   1.767  10.163  0.8783  0.5786 -0.6865
  378MOL0     H51024   5.848   1.593   9.948  1.4292 -2.0196 -1.0873
  378MOL0     H51025   5.912   1.543  10.105 -2.4025  0.5975 -0.4063
  378MOL0     H51026   6.084   1.607   9.870  0.6462 -2.3592  0.1922
  378MOL0     H51027   6.054   1.461   9.957 -1.4909 -0.7779 -0.1342
  378MOL0     H51028   6.282   1.624  10.250  0.2591  0.1167 -0.5316
  378MOL0     H51029   5.780   2.084   9.945 -1.7055  1.2637  0.2923
  378MOL0     H51030   5.575   2.190   9.861 -0.6513 -0.1388  0.6495
  379MOL0     O51031  10.221   5.342   9.348 -0.1174  0.0183  0.2843
  379MOL0     C51032  10.319   5.350   9.419  0.4774 -0.5009  0.2518
  379MOL0     O51033  10.395   5.460   9.437 -0.3262 -0.4311 -0.3559
  379MOL0     C51034  10.370   5.576   9.370  0.1376  0.5205  0.2094
  379MOL0     C51035  10.381   5.686   9.458  0.5795  0.3909 -0.3035
  379MOL0     C51036  10.350   5.808   9.403  0.6620 -0.3959 -0.5048
  379MOL0     C51037  10.320   5.824   9.266  0.5000 -0.2263  0.2490
  379MOL0     O51038  10.273   5.949   9.236  0.1616 -0.3802  0.2913
  379MOL0     C51039  10.310   6.004   9.111 -0.1974 -0.1227  0.0375
  379MOL0     C51040  10.270   6.151   9.097 -0.5121 -0.0395 -0.1080
  379MOL0     C51041  10.119   6.179   9.075 -0.0124  0.7275  0.3176
  379MOL0     C51042  10.113   6.326   9.038 -0.2915 -0.4398  0.2440
  379MOL0     C51043   9.970   6.387   9.050 -0.6439 -0.3694 -0.2669
  379MOL0     C51044   9.868   6.312   8.960  0.2685 -0.3067  0.0111
  379MOL0     C51045   9.722   6.365   8.988  0.3394  0.4062 -0.5573
  379MOL0     C51046   9.709   6.509   8.940 -1.0724  0.9063  0.2630
  379MOL0     N51047   9.576   6.540   8.886  0.6935 -0.6260 -0.0834
  379MOL0     C51048   9.469   6.589   8.967 -0.1518 -0.2422 -0.0532
  379MOL0     C51049   9.369   6.606   8.876  0.1219  0.2690 -1.0792
  379MOL0     C51050   9.231   6.659   8.905  0.3379  0.4981  0.2229
  379MOL0     C51051   9.155   6.568   8.999 -1.1203 -0.0742  0.1224
  379MOL0     C51052   9.120   6.427   8.940 -0.1105  0.0183 -0.2203
  379MOL0     C51053   9.040   6.424   8.816 -0.1818  0.9158 -0.2897
  379MOL0     O51054   8.934   6.518   8.815 -0.4632 -0.0295 -0.2377
  379MOL0     C51055   8.865   6.500   8.695  0.0484 -0.1971  0.6733
  379MOL0     C51056   8.883   6.588   8.589  0.1279 -0.4725 -0.0295
  379MOL0     C51057   8.811   6.572   8.468  0.2869 -0.2029 -0.1804
  379MOL0     C51058   8.862   6.646   8.351 -0.6252 -0.7788 -0.5207
  379MOL0     C51059   8.716   6.469   8.456 -1.6412 -0.1040 -0.1292
  379MOL0     C51060   8.627   6.452   8.337 -0.4567  0.6658  0.0838
  379MOL0     O51061   8.524   6.374   8.355  0.0830  0.5021 -0.5858
  379MOL0     C51062   8.447   6.318   8.259 -0.6064  0.6588  0.3722
  379MOL0     C51063   8.433   6.360   8.125 -0.2686  0.0680  0.1552
  379MOL0     C51064   8.341   6.296   8.039  0.8039 -0.3330  0.4815
  379MOL0     C51065   8.267   6.182   8.089 -0.0292 -0.0548 -0.8938
  379MOL0     O51066   8.173   6.125   8.009  0.2039  0.5214  0.3817
  379MOL0     C51067   8.156   5.980   8.017  0.0727 -0.2586 -0.2977
  379MOL0     C51068   8.149   5.936   7.874 -0.4552  1.4110  0.1327
  379MOL0     C51069   8.131   5.777   7.879 -0.6265  0.0032  0.1138
  379MOL0     C51070   8.131   5.719   7.732 -0.0676 -0.6751 -0.5155
  379MOL0     C51071   8.022   5.784   7.650 -1.4592  0.5007 -0.0310
  379MOL0     C51072   7.886   5.731   7.677  0.0685 -0.2026  0.5980
  379MOL0     C51073   7.861   5.583   7.643 -0.5605  0.3557  0.6307
  379MOL0     C51074   7.725   5.528   7.676  0.5640 -0.3284 -0.6707
  379MOL0    Cl51075   7.601   5.623   7.588  0.1170  0.1155 -0.3892
  379MOL0     C51076   8.279   6.139   8.223  0.4223 -0.1428  0.5594
  379MOL0     C51077   8.366   6.213   8.298 -1.1811 -0.4489 -0.1611
  379MOL0     O51078   8.651   6.522   8.237  0.5161  0.9859 -0.1932
  379MOL0     C51079   8.697   6.388   8.572  0.2072  0.4686 -0.8735
  379MOL0     C51080   8.772   6.404   8.689  0.6786 -1.4738 -0.3468
  379MOL0     N51081   9.417   6.588   8.752 -1.1597  0.7527  0.4084
  379MOL0     N51082   9.539   6.552   8.756  0.2585 -0.0728  0.1892
  379MOL0     C51083  10.316   5.714   9.176 -0.6264 -0.5287 -0.2681
  379MOL0     C51084  10.342   5.591   9.231 -0.5970 -0.2250 -0.2554
  379MOL0     C51085  10.337   5.245   9.522  0.3751 -0.5704  0.1686
  379MOL0     C51086  10.287   5.120   9.496  0.1326 -0.2211  0.1572
  379MOL0     C51087  10.320   5.017   9.577  0.5738  1.0213 -0.4136
  379MOL0     C51088  10.400   5.030   9.690 -0.0535  0.0182  0.2569
  379MOL0     O51089  10.434   4.911   9.748  0.3175 -0.5126  0.2199
  379MOL0     C51090  10.531   4.916   9.853 -0.1319 -0.1825  0.4802
  379MOL0     C51091  10.471   4.963   9.990  0.1417 -0.1069 -0.2717
  379MOL0     C51092  10.354   4.890  10.053  0.0096 -0.9311  0.5964
  379MOL0     C51093  10.367   4.745  10.054 -0.1941 -0.1698 -0.5579
  379MOL0     C51094  10.500   4.709  10.115 -0.2832  0.9363 -0.6486
  379MOL0     C51095  10.608   4.664  10.149  0.7110 -0.2083 -0.2344
  379MOL0     C51096  10.447   5.158   9.715  0.1830  0.1246 -0.0631
  379MOL0     C51097  10.414   5.270   9.637  0.5796  0.1395 -0.4392
  379MOL0     H51098  10.397   5.670   9.564 -3.7374 -1.5488  0.2784
  379MOL0     H51099  10.341   5.889   9.475 -0.4185 -1.4643  0.6270
  379MOL0     H51100  10.419   5.993   9.109 -0.3309 -1.5557 -0.3937
  379MOL0     H51101  10.267   5.955   9.023 -2.9204  1.8762  0.1238
  379MOL0     H51102  10.322   6.202   9.179  0.4468  2.6290 -2.2254
  379MOL0     H51103  10.311   6.188   9.002 -0.4207 -3.7106 -1.6632
  379MOL0     H51104  10.083   6.116   8.994  1.4378 -0.1366  0.3000
  379MOL0     H51105  10.053   6.159   9.160 -2.6268 -2.2175 -2.1770
  379MOL0     H51106  10.185   6.381   9.100  0.5301  0.9211 -1.8146
  379MOL0     H51107  10.152   6.342   8.937 -3.0308 -0.9758 -0.9853
  379MOL0     H51108   9.940   6.392   9.155  3.5097  1.6909  1.0434
  379MOL0     H51109   9.973   6.488   9.007 -2.4285 -0.3697 -0.4521
  379MOL0     H51110   9.884   6.325   8.853 -0.7363  0.2017 -0.0931
  379MOL0     H51111   9.867   6.204   8.977  0.4966 -0.1401  1.2002
  379MOL0     H51112   9.648   6.296   8.945 -0.4260  0.4963  0.5729
  379MOL0     H51113   9.693   6.364   9.093  0.7874  3.1365 -0.3454
  379MOL0     H51114   9.776   6.536   8.859 -0.8943 -0.4145 -0.0526
  379MOL0     H51115   9.734   6.568   9.029  0.9126 -1.0645  1.1264
  379MOL0     H51116   9.470   6.603   9.074 -0.9438  0.1684 -0.0874
  379MOL0     H51117   9.246   6.758   8.949 -0.4372  0.2743  1.0094
  379MOL0     H51118   9.174   6.669   8.812  0.6283  1.0466  0.0978
  379MOL0     H51119   9.081   6.625   9.058  1.1987  0.9685  2.2150
  379MOL0     H51120   9.229   6.550   9.078 -1.0013  1.0777  0.2989
  379MOL0     H51121   9.059   6.377   9.016 -0.9272  0.0878 -0.8136
  379MOL0     H51122   9.212   6.372   8.916  0.6149  1.1805 -0.1665
  379MOL0     H51123   9.008   6.319   8.812 -1.8428  1.3446  0.6609
  379MOL0     H51124   9.108   6.437   8.731  0.1334  1.2962  0.0156
  379MOL0     H51125   8.964   6.659   8.600  1.1426 -1.8112  1.7010
  379MOL0     H51126   8.791   6.722   8.318 -0.5186  0.4119  1.7683
  379MOL0     H51127   8.955   6.697   8.374  0.1318 -2.7223  1.0891
  379MOL0     H51128   8.887   6.574   8.273  2.2116 -1.3156  0.7592
  379MOL0     H51129   8.484   6.449   8.090  0.9676 -1.2103 -1.5028
  379MOL0     H51130   8.319   6.341   7.943  0.7327  0.5679  0.9034
  379MOL0     H51131   8.235   5.923   8.067 -0.7537 -0.8090  0.4182
  379MOL0     H51132   8.068   5.944   8.070 -0.1249 -0.3319 -0.6706
  379MOL0     H51133   8.069   5.996   7.830  1.2876  2.8810 -1.1296
  379MOL0     H51134   8.239   5.961   7.817 -1.1753  1.1740 -1.1509
  379MOL0     H51135   8.041   5.748   7.933 -2.2345  1.4662 -1.5973
  379MOL0     H51136   8.223   5.735   7.920 -0.0921 -3.5786 -3.9878
  379MOL0     H51137   8.227   5.742   7.684 -0.0396  0.0078 -0.1488
  379MOL0     H51138   8.116   5.611   7.731  0.3509 -0.7366 -0.4922
  379MOL0     H51139   8.054   5.753   7.550  1.1520  1.9352  0.2861
  379MOL0     H51140   8.032   5.892   7.660 -1.9263  0.4318  1.4879
  379MOL0     H51141   7.877   5.752   7.784 -0.3958  1.9773  0.1783
  379MOL0     H51142   7.821   5.796   7.618  0.2647 -2.1457 -1.8868
  379MOL0     H51143   7.931   5.521   7.699  2.8588  0.8767 -2.5654
  379MOL0     H51144   7.880   5.569   7.536  1.4667  1.5100  0.7731
  379MOL0     H51145   7.714   5.538   7.784 -1.6067 -1.3787 -0.7429
  379MOL0     H51146   7.723   5.420   7.659  1.0507 -0.9578  2.5655
  379MOL0     H51147   8.218   6.058   8.260 -0.4817  1.7637  3.6214
  379MOL0     H51148   8.382   6.182   8.401 -1.0046 -0.2681 -0.1354
  379MOL0     H51149   8.614   6.319   8.577  1.2530 -0.7642  0.0999
  379MOL0     H51150   8.755   6.343   8.777 -0.7324 -0.1103  0.3765
  379MOL0     H51151  10.292   5.719   9.070 -0.8870 -4.7374 -0.5654
  379MOL0     H51152  10.348   5.494   9.182 -0.4882 -1.4877  2.1023
  379MOL0     H51153  10.226   5.102   9.408 -0.8872 -2.3628  1.2413
  379MOL0     H51154  10.283   4.919   9.545  2.0629  0.1322  0.4918
  379MOL0     H51155  10.571   4.814   9.857  0.5797 -0.2168 -3.4723
  379MOL0     H51156  10.614   4.984   9.831 -0.5214 -0.6167 -2.8070
  379MOL0     H51157  10.447   5.069   9.976 -0.8695 -0.2942  0.0370
  379MOL0     H51158  10.550   4.963  10.066 -1.4014  5.0977  1.7900
  379MOL0     H51159  10.268   4.931   9.999  1.7697 -0.1545 -1.7729
  379MOL0     H51160  10.345   4.928  10.156  1.8375 -0.5854  0.6695
  379MOL0     H51161  10.370   4.704   9.952  1.0226  0.8656 -0.9599
  379MOL0     H51162  10.291   4.690  10.110 -0.8530  0.6577 -0.6175
  379MOL0     H51163  10.708   4.626  10.159  0.0947 -2.0070 -0.5375
  379MOL0     H51164  10.519   5.183   9.792  1.4291 -0.3237 -1.0521
  379MOL0     H51165  10.444   5.371   9.664  1.5315  0.1059 -1.3220
  380MOL0     O51166   0.894   6.662   0.713 -0.3450 -0.5046  0.4190
  380MOL0     C51167   0.956   6.567   0.668 -0.3338 -0.0834  0.5651
  380MOL0     O51168   0.906   6.443   0.638  0.5480 -0.2441  0.5121
  380MOL0     C51169   0.779   6.391   0.666  1.0143 -1.3354  0.1637
  380MOL0     C51170   0.691   6.444   0.760 -0.5798  0.1666  1.1258
  380MOL0     C51171   0.572   6.375   0.788  0.9667  0.8224 -0.0050
  380MOL0     C51172   0.541   6.250   0.722  0.3272  0.1678  0.3636
  380MOL0     O51173   0.429   6.183   0.758 -0.2049 -1.3357 -0.1999
  380MOL0     C51174   0.323   6.234   0.841 -0.2109 -0.2169  0.5255
  380MOL0     C51175   0.215   6.128   0.871  0.5853  0.3402 -1.1782
  380MOL0     C51176   0.097   6.187   0.963  0.0708 -0.1500 -0.2292
  380MOL0     C51177   0.111   6.144   1.109  0.4664  1.1809  0.3564
  380MOL0     C51178   0.034   6.008   1.117 -0.2688 -0.6587  0.6168
  380MOL0     C51179  -0.117   6.023   1.139  1.0287  0.4905  0.8335
  380MOL0     C51180  -0.201   5.890   1.137 -0.2057 -0.3912  0.9716
  380MOL0     C51181  -0.197   5.808   1.016 -0.1893 -0.4549  0.3743
  380MOL0     N51182  -0.169   5.889   0.894  0.6670 -0.0515  0.1899
  380MOL0     C51183  -0.257   5.993   0.853 -0.7680  0.4651 -0.0904
  380MOL0     C51184  -0.217   6.016   0.728 -0.1104 -0.0067 -0.9493
  380MOL0     C51185  -0.269   6.124   0.644 -0.8434 -0.6652 -0.3807
  380MOL0     C51186  -0.376   6.074   0.551  0.9636  0.3210  0.0159
  380MOL0     C51187  -0.432   6.189   0.464  0.0762  0.1811  0.5994
  380MOL0     C51188  -0.524   6.134   0.356  0.1038 -0.6345  0.1568
  380MOL0     O51189  -0.576   6.236   0.267 -0.5038  0.0197 -0.5215
  380MOL0     C51190  -0.597   6.197   0.145  0.1723 -1.0853  0.2930
  380MOL0     C51191  -0.600   6.310   0.063  0.2633  0.2710 -0.2855
  380MOL0     C51192  -0.602   6.296  -0.075  0.8685  0.2645 -0.0048
  380MOL0     C51193  -0.627   6.416  -0.156  0.2183  0.2672  0.2360
  380MOL0     C51194  -0.590   6.163  -0.138 -0.6998  0.1276 -0.6022
  380MOL0     C51195  -0.584   6.131  -0.285 -0.2949  0.0703 -1.6644
  380MOL0     O51196  -0.562   5.993  -0.318  0.7320 -0.5205 -0.7445
  380MOL0     C51197  -0.519   5.978  -0.444  0.0271  1.0071 -0.3455
  380MOL0     C51198  -0.388   5.936  -0.464  0.2735  0.1860 -1.3307
  380MOL0     C51199  -0.323   5.941  -0.587 -0.6455  0.1272 -0.4644
  380MOL0     C51200  -0.399   5.966  -0.697  0.2812 -0.0056  0.3244
  380MOL0     O51201  -0.331   5.965  -0.818  0.0113  0.6389 -0.0466
  380MOL0     C51202  -0.401   5.942  -0.935 -0.8463  0.0461  0.4269
  380MOL0     C51203  -0.295   5.895  -1.040 -0.6383  0.2998  1.0736
  380MOL0     C51204  -0.188   5.997  -1.074 -1.1842 -1.2057  0.0373
  380MOL0     C51205  -0.054   5.922  -1.106  0.4699  1.2242  0.1688
  380MOL0     C51206  -0.057   5.844  -1.236  0.4634  0.0593  0.8900
  380MOL0     C51207   0.059   5.733  -1.226  0.4870 -0.3568  0.3840
  380MOL0     C51208   0.026   5.608  -1.134  0.3788 -1.2457 -0.0230
  380MOL0     C51209  -0.112   5.542  -1.161  0.0560 -0.0167 -0.1831
  380MOL0    Cl51210  -0.132   5.396  -1.058  0.2022 -0.4600  0.2877
  380MOL0     C51211  -0.536   5.986  -0.682  0.1683 -0.8952  0.2397
  380MOL0     C51212  -0.591   6.004  -0.559 -0.0103 -0.3114 -0.3275
  380MOL0     O51213  -0.559   6.221  -0.359 -0.3630 -0.3475  0.2999
  380MOL0     C51214  -0.586   6.052  -0.051  0.4620 -0.2342  0.2836
  380MOL0     C51215  -0.588   6.066   0.088  1.6139 -0.2512  0.4025
  380MOL0     N51216  -0.121   5.921   0.695 -0.1176  0.0533 -0.0544
  380MOL0     N51217  -0.086   5.850   0.795 -0.1793 -0.5711 -0.3447
  380MOL0     C51218   0.633   6.200   0.630  0.6501  0.3148  0.1033
  380MOL0     C51219   0.752   6.270   0.604  0.6296  0.3408  0.2076
  380MOL0     C51220   1.104   6.585   0.646  0.5730  1.0939 -0.1036
  380MOL0     C51221   1.173   6.501   0.554 -0.0785 -0.2634  0.3319
  380MOL0     C51222   1.313   6.516   0.523  0.7235 -0.2350  0.1943
  380MOL0     C51223   1.383   6.621   0.578  0.0027 -0.2453  0.0281
  380MOL0     O51224   1.517   6.647   0.558 -0.3767  0.0234 -0.3074
  380MOL0     C51225   1.572   6.596   0.440  0.1653 -0.4195 -0.6953
  380MOL0     C51226   1.687   6.693   0.418 -0.3101  0.7364  0.3235
  380MOL0     C51227   1.793   6.674   0.526 -0.1416 -0.2712  0.2020
  380MOL0     C51228   1.888   6.797   0.535 -0.0142 -0.4192 -0.8144
  380MOL0     C51229   1.942   6.826   0.396  0.6061 -0.7680 -0.2135
  380MOL0     C51230   1.982   6.860   0.285 -0.5229 -0.3308  0.2903
  380MOL0     C51231   1.323   6.698   0.681 -0.0787 -0.5626  0.3172
  380MOL0     C51232   1.186   6.681   0.711 -0.4673 -0.3156  0.6038
  380MOL0     H51233   0.720   6.532   0.816  1.3610  0.6473 -0.5280
  380MOL0     H51234   0.502   6.407   0.864  0.9312 -2.1901  1.3863
  380MOL0     H51235   0.368   6.269   0.934 -0.1849  1.4495 -0.0741
  380MOL0     H51236   0.271   6.316   0.790 -1.9505 -0.9763  0.9996
  380MOL0     H51237   0.173   6.102   0.773 -2.2994 -0.1137  0.0759
  380MOL0     H51238   0.262   6.040   0.915 -2.8882 -0.5034  1.2991
  380MOL0     H51239   0.105   6.295   0.957  1.2060 -0.2788 -1.3944
  380MOL0     H51240   0.001   6.149   0.927  0.2249 -0.7917  0.0204
  380MOL0     H51241   0.216   6.125   1.133 -0.1436 -2.1917  0.8567
  380MOL0     H51242   0.073   6.219   1.179 -0.5233 -0.6404  1.8632
  380MOL0     H51243   0.040   5.942   1.029 -0.5370 -0.4047  0.4035
  380MOL0     H51244   0.076   5.959   1.205 -0.0723  0.0138  0.8975
  380MOL0     H51245  -0.131   6.062   1.240 -0.4597 -0.6347  1.1031
  380MOL0     H51246  -0.164   6.098   1.074 -3.2050 -2.3164  0.1715
  380MOL0     H51247  -0.168   5.833   1.224 -0.9274  0.1364  1.6114
  380MOL0     H51248  -0.308   5.914   1.145 -0.5570 -0.6729 -1.8307
  380MOL0     H51249  -0.287   5.750   0.994  0.0398 -1.1560  1.2141
  380MOL0     H51250  -0.114   5.738   1.033 -0.2895 -0.0607  2.8665
  380MOL0     H51251  -0.345   6.034   0.901 -0.5488  2.0410 -0.9447
  380MOL0     H51252  -0.308   6.194   0.718  3.4318 -1.4798  3.0329
  380MOL0     H51253  -0.188   6.172   0.588 -0.5541  1.2450  1.5784
  380MOL0     H51254  -0.457   6.038   0.615  1.9831 -0.7851  0.7415
  380MOL0     H51255  -0.332   5.993   0.492  0.9800 -2.0317  3.0276
  380MOL0     H51256  -0.354   6.254   0.424 -0.2480  0.7990  0.9358
  380MOL0     H51257  -0.477   6.264   0.531 -0.7663 -0.2213  0.4946
  380MOL0     H51258  -0.614   6.100   0.408 -0.8543  1.9383  0.3556
  380MOL0     H51259  -0.473   6.042   0.327 -0.1864 -1.7206  2.8067
  380MOL0     H51260  -0.577   6.402   0.116 -0.5553 -0.5720  1.6278
  380MOL0     H51261  -0.680   6.391  -0.248  1.1785  2.3818 -0.9678
  380MOL0     H51262  -0.687   6.496  -0.112  0.9874  1.7144 -1.2443
  380MOL0     H51263  -0.534   6.471  -0.174 -0.1012  0.4160 -1.0628
  380MOL0     H51264  -0.335   5.888  -0.382 -0.1030  0.0491 -1.1631
  380MOL0     H51265  -0.224   5.897  -0.597 -1.4297 -1.3893 -2.1187
  380MOL0     H51266  -0.480   5.868  -0.915 -0.5059 -0.0440  1.5125
  380MOL0     H51267  -0.454   6.034  -0.960 -4.0816 -1.7773 -0.0122
  380MOL0     H51268  -0.243   5.809  -0.997  0.2864  0.5107  0.3968
  380MOL0     H51269  -0.342   5.866  -1.135  1.3486 -1.9322  0.6723
  380MOL0     H51270  -0.182   6.067  -0.990 -0.7632  2.5884 -2.8603
  380MOL0     H51271  -0.206   6.061  -1.161  0.0556  0.1775  0.7401
  380MOL0     H51272   0.033   5.988  -1.113  0.2033  1.5415 -0.1671
  380MOL0     H51273  -0.030   5.858  -1.020 -0.7932  0.8563  0.2622
  380MOL0     H51274  -0.035   5.914  -1.317  1.0225  1.2360  2.0103
  380MOL0     H51275  -0.151   5.790  -1.249  0.6919  0.3059 -2.5018
  380MOL0     H51276   0.065   5.690  -1.326  1.2145  1.6119 -0.4710
  380MOL0     H51277   0.158   5.778  -1.212  1.7905 -2.7735 -0.4745
  380MOL0     H51278   0.021   5.653  -1.034  2.0302 -2.3300  0.5781
  380MOL0     H51279   0.103   5.531  -1.144  0.8298 -1.2870  2.8925
  380MOL0     H51280  -0.109   5.519  -1.268  1.3857  2.0534 -0.6655
  380MOL0     H51281  -0.201   5.603  -1.142  0.3558  0.0490  1.1121
  380MOL0     H51282  -0.599   6.017  -0.765  0.4421 -0.2327  0.2725
  380MOL0     H51283  -0.698   6.017  -0.545  0.4218  0.5021  3.1375
  380MOL0     H51284  -0.577   5.951  -0.088 -5.3162 -1.8176  2.1865
  380MOL0     H51285  -0.571   5.973   0.142  1.9145 -0.3220  0.1887
  380MOL0     H51286   0.608   6.106   0.583 -3.3633  0.7995  0.9161
  380MOL0     H51287   0.824   6.233   0.532 -0.3648  2.1259 -1.8243
  380MOL0     H51288   1.110   6.429   0.501 -1.9542  1.1620  0.5294
  380MOL0     H51289   1.365   6.452   0.452  1.8321 -1.5949  2.1435
  380MOL0     H51290   1.617   6.496   0.449  1.4384 -0.2026 -3.5311
  380MOL0     H51291   1.512   6.593   0.349  2.0308  0.6528 -2.0295
  380MOL0     H51292   1.646   6.795   0.413 -3.7634 -0.5593 -1.0525
  380MOL0     H51293   1.725   6.666   0.319 -2.5051 -0.2702 -0.3083
  380MOL0     H51294   1.847   6.581   0.507  0.0659 -0.5562  1.9927
  380MOL0     H51295   1.746   6.663   0.624 -0.5894  0.5674  0.0934
  380MOL0     H51296   1.970   6.774   0.604  0.1719  1.3420 -0.3954
  380MOL0     H51297   1.838   6.888   0.570 -2.3186 -1.3671 -1.4709
  380MOL0     H51298   2.027   6.895   0.193  4.8722 -1.9170  1.9388
  380MOL0     H51299   1.373   6.781   0.731  0.6658 -1.4577  1.0840
  380MOL0     H51300   1.144   6.747   0.786  2.9139  1.7172  0.9102
  381MOL0     O51301   8.181   8.435  11.279  0.3742 -0.2560  0.8610
  381MOL0     C51302   8.191   8.413  11.397  1.1988 -0.7835 -0.3154
  381MOL0     O51303   8.102   8.343  11.467  0.1919 -0.3411 -0.6694
  381MOL0     C51304   7.977   8.315  11.411 -0.3222  0.6128 -0.1097
  381MOL0     C51305   7.900   8.404  11.348 -0.5127  0.7783  0.8179
  381MOL0     C51306   7.781   8.363  11.286  0.1333 -1.0089 -0.6701
  381MOL0     C51307   7.742   8.235  11.285  0.0985 -0.1915 -0.1649
  381MOL0     O51308   7.620   8.207  11.225 -0.0740 -0.4757 -0.2183
  381MOL0     C51309   7.603   8.080  11.175 -0.2663  0.4223  0.7485
  381MOL0     C51310   7.473   8.048  11.093 -0.4333 -0.0369  0.5976
  381MOL0     C51311   7.343   8.081  11.170  0.0123 -0.7315 -0.2593
  381MOL0     C51312   7.218   8.020  11.101  0.2150 -0.2703 -0.2527
  381MOL0     C51313   7.092   8.073  11.173 -0.2997 -0.2214 -0.5760
  381MOL0     C51314   6.964   8.023  11.105  0.6939 -0.2979 -0.4296
  381MOL0     C51315   6.833   8.086  11.163 -0.2234 -0.1495 -0.7406
  381MOL0     C51316   6.711   7.984  11.168  0.3183 -0.0663 -0.1316
  381MOL0     N51317   6.587   8.051  11.189  0.4819  0.2051  0.3187
  381MOL0     C51318   6.523   8.125  11.097  0.2124 -0.3218  0.2313
  381MOL0     C51319   6.412   8.181  11.157  0.0113 -0.8705 -0.3364
  381MOL0     C51320   6.307   8.266  11.095  0.6336 -0.4822 -0.0219
  381MOL0     C51321   6.184   8.285  11.186  0.0116  0.0726  0.2786
  381MOL0     C51322   6.079   8.388  11.130  0.6167 -0.6503 -1.1921
  381MOL0     C51323   5.935   8.388  11.198 -0.0188 -0.8510  0.4750
  381MOL0     O51324   5.872   8.516  11.174 -0.0333  0.9352  0.2594
  381MOL0     C51325   5.740   8.520  11.217 -0.5520  0.1182 -0.5441
  381MOL0     C51326   5.657   8.504  11.107  0.0600 -0.0267  0.3076
  381MOL0     C51327   5.523   8.533  11.119 -0.8130  0.2623  0.1254
  381MOL0     C51328   5.450   8.535  10.989 -1.3175  1.0209  0.1728
  381MOL0     C51329   5.461   8.540  11.245  0.0827  0.2193  0.5993
  381MOL0     C51330   5.316   8.539  11.272  0.0438 -0.3478  0.3329
  381MOL0     O51331   5.273   8.592  11.394  0.1409  0.1377  0.2630
  381MOL0     C51332   5.137   8.613  11.426 -0.0907  0.3136 -0.0943
  381MOL0     C51333   5.073   8.718  11.355  0.2907  0.3561  0.8556
  381MOL0     C51334   4.933   8.743  11.388  0.4051 -0.4931  0.4588
  381MOL0     C51335   4.868   8.681  11.490 -0.1357 -0.4099 -0.3091
  381MOL0     O51336   4.742   8.711  11.522  0.8819 -0.9402 -0.6976
  381MOL0     C51337   4.686   8.847  11.496 -0.6725  0.2489 -0.4973
  381MOL0     C51338   4.579   8.870  11.600  0.4487  0.5425 -0.0783
  381MOL0     C51339   4.452   8.799  11.561  0.1877  0.3884 -0.2147
  381MOL0     C51340   4.343   8.815  11.672  0.5121  0.5605 -0.0423
  381MOL0     C51341   4.269   8.943  11.666 -0.6520 -0.1415 -0.2482
  381MOL0     C51342   4.173   8.961  11.784  0.8333 -0.5248 -0.2608
  381MOL0     C51343   4.098   9.095  11.757 -0.4943  0.8146  0.5309
  381MOL0     C51344   4.016   9.135  11.885 -0.6348  0.1107  0.2021
  381MOL0    Cl51345   3.892   9.014  11.904  0.1189  0.3235  0.4311
  381MOL0     C51346   4.939   8.589  11.563 -0.4990  0.2664  0.4595
  381MOL0     C51347   5.074   8.561  11.538 -0.7946 -0.2067  0.1081
  381MOL0     O51348   5.233   8.510  11.186 -0.3372 -0.1508  0.2076
  381MOL0     C51349   5.548   8.544  11.353  0.7880  0.1106 -1.1147
  381MOL0     C51350   5.686   8.535  11.343 -0.1622  0.0047  0.3435
  381MOL0     N51351   6.403   8.119  11.282 -0.6254  0.0585  0.0298
  381MOL0     N51352   6.507   8.037  11.301 -0.4042  0.8590  0.0968
  381MOL0     C51353   7.815   8.144  11.358 -0.4259 -0.4106 -0.3234
  381MOL0     C51354   7.937   8.177  11.415  0.0324  0.7113 -0.1443
  381MOL0     C51355   8.312   8.448  11.471  0.3254 -0.0119 -0.0801
  381MOL0     C51356   8.320   8.420  11.608  1.3256  0.2775 -0.1709
  381MOL0     C51357   8.432   8.457  11.685  0.3524  0.4359 -1.0569
  381MOL0     C51358   8.546   8.513  11.631  0.0765 -0.2186 -0.4824
  381MOL0     O51359   8.659   8.528  11.715 -0.1216 -0.0663 -0.6430
  381MOL0     C51360   8.784   8.509  11.645 -0.4241  0.0614 -0.2343
  381MOL0     C51361   8.909   8.512  11.738 -0.2814 -0.7065  0.3901
  381MOL0     C51362   8.905   8.403  11.830  0.1076 -0.0359  0.5039
  381MOL0     C51363   9.017   8.406  11.932 -0.0489 -0.1011  1.0238
  381MOL0     C51364   9.155   8.400  11.869 -0.4187  0.3777  0.7837
  381MOL0     C51365   9.254   8.402  11.795  0.8597 -0.6160 -0.0817
  381MOL0     C51366   8.537   8.543  11.493 -0.9062  0.0325  0.7851
  381MOL0     C51367   8.422   8.517  11.416  0.9262 -0.0263  0.3549
  381MOL0     H51368   7.947   8.502  11.350  3.5399 -0.7813 -2.4537
  381MOL0     H51369   7.725   8.434  11.225  0.0879 -0.0666  0.4183
  381MOL0     H51370   7.689   8.057  11.111  0.3275  3.8133  0.1329
  381MOL0     H51371   7.605   8.003  11.252 -1.4778 -2.7280 -2.0951
  381MOL0     H51372   7.472   8.110  11.002 -0.9336 -0.8396  0.0486
  381MOL0     H51373   7.467   7.942  11.068  0.1937 -0.1138  0.7457
  381MOL0     H51374   7.350   8.033  11.268  0.7288 -1.9041 -0.8583
  381MOL0     H51375   7.326   8.188  11.187 -1.3606 -0.8802 -0.5717
  381MOL0     H51376   7.209   8.039  10.994  1.2319 -1.1519 -0.5045
  381MOL0     H51377   7.230   7.912  11.105 -1.2978 -0.5865 -2.6995
  381MOL0     H51378   7.101   8.028  11.272 -1.3550  1.7778  0.4742
  381MOL0     H51379   7.101   8.181  11.183  0.7852 -0.1647 -1.9131
  381MOL0     H51380   6.969   8.049  10.999  4.0774  1.1222 -0.0425
  381MOL0     H51381   6.952   7.917  11.127 -2.8356  0.4333  1.9605
  381MOL0     H51382   6.837   8.117  11.268 -3.4706 -1.2733 -0.1687
  381MOL0     H51383   6.817   8.183  11.113 -2.5720 -0.8012 -1.3679
  381MOL0     H51384   6.722   7.914  11.251 -1.7334 -1.5180 -0.9968
  381MOL0     H51385   6.696   7.927  11.076  0.6144  1.9071 -1.4744
  381MOL0     H51386   6.551   8.138  10.993 -0.9566 -0.9853 -0.1902
  381MOL0     H51387   6.353   8.362  11.071 -2.0436  1.7541  2.9572
  381MOL0     H51388   6.272   8.225  10.999  1.4860 -0.4702 -0.3469
  381MOL0     H51389   6.211   8.316  11.288 -1.2170  0.5692  0.4686
  381MOL0     H51390   6.149   8.182  11.195  0.8032 -0.0356  3.5668
  381MOL0     H51391   6.048   8.356  11.030 -0.0557 -0.3283 -1.0971
  381MOL0     H51392   6.113   8.492  11.128  1.1730 -0.8371 -2.4233
  381MOL0     H51393   5.951   8.368  11.304 -2.9124 -0.9422  0.9722
  381MOL0     H51394   5.873   8.310  11.152  0.3716 -0.6541 -0.3996
  381MOL0     H51395   5.706   8.480  11.013  0.7308  2.1202  0.0579
  381MOL0     H51396   5.455   8.434  10.948 -1.1675  1.7047 -1.5838
  381MOL0     H51397   5.351   8.581  11.003 -1.6234  0.2952  0.4359
  381MOL0     H51398   5.502   8.604  10.922  2.5230  1.8701  3.6213
  381MOL0     H51399   5.119   8.772  11.273  0.9626  0.6131  1.3908
  381MOL0     H51400   4.885   8.824  11.333  1.5463 -0.5874 -0.7424
  381MOL0     H51401   4.766   8.918  11.519 -2.3793  1.5439  1.7804
  381MOL0     H51402   4.652   8.855  11.392  1.5434 -0.1008 -1.3158
  381MOL0     H51403   4.616   8.841  11.699  1.9450 -0.3541 -0.8559
  381MOL0     H51404   4.562   8.978  11.596 -0.0016  0.4535 -1.0272
  381MOL0     H51405   4.472   8.692  11.558 -1.9444 -0.0382 -0.7960
  381MOL0     H51406   4.425   8.836  11.461 -0.5858  2.5537  0.7392
  381MOL0     H51407   4.271   8.739  11.640  2.9320 -0.5860 -3.3326
  381MOL0     H51408   4.385   8.794  11.771 -0.3059  2.4352  0.7517
  381MOL0     H51409   4.215   8.949  11.572 -1.0549  2.5964  0.0733
  381MOL0     H51410   4.346   9.021  11.665  0.1429 -0.8681 -2.8361
  381MOL0     H51411   4.109   8.872  11.785  2.2646 -1.6593 -1.9766
  381MOL0     H51412   4.228   8.967  11.879 -0.0728 -0.4333  0.2641
  381MOL0     H51413   4.031   9.076  11.672  0.0404 -0.7585  0.4277
  381MOL0     H51414   4.160   9.180  11.727  1.0857 -0.5992 -0.3530
  381MOL0     H51415   3.960   9.226  11.863  0.5899  1.2669  1.6939
  381MOL0     H51416   4.069   9.138  11.981 -1.0348  2.2819  0.3914
  381MOL0     H51417   4.895   8.534  11.645 -1.8945  1.0696  0.2654
  381MOL0     H51418   5.136   8.493  11.595  1.1158  1.3543  0.0073
  381MOL0     H51419   5.523   8.553  11.458  2.0646 -0.1032 -0.7670
  381MOL0     H51420   5.751   8.546  11.429 -0.5134 -0.9432  0.7378
  381MOL0     H51421   7.782   8.045  11.390  2.8480 -0.9710  1.8901
  381MOL0     H51422   7.988   8.092  11.458 -1.9846 -0.9595 -0.8944
  381MOL0     H51423   8.248   8.356  11.657 -0.1102  1.4739 -0.6332
  381MOL0     H51424   8.433   8.418  11.786 -0.4525 -1.2265 -1.6616
  381MOL0     H51425   8.791   8.414  11.591 -0.3496 -0.4149  0.6007
  381MOL0     H51426   8.791   8.592  11.574 -0.9869 -1.1839 -1.8351
  381MOL0     H51427   8.929   8.613  11.777 -0.3207 -1.3237  2.1036
  381MOL0     H51428   8.997   8.501  11.674  0.1489  2.7000  0.1793
  381MOL0     H51429   8.908   8.309  11.774 -0.2184 -0.2646  0.8602
  381MOL0     H51430   8.807   8.397  11.879 -0.1883 -2.3014 -0.2227
  381MOL0     H51431   9.001   8.321  12.000 -1.5290  1.6123  2.9547
  381MOL0     H51432   9.007   8.496  11.994 -1.1976  2.4991 -2.5860
  381MOL0     H51433   9.336   8.402  11.726 -0.2426 -1.3976 -1.4432
  381MOL0     H51434   8.616   8.598  11.443 -1.1356  0.5428  0.9742
  381MOL0     H51435   8.399   8.557  11.318 -2.1999 -1.0267  0.5864
  382MOL0     O51436   7.519   6.321   8.647 -0.0702  0.5340  0.5824
  382MOL0     C51437   7.640   6.293   8.657 -0.3292  0.4481 -0.5065
  382MOL0     O51438   7.690   6.164   8.655  0.0404 -0.4226 -0.8326
  382MOL0     C51439   7.600   6.054   8.632 -0.1052  0.4744  0.0187
  382MOL0     C51440   7.625   5.928   8.685 -0.5041  0.4045 -0.6897
  382MOL0     C51441   7.535   5.821   8.658  1.0001  0.0735  0.1913
  382MOL0     C51442   7.427   5.828   8.567 -0.3379 -0.1770  0.4649
  382MOL0     O51443   7.362   5.725   8.523  0.6359 -0.1418  0.2332
  382MOL0     C51444   7.224   5.728   8.496  0.1866 -1.0685  0.7847
  382MOL0     C51445   7.175   5.598   8.441  0.8885  0.7485  0.6108
  382MOL0     C51446   7.026   5.604   8.398 -0.5533 -0.6082  0.8176
  382MOL0     C51447   6.986   5.469   8.332  0.2401 -0.3181  0.6912
  382MOL0     C51448   6.842   5.435   8.375  0.2515 -0.3598  0.0594
  382MOL0     C51449   6.736   5.542   8.353  0.5309 -0.7347  0.3897
  382MOL0     C51450   6.724   5.577   8.205 -0.6118 -0.6932 -0.5118
  382MOL0     C51451   6.618   5.677   8.148 -0.4974  0.6578  0.0552
  382MOL0     N51452   6.593   5.642   8.009 -0.6855 -0.0013 -1.0580
  382MOL0     C51453   6.487   5.567   7.967  0.8446 -0.5103  0.6889
  382MOL0     C51454   6.483   5.577   7.833  0.7359  0.2197 -0.1745
  382MOL0     C51455   6.398   5.525   7.729 -0.1739 -0.1962  0.1605
  382MOL0     C51456   6.335   5.618   7.625  0.1318  0.4445 -0.2646
  382MOL0     C51457   6.268   5.730   7.698  0.3453 -0.1824  0.6522
  382MOL0     C51458   6.231   5.846   7.603  0.2415  0.3493 -1.7125
  382MOL0     O51459   6.129   5.801   7.521 -0.1437 -0.2187 -0.1907
  382MOL0     C51460   5.994   5.806   7.554 -0.1462  0.0782  0.9541
  382MOL0     C51461   5.951   5.868   7.670  0.1064  0.0584 -0.6975
  382MOL0     C51462   5.817   5.874   7.700  0.4950 -0.5494 -0.5849
  382MOL0     C51463   5.785   5.933   7.841  0.7772 -0.8082  0.1269
  382MOL0     C51464   5.720   5.845   7.604  0.2983  0.4354  0.0164
  382MOL0     C51465   5.575   5.872   7.618  0.9882 -0.6894  0.2078
  382MOL0     O51466   5.510   5.890   7.494  0.2400  0.6494 -0.3907
  382MOL0     C51467   5.384   5.940   7.480 -0.0685  0.5308 -0.8180
  382MOL0     C51468   5.322   6.034   7.568 -0.2284  0.5327 -0.3238
  382MOL0     C51469   5.189   6.078   7.543 -0.2868  0.7921 -0.1072
  382MOL0     C51470   5.125   6.032   7.427  0.9189 -0.0014  0.3995
  382MOL0     O51471   5.002   6.081   7.398  0.0920 -1.3537 -0.0464
  382MOL0     C51472   4.897   6.002   7.346 -0.8237 -0.6291  0.1746
  382MOL0     C51473   4.782   5.988   7.440  0.3315 -0.1740  0.0610
  382MOL0     C51474   4.696   5.868   7.404 -1.2090 -0.4271  0.1178
  382MOL0     C51475   4.557   5.884   7.463 -0.3405 -0.2024 -1.1682
  382MOL0     C51476   4.467   5.778   7.399  0.0142  0.0285  0.4618
  382MOL0     C51477   4.328   5.773   7.457  0.1360  0.1416 -0.8547
  382MOL0     C51478   4.220   5.688   7.384  0.9109 -0.1113 -0.0503
  382MOL0     C51479   4.077   5.732   7.417 -0.3294 -0.6531 -0.2095
  382MOL0    Cl51480   4.054   5.881   7.306 -0.0833  0.4308  0.1597
  382MOL0     C51481   5.185   5.940   7.342 -0.7022 -0.6830  0.3701
  382MOL0     C51482   5.319   5.906   7.364  0.3357  0.5488 -0.9211
  382MOL0     O51483   5.526   5.869   7.727  0.5624  0.1897  0.4970
  382MOL0     C51484   5.758   5.794   7.483 -0.2187  0.1663  0.0101
  382MOL0     C51485   5.895   5.769   7.462 -0.2060  0.5831 -0.6161
  382MOL0     N51486   6.596   5.650   7.800 -0.1526 -0.9293  0.4872
  382MOL0     N51487   6.658   5.690   7.903  0.0498 -0.8330  0.7358
  382MOL0     C51488   7.408   5.949   8.511  1.0274 -0.3554 -0.4143
  382MOL0     C51489   7.489   6.062   8.540 -0.6394 -0.0670 -1.2019
  382MOL0     C51490   7.727   6.396   8.696 -0.4834  0.0311  0.0993
  382MOL0     C51491   7.854   6.369   8.747  0.1447  0.0540 -0.1153
  382MOL0     C51492   7.937   6.477   8.796 -0.1651  0.4662 -0.2268
  382MOL0     C51493   7.907   6.611   8.769  1.5474  0.5319 -0.2546
  382MOL0     O51494   7.974   6.722   8.815 -0.2892 -0.1421  0.2039
  382MOL0     C51495   7.964   6.747   8.953 -0.3519 -0.1859  0.0936
  382MOL0     C51496   8.091   6.723   9.025 -0.6785  0.3258  0.3048
  382MOL0     C51497   8.106   6.794   9.162  0.4080  0.1510 -0.4943
  382MOL0     C51498   8.241   6.758   9.229 -0.3433 -1.1558 -0.4133
  382MOL0     C51499   8.248   6.812   9.366 -0.6816  0.2491 -0.4169
  382MOL0     C51500   8.239   6.854   9.487 -0.2844  0.6642 -0.1960
  382MOL0     C51501   7.775   6.633   8.719 -0.3627  0.3848  0.7865
  382MOL0     C51502   7.690   6.528   8.685 -0.1446  0.3903 -0.4425
  382MOL0     H51503   7.707   5.901   8.751 -0.0931  1.0860 -0.9185
  382MOL0     H51504   7.547   5.722   8.700  2.4896 -0.2744 -0.9433
  382MOL0     H51505   7.177   5.772   8.585  1.5178  1.0668  0.4972
  382MOL0     H51506   7.198   5.795   8.414  1.6381 -0.7541  0.5587
  382MOL0     H51507   7.244   5.578   8.359  2.1301  0.0010  1.7916
  382MOL0     H51508   7.196   5.527   8.522 -0.5253 -0.6769 -0.2185
  382MOL0     H51509   6.962   5.634   8.481  0.3149  4.4460  0.0377
  382MOL0     H51510   7.023   5.690   8.329  2.4647  0.3417  1.7478
  382MOL0     H51511   6.991   5.486   8.224 -3.7872 -1.0291  0.2061
  382MOL0     H51512   7.054   5.391   8.364  2.4203  0.8951 -0.7478
  382MOL0     H51513   6.824   5.344   8.318  2.8283 -0.0584 -1.3785
  382MOL0     H51514   6.850   5.405   8.480 -0.9175  1.0192  0.5839
  382MOL0     H51515   6.635   5.525   8.392  0.9852 -1.8177  1.1674
  382MOL0     H51516   6.757   5.638   8.400  1.9069 -0.5121 -0.6191
  382MOL0     H51517   6.814   5.634   8.182  0.5267 -2.7013 -1.1895
  382MOL0     H51518   6.725   5.488   8.141  3.9847 -0.7066 -0.7211
  382MOL0     H51519   6.657   5.779   8.148  1.1077  0.0886  0.9692
  382MOL0     H51520   6.527   5.672   8.207  0.3564  1.7973  1.5368
  382MOL0     H51521   6.411   5.516   8.026  0.7048 -2.0903 -0.7867
  382MOL0     H51522   6.454   5.455   7.666  0.2444  1.2143 -1.0939
  382MOL0     H51523   6.317   5.467   7.773 -2.2878  2.5590  0.1731
  382MOL0     H51524   6.266   5.559   7.563  2.1331 -3.6068  0.9760
  382MOL0     H51525   6.415   5.657   7.560 -2.4783  0.0172 -4.0939
  382MOL0     H51526   6.348   5.771   7.760  1.9436 -1.0420 -0.7644
  382MOL0     H51527   6.186   5.699   7.763  1.8987 -0.4075  2.5799
  382MOL0     H51528   6.317   5.880   7.544 -1.3529  2.4641 -2.9474
  382MOL0     H51529   6.200   5.930   7.665  0.3496 -1.0279  0.2784
  382MOL0     H51530   6.012   5.899   7.754 -1.1258  0.1847  0.1775
  382MOL0     H51531   5.741   5.865   7.914 -2.2347 -2.0901 -2.6626
  382MOL0     H51532   5.870   5.983   7.889 -0.1258  0.5181  0.3970
  382MOL0     H51533   5.709   6.008   7.820  1.6171  0.2108  0.6116
  382MOL0     H51534   5.373   6.065   7.658  0.0444 -0.4513 -0.1204
  382MOL0     H51535   5.148   6.155   7.608  0.0864 -0.8253  2.1702
  382MOL0     H51536   4.867   6.049   7.252  1.1813 -1.1857 -0.8071
  382MOL0     H51537   4.938   5.902   7.327  0.1952 -0.9494  3.3898
  382MOL0     H51538   4.818   5.989   7.543 -3.3128 -3.2461  1.6226
  382MOL0     H51539   4.718   6.076   7.431 -0.6234 -0.7070  1.4211
  382MOL0     H51540   4.740   5.773   7.437 -2.4565 -0.9220  0.4025
  382MOL0     H51541   4.691   5.853   7.296 -0.0674  0.6843 -0.1184
  382MOL0     H51542   4.573   5.862   7.570  2.7665 -2.4655 -1.9408
  382MOL0     H51543   4.509   5.981   7.448  0.0908  0.6576  2.1776
  382MOL0     H51544   4.519   5.682   7.404 -0.8791 -0.6569 -1.9796
  382MOL0     H51545   4.466   5.799   7.291 -1.3434  0.6444  0.5695
  382MOL0     H51546   4.333   5.731   7.557 -2.9737 -0.6112 -0.8914
  382MOL0     H51547   4.294   5.877   7.463  0.4132  0.1411  3.3766
  382MOL0     H51548   4.233   5.586   7.422 -1.0316 -0.6111 -0.6115
  382MOL0     H51549   4.238   5.693   7.277  0.6782 -1.1191 -0.1423
  382MOL0     H51550   4.066   5.752   7.524  3.2668 -2.2976  0.6431
  382MOL0     H51551   4.002   5.658   7.388  0.4134 -0.8732 -1.6740
  382MOL0     H51552   5.135   5.922   7.248 -0.1167 -1.4644  0.1951
  382MOL0     H51553   5.362   5.825   7.307  0.3306 -1.9408  2.3063
  382MOL0     H51554   5.701   5.756   7.398  2.2940 -1.7022 -0.9744
  382MOL0     H51555   5.939   5.726   7.372 -2.3105 -0.9226 -0.9856
  382MOL0     H51556   7.332   5.974   8.437  1.0833  2.1852  0.2888
  382MOL0     H51557   7.469   6.160   8.499  0.0055  0.0430 -1.2537
  382MOL0     H51558   7.893   6.268   8.747  0.7288  0.2629 -1.6104
  382MOL0     H51559   8.019   6.440   8.856 -2.4797 -1.9652  1.7241
  382MOL0     H51560   7.932   6.850   8.975  1.5740  0.0974  1.8429
  382MOL0     H51561   7.884   6.685   8.994 -1.2599  3.7574  5.3274
  382MOL0     H51562   8.170   6.729   8.950 -1.7442  3.0129 -0.7407
  382MOL0     H51563   8.078   6.619   9.056  1.0815 -0.0617 -0.1430
  382MOL0     H51564   8.022   6.770   9.227  0.1961  1.1111 -0.4003
  382MOL0     H51565   8.096   6.903   9.155  0.2489  0.1508 -0.2619
  382MOL0     H51566   8.323   6.799   9.170 -0.3729 -0.3387  0.1027
  382MOL0     H51567   8.255   6.650   9.240 -1.4487 -1.3509 -0.7893
  382MOL0     H51568   8.237   6.891   9.588 -0.1859  2.3711 -0.7920
  382MOL0     H51569   7.732   6.732   8.706  1.1094  0.7507 -1.7022
  382MOL0     H51570   7.584   6.553   8.681  0.3705  3.1212  0.8420
  383MOL0     O51571   9.526   1.294   9.009  0.7186 -0.1105 -0.0126
  383MOL0     C51572   9.538   1.317   8.888 -0.4762 -0.2944  0.1728
  383MOL0     O51573   9.435   1.342   8.800  0.8813  0.3133  0.3830
  383MOL0     C51574   9.301   1.351   8.841  0.9048  0.0356  0.2743
  383MOL0     C51575   9.276   1.428   8.951 -0.6253 -0.2540 -0.8666
  383MOL0     C51576   9.149   1.443   9.002  0.4050  0.7061  0.4605
  383MOL0     C51577   9.044   1.380   8.939  0.1408  1.1840  0.0802
  383MOL0     O51578   8.926   1.387   9.001 -0.2869  0.4704  0.2824
  383MOL0     C51579   8.840   1.266   8.998 -1.0434  0.3425  0.3577
  383MOL0     C51580   8.732   1.253   9.097  0.0179 -0.0549 -0.2542
  383MOL0     C51581   8.615   1.350   9.073  0.1202  0.1501 -0.7903
  383MOL0     C51582   8.515   1.348   9.192 -0.5043 -0.1112  0.9157
  383MOL0     C51583   8.570   1.414   9.313 -0.7423 -0.0337  0.2105
  383MOL0     C51584   8.493   1.356   9.433 -0.1538 -0.6235  0.0985
  383MOL0     C51585   8.547   1.417   9.563  0.5316 -0.0756  0.0344
  383MOL0     C51586   8.466   1.360   9.680 -0.3609 -0.1367  0.4952
  383MOL0     N51587   8.519   1.415   9.804  0.3708  0.1516 -0.8762
  383MOL0     C51588   8.449   1.509   9.876 -0.5059  0.8308 -0.5663
  383MOL0     C51589   8.527   1.523   9.985  0.1348  0.1057  0.1593
  383MOL0     C51590   8.510   1.625  10.089  0.1562  0.1634 -0.1512
  383MOL0     C51591   8.525   1.771  10.038  0.0028 -0.1532 -0.0423
  383MOL0     C51592   8.441   1.873  10.114 -0.4224 -0.0666 -0.5607
  383MOL0     C51593   8.287   1.861  10.110 -0.2722 -0.3622  0.3823
  383MOL0     O51594   8.214   1.993  10.109  0.3989  0.4701 -0.0404
  383MOL0     C51595   8.086   1.990  10.160 -0.7609  0.2800  0.4991
  383MOL0     C51596   7.991   2.019  10.060 -0.5778  0.2096 -0.4658
  383MOL0     C51597   7.854   2.012  10.095  0.5287  0.0482  0.8288
  383MOL0     C51598   7.751   2.059   9.995 -0.5086  0.5938 -0.4883
  383MOL0     C51599   7.816   1.971  10.227  0.4082  0.1039  0.5926
  383MOL0     C51600   7.684   1.968  10.286  0.0734 -1.0667  0.0847
  383MOL0     O51601   7.677   1.987  10.409  0.2066  0.0991 -0.2841
  383MOL0     C51602   7.557   1.982  10.482 -0.4507  0.4702  0.3798
  383MOL0     C51603   7.489   2.103  10.506  0.2118 -0.3175  1.3592
  383MOL0     C51604   7.373   2.107  10.579  0.2992  0.5071 -0.4506
  383MOL0     C51605   7.316   1.989  10.618  0.2631 -0.6230  0.2039
  383MOL0     O51606   7.197   2.006  10.682  0.2284  0.5609  0.1157
  383MOL0     C51607   7.133   1.894  10.741 -0.0938 -0.1908 -0.1290
  383MOL0     C51608   7.013   1.942  10.829 -0.0529  0.3405  0.1927
  383MOL0     C51609   7.050   2.034  10.954 -0.7636  0.4107 -0.0134
  383MOL0     C51610   6.920   2.040  11.045 -0.4033 -0.6566  0.8019
  383MOL0     C51611   6.959   2.127  11.164  0.9121 -0.3738  0.1927
  383MOL0     C51612   6.840   2.153  11.246 -0.7270 -0.1570  0.0717
  383MOL0     C51613   6.870   2.236  11.371 -0.2289  0.0776  0.5357
  383MOL0     C51614   6.746   2.240  11.462  0.0243 -0.6276  0.7183
  383MOL0    Cl51615   6.594   2.287  11.370 -0.6202  0.2554  0.2654
  383MOL0     C51616   7.377   1.866  10.594  0.7538 -0.2179  0.2786
  383MOL0     C51617   7.507   1.860  10.525  0.7103 -0.1744  0.6237
  383MOL0     O51618   7.584   1.947  10.213  0.2594 -0.8467 -0.1835
  383MOL0     C51619   7.922   1.943  10.316 -0.4060 -0.2328 -0.1884
  383MOL0     C51620   8.057   1.946  10.289  0.5639  0.5584  0.3811
  383MOL0     N51621   8.632   1.440   9.981 -0.3743 -0.1994 -0.0770
  383MOL0     N51622   8.637   1.384   9.868 -0.3283 -0.4878 -0.2511
  383MOL0     C51623   9.070   1.302   8.824 -0.1513  0.8478  0.0415
  383MOL0     C51624   9.193   1.273   8.782 -0.1787  0.7922  0.3667
  383MOL0     C51625   9.678   1.328   8.825 -1.0459  0.3544 -0.4884
  383MOL0     C51626   9.693   1.332   8.685 -0.1028 -0.2278 -0.8860
  383MOL0     C51627   9.817   1.359   8.625  0.1634  0.0282 -0.3165
  383MOL0     C51628   9.926   1.383   8.700  0.6878 -0.0891 -0.5258
  383MOL0     O51629  10.051   1.389   8.639  0.0704  0.4501  0.0388
  383MOL0     C51630  10.080   1.366   8.500  0.7364  0.1674 -0.0384
  383MOL0     C51631  10.231   1.361   8.475 -0.3436 -0.0561  1.0253
  383MOL0     C51632  10.285   1.496   8.504 -0.7000  0.5658 -0.3089
  383MOL0     C51633  10.436   1.495   8.470 -0.5559 -0.0591  0.5267
  383MOL0     C51634  10.511   1.407   8.565 -0.6924  0.7909 -0.4544
  383MOL0     C51635  10.553   1.340   8.659  0.1845 -0.4248  0.1474
  383MOL0     C51636   9.919   1.383   8.838 -0.3231 -0.2755 -0.2268
  383MOL0     C51637   9.800   1.357   8.900 -0.2021 -0.4184 -0.1812
  383MOL0     H51638   9.355   1.477   9.008 -1.6807  0.7873 -0.2594
  383MOL0     H51639   9.122   1.482   9.100 -0.5656 -2.3729  1.5379
  383MOL0     H51640   8.798   1.272   8.897  1.1485 -0.7491 -0.7143
  383MOL0     H51641   8.902   1.176   9.008 -1.0787  0.3398  0.5652
  383MOL0     H51642   8.706   1.147   9.098  1.7840 -0.5272 -0.7768
  383MOL0     H51643   8.774   1.272   9.196 -1.8548  2.4542  0.1657
  383MOL0     H51644   8.647   1.452   9.052  0.2833  0.4340  0.7245
  383MOL0     H51645   8.568   1.303   8.986  1.6713 -1.1982 -0.9506
  383MOL0     H51646   8.428   1.407   9.159 -1.5192 -1.1101  1.7226
  383MOL0     H51647   8.479   1.247   9.214 -2.0024  0.3766  0.8363
  383MOL0     H51648   8.675   1.391   9.332 -0.5662 -2.6594 -3.0746
  383MOL0     H51649   8.556   1.521   9.295 -1.9704 -0.1920  0.1709
  383MOL0     H51650   8.386   1.377   9.437  0.3408  2.1908  0.1990
  383MOL0     H51651   8.506   1.247   9.434  1.1819 -0.5119  2.5917
  383MOL0     H51652   8.656   1.415   9.575  0.9102  4.3987 -0.8843
  383MOL0     H51653   8.533   1.525   9.557 -0.4946 -0.2630 -1.3767
  383MOL0     H51654   8.460   1.251   9.677 -1.8106 -0.0707 -0.1701
  383MOL0     H51655   8.364   1.398   9.670  0.0123  0.4531 -1.4904
  383MOL0     H51656   8.353   1.555   9.854 -1.6636 -0.6861  1.0516
  383MOL0     H51657   8.409   1.605  10.126 -0.1450  3.4728  1.1316
  383MOL0     H51658   8.576   1.614  10.175 -0.3244  2.7166  0.6103
  383MOL0     H51659   8.485   1.775   9.936 -4.7822 -0.9055  1.5469
  383MOL0     H51660   8.630   1.798  10.023 -0.2192 -0.5198 -2.7528
  383MOL0     H51661   8.459   1.979  10.095 -2.3553  0.7664  1.7386
  383MOL0     H51662   8.466   1.868  10.221 -0.1620 -0.7444 -0.6445
  383MOL0     H51663   8.260   1.784  10.183 -0.5165 -0.4929  0.1580
  383MOL0     H51664   8.271   1.826  10.007 -0.2300  2.7719 -0.7820
  383MOL0     H51665   8.018   2.036   9.956 -2.0269 -0.4500 -0.9827
  383MOL0     H51666   7.684   2.136  10.037  0.2809  2.1136 -1.8984
  383MOL0     H51667   7.792   2.080   9.896  3.1501 -3.5170 -0.1341
  383MOL0     H51668   7.675   1.981   9.984 -1.6682  1.6262 -0.0961
  383MOL0     H51669   7.523   2.195  10.459 -1.2198 -1.1917 -1.6347
  383MOL0     H51670   7.328   2.203  10.603 -0.4348 -0.3653  1.9425
  383MOL0     H51671   7.085   1.833  10.663  1.6750 -0.0246 -1.4252
  383MOL0     H51672   7.203   1.837  10.803  1.4777 -1.1922 -2.6466
  383MOL0     H51673   6.942   1.988  10.758  2.1073  2.2559 -0.8532
  383MOL0     H51674   6.963   1.852  10.866  2.5136 -0.6476  1.4307
  383MOL0     H51675   7.088   2.133  10.925  1.6518 -0.7315 -1.0075
  383MOL0     H51676   7.123   1.975  11.011 -1.6894 -0.7121  0.0457
  383MOL0     H51677   6.843   2.077  10.977  0.8802 -1.0656 -0.9525
  383MOL0     H51678   6.891   1.937  11.070  4.1128 -1.9544  1.6382
  383MOL0     H51679   6.995   2.227  11.136  3.3605 -0.6760  1.9427
  383MOL0     H51680   7.036   2.079  11.225 -0.4236 -0.7375  1.6442
  383MOL0     H51681   6.773   2.208  11.180  0.6044 -1.0219 -2.1306
  383MOL0     H51682   6.794   2.056  11.267  0.7424 -1.3235 -1.7490
  383MOL0     H51683   6.892   2.336  11.332 -2.8072  2.3375  4.2070
  383MOL0     H51684   6.948   2.185  11.427 -1.0698 -0.9952  0.7609
  383MOL0     H51685   6.762   2.304  11.550 -1.2135 -2.7989  2.6410
  383MOL0     H51686   6.733   2.140  11.505  2.1458 -0.7177  1.2354
  383MOL0     H51687   7.329   1.773  10.623  1.2198 -0.2874  0.8651
  383MOL0     H51688   7.552   1.762  10.512 -0.8852 -1.3316  2.9850
  383MOL0     H51689   7.886   1.923  10.416 -1.5637  4.1860  0.4802
  383MOL0     H51690   8.122   1.917  10.370  1.3583 -5.7006 -1.9837
  383MOL0     H51691   8.989   1.237   8.791 -0.9734 -0.0019  3.3678
  383MOL0     H51692   9.214   1.199   8.706  1.5572  0.6172  0.9772
  383MOL0     H51693   9.612   1.307   8.617 -0.5681  2.0794 -1.2474
  383MOL0     H51694   9.829   1.358   8.517 -3.5633 -1.1290 -0.8588
  383MOL0     H51695  10.021   1.282   8.463  0.4271  0.8540 -1.1499
  383MOL0     H51696  10.044   1.455   8.447  0.7251  2.1781  3.1039
  383MOL0     H51697  10.266   1.324   8.378 -0.5305  1.4378  0.3675
  383MOL0     H51698  10.272   1.294   8.551  1.5655  2.8346  2.7193
  383MOL0     H51699  10.271   1.510   8.612 -1.9241  1.0972 -0.5217
  383MOL0     H51700  10.231   1.572   8.447  1.6345  1.0771 -2.0057
  383MOL0     H51701  10.466   1.600   8.478 -4.4235  1.1775  0.9104
  383MOL0     H51702  10.449   1.449   8.371  0.2173  1.5583 -0.1678
  383MOL0     H51703  10.614   1.275   8.718  0.8644  0.4784  0.4625
  383MOL0     H51704  10.009   1.389   8.899  0.3353 -3.5585 -0.6538
  383MOL0     H51705   9.794   1.371   9.007 -1.2118  0.7584 -0.3656
  384MOL0     O51706  11.311   0.089   1.017  0.6727  0.7003  0.4599
  384MOL0     C51707  11.294   0.005   1.108  0.5014 -0.4512  0.1983
  384MOL0     O51708  11.165  -0.051   1.130  0.0457 -0.0289 -0.0992
  384MOL0     C51709  11.060   0.007   1.059 -0.9766  0.0387 -0.9895
  384MOL0     C51710  11.043   0.148   1.053  0.5298 -0.4629 -0.0617
  384MOL0     C51711  10.935   0.202   0.993  0.3581  0.2782  0.0764
  384MOL0     C51712  10.843   0.123   0.924 -0.2611 -0.2805 -1.2905
  384MOL0     O51713  10.736   0.181   0.870  0.3937  1.2307 -0.3122
  384MOL0     C51714  10.736   0.204   0.734  0.4584 -0.5596 -0.4774
  384MOL0     C51715  10.672   0.088   0.664  0.0353 -0.0922  0.4082
  384MOL0     C51716  10.538   0.033   0.724  0.3251 -0.1052 -0.0710
  384MOL0     C51717  10.520  -0.107   0.687  0.0933 -0.3777  0.1660
  384MOL0     C51718  10.368  -0.144   0.696  0.2235  0.1040  0.3744
  384MOL0     C51719  10.337  -0.294   0.667 -0.1399 -0.5213  0.3922
  384MOL0     C51720  10.201  -0.333   0.708  0.9054 -0.2802  0.2693
  384MOL0     C51721  10.089  -0.305   0.606  0.4207  0.1282 -0.1242
  384MOL0     N51722   9.960  -0.286   0.661  0.4331 -0.3780 -0.8372
  384MOL0     C51723   9.844  -0.350   0.608  0.3902 -0.8756  0.0894
  384MOL0     C51724   9.745  -0.267   0.646  0.4841 -0.3690 -0.8423
  384MOL0     C51725   9.597  -0.276   0.629 -0.6485  0.1173  0.1539
  384MOL0     C51726   9.534  -0.387   0.708  0.0471  0.5085 -0.0662
  384MOL0     C51727   9.381  -0.350   0.712 -0.0735 -0.3281 -0.3805
  384MOL0     C51728   9.294  -0.476   0.749  1.4641 -0.4686  0.1710
  384MOL0     O51729   9.325  -0.517   0.882 -0.2273  0.9218  0.1790
  384MOL0     C51730   9.238  -0.581   0.969 -0.5337  0.1701  0.4322
  384MOL0     C51731   9.284  -0.613   1.100 -0.2904 -0.9414  0.2792
  384MOL0     C51732   9.216  -0.689   1.195 -0.2624 -0.4429 -0.4710
  384MOL0     C51733   9.287  -0.720   1.327  0.5888  0.4627  0.6723
  384MOL0     C51734   9.079  -0.708   1.164  0.0740  0.2115 -1.0680
  384MOL0     C51735   8.985  -0.776   1.264  0.0089 -1.2946 -0.0413
  384MOL0     O51736   9.032  -0.859   1.363  0.2511 -0.7651 -0.1533
  384MOL0     C51737   8.943  -0.925   1.447 -0.0086 -0.9564  0.3929
  384MOL0     C51738   8.935  -0.894   1.580 -0.1166  0.7410 -0.2718
  384MOL0     C51739   8.842  -0.965   1.662 -0.0574  0.1235  0.4469
  384MOL0     C51740   8.760  -1.067   1.608  0.0596 -1.6147  0.4640
  384MOL0     O51741   8.673  -1.145   1.681 -0.0888  0.4413  0.4336
  384MOL0     C51742   8.611  -1.077   1.792  0.3974 -0.2310 -0.0495
  384MOL0     C51743   8.471  -1.127   1.808  0.8999  0.0453 -0.3673
  384MOL0     C51744   8.388  -1.053   1.903  0.8459 -0.8205  0.1857
  384MOL0     C51745   8.234  -1.091   1.886 -0.5872 -0.4076 -0.8090
  384MOL0     C51746   8.146  -0.994   1.973 -0.5363 -0.6174  0.9094
  384MOL0     C51747   8.004  -1.045   1.999 -0.1462 -0.0414 -0.0754
  384MOL0     C51748   7.923  -0.946   2.086  0.0128  0.4118  0.1561
  384MOL0     C51749   7.982  -0.937   2.231 -0.3298  0.2787  0.2066
  384MOL0    Cl51750   7.889  -0.840   2.344 -0.3615 -0.1920  0.0180
  384MOL0     C51751   8.773  -1.085   1.474  0.9048 -0.1877 -0.3284
  384MOL0     C51752   8.849  -1.011   1.389 -0.5424  0.0522 -0.3458
  384MOL0     O51753   8.867  -0.742   1.261  0.0017  0.0363 -0.0160
  384MOL0     C51754   9.025  -0.654   1.044  0.2055 -0.3503  0.2592
  384MOL0     C51755   9.103  -0.603   0.944 -0.4309 -0.0226  0.0270
  384MOL0     N51756   9.789  -0.166   0.734 -0.0837  0.7850  0.0018
  384MOL0     N51757   9.919  -0.188   0.748 -0.1448  0.1569 -0.3681
  384MOL0     C51758  10.859  -0.018   0.937 -0.4633  0.7266 -0.4173
  384MOL0     C51759  10.961  -0.071   1.012 -0.4848  0.3621  0.2898
  384MOL0     C51760  11.412  -0.050   1.171 -0.2963 -0.4285 -0.6278
  384MOL0     C51761  11.543  -0.045   1.116  0.2997  0.7418  0.0305
  384MOL0     C51762  11.659  -0.103   1.180  0.9920  0.3690  0.3993
  384MOL0     C51763  11.650  -0.165   1.302  0.0965 -0.4408  0.5172
  384MOL0     O51764  11.745  -0.235   1.368 -0.6629  1.0763 -0.2440
  384MOL0     C51765  11.884  -0.214   1.322  0.3105 -0.1559  0.1720
  384MOL0     C51766  11.945  -0.084   1.380  0.0859 -0.4683  0.0257
  384MOL0     C51767  12.026  -0.103   1.514 -0.2859 -0.3276  1.0454
  384MOL0     C51768  11.944  -0.122   1.639 -0.7529  0.1842 -0.5134
  384MOL0     C51769  11.863  -0.000   1.666  1.1023 -1.2049 -0.0163
  384MOL0     C51770  11.808   0.104   1.702  0.1057 -0.2692  0.8411
  384MOL0     C51771  11.518  -0.190   1.349 -0.9417  0.3360  0.1363
  384MOL0     C51772  11.409  -0.128   1.288 -0.5739  0.1040 -0.3549
  384MOL0     H51773  11.110   0.213   1.108  0.8002 -2.6107  2.3284
  384MOL0     H51774  10.922   0.310   0.985 -3.0596  0.1440  1.8510
  384MOL0     H51775  10.675   0.292   0.713  3.6885  2.0271  0.3356
  384MOL0     H51776  10.836   0.225   0.695  0.6256  2.2624  1.2032
  384MOL0     H51777  10.647   0.114   0.561 -0.7823  0.9269  0.8538
  384MOL0     H51778  10.750   0.012   0.653  0.5250 -0.1628  3.4890
  384MOL0     H51779  10.548   0.035   0.833  0.0622  0.8983 -0.0527
  384MOL0     H51780  10.453   0.092   0.688 -1.4153  0.1082  3.7989
  384MOL0     H51781  10.543  -0.106   0.580 -1.1552  2.8724 -0.1754
  384MOL0     H51782  10.577  -0.180   0.747 -0.6681  2.1814  4.3884
  384MOL0     H51783  10.312  -0.112   0.784 -0.2558 -0.2504  0.2071
  384MOL0     H51784  10.317  -0.100   0.609 -0.9730 -0.0278  0.9866
  384MOL0     H51785  10.354  -0.330   0.564  2.2389  0.4951  0.3647
  384MOL0     H51786  10.412  -0.347   0.727  2.8919  2.4143 -0.4847
  384MOL0     H51787  10.189  -0.442   0.715 -0.5607 -0.4228 -2.8782
  384MOL0     H51788  10.184  -0.275   0.799  1.5398 -0.3663  0.4498
  384MOL0     H51789  10.079  -0.385   0.532  0.7069  0.7328 -0.8294
  384MOL0     H51790  10.098  -0.212   0.549  1.1311 -0.6544 -1.3591
  384MOL0     H51791   9.823  -0.438   0.548 -2.3333  0.3253 -0.8517
  384MOL0     H51792   9.550  -0.180   0.649 -1.5437 -0.4428  0.8565
  384MOL0     H51793   9.580  -0.309   0.526 -0.9486 -0.5941  0.4220
  384MOL0     H51794   9.567  -0.400   0.811  1.6990 -2.8197 -0.8751
  384MOL0     H51795   9.549  -0.487   0.667 -0.8697  0.8918 -1.4102
  384MOL0     H51796   9.348  -0.326   0.610  0.4138 -3.1030 -1.2793
  384MOL0     H51797   9.365  -0.261   0.774  0.2919  0.6609 -1.6618
  384MOL0     H51798   9.301  -0.566   0.687 -0.6166 -1.1531  0.8510
  384MOL0     H51799   9.188  -0.449   0.740  1.0319 -2.4883 -1.7303
  384MOL0     H51800   9.385  -0.596   1.135  0.6591 -1.9793 -1.7537
  384MOL0     H51801   9.389  -0.681   1.324  1.1199 -0.8960 -1.3968
  384MOL0     H51802   9.224  -0.686   1.410 -1.6797 -0.2655 -0.6438
  384MOL0     H51803   9.304  -0.828   1.328 -1.7554  0.0521  1.4187
  384MOL0     H51804   9.001  -0.820   1.624 -1.5592  0.8995  1.7808
  384MOL0     H51805   8.844  -0.939   1.768 -0.7929 -1.4137  0.8712
  384MOL0     H51806   8.675  -1.098   1.878  0.0262 -2.0908 -0.1729
  384MOL0     H51807   8.620  -0.968   1.788 -0.2580 -0.1611  0.4135
  384MOL0     H51808   8.421  -1.110   1.712 -2.7724 -0.5667  1.2761
  384MOL0     H51809   8.465  -1.236   1.806 -1.9457  0.0807 -3.2398
  384MOL0     H51810   8.402  -0.947   1.879 -3.4270 -0.5807 -2.4411
  384MOL0     H51811   8.422  -1.071   2.005  2.0384  3.1494  0.6912
  384MOL0     H51812   8.199  -1.092   1.783  1.2271  0.5488 -1.4589
  384MOL0     H51813   8.223  -1.192   1.926 -0.5548  1.0256  3.3144
  384MOL0     H51814   8.147  -0.901   1.916 -0.5669 -2.3295 -2.0753
  384MOL0     H51815   8.200  -0.982   2.068  2.6710 -3.0038 -0.4336
  384MOL0     H51816   7.950  -1.054   1.905 -1.1309 -0.2583  0.4942
  384MOL0     H51817   8.012  -1.142   2.049  0.3819 -0.9036 -1.7573
  384MOL0     H51818   7.814  -0.959   2.077  0.4235 -2.3051 -1.9723
  384MOL0     H51819   7.939  -0.845   2.046 -1.5845 -0.1969 -2.2292
  384MOL0     H51820   8.082  -0.893   2.233 -0.2486  0.0803  0.4734
  384MOL0     H51821   7.995  -1.035   2.278  1.0169 -0.5406 -1.7009
  384MOL0     H51822   8.710  -1.166   1.438 -2.6950  2.1593  0.1313
  384MOL0     H51823   8.846  -1.040   1.285 -2.2551  1.4948 -0.7560
  384MOL0     H51824   8.919  -0.669   1.025  0.2622 -1.6906  0.8382
  384MOL0     H51825   9.052  -0.586   0.850  0.2049 -1.4423 -0.5946
  384MOL0     H51826  10.775  -0.078   0.903 -1.4440  1.5542  0.5070
  384MOL0     H51827  10.974  -0.177   1.034  1.9061  1.2142  3.8689
  384MOL0     H51828  11.566   0.018   1.031  0.5768 -1.4218 -1.5937
  384MOL0     H51829  11.753  -0.085   1.128  0.9824 -1.8029 -0.4662
  384MOL0     H51830  11.948  -0.299   1.349 -0.2653 -0.7167 -0.1982
  384MOL0     H51831  11.884  -0.209   1.213 -0.8115  4.0086  0.1892
  384MOL0     H51832  11.862  -0.015   1.395  0.4263 -0.4663  2.3721
  384MOL0     H51833  12.022  -0.046   1.312 -0.6997 -0.4667 -0.8871
  384MOL0     H51834  12.099  -0.023   1.532  0.1188 -0.2750 -0.6792
  384MOL0     H51835  12.086  -0.193   1.496  0.5391  0.6203 -1.2842
  384MOL0     H51836  12.014  -0.137   1.721 -0.9928  0.9072 -0.1675
  384MOL0     H51837  11.879  -0.208   1.618 -1.6986  0.9372 -0.7278
  384MOL0     H51838  11.766   0.199   1.728  1.0552 -0.7355  4.6793
  384MOL0     H51839  11.511  -0.244   1.442  0.9163 -2.7952 -1.3711
  384MOL0     H51840  11.315  -0.148   1.339 -1.1989  0.0288 -1.5027
  385MOL0     O51841   5.010   5.412   9.312 -0.6486  0.0161 -0.2431
  385MOL0     C51842   4.920   5.329   9.286 -0.3191 -0.2224  0.1077
  385MOL0     O51843   4.789   5.355   9.285 -0.3569  0.0923 -0.2165
  385MOL0     C51844   4.745   5.480   9.241 -0.7485 -0.1309  0.8010
  385MOL0     C51845   4.620   5.534   9.282 -0.6602 -0.2041 -0.8603
  385MOL0     C51846   4.572   5.649   9.238 -0.1136  0.4714  0.5352
  385MOL0     C51847   4.614   5.700   9.117  0.2142  0.2101  0.4955
  385MOL0     O51848   4.535   5.802   9.070 -0.1668  1.0625  0.1936
  385MOL0     C51849   4.550   5.848   8.934  0.3713 -0.5322 -0.0744
  385MOL0     C51850   4.470   5.976   8.927 -0.2586 -0.1963 -0.1938
  385MOL0     C51851   4.331   5.972   8.852 -0.0741 -1.0235  0.2502
  385MOL0     C51852   4.248   6.098   8.885 -0.3978  0.0739  0.3051
  385MOL0     C51853   4.112   6.082   8.840 -0.5788  0.7181 -0.5626
  385MOL0     C51854   4.021   6.204   8.879  0.4177  0.2854  0.3307
  385MOL0     C51855   3.880   6.164   8.852 -1.2583  0.5918 -0.4453
  385MOL0     C51856   3.782   6.285   8.845  0.7583 -0.1613 -1.1377
  385MOL0     N51857   3.645   6.239   8.869 -0.7831 -0.6889 -0.0347
  385MOL0     C51858   3.587   6.221   8.992 -0.4223 -0.0633  0.1872
  385MOL0     C51859   3.456   6.210   8.970 -0.6560  0.3430 -0.2060
  385MOL0     C51860   3.343   6.214   9.078  0.6460  0.8970  0.1129
  385MOL0     C51861   3.206   6.228   8.999 -0.6241  0.5528  0.2877
  385MOL0     C51862   3.086   6.214   9.084  0.0656  0.2534 -0.5593
  385MOL0     C51863   2.964   6.215   8.996  0.0783  0.4502  0.1708
  385MOL0     O51864   2.849   6.195   9.067  0.0051 -0.2957 -0.1525
  385MOL0     C51865   2.725   6.214   9.019  1.1597  0.6694 -1.0115
  385MOL0     C51866   2.612   6.208   9.107 -1.1185  0.5519  0.4618
  385MOL0     C51867   2.481   6.225   9.076 -0.7561  0.5403 -0.5336
  385MOL0     C51868   2.373   6.207   9.180 -0.2616 -0.1211  0.3418
  385MOL0     C51869   2.448   6.267   8.945 -0.7940  0.4604 -0.2981
  385MOL0     C51870   2.315   6.309   8.904  0.1717  0.3080  0.2288
  385MOL0     O51871   2.222   6.360   8.989  0.1079 -0.4670 -0.0431
  385MOL0     C51872   2.119   6.418   8.933 -0.6240  0.0075 -0.2419
  385MOL0     C51873   2.007   6.339   8.893 -0.6417 -0.1984  0.2333
  385MOL0     C51874   1.890   6.404   8.851 -0.1479  0.1533  0.1917
  385MOL0     C51875   1.892   6.540   8.839 -0.2752 -0.2650 -0.3804
  385MOL0     O51876   1.768   6.588   8.801 -0.4080  0.3810  0.2945
  385MOL0     C51877   1.740   6.728   8.782 -0.2978 -0.1030 -0.2622
  385MOL0     C51878   1.589   6.747   8.770 -0.0832 -0.2360  0.1953
  385MOL0     C51879   1.550   6.895   8.746 -0.2080 -0.2164  0.3281
  385MOL0     C51880   1.651   6.993   8.797  0.3252  0.2726  1.0474
  385MOL0     C51881   1.607   7.143   8.790 -0.1220 -0.1075  0.0504
  385MOL0     C51882   1.702   7.226   8.879  0.5637  0.3923 -0.1653
  385MOL0     C51883   1.837   7.231   8.824 -0.1506  0.0877 -0.2020
  385MOL0     C51884   1.906   7.363   8.860 -0.9702  0.6677  1.0385
  385MOL0    Cl51885   2.074   7.346   8.798 -0.2069  0.2517  0.5783
  385MOL0     C51886   1.999   6.621   8.879 -0.8202 -0.0132  0.1840
  385MOL0     C51887   2.113   6.556   8.928  0.0305 -0.8680 -0.2991
  385MOL0     O51888   2.301   6.315   8.779  0.3930 -0.1642  0.2801
  385MOL0     C51889   2.557   6.274   8.851 -0.4533 -0.1414 -0.3796
  385MOL0     C51890   2.689   6.249   8.885  0.3317 -1.0222 -0.3866
  385MOL0     N51891   3.433   6.195   8.831  1.1426  0.8179  0.9062
  385MOL0     N51892   3.544   6.231   8.776  0.2430 -0.7241  0.5365
  385MOL0     C51893   4.732   5.648   9.068 -0.3970 -0.3581 -1.4461
  385MOL0     C51894   4.805   5.548   9.132 -0.1182 -0.0673 -0.1484
  385MOL0     C51895   4.960   5.188   9.268  0.1527  0.0017  0.3080
  385MOL0     C51896   5.087   5.147   9.315  0.2007 -0.4364 -0.2419
  385MOL0     C51897   5.135   5.019   9.309  1.5720 -0.0908  0.0520
  385MOL0     C51898   5.046   4.921   9.279 -0.1332 -0.0152  0.1536
  385MOL0     O51899   5.092   4.793   9.289  0.2628 -0.0572 -0.3069
  385MOL0     C51900   5.005   4.683   9.248 -0.9262  0.0892 -0.5498
  385MOL0     C51901   5.086   4.551   9.271  0.0275  0.7475 -0.3923
  385MOL0     C51902   5.103   4.520   9.426  0.9588  0.2953 -0.0039
  385MOL0     C51903   5.194   4.393   9.453  1.4343 -0.3267  0.8830
  385MOL0     C51904   5.126   4.277   9.406  0.5259  1.6206 -0.7399
  385MOL0     C51905   5.077   4.169   9.368  0.5726 -0.4432 -0.5659
  385MOL0     C51906   4.910   4.953   9.245 -0.4445  0.5999 -0.1290
  385MOL0     C51907   4.869   5.086   9.230 -0.0418  0.1472 -0.2857
  385MOL0     H51908   4.565   5.477   9.357  1.4414 -0.1776  0.7860
  385MOL0     H51909   4.477   5.681   9.278 -0.5726 -2.9226  2.5677
  385MOL0     H51910   4.655   5.857   8.903  0.1153 -1.5926 -1.3169
  385MOL0     H51911   4.515   5.777   8.859  0.1588 -0.4590 -0.0476
  385MOL0     H51912   4.460   6.020   9.026  2.3640  2.0246 -0.8259
  385MOL0     H51913   4.526   6.053   8.873 -1.1318 -0.9119 -2.2299
  385MOL0     H51914   4.334   5.961   8.743 -5.9967 -0.4127 -0.2917
  385MOL0     H51915   4.276   5.880   8.876 -2.0810  0.1368  0.3223
  385MOL0     H51916   4.241   6.105   8.993 -0.2524  0.7162  0.2774
  385MOL0     H51917   4.293   6.186   8.838 -1.5257  0.1875 -0.6263
  385MOL0     H51918   4.101   6.065   8.732  0.6533  0.6172 -0.6971
  385MOL0     H51919   4.067   5.995   8.887 -0.8100  2.1301  1.9874
  385MOL0     H51920   4.033   6.215   8.987  2.5685 -0.4929  0.2166
  385MOL0     H51921   4.041   6.302   8.834  0.4338  1.3236  2.4380
  385MOL0     H51922   3.874   6.111   8.756  0.0216 -1.7357  0.6952
  385MOL0     H51923   3.843   6.092   8.926 -1.0992  1.2833  0.3118
  385MOL0     H51924   3.772   6.330   8.747 -1.7584  1.8375 -0.0639
  385MOL0     H51925   3.790   6.356   8.928 -0.0956 -2.0735  0.6882
  385MOL0     H51926   3.630   6.242   9.090  1.4732 -2.8823  0.0761
  385MOL0     H51927   3.347   6.121   9.135 -2.3921  0.5261 -0.1110
  385MOL0     H51928   3.358   6.297   9.147  0.2667 -0.0338  1.3424
  385MOL0     H51929   3.202   6.155   8.918 -0.3775 -1.2102  1.7993
  385MOL0     H51930   3.205   6.329   8.956  2.2218  0.3370 -0.4952
  385MOL0     H51931   3.071   6.283   9.168  3.4341 -0.8510  1.1528
  385MOL0     H51932   3.097   6.114   9.126 -0.2237 -0.7326 -2.7226
  385MOL0     H51933   2.970   6.147   8.911  1.9320 -0.6812  1.1383
  385MOL0     H51934   2.958   6.317   8.957 -0.7781  1.0294  1.7150
  385MOL0     H51935   2.643   6.172   9.205  0.4759  0.6468  0.0191
  385MOL0     H51936   2.411   6.151   9.266  1.7221 -1.6348 -1.4032
  385MOL0     H51937   2.347   6.305   9.222  3.2738  0.9047  0.5080
  385MOL0     H51938   2.292   6.147   9.138 -2.3219  1.6340  1.5822
  385MOL0     H51939   1.998   6.231   8.900  3.2953 -0.9366 -2.5767
  385MOL0     H51940   1.804   6.356   8.807 -1.2451  3.2098 -1.2919
  385MOL0     H51941   1.783   6.794   8.858  0.4989 -2.4314  1.4063
  385MOL0     H51942   1.786   6.759   8.687  1.5756 -1.4946  0.1410
  385MOL0     H51943   1.543   6.687   8.692  0.7241  0.5736 -0.9367
  385MOL0     H51944   1.535   6.719   8.862 -2.4374 -0.5267 -1.1909
  385MOL0     H51945   1.452   6.909   8.793 -0.8274 -0.5898 -0.8195
  385MOL0     H51946   1.537   6.899   8.637 -2.3983  1.2322  0.5725
  385MOL0     H51947   1.664   6.971   8.904  1.7048  0.5861  0.9679
  385MOL0     H51948   1.744   6.978   8.741 -0.6035  0.1778 -0.5295
  385MOL0     H51949   1.503   7.158   8.822 -0.0193 -0.4309  0.5552
  385MOL0     H51950   1.619   7.171   8.685  2.2046 -0.4384  0.1903
  385MOL0     H51951   1.662   7.328   8.876 -0.8186 -0.1557 -1.2976
  385MOL0     H51952   1.718   7.193   8.982 -2.0654  1.5824  0.7167
  385MOL0     H51953   1.834   7.232   8.715 -0.8633  2.5721 -0.2177
  385MOL0     H51954   1.888   7.149   8.877  0.8071  2.1637  2.2801
  385MOL0     H51955   1.906   7.376   8.969 -0.8594  0.2067  1.0955
  385MOL0     H51956   1.864   7.448   8.806 -0.7030  0.1144 -0.0630
  385MOL0     H51957   1.991   6.729   8.873 -2.5620 -0.0538  1.0297
  385MOL0     H51958   2.191   6.625   8.957 -1.3879  1.7137 -2.1654
  385MOL0     H51959   2.536   6.303   8.748 -0.1193  0.7801 -0.2002
  385MOL0     H51960   2.767   6.273   8.813  0.6101 -1.7863 -0.3456
  385MOL0     H51961   4.772   5.685   8.974  0.0010  4.4486  0.3207
  385MOL0     H51962   4.903   5.525   9.091 -0.3813 -0.6736 -0.4410
  385MOL0     H51963   5.157   5.224   9.348 -1.0813  0.9237 -0.5830
  385MOL0     H51964   5.234   4.992   9.344  1.1702  0.1353  1.4198
  385MOL0     H51965   4.909   4.686   9.300 -0.5004 -2.6518  0.5715
  385MOL0     H51966   4.983   4.700   9.142 -1.2465 -2.8328 -1.0439
  385MOL0     H51967   5.182   4.553   9.220  0.7185 -0.0617  0.8526
  385MOL0     H51968   5.032   4.472   9.218  0.8549  0.5907 -1.0283
  385MOL0     H51969   5.007   4.501   9.475  0.6639 -1.4879 -1.1807
  385MOL0     H51970   5.143   4.609   9.476  1.7696  0.2883 -0.6232
  385MOL0     H51971   5.214   4.381   9.559 -0.1529 -0.4750  1.1895
  385MOL0     H51972   5.292   4.396   9.404 -0.2242 -1.3190 -2.8821
  385MOL0     H51973   5.034   4.076   9.337 -0.7152  0.1348 -0.5605
  385MOL0     H51974   4.830   4.882   9.225  0.3706 -0.5208  0.4960
  385MOL0     H51975   4.769   5.102   9.190 -0.6370 -1.0369  0.6547
  386MOL0     O51976  10.083   5.056   0.561 -0.7138  0.2351 -0.2998
  386MOL0     C51977  10.197   5.027   0.583  0.0605  0.8538 -0.5871
  386MOL0     O51978  10.290   5.116   0.625 -0.0773 -0.3495 -0.1077
  386MOL0     C51979  10.272   5.252   0.633 -0.3266  0.5624  0.0139
  386MOL0     C51980  10.183   5.344   0.570 -0.1282  0.5980 -0.2970
  386MOL0     C51981  10.192   5.480   0.580  0.2578 -0.0182  0.0816
  386MOL0     C51982  10.295   5.541   0.638 -0.0058  0.0237  0.7831
  386MOL0     O51983  10.341   5.670   0.616  0.1025 -0.2577 -0.0272
  386MOL0     C51984  10.251   5.776   0.638  0.2581 -0.4703 -0.5395
  386MOL0     C51985  10.266   5.884   0.529 -0.1968 -0.1676  0.1776
  386MOL0     C51986  10.149   5.987   0.537  0.2368  0.2162  1.1558
  386MOL0     C51987  10.127   6.061   0.405 -0.1746 -0.1780  0.0144
  386MOL0     C51988   9.990   6.136   0.397  0.4366 -0.0626 -0.6161
  386MOL0     C51989   9.936   6.167   0.257  0.0473 -0.0309 -0.7446
  386MOL0     C51990   9.796   6.229   0.244 -0.3985  0.6598  0.1096
  386MOL0     C51991   9.777   6.333   0.352  0.6660 -0.0013  0.0459
  386MOL0     N51992   9.652   6.414   0.323  0.1758 -0.0984 -0.0828
  386MOL0     C51993   9.528   6.421   0.384  0.7673  0.3440 -0.5744
  386MOL0     C51994   9.462   6.522   0.326 -0.6336  0.5178 -0.4076
  386MOL0     C51995   9.323   6.567   0.368 -0.9372  0.1970 -0.2966
  386MOL0     C51996   9.258   6.650   0.265 -0.6213 -0.0116  0.5203
  386MOL0     C51997   9.124   6.711   0.306 -0.2318 -0.0884  0.4715
  386MOL0     C51998   9.097   6.835   0.214  0.0830  0.9503  0.0887
  386MOL0     O51999   8.977   6.904   0.239 -0.4521 -0.0775 -0.2022
  386MOL0     C52000   8.864   6.829   0.205 -0.1267 -0.7605  0.2173
  386MOL0     C52001   8.743   6.887   0.254  0.0673  0.6729 -0.1431
  386MOL0     C52002   8.618   6.827   0.215  0.6147 -0.0246  0.1510
  386MOL0     C52003   8.497   6.898   0.278 -1.1885  0.7623 -0.1324
  386MOL0     C52004   8.610   6.720   0.125 -0.7584  0.3024  0.5393
  386MOL0     C52005   8.481   6.647   0.083  0.6294 -0.5078 -0.8878
  386MOL0     O52006   8.517   6.551  -0.008  1.1085  0.3373  0.4784
  386MOL0     C52007   8.415   6.473  -0.068 -0.4863  1.0445 -0.1201
  386MOL0     C52008   8.306   6.402   0.006 -0.6675  0.4787 -0.0444
  386MOL0     C52009   8.200   6.342  -0.078 -0.2294 -0.0174 -0.3066
  386MOL0     C52010   8.216   6.326  -0.214 -0.5708 -0.6045 -0.2710
  386MOL0     O52011   8.118   6.255  -0.280 -0.4346 -0.0047  0.3056
  386MOL0     C52012   8.130   6.230  -0.424  0.0652  0.0143 -0.7693
  386MOL0     C52013   8.075   6.346  -0.509 -0.2075 -0.1400 -0.2481
  386MOL0     C52014   7.929   6.385  -0.498 -0.3906 -0.8214  0.1258
  386MOL0     C52015   7.832   6.267  -0.534  0.4090 -0.1379  0.3868
  386MOL0     C52016   7.682   6.297  -0.571  0.0645 -0.2906 -0.4669
  386MOL0     C52017   7.613   6.389  -0.468 -1.0369  0.5868 -0.2539
  386MOL0     C52018   7.457   6.417  -0.508 -0.6777 -0.7075  0.1774
  386MOL0     C52019   7.395   6.499  -0.393  0.0552  0.0977  0.3206
  386MOL0    Cl52020   7.478   6.649  -0.372  0.3597  0.3368 -0.0940
  386MOL0     C52021   8.320   6.393  -0.281  0.9267 -0.2466 -0.3639
  386MOL0     C52022   8.423   6.459  -0.208 -0.0252 -1.0500  0.0268
  386MOL0     O52023   8.367   6.694   0.103  0.4321  0.0464 -0.5445
  386MOL0     C52024   8.729   6.656   0.090  0.4575 -0.2596 -0.1189
  386MOL0     C52025   8.850   6.707   0.125 -0.5560  0.5765  0.4190
  386MOL0     N52026   9.548   6.582   0.231 -0.6887  0.2714 -0.3606
  386MOL0     N52027   9.662   6.515   0.236 -0.1667  0.1642  0.0922
  386MOL0     C52028  10.380   5.454   0.710 -0.6141 -0.7415 -0.5562
  386MOL0     C52029  10.371   5.318   0.707 -0.2498  0.2075 -0.2532
  386MOL0     C52030  10.244   4.885   0.567  0.1615 -0.5433 -0.4550
  386MOL0     C52031  10.374   4.849   0.599 -0.4768  0.5539  0.6330
  386MOL0     C52032  10.420   4.713   0.572  0.1141 -0.9627 -0.0343
  386MOL0     C52033  10.338   4.615   0.525  0.1200  0.8214 -0.1260
  386MOL0     O52034  10.358   4.479   0.517 -0.4076 -0.3094  0.0016
  386MOL0     C52035  10.497   4.430   0.516  0.3701 -0.2791 -0.6433
  386MOL0     C52036  10.495   4.278   0.533 -0.1959  0.3007  0.0154
  386MOL0     C52037  10.441   4.232   0.397  0.1868 -0.1596 -0.2703
  386MOL0     C52038  10.472   4.086   0.376  0.4520  0.4915 -0.6521
  386MOL0     C52039  10.611   4.059   0.342  0.1478 -0.3089  0.8428
  386MOL0     C52040  10.730   4.063   0.327 -0.5261 -0.0065 -0.0336
  386MOL0     C52041  10.208   4.662   0.487 -0.0700 -0.9111 -0.5882
  386MOL0     C52042  10.163   4.792   0.514  0.3572  0.7539  0.4425
  386MOL0     H52043  10.097   5.308   0.513 -0.8286 -0.6165  1.4505
  386MOL0     H52044  10.122   5.536   0.518  0.8944  0.6584 -0.0350
  386MOL0     H52045  10.148   5.742   0.647 -0.7616  2.8728  5.3334
  386MOL0     H52046  10.257   5.801   0.744 -1.2548 -2.5657  0.1030
  386MOL0     H52047  10.359   5.941   0.526 -2.0322  3.0616 -0.4964
  386MOL0     H52048  10.263   5.828   0.435 -0.6952  0.9632 -0.4967
  386MOL0     H52049  10.061   5.927   0.562 -0.0821  0.0141 -0.3400
  386MOL0     H52050  10.149   6.054   0.624 -0.2492  1.3256  0.3259
  386MOL0     H52051  10.208   6.131   0.384  1.8128 -2.7054 -1.2530
  386MOL0     H52052  10.138   5.996   0.318 -0.6994  2.1581 -1.9033
  386MOL0     H52053   9.919   6.070   0.446 -0.5166 -0.4063 -2.3843
  386MOL0     H52054   9.996   6.228   0.457  1.8125 -0.0784 -0.6980
  386MOL0     H52055  10.016   6.223   0.207 -0.4788 -0.9092 -2.6686
  386MOL0     H52056   9.936   6.067   0.212 -1.4480  0.1761 -1.2499
  386MOL0     H52057   9.767   6.267   0.146 -1.4106 -1.3383 -0.4074
  386MOL0     H52058   9.722   6.151   0.260  1.8762 -1.4817  0.6755
  386MOL0     H52059   9.867   6.392   0.370  0.8283 -0.6987  1.6400
  386MOL0     H52060   9.756   6.279   0.445 -1.9886 -1.9592 -1.5368
  386MOL0     H52061   9.491   6.361   0.467 -0.0087  0.0515 -1.1115
  386MOL0     H52062   9.264   6.482   0.403  1.4725 -1.9789 -1.2032
  386MOL0     H52063   9.339   6.625   0.459 -0.5733 -1.1062  0.4925
  386MOL0     H52064   9.242   6.589   0.175 -0.3845 -2.9087  2.2933
  386MOL0     H52065   9.327   6.733   0.251 -1.8946  0.7723 -1.7200
  386MOL0     H52066   9.134   6.750   0.408  2.5734  1.6357 -0.3571
  386MOL0     H52067   9.049   6.632   0.294  1.2284 -1.3080 -1.2240
  386MOL0     H52068   9.101   6.806   0.108  1.4551  0.9022  0.1331
  386MOL0     H52069   9.177   6.905   0.242 -0.5985  1.9767 -0.4464
  386MOL0     H52070   8.748   6.972   0.322 -1.0242  2.3609 -2.0563
  386MOL0     H52071   8.470   6.852   0.373  3.2717 -0.5954  0.7169
  386MOL0     H52072   8.515   7.002   0.305 -1.5640  0.2092  2.5240
  386MOL0     H52073   8.413   6.904   0.208 -1.5776  1.1478  0.3683
  386MOL0     H52074   8.285   6.410   0.112 -0.8351  1.9862 -0.1714
  386MOL0     H52075   8.119   6.292  -0.027 -0.0630  0.9451  0.9580
  386MOL0     H52076   8.231   6.207  -0.459  0.3756 -1.4103  0.9315
  386MOL0     H52077   8.069   6.147  -0.460  1.3788 -0.1352 -2.7578
  386MOL0     H52078   8.139   6.434  -0.495 -0.4941  0.0035  0.1461
  386MOL0     H52079   8.100   6.318  -0.612  0.7489  0.1637 -0.1125
  386MOL0     H52080   7.905   6.464  -0.569 -1.1092  0.1684  1.4208
  386MOL0     H52081   7.915   6.426  -0.397  1.6733 -0.8727  0.4801
  386MOL0     H52082   7.879   6.219  -0.620 -2.6723  0.2469 -1.6967
  386MOL0     H52083   7.829   6.190  -0.456 -0.6987 -1.3033 -0.7607
  386MOL0     H52084   7.619   6.211  -0.595  0.7986 -1.5794  1.9073
  386MOL0     H52085   7.689   6.365  -0.657 -0.5675  2.1425  1.2875
  386MOL0     H52086   7.611   6.324  -0.380 -2.6567 -1.0846 -1.4506
  386MOL0     H52087   7.666   6.480  -0.440  1.1286 -0.6184 -0.2708
  386MOL0     H52088   7.418   6.321  -0.544  2.4300 -0.7020 -3.8131
  386MOL0     H52089   7.444   6.486  -0.592  0.0329  0.1768  0.7747
  386MOL0     H52090   7.393   6.440  -0.301 -1.2351 -1.4483 -0.6450
  386MOL0     H52091   7.289   6.514  -0.413 -0.5917 -2.0162  1.7713
  386MOL0     H52092   8.335   6.389  -0.389  1.2764  0.8042 -0.3610
  386MOL0     H52093   8.509   6.501  -0.260 -1.2283  2.0400  0.3233
  386MOL0     H52094   8.733   6.566   0.030  0.9028  1.3278 -2.6043
  386MOL0     H52095   8.943   6.668   0.085 -1.8295 -3.5189  0.9732
  386MOL0     H52096  10.464   5.493   0.765  0.6241 -1.3818 -1.9375
  386MOL0     H52097  10.450   5.262   0.757 -1.7422 -1.9725 -0.2009
  386MOL0     H52098  10.444   4.920   0.640  0.8850 -0.3954  0.0040
  386MOL0     H52099  10.519   4.692   0.612 -1.0754 -1.5451  2.8281
  386MOL0     H52100  10.547   4.469   0.427 -1.4269  2.6352 -0.5189
  386MOL0     H52101  10.546   4.482   0.599  0.6802 -2.5531  0.6790
  386MOL0     H52102  10.434   4.238   0.615  0.4241 -1.8974 -0.5351
  386MOL0     H52103  10.591   4.227   0.536 -1.1775 -2.2755 -4.0819
  386MOL0     H52104  10.494   4.290   0.321  1.0863 -0.6532 -0.0326
  386MOL0     H52105  10.333   4.250   0.392  0.5048  1.6733 -1.5759
  386MOL0     H52106  10.403   4.030   0.312 -1.3766 -0.3044  1.8628
  386MOL0     H52107  10.461   4.031   0.470 -0.5022  0.5745 -0.7022
  386MOL0     H52108  10.835   4.080   0.323 -0.6828  0.8451 -1.0185
  386MOL0     H52109  10.148   4.584   0.441 -0.3689 -0.0004 -1.7939
  386MOL0     H52110  10.061   4.811   0.479  0.5158  2.1706  0.6778
  387MOL0     O52111  10.255   2.582   9.584  0.6388  0.3483  0.3544
  387MOL0     C52112  10.201   2.683   9.543  0.2574  0.9553 -0.2728
  387MOL0     O52113  10.071   2.699   9.513  0.5452  0.3793  0.8548
  387MOL0     C52114   9.974   2.605   9.538 -0.0125  0.4129 -0.9745
  387MOL0     C52115   9.856   2.649   9.606  0.2341 -0.3348 -0.5098
  387MOL0     C52116   9.746   2.566   9.626 -1.5242 -0.3279  0.0859
  387MOL0     C52117   9.750   2.436   9.573  0.7876  0.2643  0.1336
  387MOL0     O52118   9.637   2.362   9.596  0.3159  0.4766  0.4017
  387MOL0     C52119   9.613   2.233   9.527 -0.4082 -0.7004  1.3563
  387MOL0     C52120   9.474   2.184   9.564  0.6790  0.4551 -0.3350
  387MOL0     C52121   9.410   2.099   9.445  0.1521  0.5362 -0.3982
  387MOL0     C52122   9.260   2.060   9.472 -0.4147 -0.0483  0.0933
  387MOL0     C52123   9.213   1.935   9.394 -0.2073 -0.0732  0.3103
  387MOL0     C52124   9.236   1.952   9.244 -0.5623 -1.2567  0.1602
  387MOL0     C52125   9.151   2.074   9.197 -0.6798  0.1143  0.2661
  387MOL0     C52126   9.150   2.092   9.047  0.7783 -0.4155  0.2537
  387MOL0     N52127   9.046   2.191   9.013 -0.8549 -0.0101 -0.0735
  387MOL0     C52128   9.078   2.306   8.954  0.3274 -0.3090  0.0314
  387MOL0     C52129   8.957   2.364   8.926  0.1978 -0.0750  0.4854
  387MOL0     C52130   8.923   2.498   8.863  0.1495  0.5617 -0.4533
  387MOL0     C52131   8.958   2.506   8.711 -0.4988  0.2039 -0.2556
  387MOL0     C52132   8.899   2.400   8.611 -0.1807 -0.0142  0.3428
  387MOL0     C52133   8.743   2.412   8.620  0.3912  0.4612 -0.0064
  387MOL0     O52134   8.686   2.391   8.489  0.2018 -0.0788 -0.5950
  387MOL0     C52135   8.549   2.362   8.489  0.8348 -0.1820 -0.9370
  387MOL0     C52136   8.486   2.347   8.367  0.1250  0.4438  0.0293
  387MOL0     C52137   8.353   2.300   8.361  0.4357 -0.2756 -0.1287
  387MOL0     C52138   8.306   2.275   8.215 -1.0764  0.2933  0.3151
  387MOL0     C52139   8.274   2.294   8.474  1.3830  0.1015  0.6022
  387MOL0     C52140   8.126   2.273   8.470 -0.4208  0.1184  0.0224
  387MOL0     O52141   8.064   2.234   8.581  0.1751  0.5402  0.0630
  387MOL0     C52142   7.934   2.200   8.592  0.6213  0.6418 -1.0698
  387MOL0     C52143   7.872   2.208   8.721 -0.0653 -0.0469 -0.0414
  387MOL0     C52144   7.745   2.171   8.749  0.0628  0.6436  0.2914
  387MOL0     C52145   7.675   2.110   8.654 -0.7777 -0.4320  0.0043
  387MOL0     O52146   7.569   2.038   8.683  0.3664  0.5822 -1.1656
  387MOL0     C52147   7.455   2.064   8.601 -0.1861  1.1112  0.6115
  387MOL0     C52148   7.321   2.030   8.662 -0.5623  0.0308  0.3609
  387MOL0     C52149   7.279   2.126   8.773  0.0551 -0.2464 -0.7073
  387MOL0     C52150   7.143   2.077   8.837 -0.5234  0.5366 -1.2135
  387MOL0     C52151   7.033   2.130   8.752 -0.5379  0.3014 -0.6749
  387MOL0     C52152   6.894   2.098   8.810 -0.1039  0.0915 -0.1663
  387MOL0     C52153   6.876   2.143   8.958  0.2724 -0.2808 -0.1562
  387MOL0     C52154   6.729   2.129   9.013  0.0938  0.4768 -0.5357
  387MOL0    Cl52155   6.725   2.169   9.194 -0.2466  0.1683  0.0531
  387MOL0     C52156   7.728   2.099   8.529 -0.4612  0.5799  0.1137
  387MOL0     C52157   7.852   2.147   8.493 -0.6593 -0.1001 -0.1586
  387MOL0     O52158   8.070   2.300   8.364  0.4659  0.7637  0.0351
  387MOL0     C52159   8.339   2.318   8.593  0.0665 -0.4302  0.0042
  387MOL0     C52160   8.472   2.353   8.605 -0.0168 -0.8097 -0.0159
  387MOL0     N52161   8.855   2.281   8.964  0.0974  0.1289  0.3163
  387MOL0     N52162   8.909   2.174   9.024 -0.1674  0.4511 -0.0179
  387MOL0     C52163   9.859   2.391   9.497 -0.3083  0.1301 -0.6725
  387MOL0     C52164   9.973   2.469   9.492  0.4560 -1.5810  0.5541
  387MOL0     C52165  10.284   2.785   9.477 -0.1978 -0.2898 -0.4092
  387MOL0     C52166  10.235   2.865   9.377 -0.0635  0.2717 -0.4183
  387MOL0     C52167  10.296   2.984   9.326  1.4622  0.1497 -0.3543
  387MOL0     C52168  10.420   3.002   9.371 -0.5790 -0.2181 -0.4645
  387MOL0     O52169  10.483   3.108   9.317 -0.3469 -0.3517  0.3675
  387MOL0     C52170  10.620   3.147   9.357  0.0983  0.3236 -0.5110
  387MOL0     C52171  10.658   3.289   9.311  0.1947  0.3710 -0.0377
  387MOL0     C52172  10.575   3.400   9.386 -0.5023 -0.1420 -0.8479
  387MOL0     C52173  10.660   3.464   9.497 -0.7673  0.4636  0.2251
  387MOL0     C52174  10.589   3.562   9.574 -0.8110  0.3374 -0.4766
  387MOL0     C52175  10.528   3.641   9.640 -0.5779  0.7946 -0.1074
  387MOL0     C52176  10.491   2.917   9.469  0.1911 -0.3689 -0.0803
  387MOL0     C52177  10.412   2.806   9.522  0.7836  0.3506  0.7296
  387MOL0     H52178   9.847   2.755   9.631  1.9319 -0.1050 -0.7654
  387MOL0     H52179   9.662   2.592   9.689  0.4040  0.5708  2.4505
  387MOL0     H52180   9.620   2.261   9.421 -2.4480 -1.8605  0.8522
  387MOL0     H52181   9.689   2.162   9.558  1.2325  0.6091  0.4763
  387MOL0     H52182   9.471   2.130   9.658 -0.5238 -0.3028 -0.7825
  387MOL0     H52183   9.401   2.265   9.580 -1.2291 -1.5638  1.8792
  387MOL0     H52184   9.425   2.148   9.348 -0.9597  2.2923  0.2885
  387MOL0     H52185   9.472   2.009   9.432 -1.7344 -0.9089  0.2518
  387MOL0     H52186   9.271   2.041   9.579  1.4593 -0.1150 -0.0785
  387MOL0     H52187   9.200   2.150   9.463  2.3422  2.2231  2.5191
  387MOL0     H52188   9.255   1.850   9.448  0.3551  1.0506  1.7256
  387MOL0     H52189   9.108   1.919   9.421  0.0842 -0.7354  1.1006
  387MOL0     H52190   9.343   1.959   9.225 -0.6245 -2.9729 -1.0714
  387MOL0     H52191   9.199   1.867   9.186  0.0791 -1.9085  0.6962
  387MOL0     H52192   9.052   2.072   9.243  0.0955 -0.6122  1.9948
  387MOL0     H52193   9.200   2.164   9.237  0.1956 -0.6228  0.8788
  387MOL0     H52194   9.125   2.000   8.993  2.7807  0.7655 -2.9880
  387MOL0     H52195   9.252   2.120   9.019  1.1637  0.4874  2.3874
  387MOL0     H52196   9.175   2.353   8.949  0.4276 -0.2623  1.8803
  387MOL0     H52197   8.818   2.528   8.859 -0.8312 -2.5906 -2.0349
  387MOL0     H52198   8.973   2.576   8.921  0.2032 -0.1238  0.4420
  387MOL0     H52199   9.068   2.506   8.707 -0.3289  0.2137  2.4784
  387MOL0     H52200   8.919   2.603   8.679 -3.1625 -0.4056  0.9102
  387MOL0     H52201   8.938   2.300   8.632  0.4019  0.0526 -0.4014
  387MOL0     H52202   8.949   2.431   8.519  2.3274  0.0534  1.6379
  387MOL0     H52203   8.710   2.508   8.661 -1.2573  0.8146 -1.9848
  387MOL0     H52204   8.713   2.332   8.688  1.8139  0.2441  0.3927
  387MOL0     H52205   8.539   2.348   8.273  1.9424 -2.2629  0.9235
  387MOL0     H52206   8.246   2.184   8.206 -0.7821  0.2379 -1.4730
  387MOL0     H52207   8.247   2.356   8.170  0.5439  0.0463 -2.4492
  387MOL0     H52208   8.393   2.266   8.150 -0.5755 -0.1171  1.0307
  387MOL0     H52209   7.942   2.238   8.798 -0.8704  3.2405 -0.4408
  387MOL0     H52210   7.702   2.163   8.849  1.1715 -1.3224  0.6605
  387MOL0     H52211   7.445   2.170   8.575 -2.6166  0.8775  0.3284
  387MOL0     H52212   7.469   2.006   8.509 -1.3262 -1.6351  2.0287
  387MOL0     H52213   7.247   2.020   8.581  0.6263 -0.1416 -0.7395
  387MOL0     H52214   7.330   1.929   8.703 -1.0598 -0.0339  0.3202
  387MOL0     H52215   7.275   2.224   8.725  0.8922 -0.7116 -1.7698
  387MOL0     H52216   7.351   2.129   8.854 -0.8115  0.7681  0.0543
  387MOL0     H52217   7.140   1.968   8.838  0.3690  0.5021 -0.1496
  387MOL0     H52218   7.131   2.123   8.936  2.0894  1.2927 -1.1795
  387MOL0     H52219   7.042   2.075   8.658  0.5717 -1.8791  0.6088
  387MOL0     H52220   7.044   2.236   8.727 -1.7388  0.7717  0.5958
  387MOL0     H52221   6.820   2.143   8.742  0.2216 -1.4986 -1.6479
  387MOL0     H52222   6.896   1.989   8.796  3.3062  0.2204 -1.4612
  387MOL0     H52223   6.918   2.243   8.971  0.3154 -0.0177 -2.0755
  387MOL0     H52224   6.938   2.082   9.025 -0.0772  0.0682  0.4894
  387MOL0     H52225   6.685   2.031   8.990  1.3909 -0.1500 -0.4313
  387MOL0     H52226   6.678   2.206   8.954  0.4260 -1.1194 -3.0302
  387MOL0     H52227   7.674   2.047   8.450 -1.7914  0.1693  1.2527
  387MOL0     H52228   7.893   2.135   8.393  3.9249  3.4107  0.9390
  387MOL0     H52229   8.278   2.307   8.682 -1.2001 -0.5003 -0.8305
  387MOL0     H52230   8.490   2.364   8.712  0.2781 -2.3829  0.1196
  387MOL0     H52231   9.859   2.290   9.458  1.3056  0.0902 -0.6621
  387MOL0     H52232  10.069   2.437   9.452  1.3883  0.3355  1.0871
  387MOL0     H52233  10.134   2.855   9.339 -0.3740  1.1933  0.1448
  387MOL0     H52234  10.248   3.038   9.246  3.1671 -0.1233 -1.5995
  387MOL0     H52235  10.637   3.152   9.465  3.7463 -1.5011 -0.8463
  387MOL0     H52236  10.691   3.067   9.336  1.2506  0.1472  3.2577
  387MOL0     H52237  10.631   3.299   9.205  0.7774 -4.2712 -0.8597
  387MOL0     H52238  10.766   3.305   9.317 -0.0883  2.1989  0.9910
  387MOL0     H52239  10.480   3.356   9.419  0.5800 -2.0399 -0.1188
  387MOL0     H52240  10.541   3.470   9.309 -3.4590 -1.1706 -0.6062
  387MOL0     H52241  10.749   3.505   9.449 -0.0470 -0.7320  0.5212
  387MOL0     H52242  10.701   3.388   9.564  2.7195  1.7618 -0.2601
  387MOL0     H52243  10.476   3.720   9.689 -0.8128  0.3637  0.3426
  387MOL0     H52244  10.596   2.918   9.495  0.1252  1.2968  0.2434
  387MOL0     H52245  10.469   2.742   9.588  2.9598  2.8240  1.4536
  388MOL0     O52246   1.872   4.102   7.916  0.3165  0.3483 -0.1926
  388MOL0     C52247   1.939   4.191   7.856  0.1871 -0.0083  0.4343
  388MOL0     O52248   1.892   4.311   7.811 -0.2025  0.9425 -0.0525
  388MOL0     C52249   1.765   4.344   7.846 -0.9873 -0.4108  0.7530
  388MOL0     C52250   1.671   4.404   7.756 -0.5487  0.7508 -0.3864
  388MOL0     C52251   1.545   4.451   7.801  0.7056  0.8070 -0.4198
  388MOL0     C52252   1.506   4.449   7.935  0.9688  0.4173  0.0177
  388MOL0     O52253   1.380   4.503   7.979 -1.0923  0.6201  0.2549
  388MOL0     C52254   1.389   4.619   8.061  0.5638  0.0145 -0.0264
  388MOL0     C52255   1.251   4.629   8.133 -0.1160 -0.3813 -0.0495
  388MOL0     C52256   1.265   4.752   8.222  0.6083  0.1646  0.1083
  388MOL0     C52257   1.309   4.708   8.356 -0.5291 -0.6695  0.7902
  388MOL0     C52258   1.364   4.833   8.437 -0.2113 -0.1103 -0.2152
  388MOL0     C52259   1.385   4.802   8.582 -0.7981  0.3345  0.3899
  388MOL0     C52260   1.426   4.932   8.653 -0.6639 -0.2212  0.0782
  388MOL0     C52261   1.464   4.895   8.797 -0.2464 -0.1303  0.3600
  388MOL0     N52262   1.350   4.825   8.868  0.1767  0.2774 -0.3393
  388MOL0     C52263   1.246   4.892   8.932 -0.7580  0.6433  0.8819
  388MOL0     C52264   1.183   4.799   8.995  0.2604 -0.3845  0.3253
  388MOL0     C52265   1.075   4.828   9.098 -0.2433 -0.4002 -0.0971
  388MOL0     C52266   0.950   4.829   9.019  0.2821  0.0454 -0.1304
  388MOL0     C52267   0.845   4.909   9.114 -0.1906  0.7920 -0.1309
  388MOL0     C52268   0.727   4.951   9.024 -0.2661  0.0300 -0.1821
  388MOL0     O52269   0.617   5.000   9.108 -0.7018 -0.7605 -0.0800
  388MOL0     C52270   0.626   5.127   9.149  0.4064  0.4806 -0.7556
  388MOL0     C52271   0.619   5.229   9.060  0.3941 -0.5758  0.2282
  388MOL0     C52272   0.613   5.366   9.101 -0.5480  0.3067 -0.4185
  388MOL0     C52273   0.618   5.472   8.995  0.0798 -0.3610 -0.6273
  388MOL0     C52274   0.606   5.390   9.242  0.2170  0.6635 -0.0586
  388MOL0     C52275   0.586   5.526   9.299 -0.0777  0.5840 -0.5181
  388MOL0     O52276   0.598   5.529   9.440  0.6590 -1.0600 -0.9121
  388MOL0     C52277   0.567   5.652   9.501  0.3257 -0.2391 -0.4454
  388MOL0     C52278   0.671   5.745   9.518  0.7700  0.1320 -0.1039
  388MOL0     C52279   0.653   5.857   9.592  0.5189 -0.6374  0.3813
  388MOL0     C52280   0.526   5.882   9.646  0.6971 -0.6218 -0.1676
  388MOL0     O52281   0.509   5.991   9.728 -0.9715  0.3790 -0.3689
  388MOL0     C52282   0.446   6.098   9.680  0.6065 -0.3874 -0.8083
  388MOL0     C52283   0.432   6.196   9.804  0.4730 -0.7273 -0.7968
  388MOL0     C52284   0.309   6.151   9.896 -0.6214 -0.6746 -0.7582
  388MOL0     C52285   0.264   6.270   9.978  0.2447 -0.2383 -0.2346
  388MOL0     C52286   0.152   6.222  10.068 -0.5558 -0.2173 -0.4576
  388MOL0     C52287   0.087   6.338  10.151 -0.2218 -0.6062 -0.4095
  388MOL0     C52288   0.187   6.411  10.236  0.8670 -0.4682  0.9032
  388MOL0     C52289   0.129   6.487  10.361 -0.3223  0.2543  0.3190
  388MOL0    Cl52290   0.260   6.608  10.412  0.1728 -0.0704  0.2488
  388MOL0     C52291   0.416   5.799   9.628  0.9430 -0.0187 -0.5491
  388MOL0     C52292   0.441   5.680   9.554 -0.0406 -0.0243 -1.2658
  388MOL0     O52293   0.558   5.620   9.226  0.2931  0.4252 -0.3114
  388MOL0     C52294   0.607   5.274   9.331  0.8187 -0.6019  0.3267
  388MOL0     C52295   0.612   5.147   9.283 -0.0252 -0.5420 -0.0510
  388MOL0     N52296   1.237   4.678   8.963  0.7826  0.2175 -0.7660
  388MOL0     N52297   1.344   4.696   8.899 -0.1131  0.4956  0.1751
  388MOL0     C52298   1.591   4.387   8.026 -0.3737  0.0200 -0.6622
  388MOL0     C52299   1.715   4.334   7.980  0.1338  0.1445  0.2535
  388MOL0     C52300   2.076   4.158   7.818  0.5355 -0.4528  0.8221
  388MOL0     C52301   2.143   4.053   7.885 -0.1584 -0.2770  0.5078
  388MOL0     C52302   2.280   4.017   7.856 -0.0147 -0.3077 -0.1237
  388MOL0     C52303   2.359   4.103   7.767  0.3554 -0.1854  0.2685
  388MOL0     O52304   2.490   4.086   7.731  0.5805 -0.6247 -0.4158
  388MOL0     C52305   2.580   4.113   7.840 -0.2434  0.5150  0.0280
  388MOL0     C52306   2.660   4.239   7.812 -0.5005 -0.5891 -0.4568
  388MOL0     C52307   2.585   4.372   7.819  0.5186 -0.1221 -0.6765
  388MOL0     C52308   2.685   4.484   7.838  0.0632  0.0659 -0.4125
  388MOL0     C52309   2.797   4.491   7.740 -0.0079  0.3462  0.4862
  388MOL0     C52310   2.875   4.496   7.653 -0.5272 -1.0999 -0.2920
  388MOL0     C52311   2.286   4.205   7.699  0.6565  0.3831  0.1681
  388MOL0     C52312   2.149   4.226   7.717 -1.1757 -0.9170 -0.7067
  388MOL0     H52313   1.691   4.426   7.652  0.7789  0.1925 -0.2709
  388MOL0     H52314   1.473   4.506   7.742 -1.8396 -1.6515  0.1370
  388MOL0     H52315   1.471   4.616   8.133 -0.5888 -0.2465  1.3133
  388MOL0     H52316   1.403   4.702   7.991 -1.6178  0.2213 -0.2804
  388MOL0     H52317   1.175   4.652   8.058  1.8453  1.4530 -1.6335
  388MOL0     H52318   1.226   4.535   8.183 -0.5761  0.1891  0.8246
  388MOL0     H52319   1.327   4.824   8.169  1.5448  0.3825  1.4494
  388MOL0     H52320   1.168   4.797   8.247  0.7911  0.5665  0.0844
  388MOL0     H52321   1.215   4.668   8.396 -1.5271 -2.4334 -2.9232
  388MOL0     H52322   1.382   4.627   8.349  3.3876  2.4062  2.3369
  388MOL0     H52323   1.460   4.863   8.394 -0.7850  3.6909  0.7950
  388MOL0     H52324   1.299   4.919   8.421  1.6656  0.8490 -3.4513
  388MOL0     H52325   1.294   4.761   8.626 -0.4590 -1.9273 -0.8724
  388MOL0     H52326   1.466   4.730   8.596 -2.1585 -1.2500  0.2833
  388MOL0     H52327   1.516   4.977   8.608 -0.0341 -2.7973 -1.4736
  388MOL0     H52328   1.342   5.001   8.646 -1.2349 -0.9886 -1.0721
  388MOL0     H52329   1.484   4.992   8.843  1.2011 -0.1033 -0.2745
  388MOL0     H52330   1.558   4.841   8.807  0.0091  0.2667  0.1332
  388MOL0     H52331   1.219   4.997   8.925 -0.4675  0.6241 -1.0636
  388MOL0     H52332   1.074   4.753   9.177  0.6694 -0.1705  0.1556
  388MOL0     H52333   1.100   4.927   9.139  4.0496 -0.4984 -1.8484
  388MOL0     H52334   0.909   4.729   9.006 -0.5529  0.6758 -3.0535
  388MOL0     H52335   0.974   4.884   8.928  1.2705  2.2177  1.3542
  388MOL0     H52336   0.890   4.999   9.159 -0.7901  1.1181 -0.1782
  388MOL0     H52337   0.801   4.859   9.201  0.1701  1.2665  0.3360
  388MOL0     H52338   0.688   4.857   8.984  0.4009  0.1321 -1.0861
  388MOL0     H52339   0.761   5.018   8.945 -0.3514  0.2985  0.0085
  388MOL0     H52340   0.629   5.192   8.959  1.5129 -0.8748  0.4387
  388MOL0     H52341   0.512   5.494   8.977 -0.1601 -1.3902 -0.5398
  388MOL0     H52342   0.674   5.562   9.023 -1.8880  1.4528 -2.1397
  388MOL0     H52343   0.672   5.431   8.910  0.0280 -1.9126  0.0460
  388MOL0     H52344   0.772   5.727   9.484  0.7172  0.1200 -0.2551
  388MOL0     H52345   0.732   5.929   9.603  0.0306  0.1163 -0.8057
  388MOL0     H52346   0.496   6.138   9.592  2.2908 -3.3845 -1.3447
  388MOL0     H52347   0.346   6.067   9.648  0.4174  0.0097 -0.6064
  388MOL0     H52348   0.530   6.192   9.852  0.7893 -2.7204 -1.4657
  388MOL0     H52349   0.404   6.296   9.771 -0.8805 -0.1013  1.9907
  388MOL0     H52350   0.330   6.064   9.959 -2.3074  0.8873  2.1742
  388MOL0     H52351   0.228   6.118   9.829 -1.9467  2.5011 -0.9076
  388MOL0     H52352   0.343   6.311  10.042  0.0085 -1.7764  1.0925
  388MOL0     H52353   0.220   6.350   9.919 -3.7028 -0.9252  1.4853
  388MOL0     H52354   0.204   6.152  10.133 -0.8914  0.0329  0.0851
  388MOL0     H52355   0.076   6.166  10.014 -1.1996 -0.4703  0.6727
  388MOL0     H52356   0.029   6.409  10.092 -1.1673  1.0970  2.4175
  388MOL0     H52357   0.009   6.298  10.217  1.1360 -0.0829  1.6211
  388MOL0     H52358   0.229   6.481  10.164  1.1391  0.1802  1.6840
  388MOL0     H52359   0.268   6.348  10.274 -0.3513 -0.8534  3.0636
  388MOL0     H52360   0.109   6.419  10.444 -0.5963 -0.6051 -0.4415
  388MOL0     H52361   0.032   6.529  10.333  0.5984  2.3842  0.1416
  388MOL0     H52362   0.318   5.822   9.669  1.9902  1.4913  1.2918
  388MOL0     H52363   0.369   5.606   9.522 -1.1414  1.0012 -1.2385
  388MOL0     H52364   0.600   5.295   9.437 -1.3207  1.1199 -0.0771
  388MOL0     H52365   0.618   5.062   9.350 -1.3674 -1.3381 -0.8856
  388MOL0     H52366   1.565   4.379   8.131  1.2152  1.6726 -0.0959
  388MOL0     H52367   1.774   4.291   8.060  1.4573  0.7219 -0.3899
  388MOL0     H52368   2.096   4.003   7.969  0.8537  0.3912  1.5146
  388MOL0     H52369   2.340   3.953   7.921  0.3614  1.5456  1.4364
  388MOL0     H52370   2.526   4.121   7.935  1.9863  0.2502  1.3730
  388MOL0     H52371   2.646   4.027   7.854 -2.2060 -0.9227  0.9119
  388MOL0     H52372   2.709   4.236   7.714 -0.1245  0.5437 -0.3150
  388MOL0     H52373   2.738   4.244   7.888 -1.6291 -2.2344  0.8873
  388MOL0     H52374   2.508   4.368   7.898  1.0592 -0.0484 -0.1395
  388MOL0     H52375   2.526   4.380   7.727  0.7037 -0.2031 -0.8027
  388MOL0     H52376   2.714   4.473   7.942 -1.8806  2.2968  0.4543
  388MOL0     H52377   2.632   4.579   7.823  1.2551  1.0902  1.5420
  388MOL0     H52378   2.935   4.511   7.565  0.5442 -1.0093  0.4263
  388MOL0     H52379   2.349   4.254   7.625 -0.7463  0.1637 -1.2177
  388MOL0     H52380   2.106   4.309   7.661  0.9103  0.2553 -0.6588
  389MOL0     O52381   7.733   4.721   2.315  0.2965 -0.2080  0.4333
  389MOL0     C52382   7.791   4.629   2.365 -0.1828  0.2253  0.3214
  389MOL0     O52383   7.740   4.497   2.385  0.7910  0.2881 -0.3267
  389MOL0     C52384   7.622   4.457   2.328 -0.0887 -0.3586 -0.5597
  389MOL0     C52385   7.615   4.328   2.269 -0.9147 -0.3644  0.3668
  389MOL0     C52386   7.497   4.274   2.222 -0.8948 -0.5564 -0.0850
  389MOL0     C52387   7.382   4.344   2.234 -0.3172 -0.8937  0.3601
  389MOL0     O52388   7.274   4.279   2.190 -0.1280 -0.0032  0.0540
  389MOL0     C52389   7.156   4.345   2.160  0.5082 -0.0926  0.6456
  389MOL0     C52390   7.182   4.438   2.037 -1.3063 -0.1798  0.4371
  389MOL0     C52391   7.062   4.527   2.001  1.0045 -0.3144  0.1971
  389MOL0     C52392   6.930   4.442   1.988  0.3166  0.4787 -0.7185
  389MOL0     C52393   6.817   4.524   1.927  0.7768 -0.0018 -0.5154
  389MOL0     C52394   6.700   4.439   1.936  0.2736  1.5458 -0.1155
  389MOL0     C52395   6.562   4.495   1.902  0.7594  0.0547  0.0811
  389MOL0     C52396   6.448   4.391   1.921 -0.5202  0.6940 -0.4868
  389MOL0     N52397   6.321   4.456   1.889 -0.2490 -0.2176 -0.1847
  389MOL0     C52398   6.266   4.465   1.770 -0.3187 -0.5343 -0.2015
  389MOL0     C52399   6.142   4.515   1.797  0.0887  0.9640 -0.4557
  389MOL0     C52400   6.034   4.538   1.686  0.2248  0.1451 -1.2732
  389MOL0     C52401   5.998   4.683   1.678 -0.2127 -0.3608  0.0717
  389MOL0     C52402   5.897   4.719   1.568 -0.0602 -0.3955 -0.3727
  389MOL0     C52403   5.757   4.659   1.586  0.2405  0.0631 -0.3902
  389MOL0     O52404   5.699   4.707   1.708  0.0554 -0.1891 -0.5285
  389MOL0     C52405   5.564   4.698   1.721 -0.0221  0.2192 -0.8934
  389MOL0     C52406   5.501   4.815   1.773 -0.5265 -0.2841 -0.4230
  389MOL0     C52407   5.369   4.817   1.814 -0.5563 -0.3606  0.7151
  389MOL0     C52408   5.302   4.950   1.854 -1.0640  0.3667 -0.8859
  389MOL0     C52409   5.296   4.697   1.800  0.1373  0.9839  0.2401
  389MOL0     C52410   5.155   4.684   1.843  0.1437  0.4711 -0.3719
  389MOL0     O52411   5.133   4.726   1.975  0.6853  0.3420  0.2325
  389MOL0     C52412   5.006   4.733   2.026 -0.0135 -0.2431 -0.3314
  389MOL0     C52413   4.988   4.661   2.140 -0.4178 -0.7415 -0.5799
  389MOL0     C52414   4.866   4.654   2.191  0.0291  0.3885  0.5454
  389MOL0     C52415   4.760   4.731   2.138 -0.4391  0.6010 -0.6392
  389MOL0     O52416   4.640   4.740   2.188  0.0984 -0.7362  0.6660
  389MOL0     C52417   4.608   4.707   2.328 -0.4083 -0.6268 -0.3049
  389MOL0     C52418   4.538   4.576   2.351  0.5887 -0.6537  0.0775
  389MOL0     C52419   4.404   4.568   2.288  1.5857 -0.1576  0.6858
  389MOL0     C52420   4.320   4.452   2.351 -0.7041  0.1892 -0.3333
  389MOL0     C52421   4.236   4.508   2.464  0.8663  0.8122 -0.1082
  389MOL0     C52422   4.115   4.417   2.506 -0.1024 -0.2924 -0.4478
  389MOL0     C52423   4.012   4.501   2.590 -0.0699  0.2408 -0.0429
  389MOL0     C52424   3.870   4.497   2.527  0.2368  0.6812  0.4709
  389MOL0    Cl52425   3.752   4.604   2.614 -0.0083 -0.3520 -0.0009
  389MOL0     C52426   4.785   4.823   2.035 -0.8445 -0.1507 -0.3483
  389MOL0     C52427   4.907   4.815   1.972 -0.6780  0.8223  0.1197
  389MOL0     O52428   5.063   4.641   1.775 -0.6968  0.1107 -0.2419
  389MOL0     C52429   5.352   4.578   1.751 -0.2974  0.1088  1.0519
  389MOL0     C52430   5.490   4.583   1.706 -0.8388 -0.9285  1.0889
  389MOL0     N52431   6.128   4.545   1.935 -0.2890  0.8117  0.8524
  389MOL0     N52432   6.242   4.511   1.985 -0.0417  0.5488  0.4602
  389MOL0     C52433   7.383   4.478   2.287  0.0793 -0.5040  0.0887
  389MOL0     C52434   7.504   4.526   2.340 -0.1407 -0.0097 -0.4490
  389MOL0     C52435   7.919   4.663   2.427 -0.3802 -0.2001 -0.3959
  389MOL0     C52436   8.022   4.565   2.419 -0.5541  0.3309  0.2059
  389MOL0     C52437   8.147   4.593   2.468 -0.3508  0.3576 -0.4150
  389MOL0     C52438   8.166   4.705   2.546  0.4093 -0.2458  0.1634
  389MOL0     O52439   8.289   4.710   2.625 -0.1741  0.6189  0.8859
  389MOL0     C52440   8.333   4.834   2.703 -0.1841  0.7024 -0.8107
  389MOL0     C52441   8.478   4.812   2.746  0.0181 -0.7498 -0.1986
  389MOL0     C52442   8.580   4.809   2.629 -0.1100  0.5279  0.0822
  389MOL0     C52443   8.722   4.769   2.676 -0.1704 -0.3257 -0.1277
  389MOL0     C52444   8.718   4.629   2.724  0.0538  0.7021  0.0516
  389MOL0     C52445   8.714   4.518   2.761  0.2170  1.0246  0.2273
  389MOL0     C52446   8.065   4.799   2.551  0.1886  0.2546  0.3092
  389MOL0     C52447   7.941   4.785   2.489 -0.6070  0.7429  0.7105
  389MOL0     H52448   7.710   4.277   2.255  1.2855  3.3846  0.3610
  389MOL0     H52449   7.495   4.180   2.168 -2.0850 -1.7083  1.8545
  389MOL0     H52450   7.078   4.272   2.135 -2.4839  2.6647  1.1543
  389MOL0     H52451   7.113   4.404   2.242 -1.2688 -0.4954  0.0460
  389MOL0     H52452   7.266   4.507   2.044  0.4167 -1.9345 -1.6252
  389MOL0     H52453   7.199   4.368   1.955  0.1606  1.1790 -0.4611
  389MOL0     H52454   7.032   4.605   2.071 -1.5663  0.7035 -1.8723
  389MOL0     H52455   7.071   4.557   1.896 -0.1542 -2.7711 -0.6744
  389MOL0     H52456   6.950   4.356   1.924 -0.0970  0.6125 -1.0298
  389MOL0     H52457   6.901   4.416   2.090 -2.2583  2.1399 -0.9305
  389MOL0     H52458   6.803   4.619   1.979  0.7205 -0.2438 -0.0858
  389MOL0     H52459   6.852   4.543   1.825  1.8338  1.5175  0.1079
  389MOL0     H52460   6.720   4.352   1.874  3.2211 -0.4995  3.3691
  389MOL0     H52461   6.698   4.403   2.039  3.5384  1.0036 -0.1426
  389MOL0     H52462   6.540   4.564   1.984 -2.3443 -2.7728  1.8594
  389MOL0     H52463   6.553   4.550   1.808  3.4937  0.2011 -0.1581
  389MOL0     H52464   6.452   4.354   2.024 -2.0399 -0.5588 -0.8433
  389MOL0     H52465   6.470   4.304   1.857 -1.1147 -0.1640  0.4458
  389MOL0     H52466   6.309   4.432   1.676 -1.3754 -3.0246  0.1069
  389MOL0     H52467   6.074   4.502   1.591  1.7548  0.3143 -0.7197
  389MOL0     H52468   5.939   4.488   1.705 -0.0861  0.8449 -0.9716
  389MOL0     H52469   6.091   4.739   1.666  0.4689 -1.5958 -0.6229
  389MOL0     H52470   5.961   4.715   1.776 -0.5244 -1.0634  0.1845
  389MOL0     H52471   5.945   4.693   1.473 -0.5889  1.6006 -1.2546
  389MOL0     H52472   5.886   4.828   1.566 -1.7917 -0.4667  1.7162
  389MOL0     H52473   5.766   4.550   1.588 -0.7644 -0.0162  1.1384
  389MOL0     H52474   5.696   4.684   1.499 -1.2807 -1.4680  0.1837
  389MOL0     H52475   5.573   4.896   1.782 -2.0763  1.0342  0.8663
  389MOL0     H52476   5.205   4.955   1.904 -0.5111 -0.7495  0.3523
  389MOL0     H52477   5.374   4.987   1.928  0.2921 -1.5269 -1.1701
  389MOL0     H52478   5.288   5.020   1.771 -0.0676  1.8650  0.1438
  389MOL0     H52479   5.066   4.600   2.185 -2.1715 -3.9904 -1.5902
  389MOL0     H52480   4.856   4.593   2.280  1.7355  0.8819  1.1139
  389MOL0     H52481   4.694   4.719   2.394 -2.4236 -0.9503  2.5341
  389MOL0     H52482   4.551   4.794   2.363 -1.0104 -0.4733 -1.5853
  389MOL0     H52483   4.603   4.493   2.322  1.9092  0.5199 -0.4172
  389MOL0     H52484   4.523   4.569   2.459 -1.3987 -0.4564 -0.1434
  389MOL0     H52485   4.418   4.536   2.184 -0.3948  0.4270  0.1982
  389MOL0     H52486   4.342   4.657   2.298  1.0568 -0.5334  0.7896
  389MOL0     H52487   4.261   4.409   2.269  0.6807 -2.9264  0.1262
  389MOL0     H52488   4.382   4.369   2.387 -0.3107 -1.4991 -4.3388
  389MOL0     H52489   4.205   4.611   2.444 -0.4181  0.1459 -1.7372
  389MOL0     H52490   4.312   4.522   2.541  2.3713 -0.2761 -1.3274
  389MOL0     H52491   4.068   4.382   2.413 -1.3101  1.5451 -0.5811
  389MOL0     H52492   4.149   4.324   2.552 -0.0406 -1.1645 -2.1515
  389MOL0     H52493   4.040   4.606   2.598  0.8263  0.0707 -0.7674
  389MOL0     H52494   4.009   4.451   2.687 -1.7515 -0.2047 -0.2905
  389MOL0     H52495   3.831   4.397   2.546  0.5310  0.3060 -0.8010
  389MOL0     H52496   3.877   4.523   2.421  1.9703 -1.4558 -0.0153
  389MOL0     H52497   4.714   4.900   2.007  0.4917  0.9483 -0.8597
  389MOL0     H52498   4.923   4.885   1.891 -2.7835  3.0286  1.4840
  389MOL0     H52499   5.294   4.487   1.743  0.2657 -0.1231 -0.7389
  389MOL0     H52500   5.553   4.498   1.682  0.3518  0.1599  0.2470
  389MOL0     H52501   7.295   4.537   2.308  0.6617  1.7337 -3.0506
  389MOL0     H52502   7.508   4.627   2.380 -3.4760  0.0974 -0.1462
  389MOL0     H52503   8.005   4.469   2.371  0.4839  0.9148 -1.3738
  389MOL0     H52504   8.231   4.525   2.464  0.7274  1.7089 -1.6611
  389MOL0     H52505   8.320   4.927   2.647  0.4184  1.4949  0.3068
  389MOL0     H52506   8.267   4.829   2.791  1.1830 -2.0548  0.1718
  389MOL0     H52507   8.486   4.716   2.798 -1.6481 -0.3406  0.8791
  389MOL0     H52508   8.508   4.897   2.808  2.1290 -0.9381 -0.8651
  389MOL0     H52509   8.586   4.909   2.585  2.4199  0.2551 -0.3028
  389MOL0     H52510   8.539   4.745   2.550 -2.7300  1.6250  0.4380
  389MOL0     H52511   8.753   4.846   2.747  2.6693  1.1769 -2.7625
  389MOL0     H52512   8.805   4.770   2.605 -0.5307  0.0009 -0.5440
  389MOL0     H52513   8.716   4.421   2.806  0.3824  0.7550 -0.3569
  389MOL0     H52514   8.079   4.892   2.605 -0.5529  0.3874  0.2784
  389MOL0     H52515   7.863   4.860   2.497 -0.8992  0.7955 -1.7490
  390MOL0     O52516   3.544   5.802   1.943 -0.2030  0.7184 -0.5585
  390MOL0     C52517   3.616   5.705   1.934 -1.1791  0.2721 -0.1468
  390MOL0     O52518   3.574   5.575   1.927 -0.7432 -0.3189 -0.3931
  390MOL0     C52519   3.439   5.559   1.950 -0.3198 -0.2055 -0.6120
  390MOL0     C52520   3.394   5.521   2.076 -0.5413 -0.7252 -0.3676
  390MOL0     C52521   3.267   5.498   2.108  0.1898 -1.0596  0.3947
  390MOL0     C52522   3.173   5.503   1.999  0.1783  0.9494  0.1287
  390MOL0     O52523   3.041   5.472   2.018 -0.3838 -1.1922  0.2880
  390MOL0     C52524   2.997   5.418   2.142  0.3622 -0.0588 -0.0911
  390MOL0     C52525   2.865   5.359   2.104  0.4019 -0.1614 -0.6019
  390MOL0     C52526   2.797   5.299   2.223 -0.1275 -0.2318 -0.0212
  390MOL0     C52527   2.641   5.304   2.188  0.2624  0.4470  0.7273
  390MOL0     C52528   2.560   5.193   2.246  0.1154  0.9644 -0.4711
  390MOL0     C52529   2.576   5.058   2.172  0.3333 -0.3001  0.0554
  390MOL0     C52530   2.457   4.962   2.201  0.2821  0.0412 -0.9490
  390MOL0     C52531   2.483   4.821   2.157 -0.5207 -0.0864 -0.0310
  390MOL0     N52532   2.396   4.736   2.234  0.2475  0.1919 -0.3668
  390MOL0     C52533   2.268   4.716   2.207  0.3963  0.1998 -0.1156
  390MOL0     C52534   2.213   4.655   2.315 -0.4229 -0.3146  0.5570
  390MOL0     C52535   2.065   4.635   2.330  0.9300 -0.8694 -0.7358
  390MOL0     C52536   1.998   4.770   2.363  0.1405  0.3714  0.3429
  390MOL0     C52537   1.854   4.743   2.410 -0.0051  0.0659  0.3974
  390MOL0     C52538   1.762   4.709   2.288  0.2204  0.7447  0.0019
  390MOL0     O52539   1.625   4.682   2.332 -0.3960 -0.1337 -0.2366
  390MOL0     C52540   1.523   4.655   2.241 -0.3662  0.6115 -0.2386
  390MOL0     C52541   1.392   4.660   2.278 -0.2592  0.4344 -0.3454
  390MOL0     C52542   1.283   4.638   2.183 -0.3138  0.2944  0.9971
  390MOL0     C52543   1.145   4.662   2.227  0.0121 -1.0277  0.2586
  390MOL0     C52544   1.318   4.599   2.054  0.3953  1.2342 -0.7777
  390MOL0     C52545   1.233   4.561   1.935  0.7431  0.3727  0.0648
  390MOL0     O52546   1.103   4.574   1.967  0.1033  0.0093 -0.3735
  390MOL0     C52547   1.003   4.521   1.884  0.2899 -0.2156 -0.4432
  390MOL0     C52548   0.880   4.569   1.902  0.1460 -0.3486  0.3557
  390MOL0     C52549   0.774   4.529   1.830 -0.4135 -0.8927 -0.3775
  390MOL0     C52550   0.784   4.429   1.733  0.6968 -0.1368  0.6659
  390MOL0     O52551   0.674   4.414   1.649 -0.5953 -0.2325 -1.1513
  390MOL0     C52552   0.704   4.468   1.513 -0.3987  0.4909 -1.0119
  390MOL0     C52553   0.581   4.445   1.430  0.9969  0.9889 -0.5213
  390MOL0     C52554   0.582   4.490   1.272 -0.6426 -0.3720 -0.3895
  390MOL0     C52555   0.454   4.461   1.193  0.6100 -0.4613  1.2996
  390MOL0     C52556   0.422   4.312   1.155 -0.4475  0.2686 -0.1770
  390MOL0     C52557   0.306   4.288   1.066  0.1227  0.1122 -0.1226
  390MOL0     C52558   0.315   4.154   0.985 -0.3608  0.3621  0.1527
  390MOL0     C52559   0.175   4.106   0.947  0.3724 -0.4912  0.1351
  390MOL0    Cl52560   0.176   3.939   0.875  0.0968  0.0123  0.2777
  390MOL0     C52561   0.910   4.370   1.712  0.0037  0.3174 -0.4792
  390MOL0     C52562   1.014   4.414   1.795 -0.3489 -0.1284  0.0147
  390MOL0     O52563   1.284   4.562   1.825 -0.0636 -0.0722 -0.5994
  390MOL0     C52564   1.453   4.576   2.031  0.4850 -0.2112  0.2230
  390MOL0     C52565   1.560   4.613   2.112  0.5826 -0.3299 -0.2648
  390MOL0     N52566   2.317   4.633   2.410 -0.6869 -0.1119  0.3521
  390MOL0     N52567   2.424   4.684   2.361 -0.2693 -0.1274  0.1583
  390MOL0     C52568   3.216   5.543   1.872 -0.5678 -0.6864 -0.1827
  390MOL0     C52569   3.347   5.575   1.850 -0.1959  0.3634 -0.6757
  390MOL0     C52570   3.766   5.736   1.933  1.1952 -0.2045  0.0085
  390MOL0     C52571   3.815   5.862   1.965  0.0815 -0.1693  0.6202
  390MOL0     C52572   3.954   5.881   1.975  0.9753 -1.0825  0.6334
  390MOL0     C52573   4.044   5.781   1.959 -0.2573 -0.4760  0.1038
  390MOL0     O52574   4.177   5.789   1.985 -0.5538  0.2076 -0.0873
  390MOL0     C52575   4.235   5.923   2.010 -0.7334  0.6090 -0.2653
  390MOL0     C52576   4.366   5.917   2.103  0.2286 -0.1989 -0.5397
  390MOL0     C52577   4.477   5.831   2.049  0.4924 -0.1298  0.1321
  390MOL0     C52578   4.540   5.899   1.933  0.4375  0.5254 -0.8345
  390MOL0     C52579   4.667   5.829   1.891  0.0815 -0.7728 -0.1711
  390MOL0     C52580   4.762   5.775   1.839 -0.7402 -0.0947  0.7863
  390MOL0     C52581   3.994   5.649   1.940  0.1182 -0.2422  0.7468
  390MOL0     C52582   3.855   5.630   1.923  0.7342 -0.8001 -1.0035
  390MOL0     H52583   3.467   5.515   2.156  0.0538 -0.8505 -0.9066
  390MOL0     H52584   3.234   5.474   2.209 -0.7862 -4.0041 -0.5002
  390MOL0     H52585   3.069   5.343   2.176  1.8440  0.4699 -1.8504
  390MOL0     H52586   2.987   5.501   2.212  0.1057 -1.8562  2.1061
  390MOL0     H52587   2.803   5.441   2.066  1.1864  0.0243 -1.5032
  390MOL0     H52588   2.870   5.285   2.024  0.5215 -1.5062  0.6108
  390MOL0     H52589   2.843   5.201   2.237  0.2369 -0.3685 -1.9065
  390MOL0     H52590   2.799   5.360   2.314 -1.9990 -1.0009  0.5761
  390MOL0     H52591   2.592   5.390   2.233  0.6367  0.9248  0.2323
  390MOL0     H52592   2.629   5.306   2.079  0.9305 -1.9711  0.5400
  390MOL0     H52593   2.596   5.183   2.349 -0.4531 -1.3407 -0.4349
  390MOL0     H52594   2.452   5.209   2.243 -0.2726 -0.5909  2.1438
  390MOL0     H52595   2.579   5.081   2.065 -0.9877  0.0410  0.0790
  390MOL0     H52596   2.672   5.011   2.196  0.2252 -0.7581 -0.4000
  390MOL0     H52597   2.442   4.970   2.309  3.0280 -2.5136 -0.2531
  390MOL0     H52598   2.368   5.007   2.154  1.6014  2.8959 -0.9395
  390MOL0     H52599   2.584   4.790   2.188 -2.4303 -4.6791  2.6770
  390MOL0     H52600   2.470   4.810   2.049 -0.9650 -1.4530  0.1403
  390MOL0     H52601   2.214   4.742   2.117 -0.7899 -1.6439  0.0152
  390MOL0     H52602   2.028   4.595   2.234  2.9179 -2.1781 -1.0085
  390MOL0     H52603   2.050   4.566   2.414  2.0092 -2.1769 -1.5665
  390MOL0     H52604   1.996   4.832   2.272  2.9001  1.9716  1.2669
  390MOL0     H52605   2.055   4.826   2.437 -1.1281  2.1472  0.0579
  390MOL0     H52606   1.813   4.833   2.456 -2.3596 -0.1036 -1.1744
  390MOL0     H52607   1.848   4.661   2.482  3.0560 -1.5794 -0.9938
  390MOL0     H52608   1.800   4.621   2.235  1.2236  0.2303  1.4967
  390MOL0     H52609   1.760   4.793   2.219 -1.4293 -0.2669 -1.2451
  390MOL0     H52610   1.380   4.668   2.386  0.8203 -0.5277 -0.1277
  390MOL0     H52611   1.152   4.681   2.335 -1.6862  1.4301 -0.0055
  390MOL0     H52612   1.118   4.758   2.184  1.5008 -0.2083  1.0429
  390MOL0     H52613   1.080   4.577   2.205 -0.4618 -1.2518  2.2669
  390MOL0     H52614   0.867   4.653   1.970 -5.4351 -0.2892 -0.2819
  390MOL0     H52615   0.679   4.577   1.849 -1.5427 -2.5788 -1.4575
  390MOL0     H52616   0.720   4.577   1.512  1.6282  0.2381 -2.2545
  390MOL0     H52617   0.792   4.419   1.471  0.9180 -0.4271  2.5158
  390MOL0     H52618   0.573   4.336   1.435  2.8929  0.8499  0.6101
  390MOL0     H52619   0.494   4.479   1.486 -0.0284  0.5290 -1.7774
  390MOL0     H52620   0.666   4.439   1.225 -1.7706 -2.0586 -0.6577
  390MOL0     H52621   0.598   4.598   1.260  0.8008 -0.5881 -0.5530
  390MOL0     H52622   0.372   4.511   1.245 -0.1407  1.1265 -1.2523
  390MOL0     H52623   0.461   4.509   1.095 -0.6492 -0.8779  0.9816
  390MOL0     H52624   0.400   4.258   1.247  1.3103 -3.5180 -1.7524
  390MOL0     H52625   0.512   4.268   1.110 -1.0156 -0.2963 -0.7762
  390MOL0     H52626   0.216   4.295   1.128  1.0523 -0.5960  1.3943
  390MOL0     H52627   0.310   4.354   0.980  0.5172  0.3548  0.0807
  390MOL0     H52628   0.359   4.075   1.047 -2.4551 -0.8744  0.1495
  390MOL0     H52629   0.374   4.177   0.896  3.7876  0.7514  2.6884
  390MOL0     H52630   0.135   4.177   0.874 -1.5164 -2.1004 -0.4909
  390MOL0     H52631   0.121   4.094   1.041 -1.4318 -1.2187 -0.9327
  390MOL0     H52632   0.929   4.307   1.626 -1.2880  1.5150 -1.6950
  390MOL0     H52633   1.110   4.367   1.776  1.4484  2.7361  1.2509
  390MOL0     H52634   1.481   4.526   1.938 -3.0862 -0.7366 -0.7175
  390MOL0     H52635   1.662   4.607   2.076  0.9734 -1.4002  0.9443
  390MOL0     H52636   3.138   5.551   1.796 -0.1726 -0.2543 -0.5519
  390MOL0     H52637   3.397   5.611   1.761  1.9239  0.6072  0.5546
  390MOL0     H52638   3.747   5.946   1.967  0.9913  0.5997  0.1493
  390MOL0     H52639   3.980   5.986   1.977 -2.7769 -0.0312  2.2509
  390MOL0     H52640   4.256   5.977   1.917 -2.7721  1.4092 -0.3031
  390MOL0     H52641   4.167   5.979   2.075  0.4261 -0.7992  2.2954
  390MOL0     H52642   4.352   5.880   2.205 -0.9235  0.2458 -0.5276
  390MOL0     H52643   4.386   6.025   2.109  1.2250 -0.3203 -1.4229
  390MOL0     H52644   4.438   5.735   2.014  1.1322  0.5573 -2.7218
  390MOL0     H52645   4.547   5.809   2.130  1.4601 -1.3463 -0.9891
  390MOL0     H52646   4.569   6.003   1.955  1.2938  0.5508 -1.9884
  390MOL0     H52647   4.459   5.901   1.860 -0.6666 -0.5526  0.3281
  390MOL0     H52648   4.824   5.698   1.798  0.2693  1.4590 -0.7898
  390MOL0     H52649   4.064   5.566   1.940 -0.3870 -0.6772  0.3772
  390MOL0     H52650   3.808   5.532   1.917  0.3749 -0.8259  1.2795
  391MOL0     O52651   0.244   7.504   2.063 -0.7168 -0.1296 -0.7065
  391MOL0     C52652   0.253   7.594   1.981  0.3164  0.7726 -0.0227
  391MOL0     O52653   0.154   7.679   1.958  0.9501  0.1622  0.1129
  391MOL0     C52654   0.032   7.670   2.023 -1.1176 -0.1306  0.3637
  391MOL0     C52655  -0.075   7.696   1.947 -0.7146  0.5076  0.3950
  391MOL0     C52656  -0.209   7.700   2.000  0.3485 -1.2309 -0.1927
  391MOL0     C52657  -0.225   7.685   2.129  0.9266 -1.1240 -0.1443
  391MOL0     O52658  -0.354   7.707   2.170  0.2804  1.0416 -0.6400
  391MOL0     C52659  -0.364   7.802   2.276  0.6777 -0.3726  0.7497
  391MOL0     C52660  -0.513   7.816   2.314 -0.6657  0.1654  0.8607
  391MOL0     C52661  -0.579   7.690   2.355  0.3247 -0.6293  0.0077
  391MOL0     C52662  -0.714   7.728   2.409 -0.3870 -0.2760 -0.2081
  391MOL0     C52663  -0.804   7.608   2.451  0.5772  0.3299  0.7236
  391MOL0     C52664  -0.926   7.663   2.527 -0.3595 -0.0938  0.3901
  391MOL0     C52665  -1.023   7.560   2.583 -0.6825 -0.4087  0.2339
  391MOL0     C52666  -1.101   7.484   2.479  0.1890  0.6073  0.0561
  391MOL0     N52667  -1.207   7.394   2.521  0.0416 -0.6643 -0.3068
  391MOL0     C52668  -1.310   7.437   2.596  0.7679 -0.4331 -0.0442
  391MOL0     C52669  -1.391   7.337   2.597  0.2552  0.8271 -0.7813
  391MOL0     C52670  -1.522   7.339   2.672  0.6598 -0.5313 -0.2020
  391MOL0     C52671  -1.635   7.270   2.593 -0.3407  0.4080 -0.6523
  391MOL0     C52672  -1.767   7.281   2.680  0.0980 -0.2627 -0.1933
  391MOL0     C52673  -1.895   7.238   2.612  0.2978 -0.2277  0.0732
  391MOL0     O52674  -1.937   7.337   2.511  0.2711 -0.1558  0.3417
  391MOL0     C52675  -2.065   7.334   2.465  0.5356 -0.0142  0.0529
  391MOL0     C52676  -2.164   7.245   2.502  0.3613 -0.7803  0.2452
  391MOL0     C52677  -2.296   7.249   2.446  0.8925  0.1504  0.5120
  391MOL0     C52678  -2.391   7.146   2.503 -0.4096 -0.3922  0.1519
  391MOL0     C52679  -2.324   7.346   2.351 -0.2715 -0.4356  0.3657
  391MOL0     C52680  -2.455   7.355   2.286  0.2803  0.0272 -0.1144
  391MOL0     O52681  -2.465   7.465   2.197  0.1705 -0.6114 -1.3514
  391MOL0     C52682  -2.564   7.452   2.109 -0.3274  0.4989 -0.1841
  391MOL0     C52683  -2.541   7.439   1.981  0.1055 -0.7103  0.0830
  391MOL0     C52684  -2.648   7.417   1.887  0.2748 -0.2677 -0.5739
  391MOL0     C52685  -2.779   7.426   1.935 -0.1773  0.1109  0.1256
  391MOL0     O52686  -2.878   7.396   1.851 -0.0719 -0.1536  0.3186
  391MOL0     C52687  -2.864   7.432   1.715 -0.0032 -0.0366  0.0192
  391MOL0     C52688  -2.995   7.415   1.639  0.3500 -0.1866  0.0921
  391MOL0     C52689  -3.115   7.491   1.701 -0.9318  0.0978  0.1872
  391MOL0     C52690  -3.244   7.473   1.616  0.1430  0.1485 -0.2027
  391MOL0     C52691  -3.366   7.549   1.681  0.0390 -0.1123  0.1470
  391MOL0     C52692  -3.364   7.699   1.666 -0.3268  0.2202 -0.2932
  391MOL0     C52693  -3.303   7.757   1.533  0.2337 -0.3591 -0.1039
  391MOL0     C52694  -3.370   7.889   1.500 -0.2217 -0.2302  0.3221
  391MOL0    Cl52695  -3.539   7.864   1.456  0.2456  0.1166 -0.2166
  391MOL0     C52696  -2.807   7.467   2.068  0.4673 -0.2714 -0.2093
  391MOL0     C52697  -2.695   7.475   2.155 -0.5439 -0.1304 -0.0279
  391MOL0     O52698  -2.540   7.267   2.290  0.7163 -0.0659 -0.0584
  391MOL0     C52699  -2.224   7.438   2.312 -0.6682 -0.4625  0.1522
  391MOL0     C52700  -2.097   7.432   2.374  0.1117  0.6549 -0.5814
  391MOL0     N52701  -1.342   7.235   2.512 -0.3960  0.1051  0.1830
  391MOL0     N52702  -1.223   7.266   2.474  0.2763  0.5957 -0.9898
  391MOL0     C52703  -0.122   7.660   2.219  0.5182 -0.0878  0.1617
  391MOL0     C52704   0.006   7.654   2.162  0.3993  0.0168  0.4887
  391MOL0     C52705   0.379   7.606   1.906  0.1242 -0.3229 -0.2992
  391MOL0     C52706   0.467   7.507   1.880  0.4340 -0.3109  0.5352
  391MOL0     C52707   0.587   7.529   1.814  0.6961 -0.4168  0.0009
  391MOL0     C52708   0.617   7.654   1.765  0.5642 -0.8213 -0.3381
  391MOL0     O52709   0.737   7.685   1.705  0.1671  0.9392  0.4014
  391MOL0     C52710   0.818   7.575   1.660 -0.1691 -0.5531 -0.5480
  391MOL0     C52711   0.913   7.623   1.546  0.3171 -0.0447  0.0229
  391MOL0     C52712   1.000   7.731   1.607  0.8694 -1.1593  0.2294
  391MOL0     C52713   1.126   7.768   1.518  0.2929  0.8669 -0.1936
  391MOL0     C52714   1.187   7.893   1.562  0.0315 -0.0170  0.0125
  391MOL0     C52715   1.239   8.000   1.598  0.0165  0.4530 -0.5040
  391MOL0     C52716   0.530   7.757   1.795 -0.1062 -0.8114 -0.2469
  391MOL0     C52717   0.412   7.739   1.865  0.3724  0.0985 -0.0102
  391MOL0     H52718  -0.055   7.735   1.847 -0.6393  1.9783  0.9638
  391MOL0     H52719  -0.288   7.722   1.929  1.3758  1.0183 -0.7460
  391MOL0     H52720  -0.303   7.789   2.366  2.4583 -0.0081 -0.3544
  391MOL0     H52721  -0.340   7.903   2.240 -1.4477 -0.6920 -1.9003
  391MOL0     H52722  -0.510   7.885   2.399 -1.1756  1.3243 -0.0386
  391MOL0     H52723  -0.557   7.871   2.230 -2.1502 -3.0388 -0.6635
  391MOL0     H52724  -0.587   7.625   2.267  1.2592 -0.6255 -0.0825
  391MOL0     H52725  -0.525   7.623   2.423  0.2866  0.0332  0.7002
  391MOL0     H52726  -0.691   7.783   2.501  2.8025  2.9470 -2.6829
  391MOL0     H52727  -0.764   7.800   2.344  2.1580  0.9404 -0.9144
  391MOL0     H52728  -0.830   7.560   2.356 -0.4532  0.3149  1.0069
  391MOL0     H52729  -0.751   7.535   2.513 -1.2262 -0.6380  1.1922
  391MOL0     H52730  -0.882   7.719   2.609 -0.6501  1.1002 -0.2366
  391MOL0     H52731  -0.983   7.733   2.465 -0.8982 -0.4619  0.4664
  391MOL0     H52732  -0.961   7.494   2.644 -2.8448 -2.3666  0.4288
  391MOL0     H52733  -1.094   7.602   2.655 -1.7261 -0.7170 -0.5990
  391MOL0     H52734  -1.022   7.428   2.429 -0.7622  0.4063 -1.2997
  391MOL0     H52735  -1.143   7.548   2.400 -0.3976 -1.0259 -1.0120
  391MOL0     H52736  -1.338   7.536   2.628 -4.0504 -1.5361 -0.0690
  391MOL0     H52737  -1.519   7.296   2.773 -3.9036  0.1807  0.4390
  391MOL0     H52738  -1.553   7.443   2.683 -2.4032 -1.5143  1.4842
  391MOL0     H52739  -1.604   7.170   2.562  0.6180 -0.0500  1.6220
  391MOL0     H52740  -1.655   7.329   2.503 -2.2678 -1.2119 -1.3550
  391MOL0     H52741  -1.787   7.381   2.719 -0.6844 -0.6867  0.5289
  391MOL0     H52742  -1.746   7.215   2.764 -0.5838  0.1516  0.3191
  391MOL0     H52743  -1.964   7.238   2.697  1.0930 -1.6006  0.7550
  391MOL0     H52744  -1.888   7.133   2.581 -0.9455 -0.2391 -0.2073
  391MOL0     H52745  -2.136   7.175   2.580  1.6520 -0.2851  0.2557
  391MOL0     H52746  -2.426   7.096   2.412  0.1885 -0.7776  0.1285
  391MOL0     H52747  -2.337   7.078   2.568 -1.1940  1.1786  2.5775
  391MOL0     H52748  -2.471   7.191   2.563 -1.1085  1.0168 -1.7157
  391MOL0     H52749  -2.438   7.432   1.948 -0.1484 -0.2384 -0.8295
  391MOL0     H52750  -2.618   7.382   1.789 -0.5928 -0.9796 -0.5907
  391MOL0     H52751  -2.827   7.535   1.706 -1.1078  0.6434  2.2677
  391MOL0     H52752  -2.791   7.365   1.669 -1.0964 -4.4481  3.9528
  391MOL0     H52753  -2.976   7.456   1.539  1.0700  1.2301  0.7854
  391MOL0     H52754  -3.018   7.309   1.622  3.2183 -0.5360 -2.3980
  391MOL0     H52755  -3.087   7.597   1.697 -4.5611  1.1927  0.4052
  391MOL0     H52756  -3.138   7.465   1.804 -0.8096  0.8300  0.4084
  391MOL0     H52757  -3.220   7.519   1.520 -0.2858  3.8554  1.2909
  391MOL0     H52758  -3.271   7.370   1.595 -0.4788  0.2438  0.0956
  391MOL0     H52759  -3.386   7.517   1.784 -1.7559 -2.8211 -0.9251
  391MOL0     H52760  -3.457   7.516   1.631 -0.7512 -0.0272  1.4745
  391MOL0     H52761  -3.460   7.740   1.697  0.4548  1.0339  1.1672
  391MOL0     H52762  -3.291   7.719   1.745  1.9653 -3.4675 -1.1944
  391MOL0     H52763  -3.340   7.680   1.465  1.7374 -1.3763  0.1641
  391MOL0     H52764  -3.193   7.763   1.533  0.3115 -1.2646  1.4645
  391MOL0     H52765  -3.315   7.947   1.425 -1.9087  2.3509  0.9519
  391MOL0     H52766  -3.365   7.958   1.584  1.1634 -3.1053  2.8215
  391MOL0     H52767  -2.905   7.497   2.104  0.0742 -0.4225 -1.1315
  391MOL0     H52768  -2.717   7.505   2.257  0.2994  1.2627 -0.2262
  391MOL0     H52769  -2.252   7.520   2.248 -2.7678  0.3597  1.9845
  391MOL0     H52770  -2.021   7.502   2.342  1.9611 -1.5245 -1.2028
  391MOL0     H52771  -0.116   7.656   2.327  0.9308 -2.4398  0.1110
  391MOL0     H52772   0.090   7.628   2.226 -0.3455  3.5613  3.1987
  391MOL0     H52773   0.449   7.403   1.902 -1.6341  0.0619  0.8033
  391MOL0     H52774   0.658   7.447   1.817  0.6804 -0.4076  1.6051
  391MOL0     H52775   0.869   7.530   1.745 -0.9941 -1.2140 -0.3879
  391MOL0     H52776   0.759   7.492   1.620  0.4544 -1.0124 -0.5186
  391MOL0     H52777   0.849   7.661   1.465  3.3122  1.1285 -1.9871
  391MOL0     H52778   0.969   7.536   1.513  1.7206  1.2028 -1.0150
  391MOL0     H52779   1.036   7.699   1.705  1.0909  1.2003  0.9749
  391MOL0     H52780   0.934   7.813   1.636  0.6075 -1.6789  1.1416
  391MOL0     H52781   1.119   7.749   1.410  3.0771  0.7738 -0.4186
  391MOL0     H52782   1.196   7.689   1.546  0.0768 -0.6500 -3.3789
  391MOL0     H52783   1.293   8.090   1.619 -2.4383  1.8801  0.0991
  391MOL0     H52784   0.551   7.857   1.760 -2.8416  0.0118  0.3026
  391MOL0     H52785   0.350   7.826   1.885 -0.8903 -0.6950 -0.2904
  392MOL0     O52786   3.898   4.611   9.729  0.6580 -0.2824  0.1664
  392MOL0     C52787   3.919   4.728   9.762  0.3567  1.3736  0.3377
  392MOL0     O52788   3.851   4.790   9.861  0.0397  0.4827 -0.2803
  392MOL0     C52789   3.728   4.734   9.901  1.0883  0.4350  0.8010
  392MOL0     C52790   3.713   4.664  10.017 -0.1739  0.7291 -0.7642
  392MOL0     C52791   3.589   4.632  10.070 -0.2993  0.2307  0.1103
  392MOL0     C52792   3.476   4.655   9.997  0.0117 -0.8019  0.0717
  392MOL0     O52793   3.359   4.626  10.062  0.5041  0.0984  0.4422
  392MOL0     C52794   3.272   4.744  10.077 -0.2221  0.4933 -0.1188
  392MOL0     C52795   3.128   4.677  10.099  0.2146  0.1691  0.3557
  392MOL0     C52796   3.025   4.789  10.106 -0.4218 -0.3569 -0.6419
  392MOL0     C52797   2.886   4.735  10.141 -0.5748 -0.0961 -0.1621
  392MOL0     C52798   2.770   4.830  10.119  0.0681  0.1162  0.0709
  392MOL0     C52799   2.634   4.779  10.167 -0.1887 -0.3005  0.1890
  392MOL0     C52800   2.537   4.902  10.192  0.8597 -0.6124 -0.3293
  392MOL0     C52801   2.401   4.857  10.243  0.8513  1.1405 -0.7850
  392MOL0     N52802   2.320   4.953  10.315  0.0761 -0.1410 -0.1856
  392MOL0     C52803   2.238   4.938  10.425 -0.5711  0.3002 -0.2141
  392MOL0     C52804   2.197   5.064  10.443 -0.5129  0.4099 -0.6723
  392MOL0     C52805   2.113   5.086  10.565 -1.0781 -0.3241  0.3545
  392MOL0     C52806   1.966   5.113  10.536  0.1800  0.6807  0.0108
  392MOL0     C52807   1.892   5.168  10.661 -0.4421  0.3878 -0.3458
  392MOL0     C52808   1.746   5.193  10.624 -0.6028 -0.0726 -0.4420
  392MOL0     O52809   1.693   5.066  10.618 -0.0372 -0.1727 -0.1019
  392MOL0     C52810   1.581   5.047  10.547  0.1177 -0.4184  0.0101
  392MOL0     C52811   1.502   5.146  10.481 -0.1580 -0.0650  0.3165
  392MOL0     C52812   1.387   5.105  10.410 -0.0055  0.0862 -0.2089
  392MOL0     C52813   1.322   5.218  10.330 -0.2436 -0.2469  0.0645
  392MOL0     C52814   1.345   4.961  10.417 -0.5225  0.2789 -0.4566
  392MOL0     C52815   1.213   4.911  10.372 -0.0646  0.4060 -0.6027
  392MOL0     O52816   1.166   4.789  10.429 -0.2471  0.4376 -0.0711
  392MOL0     C52817   1.036   4.746  10.417 -0.0951  0.1267 -0.3243
  392MOL0     C52818   1.012   4.613  10.391  0.0465  1.1209  0.4115
  392MOL0     C52819   0.885   4.558  10.390 -0.7107 -0.5762 -0.4046
  392MOL0     C52820   0.780   4.642  10.433  0.9283  0.2140 -0.1493
  392MOL0     O52821   0.647   4.603  10.465 -0.7922  0.3090  0.2616
  392MOL0     C52822   0.618   4.462  10.459 -0.1329 -0.1053 -0.2933
  392MOL0     C52823   0.475   4.449  10.492 -0.8381  0.5142  0.2259
  392MOL0     C52824   0.395   4.455  10.360 -0.1487 -0.0074  0.4128
  392MOL0     C52825   0.248   4.474  10.392 -0.3314  0.6239  0.3476
  392MOL0     C52826   0.164   4.467  10.261  0.3630  0.0672  0.5916
  392MOL0     C52827   0.010   4.440  10.291 -0.6258  0.2215 -0.4320
  392MOL0     C52828  -0.059   4.552  10.373  0.0582  0.4314 -1.1437
  392MOL0     C52829  -0.201   4.522  10.422 -0.0420  0.0018 -0.1908
  392MOL0    Cl52830  -0.306   4.559  10.272 -0.0760 -0.2766  0.4305
  392MOL0     C52831   0.803   4.775  10.451 -0.2089 -0.2885 -0.5439
  392MOL0     C52832   0.928   4.834  10.438  0.2114  0.3690  0.1192
  392MOL0     O52833   1.156   4.969  10.281  0.3028  0.0579 -0.4577
  392MOL0     C52834   1.423   4.874  10.484 -0.4848  0.5184 -0.2144
  392MOL0     C52835   1.538   4.915  10.540  0.2277  0.5596 -0.5687
  392MOL0     N52836   2.248   5.153  10.353  0.1048  0.1438  0.4509
  392MOL0     N52837   2.311   5.079  10.269 -0.1003 -0.6762  0.2741
  392MOL0     C52838   3.488   4.717   9.869 -0.1870 -0.4695 -0.8490
  392MOL0     C52839   3.618   4.752   9.817  0.2063  0.5704  0.8334
  392MOL0     C52840   4.048   4.789   9.729 -0.7316  0.0079 -0.2464
  392MOL0     C52841   4.078   4.917   9.768 -0.3334 -0.8033  0.3544
  392MOL0     C52842   4.212   4.965   9.744 -0.0445  0.2004  0.0657
  392MOL0     C52843   4.307   4.883   9.685  0.1405 -0.4241 -0.6110
  392MOL0     O52844   4.423   4.944   9.672 -1.1998  0.1258  0.3513
  392MOL0     C52845   4.543   4.859   9.663 -0.3658 -0.9952 -0.2848
  392MOL0     C52846   4.680   4.923   9.668 -0.0251 -0.1117 -0.1316
  392MOL0     C52847   4.798   4.838   9.723  0.2354  0.1555 -0.8633
  392MOL0     C52848   4.816   4.697   9.666  0.8040  0.3270  0.2715
  392MOL0     C52849   4.902   4.616   9.747 -0.8315 -0.9602 -0.2326
  392MOL0     C52850   4.979   4.546   9.813 -0.4414 -0.1646  0.5328
  392MOL0     C52851   4.274   4.752   9.649 -0.3755  0.0498 -0.7971
  392MOL0     C52852   4.141   4.713   9.662  0.6061 -0.4625  0.8473
  392MOL0     H52853   3.794   4.646  10.088 -0.5614  1.1124 -0.2139
  392MOL0     H52854   3.574   4.587  10.168 -0.6716 -0.9468 -0.4630
  392MOL0     H52855   3.298   4.803  10.166 -0.6267  0.5372 -0.0269
  392MOL0     H52856   3.268   4.813   9.992 -2.0527 -2.6603 -2.8456
  392MOL0     H52857   3.106   4.624  10.006 -0.5191 -0.8629  1.0926
  392MOL0     H52858   3.112   4.606  10.180 -3.7210  1.4046  0.8982
  392MOL0     H52859   3.058   4.860  10.183  2.5241 -1.3925 -0.8258
  392MOL0     H52860   3.018   4.836  10.008  0.6898 -2.0114 -1.5535
  392MOL0     H52861   2.873   4.649  10.075 -2.5765 -0.9376  1.2373
  392MOL0     H52862   2.877   4.713  10.248 -1.5031  1.6312  0.1452
  392MOL0     H52863   2.795   4.925  10.167 -1.7431  0.1290  1.0675
  392MOL0     H52864   2.766   4.848  10.011  0.6743 -0.1341  0.0006
  392MOL0     H52865   2.601   4.722  10.080 -0.9523 -1.1456  1.0225
  392MOL0     H52866   2.639   4.721  10.259  1.7090  1.8687  1.5662
  392MOL0     H52867   2.582   4.970  10.264  3.5268 -2.8592  0.3156
  392MOL0     H52868   2.509   4.953  10.099  0.9832  1.2083  0.5964
  392MOL0     H52869   2.420   4.777  10.315  0.7440  0.0204 -1.9765
  392MOL0     H52870   2.344   4.808  10.164  0.7327  0.5959 -0.3641
  392MOL0     H52871   2.198   4.847  10.469  2.2158 -0.8564  0.0764
  392MOL0     H52872   2.116   5.009  10.643 -0.6605 -1.7733 -1.0329
  392MOL0     H52873   2.155   5.182  10.596 -0.9554 -0.6009  1.0575
  392MOL0     H52874   1.920   5.020  10.500  1.0385  0.8088 -1.4940
  392MOL0     H52875   1.965   5.189  10.457  3.3212  3.0773  2.0170
  392MOL0     H52876   1.943   5.261  10.688  0.5765  0.0685 -1.0557
  392MOL0     H52877   1.901   5.093  10.740 -0.9661  0.1281 -0.5325
  392MOL0     H52878   1.743   5.243  10.526  2.1306  3.6412  1.1497
  392MOL0     H52879   1.704   5.263  10.696 -0.3074 -0.1114 -0.2326
  392MOL0     H52880   1.530   5.250  10.478 -3.2259  0.8626  0.5586
  392MOL0     H52881   1.319   5.311  10.388 -0.9916 -0.5903  0.5921
  392MOL0     H52882   1.359   5.226  10.227 -1.9396 -2.0611 -0.7589
  392MOL0     H52883   1.215   5.201  10.312  0.1680 -1.4825 -1.5070
  392MOL0     H52884   1.092   4.540  10.382  0.0227  1.2197 -0.6808
  392MOL0     H52885   0.884   4.450  10.386  3.2022 -0.7051 -1.7327
  392MOL0     H52886   0.639   4.421  10.360 -2.2186 -0.9145 -0.4519
  392MOL0     H52887   0.682   4.413  10.533 -1.8714 -1.9924  0.0339
  392MOL0     H52888   0.455   4.350  10.535  1.7884 -1.1152 -1.9916
  392MOL0     H52889   0.445   4.529  10.561 -0.7416 -0.3820  1.3359
  392MOL0     H52890   0.427   4.368  10.302  0.0926  0.7421 -0.6154
  392MOL0     H52891   0.429   4.539  10.299 -0.8433 -1.5836 -2.3151
  392MOL0     H52892   0.203   4.396  10.454 -1.7801  0.4329 -0.8803
  392MOL0     H52893   0.243   4.575  10.433  1.9120  0.2361  1.7301
  392MOL0     H52894   0.207   4.386  10.201  0.0041 -0.6916  1.3491
  392MOL0     H52895   0.177   4.554  10.196  1.2092  0.0729  0.7518
  392MOL0     H52896  -0.041   4.421  10.196 -1.1319 -0.5430 -0.0128
  392MOL0     H52897  -0.010   4.344  10.338  0.2167 -1.1571 -2.6967
  392MOL0     H52898  -0.052   4.642  10.311 -1.3093  0.3938 -1.3822
  392MOL0     H52899   0.004   4.564  10.461 -0.0734 -3.6249 -0.3253
  392MOL0     H52900  -0.239   4.578  10.508 -0.4707  2.6968 -2.0201
  392MOL0     H52901  -0.209   4.415  10.442 -1.3136  0.5130  2.4706
  392MOL0     H52902   0.726   4.838  10.497  1.5323  0.4266  1.5802
  392MOL0     H52903   0.947   4.940  10.450  2.1197  0.1961 -0.8706
  392MOL0     H52904   1.386   4.778  10.520 -1.1574  0.6028 -0.6617
  392MOL0     H52905   1.574   4.842  10.612 -2.9766  0.6301  1.3241
  392MOL0     H52906   3.399   4.743   9.813 -1.8473 -2.2725  0.8199
  392MOL0     H52907   3.616   4.794   9.716  1.8835  0.0300  0.5472
  392MOL0     H52908   4.004   4.987   9.807 -2.1182 -1.7271 -1.1808
  392MOL0     H52909   4.240   5.066   9.772 -2.4718  0.5661  1.4984
  392MOL0     H52910   4.533   4.797   9.753  1.9222  1.2814  1.6762
  392MOL0     H52911   4.538   4.811   9.565 -0.1825  1.9271 -1.8509
  392MOL0     H52912   4.683   5.022   9.715  0.1867  0.8483 -2.0631
  392MOL0     H52913   4.711   4.954   9.568  1.4928 -0.1663  0.2928
  392MOL0     H52914   4.782   4.835   9.831  0.0887  0.7142 -0.8646
  392MOL0     H52915   4.889   4.898   9.721  2.1439 -2.5723 -0.8680
  392MOL0     H52916   4.849   4.692   9.562  0.2842 -2.1719  0.1662
  392MOL0     H52917   4.714   4.657   9.666 -0.5185  3.4189  0.0065
  392MOL0     H52918   5.044   4.482   9.870 -0.8148  2.0503  3.7155
  392MOL0     H52919   4.349   4.691   9.602  0.1035 -0.2552  0.3389
  392MOL0     H52920   4.111   4.622   9.612 -2.1538 -0.1124  1.7363
  393MOL0     O52921   9.398  10.424   0.960 -0.6098 -0.3396  0.0996
  393MOL0     C52922   9.502  10.424   1.030 -0.1744 -0.3862 -0.1192
  393MOL0     O52923   9.527  10.331   1.132 -0.0372 -0.5782 -0.2035
  393MOL0     C52924   9.429  10.252   1.190 -0.2824 -0.9679 -0.5193
  393MOL0     C52925   9.486  10.160   1.278 -0.3309 -0.2375 -1.5742
  393MOL0     C52926   9.406  10.078   1.361  0.1389  1.0562 -0.4773
  393MOL0     C52927   9.263  10.079   1.346  0.1856  0.3692 -1.3775
  393MOL0     O52928   9.191   9.988   1.420  0.6315  0.0647 -0.3164
  393MOL0     C52929   9.081  10.039   1.487  0.7205 -0.1335 -0.1243
  393MOL0     C52930   9.021   9.929   1.570  0.1492 -0.1059  0.4458
  393MOL0     C52931   8.931   9.847   1.474 -0.0960 -0.1351 -0.1531
  393MOL0     C52932   8.879   9.718   1.538 -0.3842  0.0428  0.2982
  393MOL0     C52933   8.792   9.746   1.663 -0.3855  0.1561 -0.1751
  393MOL0     C52934   8.728   9.620   1.710 -0.0237 -0.4464 -0.0297
  393MOL0     C52935   8.604   9.644   1.798 -0.2374  0.6159 -0.2584
  393MOL0     C52936   8.513   9.521   1.805 -0.1951  0.8837  0.1796
  393MOL0     N52937   8.399   9.548   1.901 -0.3812 -0.3184 -0.1922
  393MOL0     C52938   8.415   9.579   2.031  0.6697  0.9997  0.1266
  393MOL0     C52939   8.295   9.629   2.077 -0.2661  0.7468 -0.6719
  393MOL0     C52940   8.250   9.666   2.218  0.2482 -0.3082 -0.2744
  393MOL0     C52941   8.162   9.560   2.280  1.0641  0.3166  0.2512
  393MOL0     C52942   8.114   9.618   2.407  0.1563  0.3185  0.1048
  393MOL0     C52943   7.986   9.549   2.457 -0.5606 -0.1628  0.2178
  393MOL0     O52944   7.933   9.598   2.578  0.2835  0.2827  0.0734
  393MOL0     C52945   7.807   9.547   2.610 -0.3508 -0.2539  0.1364
  393MOL0     C52946   7.732   9.627   2.687 -0.3873  0.1190  0.4401
  393MOL0     C52947   7.607   9.593   2.742  0.6886  0.7582  0.3427
  393MOL0     C52948   7.538   9.685   2.840 -0.3464  0.0727 -0.0253
  393MOL0     C52949   7.550   9.474   2.697  0.6952  0.3239  0.4792
  393MOL0     C52950   7.409   9.430   2.722 -0.5265 -0.0928 -0.0584
  393MOL0     O52951   7.360   9.357   2.624 -0.1479 -0.4954 -1.6616
  393MOL0     C52952   7.239   9.307   2.637  0.3836  0.0516 -0.4716
  393MOL0     C52953   7.130   9.378   2.688 -0.2787  0.3661 -0.7888
  393MOL0     C52954   7.005   9.323   2.697 -0.0168 -0.2430 -0.4937
  393MOL0     C52955   6.982   9.194   2.662  0.3920 -0.4489  0.9010
  393MOL0     O52956   6.852   9.157   2.664  0.6585  0.6589  0.7082
  393MOL0     C52957   6.811   9.045   2.578  0.5881  0.8018 -0.0634
  393MOL0     C52958   6.664   9.061   2.552 -0.0261 -0.6247  0.1749
  393MOL0     C52959   6.597   8.944   2.481 -0.6547  0.3704 -0.2176
  393MOL0     C52960   6.453   8.988   2.442 -0.7366 -0.0106  0.4694
  393MOL0     C52961   6.396   8.873   2.354  0.7016  0.1847 -0.3543
  393MOL0     C52962   6.261   8.904   2.288  1.3115  0.8003 -1.0002
  393MOL0     C52963   6.274   8.999   2.174 -0.4116  0.0459  0.6322
  393MOL0     C52964   6.145   9.009   2.078  0.8420  0.7445 -0.7508
  393MOL0    Cl52965   6.015   9.058   2.190 -0.0583 -0.0815 -0.4363
  393MOL0     C52966   7.087   9.122   2.605  0.0624  0.9209 -0.5738
  393MOL0     C52967   7.215   9.172   2.602 -0.2911 -0.4656 -0.1898
  393MOL0     O52968   7.365   9.442   2.834 -0.5695 -0.0796  0.0261
  393MOL0     C52969   7.637   9.384   2.635 -1.1076  0.0321  0.2000
  393MOL0     C52970   7.760   9.421   2.586  0.1308  0.2894  0.3789
  393MOL0     N52971   8.208   9.640   1.963  0.2059  0.6746  0.0890
  393MOL0     N52972   8.269   9.590   1.861 -0.4974  0.8272 -0.3349
  393MOL0     C52973   9.211  10.183   1.253 -0.6590  0.1836 -0.3807
  393MOL0     C52974   9.291  10.269   1.178  0.4324  0.0280 -0.5538
  393MOL0     C52975   9.608  10.518   1.012  0.4745  0.5275  0.9128
  393MOL0     C52976   9.706  10.544   1.103 -0.1256 -0.1071 -0.3686
  393MOL0     C52977   9.804  10.641   1.074 -0.0029  0.6353 -0.4902
  393MOL0     C52978   9.827  10.702   0.949  0.2532  0.0989  0.3730
  393MOL0     O52979   9.938  10.783   0.912  0.3721  0.2467 -0.3526
  393MOL0     C52980  10.019  10.824   1.025  0.0847 -0.2700 -0.6280
  393MOL0     C52981   9.948  10.936   1.109 -0.5971  0.2096 -0.5103
  393MOL0     C52982   9.880  11.049   1.033 -0.4057  0.2192  0.2316
  393MOL0     C52983   9.788  11.133   1.128  0.3948  1.0822  0.7670
  393MOL0     C52984   9.668  11.048   1.168  0.0307 -0.2087  0.7343
  393MOL0     C52985   9.577  10.975   1.194  0.0424 -0.5636  0.5310
  393MOL0     C52986   9.731  10.674   0.854 -0.6782 -0.4025  0.4851
  393MOL0     C52987   9.629  10.581   0.883 -0.1837 -0.4293  0.1468
  393MOL0     H52988   9.593  10.152   1.294 -0.8026 -4.0065  1.2615
  393MOL0     H52989   9.456  10.006   1.425  0.3814 -1.0468 -2.8472
  393MOL0     H52990   9.120  10.124   1.544  0.2777  1.6348 -2.2803
  393MOL0     H52991   9.009  10.073   1.412  0.4024  0.4261  0.4261
  393MOL0     H52992   9.099   9.869   1.619 -0.0882 -0.0798  0.8632
  393MOL0     H52993   8.966   9.973   1.654 -2.8001  1.3141 -2.0377
  393MOL0     H52994   8.847   9.900   1.428 -1.8490 -1.3372  1.4808
  393MOL0     H52995   8.988   9.805   1.390 -1.9953 -2.7706 -0.2894
  393MOL0     H52996   8.815   9.666   1.466  0.7149 -2.8036  1.2363
  393MOL0     H52997   8.961   9.652   1.567  2.3874  2.4687 -1.5033
  393MOL0     H52998   8.861   9.780   1.741 -1.5328 -1.1394  1.4860
  393MOL0     H52999   8.723   9.828   1.642 -2.4421 -1.0635  1.3918
  393MOL0     H53000   8.683   9.573   1.623  1.1238  2.4117 -2.3607
  393MOL0     H53001   8.801   9.555   1.760  0.6689  0.1752 -0.2092
  393MOL0     H53002   8.633   9.676   1.898 -0.8062  0.8410 -0.1623
  393MOL0     H53003   8.558   9.731   1.752  2.4646  1.8943 -0.7759
  393MOL0     H53004   8.571   9.431   1.829 -0.4780  0.3170 -1.1712
  393MOL0     H53005   8.471   9.511   1.705  0.3912  3.5104 -0.4018
  393MOL0     H53006   8.506   9.561   2.088 -0.3226 -1.2615  1.1200
  393MOL0     H53007   8.331   9.683   2.289  0.4717  0.2698 -0.6542
  393MOL0     H53008   8.195   9.760   2.205  1.6120  0.4321 -0.8375
  393MOL0     H53009   8.206   9.461   2.300  0.3043 -0.0801 -0.0101
  393MOL0     H53010   8.082   9.526   2.215  1.1263  0.0774  0.2956
  393MOL0     H53011   8.101   9.726   2.390  1.7956  0.4449 -0.4737
  393MOL0     H53012   8.197   9.610   2.478 -0.8807 -1.3707  1.2123
  393MOL0     H53013   7.999   9.442   2.472  1.6576  0.4954  4.6870
  393MOL0     H53014   7.920   9.559   2.371 -1.0873  0.4659  0.6853
  393MOL0     H53015   7.781   9.718   2.720  1.7121 -0.6206 -0.4742
  393MOL0     H53016   7.521   9.631   2.934  0.8501 -0.6139 -0.1877
  393MOL0     H53017   7.596   9.775   2.863  2.3954 -1.6329  0.1921
  393MOL0     H53018   7.444   9.713   2.791 -0.5111 -0.2852  0.0821
  393MOL0     H53019   7.151   9.480   2.718  2.1131 -0.1212 -0.6256
  393MOL0     H53020   6.921   9.386   2.724  0.0626 -0.0468 -0.7035
  393MOL0     H53021   6.858   9.043   2.479 -3.4510 -1.2312 -2.1765
  393MOL0     H53022   6.829   8.947   2.624  1.8444  0.5748 -0.9897
  393MOL0     H53023   6.626   9.073   2.653 -1.2220 -1.8682 -0.1011
  393MOL0     H53024   6.647   9.146   2.486 -1.7173 -1.4956 -0.5944
  393MOL0     H53025   6.578   8.855   2.543 -2.7885 -0.1822 -1.5719
  393MOL0     H53026   6.659   8.901   2.402 -0.0432 -0.5512  0.7330
  393MOL0     H53027   6.390   9.001   2.530 -2.8703 -1.1531 -0.7900
  393MOL0     H53028   6.453   9.083   2.388  0.0399 -0.5426 -0.5068
  393MOL0     H53029   6.378   8.788   2.420  0.2763 -0.9543 -1.8869
  393MOL0     H53030   6.470   8.861   2.274  1.6365  0.9169  0.3849
  393MOL0     H53031   6.212   8.812   2.254 -1.6560  2.0048 -0.2083
  393MOL0     H53032   6.192   8.942   2.363  1.4813  4.5127 -2.5030
  393MOL0     H53033   6.356   8.972   2.106  0.0836  0.5106  1.0323
  393MOL0     H53034   6.303   9.098   2.210 -2.0193  0.7168  0.1650
  393MOL0     H53035   6.133   8.909   2.035  3.3724  0.1116 -0.1818
  393MOL0     H53036   6.156   9.089   2.003 -0.0379 -2.1375 -4.2317
  393MOL0     H53037   7.070   9.019   2.573  0.5217 -0.2498  2.5438
  393MOL0     H53038   7.293   9.111   2.558 -1.0292  1.0945 -3.9796
  393MOL0     H53039   7.606   9.285   2.605  1.7008 -0.5077 -1.3013
  393MOL0     H53040   7.806   9.345   2.524 -1.7096 -1.1399  0.6922
  393MOL0     H53041   9.105  10.198   1.237 -0.4063  2.9032 -0.0067
  393MOL0     H53042   9.246  10.341   1.109 -0.0958  1.1113  0.8727
  393MOL0     H53043   9.708  10.489   1.196  0.9430 -0.8599 -0.8210
  393MOL0     H53044   9.861  10.653   1.166 -0.7843 -0.2099  0.1144
  393MOL0     H53045  10.044  10.728   1.072 -1.2252 -0.7718 -0.9052
  393MOL0     H53046  10.111  10.870   0.990  1.4766 -0.6039  2.3153
  393MOL0     H53047  10.034  10.974   1.164 -0.0077  0.3052 -1.4662
  393MOL0     H53048   9.880  10.884   1.177  0.9579 -2.7855 -1.0311
  393MOL0     H53049   9.823  10.999   0.955  0.5688  1.0042 -1.0195
  393MOL0     H53050   9.949  11.119   0.984 -1.2172 -0.6729 -2.3267
  393MOL0     H53051   9.756  11.221   1.071 -0.8874 -1.8708 -3.4822
  393MOL0     H53052   9.835  11.164   1.222  0.5532  1.1600  0.6619
  393MOL0     H53053   9.494  10.913   1.219 -1.3975  1.0947  0.0596
  393MOL0     H53054   9.739  10.721   0.756 -3.1162 -2.4078 -0.7640
  393MOL0     H53055   9.565  10.557   0.799  1.2007 -2.2210 -0.4698
  394MOL0     O53056   6.584  10.491   0.666  0.0630 -0.4838 -0.2110
  394MOL0     C53057   6.635  10.384   0.648  0.5410  0.7351 -0.2482
  394MOL0     O53058   6.567  10.276   0.598 -0.1537  0.6344 -0.2054
  394MOL0     C53059   6.439  10.282   0.545  0.1835 -0.0607  0.1201
  394MOL0     C53060   6.383  10.388   0.475  0.4429  0.3488  1.1406
  394MOL0     C53061   6.253  10.385   0.423 -0.8465 -0.3641  0.0009
  394MOL0     C53062   6.180  10.270   0.436  0.8633  0.1570 -0.6829
  394MOL0     O53063   6.061  10.263   0.370  0.4498 -0.1984  0.1780
  394MOL0     C53064   5.996  10.142   0.356  0.5232 -0.6159  0.6402
  394MOL0     C53065   5.886  10.131   0.250 -0.4944  0.1849  0.5318
  394MOL0     C53066   5.790  10.250   0.263 -0.5048 -0.3744  0.1747
  394MOL0     C53067   5.677  10.228   0.157 -0.4023 -0.6640 -0.4797
  394MOL0     C53068   5.551  10.297   0.201 -0.7621 -0.0382 -0.6820
  394MOL0     C53069   5.558  10.449   0.180  0.6722  0.3316 -0.1199
  394MOL0     C53070   5.426  10.521   0.223 -0.3115 -1.2859  0.9967
  394MOL0     C53071   5.453  10.666   0.217  0.5029 -0.1711  0.3361
  394MOL0     N53072   5.347  10.749   0.286 -0.3572 -0.1376 -0.9997
  394MOL0     C53073   5.215  10.773   0.255  0.3704  0.7158  0.1526
  394MOL0     C53074   5.162  10.848   0.356  0.2572 -0.4378  0.5739
  394MOL0     C53075   5.024  10.905   0.351 -0.2609  0.1538  0.9554
  394MOL0     C53076   4.983  10.994   0.468 -0.0269  0.1545 -0.1567
  394MOL0     C53077   4.830  10.995   0.460  0.9430  0.4058  0.6883
  394MOL0     C53078   4.783  11.103   0.557  0.8132 -0.0682  0.3145
  394MOL0     O53079   4.645  11.116   0.563 -0.6472 -0.5741  0.4272
  394MOL0     C53080   4.582  11.204   0.651  0.4150  0.0233 -0.4794
  394MOL0     C53081   4.638  11.278   0.769 -0.8636  0.2863  0.3816
  394MOL0     C53082   4.561  11.369   0.844  0.7302  0.3772 -1.1912
  394MOL0     C53083   4.621  11.467   0.936 -0.4284 -0.9601 -0.1719
  394MOL0     C53084   4.424  11.371   0.827 -0.3712  0.1661 -0.0484
  394MOL0     C53085   4.322  11.450   0.904  0.0170  0.3224  0.4131
  394MOL0     O53086   4.193  11.437   0.869  0.6671  0.4322  0.5811
  394MOL0     C53087   4.086  11.513   0.913  0.0876  0.1418 -0.1064
  394MOL0     C53088   3.971  11.476   0.855 -0.4219  0.4478  0.4337
  394MOL0     C53089   3.860  11.550   0.887  0.4019 -0.1193 -1.2651
  394MOL0     C53090   3.861  11.668   0.965 -0.0308 -0.0450 -0.4718
  394MOL0     O53091   3.749  11.752   0.996  0.0704 -0.3610  0.5452
  394MOL0     C53092   3.616  11.719   0.956 -0.6942 -0.5530 -0.0460
  394MOL0     C53093   3.530  11.820   1.033  0.1935 -0.3384  0.2889
  394MOL0     C53094   3.379  11.797   0.998 -0.2313  0.4653  0.6985
  394MOL0     C53095   3.294  11.889   1.091 -0.2480 -0.4177  0.2926
  394MOL0     C53096   3.144  11.873   1.064  0.0792 -0.4334 -0.6297
  394MOL0     C53097   3.056  11.974   1.134 -1.3480  0.0708 -0.5494
  394MOL0     C53098   2.932  12.008   1.060  0.0793 -0.1909 -0.1997
  394MOL0     C53099   2.849  11.884   1.027 -0.3645  0.4162 -0.3156
  394MOL0    Cl53100   2.806  11.784   1.164 -0.3151  0.2319 -0.3340
  394MOL0     C53101   3.985  11.703   1.019  0.0610  0.4146  0.0736
  394MOL0     C53102   4.089  11.621   0.998 -1.1720 -0.1599 -0.0484
  394MOL0     O53103   4.359  11.516   1.007 -0.1471 -0.2889 -0.2260
  394MOL0     C53104   4.370  11.297   0.714  0.8225  0.2114 -0.5972
  394MOL0     C53105   4.444  11.212   0.634 -0.5390 -0.9154  0.1839
  394MOL0     N53106   5.262  10.870   0.451 -0.1609  0.6174  0.2603
  394MOL0     N53107   5.367  10.808   0.414  0.8770  0.5834  0.2271
  394MOL0     C53108   6.236  10.158   0.501  1.0001  0.0235  0.7476
  394MOL0     C53109   6.367  10.165   0.548  0.8081 -0.3473 -0.2656
  394MOL0     C53110   6.777  10.363   0.683  0.1282 -0.1415  0.4323
  394MOL0     C53111   6.853  10.455   0.754  0.5842 -0.9311 -0.7347
  394MOL0     C53112   6.989  10.432   0.788 -0.6292 -0.3775  0.5940
  394MOL0     C53113   7.051  10.310   0.747 -0.0438 -0.3755 -0.3617
  394MOL0     O53114   7.179  10.286   0.770 -0.3789 -0.0584 -0.0540
  394MOL0     C53115   7.262  10.373   0.844  0.1270  0.2018 -0.0732
  394MOL0     C53116   7.408  10.296   0.845  0.2625 -0.3277 -0.5925
  394MOL0     C53117   7.466  10.288   0.699 -0.5975  1.1519 -0.1971
  394MOL0     C53118   7.534  10.421   0.653  0.2648  0.0992 -1.1102
  394MOL0     C53119   7.660  10.437   0.737  0.0535  0.5969  0.1788
  394MOL0     C53120   7.757  10.444   0.810  0.1951  0.4909  0.1111
  394MOL0     C53121   6.977  10.219   0.676 -0.2842 -0.4827 -0.4713
  394MOL0     C53122   6.837  10.238   0.642 -0.5196 -0.9401  0.5298
  394MOL0     H53123   6.424  10.488   0.484  0.6493  0.5331 -1.1457
  394MOL0     H53124   6.214  10.470   0.369  2.1418 -0.8707 -3.2831
  394MOL0     H53125   6.067  10.063   0.331  0.1769 -1.3183  1.7718
  394MOL0     H53126   5.956  10.112   0.454  0.0301 -2.5669 -0.1119
  394MOL0     H53127   5.934  10.138   0.152 -1.3075 -0.2589  0.0846
  394MOL0     H53128   5.834  10.035   0.261  1.3078 -1.0305 -0.9983
  394MOL0     H53129   5.746  10.257   0.363 -0.9114 -0.0801 -0.0226
  394MOL0     H53130   5.842  10.346   0.251 -4.1784  1.8029  0.2768
  394MOL0     H53131   5.720  10.252   0.060  3.3377  1.5435  1.4667
  394MOL0     H53132   5.651  10.122   0.160 -0.0638 -0.7809 -1.5676
  394MOL0     H53133   5.460  10.261   0.151 -0.7379 -0.4592 -0.4246
  394MOL0     H53134   5.537  10.273   0.307 -0.1220 -3.2018 -1.2108
  394MOL0     H53135   5.641  10.493   0.235 -0.0469  1.1499  0.3557
  394MOL0     H53136   5.579  10.469   0.074  0.9549 -2.0819 -0.5715
  394MOL0     H53137   5.342  10.488   0.161 -1.1166  1.5531  0.4342
  394MOL0     H53138   5.395  10.504   0.327 -1.1792 -0.5458  0.8692
  394MOL0     H53139   5.456  10.693   0.112 -0.9381  0.1841  0.3769
  394MOL0     H53140   5.554  10.684   0.257  0.1304  1.6554  0.5416
  394MOL0     H53141   5.167  10.741   0.164 -1.4034 -0.1531  1.3485
  394MOL0     H53142   5.004  10.958   0.257  1.4989 -1.5192 -0.4613
  394MOL0     H53143   4.971  10.811   0.337  1.7246 -0.6590 -2.2853
  394MOL0     H53144   5.020  11.097   0.471 -1.3114  0.6137  0.9478
  394MOL0     H53145   5.012  10.938   0.558 -1.2394  2.9095  2.1096
  394MOL0     H53146   4.794  10.898   0.497  3.3147 -1.6121 -1.9181
  394MOL0     H53147   4.782  11.012   0.363 -0.6073 -1.7906  0.9911
  394MOL0     H53148   4.832  11.197   0.528 -0.3709  0.6853  0.6710
  394MOL0     H53149   4.830  11.077   0.652  1.5730 -0.3311 -0.1234
  394MOL0     H53150   4.742  11.272   0.800 -0.8855  2.5723  1.0255
  394MOL0     H53151   4.594  11.569   0.905  1.0362 -0.1459  1.0821
  394MOL0     H53152   4.593  11.460   1.041 -0.8028 -0.5552 -0.2385
  394MOL0     H53153   4.731  11.460   0.936 -0.5572 -4.1475 -0.7507
  394MOL0     H53154   3.969  11.397   0.781  0.7188 -0.7405  1.6164
  394MOL0     H53155   3.769  11.513   0.842 -0.4997  0.0704  0.3533
  394MOL0     H53156   3.609  11.727   0.848  2.8434  0.6348 -0.3302
  394MOL0     H53157   3.586  11.621   0.995 -3.1037  0.8293  1.8650
  394MOL0     H53158   3.552  11.803   1.139 -1.1216 -0.9700  0.4815
  394MOL0     H53159   3.559  11.918   0.994  0.5319 -0.5755 -0.0563
  394MOL0     H53160   3.344  11.696   1.018 -1.7288  1.1933  1.9815
  394MOL0     H53161   3.362  11.822   0.893  1.1179  2.4508  0.8898
  394MOL0     H53162   3.307  11.862   1.196 -2.0088  1.5952  1.1111
  394MOL0     H53163   3.326  11.993   1.082  0.8650 -0.7001  0.8047
  394MOL0     H53164   3.114  11.769   1.080 -0.6386 -0.1927 -0.3565
  394MOL0     H53165   3.128  11.881   0.956 -0.8450  1.6380 -0.3795
  394MOL0     H53166   3.026  11.931   1.230 -2.2210 -1.9911 -1.6916
  394MOL0     H53167   3.105  12.070   1.155  0.5591 -1.4315  2.5269
  394MOL0     H53168   2.961  12.065   0.972 -1.1809 -2.9975 -2.6157
  394MOL0     H53169   2.867  12.057   1.133  1.7700 -0.4810  1.5896
  394MOL0     H53170   2.907  11.818   0.962  1.2093 -0.5094  1.8941
  394MOL0     H53171   2.752  11.919   0.990  0.4378  2.0283 -0.9972
  394MOL0     H53172   3.981  11.793   1.080 -0.5134  0.5004 -0.0768
  394MOL0     H53173   4.179  11.665   1.040 -0.1994  0.7914 -2.9006
  394MOL0     H53174   4.263  11.299   0.699  0.8967 -0.2943 -1.2519
  394MOL0     H53175   4.396  11.176   0.544  0.8535 -0.9273 -0.5765
  394MOL0     H53176   6.183  10.064   0.503  2.7207 -1.0007  0.3194
  394MOL0     H53177   6.404  10.074   0.595 -2.9973 -3.0478 -1.9540
  394MOL0     H53178   6.801  10.545   0.785  1.5250  0.1192 -2.0927
  394MOL0     H53179   7.049  10.499   0.848 -2.5041 -0.7107  3.0095
  394MOL0     H53180   7.274  10.467   0.788  1.3694  0.5560  0.7460
  394MOL0     H53181   7.223  10.395   0.943  1.9819  0.2737  0.6949
  394MOL0     H53182   7.390  10.190   0.866  0.0457  0.0596  1.3935
  394MOL0     H53183   7.470  10.346   0.920 -2.0293  0.2102  1.0757
  394MOL0     H53184   7.388  10.258   0.629 -1.0840  0.9795  0.4107
  394MOL0     H53185   7.544  10.212   0.694 -2.5058 -0.9602  0.3483
  394MOL0     H53186   7.471  10.506   0.680  0.9765 -0.1361  1.5914
  394MOL0     H53187   7.543  10.415   0.544 -2.5023 -0.8857 -1.3456
  394MOL0     H53188   7.837  10.453   0.881 -0.9806 -0.4298  1.6133
  394MOL0     H53189   7.031  10.133   0.639 -0.4542 -0.0665 -1.7422
  394MOL0     H53190   6.801  10.156   0.580  3.0906 -2.1142 -0.2192
  395MOL0     O53191   8.426   0.813   3.291  1.1861  0.4272 -0.0945
  395MOL0     C53192   8.460   0.890   3.200 -0.0631 -0.3406  0.4037
  395MOL0     O53193   8.380   0.948   3.106  0.4016  0.2438  0.4421
  395MOL0     C53194   8.250   0.902   3.099 -0.0055  0.6517 -0.5871
  395MOL0     C53195   8.155   0.945   3.198 -0.0201  0.4169 -0.0248
  395MOL0     C53196   8.017   0.892   3.189 -0.6804 -0.9176 -0.8148
  395MOL0     C53197   7.971   0.824   3.078 -0.2194  0.0451 -0.3667
  395MOL0     O53198   7.834   0.793   3.073  0.3268  1.0125  0.7031
  395MOL0     C53199   7.770   0.798   2.947  0.4557  0.7703 -0.1506
  395MOL0     C53200   7.621   0.758   2.958 -0.1925  0.3787  0.3940
  395MOL0     C53201   7.561   0.720   2.819  0.0942 -0.2723  0.1685
  395MOL0     C53202   7.415   0.690   2.840  0.2534  0.5782 -0.3070
  395MOL0     C53203   7.361   0.645   2.700 -0.0652  0.0108 -0.1641
  395MOL0     C53204   7.210   0.615   2.712 -0.6467  0.1093 -0.6181
  395MOL0     C53205   7.151   0.596   2.574 -0.0034 -0.6600  0.1822
  395MOL0     C53206   7.207   0.480   2.493 -0.7137  0.0307  0.6175
  395MOL0     N53207   7.156   0.479   2.357  0.0129 -0.0204  0.3791
  395MOL0     C53208   7.197   0.562   2.252  0.0903  0.6235  0.6829
  395MOL0     C53209   7.140   0.508   2.142  0.1427  0.8658 -0.0482
  395MOL0     C53210   7.152   0.546   2.002  0.0414 -0.3603 -0.2292
  395MOL0     C53211   7.036   0.622   1.942  0.4179  0.1064  0.2736
  395MOL0     C53212   6.905   0.551   1.963  0.0483 -0.2617 -0.1985
  395MOL0     C53213   6.807   0.589   1.861  0.5431  0.2485  0.3444
  395MOL0     O53214   6.672   0.574   1.908  0.2116 -0.0129  0.4950
  395MOL0     C53215   6.569   0.609   1.827  1.2592 -0.2041  0.0221
  395MOL0     C53216   6.554   0.566   1.700  0.0797  0.1784 -0.0182
  395MOL0     C53217   6.437   0.601   1.630  0.5548 -0.1111  0.2318
  395MOL0     C53218   6.414   0.557   1.485 -0.7564  0.2171  0.6948
  395MOL0     C53219   6.337   0.686   1.688  0.6492  0.4858  0.3954
  395MOL0     C53220   6.207   0.742   1.634  0.4056  0.2734  0.2194
  395MOL0     O53221   6.155   0.855   1.689  0.3161 -0.5830 -0.3417
  395MOL0     C53222   6.042   0.900   1.636  0.0983  0.1194 -0.2083
  395MOL0     C53223   6.049   1.009   1.556 -0.1498  0.1756 -0.0954
  395MOL0     C53224   5.941   1.067   1.494  0.5231 -0.7366 -0.4364
  395MOL0     C53225   5.813   1.007   1.520  0.9372 -0.3230 -0.4598
  395MOL0     O53226   5.698   1.041   1.462 -0.0049  0.6025 -0.7432
  395MOL0     C53227   5.673   1.170   1.412 -0.6628  0.0100  0.2395
  395MOL0     C53228   5.530   1.185   1.343 -0.5063  0.2866  0.8649
  395MOL0     C53229   5.415   1.228   1.433  0.6992  0.2616  0.6905
  395MOL0     C53230   5.278   1.203   1.368  0.0591  0.3273 -0.1029
  395MOL0     C53231   5.167   1.261   1.449  0.3190  0.0959  0.3957
  395MOL0     C53232   5.035   1.235   1.388 -0.2310  0.4942 -0.8686
  395MOL0     C53233   4.932   1.269   1.486  0.1605 -0.1152 -0.0260
  395MOL0     C53234   4.900   1.416   1.488  0.2573 -0.3410 -0.1614
  395MOL0    Cl53235   5.000   1.519   1.590 -0.5096  0.6661 -0.1942
  395MOL0     C53236   5.806   0.896   1.601  0.4195 -0.1539  0.1253
  395MOL0     C53237   5.915   0.840   1.664 -0.3174 -0.1151  0.0091
  395MOL0     O53238   6.159   0.691   1.534 -0.1021  0.4825 -0.4743
  395MOL0     C53239   6.357   0.730   1.820  0.4810  0.3938 -0.4808
  395MOL0     C53240   6.469   0.685   1.889  0.9307  0.1654  0.6195
  395MOL0     N53241   7.044   0.420   2.186 -1.6731 -0.5168 -0.3827
  395MOL0     N53242   7.060   0.404   2.314  0.6424  0.5037  0.2356
  395MOL0     C53243   8.071   0.781   2.986  0.2309 -0.2520  0.8950
  395MOL0     C53244   8.211   0.812   3.001 -0.0904  0.7412  0.2769
  395MOL0     C53245   8.597   0.941   3.213 -0.3926 -0.4154 -0.0910
  395MOL0     C53246   8.662   0.949   3.338  0.2638 -0.4377 -0.7584
  395MOL0     C53247   8.789   1.010   3.337 -0.0552 -0.0310 -0.4272
  395MOL0     C53248   8.855   1.055   3.221  0.0146 -0.1579  0.8477
  395MOL0     O53249   8.985   1.102   3.242  0.2270  0.5294  0.1091
  395MOL0     C53250   9.058   1.164   3.136  0.2750 -0.5895 -0.5985
  395MOL0     C53251   9.197   1.204   3.187 -0.3249  0.5999  0.2559
  395MOL0     C53252   9.204   1.252   3.336 -0.0919  0.5321  0.6570
  395MOL0     C53253   9.353   1.277   3.379 -0.6270 -0.8260 -0.1636
  395MOL0     C53254   9.404   1.381   3.287 -0.3719 -0.4969  0.1581
  395MOL0     C53255   9.469   1.468   3.228 -0.6642 -0.0943 -0.1420
  395MOL0     C53256   8.785   1.039   3.098 -1.0712  0.8306 -0.3418
  395MOL0     C53257   8.660   0.979   3.096 -0.5227 -1.3606  0.3875
  395MOL0     H53258   8.187   1.022   3.268 -1.5663  1.5559 -0.5147
  395MOL0     H53259   7.939   0.910   3.263 -0.4319 -2.0506 -0.2608
  395MOL0     H53260   7.787   0.895   2.899  1.1309  0.5937 -0.2789
  395MOL0     H53261   7.823   0.727   2.882  0.2577 -0.1452  0.6692
  395MOL0     H53262   7.616   0.663   3.012  1.0347  0.8672  1.4069
  395MOL0     H53263   7.567   0.841   3.004 -1.1578 -1.4885  2.8457
  395MOL0     H53264   7.572   0.801   2.745 -1.4624 -0.0654  0.1281
  395MOL0     H53265   7.609   0.629   2.784 -2.2084 -1.6380  0.4141
  395MOL0     H53266   7.397   0.604   2.905  0.0417 -0.8705 -2.1850
  395MOL0     H53267   7.355   0.772   2.878  1.2364  0.4083  1.7247
  395MOL0     H53268   7.369   0.726   2.626  0.3423  0.7794  0.6975
  395MOL0     H53269   7.422   0.556   2.685 -0.2374 -0.0375 -0.5736
  395MOL0     H53270   7.183   0.533   2.780 -3.6006  1.8716  0.5012
  395MOL0     H53271   7.164   0.697   2.767 -0.1920 -0.7230  1.0957
  395MOL0     H53272   7.044   0.578   2.586  0.2246 -3.8505 -1.4493
  395MOL0     H53273   7.176   0.684   2.514 -0.6057 -0.7749 -0.2464
  395MOL0     H53274   7.173   0.383   2.530 -3.2193  0.7335  0.3663
  395MOL0     H53275   7.316   0.484   2.495 -0.4515 -3.5932  1.8832
  395MOL0     H53276   7.266   0.645   2.258  0.6608  0.1035  1.8503
  395MOL0     H53277   7.248   0.596   1.991  1.3866 -1.5150  4.0487
  395MOL0     H53278   7.165   0.452   1.948 -2.7122 -0.0740 -1.5503
  395MOL0     H53279   7.043   0.615   1.833  3.3699 -0.1347  0.3969
  395MOL0     H53280   7.036   0.730   1.956  5.0005  0.3751 -0.2663
  395MOL0     H53281   6.861   0.577   2.060 -0.4771 -0.8943 -0.2583
  395MOL0     H53282   6.922   0.443   1.961  1.5953 -0.0591  0.3245
  395MOL0     H53283   6.824   0.525   1.773  0.6805  0.8821 -0.0917
  395MOL0     H53284   6.810   0.694   1.831  0.2929  0.0491 -0.4075
  395MOL0     H53285   6.630   0.498   1.663 -0.3777 -1.1226  1.3171
  395MOL0     H53286   6.509   0.515   1.449 -0.5034  0.5212  1.0032
  395MOL0     H53287   6.336   0.480   1.482 -0.5905 -0.1235  3.1423
  395MOL0     H53288   6.384   0.645   1.427  2.5250  2.0310  1.5169
  395MOL0     H53289   6.150   1.049   1.553 -0.1893  0.3841  0.9668
  395MOL0     H53290   5.960   1.156   1.436 -0.1964 -0.4319 -0.2101
  395MOL0     H53291   5.681   1.239   1.496 -1.1961  0.4640 -0.0759
  395MOL0     H53292   5.748   1.180   1.333 -0.4796 -1.2692  0.2229
  395MOL0     H53293   5.541   1.257   1.261  3.4663 -1.9174 -0.8298
  395MOL0     H53294   5.489   1.100   1.286 -0.6732  0.4034  0.8098
  395MOL0     H53295   5.414   1.331   1.469 -2.3352 -0.1577  2.0767
  395MOL0     H53296   5.431   1.173   1.526 -1.6788  0.5629  1.3373
  395MOL0     H53297   5.273   1.246   1.268  1.8123 -1.7000 -1.1391
  395MOL0     H53298   5.264   1.095   1.356  3.0818 -0.3586  1.6613
  395MOL0     H53299   5.170   1.370   1.456  2.8402  0.0978  0.2698
  395MOL0     H53300   5.184   1.218   1.548  2.4205 -0.4507 -0.1493
  395MOL0     H53301   5.021   1.274   1.286  0.7601 -0.5560 -1.4272
  395MOL0     H53302   5.026   1.126   1.383  1.8582  0.2163  0.4127
  395MOL0     H53303   4.966   1.240   1.586  0.9771  2.3522  0.4912
  395MOL0     H53304   4.840   1.221   1.452  1.0534 -2.1165  0.2157
  395MOL0     H53305   4.805   1.429   1.541 -0.5940 -4.3199 -0.4091
  395MOL0     H53306   4.890   1.456   1.387 -2.2013  0.9231  0.4931
  395MOL0     H53307   5.704   0.868   1.624  0.1546 -1.2207 -2.0822
  395MOL0     H53308   5.903   0.758   1.733  0.5038  0.0142  0.3149
  395MOL0     H53309   6.288   0.802   1.865  1.0198  1.8140 -1.8708
  395MOL0     H53310   6.489   0.722   1.989  2.7311  1.4351 -0.1560
  395MOL0     H53311   8.038   0.724   2.900  4.0820 -2.2495  0.5037
  395MOL0     H53312   8.279   0.778   2.924  0.2495  1.8149  0.0932
  395MOL0     H53313   8.605   0.916   3.424  1.3697 -0.4348 -0.0073
  395MOL0     H53314   8.832   1.025   3.436 -0.8546  2.5318 -0.4005
  395MOL0     H53315   9.061   1.094   3.052 -2.6739 -0.5213 -0.8442
  395MOL0     H53316   8.998   1.252   3.114  0.7729  0.9198  3.2030
  395MOL0     H53317   9.224   1.288   3.123  0.2496 -0.4860 -0.9839
  395MOL0     H53318   9.267   1.122   3.169 -0.5477 -0.2836  2.8744
  395MOL0     H53319   9.155   1.181   3.404 -0.1557  0.9345  1.0366
  395MOL0     H53320   9.146   1.344   3.349  0.2070  1.0551 -1.4034
  395MOL0     H53321   9.417   1.189   3.374 -0.3593 -0.5904 -0.9013
  395MOL0     H53322   9.361   1.327   3.477 -1.5319  1.2991 -1.1140
  395MOL0     H53323   9.537   1.538   3.184  1.6587 -0.5302  2.4672
  395MOL0     H53324   8.816   1.062   2.997 -3.0309 -0.7832 -1.3873
  395MOL0     H53325   8.608   0.945   3.008 -3.4957 -0.5231  1.7013
  396MOL0     O53326   0.742   2.177   1.008  0.3498  0.4882 -0.2176
  396MOL0     C53327   0.735   2.289   0.960  1.3738 -0.0755 -0.0492
  396MOL0     O53328   0.615   2.343   0.921  0.2104 -0.3661  0.5697
  396MOL0     C53329   0.497   2.275   0.942 -0.3195 -0.1741  0.0449
  396MOL0     C53330   0.378   2.344   0.965  0.4117 -0.0859 -0.6532
  396MOL0     C53331   0.256   2.279   0.983  0.1781 -0.3671 -0.5111
  396MOL0     C53332   0.247   2.140   0.967  0.1707  0.3582  0.5094
  396MOL0     O53333   0.118   2.093   0.991  0.5425 -0.4152  0.7356
  396MOL0     C53334   0.083   1.966   0.929  0.4390  0.0063  0.4938
  396MOL0     C53335   0.119   1.842   1.017 -0.6200  0.3921 -1.0960
  396MOL0     C53336   0.046   1.846   1.156  0.2097 -0.2965  0.8951
  396MOL0     C53337   0.081   1.743   1.255 -0.5709  0.4350 -0.4339
  396MOL0     C53338  -0.008   1.735   1.378  0.2989  0.4796  0.5161
  396MOL0     C53339  -0.135   1.665   1.328  1.1551  0.7289  0.0389
  396MOL0     C53340  -0.215   1.602   1.445  0.5750  0.0693  0.3881
  396MOL0     C53341  -0.347   1.541   1.401 -0.1868 -0.1877  0.0675
  396MOL0     N53342  -0.419   1.498   1.529 -0.1999  0.4877 -0.2679
  396MOL0     C53343  -0.466   1.373   1.554  0.1286  0.1036 -0.3430
  396MOL0     C53344  -0.535   1.372   1.662  0.1212  0.3474 -0.0110
  396MOL0     C53345  -0.614   1.268   1.724 -0.1403 -0.6183  0.4362
  396MOL0     C53346  -0.729   1.204   1.644 -0.3363  0.3040  1.0156
  396MOL0     C53347  -0.820   1.307   1.573  0.5584  0.6702  0.2771
  396MOL0     C53348  -0.891   1.400   1.670  0.2350  0.5438 -0.3085
  396MOL0     O53349  -0.990   1.323   1.741 -0.0259 -0.6182  0.0509
  396MOL0     C53350  -1.102   1.377   1.789 -0.4670 -0.3949  0.1360
  396MOL0     C53351  -1.112   1.509   1.818  0.3898  0.3172  0.4300
  396MOL0     C53352  -1.232   1.556   1.870 -0.3594 -0.6581 -0.4562
  396MOL0     C53353  -1.242   1.706   1.884  0.4174 -0.2458 -0.4230
  396MOL0     C53354  -1.342   1.469   1.903  0.2546 -0.9740 -0.1661
  396MOL0     C53355  -1.471   1.497   1.980  0.9504  0.3560  0.2884
  396MOL0     O53356  -1.587   1.432   1.947  0.1934 -0.3084  0.4256
  396MOL0     C53357  -1.701   1.462   2.024  0.7909  0.2341  0.3969
  396MOL0     C53358  -1.740   1.364   2.101  0.1993 -0.4665 -0.5453
  396MOL0     C53359  -1.854   1.367   2.190  0.8809 -1.1290  1.3666
  396MOL0     C53360  -1.917   1.495   2.194 -0.0552 -0.0065 -0.0146
  396MOL0     O53361  -2.037   1.503   2.264 -0.4893 -0.7229  0.6068
  396MOL0     C53362  -2.060   1.622   2.340 -0.3450  0.1599  0.9739
  396MOL0     C53363  -2.167   1.609   2.447  0.7881 -0.3410 -0.3445
  396MOL0     C53364  -2.303   1.646   2.398 -0.0853 -0.2177 -0.0638
  396MOL0     C53365  -2.401   1.658   2.514 -0.0159 -0.0832  0.1706
  396MOL0     C53366  -2.538   1.704   2.465  0.2512  0.6162 -0.0123
  396MOL0     C53367  -2.646   1.721   2.575 -0.0640  0.1801  0.3472
  396MOL0     C53368  -2.780   1.755   2.513  0.7471 -0.1998  0.1308
  396MOL0     C53369  -2.882   1.801   2.617  0.1889  0.6485 -0.0604
  396MOL0    Cl53370  -3.042   1.780   2.540  0.1742 -0.3431  0.1598
  396MOL0     C53371  -1.865   1.608   2.121  0.0522 -0.2419 -0.3184
  396MOL0     C53372  -1.753   1.591   2.037  0.0075 -0.2730  0.3624
  396MOL0     O53373  -1.458   1.576   2.070  0.2393  0.4089 -0.9295
  396MOL0     C53374  -1.327   1.334   1.876 -0.0348 -0.0662  0.0640
  396MOL0     C53375  -1.202   1.286   1.820 -0.1697 -0.7377 -0.7028
  396MOL0     N53376  -0.548   1.506   1.702  1.1463 -0.3467  0.1405
  396MOL0     N53377  -0.474   1.576   1.619 -0.1690  0.5696 -0.2138
  396MOL0     C53378   0.362   2.069   0.917  0.7764  0.0343 -0.0886
  396MOL0     C53379   0.479   2.142   0.910  0.0716  0.3882  0.0166
  396MOL0     C53380   0.853   2.364   0.923  0.0632  0.1608  1.0506
  396MOL0     C53381   0.979   2.307   0.936 -0.1411  0.9337  0.3531
  396MOL0     C53382   1.089   2.372   0.887 -1.3413 -0.4560 -0.2848
  396MOL0     C53383   1.082   2.492   0.816  0.0667  0.2901  0.0088
  396MOL0     O53384   1.201   2.540   0.764 -0.6184 -0.0802  0.1153
  396MOL0     C53385   1.212   2.677   0.725 -0.7013 -0.7534 -0.1802
  396MOL0     C53386   1.236   2.768   0.847 -0.3573  0.5422  0.7288
  396MOL0     C53387   1.346   2.878   0.823 -0.5427 -0.7224 -0.3605
  396MOL0     C53388   1.377   2.952   0.955  0.5371  0.0325  0.6059
  396MOL0     C53389   1.500   3.032   0.939 -0.5670 -0.5635  0.6034
  396MOL0     C53390   1.590   3.109   0.916 -0.3426  0.0136  0.5829
  396MOL0     C53391   0.951   2.550   0.805 -0.2352  0.2824 -0.9215
  396MOL0     C53392   0.840   2.485   0.855 -0.4689 -0.8400  0.0680
  396MOL0     H53393   0.387   2.451   0.981  1.0740 -0.3145  0.6933
  396MOL0     H53394   0.172   2.339   1.016  2.5475  1.4092  2.8296
  396MOL0     H53395  -0.024   1.941   0.928  0.0271  1.6615  0.9409
  396MOL0     H53396   0.124   1.970   0.828 -3.9986  3.2530 -1.5232
  396MOL0     H53397   0.101   1.749   0.962  1.6604  0.5493 -2.2358
  396MOL0     H53398   0.226   1.838   1.040 -1.0127  0.3860  0.9264
  396MOL0     H53399   0.051   1.948   1.194 -0.3051  0.9696 -2.0926
  396MOL0     H53400  -0.059   1.835   1.129 -0.2150  0.6395  2.1020
  396MOL0     H53401   0.087   1.647   1.203  2.6227  0.3845 -0.2010
  396MOL0     H53402   0.183   1.762   1.289  0.0746  0.2167 -2.1404
  396MOL0     H53403   0.029   1.669   1.456 -3.5383 -5.0318 -1.6481
  396MOL0     H53404  -0.020   1.831   1.427  0.1265  0.9206 -0.3652
  396MOL0     H53405  -0.199   1.734   1.273  1.3898  0.0608 -1.1010
  396MOL0     H53406  -0.109   1.583   1.261 -1.3392 -1.6073  1.6967
  396MOL0     H53407  -0.158   1.521   1.492  0.2452  0.3234  1.2365
  396MOL0     H53408  -0.225   1.681   1.520 -0.2175  0.2010  0.1561
  396MOL0     H53409  -0.334   1.457   1.332 -1.1805  1.1774 -1.8995
  396MOL0     H53410  -0.398   1.612   1.334  1.6448  1.0560 -0.0906
  396MOL0     H53411  -0.448   1.275   1.510 -0.2895 -1.0121  1.8395
  396MOL0     H53412  -0.542   1.187   1.741 -1.8879 -2.4646 -0.4736
  396MOL0     H53413  -0.650   1.299   1.823 -1.5148  1.0589 -0.5453
  396MOL0     H53414  -0.778   1.125   1.702 -1.1055 -0.8803 -1.1378
  396MOL0     H53415  -0.681   1.142   1.568 -1.4280 -0.5886  1.0243
  396MOL0     H53416  -0.885   1.237   1.520  1.2761  0.8220 -0.8401
  396MOL0     H53417  -0.763   1.370   1.504 -1.7418  1.1155 -1.3101
  396MOL0     H53418  -0.953   1.473   1.617 -1.2249 -0.6147 -0.2513
  396MOL0     H53419  -0.818   1.456   1.730  0.8310 -0.4035 -0.1236
  396MOL0     H53420  -1.040   1.587   1.797  2.3250 -1.6402 -0.6637
  396MOL0     H53421  -1.347   1.734   1.884  0.1682 -1.1476 -0.5045
  396MOL0     H53422  -1.206   1.738   1.983  0.0156 -0.0790 -0.3287
  396MOL0     H53423  -1.197   1.755   1.798 -1.2571 -0.8327 -1.6776
  396MOL0     H53424  -1.676   1.277   2.087  3.4654  1.6816  0.0422
  396MOL0     H53425  -1.889   1.282   2.247  0.8719 -2.0288  0.0590
  396MOL0     H53426  -1.967   1.642   2.393  0.1097  2.6620 -0.6152
  396MOL0     H53427  -2.086   1.703   2.271 -1.1347 -0.3591  0.6457
  396MOL0     H53428  -2.165   1.504   2.478  0.2933 -0.3249 -0.2412
  396MOL0     H53429  -2.137   1.675   2.529  0.7765  0.1031 -0.6923
  396MOL0     H53430  -2.337   1.571   2.325  1.0542 -1.8468  1.0149
  396MOL0     H53431  -2.303   1.743   2.347  0.8429  0.6357  1.4879
  396MOL0     H53432  -2.406   1.563   2.568 -0.6605 -0.3352 -0.3161
  396MOL0     H53433  -2.355   1.737   2.574 -2.1284  1.5380 -0.2090
  396MOL0     H53434  -2.582   1.631   2.397  0.5684  0.4893 -0.0857
  396MOL0     H53435  -2.525   1.795   2.407 -1.4818  0.8896 -0.0078
  396MOL0     H53436  -2.656   1.630   2.635 -0.3343 -1.7667 -2.4658
  396MOL0     H53437  -2.615   1.803   2.640  0.5439  1.2288 -1.2214
  396MOL0     H53438  -2.816   1.659   2.474  2.9407 -0.4437 -1.4577
  396MOL0     H53439  -2.776   1.831   2.435  1.0519  1.0790  1.3441
  396MOL0     H53440  -2.863   1.906   2.640  0.4717  0.5580  0.1150
  396MOL0     H53441  -2.886   1.743   2.709  0.0277 -1.4960 -1.3384
  396MOL0     H53442  -1.892   1.713   2.118  0.5971 -0.0965 -0.2713
  396MOL0     H53443  -1.727   1.671   1.969  1.4662 -1.5293 -0.6267
  396MOL0     H53444  -1.397   1.255   1.903 -1.4979  1.8913  2.6144
  396MOL0     H53445  -1.193   1.178   1.809 -0.3155 -0.7659 -0.5615
  396MOL0     H53446   0.346   1.965   0.889  2.2312  0.3394 -2.2874
  396MOL0     H53447   0.561   2.074   0.886 -0.2016 -0.3696  1.1422
  396MOL0     H53448   0.991   2.217   0.995  0.7484  0.7816 -0.0373
  396MOL0     H53449   1.186   2.323   0.895 -1.4151 -0.5834 -0.1615
  396MOL0     H53450   1.295   2.695   0.656 -2.5588  0.8633 -2.1050
  396MOL0     H53451   1.132   2.702   0.655  0.6157 -1.0521 -1.8733
  396MOL0     H53452   1.263   2.702   0.930 -0.4088 -0.1190  0.2202
  396MOL0     H53453   1.143   2.821   0.871 -1.6623 -1.4823  0.3910
  396MOL0     H53454   1.315   2.946   0.743  0.7218  0.0159 -0.2461
  396MOL0     H53455   1.445   2.836   0.801 -0.5721 -0.7394 -0.4619
  396MOL0     H53456   1.410   2.876   1.026  2.1503  1.3543  1.3520
  396MOL0     H53457   1.289   3.003   0.995 -0.7104 -2.3707  1.0669
  396MOL0     H53458   1.651   3.184   0.870 -0.6047  0.9511  1.6944
  396MOL0     H53459   0.942   2.644   0.752 -2.4804  0.4262 -0.3958
  396MOL0     H53460   0.743   2.532   0.843  0.8968  1.9409 -0.8860
  397MOL0     O53461   0.176   7.965   8.463 -0.8852  0.2869 -0.0531
  397MOL0     C53462   0.237   7.945   8.358 -0.7056  0.8961 -0.6233
  397MOL0     O53463   0.186   7.883   8.243 -0.8985  0.3242 -0.2733
  397MOL0     C53464   0.057   7.847   8.229  0.1168 -0.3851  0.1085
  397MOL0     C53465  -0.006   7.776   8.322  0.2620  0.8242  0.0024
  397MOL0     C53466  -0.142   7.741   8.313  0.2874 -0.0721  0.3133
  397MOL0     C53467  -0.215   7.782   8.201 -0.3358  0.4583 -0.0688
  397MOL0     O53468  -0.347   7.752   8.189  0.5380  0.0783  0.4786
  397MOL0     C53469  -0.449   7.851   8.181 -0.3452 -0.2015  0.5260
  397MOL0     C53470  -0.583   7.785   8.181 -0.2150 -0.1447 -0.1938
  397MOL0     C53471  -0.685   7.901   8.152 -0.1517 -0.0413  0.1732
  397MOL0     C53472  -0.812   7.833   8.114  0.2480  0.1363  0.1391
  397MOL0     C53473  -0.921   7.946   8.108 -0.2245  0.3781 -0.5392
  397MOL0     C53474  -1.049   7.877   8.075 -0.3977  0.4413  0.1584
  397MOL0     C53475  -1.166   7.979   8.090  0.2968 -0.1585 -0.2525
  397MOL0     C53476  -1.293   7.919   8.026  0.5698 -0.3968  0.4805
  397MOL0     N53477  -1.402   8.019   8.016 -0.5129  0.2782  0.4035
  397MOL0     C53478  -1.447   8.079   7.902 -0.4650 -0.0081 -0.1045
  397MOL0     C53479  -1.532   8.174   7.958 -0.3220 -0.2919  0.7611
  397MOL0     C53480  -1.620   8.254   7.873  0.4453 -0.9913  0.6800
  397MOL0     C53481  -1.762   8.194   7.858 -0.6971  0.4057  0.7601
  397MOL0     C53482  -1.843   8.278   7.755 -0.3688 -0.0253 -0.5962
  397MOL0     C53483  -1.969   8.203   7.718 -0.1423 -0.0709  0.0202
  397MOL0     O53484  -2.003   8.286   7.610  0.0764 -0.0349 -0.0164
  397MOL0     C53485  -2.135   8.265   7.565  0.3478 -0.0158 -0.5855
  397MOL0     C53486  -2.229   8.171   7.621 -0.0592 -0.2231  1.0612
  397MOL0     C53487  -2.359   8.169   7.578 -0.1208 -0.2028  0.4390
  397MOL0     C53488  -2.455   8.078   7.658  0.5254 -0.1519  0.3307
  397MOL0     C53489  -2.393   8.239   7.459  0.1084 -0.0584  0.0313
  397MOL0     C53490  -2.531   8.226   7.393  0.4569 -0.0751  0.3329
  397MOL0     O53491  -2.554   8.314   7.297 -0.3381  0.2458  0.2554
  397MOL0     C53492  -2.642   8.277   7.195  0.6145 -0.8885 -0.2656
  397MOL0     C53493  -2.666   8.146   7.139 -0.2088 -1.4136  0.4872
  397MOL0     C53494  -2.756   8.126   7.032  1.1694  0.6393 -0.1555
  397MOL0     C53495  -2.827   8.230   6.968  0.1771  0.4671 -0.7779
  397MOL0     O53496  -2.919   8.221   6.864 -0.7322 -0.3434  0.4839
  397MOL0     C53497  -2.918   8.097   6.797  0.8979  0.0869 -0.0201
  397MOL0     C53498  -3.018   8.096   6.684 -0.3390 -0.1319 -0.8484
  397MOL0     C53499  -3.163   8.092   6.729  0.2520  0.8767  0.3433
  397MOL0     C53500  -3.256   8.104   6.612 -0.4570  0.0266 -0.0957
  397MOL0     C53501  -3.398   8.088   6.656 -0.0048  0.1670  0.2991
  397MOL0     C53502  -3.451   8.204   6.737 -0.2659  0.4043 -0.4697
  397MOL0     C53503  -3.592   8.184   6.791  0.6968  0.2698  0.4766
  397MOL0     C53504  -3.648   8.314   6.860 -1.1775 -0.4694  1.1077
  397MOL0    Cl53505  -3.791   8.269   6.967  0.1272 -0.0031  0.0765
  397MOL0     C53506  -2.807   8.362   7.024  0.6779  0.6495 -0.0366
  397MOL0     C53507  -2.711   8.384   7.131  0.3836  0.9818  0.8519
  397MOL0     O53508  -2.602   8.134   7.427 -0.3999  0.0896  0.5121
  397MOL0     C53509  -2.299   8.322   7.402  0.1387  0.1081 -0.1186
  397MOL0     C53510  -2.171   8.329   7.445  0.4377  0.1870 -0.8581
  397MOL0     N53511  -1.534   8.163   8.097  0.1782  0.6037  0.3451
  397MOL0     N53512  -1.455   8.066   8.127  0.4368 -0.1304 -1.0480
  397MOL0     C53513  -0.154   7.866   8.100 -0.2170 -0.0715 -0.1701
  397MOL0     C53514  -0.015   7.897   8.116 -1.0062  0.2162  0.0310
  397MOL0     C53515   0.384   7.986   8.355  0.2258  0.6895  0.5869
  397MOL0     C53516   0.417   8.075   8.456  0.6580 -1.0065  0.2246
  397MOL0     C53517   0.544   8.126   8.468 -0.7537 -0.4324  0.7943
  397MOL0     C53518   0.643   8.078   8.377 -0.2288 -0.3923 -0.4608
  397MOL0     O53519   0.765   8.124   8.410  0.0554 -0.2378 -0.1357
  397MOL0     C53520   0.866   8.092   8.315 -0.5628  0.5507 -0.6191
  397MOL0     C53521   1.000   8.130   8.379  0.1089 -0.0141 -0.5195
  397MOL0     C53522   1.116   8.089   8.284  0.4176 -0.4722 -0.1368
  397MOL0     C53523   1.247   8.056   8.359 -1.3679 -0.1629 -0.8167
  397MOL0     C53524   1.371   8.083   8.276  0.4292  0.3185 -0.9795
  397MOL0     C53525   1.465   8.113   8.206 -0.7524  0.3364  0.5132
  397MOL0     C53526   0.608   7.994   8.266 -0.0403 -0.2391  0.0507
  397MOL0     C53527   0.471   7.950   8.252 -0.1345 -0.2646  0.3214
  397MOL0     H53528   0.046   7.748   8.413  3.1223  1.0781 -1.4373
  397MOL0     H53529  -0.192   7.678   8.386  0.5585 -1.9718 -1.0648
  397MOL0     H53530  -0.446   7.918   8.267 -0.5135 -2.1273  2.1150
  397MOL0     H53531  -0.431   7.915   8.094  2.5692  4.0535  3.8414
  397MOL0     H53532  -0.579   7.715   8.097  0.2667  0.8017 -0.9782
  397MOL0     H53533  -0.609   7.727   8.270 -1.9822  1.0927  0.1623
  397MOL0     H53534  -0.699   7.959   8.243  2.7416  1.2969 -0.1368
  397MOL0     H53535  -0.646   7.963   8.071  0.9340  1.4237  1.7464
  397MOL0     H53536  -0.792   7.779   8.020  1.4221  2.1039 -0.8011
  397MOL0     H53537  -0.837   7.753   8.185  2.2766 -0.1871  0.5522
  397MOL0     H53538  -0.929   8.002   8.201 -1.2933 -1.0299  0.2722
  397MOL0     H53539  -0.904   8.016   8.025 -2.0909  1.0870 -0.3720
  397MOL0     H53540  -1.042   7.848   7.970 -0.5536  3.6238 -0.8386
  397MOL0     H53541  -1.068   7.794   8.143 -1.6592  0.8038  0.2668
  397MOL0     H53542  -1.196   8.005   8.192 -0.9144 -0.1042 -0.6158
  397MOL0     H53543  -1.121   8.066   8.040  4.7816 -1.8653  0.3653
  397MOL0     H53544  -1.339   7.843   8.090 -2.3116 -2.2553 -3.3849
  397MOL0     H53545  -1.285   7.883   7.923 -2.3573 -0.0266  0.0431
  397MOL0     H53546  -1.429   8.064   7.796 -0.6279  0.9765 -0.2825
  397MOL0     H53547  -1.637   8.354   7.914  2.0029 -0.2287 -0.4560
  397MOL0     H53548  -1.576   8.268   7.774 -0.6970  0.0747  0.2938
  397MOL0     H53549  -1.817   8.177   7.951 -0.1530  1.5072  1.3014
  397MOL0     H53550  -1.756   8.102   7.799 -3.6474  0.7161 -0.2010
  397MOL0     H53551  -1.785   8.306   7.667  1.1485  4.0987  1.4644
  397MOL0     H53552  -1.878   8.369   7.805 -1.5289 -0.5027 -0.4967
  397MOL0     H53553  -2.042   8.221   7.798 -0.7307  0.3416 -0.5933
  397MOL0     H53554  -1.962   8.099   7.685  1.2820  0.1676 -0.4766
  397MOL0     H53555  -2.202   8.106   7.704  0.3428 -1.7119 -0.1862
  397MOL0     H53556  -2.545   8.135   7.683  1.3776 -0.1392  3.9640
  397MOL0     H53557  -2.473   7.996   7.587  0.9240 -0.1734  0.2534
  397MOL0     H53558  -2.412   8.037   7.750 -0.6266  0.8110  1.3373
  397MOL0     H53559  -2.623   8.057   7.184 -1.6936 -2.5260 -0.2117
  397MOL0     H53560  -2.759   8.022   7.002 -0.7786  0.8455 -0.8483
  397MOL0     H53561  -2.820   8.077   6.751  0.9641  0.8279 -0.2059
  397MOL0     H53562  -2.950   8.015   6.862 -2.1497 -0.4021 -1.9534
  397MOL0     H53563  -3.012   8.192   6.631 -1.7986  2.1399  2.6854
  397MOL0     H53564  -2.998   8.010   6.621 -3.7240 -1.6936 -0.0377
  397MOL0     H53565  -3.181   8.167   6.806  1.6044 -0.5955  2.1783
  397MOL0     H53566  -3.179   7.994   6.775 -0.5195 -1.0212 -3.5254
  397MOL0     H53567  -3.244   8.200   6.561 -1.7274  0.8889  1.1596
  397MOL0     H53568  -3.228   8.033   6.534  1.8759 -0.0794  0.7662
  397MOL0     H53569  -3.408   7.986   6.695 -1.3662 -0.5962 -1.8506
  397MOL0     H53570  -3.467   8.087   6.571 -3.7682 -1.1387  3.0861
  397MOL0     H53571  -3.387   8.237   6.819 -1.9090 -0.1755  1.0999
  397MOL0     H53572  -3.467   8.281   6.660  0.3632 -0.0038 -1.0305
  397MOL0     H53573  -3.588   8.109   6.871 -1.4852 -1.9072 -1.3013
  397MOL0     H53574  -3.664   8.156   6.714 -2.4855  2.7504  2.3234
  397MOL0     H53575  -3.679   8.385   6.782 -1.3172 -0.2066  1.4023
  397MOL0     H53576  -3.577   8.366   6.924 -0.4614  0.3055 -0.2618
  397MOL0     H53577  -2.858   8.447   6.979 -0.7801  0.9123  1.9860
  397MOL0     H53578  -2.701   8.485   7.168  0.5626  1.6444 -0.9232
  397MOL0     H53579  -2.339   8.380   7.319 -2.9090  1.1937  1.9626
  397MOL0     H53580  -2.098   8.391   7.393  0.2993  0.1299 -1.1202
  397MOL0     H53581  -0.208   7.885   8.008 -0.4210  0.4722  0.0563
  397MOL0     H53582   0.043   7.953   8.044 -0.0435 -0.5425  0.2012
  397MOL0     H53583   0.343   8.123   8.519  2.4443  2.8540 -0.3020
  397MOL0     H53584   0.569   8.203   8.540  0.6758 -1.9934  2.0637
  397MOL0     H53585   0.867   7.984   8.295  0.8887  0.2194  1.0520
  397MOL0     H53586   0.849   8.141   8.218 -1.9994 -1.9139 -1.7308
  397MOL0     H53587   1.008   8.085   8.478  1.9946  0.6207 -0.3521
  397MOL0     H53588   0.991   8.239   8.390 -0.5182 -0.0537 -0.5722
  397MOL0     H53589   1.128   8.178   8.222 -0.5173 -1.3930 -1.7137
  397MOL0     H53590   1.081   8.007   8.221  0.7047 -0.9912  0.3740
  397MOL0     H53591   1.251   7.952   8.389  3.2424 -0.1867 -0.8149
  397MOL0     H53592   1.245   8.125   8.444  0.8334  0.6843 -1.3881
  397MOL0     H53593   1.547   8.150   8.147 -1.9757  2.5292  0.0693
  397MOL0     H53594   0.678   7.953   8.194  1.0669 -0.0737  1.0025
  397MOL0     H53595   0.445   7.875   8.178  1.6512  0.3393 -0.9893
  398MOL0     O53596   3.354   8.066   4.813  0.2883  0.2253  0.4572
  398MOL0     C53597   3.347   8.098   4.930 -0.1644  0.1241 -0.1570
  398MOL0     O53598   3.242   8.080   5.020 -0.4038  0.8172  0.5961
  398MOL0     C53599   3.134   8.018   4.971  0.8101  0.0231 -0.0724
  398MOL0     C53600   3.008   8.076   4.993 -0.0006  0.6456 -0.3241
  398MOL0     C53601   2.889   8.016   4.953 -0.2631  0.2242  0.5943
  398MOL0     C53602   2.895   7.887   4.900  0.7061  0.9786  0.2521
  398MOL0     O53603   2.784   7.820   4.865 -1.0682  0.1516  0.5980
  398MOL0     C53604   2.656   7.876   4.852 -0.1650 -0.6158  0.0215
  398MOL0     C53605   2.544   7.778   4.836  0.4756  0.5695 -0.6666
  398MOL0     C53606   2.520   7.689   4.954  1.2861 -0.0160 -0.5697
  398MOL0     C53607   2.382   7.612   4.952  0.0345 -0.7023 -0.4287
  398MOL0     C53608   2.387   7.514   5.072 -0.8988  0.1290 -0.2311
  398MOL0     C53609   2.250   7.460   5.087 -1.0461  0.4402 -0.5096
  398MOL0     C53610   2.230   7.360   5.198 -0.2755  0.4706  0.3193
  398MOL0     C53611   2.284   7.220   5.153 -0.4454 -0.1102 -0.9042
  398MOL0     N53612   2.181   7.129   5.106 -0.0558  0.3557  0.2725
  398MOL0     C53613   2.123   7.136   4.983  0.3177 -0.9816 -0.3813
  398MOL0     C53614   2.024   7.046   5.000 -0.5114 -0.5849 -0.0860
  398MOL0     C53615   1.909   7.023   4.906 -0.7560 -0.4161  0.0125
  398MOL0     C53616   1.814   7.139   4.925  0.0350  0.1272  0.3529
  398MOL0     C53617   1.691   7.116   4.840  0.3260 -0.0020 -0.0782
  398MOL0     C53618   1.636   7.239   4.768  0.4770 -0.1202  0.5486
  398MOL0     O53619   1.517   7.212   4.684  0.7595  0.1219 -0.0143
  398MOL0     C53620   1.465   7.315   4.611 -0.5599 -0.0262  0.4953
  398MOL0     C53621   1.542   7.374   4.509 -0.8582  0.1177  0.2186
  398MOL0     C53622   1.474   7.459   4.416 -0.3314 -0.2871 -0.3059
  398MOL0     C53623   1.577   7.525   4.328  0.0308 -0.2176 -0.7176
  398MOL0     C53624   1.340   7.495   4.441  0.6177  0.0087 -0.2060
  398MOL0     C53625   1.252   7.596   4.361 -0.3363 -0.2392  0.3827
  398MOL0     O53626   1.121   7.604   4.395  0.3742  0.3251 -0.1282
  398MOL0     C53627   1.022   7.693   4.348  0.6634  0.4723 -0.1279
  398MOL0     C53628   1.046   7.815   4.297  0.4501 -0.3202 -0.3607
  398MOL0     C53629   0.946   7.896   4.238 -0.4575  0.2790  0.4232
  398MOL0     C53630   0.806   7.851   4.239  0.2183 -0.1174  0.5717
  398MOL0     O53631   0.694   7.922   4.191 -0.6196  0.1924 -0.3591
  398MOL0     C53632   0.720   8.051   4.129 -0.1502 -0.2549 -0.2188
  398MOL0     C53633   0.589   8.128   4.090 -0.7624  0.5455 -0.2275
  398MOL0     C53634   0.485   8.134   4.204  0.7605  0.1953 -0.0967
  398MOL0     C53635   0.360   8.216   4.167  0.5183  0.7429  0.5234
  398MOL0     C53636   0.252   8.209   4.278 -0.3905 -0.3084  0.2007
  398MOL0     C53637   0.127   8.272   4.220  0.7833 -0.6697 -0.2480
  398MOL0     C53638   0.030   8.331   4.329 -0.4662 -0.1711 -0.1547
  398MOL0     C53639   0.015   8.213   4.438  0.0082 -0.3197 -0.1836
  398MOL0    Cl53640  -0.149   8.218   4.521 -0.4380 -0.0799  0.0086
  398MOL0     C53641   0.784   7.724   4.289 -0.0605  0.1293  0.6152
  398MOL0     C53642   0.884   7.645   4.344 -0.4519  0.8625  0.3954
  398MOL0     O53643   1.304   7.646   4.265  0.0319 -0.0927 -0.1391
  398MOL0     C53644   1.263   7.429   4.541  0.5177  0.8615  0.5051
  398MOL0     C53645   1.327   7.336   4.624 -0.4800 -0.8837 -0.2366
  398MOL0     N53646   2.040   6.966   5.112 -0.2114  0.0805 -0.8080
  398MOL0     N53647   2.129   7.022   5.184  0.0107  0.4023 -0.0741
  398MOL0     C53648   3.015   7.822   4.878 -0.4618 -0.1214 -0.5814
  398MOL0     C53649   3.136   7.887   4.922 -0.8397 -0.6592 -0.2846
  398MOL0     C53650   3.467   8.147   4.998 -0.6534  0.6883 -0.3510
  398MOL0     C53651   3.594   8.148   4.941 -0.2096 -0.4323  0.9027
  398MOL0     C53652   3.708   8.195   5.013  0.2381  0.0432 -0.4545
  398MOL0     C53653   3.706   8.257   5.132  1.4013  0.8247 -0.2364
  398MOL0     O53654   3.818   8.310   5.189 -0.8007 -0.3244 -0.2606
  398MOL0     C53655   3.831   8.366   5.318 -0.3145  0.1974 -1.2530
  398MOL0     C53656   3.830   8.259   5.425  0.0906  0.0035  0.0373
  398MOL0     C53657   3.838   8.315   5.572 -1.0427  0.0661 -0.1699
  398MOL0     C53658   3.835   8.222   5.692  0.4213 -0.2850 -0.0415
  398MOL0     C53659   3.943   8.129   5.672  0.5644  0.1869  0.6028
  398MOL0     C53660   4.021   8.040   5.664 -0.0509 -1.2580  0.0068
  398MOL0     C53661   3.580   8.251   5.192 -0.4072  1.0523 -0.0557
  398MOL0     C53662   3.465   8.202   5.131  0.5909  0.2180  0.3225
  398MOL0     H53663   2.998   8.175   5.037  2.8431  0.5691  0.7322
  398MOL0     H53664   2.804   8.081   4.974 -1.6042 -1.3534  0.2665
  398MOL0     H53665   2.647   7.936   4.943  2.7197  1.6898 -1.0402
  398MOL0     H53666   2.654   7.934   4.759 -2.5433  0.2493  0.5502
  398MOL0     H53667   2.453   7.833   4.812 -0.0347 -0.4426 -1.1099
  398MOL0     H53668   2.574   7.714   4.753 -0.8338 -0.4343 -0.4099
  398MOL0     H53669   2.598   7.614   4.964  1.0740  0.0979  3.0353
  398MOL0     H53670   2.523   7.752   5.043 -2.8932 -1.0233  0.5467
  398MOL0     H53671   2.295   7.679   4.952  2.8032  3.2467 -0.7788
  398MOL0     H53672   2.376   7.562   4.855  1.7835  1.4729 -1.7420
  398MOL0     H53673   2.455   7.429   5.056 -0.6496 -0.2431  2.3539
  398MOL0     H53674   2.414   7.574   5.159 -2.3495  1.1807 -0.4820
  398MOL0     H53675   2.188   7.549   5.100 -1.7707  0.3484 -2.8244
  398MOL0     H53676   2.216   7.418   4.992 -1.5084  1.9225 -1.0336
  398MOL0     H53677   2.288   7.393   5.285 -0.4060 -0.4800  0.7818
  398MOL0     H53678   2.125   7.353   5.226  0.4564  0.8838  3.5546
  398MOL0     H53679   2.346   7.177   5.232 -3.8807  0.4306  2.3504
  398MOL0     H53680   2.348   7.238   5.066 -0.1674  5.2682  0.0886
  398MOL0     H53681   2.141   7.192   4.892  0.0758 -0.5849 -0.1828
  398MOL0     H53682   1.935   7.018   4.799 -0.9980  2.7845 -0.2722
  398MOL0     H53683   1.864   6.928   4.937 -0.7686 -0.9194 -1.4395
  398MOL0     H53684   1.865   7.230   4.893  1.8775 -1.4275 -1.3710
  398MOL0     H53685   1.782   7.148   5.029 -2.9122  0.0938 -0.4403
  398MOL0     H53686   1.610   7.075   4.901  0.3342 -2.2509 -1.4522
  398MOL0     H53687   1.722   7.045   4.762 -1.6098  2.4553 -3.3453
  398MOL0     H53688   1.715   7.293   4.715  0.6768 -1.8354 -1.0372
  398MOL0     H53689   1.589   7.299   4.845 -3.0031  0.8136 -2.0613
  398MOL0     H53690   1.638   7.325   4.504 -1.8395 -2.3373  2.7218
  398MOL0     H53691   1.553   7.516   4.221  1.1882  0.6957 -1.0740
  398MOL0     H53692   1.587   7.634   4.338  2.0430 -0.3486 -0.9128
  398MOL0     H53693   1.674   7.477   4.342  0.4056  1.2631  2.6562
  398MOL0     H53694   1.147   7.852   4.305  0.5630 -0.4841 -0.9786
  398MOL0     H53695   0.965   8.000   4.210  0.5939 -0.1997 -0.7250
  398MOL0     H53696   0.778   8.113   4.197  0.0262  0.6094 -1.1295
  398MOL0     H53697   0.782   8.024   4.043  0.1501  3.1179 -1.2055
  398MOL0     H53698   0.627   8.228   4.067 -1.5961  1.4219  1.9358
  398MOL0     H53699   0.545   8.086   4.000 -0.6434  0.9604 -0.4809
  398MOL0     H53700   0.516   8.173   4.301 -1.1033 -0.5824  0.8526
  398MOL0     H53701   0.450   8.033   4.224 -0.6398  0.4148 -1.2731
  398MOL0     H53702   0.390   8.321   4.164 -2.2599  1.6356  0.6650
  398MOL0     H53703   0.319   8.173   4.076 -1.9183  0.4282  1.6729
  398MOL0     H53704   0.280   8.262   4.370 -1.1020 -0.9049  0.7720
  398MOL0     H53705   0.239   8.105   4.306 -1.8896 -0.3162 -0.4293
  398MOL0     H53706   0.162   8.363   4.171 -0.9011  1.2127  1.8429
  398MOL0     H53707   0.069   8.213   4.149  1.5598 -0.2023 -1.3022
  398MOL0     H53708  -0.070   8.368   4.305 -0.2588 -0.0569 -0.8727
  398MOL0     H53709   0.081   8.420   4.367 -0.1619 -0.2986 -0.2603
  398MOL0     H53710   0.087   8.219   4.520 -0.2890 -0.4854  0.0956
  398MOL0     H53711   0.026   8.119   4.384 -1.6379  0.8487 -2.7284
  398MOL0     H53712   0.688   7.674   4.281  0.1285  0.0897 -4.5496
  398MOL0     H53713   0.864   7.543   4.374  0.7669  0.5595  0.2162
  398MOL0     H53714   1.157   7.443   4.559  0.2279 -0.9069  0.4020
  398MOL0     H53715   1.273   7.277   4.697 -0.7499 -1.9331 -1.2575
  398MOL0     H53716   3.029   7.724   4.835 -0.9214 -0.7549  0.6556
  398MOL0     H53717   3.230   7.834   4.911  0.6186  1.0495  2.7699
  398MOL0     H53718   3.616   8.100   4.846 -2.0033  0.7815 -0.1839
  398MOL0     H53719   3.805   8.186   4.964 -0.1515 -0.2524 -1.1915
  398MOL0     H53720   3.928   8.415   5.330 -0.1794 -0.7993  4.3094
  398MOL0     H53721   3.763   8.448   5.343  0.8470  0.3001  2.1301
  398MOL0     H53722   3.914   8.190   5.409  2.1854  2.4880 -0.2981
  398MOL0     H53723   3.734   8.207   5.416  0.4103 -0.4190 -1.1453
  398MOL0     H53724   3.760   8.391   5.580 -0.4172  0.5452  2.3175
  398MOL0     H53725   3.932   8.371   5.581 -0.2482 -1.4198  1.2269
  398MOL0     H53726   3.738   8.171   5.696 -0.7641  1.9025  1.9019
  398MOL0     H53727   3.853   8.275   5.786 -1.3939  1.4853 -0.6017
  398MOL0     H53728   4.100   7.967   5.668  0.2256 -0.9789 -0.3065
  398MOL0     H53729   3.569   8.284   5.295 -3.0922  0.2424  0.0097
  398MOL0     H53730   3.377   8.208   5.194  0.4210  0.6050  0.0480
  399MOL0     O53731   7.158   3.770   9.755  0.6962 -0.0865  0.5123
  399MOL0     C53732   7.193   3.725   9.857 -0.1026  0.5058 -0.0655
  399MOL0     O53733   7.118   3.717   9.969  0.4361 -0.1522 -0.9649
  399MOL0     C53734   7.010   3.806   9.997 -0.9985  0.2285 -0.0123
  399MOL0     C53735   6.941   3.785  10.122 -0.5832  0.1031 -0.1969
  399MOL0     C53736   6.838   3.871  10.155  0.2522  0.7448  0.5699
  399MOL0     C53737   6.793   3.976  10.071  1.0014  0.5529 -0.1604
  399MOL0     O53738   6.704   4.073  10.106  0.0353 -0.3301  0.0239
  399MOL0     C53739   6.603   4.055  10.204 -0.5340  0.2306 -0.1919
  399MOL0     C53740   6.647   4.127  10.334  0.1732  0.5123 -0.0547
  399MOL0     C53741   6.523   4.150  10.426 -1.0632  0.2014  0.2960
  399MOL0     C53742   6.416   4.247  10.372  0.3834  0.3816  0.5814
  399MOL0     C53743   6.327   4.284  10.491 -0.0321  0.3477  0.1875
  399MOL0     C53744   6.222   4.383  10.447 -0.3223 -0.2946  0.3390
  399MOL0     C53745   6.140   4.438  10.574 -0.0155  0.1491  0.0129
  399MOL0     C53746   6.221   4.524  10.672  0.4602  0.0389  0.4055
  399MOL0     N53747   6.120   4.599  10.757 -0.0185 -0.4674 -0.5590
  399MOL0     C53748   6.114   4.608  10.897 -0.6169 -0.6467  0.0068
  399MOL0     C53749   6.006   4.683  10.929 -0.9333  0.1103 -0.1514
  399MOL0     C53750   5.979   4.707  11.075 -1.0001  1.3042 -0.2855
  399MOL0     C53751   6.029   4.825  11.128  0.2118 -1.3809  0.0636
  399MOL0     C53752   6.031   4.826  11.289 -0.0010 -0.0638  0.4291
  399MOL0     C53753   5.884   4.811  11.342 -0.4201  0.5545  0.3681
  399MOL0     O53754   5.915   4.791  11.475 -0.3304  0.3132 -1.0644
  399MOL0     C53755   5.824   4.777  11.576  1.0204  0.5024 -0.6498
  399MOL0     C53756   5.861   4.729  11.707 -0.0015 -0.3505  0.3857
  399MOL0     C53757   5.766   4.719  11.813 -1.0693 -0.6875  0.2397
  399MOL0     C53758   5.819   4.663  11.945 -0.4953  0.1568 -0.0625
  399MOL0     C53759   5.629   4.762  11.794 -0.6668  0.8285  0.4732
  399MOL0     C53760   5.529   4.773  11.905  0.9049  0.5180 -0.0181
  399MOL0     O53761   5.453   4.884  11.902  0.1888  0.3241 -0.8374
  399MOL0     C53762   5.392   4.925  12.016  0.0716 -0.0717  0.7977
  399MOL0     C53763   5.452   5.035  12.068 -0.8566  0.0680  0.2813
  399MOL0     C53764   5.403   5.093  12.187 -0.5376  0.3340  0.3024
  399MOL0     C53765   5.287   5.047  12.246  0.1369  0.4460  0.1079
  399MOL0     O53766   5.226   5.091  12.363  0.3359 -0.2479 -0.2514
  399MOL0     C53767   5.289   5.202  12.432 -0.4732 -0.0595 -0.1993
  399MOL0     C53768   5.207   5.266  12.550 -0.5058 -0.0340  0.2612
  399MOL0     C53769   5.116   5.161  12.619 -0.1666  0.1574  0.6772
  399MOL0     C53770   5.067   5.227  12.752  0.6459 -0.3701  0.3280
  399MOL0     C53771   5.029   5.130  12.863 -0.9860  0.3205 -0.0772
  399MOL0     C53772   4.927   5.033  12.806 -0.0298  0.3871 -0.0123
  399MOL0     C53773   4.872   4.940  12.925 -0.7549 -0.0646 -0.2719
  399MOL0     C53774   4.748   4.855  12.878 -0.6174  0.1600 -0.2598
  399MOL0    Cl53775   4.611   4.961  12.839 -0.4357  0.0483  0.1173
  399MOL0     C53776   5.226   4.933  12.190 -0.0608 -0.4089  0.5998
  399MOL0     C53777   5.285   4.872  12.075  0.1691 -0.6486 -0.3002
  399MOL0     O53778   5.527   4.697  11.995  0.0832  0.7105 -0.6485
  399MOL0     C53779   5.596   4.808  11.666 -0.6707  0.0698 -0.4314
  399MOL0     C53780   5.686   4.819  11.558 -0.4867  0.5074  0.0763
  399MOL0     N53781   5.955   4.732  10.808 -0.2624  0.6695  0.2827
  399MOL0     N53782   6.020   4.677  10.704 -0.0164  0.4214 -0.1516
  399MOL0     C53783   6.870   4.006   9.957 -0.2292  0.5034 -0.3522
  399MOL0     C53784   6.972   3.917   9.921 -0.8520  0.2074  0.3482
  399MOL0     C53785   7.332   3.667   9.860 -0.1138 -0.3961 -0.0279
  399MOL0     C53786   7.399   3.666   9.984 -0.6344 -0.3409 -0.2464
  399MOL0     C53787   7.524   3.592   9.997 -0.6684 -0.5858 -0.4284
  399MOL0     C53788   7.575   3.521   9.880  0.9525  0.2295 -0.4285
  399MOL0     O53789   7.682   3.438   9.895 -0.0670 -0.1800  0.1286
  399MOL0     C53790   7.800   3.502   9.847 -0.8034 -0.0619  0.4362
  399MOL0     C53791   7.904   3.398   9.834 -0.1818 -0.2316  0.4586
  399MOL0     C53792   7.863   3.285   9.739 -0.6955  0.4596 -1.3279
  399MOL0     C53793   7.975   3.202   9.686 -0.6820  0.5345 -0.4224
  399MOL0     C53794   8.041   3.266   9.581 -0.6998 -0.1007  1.0769
  399MOL0     C53795   8.103   3.303   9.483  0.0735 -0.4571  0.4488
  399MOL0     C53796   7.510   3.537   9.757  0.8853  0.6200 -0.3050
  399MOL0     C53797   7.394   3.605   9.747 -0.0348 -0.1429 -0.1642
  399MOL0     H53798   6.978   3.709  10.190  3.4430 -0.3232 -2.5375
  399MOL0     H53799   6.817   3.862  10.261 -0.0081  2.8527  0.7303
  399MOL0     H53800   6.509   4.099  10.167 -1.3000  1.4249  2.8277
  399MOL0     H53801   6.588   3.948  10.220 -0.6838  0.4249  1.1031
  399MOL0     H53802   6.715   4.063  10.391  2.5257  1.7738 -1.3250
  399MOL0     H53803   6.699   4.221  10.314  1.8114 -0.6412 -1.3860
  399MOL0     H53804   6.471   4.055  10.444 -0.5041 -0.3000 -0.6704
  399MOL0     H53805   6.573   4.184  10.517  1.1639  1.7456 -1.3929
  399MOL0     H53806   6.470   4.328  10.321  0.7202  1.5766  2.7370
  399MOL0     H53807   6.356   4.195  10.297  2.3328  2.0218 -2.3262
  399MOL0     H53808   6.274   4.197  10.530 -1.5583  1.4734  0.7524
  399MOL0     H53809   6.392   4.328  10.567 -0.2888 -0.0213  0.6281
  399MOL0     H53810   6.271   4.463  10.392  2.4916 -2.5158 -0.6219
  399MOL0     H53811   6.142   4.337  10.388 -2.0080  1.6873  0.9272
  399MOL0     H53812   6.053   4.491  10.534  0.8324  0.6219 -1.2791
  399MOL0     H53813   6.105   4.352  10.633 -2.8963  0.6245 -0.8211
  399MOL0     H53814   6.293   4.592  10.625 -0.7240  2.0681  1.3390
  399MOL0     H53815   6.271   4.469  10.752  0.8154 -1.3496 -0.7517
  399MOL0     H53816   6.170   4.562  10.978  0.2772  3.4622  1.9989
  399MOL0     H53817   5.871   4.707  11.092 -0.5078  0.3724  3.9026
  399MOL0     H53818   6.025   4.622  11.126 -0.5661  1.1094 -0.9853
  399MOL0     H53819   5.974   4.916  11.103 -0.0912  0.1382  5.0881
  399MOL0     H53820   6.133   4.839  11.100  0.6746  0.0703  2.2285
  399MOL0     H53821   6.066   4.926  11.316 -1.0878  0.1794  0.9609
  399MOL0     H53822   6.103   4.751  11.324  1.4658 -0.0477 -2.2491
  399MOL0     H53823   5.824   4.731  11.299 -1.2304  3.2560 -4.2104
  399MOL0     H53824   5.824   4.903  11.347 -1.9673 -0.4738  1.2761
  399MOL0     H53825   5.969   4.720  11.717  0.5247  0.1476 -3.4526
  399MOL0     H53826   5.760   4.575  11.972 -1.0805  0.8311  0.9478
  399MOL0     H53827   5.925   4.640  11.934  0.6765  4.9402 -1.2463
  399MOL0     H53828   5.806   4.738  12.024  1.0831 -0.2842  0.6406
  399MOL0     H53829   5.543   5.080  12.030 -1.2269  1.2913  0.7859
  399MOL0     H53830   5.458   5.180  12.219 -2.4541  1.4023  0.8249
  399MOL0     H53831   5.385   5.170  12.473 -0.3512 -0.6827 -0.9439
  399MOL0     H53832   5.304   5.276  12.353 -0.4979 -1.1320 -1.2439
  399MOL0     H53833   5.289   5.313  12.605  2.6232 -0.0947 -3.8490
  399MOL0     H53834   5.147   5.352  12.516 -0.3156 -1.7466 -5.5485
  399MOL0     H53835   5.169   5.070  12.648  0.9586  1.6606  3.7842
  399MOL0     H53836   5.036   5.133  12.551  0.2434 -0.1338  0.3079
  399MOL0     H53837   5.140   5.298  12.792 -0.3150  0.4809  0.6226
  399MOL0     H53838   4.980   5.286  12.723  0.9239  1.1655  2.3964
  399MOL0     H53839   4.990   5.177  12.954  1.8709 -1.4435  2.2531
  399MOL0     H53840   5.112   5.063  12.886  0.0265  0.9093 -1.8224
  399MOL0     H53841   4.843   5.089  12.764  0.1724  1.6516  1.1900
  399MOL0     H53842   4.973   4.972  12.728  0.0674  1.3934 -0.7646
  399MOL0     H53843   4.842   4.991  13.017  1.2654 -2.0197  1.6102
  399MOL0     H53844   4.960   4.876  12.941  0.0422  0.3572 -2.6024
  399MOL0     H53845   4.710   4.777  12.944 -1.8186  0.1254 -0.9664
  399MOL0     H53846   4.780   4.806  12.785 -0.1527  0.5916 -0.3318
  399MOL0     H53847   5.145   4.889  12.248 -1.0706  1.8061  0.9356
  399MOL0     H53848   5.248   4.777  12.037 -1.4421 -0.5415  0.8537
  399MOL0     H53849   5.497   4.845  11.641 -0.4471  0.6929 -0.4056
  399MOL0     H53850   5.657   4.864  11.464  2.4935  4.2589  0.6594
  399MOL0     H53851   6.840   4.086   9.891 -0.0827  0.4592 -0.4719
  399MOL0     H53852   7.013   3.946   9.825  1.9284  1.6145  1.8038
  399MOL0     H53853   7.360   3.713  10.074  1.4273 -0.1099  0.6027
  399MOL0     H53854   7.556   3.599  10.101 -3.1681  0.4714  0.3639
  399MOL0     H53855   7.782   3.538   9.746  1.1300  0.6186  0.2775
  399MOL0     H53856   7.820   3.579   9.922 -0.4766  0.0117  0.2765
  399MOL0     H53857   7.925   3.347   9.928 -1.1336  1.0080  1.3854
  399MOL0     H53858   7.996   3.442   9.795 -0.6389 -0.0803 -0.4878
  399MOL0     H53859   7.805   3.326   9.655 -0.3633  1.8670 -0.8930
  399MOL0     H53860   7.800   3.220   9.800 -1.0388  0.6159 -1.5124
  399MOL0     H53861   7.951   3.103   9.648  4.5156 -0.7003 -1.2356
  399MOL0     H53862   8.045   3.180   9.767 -0.0291 -0.6166 -1.2746
  399MOL0     H53863   8.162   3.339   9.400 -0.2934 -0.4227  0.1997
  399MOL0     H53864   7.553   3.485   9.672  2.0607 -0.2477  0.7738
  399MOL0     H53865   7.343   3.607   9.651  0.9379  0.4694 -0.6825
  400MOL0     O53866   1.032   3.015   3.113 -0.6738  0.4436  0.4883
  400MOL0     C53867   1.087   2.960   3.203 -0.0201  0.1864 -0.9482
  400MOL0     O53868   1.023   2.925   3.318 -0.6629  0.0726 -0.5796
  400MOL0     C53869   0.890   2.892   3.318  0.0664 -0.2116  0.5321
  400MOL0     C53870   0.852   2.764   3.272 -0.5387  0.7406 -0.3704
  400MOL0     C53871   0.723   2.723   3.267 -0.5283  0.5277 -0.2522
  400MOL0     C53872   0.625   2.813   3.287 -0.0755  0.7572 -0.0771
  400MOL0     O53873   0.499   2.763   3.269  0.1085 -0.3963 -0.2803
  400MOL0     C53874   0.375   2.833   3.312 -0.2079 -0.9035 -0.3763
  400MOL0     C53875   0.267   2.809   3.211 -0.5720 -0.8625  0.1845
  400MOL0     C53876   0.131   2.879   3.244 -0.6476  0.6792  0.0289
  400MOL0     C53877   0.039   2.894   3.125  0.1642  0.0201  0.2733
  400MOL0     C53878  -0.087   2.978   3.146 -0.2060  0.9937 -0.0355
  400MOL0     C53879  -0.171   2.971   3.020  0.2233 -0.0267  0.2189
  400MOL0     C53880  -0.286   3.080   3.014 -0.5982 -0.2376 -0.7378
  400MOL0     C53881  -0.364   3.040   2.884  0.7918  1.1535 -0.0630
  400MOL0     N53882  -0.462   3.138   2.845 -0.0465 -0.3577  0.2918
  400MOL0     C53883  -0.583   3.152   2.915  0.3007 -0.3340 -0.2832
  400MOL0     C53884  -0.636   3.263   2.879  0.4409  0.0936 -0.9441
  400MOL0     C53885  -0.764   3.326   2.925  0.0762 -0.5922 -0.0011
  400MOL0     C53886  -0.894   3.286   2.830  0.5917 -0.1324 -0.5207
  400MOL0     C53887  -0.890   3.349   2.698 -0.3075 -1.3188  0.5951
  400MOL0     C53888  -1.027   3.338   2.631 -0.5307  1.0225  0.3698
  400MOL0     O53889  -1.132   3.410   2.694 -0.7747 -0.1094  0.5029
  400MOL0     C53890  -1.264   3.397   2.671 -0.1017  0.6009 -0.4841
  400MOL0     C53891  -1.345   3.475   2.754 -0.6462 -0.9748  0.2368
  400MOL0     C53892  -1.482   3.485   2.743 -0.1865 -0.2097 -0.8886
  400MOL0     C53893  -1.557   3.578   2.837 -0.6636  0.2495 -0.3093
  400MOL0     C53894  -1.544   3.400   2.651  0.5322  0.4878  0.4307
  400MOL0     C53895  -1.698   3.383   2.638 -0.1178 -0.3006 -0.3462
  400MOL0     O53896  -1.770   3.500   2.649  0.4178  0.0028 -0.1395
  400MOL0     C53897  -1.908   3.493   2.639 -1.1997  0.3490  0.4851
  400MOL0     C53898  -1.973   3.499   2.515 -0.5947 -0.3601 -0.3127
  400MOL0     C53899  -2.105   3.475   2.498  0.8030 -0.1660 -0.2575
  400MOL0     C53900  -2.192   3.470   2.606  0.7010  1.2284  0.1758
  400MOL0     O53901  -2.327   3.468   2.579  0.9899  0.0530 -0.3864
  400MOL0     C53902  -2.418   3.451   2.685 -0.0143 -0.7773  0.0381
  400MOL0     C53903  -2.479   3.596   2.701  0.5707  1.2803 -0.1165
  400MOL0     C53904  -2.553   3.644   2.578 -0.3914 -0.4693 -0.6007
  400MOL0     C53905  -2.589   3.797   2.585  0.0839 -1.1634  0.6040
  400MOL0     C53906  -2.462   3.869   2.561  0.5804 -0.1241  0.0804
  400MOL0     C53907  -2.478   4.023   2.566  0.4163 -0.8172  0.0473
  400MOL0     C53908  -2.359   4.109   2.537 -0.9636 -0.9388 -0.8697
  400MOL0     C53909  -2.368   4.249   2.595 -0.2191 -0.4849 -0.7801
  400MOL0    Cl53910  -2.377   4.237   2.770 -0.5643 -0.1624  0.1007
  400MOL0     C53911  -2.126   3.476   2.728 -0.7756 -0.3802 -0.1574
  400MOL0     C53912  -1.990   3.483   2.745 -0.6559  0.3256  0.1097
  400MOL0     O53913  -1.752   3.277   2.612 -0.0467 -0.2946  0.1057
  400MOL0     C53914  -1.460   3.318   2.565 -0.4223 -0.8009 -0.2456
  400MOL0     C53915  -1.322   3.315   2.581 -0.6619  0.0950  0.5233
  400MOL0     N53916  -0.557   3.313   2.778 -0.0464 -0.4606  0.3809
  400MOL0     N53917  -0.448   3.245   2.763 -0.1425 -0.3125  0.2928
  400MOL0     C53918   0.658   2.940   3.339 -0.0178 -0.5134  0.0895
  400MOL0     C53919   0.790   2.981   3.360  0.0069 -0.6759 -0.7519
  400MOL0     C53920   1.231   2.967   3.209  0.8257 -0.2820  0.5536
  400MOL0     C53921   1.298   2.971   3.332  0.2498  0.4151 -0.4212
  400MOL0     C53922   1.439   2.987   3.350  0.9429  0.4595 -0.3072
  400MOL0     C53923   1.516   2.984   3.240 -0.2427  0.4263 -0.2701
  400MOL0     O53924   1.650   2.991   3.255 -0.3995 -0.1742 -0.2761
  400MOL0     C53925   1.732   3.075   3.179 -1.1686  0.1219  0.0360
  400MOL0     C53926   1.815   2.999   3.070  0.4342  0.0849  0.1103
  400MOL0     C53927   1.884   3.105   2.977 -0.3741 -0.5327  0.3225
  400MOL0     C53928   1.994   3.052   2.879  0.8027 -0.1848 -0.2276
  400MOL0     C53929   1.937   2.972   2.770 -0.1134 -0.0043 -0.4809
  400MOL0     C53930   1.889   2.899   2.688  0.3317  0.5539  0.2312
  400MOL0     C53931   1.454   2.983   3.109 -0.4614  0.9329 -0.3443
  400MOL0     C53932   1.318   2.990   3.098 -0.0872  0.0931  0.2158
  400MOL0     H53933   0.931   2.693   3.250 -1.7336 -0.3556 -1.1989
  400MOL0     H53934   0.719   2.618   3.240  3.2020  0.4953 -1.1641
  400MOL0     H53935   0.347   2.787   3.407  2.2034  1.3536  1.6026
  400MOL0     H53936   0.383   2.940   3.336 -3.2172 -0.9082  1.0591
  400MOL0     H53937   0.306   2.835   3.113 -0.3610 -0.7287  0.3031
  400MOL0     H53938   0.247   2.701   3.213  1.4234 -1.2706  1.9685
  400MOL0     H53939   0.072   2.821   3.315 -0.4347  0.8903  0.3785
  400MOL0     H53940   0.155   2.977   3.287  1.2995 -0.0359  0.6770
  400MOL0     H53941   0.107   2.938   3.050 -0.7626  2.0103  0.5313
  400MOL0     H53942   0.015   2.793   3.091  0.7071 -0.3887  1.0716
  400MOL0     H53943  -0.136   2.941   3.236  0.3562  0.4856  0.0665
  400MOL0     H53944  -0.057   3.079   3.177  2.2068  0.1737  0.5691
  400MOL0     H53945  -0.109   2.988   2.932 -0.9926 -0.7947 -0.8163
  400MOL0     H53946  -0.228   2.878   3.020 -0.0335  0.1286  0.5035
  400MOL0     H53947  -0.356   3.087   3.098 -0.5470  5.4067 -0.8109
  400MOL0     H53948  -0.257   3.185   3.013 -0.9955 -0.0948  0.5405
  400MOL0     H53949  -0.417   2.946   2.898 -0.5526  2.0943  1.4734
  400MOL0     H53950  -0.296   3.020   2.800 -1.1817  0.7281 -1.6335
  400MOL0     H53951  -0.628   3.075   2.977 -0.1592  0.0877 -0.0838
  400MOL0     H53952  -0.793   3.292   3.024  0.9504 -2.2412 -0.2704
  400MOL0     H53953  -0.755   3.435   2.925 -0.6423 -0.5232 -0.4378
  400MOL0     H53954  -0.986   3.320   2.880  1.0269  0.6851 -0.2588
  400MOL0     H53955  -0.892   3.179   2.811  1.8847  0.0628 -1.6248
  400MOL0     H53956  -0.814   3.296   2.639  1.9595  1.4612  0.8194
  400MOL0     H53957  -0.854   3.451   2.712  0.2602 -1.7459  2.4154
  400MOL0     H53958  -1.067   3.237   2.627 -1.2807  1.3365 -0.2801
  400MOL0     H53959  -1.010   3.381   2.531 -0.9514  1.8605  0.6487
  400MOL0     H53960  -1.304   3.558   2.809 -0.9161  0.7246 -1.9915
  400MOL0     H53961  -1.579   3.672   2.786  1.1792 -0.4654 -2.5743
  400MOL0     H53962  -1.654   3.542   2.874 -0.9903  0.5680 -0.8449
  400MOL0     H53963  -1.494   3.599   2.924  0.2018 -1.1286 -0.5759
  400MOL0     H53964  -1.919   3.517   2.422 -2.4403 -0.8876 -1.5454
  400MOL0     H53965  -2.159   3.489   2.405 -0.0280  1.9624  0.4717
  400MOL0     H53966  -2.487   3.371   2.654 -0.2410 -0.0865 -1.3335
  400MOL0     H53967  -2.374   3.416   2.778  3.2371 -1.8146 -1.7326
  400MOL0     H53968  -2.557   3.585   2.777  1.9613  0.2212  1.2406
  400MOL0     H53969  -2.411   3.667   2.749 -1.8423  3.3296  0.4892
  400MOL0     H53970  -2.639   3.577   2.576  1.0657 -2.7763  2.9986
  400MOL0     H53971  -2.494   3.635   2.486  0.0639  4.1134 -0.9914
  400MOL0     H53972  -2.668   3.828   2.516  1.0896  0.4853  0.1452
  400MOL0     H53973  -2.620   3.815   2.689 -2.6772 -2.4409  0.0894
  400MOL0     H53974  -2.420   3.834   2.467 -0.6008 -0.0021 -0.5066
  400MOL0     H53975  -2.387   3.839   2.635 -2.9038 -1.8948  3.2918
  400MOL0     H53976  -2.554   4.066   2.500 -0.8330  1.2464  2.6427
  400MOL0     H53977  -2.514   4.033   2.669  2.3603 -1.9344  0.8752
  400MOL0     H53978  -2.342   4.124   2.430  1.1602 -1.5599 -0.6629
  400MOL0     H53979  -2.274   4.063   2.588 -1.5520 -0.4075  0.6739
  400MOL0     H53980  -2.455   4.300   2.552  1.5260  4.9089  1.2997
  400MOL0     H53981  -2.277   4.307   2.576  0.8725 -2.4092 -1.7082
  400MOL0     H53982  -2.181   3.496   2.820  1.0185  1.9622  0.4957
  400MOL0     H53983  -1.939   3.497   2.840 -2.2239  0.7336  0.9202
  400MOL0     H53984  -1.500   3.243   2.497 -0.0344  0.4017 -1.8692
  400MOL0     H53985  -1.251   3.252   2.529  2.6930  2.9860  1.2746
  400MOL0     H53986   0.590   3.020   3.364  0.3458 -0.0884 -0.2854
  400MOL0     H53987   0.816   3.083   3.384 -0.8397 -1.0639  2.1887
  400MOL0     H53988   1.241   2.967   3.424 -0.4459  1.1467 -0.8070
  400MOL0     H53989   1.477   2.982   3.452  0.3351 -1.5199 -0.1314
  400MOL0     H53990   1.672   3.156   3.138 -3.2841  0.8424  4.0340
  400MOL0     H53991   1.800   3.115   3.255  1.5407  0.9166 -2.5890
  400MOL0     H53992   1.755   2.930   3.011  1.0310  1.0639 -1.7322
  400MOL0     H53993   1.885   2.932   3.122 -1.2496 -0.0033  2.4299
  400MOL0     H53994   1.927   3.178   3.046 -0.2711 -1.4161  1.2135
  400MOL0     H53995   1.812   3.163   2.918  0.6271 -1.2479 -1.7184
  400MOL0     H53996   2.062   2.981   2.927  0.1789 -1.1063 -0.6688
  400MOL0     H53997   2.045   3.134   2.828 -1.5377  2.1688  1.0094
  400MOL0     H53998   1.855   2.839   2.606 -1.0410 -1.9779  2.4996
  400MOL0     H53999   1.510   2.987   3.016  0.7680  0.9140  0.3754
  400MOL0     H54000   1.261   3.015   3.009  1.1663  1.9029 -0.1357
  401MOL0     O54001   4.592   5.101  10.593  0.4017 -0.5898 -0.1574
  401MOL0     C54002   4.584   5.028  10.500  0.5098  0.4817  0.0912
  401MOL0     O54003   4.476   4.939  10.463 -0.1597 -0.1346  0.8702
  401MOL0     C54004   4.347   4.976  10.506 -0.1851  0.9194 -0.1953
  401MOL0     C54005   4.277   4.887  10.589  0.5594  0.4858  0.1436
  401MOL0     C54006   4.145   4.922  10.622 -0.2085 -0.0840  0.1291
  401MOL0     C54007   4.085   5.039  10.584 -0.4214 -0.2784 -0.1950
  401MOL0     O54008   3.959   5.062  10.634  0.1525  0.3576 -0.1239
  401MOL0     C54009   3.895   5.188  10.605 -0.4923  0.1156 -0.5974
  401MOL0     C54010   3.759   5.194  10.670 -0.9349  0.2333  0.4619
  401MOL0     C54011   3.689   5.334  10.648 -0.1927  0.5213  0.4511
  401MOL0     C54012   3.547   5.314  10.716  0.6460  0.4406 -0.5704
  401MOL0     C54013   3.472   5.446  10.709  0.3708  0.3526  0.2242
  401MOL0     C54014   3.324   5.439  10.756 -0.4132 -0.3641 -0.4072
  401MOL0     C54015   3.266   5.578  10.790  0.7792  0.2322  0.3681
  401MOL0     C54016   3.115   5.584  10.816  0.7849  0.1875  0.6297
  401MOL0     N54017   3.043   5.543  10.691 -0.1991  0.2847  0.1180
  401MOL0     C54018   2.968   5.624  10.601 -0.0589  0.5163  0.1348
  401MOL0     C54019   2.916   5.527  10.515 -0.8240 -0.1267  1.6520
  401MOL0     C54020   2.849   5.561  10.397 -0.2553 -0.3258 -0.9151
  401MOL0     C54021   2.697   5.543  10.400  0.4505  0.0154  0.1192
  401MOL0     C54022   2.649   5.409  10.451 -0.4871  0.5548  0.1976
  401MOL0     C54023   2.497   5.393  10.479 -0.1095 -0.1393  0.1098
  401MOL0     O54024   2.463   5.474  10.590  0.5191  0.2255 -0.1219
  401MOL0     C54025   2.331   5.492  10.611 -0.0552  0.0232  0.1319
  401MOL0     C54026   2.302   5.555  10.732 -0.1789 -0.0300  0.3534
  401MOL0     C54027   2.169   5.569  10.787 -0.2979  0.2941 -0.3831
  401MOL0     C54028   2.154   5.607  10.932 -0.3589 -0.4448  0.2670
  401MOL0     C54029   2.062   5.542  10.698 -0.6765 -0.1779  0.3911
  401MOL0     C54030   1.925   5.565  10.726 -0.5297 -0.4709 -0.9026
  401MOL0     O54031   1.904   5.635  10.831 -0.2541 -0.4239 -0.8696
  401MOL0     C54032   1.783   5.622  10.881  0.7430  0.0125 -1.0513
  401MOL0     C54033   1.755   5.519  10.972  0.4676 -0.4866 -0.2705
  401MOL0     C54034   1.634   5.517  11.044  0.4658 -0.0507 -0.3205
  401MOL0     C54035   1.542   5.613  11.023 -0.7624  0.3793 -0.6214
  401MOL0     O54036   1.421   5.592  11.087  0.6564  0.1299  0.0367
  401MOL0     C54037   1.318   5.688  11.065 -0.2875 -0.6790  0.5003
  401MOL0     C54038   1.189   5.656  11.133 -0.1918  0.0776  0.3162
  401MOL0     C54039   1.105   5.783  11.145 -0.3666  0.2800  0.3980
  401MOL0     C54040   0.987   5.771  11.247 -0.1485  0.7408  0.4831
  401MOL0     C54041   0.879   5.880  11.244  0.1972  0.1616 -0.1050
  401MOL0     C54042   0.764   5.842  11.340 -0.1959 -0.3773 -0.4816
  401MOL0     C54043   0.668   5.963  11.354  0.0612 -0.3203 -0.4860
  401MOL0     C54044   0.551   5.933  11.452  0.0202 -1.2539 -0.1279
  401MOL0    Cl54045   0.429   5.815  11.393  0.1564 -0.4848  0.2481
  401MOL0     C54046   1.566   5.716  10.928 -0.2162 -0.1255  0.7495
  401MOL0     C54047   1.691   5.720  10.858 -0.1212 -0.1172 -0.0848
  401MOL0     O54048   1.839   5.504  10.659 -0.0499  0.0820  0.0912
  401MOL0     C54049   2.100   5.495  10.562 -0.2955  0.8315 -0.8990
  401MOL0     C54050   2.232   5.461  10.524 -0.4113  0.3893 -0.0398
  401MOL0     N54051   2.943   5.395  10.558  0.1153 -0.0578 -0.5374
  401MOL0     N54052   3.023   5.414  10.661 -0.1768  0.0207  0.1404
  401MOL0     C54053   4.159   5.126  10.503 -0.6164  0.2122  0.6619
  401MOL0     C54054   4.299   5.097  10.468  0.5563  0.1984  0.4966
  401MOL0     C54055   4.709   5.016  10.420 -0.3646 -0.3177  0.1941
  401MOL0     C54056   4.821   5.089  10.461 -0.4090  0.1336 -0.4774
  401MOL0     C54057   4.944   5.067  10.402  0.1559 -0.0001 -0.1100
  401MOL0     C54058   4.955   4.990  10.291  0.2741 -0.1050  0.8472
  401MOL0     O54059   5.084   4.966  10.246 -0.5720 -0.0828 -0.9042
  401MOL0     C54060   5.096   4.865  10.141 -0.2363 -0.3392 -1.1109
  401MOL0     C54061   5.250   4.853  10.108  1.1395 -1.1157  0.3523
  401MOL0     C54062   5.319   4.985  10.069 -0.0306 -0.5984 -0.2528
  401MOL0     C54063   5.474   4.964  10.070 -0.3300 -0.2032 -0.1066
  401MOL0     C54064   5.547   5.056   9.984 -0.3201 -0.6803 -0.2901
  401MOL0     C54065   5.616   5.124   9.920 -0.0481 -0.0653  0.4848
  401MOL0     C54066   4.835   4.930  10.239  0.3794  0.2549  0.1370
  401MOL0     C54067   4.714   4.938  10.306  0.4081  0.1279  0.1417
  401MOL0     H54068   4.317   4.788  10.608 -1.3146 -0.9149 -2.4647
  401MOL0     H54069   4.093   4.866  10.700 -0.7390  1.1319  0.6822
  401MOL0     H54070   3.968   5.259  10.646  0.4372 -1.1143 -0.0428
  401MOL0     H54071   3.869   5.201  10.500  1.0690  0.8688 -0.9252
  401MOL0     H54072   3.688   5.125  10.624 -0.9651 -1.4129  2.8437
  401MOL0     H54073   3.775   5.178  10.777  0.0248  1.1053  0.4670
  401MOL0     H54074   3.743   5.417  10.696 -0.5831  1.8533 -1.3171
  401MOL0     H54075   3.676   5.358  10.542 -0.5887 -0.1001  0.3526
  401MOL0     H54076   3.487   5.235  10.670 -1.5445 -0.2476  3.1103
  401MOL0     H54077   3.564   5.285  10.820  1.5054 -1.6486 -1.2457
  401MOL0     H54078   3.523   5.529  10.759 -0.6871  2.8347 -2.5318
  401MOL0     H54079   3.464   5.478  10.605  2.9783  0.0245 -0.1478
  401MOL0     H54080   3.262   5.403  10.674 -4.9522  4.8987  0.1538
  401MOL0     H54081   3.315   5.376  10.845 -0.8816  1.1895  0.6939
  401MOL0     H54082   3.316   5.622  10.877  0.1872  2.7608 -0.4728
  401MOL0     H54083   3.287   5.652  10.711  1.6395  0.6928  1.0099
  401MOL0     H54084   3.093   5.689  10.836  0.0276 -0.3891  3.1619
  401MOL0     H54085   3.082   5.522  10.900  2.6498 -0.7988  0.7021
  401MOL0     H54086   2.957   5.731  10.586 -2.6515  0.4819  1.1996
  401MOL0     H54087   2.870   5.660  10.355 -3.3339 -0.5090 -3.2294
  401MOL0     H54088   2.871   5.485  10.321 -0.4641 -3.5829  2.0214
  401MOL0     H54089   2.658   5.571  10.301  1.1178 -0.6083 -0.3361
  401MOL0     H54090   2.651   5.614  10.468 -0.5101 -1.5190  1.1488
  401MOL0     H54091   2.699   5.405  10.548  2.2194  3.3484 -0.8974
  401MOL0     H54092   2.682   5.320  10.396  1.3519  0.5148  1.3081
  401MOL0     H54093   2.468   5.289  10.494 -1.0065 -0.0009 -0.5451
  401MOL0     H54094   2.432   5.412  10.393 -3.4849  1.1950  2.6788
  401MOL0     H54095   2.384   5.570  10.801 -0.8041 -3.3748  2.0534
  401MOL0     H54096   2.095   5.527  10.977 -2.1996  1.0753  0.6688
  401MOL0     H54097   2.244   5.614  10.995 -1.5791 -0.7645  2.1031
  401MOL0     H54098   2.103   5.702  10.947 -0.1122  0.2520 -2.6695
  401MOL0     H54099   1.838   5.456  11.004  2.0750  1.0303 -1.3036
  401MOL0     H54100   1.627   5.437  11.118  1.8958  0.7817  0.7670
  401MOL0     H54101   1.339   5.791  11.094 -0.1989 -0.1247 -1.3965
  401MOL0     H54102   1.308   5.682  10.956  3.0887 -0.4031  0.0720
  401MOL0     H54103   1.136   5.584  11.070 -1.3120  2.2004 -1.3097
  401MOL0     H54104   1.200   5.627  11.238 -0.7058 -0.2136  0.2901
  401MOL0     H54105   1.048   5.815  11.058 -0.1570  2.1921  0.9171
  401MOL0     H54106   1.164   5.869  11.179 -0.4043  0.9009 -1.0390
  401MOL0     H54107   0.929   5.681  11.227  0.3611  0.5410 -0.1627
  401MOL0     H54108   1.036   5.768  11.345  1.4825 -1.0131 -0.3259
  401MOL0     H54109   0.855   5.896  11.139  3.0863 -1.3489 -1.0913
  401MOL0     H54110   0.925   5.975  11.272  0.4362 -0.1940  0.7455
  401MOL0     H54111   0.706   5.753  11.311 -0.1958 -0.3791 -0.4771
  401MOL0     H54112   0.810   5.820  11.437  1.8967  3.3862 -0.4416
  401MOL0     H54113   0.633   5.984  11.252  2.6377  2.2018 -0.9726
  401MOL0     H54114   0.732   6.046  11.384  0.5962 -0.8467 -0.1487
  401MOL0     H54115   0.497   6.027  11.464  1.5351 -0.1929 -1.2888
  401MOL0     H54116   0.600   5.907  11.546 -0.2627  1.2256  0.7565
  401MOL0     H54117   1.489   5.791  10.912 -1.0448 -0.9271  0.9252
  401MOL0     H54118   1.701   5.802  10.787 -0.1406  0.9459  1.1149
  401MOL0     H54119   2.028   5.471  10.484 -1.0395  0.7655 -0.2085
  401MOL0     H54120   2.251   5.426  10.423  1.3515  1.0669  0.0218
  401MOL0     H54121   4.122   5.224  10.475  2.6639  1.1391 -1.0021
  401MOL0     H54122   4.362   5.176  10.429 -1.6779  1.3418 -1.0563
  401MOL0     H54123   4.818   5.159  10.544 -0.0168  0.6739 -0.9069
  401MOL0     H54124   5.037   5.114  10.432  1.5653 -0.9386 -2.7013
  401MOL0     H54125   5.055   4.768  10.171  2.4749 -1.1210  0.3626
  401MOL0     H54126   5.044   4.902  10.052  1.0560 -0.6471 -2.0207
  401MOL0     H54127   5.261   4.793  10.017  2.0617  1.0773 -1.0771
  401MOL0     H54128   5.301   4.801  10.190  0.6749 -1.8040  0.2122
  401MOL0     H54129   5.293   5.058  10.146  2.5995  0.5660 -0.3510
  401MOL0     H54130   5.286   5.039   9.980 -2.8696  1.1423  1.6858
  401MOL0     H54131   5.512   4.862  10.057  1.2133  0.5090 -1.5896
  401MOL0     H54132   5.500   5.007  10.167  1.3521  1.1957 -1.1129
  401MOL0     H54133   5.680   5.192   9.868  1.2079 -2.6945 -1.6325
  401MOL0     H54134   4.827   4.874  10.146  0.8850 -2.1908  1.4728
  401MOL0     H54135   4.627   4.879  10.276 -0.7763  1.5714  0.6293
  402MOL0     O54136   4.283   3.420   0.135  0.7207 -0.3938  0.4809
  402MOL0     C54137   4.287   3.324   0.202 -0.2573  0.3336 -1.2835
  402MOL0     O54138   4.182   3.246   0.243 -0.5336  0.2155 -0.7213
  402MOL0     C54139   4.055   3.247   0.191  0.4655  0.2105  0.3361
  402MOL0     C54140   3.959   3.166   0.254 -0.7920  0.5755  0.3282
  402MOL0     C54141   3.824   3.171   0.213  0.1297 -0.5086  0.6393
  402MOL0     C54142   3.784   3.244   0.100 -0.1211  0.0149 -1.2367
  402MOL0     O54143   3.648   3.242   0.089  0.4051 -0.4551  0.0851
  402MOL0     C54144   3.592   3.365   0.054 -0.0256  0.2969  0.3364
  402MOL0     C54145   3.456   3.372   0.127 -0.6245 -0.2167 -0.2923
  402MOL0     C54146   3.373   3.477   0.067 -0.8364 -0.6186  0.9275
  402MOL0     C54147   3.245   3.503   0.144 -0.9751  0.7170 -0.8033
  402MOL0     C54148   3.130   3.576   0.070  0.2575  0.5022 -0.1972
  402MOL0     C54149   3.005   3.564   0.160 -1.0853 -0.3254 -0.5107
  402MOL0     C54150   2.905   3.662   0.107  1.3886 -0.2176 -0.1977
  402MOL0     C54151   2.765   3.656   0.178  0.1682 -0.1863  0.5726
  402MOL0     N54152   2.694   3.781   0.135 -0.1899  0.2056 -0.9290
  402MOL0     C54153   2.595   3.771   0.041 -0.5638  0.0490 -0.7939
  402MOL0     C54154   2.535   3.893   0.041 -0.3716  0.5451 -1.0128
  402MOL0     C54155   2.412   3.940  -0.023  0.6587 -0.2518  0.3481
  402MOL0     C54156   2.456   4.034  -0.130  0.2094  0.8552 -0.2138
  402MOL0     C54157   2.341   4.129  -0.179  0.3950  0.4802  0.3962
  402MOL0     C54158   2.213   4.063  -0.228 -0.0663  0.4924 -0.3620
  402MOL0     O54159   2.219   3.977  -0.343 -0.3719  0.2395  0.2594
  402MOL0     C54160   2.108   3.901  -0.369  0.5753  0.7499  0.2433
  402MOL0     C54161   2.130   3.761  -0.394 -0.7876 -0.3467 -0.0062
  402MOL0     C54162   2.031   3.666  -0.414  0.3804 -0.5507 -1.1474
  402MOL0     C54163   2.056   3.519  -0.402 -0.1275  0.1839 -0.4326
  402MOL0     C54164   1.894   3.713  -0.433 -0.3344 -0.0645 -0.3543
  402MOL0     C54165   1.777   3.622  -0.449  0.5790  0.8383 -0.1996
  402MOL0     O54166   1.659   3.659  -0.388  0.4621  0.7578  0.4012
  402MOL0     C54167   1.548   3.579  -0.380  0.0152  0.1539  0.2191
  402MOL0     C54168   1.429   3.602  -0.451 -0.4150  0.8600  0.5044
  402MOL0     C54169   1.320   3.519  -0.445  0.5568  0.3597 -0.3946
  402MOL0     C54170   1.309   3.410  -0.362 -0.4840  0.3281  0.5219
  402MOL0     O54171   1.191   3.351  -0.360  0.3311 -0.1876  0.6458
  402MOL0     C54172   1.170   3.227  -0.290  1.3592  0.5532 -0.0238
  402MOL0     C54173   1.025   3.195  -0.286 -0.7624  0.4165 -0.1088
  402MOL0     C54174   0.984   3.067  -0.213  0.3916 -0.4409  0.7635
  402MOL0     C54175   1.037   3.034  -0.071 -0.1120 -0.6604  0.6671
  402MOL0     C54176   0.979   2.916  -0.018 -0.2511  0.1857  0.0541
  402MOL0     C54177   0.999   2.906   0.136  0.2780  0.0314 -0.4982
  402MOL0     C54178   0.965   2.773   0.198  0.2087 -0.5514 -0.0945
  402MOL0     C54179   1.084   2.676   0.222  0.6643  0.1135  0.3264
  402MOL0    Cl54180   1.190   2.650   0.087  0.4103 -0.5215 -0.1765
  402MOL0     C54181   1.415   3.386  -0.278 -0.2741 -0.5512 -0.0343
  402MOL0     C54182   1.533   3.476  -0.292 -0.2214  0.2231  0.0983
  402MOL0     O54183   1.793   3.513  -0.501  0.4552  0.0893  0.2304
  402MOL0     C54184   1.874   3.850  -0.418 -0.5432  0.8942 -0.4986
  402MOL0     C54185   1.975   3.942  -0.391  0.1208 -0.0894  1.0950
  402MOL0     N54186   2.594   3.960   0.152 -0.1609  0.0244 -0.1814
  402MOL0     N54187   2.687   3.891   0.209  0.3185 -0.5278  0.2184
  402MOL0     C54188   3.881   3.321   0.029 -0.4178 -0.3880 -0.4257
  402MOL0     C54189   4.015   3.323   0.072  0.5851  0.0305 -0.2699
  402MOL0     C54190   4.414   3.286   0.253 -0.7613 -0.1367 -0.0703
  402MOL0     C54191   4.448   3.147   0.272  1.2552 -0.2140  0.1428
  402MOL0     C54192   4.571   3.102   0.309  0.1890  0.4457  0.4074
  402MOL0     C54193   4.676   3.192   0.308  0.6298  0.2742 -0.4062
  402MOL0     O54194   4.795   3.126   0.326 -0.6627 -0.5908  0.3985
  402MOL0     C54195   4.910   3.212   0.321  0.8296  0.5513  0.1599
  402MOL0     C54196   5.042   3.145   0.354 -0.1851  0.1332 -0.5138
  402MOL0     C54197   5.100   3.042   0.254 -0.9447  0.6211  0.5950
  402MOL0     C54198   5.239   3.003   0.296  0.1996 -0.6479 -0.2280
  402MOL0     C54199   5.347   3.089   0.246  0.5045 -0.7967 -1.1266
  402MOL0     C54200   5.450   3.153   0.216  0.5850  0.1148  0.3342
  402MOL0     C54201   4.647   3.327   0.301  0.0407 -0.0883  0.2997
  402MOL0     C54202   4.518   3.377   0.264  0.0815 -0.5572  0.5538
  402MOL0     H54203   3.971   3.098   0.338 -2.9153 -0.1297  0.1387
  402MOL0     H54204   3.742   3.113   0.253 -0.4530  0.2422  0.5498
  402MOL0     H54205   3.651   3.453   0.081  1.9133 -0.6040 -0.7962
  402MOL0     H54206   3.576   3.367  -0.054 -4.4511  0.2581  0.8137
  402MOL0     H54207   3.405   3.276   0.127 -1.6047  0.1777 -3.6506
  402MOL0     H54208   3.470   3.407   0.230 -0.5965 -1.4214  0.1215
  402MOL0     H54209   3.433   3.568   0.055 -1.2547 -0.2762  1.3556
  402MOL0     H54210   3.338   3.458  -0.035  0.9136  1.1794 -0.0801
  402MOL0     H54211   3.206   3.405   0.174  0.4765  0.3946  0.1090
  402MOL0     H54212   3.267   3.560   0.235  0.2902 -1.1400  0.1330
  402MOL0     H54213   3.165   3.677   0.046 -0.9391  1.4963  1.9458
  402MOL0     H54214   3.108   3.518  -0.020 -6.2201  1.2854  0.4153
  402MOL0     H54215   2.967   3.462   0.160  1.6385 -1.4183 -1.4797
  402MOL0     H54216   3.037   3.577   0.264  0.2408 -0.4735 -0.8771
  402MOL0     H54217   2.946   3.763   0.115 -0.9908  0.8554 -0.6104
  402MOL0     H54218   2.884   3.643   0.001 -1.6076  1.8076 -0.0721
  402MOL0     H54219   2.780   3.658   0.286 -0.6530 -1.0241  0.7118
  402MOL0     H54220   2.704   3.573   0.143 -1.1751  0.7559  0.6261
  402MOL0     H54221   2.577   3.683  -0.020  1.8723 -1.1854  0.1050
  402MOL0     H54222   2.358   3.856  -0.065  2.5118 -0.9936 -0.6846
  402MOL0     H54223   2.337   3.987   0.042 -3.5126 -2.7903 -2.2083
  402MOL0     H54224   2.485   3.972  -0.215 -0.7088 -0.8686  0.6708
  402MOL0     H54225   2.548   4.084  -0.099  2.2607 -2.2887 -0.7123
  402MOL0     H54226   2.381   4.185  -0.264 -0.3673  1.3739  0.6070
  402MOL0     H54227   2.317   4.205  -0.105 -0.0710  2.1587 -1.4108
  402MOL0     H54228   2.137   4.138  -0.251 -0.1186  0.5199 -0.1076
  402MOL0     H54229   2.174   4.005  -0.144  1.7027  3.4577  2.7349
  402MOL0     H54230   2.233   3.729  -0.380 -1.0734 -0.5922  1.7043
  402MOL0     H54231   2.006   3.464  -0.321  0.1875 -0.4872 -0.6887
  402MOL0     H54232   2.026   3.475  -0.497 -2.4033 -2.1835  1.2312
  402MOL0     H54233   2.161   3.498  -0.383 -0.5654 -1.2847  0.5038
  402MOL0     H54234   1.420   3.682  -0.524 -2.1981 -0.6134 -0.9644
  402MOL0     H54235   1.233   3.543  -0.506  1.5922  1.1344 -1.6153
  402MOL0     H54236   1.222   3.149  -0.347 -1.7593  0.5917 -3.3043
  402MOL0     H54237   1.205   3.225  -0.187  1.2257  0.0078  0.0153
  402MOL0     H54238   0.973   3.264  -0.219 -2.5821 -1.0869  0.1314
  402MOL0     H54239   0.979   3.212  -0.383  1.0452  3.8801 -0.4935
  402MOL0     H54240   1.027   2.990  -0.277 -0.2078 -0.4933  0.4161
  402MOL0     H54241   0.874   3.067  -0.215  0.3656  1.3631  0.2327
  402MOL0     H54242   1.147   3.031  -0.072  0.0218  1.8475  1.2454
  402MOL0     H54243   1.001   3.123  -0.019 -0.4870  1.3764 -2.7010
  402MOL0     H54244   1.032   2.832  -0.065 -1.0356  0.6480 -1.7728
  402MOL0     H54245   0.872   2.913  -0.041 -0.6172 -0.8672  1.7403
  402MOL0     H54246   1.102   2.931   0.164  0.1996  0.7736 -0.8339
  402MOL0     H54247   0.934   2.983   0.178 -2.0584 -1.5336 -1.0843
  402MOL0     H54248   0.898   2.722   0.128  0.4120 -0.5643 -0.2818
  402MOL0     H54249   0.912   2.774   0.293  1.0224  1.4493  0.3816
  402MOL0     H54250   1.037   2.578   0.232  1.2629 -0.3115 -0.7688
  402MOL0     H54251   1.134   2.701   0.316 -0.5157 -1.6877  1.4911
  402MOL0     H54252   1.410   3.304  -0.207  2.7864  0.8306  1.9496
  402MOL0     H54253   1.620   3.450  -0.233  1.5413  2.1840 -1.4954
  402MOL0     H54254   1.775   3.891  -0.433  0.9055  4.6807 -0.9176
  402MOL0     H54255   1.970   4.051  -0.384  2.5894  0.1615  0.0010
  402MOL0     H54256   3.842   3.373  -0.059 -2.5556  3.0247  2.2702
  402MOL0     H54257   4.080   3.391   0.018 -0.0356  1.3819  0.6297
  402MOL0     H54258   4.372   3.072   0.255 -0.3163  1.1465  0.8857
  402MOL0     H54259   4.592   2.997   0.323  2.1433  0.9569  1.8129
  402MOL0     H54260   4.922   3.247   0.218  3.6244  0.8046  0.4893
  402MOL0     H54261   4.913   3.299   0.388  1.4247  0.6614  0.0009
  402MOL0     H54262   5.036   3.098   0.452  3.9100 -1.4505 -0.8338
  402MOL0     H54263   5.118   3.223   0.346  0.1600 -0.1936 -0.4354
  402MOL0     H54264   5.100   3.087   0.155 -1.0493  0.9812  0.7553
  402MOL0     H54265   5.039   2.951   0.257  2.5290 -1.9037  3.4523
  402MOL0     H54266   5.252   2.910   0.241  1.2935  0.8359 -2.6121
  402MOL0     H54267   5.249   2.981   0.403 -2.5552  0.1647  0.2840
  402MOL0     H54268   5.544   3.203   0.204 -1.0763  3.3414 -0.4859
  402MOL0     H54269   4.720   3.408   0.307 -0.8839  0.9904 -1.9039
  402MOL0     H54270   4.503   3.483   0.246 -2.1555 -0.4212  2.8476
  403MOL0     O54271   2.084   0.266   8.151  0.3475  0.0322  0.2144
  403MOL0     C54272   2.100   0.384   8.142 -0.6699 -0.3320 -0.0497
  403MOL0     O54273   2.004   0.485   8.141  0.1920  1.1146  0.5565
  403MOL0     C54274   1.880   0.453   8.168  0.3413 -0.0963 -0.4815
  403MOL0     C54275   1.803   0.437   8.058  0.1919 -0.1945 -0.5787
  403MOL0     C54276   1.681   0.381   8.077  0.5794 -0.0013 -0.0273
  403MOL0     C54277   1.620   0.353   8.200  0.3198 -0.4398  0.3698
  403MOL0     O54278   1.488   0.326   8.203  1.1705 -0.1281  0.2676
  403MOL0     C54279   1.440   0.226   8.118  0.3435  0.7218 -0.5901
  403MOL0     C54280   1.303   0.177   8.174 -0.3888  0.0038  0.5420
  403MOL0     C54281   1.185   0.275   8.170  0.8345  0.0158 -0.2215
  403MOL0     C54282   1.056   0.196   8.189 -0.8898 -0.1813  0.3838
  403MOL0     C54283   0.930   0.284   8.171 -0.4538  0.9017  0.0516
  403MOL0     C54284   0.809   0.186   8.192  0.1514 -0.1307  0.4185
  403MOL0     C54285   0.666   0.228   8.146  0.2396  0.5880 -0.3376
  403MOL0     C54286   0.632   0.246   7.995  0.4996 -0.6103  0.0916
  403MOL0     N54287   0.492   0.272   7.983 -0.0841  0.0657 -0.1903
  403MOL0     C54288   0.424   0.386   8.005 -0.0464 -0.8093  0.6835
  403MOL0     C54289   0.293   0.364   7.982 -0.3999 -0.1164  1.0457
  403MOL0     C54290   0.182   0.468   7.996 -0.7308  1.0277  0.0144
  403MOL0     C54291   0.071   0.398   8.074 -0.4607 -0.8832 -0.8641
  403MOL0     C54292  -0.028   0.495   8.118 -0.5684  0.0505  0.2597
  403MOL0     C54293  -0.135   0.445   8.218 -1.2194  0.0200  0.9843
  403MOL0     O54294  -0.249   0.545   8.224 -0.7563 -0.5259 -0.3946
  403MOL0     C54295  -0.364   0.494   8.276  0.7099 -0.0582  0.5269
  403MOL0     C54296  -0.383   0.364   8.335  0.5015  0.2896 -0.6714
  403MOL0     C54297  -0.513   0.312   8.372  0.5233 -0.1892  0.0888
  403MOL0     C54298  -0.518   0.169   8.424  0.0870 -0.2364  0.5858
  403MOL0     C54299  -0.625   0.397   8.363 -0.2790 -0.9786  0.0780
  403MOL0     C54300  -0.764   0.361   8.403  0.4813  0.2482 -0.0568
  403MOL0     O54301  -0.863   0.461   8.382 -0.3171  0.5454 -0.0397
  403MOL0     C54302  -0.991   0.436   8.424 -0.1975  0.2953  0.4223
  403MOL0     C54303  -1.023   0.374   8.551 -0.0585 -0.8637  0.3430
  403MOL0     C54304  -1.153   0.367   8.603 -0.0155  0.8901 -0.8234
  403MOL0     C54305  -1.255   0.414   8.523  0.2572 -0.5273 -0.3547
  403MOL0     O54306  -1.386   0.404   8.572  0.1967  0.7127  0.6051
  403MOL0     C54307  -1.450   0.521   8.624  0.4759  0.0821  0.2564
  403MOL0     C54308  -1.574   0.483   8.709  0.0397  0.5540  0.1591
  403MOL0     C54309  -1.541   0.402   8.839  0.1705 -0.1928  0.3598
  403MOL0     C54310  -1.666   0.379   8.927 -0.0326  0.1981  0.1939
  403MOL0     C54311  -1.790   0.322   8.853 -0.6458 -0.4757 -0.8204
  403MOL0     C54312  -1.894   0.265   8.951  0.1984 -0.1749  0.3234
  403MOL0     C54313  -2.021   0.221   8.875  0.8315 -0.3144 -0.1605
  403MOL0     C54314  -2.142   0.233   8.965  0.4121  0.1745 -0.0213
  403MOL0    Cl54315  -2.296   0.180   8.883 -0.0251 -0.0778  0.0329
  403MOL0     C54316  -1.231   0.455   8.390 -1.2252 -0.1078 -0.4043
  403MOL0     C54317  -1.095   0.480   8.348  0.4158  0.2086 -0.2306
  403MOL0     O54318  -0.788   0.250   8.453 -0.2366  0.1430  0.2018
  403MOL0     C54319  -0.603   0.532   8.303 -0.4736  0.4598 -0.6034
  403MOL0     C54320  -0.478   0.575   8.270 -1.0145 -0.0203  0.5785
  403MOL0     N54321   0.287   0.233   7.942 -0.3737 -0.2409 -0.3760
  403MOL0     N54322   0.404   0.183   7.933 -0.2267 -0.3971  0.2316
  403MOL0     C54323   1.691   0.380   8.314 -0.5624 -0.1538 -0.1214
  403MOL0     C54324   1.830   0.432   8.302 -0.2916 -0.5086  0.3447
  403MOL0     C54325   2.242   0.428   8.132 -0.6156 -0.0509 -0.4706
  403MOL0     C54326   2.284   0.564   8.122  1.0838  0.4082 -0.1610
  403MOL0     C54327   2.413   0.606   8.099 -0.0388 -0.6019  0.9079
  403MOL0     C54328   2.518   0.509   8.103 -0.4637 -0.0861  0.4051
  403MOL0     O54329   2.641   0.545   8.052  0.2798  0.2317 -0.3449
  403MOL0     C54330   2.722   0.454   7.975  0.6342  0.7355 -0.7945
  403MOL0     C54331   2.766   0.494   7.832  0.4354  0.0172  0.0584
  403MOL0     C54332   2.667   0.464   7.721 -0.2930  0.2011  0.1993
  403MOL0     C54333   2.687   0.316   7.678 -0.0531  0.2712 -0.1315
  403MOL0     C54334   2.591   0.265   7.583 -1.1320 -0.7300  0.2119
  403MOL0     C54335   2.512   0.206   7.507  0.6031 -0.2553  0.0606
  403MOL0     C54336   2.487   0.381   8.135 -0.0940  0.6231 -0.4565
  403MOL0     C54337   2.353   0.339   8.152  0.5056 -0.2631 -0.9495
  403MOL0     H54338   1.855   0.457   7.965  2.0221 -0.9487  0.2371
  403MOL0     H54339   1.632   0.370   7.980 -0.9213 -0.9784  0.7969
  403MOL0     H54340   1.414   0.264   8.019 -1.9587 -4.2575 -2.2409
  403MOL0     H54341   1.501   0.136   8.102 -0.6087 -0.0386 -0.0804
  403MOL0     H54342   1.284   0.086   8.116 -0.7083  0.4581 -0.0774
  403MOL0     H54343   1.307   0.143   8.278 -3.7413 -1.7244  0.2394
  403MOL0     H54344   1.196   0.348   8.251  0.1170  0.0686 -0.1647
  403MOL0     H54345   1.190   0.329   8.075  1.2848  0.0906 -0.1579
  403MOL0     H54346   1.065   0.119   8.112 -4.2862  2.4185 -3.0271
  403MOL0     H54347   1.053   0.143   8.284  0.2067  0.3355  0.7192
  403MOL0     H54348   0.936   0.353   8.256 -0.8300 -0.5637  1.3227
  403MOL0     H54349   0.916   0.333   8.074 -3.3494 -0.2690 -0.1897
  403MOL0     H54350   0.836   0.094   8.140  0.3744 -1.2318  2.3676
  403MOL0     H54351   0.809   0.154   8.297 -0.0252 -0.8590  0.2021
  403MOL0     H54352   0.601   0.148   8.182 -2.3658 -0.0670 -5.5013
  403MOL0     H54353   0.643   0.318   8.204  1.4219  0.7824 -0.1417
  403MOL0     H54354   0.661   0.147   7.958  5.0142 -0.3302  2.2702
  403MOL0     H54355   0.691   0.327   7.952  0.4932  0.5387  2.1556
  403MOL0     H54356   0.464   0.478   8.046  0.5534 -1.9083  2.7017
  403MOL0     H54357   0.226   0.553   8.050  1.0829 -0.2926  0.7017
  403MOL0     H54358   0.148   0.496   7.896 -0.2168  0.9506 -0.1839
  403MOL0     H54359   0.117   0.349   8.160  0.3555 -0.0141 -0.7935
  403MOL0     H54360   0.023   0.328   8.005 -0.9160 -2.5812  1.0832
  403MOL0     H54361  -0.080   0.525   8.026 -0.5062 -2.3049 -0.5943
  403MOL0     H54362   0.030   0.578   8.161  1.9055 -0.8306 -1.1781
  403MOL0     H54363  -0.085   0.427   8.314  1.1125 -2.1863 -0.5656
  403MOL0     H54364  -0.169   0.348   8.183  1.6658  0.0794 -2.4514
  403MOL0     H54365  -0.305   0.290   8.329  0.2767  0.1492 -3.0640
  403MOL0     H54366  -0.425   0.119   8.398 -0.1848 -2.2390  3.0574
  403MOL0     H54367  -0.535   0.162   8.532 -3.2957  4.1841  0.6011
  403MOL0     H54368  -0.593   0.110   8.370  0.2881  0.5208 -0.5588
  403MOL0     H54369  -0.938   0.333   8.606  2.5075  1.6351 -1.4798
  403MOL0     H54370  -1.163   0.304   8.690  0.2857  0.1356 -1.3281
  403MOL0     H54371  -1.381   0.586   8.679  1.0080  0.4488 -0.8200
  403MOL0     H54372  -1.491   0.569   8.535  0.9564 -0.6040 -0.3502
  403MOL0     H54373  -1.625   0.575   8.742  1.4026  0.5141  2.5894
  403MOL0     H54374  -1.641   0.420   8.649 -0.1127 -0.3420  1.2494
  403MOL0     H54375  -1.467   0.454   8.900  0.4250  0.7749 -0.7365
  403MOL0     H54376  -1.496   0.309   8.802 -1.4359 -1.0399  0.4329
  403MOL0     H54377  -1.642   0.303   9.001 -0.2702  2.1492  2.3924
  403MOL0     H54378  -1.686   0.470   8.984  0.3817  0.8950 -0.7300
  403MOL0     H54379  -1.752   0.235   8.798 -0.3316 -1.1171  0.3715
  403MOL0     H54380  -1.834   0.398   8.788 -0.5670  1.2379  1.0282
  403MOL0     H54381  -1.861   0.179   9.010 -1.2549  0.6657  2.4827
  403MOL0     H54382  -1.920   0.340   9.026  3.5577 -1.4013  2.9777
  403MOL0     H54383  -2.027   0.117   8.843 -1.3861  0.1921 -1.6192
  403MOL0     H54384  -2.041   0.288   8.791 -0.1656 -1.4324 -0.8443
  403MOL0     H54385  -2.142   0.340   8.987  1.7456 -0.2181  2.0658
  403MOL0     H54386  -2.126   0.176   9.056  2.4964  0.9181  0.1374
  403MOL0     H54387  -1.305   0.488   8.318 -1.1844  0.6250 -0.1153
  403MOL0     H54388  -1.076   0.527   8.252  1.1001  0.7078  0.1459
  403MOL0     H54389  -0.682   0.603   8.280 -0.5693  0.6256  0.1936
  403MOL0     H54390  -0.462   0.672   8.223  0.9627 -1.1156 -1.1642
  403MOL0     H54391   1.637   0.389   8.407 -0.2103 -0.1656  0.0842
  403MOL0     H54392   1.891   0.476   8.380 -2.2265  1.2327  0.9608
  403MOL0     H54393   2.208   0.640   8.110  0.6444 -0.0131 -0.0790
  403MOL0     H54394   2.442   0.708   8.078  0.5993 -1.2616 -1.8659
  403MOL0     H54395   2.817   0.451   8.030  0.5984 -0.3818 -0.7592
  403MOL0     H54396   2.679   0.353   7.970 -2.9221  2.0471  0.2730
  403MOL0     H54397   2.856   0.432   7.822 -0.2710 -0.7232 -2.3801
  403MOL0     H54398   2.800   0.598   7.826 -1.1525  0.5626  0.2374
  403MOL0     H54399   2.682   0.520   7.628  2.4440 -1.0630 -0.2165
  403MOL0     H54400   2.566   0.481   7.759 -1.6619 -1.1654 -2.5422
  403MOL0     H54401   2.689   0.262   7.773  2.1228  1.1924  0.4199
  403MOL0     H54402   2.788   0.308   7.636 -0.5321 -0.7219 -1.1240
  403MOL0     H54403   2.443   0.168   7.435  1.2984  1.5601 -1.6302
  403MOL0     H54404   2.560   0.303   8.155 -0.3619  1.0421  2.8521
  403MOL0     H54405   2.318   0.241   8.182 -0.2356  0.1156 -0.5628
  404MOL0     O54406   9.938   8.145   0.321  0.1280  0.1958  0.0414
  404MOL0     C54407  10.016   8.190   0.235  0.5993 -0.4448  0.5865
  404MOL0     O54408   9.980   8.225   0.106  0.1885 -0.0520 -0.5111
  404MOL0     C54409   9.854   8.209   0.052 -1.2979 -0.0418  0.3047
  404MOL0     C54410   9.741   8.138   0.096  0.1549 -0.3196 -0.6048
  404MOL0     C54411   9.624   8.132   0.017 -0.0492 -1.4665  0.4377
  404MOL0     C54412   9.621   8.200  -0.111  0.6105  0.0078 -0.2635
  404MOL0     O54413   9.516   8.178  -0.191 -0.0179  0.1585 -0.0630
  404MOL0     C54414   9.387   8.205  -0.129  1.0245  0.5339 -0.4175
  404MOL0     C54415   9.290   8.197  -0.248  0.4021 -0.3045 -0.2781
  404MOL0     C54416   9.149   8.254  -0.205  0.2608 -0.2650  0.2311
  404MOL0     C54417   9.049   8.202  -0.310 -0.5378 -0.1792  0.1912
  404MOL0     C54418   8.939   8.306  -0.334 -0.0845 -0.4116 -0.3003
  404MOL0     C54419   8.818   8.248  -0.407  0.9796 -0.1614 -0.3239
  404MOL0     C54420   8.707   8.349  -0.435 -0.2341 -0.3150  0.1527
  404MOL0     C54421   8.588   8.276  -0.484  0.0861 -0.5319  0.4965
  404MOL0     N54422   8.472   8.361  -0.510 -0.4195 -0.2267  0.8253
  404MOL0     C54423   8.392   8.407  -0.413  0.0353  0.1213 -0.1241
  404MOL0     C54424   8.286   8.467  -0.471  0.4906 -0.0208 -0.0615
  404MOL0     C54425   8.170   8.517  -0.389  0.5966 -0.3420  0.2816
  404MOL0     C54426   8.057   8.419  -0.430 -0.8357  0.1747 -0.3685
  404MOL0     C54427   7.938   8.462  -0.347 -0.3737  0.0910 -0.5897
  404MOL0     C54428   7.808   8.385  -0.376  0.6993  0.6055 -0.4865
  404MOL0     O54429   7.776   8.381  -0.510 -0.2405 -0.2789  0.5594
  404MOL0     C54430   7.642   8.341  -0.535 -0.1280 -0.4756 -0.1021
  404MOL0     C54431   7.621   8.257  -0.644  0.8735  0.6138  1.1087
  404MOL0     C54432   7.502   8.196  -0.677 -0.3575 -0.2686  0.0074
  404MOL0     C54433   7.491   8.083  -0.783  0.5507  0.7094  0.1532
  404MOL0     C54434   7.382   8.235  -0.602  0.2915 -1.0576 -0.0108
  404MOL0     C54435   7.241   8.186  -0.618  0.1260  0.0860 -0.4915
  404MOL0     O54436   7.140   8.240  -0.539 -0.0654  0.0649  0.2001
  404MOL0     C54437   7.006   8.245  -0.583 -0.5680  0.5544  0.4166
  404MOL0     C54438   6.914   8.279  -0.479 -0.8929 -0.0362  0.1853
  404MOL0     C54439   6.780   8.292  -0.498  0.3824  0.3555 -0.5112
  404MOL0     C54440   6.720   8.263  -0.617 -0.4515 -0.5560  0.0298
  404MOL0     O54441   6.586   8.277  -0.629  0.6758 -0.6384  0.7189
  404MOL0     C54442   6.533   8.368  -0.716  0.1758 -0.0086  0.3484
  404MOL0     C54443   6.420   8.301  -0.790 -0.2472  0.2641 -0.5001
  404MOL0     C54444   6.284   8.300  -0.705  0.6282  0.7402  0.1734
  404MOL0     C54445   6.147   8.278  -0.781  0.8012 -0.7052  0.6686
  404MOL0     C54446   6.019   8.333  -0.701 -0.3000 -0.1861 -0.4411
  404MOL0     C54447   5.880   8.313  -0.769 -0.0808 -0.2756  1.0971
  404MOL0     C54448   5.776   8.369  -0.686 -0.3562  0.0877  0.2478
  404MOL0     C54449   5.641   8.333  -0.734  0.1382  0.1873 -0.1221
  404MOL0    Cl54450   5.516   8.393  -0.625  0.3710  0.1642  0.2383
  404MOL0     C54451   6.810   8.248  -0.726 -0.9930  0.7725  0.1102
  404MOL0     C54452   6.949   8.226  -0.717 -0.1393 -0.0391  0.5878
  404MOL0     O54453   7.223   8.098  -0.698  0.0872 -0.0657  0.0145
  404MOL0     C54454   7.408   8.323  -0.486  0.7796 -0.1467  1.3876
  404MOL0     C54455   7.528   8.373  -0.458  0.1814  0.0256  0.0325
  404MOL0     N54456   8.298   8.459  -0.607 -0.1913  0.1860 -0.3721
  404MOL0     N54457   8.409   8.393  -0.626 -0.9416  0.5621 -0.0073
  404MOL0     C54458   9.733   8.272  -0.154  0.7164 -0.2454  0.2056
  404MOL0     C54459   9.843   8.280  -0.071 -0.9158  0.8520  0.6340
  404MOL0     C54460  10.156   8.205   0.269 -0.8432  0.5798 -0.0403
  404MOL0     C54461  10.254   8.242   0.178 -0.2515  0.1029 -0.2385
  404MOL0     C54462  10.386   8.250   0.220  1.1673 -0.5489 -0.0941
  404MOL0     C54463  10.423   8.230   0.356  0.0341  0.4003  0.2508
  404MOL0     O54464  10.549   8.232   0.396  0.2524  0.7603 -0.4712
  404MOL0     C54465  10.597   8.360   0.427  0.3726  1.0083  0.1527
  404MOL0     C54466  10.728   8.338   0.496 -0.7616  0.3228  0.4016
  404MOL0     C54467  10.779   8.479   0.525 -0.4814 -0.2534 -0.1126
  404MOL0     C54468  10.926   8.466   0.572 -0.4943  0.7787 -0.5914
  404MOL0     C54469  10.984   8.595   0.600 -0.4981  0.3304 -0.4650
  404MOL0     C54470  11.042   8.694   0.637  0.5382 -0.2682  0.1359
  404MOL0     C54471  10.325   8.187   0.446  1.0077 -0.4124  1.5359
  404MOL0     C54472  10.192   8.175   0.398 -0.4508  0.2337  0.5417
  404MOL0     H54473   9.749   8.090   0.193 -2.0399 -0.8025 -0.6077
  404MOL0     H54474   9.545   8.064   0.046  1.5954 -2.7098  2.2860
  404MOL0     H54475   9.360   8.130  -0.053  0.0304  1.1562 -0.1366
  404MOL0     H54476   9.382   8.300  -0.076 -0.4137 -1.5764  3.7039
  404MOL0     H54477   9.331   8.247  -0.336 -0.6102  0.2358 -0.4588
  404MOL0     H54478   9.286   8.088  -0.257 -1.2100 -0.6642  3.1258
  404MOL0     H54479   9.112   8.226  -0.106 -3.0468 -1.4281 -1.1797
  404MOL0     H54480   9.141   8.362  -0.215 -0.1930 -0.3404 -0.2795
  404MOL0     H54481   9.095   8.204  -0.409 -0.6843 -1.3322  0.0813
  404MOL0     H54482   9.017   8.099  -0.295 -0.2562 -0.3832 -0.5641
  404MOL0     H54483   8.902   8.334  -0.234 -2.5137 -2.6356 -0.4759
  404MOL0     H54484   8.980   8.389  -0.393  0.7956  0.2822  1.2154
  404MOL0     H54485   8.853   8.195  -0.495 -0.6305 -0.8581 -0.5881
  404MOL0     H54486   8.783   8.181  -0.328  0.6774  1.4541  0.9788
  404MOL0     H54487   8.689   8.417  -0.351  0.6130 -0.5301  0.5231
  404MOL0     H54488   8.735   8.416  -0.517 -0.6319 -0.6124 -0.2276
  404MOL0     H54489   8.562   8.198  -0.412  1.3374 -2.6603 -1.2401
  404MOL0     H54490   8.609   8.226  -0.579  0.8089 -0.4491  0.6062
  404MOL0     H54491   8.406   8.391  -0.307 -0.3079 -1.1613 -0.2525
  404MOL0     H54492   8.186   8.516  -0.281 -1.5325  2.4197  0.7267
  404MOL0     H54493   8.162   8.622  -0.418 -1.5655 -0.9340 -1.4995
  404MOL0     H54494   8.094   8.319  -0.404  0.5855  0.9435  0.7483
  404MOL0     H54495   8.044   8.430  -0.538 -1.9538 -0.2077 -0.2890
  404MOL0     H54496   7.916   8.565  -0.376  1.3486  1.0911  1.3614
  404MOL0     H54497   7.969   8.462  -0.242  3.1379  3.4654 -1.3660
  404MOL0     H54498   7.727   8.426  -0.316 -0.0880 -2.1477  0.4500
  404MOL0     H54499   7.835   8.285  -0.342  1.4595  0.9010 -0.1953
  404MOL0     H54500   7.707   8.244  -0.710 -0.0031  0.0831  0.0450
  404MOL0     H54501   7.577   8.049  -0.842 -1.0934 -3.8293 -0.0486
  404MOL0     H54502   7.471   7.994  -0.723 -1.2445  1.1755  0.2940
  404MOL0     H54503   7.412   8.113  -0.853  3.9084  2.1880 -3.4302
  404MOL0     H54504   6.947   8.290  -0.376  2.2774  0.8565 -0.8173
  404MOL0     H54505   6.730   8.316  -0.405  0.6114 -0.9098 -0.0454
  404MOL0     H54506   6.496   8.460  -0.670  2.4422  2.4377 -2.3220
  404MOL0     H54507   6.619   8.395  -0.778  1.4971 -1.6603  1.3564
  404MOL0     H54508   6.404   8.371  -0.873  3.1124  1.1908 -0.5178
  404MOL0     H54509   6.442   8.200  -0.824 -0.7075  0.4964 -1.5560
  404MOL0     H54510   6.268   8.399  -0.661  1.3441  0.6454  0.6807
  404MOL0     H54511   6.296   8.227  -0.624  0.5948 -0.2319 -0.6698
  404MOL0     H54512   6.135   8.335  -0.874 -1.7373  1.9178  2.4216
  404MOL0     H54513   6.133   8.173  -0.809  0.8522  0.0120 -2.4137
  404MOL0     H54514   6.029   8.441  -0.689  0.6524 -0.2942 -0.1778
  404MOL0     H54515   6.015   8.287  -0.602 -0.0552  1.2323  0.2458
  404MOL0     H54516   5.871   8.368  -0.863  0.3825 -0.5117  0.9122
  404MOL0     H54517   5.866   8.207  -0.787 -1.5215  0.0018  0.4529
  404MOL0     H54518   5.777   8.479  -0.683  1.1681  0.1161 -0.4476
  404MOL0     H54519   5.793   8.343  -0.581 -0.7773  0.3903  0.3960
  404MOL0     H54520   5.638   8.223  -0.736 -0.8229  0.1970  0.0744
  404MOL0     H54521   5.630   8.367  -0.838 -0.9287  1.5181  0.4019
  404MOL0     H54522   6.775   8.242  -0.829  1.3925 -0.3830 -0.6879
  404MOL0     H54523   7.013   8.210  -0.803 -0.5664 -2.1684  0.6298
  404MOL0     H54524   7.324   8.368  -0.433 -0.3911  0.9033 -1.2043
  404MOL0     H54525   7.529   8.444  -0.376 -3.7991 -1.5205  1.6649
  404MOL0     H54526   9.709   8.317  -0.250 -3.5556 -0.9812  0.7244
  404MOL0     H54527   9.931   8.338  -0.099 -1.1756 -0.4476 -3.5214
  404MOL0     H54528  10.237   8.268   0.074  3.3196 -1.2227 -1.3012
  404MOL0     H54529  10.460   8.281   0.146  1.0172 -0.0120 -0.0192
  404MOL0     H54530  10.612   8.412   0.332  0.9016  2.2804  0.9176
  404MOL0     H54531  10.519   8.413   0.482 -0.5573  0.2215 -0.3664
  404MOL0     H54532  10.790   8.275   0.431 -1.7699  0.8676 -1.1548
  404MOL0     H54533  10.713   8.288   0.592  2.7777  0.7803  1.3406
  404MOL0     H54534  10.730   8.522   0.613 -1.4440 -1.9181  0.2091
  404MOL0     H54535  10.784   8.538   0.433  0.0627 -0.4180 -0.1920
  404MOL0     H54536  10.992   8.424   0.495 -1.7107 -4.0524  0.6568
  404MOL0     H54537  10.936   8.407   0.663  2.8546  0.3910 -1.0723
  404MOL0     H54538  11.093   8.783   0.668 -0.4731  0.3081  0.1969
  404MOL0     H54539  10.338   8.160   0.550 -1.8339 -2.8614  1.4007
  404MOL0     H54540  10.116   8.147   0.470 -1.2097  0.2379 -0.2478
  405MOL0     O54541   2.759   3.624   1.269 -0.5897 -0.6530  0.3047
  405MOL0     C54542   2.772   3.594   1.150  0.5228 -0.6461 -0.2950
  405MOL0     O54543   2.690   3.617   1.043 -0.4444  0.1475  0.0386
  405MOL0     C54544   2.567   3.675   1.045 -0.2205 -0.8655 -0.3672
  405MOL0     C54545   2.498   3.721   1.164  0.5612  0.2269 -0.2014
  405MOL0     C54546   2.386   3.802   1.147  0.3569 -0.3205 -1.2080
  405MOL0     C54547   2.323   3.813   1.028 -0.6338 -0.7431 -0.5279
  405MOL0     O54548   2.201   3.883   1.026  0.6161 -0.1924  0.3271
  405MOL0     C54549   2.210   3.989   0.936 -0.0559 -0.5950  0.2250
  405MOL0     C54550   2.079   4.067   0.926  0.1262 -0.0942  0.3972
  405MOL0     C54551   1.976   3.997   0.835 -0.5481 -0.2303  0.4772
  405MOL0     C54552   1.834   4.053   0.861  0.3406  0.0482  0.1971
  405MOL0     C54553   1.742   3.972   0.770 -0.9657  0.1249 -0.1951
  405MOL0     C54554   1.604   4.002   0.803  0.0245  0.3435 -0.7840
  405MOL0     C54555   1.505   3.980   0.687 -0.1395 -0.9894  0.9064
  405MOL0     C54556   1.500   3.844   0.613  0.1413 -0.4003  0.6082
  405MOL0     N54557   1.382   3.841   0.528  0.2531  0.5666  0.5356
  405MOL0     C54558   1.264   3.916   0.537 -0.7100  0.3443 -0.8549
  405MOL0     C54559   1.191   3.892   0.428 -0.1454 -0.3769 -0.7735
  405MOL0     C54560   1.063   3.962   0.387 -0.3763 -0.4095 -0.8060
  405MOL0     C54561   0.948   3.865   0.395 -0.2587 -0.0108 -0.4104
  405MOL0     C54562   0.938   3.765   0.274 -0.3464  0.0975  0.2678
  405MOL0     C54563   0.807   3.681   0.268  0.2215  0.1084  0.5211
  405MOL0     O54564   0.685   3.767   0.243 -0.1763 -0.1757 -0.5740
  405MOL0     C54565   0.564   3.727   0.279 -1.0815  0.2353 -0.5392
  405MOL0     C54566   0.528   3.588   0.298  0.3390  0.2553  0.0455
  405MOL0     C54567   0.394   3.549   0.321 -0.2800 -0.5654  1.5334
  405MOL0     C54568   0.379   3.398   0.329 -0.1992 -0.6770 -0.2799
  405MOL0     C54569   0.295   3.649   0.337  0.5502  0.0264  0.4900
  405MOL0     C54570   0.153   3.620   0.367  0.1338  0.1951 -0.1522
  405MOL0     O54571   0.073   3.729   0.423  0.2360  0.5895  0.2054
  405MOL0     C54572  -0.055   3.708   0.469  0.7091  0.4069 -0.2469
  405MOL0     C54573  -0.098   3.595   0.528 -0.2383  0.4811  0.0628
  405MOL0     C54574  -0.229   3.588   0.575  0.1382 -0.3429 -0.5348
  405MOL0     C54575  -0.322   3.689   0.560 -0.1569 -0.2321 -0.9215
  405MOL0     O54576  -0.439   3.661   0.617 -0.5556 -0.3908  1.1705
  405MOL0     C54577  -0.540   3.768   0.640 -0.6670  0.2898 -0.4356
  405MOL0     C54578  -0.668   3.710   0.686  0.3307  0.5588  0.0419
  405MOL0     C54579  -0.772   3.825   0.653  0.3897  0.5405 -0.1414
  405MOL0     C54580  -0.916   3.775   0.682 -0.2115  0.2757 -0.4707
  405MOL0     C54581  -0.960   3.685   0.566  0.7962  1.5303 -0.5904
  405MOL0     C54582  -1.109   3.637   0.585  1.1527  0.1428  0.6444
  405MOL0     C54583  -1.215   3.750   0.556 -0.1380  0.1781 -0.4850
  405MOL0     C54584  -1.360   3.718   0.539  0.0655 -0.3303 -0.3462
  405MOL0    Cl54585  -1.388   3.578   0.430 -0.0310  0.3731 -0.2300
  405MOL0     C54586  -0.278   3.811   0.508  0.3508 -0.0165 -0.2368
  405MOL0     C54587  -0.145   3.817   0.457 -0.5274 -0.2185 -0.3336
  405MOL0     O54588   0.104   3.513   0.332  0.7060 -0.8955  0.2692
  405MOL0     C54589   0.333   3.783   0.338 -0.3169  0.3615 -0.1298
  405MOL0     C54590   0.465   3.818   0.299  0.0090  0.7841  0.3228
  405MOL0     N54591   1.268   3.818   0.341  0.1564  0.3089 -0.0601
  405MOL0     N54592   1.374   3.785   0.411  0.5546 -0.1002  0.1577
  405MOL0     C54593   2.381   3.752   0.915  0.6425 -0.4618  0.3629
  405MOL0     C54594   2.504   3.689   0.921 -0.0445 -0.1670  0.0217
  405MOL0     C54595   2.905   3.539   1.119 -0.7438 -0.4403  0.4777
  405MOL0     C54596   2.919   3.449   1.010 -0.7175  0.3905 -0.0062
  405MOL0     C54597   3.041   3.389   0.981  0.2090  0.1249 -0.1665
  405MOL0     C54598   3.154   3.413   1.047 -0.4749 -0.3173 -0.8107
  405MOL0     O54599   3.269   3.333   1.022 -0.1642 -0.8393 -0.1134
  405MOL0     C54600   3.295   3.288   0.891  0.2404  0.1563  0.1896
  405MOL0     C54601   3.449   3.266   0.894 -0.9327 -0.0691 -1.1583
  405MOL0     C54602   3.543   3.396   0.897 -0.0882  0.0484  0.3354
  405MOL0     C54603   3.685   3.372   0.929 -0.3880 -0.3383  0.2246
  405MOL0     C54604   3.698   3.366   1.075  0.3073 -0.1343 -0.1550
  405MOL0     C54605   3.721   3.373   1.195  0.3104  1.0033  0.5671
  405MOL0     C54606   3.147   3.505   1.154  0.1416  0.9673  0.0031
  405MOL0     C54607   3.022   3.566   1.191 -0.0753  0.5897 -0.9862
  405MOL0     H54608   2.541   3.714   1.263  0.2687  1.4877  0.0341
  405MOL0     H54609   2.338   3.834   1.239 -2.2537 -1.6060 -2.0229
  405MOL0     H54610   2.289   4.061   0.958 -0.5894  0.4857 -1.2412
  405MOL0     H54611   2.235   3.960   0.834  2.4043  0.2864  0.5236
  405MOL0     H54612   2.043   4.081   1.028 -1.3972  1.9819 -0.3535
  405MOL0     H54613   2.100   4.169   0.894 -0.3486 -1.1065 -3.6860
  405MOL0     H54614   1.997   4.022   0.731 -1.0681 -1.1735  0.1298
  405MOL0     H54615   1.985   3.891   0.860  0.1733 -0.2382  0.1928
  405MOL0     H54616   1.811   4.053   0.968  0.4489  3.8252  0.3396
  405MOL0     H54617   1.818   4.159   0.840 -0.5218 -0.4091 -1.6440
  405MOL0     H54618   1.769   4.007   0.669  2.4692 -0.3854  0.4370
  405MOL0     H54619   1.754   3.864   0.779  3.1033  0.3144 -1.5526
  405MOL0     H54620   1.585   3.944   0.894  0.0181 -2.0816 -2.2526
  405MOL0     H54621   1.593   4.107   0.832 -0.5482 -0.3142  1.5678
  405MOL0     H54622   1.412   3.990   0.746  0.7808 -0.3332  2.3159
  405MOL0     H54623   1.523   4.057   0.611  3.1604 -0.6798  1.8822
  405MOL0     H54624   1.503   3.759   0.682 -2.0996  0.8655  2.4260
  405MOL0     H54625   1.591   3.837   0.553  0.6582  2.0022  0.9909
  405MOL0     H54626   1.241   3.975   0.625  2.8416 -1.6454  1.6899
  405MOL0     H54627   1.032   4.039   0.458 -1.3234  0.3217 -1.9784
  405MOL0     H54628   1.065   3.997   0.283  0.2915 -1.4638 -1.1675
  405MOL0     H54629   0.850   3.911   0.410 -1.2594 -2.0976 -0.1940
  405MOL0     H54630   0.949   3.815   0.492  1.7749  0.0628 -0.3573
  405MOL0     H54631   1.017   3.690   0.278  0.2570  0.7115  0.0393
  405MOL0     H54632   0.950   3.820   0.181  1.6141 -0.7061  0.0111
  405MOL0     H54633   0.809   3.622   0.360 -1.1336 -1.5973 -0.4830
  405MOL0     H54634   0.828   3.619   0.181  2.4183  0.2726  0.8774
  405MOL0     H54635   0.605   3.515   0.275  1.4738  1.4552 -0.0962
  405MOL0     H54636   0.358   3.369   0.225  0.3123  1.3746 -1.0114
  405MOL0     H54637   0.470   3.351   0.368  0.6549 -0.3088 -1.7366
  405MOL0     H54638   0.296   3.361   0.389 -0.0705 -1.0394 -0.3183
  405MOL0     H54639  -0.034   3.510   0.549 -1.8329 -0.9916 -0.7521
  405MOL0     H54640  -0.265   3.498   0.623  1.2282 -0.5396 -0.0745
  405MOL0     H54641  -0.514   3.847   0.711  0.4979 -1.2351  0.9153
  405MOL0     H54642  -0.546   3.816   0.542 -0.8706 -1.7318 -1.4696
  405MOL0     H54643  -0.686   3.619   0.628  1.6368 -1.0987  2.0908
  405MOL0     H54644  -0.669   3.679   0.791  1.1752 -1.2292 -0.4433
  405MOL0     H54645  -0.764   3.855   0.549  1.7720 -0.1852 -0.2592
  405MOL0     H54646  -0.749   3.902   0.727  1.6952 -2.3001  2.6542
  405MOL0     H54647  -0.918   3.732   0.783 -0.8554 -2.0818 -1.4217
  405MOL0     H54648  -0.986   3.858   0.694 -1.2215 -0.3238 -1.9276
  405MOL0     H54649  -0.899   3.594   0.557  0.5903  1.0752  1.7246
  405MOL0     H54650  -0.956   3.742   0.474 -0.0758  0.6392 -1.2037
  405MOL0     H54651  -1.135   3.552   0.521  1.5071  0.4941  0.0208
  405MOL0     H54652  -1.127   3.593   0.684  1.4984  2.3176  1.7446
  405MOL0     H54653  -1.182   3.787   0.459 -0.7809 -0.0636 -0.8025
  405MOL0     H54654  -1.198   3.830   0.629  2.0162  0.7048 -1.4785
  405MOL0     H54655  -1.413   3.801   0.492  0.0321  0.1714  0.5470
  405MOL0     H54656  -1.421   3.699   0.628  0.0155 -0.6126 -0.4396
  405MOL0     H54657  -0.343   3.897   0.495 -0.4651  0.0123  3.1349
  405MOL0     H54658  -0.118   3.908   0.404  0.4850 -0.0743  0.3805
  405MOL0     H54659   0.267   3.866   0.361  2.5380  2.6813  0.2304
  405MOL0     H54660   0.504   3.919   0.304  1.2486  0.3401  0.0945
  405MOL0     H54661   2.335   3.764   0.817  3.1768  2.9978 -0.6058
  405MOL0     H54662   2.557   3.658   0.832  0.7281  2.9662 -0.7463
  405MOL0     H54663   2.836   3.421   0.946  0.3423  1.0402 -1.7487
  405MOL0     H54664   3.040   3.318   0.899  2.0882 -0.9814  0.7213
  405MOL0     H54665   3.244   3.194   0.868 -2.0159  1.4656 -0.4870
  405MOL0     H54666   3.261   3.346   0.806 -1.5124 -2.5584 -1.0950
  405MOL0     H54667   3.475   3.206   0.807 -0.9433 -0.1875 -1.0794
  405MOL0     H54668   3.468   3.216   0.989 -1.8191  1.7140  0.0293
  405MOL0     H54669   3.489   3.452   0.975 -0.5547 -0.3278  0.2859
  405MOL0     H54670   3.536   3.446   0.800  1.2440  0.7883  0.5843
  405MOL0     H54671   3.751   3.450   0.889 -0.1037 -1.8818 -2.5773
  405MOL0     H54672   3.713   3.279   0.878  0.3225 -0.5381  0.9613
  405MOL0     H54673   3.742   3.370   1.300 -0.6112 -0.8498  0.7337
  405MOL0     H54674   3.239   3.517   1.210 -0.8891  0.1324  1.9531
  405MOL0     H54675   3.013   3.640   1.269  1.0254 -0.7326  0.4698
  406MOL0     O54676   1.478   9.934   8.461  0.1987 -0.7440 -0.1070
  406MOL0     C54677   1.463   9.931   8.585 -0.2591 -0.7285  1.0262
  406MOL0     O54678   1.346   9.911   8.648  0.1854 -0.3562  0.5016
  406MOL0     C54679   1.240   9.875   8.575  0.9423 -0.4175 -0.5111
  406MOL0     C54680   1.241   9.770   8.480  0.1075 -0.0199 -0.2336
  406MOL0     C54681   1.128   9.754   8.409  0.8513  1.3440  0.2622
  406MOL0     C54682   1.002   9.807   8.441 -1.4789 -0.5101 -0.2978
  406MOL0     O54683   0.903   9.776   8.356 -0.1941  0.7256  0.5354
  406MOL0     C54684   0.817   9.882   8.313  0.2682  0.2575  0.2121
  406MOL0     C54685   0.674   9.835   8.334  0.2544  0.5664 -0.1783
  406MOL0     C54686   0.577   9.945   8.279 -0.9620 -0.1155  0.5728
  406MOL0     C54687   0.431   9.894   8.265  0.0075 -0.9078 -0.2354
  406MOL0     C54688   0.348  10.002   8.203  0.2928 -0.3587  0.1916
  406MOL0     C54689   0.204   9.953   8.187 -0.2565  0.2768 -0.0102
  406MOL0     C54690   0.111  10.064   8.147 -0.5406  0.7000 -0.4279
  406MOL0     C54691  -0.029  10.015   8.103 -0.5800 -1.0512 -0.5341
  406MOL0     N54692  -0.120  10.125   8.052 -1.2059 -0.5562 -0.2985
  406MOL0     C54693  -0.151  10.234   8.130 -0.3814  0.0842  0.8590
  406MOL0     C54694  -0.226  10.305   8.043 -0.7721 -0.5134 -0.0386
  406MOL0     C54695  -0.279  10.443   8.073  0.4628 -0.1640  0.2941
  406MOL0     C54696  -0.361  10.442   8.207  0.2044 -0.1851  0.2697
  406MOL0     C54697  -0.476  10.337   8.200 -0.4692 -0.0153 -0.3065
  406MOL0     C54698  -0.593  10.390   8.116  0.6152  0.6473  0.0034
  406MOL0     O54699  -0.675  10.280   8.076 -0.1898 -0.0158  0.2345
  406MOL0     C54700  -0.787  10.246   8.146 -0.0747  0.5196 -0.7223
  406MOL0     C54701  -0.867  10.151   8.089 -0.2597 -0.3986 -0.4993
  406MOL0     C54702  -0.985  10.116   8.153  0.3512  0.1863 -0.1060
  406MOL0     C54703  -1.095  10.053   8.072  0.6099  0.2797 -0.2551
  406MOL0     C54704  -1.019  10.168   8.281  0.1973  0.4925  0.2810
  406MOL0     C54705  -1.141  10.134   8.364  0.6545  0.3734  0.3849
  406MOL0     O54706  -1.201  10.248   8.422 -0.5815 -0.4000 -0.2467
  406MOL0     C54707  -1.311  10.218   8.497  0.4172 -0.2221  0.5190
  406MOL0     C54708  -1.305  10.220   8.637 -0.2535  0.3846  0.6054
  406MOL0     C54709  -1.418  10.192   8.718 -0.1985 -0.6011  0.6889
  406MOL0     C54710  -1.544  10.181   8.658  0.3328 -0.9004  0.6753
  406MOL0     O54711  -1.657  10.156   8.734 -0.6269  0.0467 -0.5006
  406MOL0     C54712  -1.782  10.127   8.669  0.0431  0.1163 -0.3774
  406MOL0     C54713  -1.875  10.061   8.774  0.1551  0.0401  0.0720
  406MOL0     C54714  -2.015  10.028   8.717 -0.6055  1.1917 -0.9610
  406MOL0     C54715  -2.094   9.934   8.809 -0.0023 -0.5847 -0.3173
  406MOL0     C54716  -2.246   9.936   8.779 -0.5854  0.5084 -0.6326
  406MOL0     C54717  -2.310   9.830   8.861 -0.4998  0.9203 -0.4620
  406MOL0     C54718  -2.463   9.828   8.857  0.1840  0.7930  0.3639
  406MOL0     C54719  -2.525   9.723   8.942  1.1823  0.3825 -0.3827
  406MOL0    Cl54720  -2.703   9.719   8.899 -0.2128 -0.0972  0.3007
  406MOL0     C54721  -1.550  10.185   8.516  0.2025 -0.3017 -0.3613
  406MOL0     C54722  -1.434  10.208   8.443  0.5245  0.3237 -0.3085
  406MOL0     O54723  -1.178  10.019   8.388 -0.4323 -0.1737  0.6855
  406MOL0     C54724  -0.928  10.253   8.343  0.2845 -0.1161 -0.5256
  406MOL0     C54725  -0.813  10.291   8.276  0.4099  0.2443  0.3739
  406MOL0     N54726  -0.235  10.252   7.916  0.6095  0.0854 -0.5657
  406MOL0     N54727  -0.166  10.136   7.927  0.1117 -0.4540 -0.2875
  406MOL0     C54728   0.993   9.906   8.543  0.5789  0.8534 -0.0427
  406MOL0     C54729   1.111   9.938   8.607  0.0329 -0.2604  0.1534
  406MOL0     C54730   1.583   9.962   8.664 -0.2059 -0.3797 -0.5783
  406MOL0     C54731   1.701  10.023   8.604  0.7076 -0.0925 -1.1187
  406MOL0     C54732   1.812  10.062   8.682 -0.9651  0.0576  0.8133
  406MOL0     C54733   1.816  10.043   8.821 -0.0843  0.0972 -0.4845
  406MOL0     O54734   1.913  10.085   8.898 -0.4186  0.7176 -0.2331
  406MOL0     C54735   2.031  10.152   8.837 -0.1420  0.0672 -0.2624
  406MOL0     C54736   2.133  10.194   8.945 -0.7557 -0.4101  0.2787
  406MOL0     C54737   2.245  10.277   8.876  0.1152  0.9172  0.1824
  406MOL0     C54738   2.200  10.406   8.796 -0.0358  0.4826  0.1915
  406MOL0     C54739   2.085  10.475   8.850 -0.4798 -0.4117  0.3897
  406MOL0     C54740   1.993  10.531   8.901 -0.2406  0.5459 -1.0412
  406MOL0     C54741   1.699   9.976   8.871 -0.0969 -0.2816 -0.1478
  406MOL0     C54742   1.583   9.933   8.804 -0.1227  0.5298  0.4294
  406MOL0     H54743   1.335   9.716   8.481  0.1544  0.0090 -1.3920
  406MOL0     H54744   1.126   9.674   8.336 -0.0741 -0.1737  1.8561
  406MOL0     H54745   0.833   9.975   8.368  1.3966  0.7797 -0.9625
  406MOL0     H54746   0.838   9.904   8.208  3.1533 -0.2364  0.6150
  406MOL0     H54747   0.656   9.741   8.282  3.7229  0.7444 -1.9915
  406MOL0     H54748   0.663   9.818   8.442 -0.8384  0.9414 -0.2247
  406MOL0     H54749   0.591  10.017   8.360  0.9336 -1.1345  1.2072
  406MOL0     H54750   0.617   9.992   8.188  1.5322 -2.8806  0.0892
  406MOL0     H54751   0.413   9.808   8.201 -2.5776  0.0827 -0.9692
  406MOL0     H54752   0.393   9.868   8.365 -0.5569  0.0812 -0.1770
  406MOL0     H54753   0.352  10.085   8.275 -1.5722 -0.3464  0.3204
  406MOL0     H54754   0.393  10.028   8.106  1.1927  0.0879  0.7132
  406MOL0     H54755   0.203   9.874   8.112  0.1156 -1.4775  1.7440
  406MOL0     H54756   0.167   9.902   8.276  0.4300  2.2992  1.5214
  406MOL0     H54757   0.106  10.143   8.222  2.5950  1.7846 -1.2398
  406MOL0     H54758   0.147  10.119   8.060  0.5355  1.2245  0.3398
  406MOL0     H54759  -0.080   9.955   8.179 -0.0640 -0.7028  0.0893
  406MOL0     H54760  -0.018   9.947   8.017 -1.7356 -1.2540 -0.5449
  406MOL0     H54761  -0.113  10.258   8.228  2.2955 -1.2449  0.2475
  406MOL0     H54762  -0.199  10.517   8.086 -0.2637  0.6503  0.2256
  406MOL0     H54763  -0.347  10.485   7.999 -0.2637 -0.9548  0.5035
  406MOL0     H54764  -0.395  10.542   8.235  2.8553  0.5856  0.9533
  406MOL0     H54765  -0.303  10.409   8.294 -1.2358  0.2252  1.4326
  406MOL0     H54766  -0.514  10.316   8.301 -1.7487  0.1409 -0.7391
  406MOL0     H54767  -0.438  10.243   8.160  3.0026  2.0653 -2.3832
  406MOL0     H54768  -0.558  10.436   8.023  0.6345  0.9625  0.1650
  406MOL0     H54769  -0.652  10.460   8.175  1.9367  1.2328  0.6640
  406MOL0     H54770  -0.846  10.099   7.996 -1.5249  1.7053 -2.0376
  406MOL0     H54771  -1.169  10.130   8.049 -0.6408 -0.7362  0.2284
  406MOL0     H54772  -1.060  10.009   7.978  1.7008 -1.7928  1.0558
  406MOL0     H54773  -1.149   9.975   8.126 -1.1615  1.2398 -0.5679
  406MOL0     H54774  -1.218  10.261   8.687 -1.2048  3.7483 -0.2454
  406MOL0     H54775  -1.408  10.200   8.826  0.8341 -0.1915  0.5696
  406MOL0     H54776  -1.829  10.219   8.632  1.5097  0.0820 -2.4581
  406MOL0     H54777  -1.788  10.051   8.591  0.3649 -3.2171  2.5862
  406MOL0     H54778  -1.833   9.965   8.805 -0.2618 -0.0029  0.5138
  406MOL0     H54779  -1.889  10.123   8.863 -0.8566  2.8899 -1.9486
  406MOL0     H54780  -1.990   9.984   8.620  0.5712  1.0973 -0.6299
  406MOL0     H54781  -2.060  10.125   8.696  0.6022  1.6744 -1.4248
  406MOL0     H54782  -2.052   9.834   8.792  2.7738  0.3262  0.5723
  406MOL0     H54783  -2.072   9.960   8.913  0.1687  0.3364 -0.5721
  406MOL0     H54784  -2.260   9.915   8.673 -0.6954 -1.1168 -0.3168
  406MOL0     H54785  -2.278  10.036   8.810  0.5170  0.5861  0.3744
  406MOL0     H54786  -2.257   9.737   8.838  2.1152  2.5162 -1.2330
  406MOL0     H54787  -2.297   9.856   8.967  1.2566 -0.4693 -0.2882
  406MOL0     H54788  -2.487   9.806   8.753  0.5815 -0.9322  0.6028
  406MOL0     H54789  -2.497   9.926   8.892  0.0489  1.0932 -0.5920
  406MOL0     H54790  -2.529   9.761   9.045  0.6092 -0.4769 -0.0729
  406MOL0     H54791  -2.476   9.626   8.928  0.5484  0.0425 -0.3021
  406MOL0     H54792  -1.642  10.180   8.458  0.4863  0.0825 -0.8434
  406MOL0     H54793  -1.436  10.223   8.335  3.1205  1.7236 -0.2296
  406MOL0     H54794  -0.961  10.280   8.443 -0.1676  0.1917 -0.7548
  406MOL0     H54795  -0.744  10.354   8.331  1.7658 -1.2128  0.4040
  406MOL0     H54796   0.895   9.946   8.566  1.2535  4.4077 -2.5491
  406MOL0     H54797   1.093  10.007   8.688 -2.8224 -1.0362  0.2609
  406MOL0     H54798   1.706  10.062   8.503 -1.7010  1.8999 -0.5907
  406MOL0     H54799   1.890  10.120   8.634 -3.5681  1.8308 -1.6520
  406MOL0     H54800   2.079  10.074   8.777 -0.9960  0.3896 -1.3775
  406MOL0     H54801   1.992  10.235   8.778 -0.7798  0.4427  0.6633
  406MOL0     H54802   2.168  10.096   8.978  2.7944  1.3219  2.1998
  406MOL0     H54803   2.067  10.246   9.016 -2.2934  0.5268 -1.6994
  406MOL0     H54804   2.295  10.212   8.803 -2.2835  0.1636 -0.8846
  406MOL0     H54805   2.315  10.313   8.951 -0.4968  2.5049  0.0218
  406MOL0     H54806   2.177  10.374   8.694 -1.7594  0.6687  0.4940
  406MOL0     H54807   2.287  10.471   8.789  0.3991 -0.1677 -0.5938
  406MOL0     H54808   1.920  10.574   8.967 -0.0392  1.5387 -1.4446
  406MOL0     H54809   1.692   9.974   8.980  1.4495 -1.4909 -0.0278
  406MOL0     H54810   1.491   9.907   8.856 -0.6608 -0.2173 -0.8312
  407MOL0     O54811   0.942   6.585   8.740  0.8188  0.1856 -0.6310
  407MOL0     C54812   0.829   6.548   8.778  0.0168 -0.6177  0.6616
  407MOL0     O54813   0.793   6.428   8.829  0.0120 -0.2504 -0.5404
  407MOL0     C54814   0.897   6.340   8.864  0.7625  0.3052 -1.2397
  407MOL0     C54815   0.935   6.247   8.774 -0.6562 -0.4842  0.9087
  407MOL0     C54816   1.027   6.147   8.805  0.3628  0.3787 -0.7048
  407MOL0     C54817   1.095   6.147   8.930  0.3341  0.3255 -0.3257
  407MOL0     O54818   1.181   6.052   8.956  0.2138  0.4622  1.0095
  407MOL0     C54819   1.301   6.080   9.019 -0.3805 -0.2627  0.5390
  407MOL0     C54820   1.370   5.944   9.042 -0.6988  0.3263 -0.7514
  407MOL0     C54821   1.515   5.961   9.059  0.5787  0.1475 -0.6902
  407MOL0     C54822   1.591   5.824   9.091 -0.5878 -0.1462 -0.3513
  407MOL0     C54823   1.745   5.823   9.066 -0.1061  0.1174  0.5500
  407MOL0     C54824   1.835   5.910   9.156 -0.2980 -0.8347  0.0571
  407MOL0     C54825   1.872   6.049   9.092  0.1768  0.0336 -0.5607
  407MOL0     C54826   1.886   6.166   9.191 -0.0898 -0.2017  0.5175
  407MOL0     N54827   1.746   6.198   9.244 -0.0616  0.1154 -0.1021
  407MOL0     C54828   1.662   6.294   9.188 -0.0546  0.4689 -0.0521
  407MOL0     C54829   1.577   6.313   9.293 -0.5945 -0.8530  0.1553
  407MOL0     C54830   1.491   6.427   9.311  0.3742 -0.9718 -0.8665
  407MOL0     C54831   1.343   6.390   9.311 -0.8385  0.2630 -0.0141
  407MOL0     C54832   1.244   6.499   9.294  0.3244 -1.0409  0.4279
  407MOL0     C54833   1.117   6.480   9.379 -0.5639 -0.3860  0.2126
  407MOL0     O54834   1.024   6.579   9.337  0.2549 -0.2952 -0.0410
  407MOL0     C54835   0.892   6.560   9.369 -0.3926  0.1050 -0.1197
  407MOL0     C54836   0.848   6.485   9.485 -0.4419 -0.0391  0.3191
  407MOL0     C54837   0.713   6.480   9.520 -0.7190 -1.0917  0.0967
  407MOL0     C54838   0.681   6.416   9.654  0.7920  0.6890 -0.0386
  407MOL0     C54839   0.626   6.559   9.435  0.7430 -0.3964  0.5275
  407MOL0     C54840   0.481   6.577   9.463  0.2631  0.2205 -0.2108
  407MOL0     O54841   0.409   6.478   9.530  0.2881 -0.2793 -0.2226
  407MOL0     C54842   0.280   6.498   9.570  0.3223 -0.3017  0.3814
  407MOL0     C54843   0.177   6.421   9.508  0.1532 -0.4535 -0.5768
  407MOL0     C54844   0.041   6.440   9.559  0.3283 -0.4079 -0.3429
  407MOL0     C54845   0.016   6.531   9.663  0.5484  1.0707 -0.0790
  407MOL0     O54846  -0.108   6.553   9.722 -1.0780  0.6726  0.4168
  407MOL0     C54847  -0.209   6.465   9.674  1.0686 -0.2121 -0.2977
  407MOL0     C54848  -0.335   6.513   9.744 -0.2481 -0.2728  0.9573
  407MOL0     C54849  -0.469   6.467   9.690  0.4365  0.7862 -0.3577
  407MOL0     C54850  -0.517   6.552   9.570  0.0092 -0.1549 -0.4944
  407MOL0     C54851  -0.665   6.557   9.531  0.5557 -0.6701 -0.6065
  407MOL0     C54852  -0.690   6.668   9.425  0.0584 -0.0161  0.2655
  407MOL0     C54853  -0.602   6.659   9.298  0.3915  0.6575  0.8219
  407MOL0     C54854  -0.613   6.531   9.216 -0.2321  0.5166  0.0776
  407MOL0    Cl54855  -0.788   6.494   9.191  0.1152  0.2647  0.1977
  407MOL0     C54856   0.122   6.605   9.715 -0.4013  0.1240  1.0830
  407MOL0     C54857   0.255   6.583   9.679  0.4249 -0.2302  0.1794
  407MOL0     O54858   0.440   6.682   9.424  0.5110  0.1384 -0.1692
  407MOL0     C54859   0.672   6.629   9.321  0.4280 -0.2349 -0.9264
  407MOL0     C54860   0.802   6.627   9.288  0.2601 -0.4736  0.4406
  407MOL0     N54861   1.603   6.230   9.398 -0.8686  0.2383 -0.9299
  407MOL0     N54862   1.701   6.156   9.368 -1.0943  0.0593  0.3110
  407MOL0     C54863   1.052   6.242   9.027 -0.9739  0.5854  0.6076
  407MOL0     C54864   0.957   6.333   8.988  0.3619 -0.9228  0.1362
  407MOL0     C54865   0.735   6.658   8.769 -0.4335  0.0849  0.0780
  407MOL0     C54866   0.778   6.785   8.825 -0.2672 -0.6647  0.4064
  407MOL0     C54867   0.695   6.897   8.832 -0.1669  0.1770  0.8249
  407MOL0     C54868   0.569   6.889   8.772 -0.1888  0.3228  0.2054
  407MOL0     O54869   0.479   6.997   8.758  0.4187  0.4787  0.4798
  407MOL0     C54870   0.531   7.133   8.782  0.6769 -0.1792  0.3172
  407MOL0     C54871   0.424   7.236   8.795 -0.5519 -0.0822 -0.4774
  407MOL0     C54872   0.344   7.244   8.666  0.4376 -0.1796 -0.8125
  407MOL0     C54873   0.217   7.329   8.688  0.8919  0.2621 -0.0662
  407MOL0     C54874   0.133   7.350   8.570  0.1036 -0.0020  0.4439
  407MOL0     C54875   0.073   7.368   8.464 -0.3169 -0.2092  0.2346
  407MOL0     C54876   0.526   6.765   8.718 -0.0441  0.6920 -0.2277
  407MOL0     C54877   0.601   6.646   8.729 -0.3667 -0.9072  0.0997
  407MOL0     H54878   0.876   6.246   8.683  3.0381  0.1907 -1.6887
  407MOL0     H54879   1.057   6.065   8.742  1.0232 -0.0578  0.1562
  407MOL0     H54880   1.372   6.144   8.966  1.1612 -1.1450  1.4487
  407MOL0     H54881   1.277   6.132   9.112 -0.4779 -1.6616  1.3357
  407MOL0     H54882   1.336   5.886   9.128 -0.8039  1.6518  0.1155
  407MOL0     H54883   1.361   5.890   8.947  1.8057 -0.2778 -0.7111
  407MOL0     H54884   1.556   6.013   8.971  1.2336  2.6663  0.9851
  407MOL0     H54885   1.521   6.024   9.148  1.5948 -1.2193  0.2542
  407MOL0     H54886   1.569   5.793   9.194 -0.1132  1.9054  0.4153
  407MOL0     H54887   1.554   5.748   9.023 -0.3179 -1.0849  0.5246
  407MOL0     H54888   1.769   5.719   9.089  0.0089  0.2947  1.2895
  407MOL0     H54889   1.767   5.843   8.961 -1.2239  1.8750  0.6016
  407MOL0     H54890   1.786   5.916   9.254 -1.6742 -0.2178 -0.6334
  407MOL0     H54891   1.934   5.866   9.163  0.2112  0.4644  1.8748
  407MOL0     H54892   1.970   6.041   9.043 -0.1265 -0.4221 -1.1080
  407MOL0     H54893   1.795   6.081   9.021 -1.4400  0.4677  1.3209
  407MOL0     H54894   1.934   6.252   9.143  0.1859 -2.2551 -3.3333
  407MOL0     H54895   1.956   6.132   9.268  1.6824  2.9418  0.4396
  407MOL0     H54896   1.666   6.348   9.094  0.1351 -2.0007 -1.5767
  407MOL0     H54897   1.513   6.485   9.402 -2.2894  1.5820 -1.6810
  407MOL0     H54898   1.505   6.497   9.228 -1.9150  2.4583  1.3755
  407MOL0     H54899   1.321   6.336   9.403  0.9750 -3.2370 -1.4541
  407MOL0     H54900   1.329   6.326   9.223 -1.2355 -1.3264  1.1604
  407MOL0     H54901   1.213   6.497   9.189 -1.0777 -0.8269  0.8315
  407MOL0     H54902   1.288   6.598   9.312 -1.8440  0.2937 -1.1972
  407MOL0     H54903   1.140   6.504   9.483  1.0066  0.2752 -0.2525
  407MOL0     H54904   1.079   6.378   9.381 -0.0096 -0.5997  0.0885
  407MOL0     H54905   0.914   6.438   9.557 -0.1214  0.2993  0.2489
  407MOL0     H54906   0.768   6.371   9.702 -0.9540 -2.4010  0.4630
  407MOL0     H54907   0.627   6.482   9.723  1.8641  2.3855 -0.7656
  407MOL0     H54908   0.610   6.335   9.635  1.3685  0.7940 -3.0072
  407MOL0     H54909   0.205   6.359   9.423  1.7725 -0.8021  0.1745
  407MOL0     H54910  -0.034   6.385   9.503 -0.9890 -0.4582  1.3643
  407MOL0     H54911  -0.223   6.469   9.566  1.2728 -0.3563 -0.3299
  407MOL0     H54912  -0.189   6.365   9.716  0.0568  0.0480  0.8775
  407MOL0     H54913  -0.323   6.479   9.847 -2.8629 -0.8689  1.1379
  407MOL0     H54914  -0.341   6.622   9.738 -2.0336 -0.3711  0.1201
  407MOL0     H54915  -0.547   6.461   9.766  1.1019  2.0640  0.4600
  407MOL0     H54916  -0.458   6.363   9.656 -0.3807  0.7759 -0.6088
  407MOL0     H54917  -0.483   6.655   9.584 -2.3794  0.9186 -1.9234
  407MOL0     H54918  -0.457   6.517   9.485  0.2635  1.7863 -1.1864
  407MOL0     H54919  -0.729   6.577   9.617  3.4661 -0.0998  1.5439
  407MOL0     H54920  -0.700   6.461   9.490  1.2447 -1.7576  1.2173
  407MOL0     H54921  -0.796   6.682   9.404 -0.2886  1.9028  2.8319
  407MOL0     H54922  -0.665   6.766   9.466  0.8479  0.0172 -0.2872
  407MOL0     H54923  -0.498   6.678   9.325  1.0713  0.0702 -1.1914
  407MOL0     H54924  -0.613   6.737   9.221  1.0097  1.6564  1.7103
  407MOL0     H54925  -0.559   6.448   9.263 -3.2302 -2.2097 -0.8473
  407MOL0     H54926  -0.570   6.563   9.121  4.2660 -2.7473  0.6716
  407MOL0     H54927   0.088   6.674   9.792  0.2655  0.6307  0.9312
  407MOL0     H54928   0.333   6.646   9.719  0.1910 -0.2321  0.6461
  407MOL0     H54929   0.617   6.688   9.248  0.4987  1.0021 -0.0025
  407MOL0     H54930   0.847   6.674   9.201  1.3025 -0.7615  0.8005
  407MOL0     H54931   1.089   6.251   9.128 -0.0842  3.2249  0.1284
  407MOL0     H54932   0.909   6.395   9.063 -2.7102 -3.9666  0.9454
  407MOL0     H54933   0.878   6.801   8.866 -0.6382  0.8536  0.7876
  407MOL0     H54934   0.733   6.989   8.876 -2.3129 -0.2382  3.9378
  407MOL0     H54935   0.593   7.142   8.872 -2.6960 -2.3108  3.1212
  407MOL0     H54936   0.601   7.151   8.700 -0.1083  0.8400 -0.1515
  407MOL0     H54937   0.466   7.334   8.820  2.0031 -0.4693 -2.6811
  407MOL0     H54938   0.355   7.197   8.870 -2.3108 -1.4088 -2.6621
  407MOL0     H54939   0.329   7.145   8.623 -1.8408  0.5069 -1.7669
  407MOL0     H54940   0.399   7.292   8.584  0.1177  1.2681 -0.2132
  407MOL0     H54941   0.245   7.427   8.727  2.4393 -0.2374  0.1397
  407MOL0     H54942   0.151   7.285   8.763 -0.3141  2.7972  0.4796
  407MOL0     H54943   0.006   7.376   8.381 -0.7724 -0.6922  0.5567
  407MOL0     H54944   0.424   6.763   8.681 -1.2214  2.1542  2.6186
  407MOL0     H54945   0.559   6.549   8.709  0.1735 -1.5692  1.9259
  408MOL0     O54946   5.561   8.304   6.196  0.0370 -0.7793  0.2342
  408MOL0     C54947   5.541   8.253   6.309 -0.3236  0.0320 -0.3460
  408MOL0     O54948   5.424   8.260   6.377 -0.2759 -0.0575 -0.3805
  408MOL0     C54949   5.314   8.305   6.309 -0.2672 -0.5442  0.3397
  408MOL0     C54950   5.235   8.415   6.354 -0.3317  0.0935 -0.2881
  408MOL0     C54951   5.141   8.477   6.273  0.1350  0.9183 -0.0560
  408MOL0     C54952   5.108   8.421   6.147  0.3290 -0.1847 -0.5399
  408MOL0     O54953   5.017   8.478   6.069  0.2514 -0.6937 -0.3338
  408MOL0     C54954   4.969   8.413   5.957  0.0712  0.0553  0.3952
  408MOL0     C54955   4.858   8.485   5.876  0.5345  0.2222 -0.9437
  408MOL0     C54956   4.745   8.537   5.962 -0.6674  0.1406  0.0566
  408MOL0     C54957   4.687   8.435   6.059  0.1316 -0.1637  0.1007
  408MOL0     C54958   4.625   8.315   5.974  0.2727 -0.3381  0.1082
  408MOL0     C54959   4.499   8.339   5.879  0.1167  0.8653 -0.3078
  408MOL0     C54960   4.427   8.203   5.856  0.4295  0.1298 -0.0360
  408MOL0     C54961   4.308   8.232   5.767  1.0076  0.5263  1.2835
  408MOL0     N54962   4.192   8.300   5.819  0.6435 -0.2612 -0.2741
  408MOL0     C54963   4.137   8.290   5.948 -0.4603 -0.1341 -0.1117
  408MOL0     C54964   4.071   8.408   5.969 -0.4717 -0.3275 -0.1863
  408MOL0     C54965   3.991   8.441   6.092  0.0072 -0.3624  0.1616
  408MOL0     C54966   3.835   8.412   6.088  0.1530  0.4415 -0.1261
  408MOL0     C54967   3.753   8.485   5.981 -0.0031  0.1016 -0.6811
  408MOL0     C54968   3.616   8.420   5.964 -0.3099  0.1468 -0.5708
  408MOL0     O54969   3.538   8.517   5.891  0.0698  0.1473  0.0009
  408MOL0     C54970   3.398   8.512   5.887 -1.0129  0.4236 -0.1025
  408MOL0     C54971   3.344   8.606   5.794 -0.1217 -0.0767 -0.0203
  408MOL0     C54972   3.204   8.636   5.782  0.9252 -0.0064  0.3966
  408MOL0     C54973   3.165   8.734   5.672  0.1720 -0.2631  0.2949
  408MOL0     C54974   3.117   8.563   5.867  0.4435  0.4398  0.4880
  408MOL0     C54975   2.969   8.579   5.871 -0.1237 -0.3279  0.1676
  408MOL0     O54976   2.913   8.647   5.769 -0.9968 -0.2408 -0.4057
  408MOL0     C54977   2.785   8.702   5.764 -0.4456  0.6886  0.4733
  408MOL0     C54978   2.761   8.814   5.674  0.5088  0.7925  0.3724
  408MOL0     C54979   2.632   8.860   5.655 -0.3098 -0.5182 -0.8974
  408MOL0     C54980   2.520   8.806   5.720 -0.1096 -0.6625 -0.1039
  408MOL0     O54981   2.393   8.857   5.690 -0.1637  0.4285  0.1870
  408MOL0     C54982   2.272   8.847   5.774 -0.6283  0.2329 -1.0242
  408MOL0     C54983   2.161   8.920   5.705 -0.4216 -0.5015 -0.0101
  408MOL0     C54984   2.067   8.838   5.620 -0.2056  0.2089  0.0695
  408MOL0     C54985   1.955   8.921   5.559 -0.8670 -0.0880 -0.7244
  408MOL0     C54986   1.837   8.846   5.521  0.0671 -0.1926  1.1138
  408MOL0     C54987   1.747   8.933   5.436 -0.9641 -0.6518 -0.0521
  408MOL0     C54988   1.618   8.858   5.406  0.1002 -0.2078 -0.0119
  408MOL0     C54989   1.539   8.921   5.293 -0.2470  0.5389  0.5720
  408MOL0    Cl54990   1.527   9.105   5.315  0.0421  0.0533  0.4338
  408MOL0     C54991   2.542   8.704   5.813 -0.7445 -0.0317 -0.6077
  408MOL0     C54992   2.670   8.652   5.825 -0.4674 -0.1127  1.1180
  408MOL0     O54993   2.898   8.521   5.958 -0.0405  0.4388 -0.1860
  408MOL0     C54994   3.164   8.467   5.962 -0.9782 -0.4270 -0.2266
  408MOL0     C54995   3.305   8.451   5.976  0.3599  0.3773  0.2395
  408MOL0     N54996   4.094   8.487   5.856 -0.0037  0.6321 -0.4494
  408MOL0     N54997   4.163   8.421   5.775 -0.5706 -0.6148 -0.0885
  408MOL0     C54998   5.168   8.297   6.111  0.4764  0.4276  0.1572
  408MOL0     C54999   5.273   8.241   6.195 -0.6261 -0.2529  0.0571
  408MOL0     C55000   5.659   8.198   6.386  0.3825  0.8423 -0.5955
  408MOL0     C55001   5.658   8.184   6.526 -0.3765 -0.2045  0.3207
  408MOL0     C55002   5.773   8.133   6.590  0.3911 -0.1624  0.1053
  408MOL0     C55003   5.888   8.099   6.517 -0.4182 -1.1082 -0.1231
  408MOL0     O55004   5.987   8.042   6.598 -0.3239 -0.2203  0.3571
  408MOL0     C55005   6.096   7.982   6.529  0.5484 -0.3057 -0.8480
  408MOL0     C55006   6.199   7.929   6.623 -0.2087  0.3270 -0.3810
  408MOL0     C55007   6.134   7.846   6.739 -0.1693  0.4149  1.1377
  408MOL0     C55008   6.054   7.734   6.679  0.1262  0.2365 -0.2795
  408MOL0     C55009   6.024   7.621   6.766 -0.6230 -0.3798 -0.1939
  408MOL0     C55010   6.008   7.521   6.837 -0.3453  0.7229 -0.6960
  408MOL0     C55011   5.883   8.106   6.380 -0.3900  0.2068  0.2643
  408MOL0     C55012   5.770   8.153   6.309  0.3283 -0.1104 -0.1923
  408MOL0     H55013   5.258   8.465   6.448  2.2458 -1.1456 -0.1718
  408MOL0     H55014   5.097   8.564   6.322  0.7609  1.6340 -0.7444
  408MOL0     H55015   5.050   8.402   5.885  1.2572 -2.0396  1.9166
  408MOL0     H55016   4.917   8.319   5.981  1.9502 -2.5538 -4.4356
  408MOL0     H55017   4.907   8.563   5.817 -1.0379  2.2279  0.2783
  408MOL0     H55018   4.817   8.422   5.796  1.3081 -1.4747 -0.0632
  408MOL0     H55019   4.785   8.616   6.025 -1.0610 -1.2020  2.0687
  408MOL0     H55020   4.671   8.571   5.888 -0.7989  0.5852  0.3900
  408MOL0     H55021   4.756   8.400   6.135  1.3409 -3.5110 -2.3007
  408MOL0     H55022   4.604   8.474   6.118 -0.3522 -1.8009  0.5593
  408MOL0     H55023   4.703   8.267   5.915  1.1056  0.5648  0.4378
  408MOL0     H55024   4.599   8.248   6.057 -1.8654  2.4679  1.8995
  408MOL0     H55025   4.431   8.407   5.931 -4.0238 -2.3110 -1.0139
  408MOL0     H55026   4.530   8.391   5.788  1.1644  1.2022  0.2259
  408MOL0     H55027   4.497   8.137   5.804 -0.1835 -1.6684  1.3367
  408MOL0     H55028   4.398   8.152   5.948 -1.0037 -1.3103 -1.2348
  408MOL0     H55029   4.278   8.132   5.732  0.7290  1.0971 -0.1823
  408MOL0     H55030   4.340   8.289   5.680 -0.6335 -1.0136 -0.4287
  408MOL0     H55031   4.132   8.197   6.004 -2.3672 -1.3512 -2.1152
  408MOL0     H55032   4.026   8.372   6.169 -2.7135 -3.5631 -1.2132
  408MOL0     H55033   4.022   8.539   6.129 -0.8082 -0.2544  0.5893
  408MOL0     H55034   3.789   8.435   6.184  0.6615 -1.4531  0.6223
  408MOL0     H55035   3.830   8.302   6.081  0.6701  0.2558  1.8515
  408MOL0     H55036   3.810   8.481   5.888  2.0105  0.1445  0.5100
  408MOL0     H55037   3.736   8.591   6.001 -1.4081  0.5001 -3.4558
  408MOL0     H55038   3.572   8.399   6.063 -0.8704 -0.4293 -0.9332
  408MOL0     H55039   3.630   8.331   5.902 -0.4353 -0.3123  0.0353
  408MOL0     H55040   3.408   8.666   5.731 -0.0950  0.8307  0.8459
  408MOL0     H55041   3.248   8.759   5.606 -1.1825 -1.8315 -2.2166
  408MOL0     H55042   3.093   8.683   5.607 -0.7630  0.7031  0.5374
  408MOL0     H55043   3.119   8.824   5.713  1.0870 -0.9427  2.9964
  408MOL0     H55044   2.841   8.857   5.614 -0.4175  1.2904 -0.5399
  408MOL0     H55045   2.627   8.944   5.586  1.9175  0.0062 -0.5011
  408MOL0     H55046   2.243   8.743   5.793 -0.8082  0.9068  3.7961
  408MOL0     H55047   2.282   8.884   5.877  0.6637 -0.1559 -0.9965
  408MOL0     H55048   2.104   8.977   5.779  1.5546  0.1789  1.0705
  408MOL0     H55049   2.214   8.999   5.652  0.6098 -0.1468  1.4773
  408MOL0     H55050   2.010   8.781   5.695  0.2493  0.6900  0.8003
  408MOL0     H55051   2.117   8.768   5.553  0.9786  1.4955 -0.4385
  408MOL0     H55052   1.937   8.995   5.637  2.0612 -2.1076  2.1260
  408MOL0     H55053   1.993   8.962   5.465 -2.8099  1.6523 -0.8192
  408MOL0     H55054   1.794   8.822   5.619  1.1042 -1.0160  1.3890
  408MOL0     H55055   1.853   8.752   5.468  2.3066 -0.1162  1.5460
  408MOL0     H55056   1.716   9.025   5.486 -1.3443 -0.6754 -0.2416
  408MOL0     H55057   1.787   8.966   5.340 -1.4817  2.1961  0.6308
  408MOL0     H55058   1.550   8.864   5.491  0.7927  2.7741  0.4318
  408MOL0     H55059   1.641   8.755   5.375  1.4063 -0.2372  0.9549
  408MOL0     H55060   1.445   8.864   5.286  0.5709 -0.6579 -1.9969
  408MOL0     H55061   1.590   8.899   5.198  1.6003 -0.6624  1.7726
  408MOL0     H55062   2.460   8.647   5.855 -0.9267 -1.4157 -2.7263
  408MOL0     H55063   2.681   8.563   5.887  0.3940 -0.2121  0.8292
  408MOL0     H55064   3.096   8.413   6.026 -0.4981  1.0745  1.6480
  408MOL0     H55065   3.339   8.381   6.051 -0.7393 -1.8048 -1.1897
  408MOL0     H55066   5.153   8.262   6.009  1.3101  1.8419 -0.4902
  408MOL0     H55067   5.332   8.155   6.163 -1.5626 -1.0376  0.3863
  408MOL0     H55068   5.577   8.221   6.588  0.6551  2.2194  0.3227
  408MOL0     H55069   5.779   8.117   6.697  1.9621  0.3976  0.1220
  408MOL0     H55070   6.048   7.901   6.475 -0.5145 -1.0162  1.0692
  408MOL0     H55071   6.144   8.051   6.459 -0.2800  1.0009 -0.1883
  408MOL0     H55072   6.256   8.015   6.658 -2.4506  2.8837 -2.5327
  408MOL0     H55073   6.261   7.856   6.569  0.1607 -1.9357  2.8042
  408MOL0     H55074   6.079   7.910   6.808 -1.4085  0.5790  0.0496
  408MOL0     H55075   6.223   7.807   6.790  0.4955  1.2938  0.6870
  408MOL0     H55076   6.121   7.698   6.601  1.2189  1.4699  0.0513
  408MOL0     H55077   5.957   7.768   6.639 -0.7371 -0.1683  1.3714
  408MOL0     H55078   6.008   7.433   6.898  0.6554  1.5003  0.4710
  408MOL0     H55079   5.968   8.078   6.320  0.8572 -0.7000  2.3443
  408MOL0     H55080   5.786   8.157   6.202 -0.6108  2.5237 -0.2964
  409MOL0     O55081   6.051   5.946   2.421 -0.1681  0.5679  0.1677
  409MOL0     C55082   5.970   5.952   2.330  0.1989 -1.1226 -0.1128
  409MOL0     O55083   5.991   5.949   2.192 -0.4039  0.2026 -0.3619
  409MOL0     C55084   6.107   5.916   2.126  0.2255  0.3671 -0.1591
  409MOL0     C55085   6.231   5.948   2.172 -0.2940  0.2268  0.3385
  409MOL0     C55086   6.342   5.931   2.087  0.3680  0.5092 -0.1171
  409MOL0     C55087   6.322   5.880   1.958  1.2206 -0.5335  1.0331
  409MOL0     O55088   6.413   5.855   1.856  0.9746  0.0514 -0.0381
  409MOL0     C55089   6.552   5.832   1.890 -0.3637 -0.2590  0.1595
  409MOL0     C55090   6.555   5.704   1.977  0.5253 -0.3097 -0.0048
  409MOL0     C55091   6.697   5.640   1.982  0.8460 -1.1257  0.1329
  409MOL0     C55092   6.694   5.522   1.881  0.2477  0.4936 -0.7042
  409MOL0     C55093   6.841   5.471   1.865 -0.0048 -0.4549  0.1583
  409MOL0     C55094   6.865   5.381   1.735  0.1998  0.0237  0.1745
  409MOL0     C55095   7.005   5.340   1.716 -0.4080  0.3848 -0.2428
  409MOL0     C55096   7.038   5.270   1.581  0.0342 -0.1225  0.0737
  409MOL0     N55097   7.007   5.337   1.454  0.6575  0.6105  0.7432
  409MOL0     C55098   7.077   5.447   1.418 -1.0193 -0.0247 -0.2565
  409MOL0     C55099   7.056   5.461   1.285  0.1807 -0.2571  0.7169
  409MOL0     C55100   7.109   5.588   1.212 -0.1219  0.0447 -0.2383
  409MOL0     C55101   7.007   5.706   1.211  0.2878 -0.3446 -0.0573
  409MOL0     C55102   6.906   5.705   1.332 -0.0124  0.4767  0.0255
  409MOL0     C55103   6.775   5.633   1.292  0.0886  0.2937  0.4138
  409MOL0     O55104   6.674   5.638   1.393  0.1884 -0.2069  0.1123
  409MOL0     C55105   6.576   5.736   1.391  0.3629  0.3723  0.8381
  409MOL0     C55106   6.603   5.869   1.350  0.6760 -0.5729 -0.0486
  409MOL0     C55107   6.510   5.966   1.377 -0.2545 -0.0545  0.1107
  409MOL0     C55108   6.549   6.107   1.318 -0.3836 -0.4735 -0.8441
  409MOL0     C55109   6.390   5.938   1.446 -0.0519 -0.3852 -0.0772
  409MOL0     C55110   6.285   6.043   1.480 -0.1937 -0.2677  0.5497
  409MOL0     O55111   6.173   5.998   1.539 -0.5158 -0.0126  0.6014
  409MOL0     C55112   6.067   6.087   1.556 -0.0041  0.1053  0.6815
  409MOL0     C55113   6.022   6.180   1.459  0.7094 -0.5651  0.4074
  409MOL0     C55114   5.916   6.265   1.485  0.1421  0.0687  0.8648
  409MOL0     C55115   5.850   6.255   1.605  0.7010  0.1631 -0.0192
  409MOL0     O55116   5.742   6.335   1.647  0.7902  0.2089  0.2500
  409MOL0     C55117   5.706   6.443   1.559 -0.4017  0.8064 -0.4558
  409MOL0     C55118   5.587   6.514   1.625  0.2797 -0.0729  0.3061
  409MOL0     C55119   5.458   6.435   1.629  0.9116  0.7402  0.5168
  409MOL0     C55120   5.455   6.340   1.744  0.7163 -0.2179 -0.0358
  409MOL0     C55121   5.329   6.253   1.765  0.0024 -0.2569 -0.3883
  409MOL0     C55122   5.210   6.324   1.841  0.8650 -0.5968 -0.2661
  409MOL0     C55123   5.109   6.207   1.874 -0.8264 -0.9805 -0.1476
  409MOL0     C55124   4.975   6.250   1.923 -0.7301 -0.3158 -0.6058
  409MOL0    Cl55125   4.857   6.108   1.916 -0.6471 -0.0723  0.1953
  409MOL0     C55126   5.869   6.143   1.683 -0.3489 -0.1581  0.5114
  409MOL0     C55127   5.977   6.061   1.659 -0.9467  0.8935 -0.7027
  409MOL0     O55128   6.311   6.160   1.455  0.2434 -0.1017 -0.4060
  409MOL0     C55129   6.368   5.809   1.489  0.5833  0.1531  0.0139
  409MOL0     C55130   6.458   5.700   1.454  0.6598  0.3288 -0.2024
  409MOL0     N55131   6.968   5.357   1.248  0.3217 -0.0305 -0.5727
  409MOL0     N55132   6.944   5.281   1.353 -0.5505 -0.0121  0.2554
  409MOL0     C55133   6.192   5.856   1.914  0.5085 -0.2036 -0.7995
  409MOL0     C55134   6.075   5.878   1.997 -0.0338 -0.1384 -0.5300
  409MOL0     C55135   5.834   5.977   2.378 -0.3644  0.0966 -0.0407
  409MOL0     C55136   5.800   5.983   2.516  0.2081  0.9992 -0.0894
  409MOL0     C55137   5.670   6.020   2.547 -0.7642 -0.8268 -0.6146
  409MOL0     C55138   5.568   6.051   2.460 -0.4120 -0.1019  0.0984
  409MOL0     O55139   5.450   6.094   2.508  0.4626 -0.3088  0.1557
  409MOL0     C55140   5.329   6.095   2.423  0.8349 -0.3862 -0.5941
  409MOL0     C55141   5.199   6.155   2.484 -0.1081  0.2795  1.1762
  409MOL0     C55142   5.139   6.062   2.585 -0.2320 -0.6971  1.1168
  409MOL0     C55143   5.040   6.140   2.679 -0.4283 -0.1230  0.7955
  409MOL0     C55144   4.967   6.039   2.757 -0.1560 -0.4858 -0.7074
  409MOL0     C55145   4.919   5.970   2.846  0.5170  0.1266  1.2336
  409MOL0     C55146   5.590   6.022   2.326 -0.8177  0.6542  0.2555
  409MOL0     C55147   5.734   5.995   2.283  0.3717  0.0623 -0.7056
  409MOL0     H55148   6.247   5.986   2.272  3.9139 -0.6736  0.2360
  409MOL0     H55149   6.439   5.963   2.125  0.4534 -1.7292  1.7922
  409MOL0     H55150   6.614   5.822   1.800 -0.5429  0.0897 -0.0016
  409MOL0     H55151   6.601   5.918   1.936  1.1050 -0.0743 -1.6591
  409MOL0     H55152   6.528   5.726   2.081 -0.6251  1.9279 -0.6926
  409MOL0     H55153   6.477   5.632   1.952  0.4377 -0.7529  1.4947
  409MOL0     H55154   6.766   5.719   1.950 -0.9112 -0.5150 -2.4794
  409MOL0     H55155   6.719   5.609   2.085 -0.8881  1.3194  1.3530
  409MOL0     H55156   6.628   5.443   1.916  1.6498 -0.1782  0.5321
  409MOL0     H55157   6.655   5.559   1.785 -3.5756 -1.8640 -0.2388
  409MOL0     H55158   6.912   5.554   1.863 -0.8657  0.3028 -0.3555
  409MOL0     H55159   6.866   5.410   1.952  0.1777 -1.4632 -0.5843
  409MOL0     H55160   6.806   5.289   1.740 -1.2484  0.9934  3.4178
  409MOL0     H55161   6.836   5.447   1.652 -2.7199 -0.1327  0.9800
  409MOL0     H55162   7.072   5.426   1.721 -0.5373  0.4781 -0.1204
  409MOL0     H55163   7.039   5.278   1.799 -0.0659  2.4085  1.1900
  409MOL0     H55164   6.992   5.171   1.570 -1.0527  0.4405 -0.5670
  409MOL0     H55165   7.146   5.249   1.587 -0.2773 -1.4174  3.4858
  409MOL0     H55166   7.132   5.523   1.472  4.0134 -1.2720 -3.0352
  409MOL0     H55167   7.202   5.627   1.255 -1.3414  2.3936  0.3894
  409MOL0     H55168   7.133   5.559   1.109 -0.8084  0.8075 -0.6207
  409MOL0     H55169   6.950   5.716   1.118 -0.0698  2.6557  0.3657
  409MOL0     H55170   7.076   5.789   1.227 -3.0938  2.4391  1.5845
  409MOL0     H55171   6.873   5.806   1.356 -4.2851 -0.6263 -0.3050
  409MOL0     H55172   6.960   5.662   1.417  1.8514 -0.1858 -1.4174
  409MOL0     H55173   6.802   5.531   1.264  2.5054  0.9573  0.0790
  409MOL0     H55174   6.737   5.677   1.200  1.8533  0.5941 -0.2103
  409MOL0     H55175   6.699   5.887   1.302  0.8527 -0.3913  0.3701
  409MOL0     H55176   6.562   6.180   1.399  0.6771 -2.6468  1.0482
  409MOL0     H55177   6.638   6.108   1.254  1.4224  0.7177  1.5442
  409MOL0     H55178   6.471   6.156   1.258 -0.7174 -0.4702 -0.4087
  409MOL0     H55179   6.078   6.193   1.367  0.3641 -0.3916  0.2213
  409MOL0     H55180   5.899   6.343   1.412  0.6359 -0.7785 -0.1728
  409MOL0     H55181   5.794   6.507   1.543  0.1468  0.1432 -0.0968
  409MOL0     H55182   5.683   6.389   1.466 -0.1767  1.2202 -0.7556
  409MOL0     H55183   5.627   6.544   1.722  1.5781 -0.9612  0.0749
  409MOL0     H55184   5.566   6.611   1.580 -4.2348  0.2286  2.5689
  409MOL0     H55185   5.432   6.381   1.538 -0.0512 -0.7849  1.6431
  409MOL0     H55186   5.375   6.504   1.652 -1.9252 -0.9437 -3.5499
  409MOL0     H55187   5.530   6.263   1.723  0.0589 -0.6684 -0.7462
  409MOL0     H55188   5.487   6.389   1.837 -2.7689 -1.4808  2.0123
  409MOL0     H55189   5.350   6.161   1.821 -0.8093  0.2844  0.8499
  409MOL0     H55190   5.285   6.205   1.677 -0.0304  0.3503 -0.7089
  409MOL0     H55191   5.246   6.368   1.934 -0.5069  1.1263 -0.4989
  409MOL0     H55192   5.163   6.400   1.778 -2.4416 -1.8441  0.4791
  409MOL0     H55193   5.157   6.153   1.956  0.0639 -3.3993 -2.1402
  409MOL0     H55194   5.104   6.134   1.793 -4.1430 -1.1232  0.0218
  409MOL0     H55195   4.935   6.333   1.863 -1.5473 -0.1283  0.1838
  409MOL0     H55196   4.985   6.284   2.026  2.0865 -0.3504 -0.7812
  409MOL0     H55197   5.811   6.133   1.774  1.5701  2.9137  2.2352
  409MOL0     H55198   6.015   5.984   1.725  2.3622  1.1600 -2.0665
  409MOL0     H55199   6.287   5.789   1.558 -0.6473 -2.0998 -1.9156
  409MOL0     H55200   6.443   5.600   1.491 -2.8175  1.1382  0.9594
  409MOL0     H55201   6.162   5.830   1.813 -1.7155 -0.3932 -0.1537
  409MOL0     H55202   5.971   5.864   1.968 -0.5412  1.2113  0.5207
  409MOL0     H55203   5.867   5.947   2.593 -1.2086 -3.2535 -0.5785
  409MOL0     H55204   5.635   6.021   2.650 -2.7827  2.7795 -1.1531
  409MOL0     H55205   5.349   6.147   2.329  0.0353  1.3074  0.1329
  409MOL0     H55206   5.306   5.996   2.381 -2.4176 -0.1521  0.3585
  409MOL0     H55207   5.126   6.174   2.405  1.0977 -1.3440 -0.4105
  409MOL0     H55208   5.239   6.252   2.516  2.5764 -1.0587  2.1225
  409MOL0     H55209   5.213   6.009   2.645  2.1773 -0.4629 -1.4669
  409MOL0     H55210   5.075   5.991   2.532  1.6514 -0.5388 -1.5721
  409MOL0     H55211   4.969   6.193   2.615 -1.4055 -2.1287  0.1233
  409MOL0     H55212   5.087   6.219   2.738 -0.5438  0.7747 -0.2792
  409MOL0     H55213   4.863   5.908   2.913 -3.6537  1.2038 -0.8658
  409MOL0     H55214   5.517   6.020   2.245  1.3850  1.0652 -1.8661
  409MOL0     H55215   5.756   5.984   2.177  1.0589  1.7005 -0.7521
  410MOL0     O55216   7.179   7.460   3.281 -0.4103 -0.0411  0.5558
  410MOL0     C55217   7.165   7.338   3.259 -0.2611 -0.1059 -0.1079
  410MOL0     O55218   7.045   7.269   3.278 -0.2644 -0.5183  0.2139
  410MOL0     C55219   6.932   7.333   3.321 -0.4594  0.1956 -0.6699
  410MOL0     C55220   6.890   7.315   3.461 -0.1429  0.3330 -0.7666
  410MOL0     C55221   6.764   7.369   3.503 -0.6590 -0.0357  0.4561
  410MOL0     C55222   6.684   7.447   3.413 -0.7698 -0.2374  0.8159
  410MOL0     O55223   6.563   7.468   3.463  0.1205 -0.6848 -0.0916
  410MOL0     C55224   6.495   7.577   3.406  0.3613  0.6221  0.3512
  410MOL0     C55225   6.350   7.580   3.474 -0.8356  0.9012 -0.3153
  410MOL0     C55226   6.255   7.695   3.432  0.8256  0.3804 -0.5909
  410MOL0     C55227   6.100   7.666   3.453  0.2137 -0.0328  0.7998
  410MOL0     C55228   6.060   7.634   3.591 -1.2286 -0.2033  0.2498
  410MOL0     C55229   5.911   7.627   3.612 -0.1432  0.0255 -0.4905
  410MOL0     C55230   5.843   7.765   3.637  0.2182  0.6712  0.3210
  410MOL0     C55231   5.895   7.836   3.763 -0.3174  0.1989  0.6328
  410MOL0     N55232   5.802   7.850   3.878 -0.0990  0.8318 -0.3428
  410MOL0     C55233   5.792   7.765   3.984  0.1315  1.0822  0.7463
  410MOL0     C55234   5.689   7.820   4.053 -0.7929  0.1022  0.2769
  410MOL0     C55235   5.625   7.762   4.182 -0.1852  0.1599 -0.1578
  410MOL0     C55236   5.712   7.793   4.311  0.4718  0.0684 -0.3137
  410MOL0     C55237   5.648   7.735   4.444 -1.4102 -0.6484  1.2218
  410MOL0     C55238   5.706   7.808   4.566  0.0294  0.4583  0.1814
  410MOL0     O55239   5.707   7.699   4.665  0.5026 -0.3971 -0.1133
  410MOL0     C55240   5.580   7.649   4.701 -0.8885  0.3970  0.0868
  410MOL0     C55241   5.590   7.525   4.764 -0.1904  0.6110 -0.0996
  410MOL0     C55242   5.479   7.457   4.810 -0.2349 -0.3949  0.3200
  410MOL0     C55243   5.492   7.320   4.872 -0.2790  0.6343  0.1790
  410MOL0     C55244   5.347   7.514   4.798 -1.5394  0.1102 -0.8379
  410MOL0     C55245   5.228   7.453   4.858 -0.0265  0.2868 -0.3300
  410MOL0     O55246   5.142   7.375   4.787  0.5286  0.5008  0.5304
  410MOL0     C55247   5.029   7.322   4.852  0.1973 -0.5982 -1.1598
  410MOL0     C55248   4.907   7.388   4.860 -0.0900  0.8032 -0.2678
  410MOL0     C55249   4.797   7.317   4.905  0.7739  0.4815  0.0847
  410MOL0     C55250   4.799   7.185   4.938 -0.3893  0.2371 -0.0885
  410MOL0     O55251   4.701   7.103   4.983  0.8187 -0.0130 -0.4648
  410MOL0     C55252   4.566   7.141   5.012 -0.1042  0.4642  0.6129
  410MOL0     C55253   4.497   7.025   5.067 -0.5354  0.2416 -0.7210
  410MOL0     C55254   4.370   7.060   5.156  0.3991 -0.1625  0.2800
  410MOL0     C55255   4.258   7.124   5.074 -0.0903  0.3781 -0.4063
  410MOL0     C55256   4.153   7.187   5.172  0.0350 -0.6050  0.2918
  410MOL0     C55257   4.082   7.085   5.265  0.0012 -0.3594 -0.2065
  410MOL0     C55258   4.003   7.153   5.366 -0.5983  0.1085 -0.3470
  410MOL0     C55259   3.927   7.054   5.452  0.8312 -0.2776 -0.3796
  410MOL0    Cl55260   4.017   7.007   5.605 -0.3312  0.1382  0.0594
  410MOL0     C55261   4.927   7.119   4.929  0.0877 -0.5508 -0.0724
  410MOL0     C55262   5.041   7.190   4.890 -0.5714  0.4060 -0.5559
  410MOL0     O55263   5.216   7.496   4.971  0.0083 -0.6332 -0.6716
  410MOL0     C55264   5.341   7.648   4.751 -0.1674  0.3245 -0.3096
  410MOL0     C55265   5.456   7.716   4.707  0.5495 -0.0050 -0.3551
  410MOL0     N55266   5.635   7.927   3.991  0.4814  0.7880  0.3666
  410MOL0     N55267   5.704   7.949   3.886  0.3075 -0.5582 -0.4367
  410MOL0     C55268   6.742   7.475   3.289  0.7028 -0.2488  0.5270
  410MOL0     C55269   6.863   7.419   3.238 -0.3132  0.2258 -0.0027
  410MOL0     C55270   7.275   7.263   3.194  0.1910 -0.5025 -0.3716
  410MOL0     C55271   7.411   7.310   3.190  1.3142 -0.2484 -0.2062
  410MOL0     C55272   7.508   7.243   3.122  0.7782  0.0822  0.2891
  410MOL0     C55273   7.481   7.115   3.065 -0.4337 -0.3877  0.4148
  410MOL0     O55274   7.590   7.054   2.996  0.3775  0.7058 -0.3489
  410MOL0     C55275   7.669   6.958   3.073 -0.1367  0.1186 -0.2564
  410MOL0     C55276   7.629   6.809   3.047  0.0526  0.2892 -1.4159
  410MOL0     C55277   7.560   6.741   3.179 -0.3728 -0.8365 -0.2891
  410MOL0     C55278   7.559   6.588   3.193  1.3816 -0.3677 -0.0805
  410MOL0     C55279   7.637   6.512   3.098  0.7438 -0.6037  0.4177
  410MOL0     C55280   7.692   6.447   3.016 -0.6948  0.0095 -0.1626
  410MOL0     C55281   7.351   7.067   3.075 -0.7307 -0.0797 -0.2703
  410MOL0     C55282   7.251   7.142   3.138  0.3131  0.1379 -0.0166
  410MOL0     H55283   6.944   7.244   3.523 -1.2194 -0.7810 -1.0679
  410MOL0     H55284   6.714   7.349   3.597  0.9144 -0.1500  1.3001
  410MOL0     H55285   6.547   7.673   3.413  0.2235  0.9673 -2.2861
  410MOL0     H55286   6.481   7.564   3.299  2.9661 -1.2389  0.1528
  410MOL0     H55287   6.305   7.488   3.435  2.8159  0.0869 -3.2825
  410MOL0     H55288   6.364   7.573   3.582 -0.4980  0.6949 -0.3714
  410MOL0     H55289   6.280   7.787   3.486 -1.9764  1.4167 -0.8822
  410MOL0     H55290   6.263   7.717   3.325 -0.1647 -0.7801 -0.9213
  410MOL0     H55291   6.039   7.749   3.416 -0.2454 -0.3034  0.9388
  410MOL0     H55292   6.076   7.577   3.393  0.6864  0.2754  0.1404
  410MOL0     H55293   6.101   7.534   3.610 -0.8346 -0.5476 -2.1069
  410MOL0     H55294   6.116   7.700   3.658 -1.7054 -0.5869  1.0425
  410MOL0     H55295   5.867   7.559   3.538 -0.0382 -0.2856 -0.2709
  410MOL0     H55296   5.901   7.569   3.704  0.4255 -1.6625 -1.4454
  410MOL0     H55297   5.857   7.820   3.544 -0.7979 -1.3910 -1.1167
  410MOL0     H55298   5.735   7.758   3.654  0.0924  0.7817 -0.3959
  410MOL0     H55299   5.941   7.931   3.736  0.2009 -0.4582 -0.9178
  410MOL0     H55300   5.973   7.767   3.798 -0.6468 -1.2657 -1.3460
  410MOL0     H55301   5.850   7.677   4.009 -1.7664 -0.2284  0.6647
  410MOL0     H55302   5.529   7.814   4.181 -0.2746  0.0051  0.1731
  410MOL0     H55303   5.611   7.655   4.169  1.1420 -0.0354 -0.1720
  410MOL0     H55304   5.713   7.902   4.325 -1.4094 -0.1699  2.7135
  410MOL0     H55305   5.813   7.756   4.291 -0.5260 -2.8046 -0.4487
  410MOL0     H55306   5.681   7.632   4.430  0.1335  0.1522 -1.8587
  410MOL0     H55307   5.540   7.749   4.434 -1.1304  1.5707  0.5455
  410MOL0     H55308   5.648   7.894   4.601  0.8095  0.8245  0.6056
  410MOL0     H55309   5.806   7.849   4.546  0.2175  0.8454  1.7852
  410MOL0     H55310   5.684   7.472   4.756 -0.5419  0.2181 -2.0781
  410MOL0     H55311   5.420   7.254   4.823 -1.0215  0.1273  1.8613
  410MOL0     H55312   5.595   7.284   4.871 -0.5960 -0.3833  1.3613
  410MOL0     H55313   5.456   7.320   4.975  0.3447 -3.0174  0.5087
  410MOL0     H55314   4.887   7.487   4.819  0.4015  0.7008 -0.7770
  410MOL0     H55315   4.698   7.362   4.903 -0.4839 -2.1124 -0.0678
  410MOL0     H55316   4.555   7.235   5.067 -0.8223  1.5403 -1.2667
  410MOL0     H55317   4.529   7.161   4.911  2.1978 -0.3959 -0.4743
  410MOL0     H55318   4.473   6.959   4.983  0.6498  0.0127 -0.8997
  410MOL0     H55319   4.563   6.964   5.130  0.0151  0.6465 -0.9013
  410MOL0     H55320   4.416   7.118   5.237  0.1188  0.3549  0.0719
  410MOL0     H55321   4.328   6.971   5.204 -2.6616 -0.0698 -1.9719
  410MOL0     H55322   4.313   7.194   5.010  2.7506 -2.3866 -1.2408
  410MOL0     H55323   4.206   7.052   5.011 -0.9513  0.5014  0.1498
  410MOL0     H55324   4.076   7.234   5.110 -0.6481 -2.8743 -0.6738
  410MOL0     H55325   4.201   7.269   5.228  1.9159 -1.0734 -0.5592
  410MOL0     H55326   4.013   7.027   5.202  0.3055  0.2325 -1.1078
  410MOL0     H55327   4.154   7.020   5.314  1.7606 -0.1026 -2.3000
  410MOL0     H55328   3.932   7.222   5.320 -0.4405  1.1399  0.9108
  410MOL0     H55329   4.079   7.210   5.420  1.1241 -1.4231 -1.0555
  410MOL0     H55330   3.916   6.961   5.395  0.1758 -1.6702  1.9021
  410MOL0     H55331   3.831   7.101   5.475 -0.0035 -1.2855 -1.6246
  410MOL0     H55332   4.923   7.021   4.975  0.2260 -0.1039  0.9109
  410MOL0     H55333   5.136   7.137   4.883  1.1579  3.0147  1.2406
  410MOL0     H55334   5.249   7.703   4.764  0.1774  1.2121 -1.4157
  410MOL0     H55335   5.444   7.819   4.674  0.1224 -1.0523 -3.9914
  410MOL0     H55336   6.685   7.538   3.221  1.5844  3.5321  2.9429
  410MOL0     H55337   6.899   7.446   3.140  0.2058 -2.2459 -0.5513
  410MOL0     H55338   7.429   7.398   3.250 -0.4049 -1.3105  2.0307
  410MOL0     H55339   7.609   7.282   3.125  0.5063  0.8959 -0.5780
  410MOL0     H55340   7.775   6.972   3.048  0.6197 -1.1391  1.9848
  410MOL0     H55341   7.668   6.990   3.177  3.7179 -0.0048 -0.0558
  410MOL0     H55342   7.719   6.749   3.034 -1.7738 -3.4129  1.2973
  410MOL0     H55343   7.559   6.808   2.964  0.6096  2.9255 -2.0244
  410MOL0     H55344   7.457   6.770   3.199  0.7531  2.8236  0.9984
  410MOL0     H55345   7.625   6.789   3.253  0.7548  2.8083 -3.3477
  410MOL0     H55346   7.457   6.553   3.175  2.2248 -3.3955  0.4757
  410MOL0     H55347   7.577   6.560   3.298 -3.4034  0.3623  1.1896
  410MOL0     H55348   7.719   6.376   2.940 -2.4301 -0.7789 -0.0931
  410MOL0     H55349   7.318   6.975   3.027 -0.3384 -1.1964  1.5084
  410MOL0     H55350   7.149   7.106   3.135  0.5482 -0.5801  0.4726
  411MOL0     O55351   8.870   2.581   7.396  0.6405  0.4192  0.0268
  411MOL0     C55352   8.863   2.498   7.304 -0.8017 -0.2676  0.0779
  411MOL0     O55353   8.762   2.413   7.280  0.0591  0.6663  0.3786
  411MOL0     C55354   8.649   2.407   7.362  0.3675  0.4243 -0.6713
  411MOL0     C55355   8.648   2.411   7.501 -0.5244 -0.4623 -0.4307
  411MOL0     C55356   8.530   2.409   7.569  0.4933 -0.7341  0.2091
  411MOL0     C55357   8.410   2.389   7.503 -0.0898  0.2351  0.5751
  411MOL0     O55358   8.285   2.392   7.551 -0.6464  0.8056  0.2200
  411MOL0     C55359   8.247   2.459   7.668  0.3092 -0.3624 -0.4049
  411MOL0     C55360   8.094   2.468   7.678 -0.6621  0.2671 -0.3018
  411MOL0     C55361   8.047   2.511   7.819 -0.4102 -0.8126 -0.4302
  411MOL0     C55362   7.895   2.539   7.813 -0.3178 -0.4343 -0.5268
  411MOL0     C55363   7.826   2.565   7.954 -0.1025  0.8862  0.0182
  411MOL0     C55364   7.833   2.438   8.043  0.2921 -0.6604 -0.4412
  411MOL0     C55365   7.714   2.431   8.135  0.7159  0.7413 -0.1266
  411MOL0     C55366   7.703   2.294   8.212  0.5147  0.3132 -0.3602
  411MOL0     N55367   7.571   2.263   8.270  0.2382 -0.3786  0.0765
  411MOL0     C55368   7.498   2.346   8.353  0.5285  0.4348  0.6912
  411MOL0     C55369   7.377   2.287   8.348 -1.0719  0.1105  0.2422
  411MOL0     C55370   7.256   2.341   8.413 -0.1569 -0.6234  0.3390
  411MOL0     C55371   7.129   2.289   8.344  0.4293  0.4821 -0.5899
  411MOL0     C55372   7.009   2.373   8.410 -0.0113 -0.6873  0.1052
  411MOL0     C55373   6.884   2.295   8.371 -0.2502  0.2968  0.0751
  411MOL0     O55374   6.830   2.223   8.482  0.1344  0.0187 -0.3259
  411MOL0     C55375   6.698   2.232   8.516 -0.9143 -0.3831  0.9418
  411MOL0     C55376   6.672   2.291   8.636  0.6531  1.1394 -0.3889
  411MOL0     C55377   6.537   2.299   8.684 -0.9586  0.5620  0.1798
  411MOL0     C55378   6.515   2.376   8.818  0.1793  0.6713  0.3103
  411MOL0     C55379   6.435   2.244   8.604  0.6269 -0.0655 -0.5280
  411MOL0     C55380   6.292   2.236   8.641  0.5083  0.4044  1.3807
  411MOL0     O55381   6.206   2.176   8.546 -0.6275 -0.1429  0.5309
  411MOL0     C55382   6.074   2.157   8.568  0.3123  0.5125 -0.3021
  411MOL0     C55383   5.988   2.212   8.480  0.6445 -0.0490 -0.1405
  411MOL0     C55384   5.847   2.175   8.500 -1.1981 -0.7453  0.1866
  411MOL0     C55385   5.807   2.085   8.595  0.0400 -0.0915  0.7978
  411MOL0     O55386   5.672   2.070   8.605 -0.1234 -0.6195 -0.1885
  411MOL0     C55387   5.607   2.043   8.725 -0.3374  0.2915  0.4689
  411MOL0     C55388   5.463   1.996   8.706 -1.0604  0.8087  0.0717
  411MOL0     C55389   5.415   1.918   8.824  0.2245  0.1014 -0.2408
  411MOL0     C55390   5.283   1.843   8.809  0.5714 -0.1062  0.3965
  411MOL0     C55391   5.227   1.820   8.953 -0.3858  0.5148  0.7982
  411MOL0     C55392   5.103   1.724   8.938 -0.1401 -0.6897 -0.5767
  411MOL0     C55393   4.993   1.797   8.867 -0.5101 -0.8712 -0.1442
  411MOL0     C55394   4.877   1.696   8.851  0.2412  0.1375 -0.3848
  411MOL0    Cl55395   4.725   1.784   8.802  0.2456 -0.0999 -0.0161
  411MOL0     C55396   5.894   2.030   8.681  0.1728 -0.3096  0.3657
  411MOL0     C55397   6.026   2.069   8.672 -1.2478 -0.8827  0.0414
  411MOL0     O55398   6.261   2.270   8.749 -0.8407 -0.1976  0.0951
  411MOL0     C55399   6.463   2.184   8.479 -0.5262 -0.4035 -0.1342
  411MOL0     C55400   6.601   2.173   8.438  0.7081 -0.4204 -0.6627
  411MOL0     N55401   7.380   2.170   8.269  0.6283 -0.6087 -0.0982
  411MOL0     N55402   7.495   2.159   8.223 -0.4584  1.3413 -0.1893
  411MOL0     C55403   8.417   2.365   7.368  0.2679  0.2755 -0.0480
  411MOL0     C55404   8.529   2.390   7.301 -0.3946 -0.0176 -0.3966
  411MOL0     C55405   8.986   2.471   7.240 -0.0221  0.0503  0.3295
  411MOL0     C55406   9.102   2.544   7.276 -0.4560 -0.2283  0.5950
  411MOL0     C55407   9.223   2.527   7.205 -0.1756  0.3314  0.6893
  411MOL0     C55408   9.239   2.433   7.102 -0.2224 -0.2891 -0.5725
  411MOL0     O55409   9.357   2.409   7.048  0.1997  0.0769  0.7148
  411MOL0     C55410   9.446   2.509   7.004  0.6129 -0.0566 -0.5632
  411MOL0     C55411   9.557   2.457   6.917 -0.8395  0.5591 -0.2659
  411MOL0     C55412   9.641   2.344   6.978  0.3665  0.1531  0.8639
  411MOL0     C55413   9.695   2.377   7.126  1.0660 -0.5181  0.1745
  411MOL0     C55414   9.789   2.274   7.173  0.4946  0.7243 -0.3379
  411MOL0     C55415   9.871   2.184   7.208  0.2640  0.5319 -0.2015
  411MOL0     C55416   9.121   2.364   7.061 -0.3329  0.3388 -0.0377
  411MOL0     C55417   9.000   2.390   7.127  0.0357  0.4887  0.3978
  411MOL0     H55418   8.741   2.413   7.555 -1.2252  0.6816  0.7915
  411MOL0     H55419   8.537   2.435   7.674  0.5124 -0.7210  0.2045
  411MOL0     H55420   8.290   2.407   7.753  1.8628  0.9456 -0.3484
  411MOL0     H55421   8.284   2.562   7.665 -0.4472 -0.0892 -0.6721
  411MOL0     H55422   8.048   2.538   7.608  1.2054  0.0563 -1.8123
  411MOL0     H55423   8.052   2.368   7.669  1.2248 -0.6233  0.1898
  411MOL0     H55424   8.077   2.430   7.887  0.3314 -0.0671  0.1545
  411MOL0     H55425   8.095   2.603   7.854 -1.0070 -1.3808  2.0884
  411MOL0     H55426   7.886   2.636   7.762  0.8982 -0.0762 -0.0989
  411MOL0     H55427   7.848   2.455   7.762  0.0648 -0.7805 -0.3054
  411MOL0     H55428   7.866   2.653   8.004  0.3779  0.3161  0.6499
  411MOL0     H55429   7.719   2.577   7.932 -0.0712 -0.2104 -0.8102
  411MOL0     H55430   7.825   2.361   7.966 -1.9885  2.2950 -3.4288
  411MOL0     H55431   7.927   2.446   8.099 -0.2446 -0.6190  0.4671
  411MOL0     H55432   7.731   2.511   8.208 -0.8989  0.6079  0.4447
  411MOL0     H55433   7.619   2.445   8.082  1.3360 -2.7016 -2.4900
  411MOL0     H55434   7.782   2.295   8.287 -1.4131  1.9009  1.8219
  411MOL0     H55435   7.712   2.214   8.138 -3.0507 -0.5614 -0.0336
  411MOL0     H55436   7.525   2.433   8.412 -0.0455  0.4348  0.9628
  411MOL0     H55437   7.252   2.315   8.519 -1.6571  0.5524  0.6111
  411MOL0     H55438   7.266   2.449   8.398  2.6558 -0.5705  1.8442
  411MOL0     H55439   7.112   2.187   8.379 -3.2850  1.1732  0.0858
  411MOL0     H55440   7.130   2.296   8.235 -0.2556  2.8847 -0.5128
  411MOL0     H55441   7.002   2.478   8.381 -3.6674 -0.1630  2.2379
  411MOL0     H55442   7.039   2.380   8.515  1.9386 -2.8577 -0.2320
  411MOL0     H55443   6.903   2.227   8.288 -0.1343  1.2155 -0.6774
  411MOL0     H55444   6.813   2.367   8.329 -0.1287  0.8202  0.7391
  411MOL0     H55445   6.753   2.343   8.686  0.7210  2.8523 -2.1413
  411MOL0     H55446   6.489   2.304   8.896 -3.0219 -2.1580 -2.9582
  411MOL0     H55447   6.598   2.433   8.860 -1.6082  2.4407  1.5982
  411MOL0     H55448   6.430   2.444   8.815 -1.2237 -0.9601  0.8869
  411MOL0     H55449   6.008   2.279   8.396  1.6126 -2.4380 -1.9448
  411MOL0     H55450   5.774   2.221   8.434  0.5118  2.0794  0.1208
  411MOL0     H55451   5.649   1.958   8.778  1.3280  2.4266  2.7996
  411MOL0     H55452   5.608   2.128   8.794  1.2736 -0.9175  2.0282
  411MOL0     H55453   5.411   2.088   8.678  0.1588  0.2669 -4.9227
  411MOL0     H55454   5.456   1.923   8.624 -1.9703 -0.1275  0.9501
  411MOL0     H55455   5.393   1.986   8.908 -0.0614  0.5092 -0.6406
  411MOL0     H55456   5.492   1.847   8.855 -1.5037 -0.1508  4.1924
  411MOL0     H55457   5.217   1.902   8.744  1.6603  2.0332  1.1456
  411MOL0     H55458   5.293   1.750   8.752 -2.3109 -0.1728 -0.1603
  411MOL0     H55459   5.197   1.919   8.986 -1.6172  0.8246 -1.0978
  411MOL0     H55460   5.307   1.774   9.012  1.1058 -0.0154 -1.4745
  411MOL0     H55461   5.142   1.634   8.889  2.9488 -0.0749  0.4861
  411MOL0     H55462   5.072   1.697   9.039 -0.3739 -3.3960 -1.3058
  411MOL0     H55463   5.023   1.816   8.764  1.5760 -2.2047  0.1608
  411MOL0     H55464   4.964   1.888   8.921 -1.5660 -1.5205  0.4331
  411MOL0     H55465   4.867   1.653   8.951  1.7000 -0.2358 -0.3734
  411MOL0     H55466   4.895   1.620   8.774 -1.2231 -0.5763 -0.0656
  411MOL0     H55467   5.860   1.963   8.759  1.8147 -0.0143  1.3972
  411MOL0     H55468   6.105   2.035   8.739  0.4866  0.8617 -0.9838
  411MOL0     H55469   6.390   2.128   8.422  0.0711  0.1329 -1.4707
  411MOL0     H55470   6.633   2.128   8.344 -1.2776 -1.4167 -0.9224
  411MOL0     H55471   8.328   2.342   7.310  1.3127 -1.8701 -0.9079
  411MOL0     H55472   8.533   2.376   7.193  1.1825 -1.7492 -0.1696
  411MOL0     H55473   9.095   2.614   7.358 -0.7023  0.8812 -0.3460
  411MOL0     H55474   9.304   2.598   7.222 -1.5650  2.5546 -1.3020
  411MOL0     H55475   9.394   2.574   6.933 -1.0036 -1.0901 -0.3880
  411MOL0     H55476   9.484   2.565   7.090 -1.3401  0.8140 -0.2113
  411MOL0     H55477   9.627   2.540   6.899  1.9191 -0.9626  2.4970
  411MOL0     H55478   9.530   2.411   6.821  1.4951 -1.1493 -0.1919
  411MOL0     H55479   9.717   2.307   6.908 -2.4000 -1.5836 -1.4013
  411MOL0     H55480   9.572   2.260   6.981  1.4027 -0.7945 -0.6387
  411MOL0     H55481   9.616   2.374   7.201  0.6595  1.6038 -0.1044
  411MOL0     H55482   9.739   2.476   7.138  0.0510  0.2427 -1.8842
  411MOL0     H55483   9.942   2.115   7.249 -0.5817  1.3309  2.8898
  411MOL0     H55484   9.122   2.297   6.975 -0.2945  0.1632  0.0990
  411MOL0     H55485   8.918   2.329   7.092  1.8057 -1.9927  0.2832
  412MOL0     O55486   9.417   9.317   6.342 -0.8767  0.2981  0.4019
  412MOL0     C55487   9.370   9.207   6.318  0.5093 -0.6210  0.2354
  412MOL0     O55488   9.436   9.092   6.327 -0.3487 -0.1641 -0.4736
  412MOL0     C55489   9.561   9.073   6.366 -0.4068  0.7756 -0.4096
  412MOL0     C55490   9.666   9.143   6.300 -0.0524  0.7760  0.0532
  412MOL0     C55491   9.798   9.126   6.344 -0.1853  0.3393 -0.2605
  412MOL0     C55492   9.830   9.017   6.427  0.0685  0.2072  0.4696
  412MOL0     O55493   9.958   8.972   6.438  0.2605  0.2152 -0.0581
  412MOL0     C55494  10.035   8.979   6.562 -0.2468 -0.1885 -0.0232
  412MOL0     C55495  10.048   9.116   6.622  0.2875 -0.4537 -0.2803
  412MOL0     C55496  10.134   9.210   6.539  0.0983 -0.4112  0.1971
  412MOL0     C55497  10.142   9.365   6.586 -0.0319 -0.8833  0.5960
  412MOL0     C55498  10.014   9.454   6.592  1.0291 -0.1850  0.0747
  412MOL0     C55499   9.938   9.450   6.457 -0.1834 -0.0271  0.5381
  412MOL0     C55500   9.821   9.554   6.445  0.2180  0.3948  0.6601
  412MOL0     C55501   9.713   9.495   6.349  0.6412  0.6091 -0.7081
  412MOL0     N55502   9.616   9.600   6.328  0.1554 -0.4213  0.7774
  412MOL0     C55503   9.529   9.652   6.416  0.2699  0.8440 -0.2403
  412MOL0     C55504   9.476   9.764   6.369  0.2985 -0.7993 -0.8240
  412MOL0     C55505   9.369   9.844   6.436  0.3209  0.0138  0.6010
  412MOL0     C55506   9.309   9.957   6.351 -0.4595  0.6858  0.1628
  412MOL0     C55507   9.232  10.059   6.429  0.1984 -0.6674  0.8183
  412MOL0     C55508   9.089  10.026   6.480 -0.5208  0.4893 -0.0552
  412MOL0     O55509   9.098   9.945   6.600  0.2978 -0.9533  0.1999
  412MOL0     C55510   8.992   9.970   6.679 -0.2500  0.8748  0.0921
  412MOL0     C55511   8.978  10.084   6.758 -0.6773  0.1309  0.3865
  412MOL0     C55512   8.863  10.109   6.832 -0.6853 -1.0388  0.3017
  412MOL0     C55513   8.856  10.245   6.904  0.3607 -0.2744  0.2326
  412MOL0     C55514   8.761  10.012   6.836  0.9850  0.4980  0.0182
  412MOL0     C55515   8.640  10.022   6.921  1.1759  0.1462  0.8615
  412MOL0     O55516   8.520   9.964   6.864 -0.2301  0.0578  0.0868
  412MOL0     C55517   8.394   9.974   6.916 -0.3114 -0.0854  0.4120
  412MOL0     C55518   8.364   9.953   7.052  0.0058 -0.6876 -0.0186
  412MOL0     C55519   8.229   9.955   7.098  0.4615  0.3886 -0.6852
  412MOL0     C55520   8.122   9.980   7.000  0.0650  0.0837 -0.0316
  412MOL0     O55521   7.985   9.987   7.027 -0.3396  0.5029  0.2361
  412MOL0     C55522   7.950   9.992   7.172  0.0573  0.3222  0.5544
  412MOL0     C55523   7.803  10.027   7.178  0.0056 -0.6204 -0.0031
  412MOL0     C55524   7.759  10.060   7.324 -0.5348 -0.5522 -0.0125
  412MOL0     C55525   7.615  10.114   7.315 -0.4434 -0.6512  0.3157
  412MOL0     C55526   7.552  10.109   7.450 -0.5208 -0.6193 -0.3435
  412MOL0     C55527   7.419  10.187   7.451  0.0197  0.1567 -0.7104
  412MOL0     C55528   7.359  10.174   7.594  0.5516  0.3400 -0.5355
  412MOL0     C55529   7.208  10.185   7.591 -1.0898  0.3929  0.2455
  412MOL0    Cl55530   7.155  10.335   7.517  0.3657 -0.1737 -0.1421
  412MOL0     C55531   8.152   9.995   6.867 -0.3997  0.9113  0.4342
  412MOL0     C55532   8.289   9.994   6.830 -0.2926 -0.5158 -0.3458
  412MOL0     O55533   8.639  10.097   7.022 -0.2051  0.1689 -0.0378
  412MOL0     C55534   8.773   9.895   6.759 -0.2826 -0.4094 -0.0540
  412MOL0     C55535   8.887   9.882   6.680 -0.2555  0.5270 -0.4179
  412MOL0     N55536   9.539   9.786   6.248  0.6634  0.2931 -0.6927
  412MOL0     N55537   9.615   9.684   6.221 -0.4343  0.4239  0.2854
  412MOL0     C55538   9.723   8.946   6.490 -0.1977 -0.7778  0.0764
  412MOL0     C55539   9.588   8.976   6.460 -0.2658 -0.7884 -0.4645
  412MOL0     C55540   9.232   9.198   6.274  0.6814  0.0183  0.4195
  412MOL0     C55541   9.146   9.313   6.248  0.1004 -0.2836 -0.6920
  412MOL0     C55542   9.013   9.315   6.216 -0.5216 -0.0805  0.2866
  412MOL0     C55543   8.950   9.194   6.200 -0.1592  0.2419 -0.3040
  412MOL0     O55544   8.821   9.206   6.176  0.3827 -0.0257  0.4481
  412MOL0     C55545   8.741   9.084   6.144  0.2390  0.0655 -0.2018
  412MOL0     C55546   8.604   9.124   6.193 -0.7145 -0.3115 -0.4184
  412MOL0     C55547   8.502   9.010   6.189  0.2034 -0.7155 -0.3115
  412MOL0     C55548   8.429   9.017   6.062 -0.2788 -0.5595  0.8734
  412MOL0     C55549   8.306   8.948   6.056  0.1815  0.4606 -0.0769
  412MOL0     C55550   8.202   8.893   6.052  0.0622 -0.2484 -0.2269
  412MOL0     C55551   9.025   9.075   6.209 -1.0535 -0.2213 -0.1909
  412MOL0     C55552   9.164   9.074   6.245  0.0004 -0.1775  0.1744
  412MOL0     H55553   9.638   9.216   6.225  0.6553 -0.6747 -1.6932
  412MOL0     H55554   9.884   9.182   6.310  1.2279 -1.9574 -0.7525
  412MOL0     H55555   9.984   8.921   6.639 -1.7497  0.9837 -0.1036
  412MOL0     H55556  10.137   8.941   6.549 -1.5183 -2.9870 -3.2018
  412MOL0     H55557   9.945   9.150   6.634  1.1964  1.7790  2.4344
  412MOL0     H55558  10.089   9.112   6.723  0.4012  0.8187 -0.2536
  412MOL0     H55559  10.235   9.170   6.547  0.9542  1.8876  1.7219
  412MOL0     H55560  10.099   9.213   6.435 -0.4658  4.0812  0.3320
  412MOL0     H55561  10.187   9.358   6.685 -0.7506 -2.3489  0.8546
  412MOL0     H55562  10.219   9.420   6.533 -0.0479  1.5816  2.9116
  412MOL0     H55563   9.955   9.412   6.674  0.8148  0.4605  0.2579
  412MOL0     H55564  10.031   9.561   6.610  0.4132  0.1299 -1.1254
  412MOL0     H55565  10.010   9.472   6.377 -1.5707 -1.4045 -1.1836
  412MOL0     H55566   9.899   9.350   6.438  0.8728 -0.0816 -1.7209
  412MOL0     H55567   9.775   9.573   6.542  0.8050 -0.1918  1.0648
  412MOL0     H55568   9.860   9.649   6.407  1.1578  1.0366  3.0459
  412MOL0     H55569   9.670   9.406   6.395  0.9983  1.3659  1.1881
  412MOL0     H55570   9.749   9.465   6.251  1.1576 -1.7282  0.1413
  412MOL0     H55571   9.511   9.604   6.511  5.3956  1.5786  1.4340
  412MOL0     H55572   9.283   9.784   6.467  0.0619 -2.7986 -4.5587
  412MOL0     H55573   9.408   9.899   6.523 -0.8225  1.4049  0.2834
  412MOL0     H55574   9.256   9.917   6.264  1.4358 -1.6547 -0.0155
  412MOL0     H55575   9.402  10.004   6.318  0.0726 -0.3917  0.0838
  412MOL0     H55576   9.223  10.155   6.376 -0.1235  0.4304  2.7699
  412MOL0     H55577   9.304  10.078   6.508  2.6517 -1.2065 -1.1452
  412MOL0     H55578   9.034   9.966   6.407 -1.7722 -1.3972  2.2957
  412MOL0     H55579   9.032  10.118   6.483  1.6550  1.8712  1.9141
  412MOL0     H55580   9.066  10.146   6.768 -0.2615 -0.0669 -1.6300
  412MOL0     H55581   8.836  10.233   7.011 -0.1471 -1.6281  0.0065
  412MOL0     H55582   8.943  10.311   6.897 -2.9214  4.9670  2.9408
  412MOL0     H55583   8.773  10.301   6.862 -0.7336 -3.1225 -1.7376
  412MOL0     H55584   8.434   9.920   7.129 -1.0765  0.3781  1.4765
  412MOL0     H55585   8.212   9.947   7.205  1.8322 -0.7897 -0.5190
  412MOL0     H55586   7.952   9.898   7.228 -2.3374  0.2403  0.6071
  412MOL0     H55587   8.003  10.074   7.221 -1.4041  0.4818  1.9533
  412MOL0     H55588   7.786  10.112   7.111 -0.9400  0.7366  1.8891
  412MOL0     H55589   7.743   9.941   7.148  0.2776 -1.0628  0.6892
  412MOL0     H55590   7.826  10.130   7.375 -1.3293  0.2434 -0.0330
  412MOL0     H55591   7.770   9.963   7.373  0.7632 -1.0093 -1.1582
  412MOL0     H55592   7.616  10.220   7.290 -0.1737 -0.4048  1.3355
  412MOL0     H55593   7.558  10.048   7.249 -0.2402 -0.1108 -0.4224
  412MOL0     H55594   7.619  10.156   7.523 -2.3994  2.1593 -0.2559
  412MOL0     H55595   7.528  10.008   7.485  0.6191  0.4003  4.0345
  412MOL0     H55596   7.427  10.296   7.446 -0.9204  0.5660  3.1997
  412MOL0     H55597   7.354  10.155   7.369  0.7159  1.2932 -1.7445
  412MOL0     H55598   7.402  10.254   7.655 -1.6558 -0.5201  2.3539
  412MOL0     H55599   7.401  10.084   7.639  1.1510  0.1247 -1.4766
  412MOL0     H55600   7.164  10.181   7.691 -1.3962  0.5565  0.1166
  412MOL0     H55601   7.181  10.101   7.526 -0.8642 -0.2260  0.9415
  412MOL0     H55602   8.068   9.997   6.798 -0.5128 -0.3142  0.5184
  412MOL0     H55603   8.307  10.007   6.724  0.9918 -1.7001 -0.2922
  412MOL0     H55604   8.701   9.815   6.750 -0.1142 -0.7011  1.1304
  412MOL0     H55605   8.884   9.785   6.630 -3.7762 -2.1222  4.0976
  412MOL0     H55606   9.744   8.861   6.554  1.9006 -1.3987 -1.3218
  412MOL0     H55607   9.502   8.924   6.503  0.5059 -0.1912  2.0029
  412MOL0     H55608   9.201   9.405   6.266  0.2844 -0.2609 -1.3150
  412MOL0     H55609   8.963   9.411   6.208 -3.7901 -1.6824 -0.3635
  412MOL0     H55610   8.734   9.059   6.038 -0.0674  2.1552 -0.7136
  412MOL0     H55611   8.771   8.989   6.188  0.1319 -0.8208 -1.9696
  412MOL0     H55612   8.567   9.207   6.131  0.0787 -1.1188 -2.0373
  412MOL0     H55613   8.612   9.160   6.296 -1.7788  1.3149 -0.8535
  412MOL0     H55614   8.429   9.023   6.270 -0.4181 -2.1515 -0.6150
  412MOL0     H55615   8.543   8.909   6.198  3.7255  0.4729 -1.4007
  412MOL0     H55616   8.494   8.992   5.978  0.6691 -3.0113  2.2378
  412MOL0     H55617   8.394   9.120   6.049  0.8497 -0.2589  0.1227
  412MOL0     H55618   8.110   8.840   6.060  1.1618 -2.0441  1.6496
  412MOL0     H55619   8.976   8.978   6.213 -1.4889 -0.0103 -0.3638
  412MOL0     H55620   9.220   8.981   6.255  1.4574  0.7183  0.7285
  413MOL0     O55621   7.773   9.542   1.809 -0.1926  0.0368  0.0865
  413MOL0     C55622   7.761   9.538   1.683  0.1661 -0.8690  0.0645
  413MOL0     O55623   7.647   9.552   1.607 -0.0556 -0.6875  0.4042
  413MOL0     C55624   7.528   9.493   1.655 -0.1447  1.0845  0.6912
  413MOL0     C55625   7.434   9.433   1.554 -1.1817 -0.1108 -0.9625
  413MOL0     C55626   7.310   9.379   1.595 -0.1281  0.5809  0.0841
  413MOL0     C55627   7.272   9.376   1.732 -0.2982 -0.0494 -0.2787
  413MOL0     O55628   7.152   9.315   1.763  0.0106  0.3004  0.7884
  413MOL0     C55629   7.156   9.210   1.853 -0.4671  0.8705 -0.7166
  413MOL0     C55630   7.187   9.078   1.776 -0.7306 -0.0629  0.2375
  413MOL0     C55631   7.055   9.026   1.724  0.3331  0.3778  0.5052
  413MOL0     C55632   7.075   8.914   1.621  0.3718 -0.2439 -0.3878
  413MOL0     C55633   6.936   8.850   1.600  0.7457  0.3266 -0.0097
  413MOL0     C55634   6.928   8.776   1.458  0.1553 -0.7044 -0.6372
  413MOL0     C55635   6.781   8.755   1.410  0.0926  0.9759 -0.7987
  413MOL0     C55636   6.738   8.618   1.470  0.2500  0.2692  0.5499
  413MOL0     N55637   6.600   8.600   1.446 -0.3858  0.8858 -0.5178
  413MOL0     C55638   6.543   8.584   1.327  0.6392 -0.5037  0.0331
  413MOL0     C55639   6.414   8.556   1.359 -0.6999  0.1670 -0.4529
  413MOL0     C55640   6.316   8.534   1.258  0.4870  0.1218 -0.5541
  413MOL0     C55641   6.240   8.664   1.228 -0.5147  0.6289  0.3717
  413MOL0     C55642   6.155   8.695   1.345  0.8402 -1.1300 -0.0655
  413MOL0     C55643   6.063   8.820   1.342  0.2057 -0.1654  0.0756
  413MOL0     O55644   5.959   8.809   1.234  0.4659 -0.1126 -0.5728
  413MOL0     C55645   5.887   8.921   1.194 -0.2374  0.1541 -0.3239
  413MOL0     C55646   5.807   8.912   1.082 -0.1530  0.7774 -0.0942
  413MOL0     C55647   5.700   9.000   1.048  0.2598 -0.2020  0.3390
  413MOL0     C55648   5.622   8.962   0.930 -1.2083 -0.7922  0.3235
  413MOL0     C55649   5.679   9.116   1.133 -0.0272 -0.1488 -0.0860
  413MOL0     C55650   5.566   9.215   1.121  0.3867  0.3013  0.0952
  413MOL0     O55651   5.567   9.321   1.208  0.5034  0.1544 -0.4575
  413MOL0     C55652   5.481   9.424   1.207  0.0289  0.2083 -0.2054
  413MOL0     C55653   5.535   9.551   1.214  0.5112 -0.1856 -0.3259
  413MOL0     C55654   5.452   9.668   1.230 -0.5964  0.0686  0.4023
  413MOL0     C55655   5.313   9.656   1.230 -0.0908  0.6048 -0.1580
  413MOL0     O55656   5.228   9.762   1.246 -0.4742  0.0343  0.4813
  413MOL0     C55657   5.105   9.765   1.177  0.2438  0.3588  0.3520
  413MOL0     C55658   4.994   9.707   1.266 -1.0608  0.8154 -0.6282
  413MOL0     C55659   4.886   9.799   1.305 -0.0793  0.2482  0.2755
  413MOL0     C55660   4.782   9.731   1.394  0.3455 -0.0206 -0.2942
  413MOL0     C55661   4.649   9.816   1.398  0.1720  0.2373  0.2939
  413MOL0     C55662   4.511   9.764   1.458 -0.3333 -2.0141 -0.1774
  413MOL0     C55663   4.409   9.882   1.464  0.1410  1.4083  0.9780
  413MOL0     C55664   4.272   9.831   1.501 -0.2102 -0.6228  0.1106
  413MOL0    Cl55665   4.262   9.725   1.659  0.3197 -0.0336  0.3094
  413MOL0     C55666   5.260   9.523   1.206 -1.1349 -0.4144  0.1164
  413MOL0     C55667   5.345   9.409   1.202  0.7845 -0.1012  0.8929
  413MOL0     O55668   5.474   9.199   1.041 -0.1182  0.0913  0.3105
  413MOL0     C55669   5.773   9.126   1.237 -0.7680 -0.4456  0.6538
  413MOL0     C55670   5.872   9.037   1.272 -0.1624 -0.3578 -0.8837
  413MOL0     N55671   6.394   8.540   1.497 -0.5182 -0.2434 -0.6387
  413MOL0     N55672   6.514   8.561   1.544 -0.0234 -0.0897 -1.0008
  413MOL0     C55673   7.355   9.448   1.826  0.2334  0.2818 -0.6037
  413MOL0     C55674   7.480   9.504   1.783 -0.2560 -0.7982  0.2157
  413MOL0     C55675   7.892   9.515   1.614 -0.5389 -0.1678  0.7582
  413MOL0     C55676   8.016   9.487   1.684 -0.5435  0.1190 -0.0682
  413MOL0     C55677   8.131   9.453   1.617 -0.1168 -0.0722  0.0316
  413MOL0     C55678   8.128   9.458   1.476 -0.7162 -0.7909 -0.1461
  413MOL0     O55679   8.248   9.425   1.404 -0.7649 -0.3431  0.3159
  413MOL0     C55680   8.372   9.384   1.465  0.0342 -0.4528 -0.2937
  413MOL0     C55681   8.481   9.353   1.365  0.5383 -0.2977  0.1676
  413MOL0     C55682   8.500   9.477   1.268 -0.1308  0.3161  0.3612
  413MOL0     C55683   8.625   9.467   1.187  0.1676 -0.1466 -0.4374
  413MOL0     C55684   8.750   9.438   1.264 -0.0631  0.6298  0.3323
  413MOL0     C55685   8.868   9.427   1.307  0.2973 -0.6972 -0.1083
  413MOL0     C55686   8.020   9.508   1.403 -0.0772 -0.0967 -0.6971
  413MOL0     C55687   7.904   9.526   1.474  0.5875 -1.0547 -0.2937
  413MOL0     H55688   7.467   9.433   1.450  2.0866 -1.1380 -0.0602
  413MOL0     H55689   7.249   9.334   1.518  1.2523  0.1935 -0.8162
  413MOL0     H55690   7.236   9.215   1.928 -1.5927  0.0253  0.5994
  413MOL0     H55691   7.063   9.202   1.909  0.4023 -0.2490  0.6594
  413MOL0     H55692   7.256   9.100   1.694  0.3401 -0.3938  1.0182
  413MOL0     H55693   7.238   9.000   1.834 -0.2047  0.1364  0.0461
  413MOL0     H55694   6.996   8.974   1.800  0.2296 -1.5210 -0.7921
  413MOL0     H55695   6.990   9.101   1.679  1.7529 -0.0436 -2.4944
  413MOL0     H55696   7.126   8.957   1.535 -0.3998  1.3356 -0.1028
  413MOL0     H55697   7.139   8.832   1.652 -0.8398 -1.7872 -1.7620
  413MOL0     H55698   6.920   8.776   1.678 -1.4135 -0.3449 -1.0393
  413MOL0     H55699   6.861   8.928   1.617 -0.4534 -0.6339 -0.7966
  413MOL0     H55700   6.986   8.834   1.386  0.6313 -1.4663 -0.8899
  413MOL0     H55701   6.979   8.679   1.465  1.9008  0.1628 -0.7899
  413MOL0     H55702   6.719   8.833   1.456 -0.7091 -0.6779  1.0692
  413MOL0     H55703   6.796   8.742   1.303  2.3299 -3.6725 -0.1823
  413MOL0     H55704   6.760   8.626   1.577 -1.2995  5.3911  0.7521
  413MOL0     H55705   6.787   8.535   1.418  2.1391  1.4939  0.2817
  413MOL0     H55706   6.597   8.592   1.234  4.1451 -0.3524  1.9182
  413MOL0     H55707   6.360   8.496   1.165 -0.5139 -0.4470 -0.8192
  413MOL0     H55708   6.251   8.456   1.299  1.2811  0.8403  2.3060
  413MOL0     H55709   6.180   8.656   1.137  1.9036 -0.8714 -1.2084
  413MOL0     H55710   6.314   8.744   1.218  0.6728 -0.6258 -1.6937
  413MOL0     H55711   6.211   8.710   1.438 -0.5814  3.2275  0.3240
  413MOL0     H55712   6.090   8.610   1.368 -0.4707 -0.7921 -2.2606
  413MOL0     H55713   6.116   8.915   1.330 -0.0145 -0.1331 -0.6891
  413MOL0     H55714   6.015   8.820   1.440 -0.4734 -0.3144 -0.2503
  413MOL0     H55715   5.810   8.816   1.031 -1.3867  0.6997 -0.0625
  413MOL0     H55716   5.531   8.907   0.957 -3.0513  2.0068  0.1811
  413MOL0     H55717   5.593   9.050   0.873  2.8136  1.1709  0.9950
  413MOL0     H55718   5.692   8.909   0.865  1.7018  2.9098  0.1045
  413MOL0     H55719   5.640   9.567   1.234  0.2444 -0.7813  1.7311
  413MOL0     H55720   5.498   9.761   1.263 -0.2950  0.7626 -1.7764
  413MOL0     H55721   5.073   9.869   1.171  0.8963  0.5702  0.4132
  413MOL0     H55722   5.105   9.705   1.086 -1.2864  2.2969 -1.0099
  413MOL0     H55723   4.950   9.623   1.212  2.2441 -0.9650 -0.8061
  413MOL0     H55724   5.033   9.672   1.362  1.1439  1.3493 -1.2649
  413MOL0     H55725   4.830   9.828   1.215 -0.5014  2.1299  1.0874
  413MOL0     H55726   4.924   9.888   1.357 -0.6309  1.4622 -1.2816
  413MOL0     H55727   4.749   9.635   1.352  0.4874  1.1463 -3.3297
  413MOL0     H55728   4.820   9.722   1.496 -2.1122  0.4244  0.7357
  413MOL0     H55729   4.628   9.826   1.291  1.5747  2.0209  0.1417
  413MOL0     H55730   4.668   9.913   1.445  0.1401  0.0980  0.5976
  413MOL0     H55731   4.463   9.703   1.382  2.0090 -0.3378 -3.2270
  413MOL0     H55732   4.527   9.717   1.556 -0.8890 -2.0916 -0.1216
  413MOL0     H55733   4.389   9.925   1.366  0.4646  3.3381  1.7106
  413MOL0     H55734   4.456   9.970   1.510  1.4182  2.3242 -1.8397
  413MOL0     H55735   4.227   9.787   1.412 -2.6135  2.3991 -0.3464
  413MOL0     H55736   4.205   9.917   1.512 -0.5444 -0.8418 -0.1951
  413MOL0     H55737   5.156   9.493   1.193 -1.7160  1.4619  0.1530
  413MOL0     H55738   5.295   9.314   1.190 -0.0555 -0.0033  3.1824
  413MOL0     H55739   5.776   9.208   1.308 -0.5781 -0.4053  0.6000
  413MOL0     H55740   5.940   9.038   1.356 -0.8622 -1.7715 -0.2702
  413MOL0     H55741   7.320   9.453   1.929  1.7891 -0.8866  0.0207
  413MOL0     H55742   7.539   9.567   1.849  1.1324 -0.1817 -1.5406
  413MOL0     H55743   8.016   9.474   1.791  1.3646  2.3394  0.2765
  413MOL0     H55744   8.211   9.413   1.678 -1.6100 -0.7228  1.6351
  413MOL0     H55745   8.404   9.473   1.520  0.2353 -0.0703 -1.0095
  413MOL0     H55746   8.363   9.295   1.528 -0.5441  0.2942  0.7065
  413MOL0     H55747   8.471   9.261   1.307  0.0291 -0.8256  1.0676
  413MOL0     H55748   8.569   9.341   1.428  1.9233  0.5055 -1.5055
  413MOL0     H55749   8.511   9.563   1.334 -0.2867 -0.3973  1.3447
  413MOL0     H55750   8.411   9.491   1.207 -0.8552 -2.5440  0.6188
  413MOL0     H55751   8.642   9.557   1.128 -2.1240 -1.0118 -2.5745
  413MOL0     H55752   8.608   9.387   1.114 -1.3672 -0.0438 -0.2284
  413MOL0     H55753   8.973   9.418   1.328  0.0641 -1.0342  0.9610
  413MOL0     H55754   8.020   9.523   1.296  1.6978  1.9153 -0.4808
  413MOL0     H55755   7.813   9.562   1.425 -1.7231 -1.8614  3.0989
  414MOL0     O55756   5.475   0.243   4.974  0.4003 -0.3054  0.4250
  414MOL0     C55757   5.500   0.209   5.090 -0.1547  0.1565  0.3161
  414MOL0     O55758   5.404   0.175   5.181  0.1978 -0.3540 -0.0715
  414MOL0     C55759   5.268   0.169   5.153 -0.3217  0.2922 -0.4673
  414MOL0     C55760   5.196   0.271   5.091  0.6380  0.9650  0.2930
  414MOL0     C55761   5.063   0.254   5.053  0.1647  0.1203  0.3101
  414MOL0     C55762   5.000   0.137   5.093  0.2058  0.7861 -0.2891
  414MOL0     O55763   4.864   0.125   5.079  0.6889 -0.1736  0.2854
  414MOL0     C55764   4.787   0.105   5.194  0.4165  0.5472 -0.9890
  414MOL0     C55765   4.668   0.008   5.175 -0.5477  0.7581 -0.6344
  414MOL0     C55766   4.600  -0.050   5.303  0.8875 -0.7886 -0.4627
  414MOL0     C55767   4.482  -0.146   5.265 -0.0283 -0.0035  0.2209
  414MOL0     C55768   4.368  -0.139   5.366  0.3404  0.7586  0.0754
  414MOL0     C55769   4.293  -0.001   5.387 -0.5809 -0.2008  0.5992
  414MOL0     C55770   4.144  -0.015   5.410  0.5831  0.2322  0.2005
  414MOL0     C55771   4.067   0.000   5.282  0.9590  0.8920 -0.1970
  414MOL0     N55772   3.930  -0.047   5.314  0.3570  0.7885 -0.4318
  414MOL0     C55773   3.844   0.017   5.399 -0.1930  1.2969 -0.6621
  414MOL0     C55774   3.725  -0.057   5.388 -0.1325 -0.6047  0.1019
  414MOL0     C55775   3.592  -0.011   5.441  0.3447 -0.4067 -1.5058
  414MOL0     C55776   3.515   0.089   5.356  0.3742 -0.6534 -0.6377
  414MOL0     C55777   3.471   0.023   5.230  0.6487 -0.0801  0.4399
  414MOL0     C55778   3.361  -0.077   5.250  0.5984 -0.1708 -0.6570
  414MOL0     O55779   3.312  -0.125   5.124 -0.5864 -0.0459 -0.3147
  414MOL0     C55780   3.182  -0.105   5.090  0.2874  0.0012  0.6317
  414MOL0     C55781   3.151  -0.146   4.963  0.2329 -0.7062  0.4157
  414MOL0     C55782   3.032  -0.122   4.894  0.0612 -0.4237 -0.0463
  414MOL0     C55783   3.020  -0.138   4.745  0.2556  0.1663 -0.4312
  414MOL0     C55784   2.920  -0.068   4.964 -0.1584  0.2149 -0.4719
  414MOL0     C55785   2.789  -0.042   4.896 -0.1601  0.2397 -0.5376
  414MOL0     O55786   2.680  -0.068   4.974  0.5228  0.6202  0.3808
  414MOL0     C55787   2.563  -0.049   4.918  0.1834  0.0242  1.1910
  414MOL0     C55788   2.504  -0.129   4.825 -0.1771  0.0077 -0.0843
  414MOL0     C55789   2.381  -0.101   4.778  0.3630  0.1345 -0.5974
  414MOL0     C55790   2.311   0.013   4.823  0.0696  0.0359  0.5513
  414MOL0     O55791   2.183   0.026   4.780  0.9641  0.6293  0.4393
  414MOL0     C55792   2.102   0.138   4.823  0.1758  0.5419 -0.2117
  414MOL0     C55793   1.970   0.122   4.753 -0.1674 -0.3020  0.3776
  414MOL0     C55794   1.877   0.229   4.802  0.3015 -0.1774 -0.8023
  414MOL0     C55795   1.762   0.268   4.713 -0.6644  0.5978  0.4944
  414MOL0     C55796   1.646   0.161   4.688  0.4380 -0.5552 -0.2570
  414MOL0     C55797   1.546   0.215   4.579  0.1054  0.5104 -0.0886
  414MOL0     C55798   1.442   0.107   4.543  0.2772  0.4665  0.4363
  414MOL0     C55799   1.352   0.161   4.424  0.8841  0.5134 -0.4450
  414MOL0    Cl55800   1.237   0.288   4.474 -0.0734 -0.1195  0.0374
  414MOL0     C55801   2.366   0.094   4.915  0.3160 -1.3313  0.0017
  414MOL0     C55802   2.491   0.059   4.967 -0.2028 -0.4480 -0.9597
  414MOL0     O55803   2.789   0.019   4.794 -0.5572 -0.3872  0.5633
  414MOL0     C55804   2.943  -0.042   5.103  0.5724 -0.3996 -1.1122
  414MOL0     C55805   3.072  -0.056   5.165  0.2583 -0.8027  0.4681
  414MOL0     N55806   3.755  -0.165   5.307  0.6665  0.6772 -0.3143
  414MOL0     N55807   3.870  -0.154   5.249 -0.0938  0.3546  0.0880
  414MOL0     C55808   5.070   0.040   5.161 -0.0350  0.8423  0.2383
  414MOL0     C55809   5.206   0.054   5.187  0.2581  0.1969  0.4097
  414MOL0     C55810   5.639   0.225   5.134 -0.1525 -0.3675  0.0985
  414MOL0     C55811   5.667   0.229   5.271  0.2656  0.2222  0.7766
  414MOL0     C55812   5.794   0.242   5.320 -0.3308 -1.1480  0.5355
  414MOL0     C55813   5.903   0.272   5.234  0.4748  0.5739 -0.3856
  414MOL0     O55814   6.022   0.313   5.288 -0.3636 -0.0368 -0.6788
  414MOL0     C55815   6.147   0.304   5.217 -0.3123 -0.3929  0.4517
  414MOL0     C55816   6.174   0.425   5.132 -0.5710 -1.5192 -0.1203
  414MOL0     C55817   6.306   0.426   5.049  0.3399  0.1122  0.3705
  414MOL0     C55818   6.301   0.529   4.937  0.2595  0.5056  0.0116
  414MOL0     C55819   6.424   0.524   4.853 -0.5272  1.8511 -0.1365
  414MOL0     C55820   6.536   0.523   4.802  0.1562 -0.0849  0.3647
  414MOL0     C55821   5.876   0.255   5.095 -0.2228  0.4904 -0.2394
  414MOL0     C55822   5.746   0.234   5.044 -0.0697  0.2353 -0.3938
  414MOL0     H55823   5.241   0.369   5.079 -0.8313  2.0406  2.8555
  414MOL0     H55824   5.013   0.330   4.994  0.3172  3.3042  3.9226
  414MOL0     H55825   4.846   0.067   5.278  0.9151  4.1505  0.4815
  414MOL0     H55826   4.737   0.197   5.227 -3.2874 -1.3718 -0.7910
  414MOL0     H55827   4.591   0.049   5.109 -1.1618 -1.1662 -1.1603
  414MOL0     H55828   4.697  -0.083   5.122 -1.3910 -0.1118  0.3362
  414MOL0     H55829   4.686  -0.091   5.357  3.6042  1.5241 -2.6884
  414MOL0     H55830   4.565   0.039   5.356  0.9210 -1.5313  0.8585
  414MOL0     H55831   4.438  -0.109   5.172  0.5918 -0.2940 -0.1910
  414MOL0     H55832   4.512  -0.250   5.250 -1.8568 -0.4953 -0.2257
  414MOL0     H55833   4.309  -0.226   5.337  0.3895 -0.3316  2.9476
  414MOL0     H55834   4.410  -0.172   5.461 -1.0714 -1.3533  0.0148
  414MOL0     H55835   4.334   0.047   5.476 -0.5744 -0.5661  0.7931
  414MOL0     H55836   4.318   0.062   5.301 -1.1290 -0.6275  0.1202
  414MOL0     H55837   4.121  -0.113   5.451  0.3885  0.0759 -0.2763
  414MOL0     H55838   4.119   0.070   5.474  1.6997  0.1003  0.8410
  414MOL0     H55839   4.108  -0.066   5.205 -1.0456  0.9016 -1.3423
  414MOL0     H55840   4.065   0.101   5.240 -1.3698  0.9309 -0.1172
  414MOL0     H55841   3.863   0.108   5.456  3.2280  0.8553 -0.8441
  414MOL0     H55842   3.530  -0.098   5.468 -1.1762  1.1044  0.1678
  414MOL0     H55843   3.605   0.042   5.536  2.0120 -1.0378 -1.3452
  414MOL0     H55844   3.583   0.173   5.342 -2.0160  1.1609 -2.1292
  414MOL0     H55845   3.430   0.113   5.421  1.6797 -0.5226  1.1072
  414MOL0     H55846   3.548  -0.027   5.171 -0.0635  1.0656 -1.5676
  414MOL0     H55847   3.441   0.103   5.161 -1.6542 -2.3208 -1.3298
  414MOL0     H55848   3.279  -0.040   5.312 -0.7087 -2.4298 -0.9289
  414MOL0     H55849   3.405  -0.164   5.300  0.1478 -0.1723 -0.2620
  414MOL0     H55850   3.229  -0.185   4.898 -1.9096  0.8888 -3.4791
  414MOL0     H55851   2.929  -0.188   4.712  1.3131 -0.8899 -1.8820
  414MOL0     H55852   3.013  -0.037   4.702 -0.6265  1.3095  2.2313
  414MOL0     H55853   3.104  -0.200   4.714 -0.6628 -1.4126  0.1619
  414MOL0     H55854   2.548  -0.227   4.808  0.3527  0.1726  0.2983
  414MOL0     H55855   2.330  -0.165   4.706 -0.5881  0.9308 -0.6547
  414MOL0     H55856   2.086   0.136   4.931  0.0570  1.3020 -0.2108
  414MOL0     H55857   2.153   0.233   4.801 -2.3148  2.5509  2.0309
  414MOL0     H55858   1.986   0.144   4.647  2.3685 -0.8894  0.5801
  414MOL0     H55859   1.938   0.017   4.751  2.7917 -1.3272  1.8982
  414MOL0     H55860   1.930   0.325   4.807 -0.2099  0.2304 -2.6623
  414MOL0     H55861   1.833   0.202   4.899  2.5771  0.6694  0.5452
  414MOL0     H55862   1.708   0.348   4.764 -0.1474  0.4480  1.2834
  414MOL0     H55863   1.794   0.315   4.619 -1.2566  2.1901  1.0587
  414MOL0     H55864   1.602   0.151   4.788  2.0356  0.4649  0.6069
  414MOL0     H55865   1.686   0.068   4.647  0.0141 -0.6275 -0.5097
  414MOL0     H55866   1.502   0.311   4.604 -1.8052 -0.0770 -0.9793
  414MOL0     H55867   1.596   0.228   4.482 -2.1513  0.3044 -1.3503
  414MOL0     H55868   1.370   0.084   4.622 -2.5066  2.3100 -1.4018
  414MOL0     H55869   1.492   0.018   4.503 -0.6695 -2.5008  5.0464
  414MOL0     H55870   1.293   0.073   4.396 -2.3022  2.3634 -0.0269
  414MOL0     H55871   1.416   0.193   4.341 -0.0929 -0.3735 -1.5724
  414MOL0     H55872   2.322   0.188   4.946  3.1809  0.0161  0.3898
  414MOL0     H55873   2.532   0.115   5.050  1.6521 -0.7243 -1.6434
  414MOL0     H55874   2.871   0.020   5.155 -0.1598 -0.6543 -1.7887
  414MOL0     H55875   3.084  -0.043   5.272 -0.2210  1.4651  0.2886
  414MOL0     H55876   5.018  -0.054   5.180 -1.5037  0.9517 -2.6338
  414MOL0     H55877   5.266  -0.032   5.214 -0.1800  0.7895  3.7371
  414MOL0     H55878   5.591   0.230   5.348  0.0823  2.3040  0.6290
  414MOL0     H55879   5.817   0.268   5.423  1.9458 -2.3225  0.3731
  414MOL0     H55880   6.234   0.296   5.284  0.2541  0.3183 -0.1741
  414MOL0     H55881   6.136   0.212   5.160 -0.3010 -0.6535  0.8675
  414MOL0     H55882   6.180   0.505   5.207 -1.3919  0.2834 -1.8819
  414MOL0     H55883   6.087   0.438   5.067 -1.3171 -1.9354  0.7738
  414MOL0     H55884   6.325   0.324   5.016  0.2378  0.6901 -1.5927
  414MOL0     H55885   6.394   0.452   5.109 -0.6124  0.5080  1.6578
  414MOL0     H55886   6.305   0.628   4.984  0.1638  1.1266 -1.2470
  414MOL0     H55887   6.215   0.513   4.871  0.2719 -0.2209  0.1624
  414MOL0     H55888   6.635   0.518   4.761 -0.8028 -1.0025 -2.0807
  414MOL0     H55889   5.959   0.259   5.025  0.8108 -0.8014  0.8445
  414MOL0     H55890   5.729   0.218   4.938  0.3098  1.9808 -0.7512
  415MOL0     O55891   4.283   6.304   7.208  0.2431  0.2701  0.5206
  415MOL0     C55892   4.369   6.228   7.247 -0.2732  1.0881 -0.2054
  415MOL0     O55893   4.398   6.210   7.373  0.0358  0.2159 -0.2747
  415MOL0     C55894   4.297   6.248   7.456 -0.0587  0.3936  0.1515
  415MOL0     C55895   4.326   6.322   7.568 -0.4757 -0.2134 -0.5320
  415MOL0     C55896   4.225   6.353   7.657  0.0444  0.0481  0.2096
  415MOL0     C55897   4.099   6.293   7.645  0.0054  0.7944  0.4323
  415MOL0     O55898   4.017   6.339   7.741  0.1310  0.2123  0.6847
  415MOL0     C55899   3.921   6.246   7.780 -0.3146 -0.7509 -0.3849
  415MOL0     C55900   3.848   6.292   7.903  0.4612  0.9562 -0.0165
  415MOL0     C55901   3.764   6.409   7.878  0.4664  0.7643  0.4118
  415MOL0     C55902   3.655   6.430   7.985  0.4071  0.2051 -0.4889
  415MOL0     C55903   3.708   6.488   8.110 -0.7471 -0.3231  0.5523
  415MOL0     C55904   3.588   6.495   8.208 -0.2989  0.0013 -0.4887
  415MOL0     C55905   3.633   6.526   8.355  0.2912 -0.0615 -0.2972
  415MOL0     C55906   3.521   6.491   8.446  0.3098  0.3135 -1.2627
  415MOL0     N55907   3.442   6.612   8.479 -0.0911 -0.0813  0.0966
  415MOL0     C55908   3.475   6.722   8.547 -0.0129 -0.6197 -0.2697
  415MOL0     C55909   3.373   6.805   8.546 -0.7146  0.4067  0.2696
  415MOL0     C55910   3.364   6.952   8.603  0.6680  0.7309  0.6677
  415MOL0     C55911   3.222   6.994   8.618  0.1776  0.0907  0.1444
  415MOL0     C55912   3.206   7.108   8.719 -0.8632 -0.7344  0.0017
  415MOL0     C55913   3.063   7.149   8.706  0.2714 -0.4683  0.6474
  415MOL0     O55914   3.038   7.256   8.795  0.5290 -0.8112 -0.4442
  415MOL0     C55915   2.912   7.308   8.783  1.1870  0.4396  0.4459
  415MOL0     C55916   2.803   7.250   8.715 -0.1279 -0.5352 -0.4644
  415MOL0     C55917   2.677   7.312   8.714 -0.1800  0.3102  0.4919
  415MOL0     C55918   2.566   7.234   8.637 -0.1714  0.1403 -0.4267
  415MOL0     C55919   2.660   7.438   8.768 -0.5118 -1.0921  0.3430
  415MOL0     C55920   2.536   7.529   8.761  0.2537 -0.7702  1.1115
  415MOL0     O55921   2.535   7.638   8.857  0.5658  0.0027  0.6924
  415MOL0     C55922   2.436   7.730   8.847 -0.9987 -0.0920 -0.0593
  415MOL0     C55923   2.300   7.704   8.842 -0.2944 -0.3042 -0.8274
  415MOL0     C55924   2.216   7.800   8.798  0.0462  0.3318  0.2786
  415MOL0     C55925   2.259   7.927   8.774  1.2154 -1.1345 -0.7245
  415MOL0     O55926   2.164   8.022   8.756  0.3037 -1.0013  0.6927
  415MOL0     C55927   2.107   8.060   8.882 -0.6143  0.0458 -0.0623
  415MOL0     C55928   1.956   8.097   8.872 -0.3124  0.0660 -0.0605
  415MOL0     C55929   1.907   8.186   8.991 -0.4594  0.0593  0.7776
  415MOL0     C55930   1.757   8.216   8.994 -0.3592  1.1232  0.4718
  415MOL0     C55931   1.669   8.083   9.010  0.1164  0.4625 -0.6530
  415MOL0     C55932   1.518   8.110   8.977 -0.4591 -0.3412  0.1237
  415MOL0     C55933   1.458   8.238   9.046 -0.1380 -0.0976 -0.5148
  415MOL0     C55934   1.460   8.350   8.954  0.6586  0.3255 -0.0103
  415MOL0    Cl55935   1.320   8.327   8.852 -0.1946 -0.2724 -0.1776
  415MOL0     C55936   2.394   7.961   8.798  0.2378  0.6235  0.2350
  415MOL0     C55937   2.487   7.857   8.828 -0.0864 -0.5554 -0.1277
  415MOL0     O55938   2.456   7.502   8.674  0.2878 -0.6376 -0.0334
  415MOL0     C55939   2.768   7.485   8.844 -0.1027 -0.0711 -0.3323
  415MOL0     C55940   2.890   7.421   8.856 -0.1572 -0.1795 -0.3372
  415MOL0     N55941   3.272   6.744   8.464 -0.0155 -0.5480 -0.1003
  415MOL0     N55942   3.315   6.624   8.432 -0.2939 -0.3422  0.1917
  415MOL0     C55943   4.074   6.194   7.549  0.0839 -1.1543 -0.8273
  415MOL0     C55944   4.178   6.168   7.459  0.2144 -0.5017  0.9575
  415MOL0     C55945   4.436   6.149   7.148  0.2561 -0.2613 -0.6758
  415MOL0     C55946   4.562   6.094   7.172 -0.3185  0.4008  0.2763
  415MOL0     C55947   4.631   6.016   7.078 -0.0256 -0.9772 -0.1363
  415MOL0     C55948   4.570   5.976   6.964 -0.2049 -0.9230 -0.0701
  415MOL0     O55949   4.624   5.879   6.884 -0.2323  0.0206  0.5692
  415MOL0     C55950   4.549   5.764   6.872 -0.0470  0.6112  0.1047
  415MOL0     C55951   4.627   5.639   6.893 -0.3437  0.5125 -0.6934
  415MOL0     C55952   4.724   5.647   7.024  0.0277  0.2682 -0.4288
  415MOL0     C55953   4.871   5.652   6.990  0.0744 -0.0905  0.0673
  415MOL0     C55954   4.959   5.640   7.107 -0.6645 -0.3196  0.6737
  415MOL0     C55955   5.046   5.644   7.196  0.1252  0.2618 -0.0829
  415MOL0     C55956   4.440   6.015   6.958  1.0488  0.0814  0.0176
  415MOL0     C55957   4.370   6.103   7.043 -0.0028 -0.5290  0.7485
  415MOL0     H55958   4.426   6.362   7.577 -0.4066 -0.6712  1.0838
  415MOL0     H55959   4.254   6.416   7.741 -1.2293 -0.6964  1.2329
  415MOL0     H55960   3.848   6.224   7.702 -1.5921 -0.2405  0.6302
  415MOL0     H55961   3.972   6.152   7.802 -2.4980 -1.9224 -0.1443
  415MOL0     H55962   3.786   6.204   7.923  1.0067  0.0111 -2.1635
  415MOL0     H55963   3.914   6.296   7.990 -0.4382 -1.3930  0.8513
  415MOL0     H55964   3.829   6.496   7.863  1.5341 -0.3669 -2.2659
  415MOL0     H55965   3.699   6.396   7.791 -0.3604  0.5714  1.0524
  415MOL0     H55966   3.568   6.490   7.958 -0.8327  0.2174  3.0381
  415MOL0     H55967   3.622   6.329   8.014 -2.6527  0.9953 -0.9861
  415MOL0     H55968   3.790   6.424   8.146 -0.7790 -0.1411  0.9566
  415MOL0     H55969   3.742   6.589   8.087  0.6011 -0.5375  1.4686
  415MOL0     H55970   3.512   6.568   8.179 -2.7374 -1.2186  2.3277
  415MOL0     H55971   3.548   6.393   8.215 -1.6238  0.5621  0.5295
  415MOL0     H55972   3.729   6.481   8.380  1.5642  1.5131 -2.0415
  415MOL0     H55973   3.661   6.630   8.372  0.5298 -0.4796  2.1627
  415MOL0     H55974   3.555   6.446   8.540 -2.3880  2.5041  0.9496
  415MOL0     H55975   3.455   6.419   8.398 -0.1154  0.8246 -1.4612
  415MOL0     H55976   3.570   6.751   8.590  0.6862 -1.0546 -1.4928
  415MOL0     H55977   3.410   6.949   8.703 -1.0198 -2.6848  1.4840
  415MOL0     H55978   3.408   7.025   8.535 -2.5233  0.0113 -2.4522
  415MOL0     H55979   3.162   6.912   8.656 -2.4201  1.7907 -0.0285
  415MOL0     H55980   3.189   7.029   8.520  5.7103 -0.1136 -2.1524
  415MOL0     H55981   3.277   7.190   8.705 -0.9266 -0.5815  0.5497
  415MOL0     H55982   3.224   7.074   8.821  2.8414  0.7223  0.0151
  415MOL0     H55983   2.992   7.069   8.729 -1.8913  1.3585  0.6926
  415MOL0     H55984   3.042   7.182   8.604  0.0459  0.7959  1.0935
  415MOL0     H55985   2.822   7.155   8.665  0.7808 -0.7696  0.2908
  415MOL0     H55986   2.563   7.281   8.538  2.6450  2.1634  0.3379
  415MOL0     H55987   2.593   7.128   8.632 -0.3844  0.1509 -2.9940
  415MOL0     H55988   2.469   7.251   8.684  0.2813 -1.6006  1.2830
  415MOL0     H55989   2.253   7.608   8.859 -2.7398  0.7915 -1.0194
  415MOL0     H55990   2.112   7.776   8.780  0.9242 -2.8287 -1.3065
  415MOL0     H55991   2.108   7.982   8.958 -3.4247 -1.3815 -1.3458
  415MOL0     H55992   2.167   8.146   8.914  2.6202 -1.7080 -1.0226
  415MOL0     H55993   1.932   8.142   8.775  0.0417 -0.6066 -0.4647
  415MOL0     H55994   1.911   7.998   8.878  2.7628 -1.3864  1.5153
  415MOL0     H55995   1.942   8.286   8.963 -2.2075  0.1519 -1.2917
  415MOL0     H55996   1.942   8.142   9.085  1.4196 -1.0852 -0.3806
  415MOL0     H55997   1.726   8.287   9.071 -1.2131  0.3291  0.8732
  415MOL0     H55998   1.735   8.256   8.894  0.3330 -0.0458 -0.1655
  415MOL0     H55999   1.691   8.046   9.111 -1.8972  2.7268  0.7185
  415MOL0     H56000   1.693   8.003   8.939  1.0784  0.6822 -0.5890
  415MOL0     H56001   1.501   8.125   8.870  0.2529  1.0842  0.1903
  415MOL0     H56002   1.450   8.029   9.005 -1.4853 -0.3968 -2.3180
  415MOL0     H56003   1.511   8.262   9.139 -1.6653  3.2105 -0.3623
  415MOL0     H56004   1.353   8.222   9.074 -0.2578  2.5323  0.8340
  415MOL0     H56005   1.552   8.349   8.896  0.5446 -3.3442 -0.3123
  415MOL0     H56006   1.455   8.445   9.009 -0.1238  0.2823  0.0018
  415MOL0     H56007   2.423   8.065   8.791 -0.5836  0.7707 -1.2330
  415MOL0     H56008   2.593   7.877   8.844 -0.2504 -0.9908  1.6980
  415MOL0     H56009   2.766   7.584   8.888  1.4047  0.1710 -0.7222
  415MOL0     H56010   2.965   7.472   8.915  0.6945  0.4628 -1.9246
  415MOL0     H56011   3.975   6.149   7.541  0.6351 -2.5809  0.0109
  415MOL0     H56012   4.162   6.098   7.377  2.0787  1.3075 -1.1000
  415MOL0     H56013   4.616   6.126   7.260  1.5508  1.3629 -1.1500
  415MOL0     H56014   4.737   5.998   7.091 -0.1648 -1.2069  0.7564
  415MOL0     H56015   4.457   5.767   6.931 -0.6494  1.9047 -0.8566
  415MOL0     H56016   4.506   5.753   6.772 -1.0030  1.7673  0.3714
  415MOL0     H56017   4.684   5.622   6.801  0.9664 -0.3604  0.2420
  415MOL0     H56018   4.564   5.550   6.888  2.3784 -1.7175  1.4139
  415MOL0     H56019   4.708   5.562   7.090  0.9261 -0.5622 -1.2272
  415MOL0     H56020   4.709   5.739   7.080  1.5502 -0.4616  1.2810
  415MOL0     H56021   4.896   5.739   6.928 -1.1149 -1.1057 -1.9380
  415MOL0     H56022   4.898   5.571   6.921 -0.2376  3.1326 -4.2441
  415MOL0     H56023   5.110   5.650   7.281  1.3730 -3.9133 -0.4958
  415MOL0     H56024   4.381   5.988   6.871 -0.4957  1.0366  0.7308
  415MOL0     H56025   4.262   6.113   7.036  0.0830 -0.3279 -0.5783
  416MOL0     O56026   5.129  10.463   7.294 -0.5520  0.4362 -0.2986
  416MOL0     C56027   5.155  10.478   7.410  0.1377  0.0853 -0.5103
  416MOL0     O56028   5.087  10.428   7.523 -0.5699  0.2463  0.0243
  416MOL0     C56029   4.983  10.343   7.488  0.7069 -0.1918  0.1972
  416MOL0     C56030   5.013  10.212   7.442 -0.0423 -0.0300 -0.2311
  416MOL0     C56031   4.908  10.130   7.408  0.0617 -0.2635  0.0146
  416MOL0     C56032   4.778  10.174   7.417  0.0615 -0.7087 -0.0657
  416MOL0     O56033   4.668  10.105   7.384  0.9013  0.1622  0.3657
  416MOL0     C56034   4.672   9.992   7.299 -0.5616  0.2596  0.9465
  416MOL0     C56035   4.531   9.953   7.257  0.0026 -0.5624  0.2120
  416MOL0     C56036   4.460   9.885   7.374  0.4565  0.5261 -0.2601
  416MOL0     C56037   4.339   9.801   7.328 -0.4093 -0.4602  0.6107
  416MOL0     C56038   4.249   9.765   7.442 -0.1912  0.7520  0.3611
  416MOL0     C56039   4.148   9.650   7.398 -0.0108 -0.9243 -0.1983
  416MOL0     C56040   4.016   9.636   7.483 -0.5075  0.6138 -0.8781
  416MOL0     C56041   4.034   9.588   7.628 -1.0342 -0.6464 -0.0400
  416MOL0     N56042   3.905   9.564   7.694  0.4050  0.4916  0.0608
  416MOL0     C56043   3.812   9.467   7.652 -0.1434 -0.6885  0.2852
  416MOL0     C56044   3.725   9.475   7.750  0.3622 -0.5554 -0.4234
  416MOL0     C56045   3.612   9.386   7.767  0.9132  0.3636 -0.4355
  416MOL0     C56046   3.485   9.423   7.676 -0.6168  0.4318 -0.4545
  416MOL0     C56047   3.380   9.313   7.694  0.1314  0.5860  0.4768
  416MOL0     C56048   3.271   9.327   7.583  0.4954 -0.3423  0.4981
  416MOL0     O56049   3.212   9.456   7.615 -0.0334 -0.2219  0.2199
  416MOL0     C56050   3.077   9.481   7.579  0.9624 -0.0017  0.1891
  416MOL0     C56051   3.015   9.421   7.474  0.0963  0.7298  0.5576
  416MOL0     C56052   2.879   9.446   7.452 -0.9529  1.0359  0.1279
  416MOL0     C56053   2.832   9.399   7.319  0.4758 -0.4296  0.3597
  416MOL0     C56054   2.798   9.527   7.535 -0.5528 -0.1217 -0.7551
  416MOL0     C56055   2.656   9.533   7.517  0.3786 -0.2612 -0.0681
  416MOL0     O56056   2.595   9.640   7.563  0.4876  0.0983  0.0212
  416MOL0     C56057   2.465   9.666   7.546  0.0108 -0.3469  0.0606
  416MOL0     C56058   2.384   9.631   7.434  0.5951 -0.3961 -0.0582
  416MOL0     C56059   2.255   9.678   7.421 -0.2340  0.0620 -0.1114
  416MOL0     C56060   2.199   9.753   7.519  0.7969 -0.6459 -0.6155
  416MOL0     O56061   2.074   9.802   7.520 -0.6200 -0.3210  0.2934
  416MOL0     C56062   1.992   9.790   7.405 -0.9988 -0.0894  0.5450
  416MOL0     C56063   1.841   9.824   7.429  0.0671  0.0737 -0.3007
  416MOL0     C56064   1.815   9.975   7.409  0.0399 -1.1038 -0.6592
  416MOL0     C56065   1.709  10.039   7.498  0.0179  0.1639  0.4272
  416MOL0     C56066   1.754  10.183   7.524 -0.8766  0.0660  0.3687
  416MOL0     C56067   1.631  10.269   7.550 -0.1211  0.7373 -0.3999
  416MOL0     C56068   1.679  10.410   7.586 -0.2283 -0.2418 -0.6932
  416MOL0     C56069   1.563  10.510   7.628 -0.2306 -0.3586 -0.0996
  416MOL0    Cl56070   1.467  10.465   7.777  0.6784 -0.3072 -0.4358
  416MOL0     C56071   2.275   9.789   7.633  0.1065 -1.2923  0.6402
  416MOL0     C56072   2.410   9.752   7.640 -0.2667 -0.0402 -0.3135
  416MOL0     O56073   2.605   9.427   7.487 -0.1048  0.3657  0.9276
  416MOL0     C56074   2.868   9.597   7.632 -1.0922  0.8808  0.1301
  416MOL0     C56075   3.002   9.575   7.659  0.3698 -0.3649 -0.4308
  416MOL0     N56076   3.764   9.563   7.846 -0.8434  0.0629 -0.3423
  416MOL0     N56077   3.870   9.622   7.808 -0.0718 -0.1294 -0.0811
  416MOL0     C56078   4.749  10.298   7.472 -0.4972 -0.0643  0.3774
  416MOL0     C56079   4.851  10.381   7.502  0.1073 -0.0419 -0.2058
  416MOL0     C56080   5.271  10.562   7.433  0.1983 -1.1964 -0.8992
  416MOL0     C56081   5.294  10.605   7.565 -0.8616 -0.6389 -0.2649
  416MOL0     C56082   5.407  10.677   7.600  0.7980  0.9878 -0.1563
  416MOL0     C56083   5.498  10.719   7.498  0.9581 -0.2994 -0.5904
  416MOL0     O56084   5.609  10.781   7.543 -0.2014 -0.0769 -0.6657
  416MOL0     C56085   5.704  10.846   7.455 -0.2908 -0.8271  0.3700
  416MOL0     C56086   5.754  10.978   7.514 -0.0135 -0.2034 -1.1618
  416MOL0     C56087   5.848  10.956   7.639 -0.3348 -0.1446 -0.6243
  416MOL0     C56088   5.869  11.089   7.720 -1.1846  0.7990 -0.1642
  416MOL0     C56089   5.932  11.054   7.847  0.3678 -0.3758 -0.0052
  416MOL0     C56090   5.970  11.047   7.958 -0.2065 -0.3830 -0.9599
  416MOL0     C56091   5.482  10.671   7.370  0.1330  0.5521 -0.5459
  416MOL0     C56092   5.371  10.588   7.334 -0.1448  0.5463 -0.9107
  416MOL0     H56093   5.115  10.174   7.446  0.0062  0.1508  3.1346
  416MOL0     H56094   4.920  10.030   7.368  2.7632  0.0546 -0.1582
  416MOL0     H56095   4.719  10.030   7.208  1.8308  1.0831  2.4281
  416MOL0     H56096   4.722   9.903   7.339 -1.3037 -0.5049  0.2167
  416MOL0     H56097   4.475  10.044   7.231  0.1988 -0.4063  0.3353
  416MOL0     H56098   4.533   9.890   7.168  0.9957  0.4061 -0.4815
  416MOL0     H56099   4.529   9.822   7.431 -1.0255 -1.1940 -0.3046
  416MOL0     H56100   4.426   9.962   7.444 -1.2007 -0.0272 -0.4186
  416MOL0     H56101   4.285   9.863   7.254  0.1096  0.0230  0.6313
  416MOL0     H56102   4.371   9.711   7.276 -0.7604  0.0486 -0.5298
  416MOL0     H56103   4.319   9.719   7.512  1.1754  0.6606 -1.0025
  416MOL0     H56104   4.198   9.852   7.484  1.5363  0.0291  4.3998
  416MOL0     H56105   4.114   9.688   7.301 -2.2077 -3.5785 -0.5829
  416MOL0     H56106   4.194   9.553   7.383  2.2959  0.0403  0.2564
  416MOL0     H56107   3.972   9.736   7.488  1.9616  1.7532 -0.7364
  416MOL0     H56108   3.949   9.565   7.433 -1.2518  0.9464 -0.3687
  416MOL0     H56109   4.087   9.664   7.687  1.8315 -1.8330 -0.9077
  416MOL0     H56110   4.097   9.499   7.620  1.7717  1.2855 -1.0386
  416MOL0     H56111   3.812   9.397   7.569 -1.0511 -3.1782  2.2569
  416MOL0     H56112   3.639   9.280   7.757 -3.9514 -1.4191  1.8786
  416MOL0     H56113   3.588   9.412   7.870  3.2794  4.9243 -0.7870
  416MOL0     H56114   3.513   9.416   7.570 -0.9091 -0.1050 -0.4966
  416MOL0     H56115   3.430   9.514   7.702 -0.0851  0.8024 -0.5888
  416MOL0     H56116   3.341   9.326   7.795  1.0507  1.4562  0.7355
  416MOL0     H56117   3.435   9.219   7.683  1.6401  1.6568 -1.9978
  416MOL0     H56118   3.192   9.254   7.604  0.0011  0.3766  1.1718
  416MOL0     H56119   3.318   9.320   7.484  0.9667 -4.7470  0.8386
  416MOL0     H56120   3.075   9.350   7.417  1.1847  1.3732  0.8650
  416MOL0     H56121   2.911   9.381   7.246  0.1314  0.4745 -0.2604
  416MOL0     H56122   2.764   9.314   7.329  0.6692 -0.6517 -0.1734
  416MOL0     H56123   2.768   9.476   7.275  1.4799 -0.2537 -0.8307
  416MOL0     H56124   2.430   9.558   7.368  3.8806 -0.0349  1.6289
  416MOL0     H56125   2.211   9.648   7.327 -0.7950  0.4534  0.0203
  416MOL0     H56126   2.033   9.852   7.325 -0.4689 -1.3616 -0.2017
  416MOL0     H56127   1.996   9.684   7.379  1.9393 -0.2624  1.3911
  416MOL0     H56128   1.785   9.759   7.361  1.9079 -2.8437  0.7810
  416MOL0     H56129   1.816   9.786   7.529  0.1535 -0.8771 -0.6301
  416MOL0     H56130   1.780   9.998   7.308  0.6482  2.1689 -0.2226
  416MOL0     H56131   1.911  10.023   7.428 -0.1266 -1.2753  0.6930
  416MOL0     H56132   1.610  10.034   7.452  1.2439 -0.1839 -2.4172
  416MOL0     H56133   1.703   9.994   7.597  1.7441  4.2433  2.6199
  416MOL0     H56134   1.826  10.220   7.450  0.6174 -1.7907  0.8176
  416MOL0     H56135   1.814  10.183   7.615  2.2697  1.4471 -1.5410
  416MOL0     H56136   1.558  10.259   7.470 -3.1960  2.6723  1.9581
  416MOL0     H56137   1.597  10.224   7.643  2.6665  0.7334  0.7242
  416MOL0     H56138   1.730  10.437   7.493  1.6642 -0.5953  0.2005
  416MOL0     H56139   1.753  10.406   7.667 -0.9947 -2.0866 -0.0264
  416MOL0     H56140   1.488  10.510   7.548  0.5757 -1.5964 -0.8905
  416MOL0     H56141   1.594  10.613   7.644  0.0174 -0.0670 -2.1420
  416MOL0     H56142   2.214   9.842   7.706 -1.8938 -1.0196 -1.1333
  416MOL0     H56143   2.472   9.786   7.723 -0.7908  1.4378 -0.4926
  416MOL0     H56144   2.810   9.663   7.696  0.9191 -1.0812  4.3841
  416MOL0     H56145   3.044   9.609   7.753 -0.4037 -3.9911  1.4099
  416MOL0     H56146   4.650  10.338   7.492 -0.4676 -0.1683  0.7356
  416MOL0     H56147   4.825  10.482   7.534 -0.6021 -0.2498 -0.1281
  416MOL0     H56148   5.225  10.584   7.646  0.4388 -0.4692  0.9098
  416MOL0     H56149   5.435  10.701   7.702 -0.5194  2.8143 -0.1616
  416MOL0     H56150   5.794  10.787   7.439 -0.4411 -1.5023  1.8088
  416MOL0     H56151   5.659  10.865   7.358 -1.4798 -0.2707  1.0047
  416MOL0     H56152   5.666  11.032   7.552  0.9605  1.4670 -1.2089
  416MOL0     H56153   5.812  11.039   7.444  2.4849  1.2353  1.9219
  416MOL0     H56154   5.940  10.908   7.604  0.1429 -0.1440  0.5718
  416MOL0     H56155   5.798  10.886   7.706  0.6119 -0.2013  0.0321
  416MOL0     H56156   5.770  11.131   7.743 -1.3949  1.3342 -1.9443
  416MOL0     H56157   5.921  11.158   7.654  0.5829  1.3499  1.7202
  416MOL0     H56158   6.007  11.040   8.059  2.5351 -0.9383 -1.9238
  416MOL0     H56159   5.565  10.666   7.300  1.6458 -2.4313  1.2451
  416MOL0     H56160   5.362  10.551   7.232  0.5716  0.2488 -0.8698
  417MOL0     O56161   2.762   0.313   5.167  0.5821 -0.1350 -0.3986
  417MOL0     C56162   2.743   0.313   5.291  0.2275 -0.3615  0.0305
  417MOL0     O56163   2.627   0.353   5.356  0.5163 -0.7397 -0.1177
  417MOL0     C56164   2.503   0.367   5.296  0.2226  0.2905  0.0450
  417MOL0     C56165   2.470   0.386   5.162  0.7017  0.5272 -0.2450
  417MOL0     C56166   2.332   0.395   5.119  0.0308 -0.3125 -0.1681
  417MOL0     C56167   2.224   0.397   5.208 -0.6934  0.4845 -1.0676
  417MOL0     O56168   2.098   0.400   5.157 -0.5004  0.8239 -0.1111
  417MOL0     C56169   1.992   0.384   5.249 -0.9043  0.5889 -0.0799
  417MOL0     C56170   1.862   0.360   5.185  0.6255  0.6416  0.2962
  417MOL0     C56171   1.829   0.466   5.080  0.5662  0.0617  0.0676
  417MOL0     C56172   1.687   0.469   5.035 -0.1476 -0.2725  0.1225
  417MOL0     C56173   1.670   0.565   4.908 -0.3153  0.0312 -0.3960
  417MOL0     C56174   1.531   0.545   4.854 -0.4973  0.9276  0.7398
  417MOL0     C56175   1.505   0.650   4.756 -0.0879 -0.9078  0.1023
  417MOL0     C56176   1.569   0.623   4.625 -0.6907  0.1322  0.4629
  417MOL0     N56177   1.519   0.710   4.524  0.2469 -0.1157 -0.6663
  417MOL0     C56178   1.386   0.718   4.496 -0.4799  0.1265 -0.0074
  417MOL0     C56179   1.370   0.823   4.412 -0.6070  0.0071  0.0628
  417MOL0     C56180   1.242   0.864   4.344 -0.2770 -0.2036  0.2269
  417MOL0     C56181   1.190   0.768   4.243 -0.4850  0.7469 -0.2382
  417MOL0     C56182   1.080   0.832   4.157  0.2643 -0.9762 -0.1214
  417MOL0     C56183   1.016   0.731   4.072 -0.0558 -0.5911  0.2391
  417MOL0     O56184   0.915   0.788   3.981 -0.3726 -0.3278 -0.2334
  417MOL0     C56185   0.831   0.697   3.929  0.6506 -0.5342 -0.2959
  417MOL0     C56186   0.779   0.589   3.986  0.1156 -0.1424 -0.5143
  417MOL0     C56187   0.674   0.513   3.937  0.1060 -0.0916  0.7167
  417MOL0     C56188   0.637   0.378   4.003 -0.2043  0.0121  0.2334
  417MOL0     C56189   0.619   0.548   3.807 -0.3535 -0.4561 -0.1792
  417MOL0     C56190   0.494   0.484   3.752 -0.7044  0.0234  0.2005
  417MOL0     O56191   0.442   0.543   3.642 -0.9262 -0.1134 -0.2095
  417MOL0     C56192   0.347   0.464   3.578 -0.3316  0.4288  0.2065
  417MOL0     C56193   0.407   0.368   3.490  0.5631 -1.0232  0.1533
  417MOL0     C56194   0.327   0.266   3.438 -0.5273 -0.2275  0.2315
  417MOL0     C56195   0.184   0.260   3.465  0.4175 -0.4068 -0.1057
  417MOL0     O56196   0.100   0.156   3.444  0.9472  0.2360  0.2087
  417MOL0     C56197   0.115   0.094   3.316  0.1130 -0.2193 -0.6303
  417MOL0     C56198  -0.001  -0.003   3.295 -0.3196  0.4790 -0.3308
  417MOL0     C56199  -0.140   0.064   3.296 -0.3968 -0.6892  0.3147
  417MOL0     C56200  -0.245  -0.033   3.249 -0.5442 -0.4517  0.2418
  417MOL0     C56201  -0.381   0.039   3.224  0.6994 -0.7288  0.9501
  417MOL0     C56202  -0.486  -0.055   3.155  0.1865  0.1283 -0.0595
  417MOL0     C56203  -0.440  -0.124   3.029  0.4547 -0.5110  0.3996
  417MOL0     C56204  -0.442  -0.022   2.906 -0.6919  0.0090  0.2842
  417MOL0    Cl56205  -0.594   0.001   2.837  0.8851 -0.4423 -0.1390
  417MOL0     C56206   0.132   0.359   3.551  0.5697  0.3925  0.3584
  417MOL0     C56207   0.206   0.461   3.606 -0.2696 -0.7073  0.0554
  417MOL0     O56208   0.454   0.379   3.800  0.4143 -0.6854  0.1555
  417MOL0     C56209   0.669   0.668   3.746 -0.3697 -0.8340 -0.9245
  417MOL0     C56210   0.776   0.741   3.808 -0.2472  0.0812  0.6037
  417MOL0     N56211   1.501   0.867   4.385 -0.1700  0.4743 -0.7780
  417MOL0     N56212   1.585   0.799   4.456 -0.2324 -0.1520 -0.4481
  417MOL0     C56213   2.255   0.384   5.353 -0.7889 -0.1715 -0.0549
  417MOL0     C56214   2.390   0.363   5.395 -1.3838 -0.0687  0.8894
  417MOL0     C56215   2.858   0.265   5.366  0.4298 -0.4788  1.1237
  417MOL0     C56216   2.981   0.275   5.313 -0.4671 -0.2906  0.4206
  417MOL0     C56217   3.092   0.243   5.388 -0.2222  0.8352  0.3988
  417MOL0     C56218   3.091   0.202   5.521  0.1473  0.4459  0.2879
  417MOL0     O56219   3.203   0.187   5.594 -1.2969 -0.3542 -0.1532
  417MOL0     C56220   3.197   0.213   5.734 -0.1512  0.1068 -0.2843
  417MOL0     C56221   3.351   0.235   5.781 -0.4727  0.0833 -0.2028
  417MOL0     C56222   3.364   0.293   5.921  0.3802  0.2989  0.5302
  417MOL0     C56223   3.519   0.299   5.955 -0.4513  0.2646 -0.7382
  417MOL0     C56224   3.584   0.408   5.875 -0.0906 -1.2593  0.0784
  417MOL0     C56225   3.628   0.507   5.811  0.1545 -0.1419 -0.2830
  417MOL0     C56226   2.958   0.187   5.576  0.2378  0.3464  0.4791
  417MOL0     C56227   2.849   0.225   5.500  0.7431 -0.3507 -0.2016
  417MOL0     H56228   2.546   0.368   5.086  0.8441 -2.6187  0.5132
  417MOL0     H56229   2.307   0.423   5.017 -0.6067  3.0943  0.7975
  417MOL0     H56230   2.007   0.300   5.317  1.3927  0.1057 -1.0632
  417MOL0     H56231   1.999   0.471   5.315  0.6931 -1.4652  2.6679
  417MOL0     H56232   1.859   0.264   5.133 -1.8263  0.1941  1.1391
  417MOL0     H56233   1.789   0.361   5.266  1.2423 -0.4889  0.8948
  417MOL0     H56234   1.840   0.572   5.107 -2.0068  0.8310 -1.5379
  417MOL0     H56235   1.888   0.438   4.993 -1.1097 -4.6847  0.1767
  417MOL0     H56236   1.662   0.364   5.015  0.3069 -0.4500  0.4699
  417MOL0     H56237   1.630   0.506   5.121  0.5700 -1.5325  1.1928
  417MOL0     H56238   1.682   0.669   4.939 -1.6621  1.5191 -4.2474
  417MOL0     H56239   1.741   0.549   4.827 -0.7828  2.6904 -1.4039
  417MOL0     H56240   1.527   0.444   4.812 -3.5967  1.3121 -0.1107
  417MOL0     H56241   1.453   0.543   4.931 -3.6864  0.6035 -2.2481
  417MOL0     H56242   1.397   0.666   4.743  0.1070  1.0628  0.5459
  417MOL0     H56243   1.548   0.744   4.793 -1.8366  1.6156 -3.6326
  417MOL0     H56244   1.543   0.522   4.592 -1.8529  0.9576 -1.3041
  417MOL0     H56245   1.678   0.630   4.628 -0.6168 -1.1423  1.4926
  417MOL0     H56246   1.312   0.647   4.531 -0.9606  0.3321 -0.5835
  417MOL0     H56247   1.164   0.871   4.420 -1.1338 -1.3389 -0.5340
  417MOL0     H56248   1.256   0.966   4.307 -1.4704  0.5830  1.7921
  417MOL0     H56249   1.156   0.677   4.293 -3.4294  3.0581  2.3960
  417MOL0     H56250   1.266   0.736   4.171 -1.3380 -3.0246  0.3236
  417MOL0     H56251   1.125   0.910   4.094 -1.2731  1.1923  1.3094
  417MOL0     H56252   0.999   0.870   4.220  2.1672  0.4197  1.6511
  417MOL0     H56253   0.974   0.659   4.143  1.6743 -0.8305  1.0776
  417MOL0     H56254   1.092   0.680   4.011 -3.7045 -1.3541 -4.1799
  417MOL0     H56255   0.806   0.556   4.086  0.1209  2.3997  0.3830
  417MOL0     H56256   0.695   0.358   4.093 -1.4850  1.6641  1.4780
  417MOL0     H56257   0.535   0.367   4.040 -0.0598  0.0043  0.6338
  417MOL0     H56258   0.659   0.304   3.925  0.1460  1.9108 -1.5551
  417MOL0     H56259   0.510   0.346   3.466 -0.6405 -3.6661 -3.2638
  417MOL0     H56260   0.374   0.193   3.374  0.9611 -0.1052  1.1311
  417MOL0     H56261   0.103   0.163   3.232  1.7677  0.3372 -0.4420
  417MOL0     H56262   0.210   0.040   3.315 -0.6585 -1.8080  1.7142
  417MOL0     H56263   0.023  -0.063   3.207  1.9056  0.9831 -0.1438
  417MOL0     H56264  -0.014  -0.086   3.365 -0.6698  1.3778  0.6982
  417MOL0     H56265  -0.140   0.148   3.227  3.0835 -0.9929 -0.2780
  417MOL0     H56266  -0.158   0.103   3.397  0.8325 -0.4179  0.4484
  417MOL0     H56267  -0.191  -0.076   3.164  0.5462  1.2632  0.0284
  417MOL0     H56268  -0.260  -0.120   3.313  0.2302  0.7024  2.0705
  417MOL0     H56269  -0.369   0.129   3.164  1.4687 -1.1611  0.4373
  417MOL0     H56270  -0.422   0.062   3.323 -2.8899  1.7270 -0.8752
  417MOL0     H56271  -0.514  -0.130   3.229  1.8479 -0.9122 -0.4471
  417MOL0     H56272  -0.570   0.010   3.128  0.8085  1.7621  1.6767
  417MOL0     H56273  -0.511  -0.202   2.999 -1.1022  1.2351 -0.6092
  417MOL0     H56274  -0.340  -0.168   3.040  0.8218  0.0685 -0.5477
  417MOL0     H56275  -0.391  -0.057   2.816 -1.4815 -0.1732 -0.0992
  417MOL0     H56276  -0.390   0.070   2.936 -2.2670  0.3423  2.1953
  417MOL0     H56277   0.031   0.347   3.589  0.3129  3.0082  0.6653
  417MOL0     H56278   0.172   0.541   3.671  1.6087  0.7126 -0.6239
  417MOL0     H56279   0.628   0.710   3.655 -1.7692 -2.7638 -1.2529
  417MOL0     H56280   0.810   0.837   3.769 -1.9959 -0.7331 -3.4684
  417MOL0     H56281   2.172   0.388   5.422 -2.8862  3.0815 -2.4350
  417MOL0     H56282   2.405   0.342   5.501 -1.5254  0.8473  1.0981
  417MOL0     H56283   2.999   0.307   5.210  1.4510 -2.2298  0.0701
  417MOL0     H56284   3.179   0.259   5.324  0.0329  1.1128  0.8115
  417MOL0     H56285   3.144   0.306   5.757 -1.7719 -0.1869 -2.4881
  417MOL0     H56286   3.151   0.135   5.796 -1.7232  0.8653 -0.4455
  417MOL0     H56287   3.400   0.300   5.707 -0.1167  1.3778  1.1169
  417MOL0     H56288   3.405   0.141   5.772  0.0619  0.2821  0.7597
  417MOL0     H56289   3.323   0.223   5.994 -0.9703  1.6874  1.1413
  417MOL0     H56290   3.316   0.391   5.923  1.0163  0.6284  0.2962
  417MOL0     H56291   3.575   0.206   5.941 -1.0713 -0.5406  1.6672
  417MOL0     H56292   3.528   0.329   6.060 -1.5876  1.5397 -0.9824
  417MOL0     H56293   3.669   0.590   5.756 -0.6000 -0.9440 -2.1296
  417MOL0     H56294   2.932   0.151   5.674 -0.9977 -0.0946  0.0046
  417MOL0     H56295   2.754   0.219   5.552  2.8262 -0.9975  3.9908
  418MOL0     O56296   0.445   0.631   0.139  0.6347 -0.3736  0.2191
  418MOL0     C56297   0.563   0.609   0.125 -0.2289 -0.1226  0.0853
  418MOL0     O56298   0.626   0.594   0.004 -0.4562  0.2897  0.0955
  418MOL0     C56299   0.555   0.623  -0.110 -0.1592 -0.2723  0.5548
  418MOL0     C56300   0.560   0.537  -0.219 -0.4971  0.4514 -0.2787
  418MOL0     C56301   0.498   0.574  -0.339  0.9883  0.2077  0.3732
  418MOL0     C56302   0.426   0.691  -0.357 -0.3282 -0.8440  0.2681
  418MOL0     O56303   0.379   0.714  -0.483  0.3091 -1.2865  0.2244
  418MOL0     C56304   0.356   0.858  -0.507  0.4434 -0.0072 -1.0406
  418MOL0     C56305   0.302   0.871  -0.646  0.4829  0.4620  0.8170
  418MOL0     C56306   0.184   0.798  -0.686 -0.9015  1.4733 -0.2609
  418MOL0     C56307   0.140   0.826  -0.830  1.3477  0.3216 -0.8490
  418MOL0     C56308  -0.000   0.778  -0.866 -0.0091  0.5372 -0.0584
  418MOL0     C56309  -0.013   0.631  -0.826 -0.1503 -1.3363  0.1074
  418MOL0     C56310  -0.148   0.589  -0.883  0.7634  0.3297  0.9209
  418MOL0     C56311  -0.171   0.440  -0.860  0.2589 -0.6769 -0.1731
  418MOL0     N56312  -0.312   0.400  -0.878 -0.3531  0.2362  0.2135
  418MOL0     C56313  -0.378   0.409  -0.998 -0.4582 -0.2162  0.3025
  418MOL0     C56314  -0.503   0.375  -0.970 -0.3968  0.1351  0.3901
  418MOL0     C56315  -0.603   0.355  -1.082 -0.0613  0.2328 -0.3884
  418MOL0     C56316  -0.546   0.253  -1.179 -0.7427  0.1505  0.1346
  418MOL0     C56317  -0.533   0.118  -1.125 -0.1652  0.2444 -0.2080
  418MOL0     C56318  -0.484   0.009  -1.229  0.7398 -0.5857 -0.7371
  418MOL0     O56319  -0.390  -0.074  -1.165  0.5252 -0.4787 -1.0646
  418MOL0     C56320  -0.268  -0.031  -1.121 -0.1596  0.3906 -0.0190
  418MOL0     C56321  -0.208  -0.101  -1.017 -0.7099  0.1667 -0.7139
  418MOL0     C56322  -0.081  -0.063  -0.953  0.3839 -0.2985 -0.4818
  418MOL0     C56323  -0.027  -0.137  -0.828 -0.2459 -0.3431 -0.1855
  418MOL0     C56324  -0.010   0.043  -1.008 -0.0241 -1.2060  0.0642
  418MOL0     C56325   0.119   0.104  -0.964 -0.0518  0.0582 -0.0797
  418MOL0     O56326   0.183   0.207  -1.050  0.1490  0.5005  0.1498
  418MOL0     C56327   0.314   0.226  -1.025  0.1908  0.2143  1.1225
  418MOL0     C56328   0.362   0.344  -0.964 -0.5731 -0.0552  0.2809
  418MOL0     C56329   0.495   0.355  -0.922  0.7399 -0.6182  0.3928
  418MOL0     C56330   0.581   0.247  -0.942 -0.3992  0.2057 -0.1143
  418MOL0     O56331   0.713   0.222  -0.898  0.2151 -0.0562 -0.0536
  418MOL0     C56332   0.784   0.339  -0.857 -0.6995 -0.2302  0.7981
  418MOL0     C56333   0.936   0.319  -0.832  0.0054 -0.0836  0.2791
  418MOL0     C56334   1.007   0.302  -0.970 -0.5219  0.1641  0.3512
  418MOL0     C56335   1.161   0.275  -0.961  0.3277 -0.3552  0.3332
  418MOL0     C56336   1.211   0.223  -1.097  0.6261 -0.2166 -1.2472
  418MOL0     C56337   1.360   0.208  -1.106 -0.1293 -0.4830 -0.6857
  418MOL0     C56338   1.405   0.145  -1.236 -0.3502 -0.0424 -0.0587
  418MOL0     C56339   1.557   0.161  -1.264 -0.2336  0.0967  0.0834
  418MOL0    Cl56340   1.615   0.081  -1.412 -0.3240 -0.0548  0.7130
  418MOL0     C56341   0.533   0.134  -1.010 -0.6104  0.2023  0.0514
  418MOL0     C56342   0.404   0.124  -1.048 -0.1628  0.7247 -0.3546
  418MOL0     O56343   0.165   0.058  -0.860  0.4594 -0.0510 -0.7792
  418MOL0     C56344  -0.068   0.108  -1.111  0.6082  0.3269  0.2598
  418MOL0     C56345  -0.195   0.071  -1.171  0.0617 -0.8480 -0.4359
  418MOL0     N56346  -0.516   0.365  -0.836 -1.4069 -0.2966 -0.7354
  418MOL0     N56347  -0.401   0.368  -0.776  0.4819 -0.4186  0.2732
  418MOL0     C56348   0.417   0.780  -0.245  0.0176 -0.7340 -0.5623
  418MOL0     C56349   0.477   0.743  -0.124 -0.0264 -0.5546 -0.4698
  418MOL0     C56350   0.645   0.595   0.247  1.1407 -0.4278  0.0332
  418MOL0     C56351   0.780   0.616   0.247 -0.7471 -0.1283 -0.2305
  418MOL0     C56352   0.861   0.602   0.361 -0.3274  1.2798  0.0347
  418MOL0     C56353   0.802   0.567   0.476  1.0428 -0.1375  0.4226
  418MOL0     O56354   0.872   0.541   0.592 -0.7695 -0.3434  0.2792
  418MOL0     C56355   0.971   0.438   0.570 -0.2668 -0.0655  0.0055
  418MOL0     C56356   0.931   0.315   0.484  0.0889 -0.0763  0.5887
  418MOL0     C56357   1.049   0.221   0.474 -0.5411  0.0483 -0.1826
  418MOL0     C56358   1.075   0.153   0.607  0.3885 -0.4038 -0.9738
  418MOL0     C56359   1.169   0.036   0.588 -0.0143  0.5494  0.3584
  418MOL0     C56360   1.239  -0.061   0.566 -0.2496 -0.6053 -0.7371
  418MOL0     C56361   0.659   0.557   0.493  0.5874  0.3227 -0.1194
  418MOL0     C56362   0.581   0.579   0.371  0.0010  1.1352 -0.7128
  418MOL0     H56363   0.634   0.457  -0.216 -0.2639  0.5826 -1.7356
  418MOL0     H56364   0.497   0.512  -0.428  2.4078  1.9347 -0.9173
  418MOL0     H56365   0.287   0.913  -0.442  2.9952  1.6040  0.4840
  418MOL0     H56366   0.454   0.908  -0.499 -0.2009  1.1644 -0.0571
  418MOL0     H56367   0.269   0.970  -0.677  0.8168 -0.3122 -2.3668
  418MOL0     H56368   0.384   0.840  -0.712  0.9346 -0.9661  1.9976
  418MOL0     H56369   0.186   0.693  -0.654 -0.6597  1.9695  1.4498
  418MOL0     H56370   0.102   0.832  -0.621 -0.0731  0.5657  1.3395
  418MOL0     H56371   0.135   0.934  -0.846 -2.7029  0.6874  1.6116
  418MOL0     H56372   0.212   0.785  -0.901  0.9174 -0.1450 -1.0242
  418MOL0     H56373  -0.068   0.841  -0.807 -1.6513  0.5172 -1.8579
  418MOL0     H56374  -0.010   0.797  -0.973  2.3773 -0.7997 -0.5986
  418MOL0     H56375   0.066   0.574  -0.873  0.3117 -0.8006  0.2223
  418MOL0     H56376  -0.011   0.604  -0.720  0.9576 -1.1604  0.1342
  418MOL0     H56377  -0.230   0.645  -0.836 -0.8294 -1.1984  0.0648
  418MOL0     H56378  -0.151   0.614  -0.989 -1.5482  2.1507  1.3148
  418MOL0     H56379  -0.150   0.425  -0.754  0.2001  2.7306  0.4464
  418MOL0     H56380  -0.102   0.373  -0.912  0.1728 -2.3696  1.7645
  418MOL0     H56381  -0.321   0.434  -1.087  2.6099 -0.9665  1.9138
  418MOL0     H56382  -0.699   0.316  -1.046 -0.4644  1.9505  0.5163
  418MOL0     H56383  -0.615   0.455  -1.125 -2.3674  1.0278  1.8385
  418MOL0     H56384  -0.450   0.288  -1.220 -0.4045  0.7694  1.4020
  418MOL0     H56385  -0.615   0.245  -1.263  1.8175 -1.8180 -1.9760
  418MOL0     H56386  -0.627   0.089  -1.076  0.4962 -0.8003  0.4735
  418MOL0     H56387  -0.457   0.119  -1.046  1.0841 -3.3090 -1.2031
  418MOL0     H56388  -0.443   0.056  -1.318  0.1612 -0.7595 -1.0987
  418MOL0     H56389  -0.578  -0.042  -1.252  0.7105 -0.6088 -0.5681
  418MOL0     H56390  -0.263  -0.187  -0.980 -0.8624 -0.0494 -1.4151
  418MOL0     H56391   0.075  -0.173  -0.844  0.2312  1.0533 -0.4263
  418MOL0     H56392  -0.026  -0.066  -0.745  0.6742  0.4268 -0.8234
  418MOL0     H56393  -0.088  -0.223  -0.798  3.4910 -2.0824  3.3667
  418MOL0     H56394   0.300   0.432  -0.951 -0.8687 -0.2372  0.0959
  418MOL0     H56395   0.529   0.433  -0.854  3.3308  0.6169 -2.1253
  418MOL0     H56396   0.773   0.426  -0.922 -0.7720 -0.2465  0.7888
  418MOL0     H56397   0.743   0.381  -0.765 -1.8722  1.7970 -0.5665
  418MOL0     H56398   0.972   0.410  -0.784  0.4971  0.7399 -1.5528
  418MOL0     H56399   0.956   0.236  -0.765  0.6969  0.4818  0.7848
  418MOL0     H56400   1.002   0.399  -1.021  1.1909 -0.0981 -0.3553
  418MOL0     H56401   0.951   0.222  -1.020  2.0469 -1.3830 -0.2264
  418MOL0     H56402   1.218   0.360  -0.922  0.4214  0.2012 -0.9849
  418MOL0     H56403   1.166   0.192  -0.889 -3.9394 -0.4078  0.8239
  418MOL0     H56404   1.170   0.281  -1.181 -2.0951 -0.0391  0.0848
  418MOL0     H56405   1.168   0.124  -1.112 -0.1480  0.3269 -2.8920
  418MOL0     H56406   1.402   0.309  -1.103 -0.6592 -0.2629 -0.5600
  418MOL0     H56407   1.400   0.148  -1.024 -0.4612  0.4893  0.2148
  418MOL0     H56408   1.344   0.195  -1.312 -1.1511  1.3153  1.4098
  418MOL0     H56409   1.388   0.038  -1.227 -0.5254  0.1243  2.3854
  418MOL0     H56410   1.610   0.112  -1.182  1.6600  1.7231 -0.0896
  418MOL0     H56411   1.589   0.265  -1.277  0.5886 -0.1635 -0.0052
  418MOL0     H56412   0.608   0.056  -1.024  1.6571  2.3321 -0.2951
  418MOL0     H56413   0.364   0.031  -1.086 -3.1624  0.5674  2.6866
  418MOL0     H56414  -0.014   0.190  -1.157  3.9134 -2.2317 -0.8341
  418MOL0     H56415  -0.219   0.143  -1.249 -1.9127 -0.0993  0.8040
  418MOL0     H56416   0.370   0.878  -0.248 -0.9067 -0.9468  2.6890
  418MOL0     H56417   0.467   0.820  -0.048 -2.5155 -1.7437  0.4852
  418MOL0     H56418   0.832   0.638   0.155 -0.2951  0.5399  0.1722
  418MOL0     H56419   0.969   0.610   0.355 -0.0942 -1.2409 -0.1348
  418MOL0     H56420   1.066   0.483   0.542 -0.6031  0.8030  0.2366
  418MOL0     H56421   0.984   0.403   0.673  1.3346  2.0815  0.5832
  418MOL0     H56422   0.918   0.344   0.379 -1.7775 -0.4983  0.6645
  418MOL0     H56423   0.851   0.250   0.521  0.4844 -1.3862 -0.7649
  418MOL0     H56424   1.126   0.289   0.439 -0.2036  0.6685  1.6838
  418MOL0     H56425   1.044   0.147   0.393  0.5689 -1.2092  0.8627
  418MOL0     H56426   0.981   0.116   0.649  1.4056 -1.0273  0.9037
  418MOL0     H56427   1.114   0.229   0.675  1.1302 -1.4788 -0.1510
  418MOL0     H56428   1.296  -0.149   0.548 -0.8426 -0.8912 -1.2291
  418MOL0     H56429   0.618   0.536   0.592  1.4088  0.8187  0.3328
  418MOL0     H56430   0.473   0.571   0.383  0.1184 -1.2734 -0.8217
  419MOL0     O56431   8.541   4.386   7.079 -0.5440  0.1535  0.0172
  419MOL0     C56432   8.633   4.467   7.076  0.0561 -0.5568  0.3994
  419MOL0     O56433   8.637   4.574   6.992 -0.2136  0.2964  0.0941
  419MOL0     C56434   8.530   4.588   6.906 -0.1230 -0.0806 -0.2046
  419MOL0     C56435   8.533   4.540   6.772 -0.5899  0.3109 -0.3298
  419MOL0     C56436   8.439   4.567   6.685  1.2234 -0.3807  0.2343
  419MOL0     C56437   8.329   4.638   6.719  0.4361  0.7425 -0.5910
  419MOL0     O56438   8.232   4.664   6.622 -0.4428 -0.0389  0.9052
  419MOL0     C56439   8.109   4.608   6.662  0.2197 -0.9284 -0.0387
  419MOL0     C56440   8.058   4.522   6.544  0.1784 -0.8074  0.1754
  419MOL0     C56441   8.043   4.601   6.413 -0.5378 -0.5646  0.1715
  419MOL0     C56442   7.992   4.518   6.291 -0.9056  0.1076 -0.5232
  419MOL0     C56443   7.955   4.588   6.163 -0.4646 -0.6599 -0.0695
  419MOL0     C56444   7.896   4.735   6.185 -0.5515  0.5433 -0.0008
  419MOL0     C56445   7.894   4.812   6.055 -0.5220  0.5996  0.6116
  419MOL0     C56446   7.816   4.736   5.947 -0.5684  0.1715 -0.3479
  419MOL0     N56447   7.822   4.816   5.823 -0.0094  0.0934 -0.1722
  419MOL0     C56448   7.728   4.903   5.787  0.5046  0.4344 -0.2057
  419MOL0     C56449   7.776   4.958   5.680  1.1893  0.0386 -0.0032
  419MOL0     C56450   7.702   5.052   5.589  0.5713 -0.2749  0.3814
  419MOL0     C56451   7.574   4.992   5.518 -0.8499 -0.0505 -0.2668
  419MOL0     C56452   7.518   5.081   5.408  0.3012  0.0601 -0.1349
  419MOL0     C56453   7.389   5.030   5.362 -0.1896  0.1564  0.0860
  419MOL0     O56454   7.362   5.096   5.238  0.6669 -0.0878  1.0416
  419MOL0     C56455   7.277   5.033   5.139 -0.4773  0.0921 -0.1224
  419MOL0     C56456   7.277   5.091   5.012  0.0744  0.3520 -0.0622
  419MOL0     C56457   7.189   5.045   4.914 -0.4551 -0.0512 -1.3318
  419MOL0     C56458   7.190   5.128   4.785  0.0256 -0.1397  0.4508
  419MOL0     C56459   7.103   4.943   4.935  0.6063 -0.4687 -0.7262
  419MOL0     C56460   7.006   4.898   4.829 -0.1335  0.3092  0.3240
  419MOL0     O56461   6.872   4.928   4.865  0.1709  0.1102  0.3423
  419MOL0     C56462   6.772   4.901   4.772 -1.3821  0.0630  0.2819
  419MOL0     C56463   6.758   4.982   4.660  0.5976 -0.4036 -0.8886
  419MOL0     C56464   6.652   4.959   4.567  0.2075  1.0836  0.6230
  419MOL0     C56465   6.565   4.851   4.580 -0.2217  0.3492  0.3550
  419MOL0     O56466   6.472   4.833   4.482 -0.2572 -0.0678  0.0309
  419MOL0     C56467   6.366   4.746   4.500  0.3738  0.3948 -0.0385
  419MOL0     C56468   6.268   4.749   4.382 -0.1878 -0.1399 -0.3996
  419MOL0     C56469   6.328   4.663   4.273  0.4754  0.1580  0.0204
  419MOL0     C56470   6.241   4.695   4.146 -0.4865 -0.4243 -0.7609
  419MOL0     C56471   6.245   4.594   4.037  1.2060 -0.8661  0.5389
  419MOL0     C56472   6.163   4.468   4.048 -0.5723 -0.2359  0.5330
  419MOL0     C56473   6.159   4.375   3.925 -0.4768 -0.1259  0.5207
  419MOL0     C56474   6.305   4.330   3.875  0.0626  0.6110 -0.4651
  419MOL0    Cl56475   6.288   4.228   3.735  0.0818  0.1576 -0.0796
  419MOL0     C56476   6.576   4.781   4.694  0.0152  0.6038  0.3265
  419MOL0     C56477   6.672   4.803   4.788 -0.5174  0.4482  0.1464
  419MOL0     O56478   7.048   4.844   4.725 -0.4157  0.2000  0.0019
  419MOL0     C56479   7.097   4.890   5.068 -0.4080 -0.2569 -0.5213
  419MOL0     C56480   7.188   4.932   5.168 -0.2654  0.2495 -0.3947
  419MOL0     N56481   7.895   4.900   5.645  0.2803 -0.6083 -0.2990
  419MOL0     N56482   7.934   4.823   5.747  0.3191  0.3189 -0.1464
  419MOL0     C56483   8.318   4.692   6.850  0.1733  0.2068  0.2421
  419MOL0     C56484   8.419   4.662   6.944  0.3455 -0.5455  0.3440
  419MOL0     C56485   8.742   4.444   7.163 -0.3252  0.2394 -0.1230
  419MOL0     C56486   8.840   4.540   7.175 -0.5272 -0.0684  0.6803
  419MOL0     C56487   8.960   4.506   7.243 -0.0953 -0.2151 -0.9545
  419MOL0     C56488   8.978   4.380   7.298 -0.2588 -0.4091 -0.6043
  419MOL0     O56489   9.090   4.332   7.359 -0.5976 -0.1541  0.3952
  419MOL0     C56490   9.207   4.420   7.364 -0.7734 -0.5144  0.0319
  419MOL0     C56491   9.330   4.338   7.415  0.8436 -0.1086  0.7213
  419MOL0     C56492   9.370   4.225   7.319  0.0638  0.5016  0.2064
  419MOL0     C56493   9.485   4.151   7.397 -0.2112  0.4670  0.1163
  419MOL0     C56494   9.556   4.063   7.307  0.0623  0.3848  0.1751
  419MOL0     C56495   9.630   4.013   7.229 -0.6393 -0.1209  0.7911
  419MOL0     C56496   8.876   4.287   7.305 -0.0841  0.1387  0.0920
  419MOL0     C56497   8.757   4.318   7.233  0.1345 -0.1200  0.7408
  419MOL0     H56498   8.619   4.483   6.738  1.6293  4.8289 -3.3316
  419MOL0     H56499   8.446   4.541   6.580  1.3116 -0.8109  0.3449
  419MOL0     H56500   8.116   4.551   6.755  1.7157  0.3116  0.6579
  419MOL0     H56501   8.041   4.693   6.674  2.3078  0.9127 -0.4963
  419MOL0     H56502   8.120   4.432   6.533 -1.2097 -1.5169 -3.2649
  419MOL0     H56503   7.958   4.484   6.568  0.0842 -0.2790  0.6358
  419MOL0     H56504   7.966   4.675   6.438  1.2063  0.8028  1.7514
  419MOL0     H56505   8.134   4.653   6.381  1.3573 -3.0219  1.3233
  419MOL0     H56506   8.071   4.449   6.260 -1.1361 -0.8344  0.8934
  419MOL0     H56507   7.905   4.459   6.323 -4.3849  3.9735 -1.9222
  419MOL0     H56508   8.040   4.609   6.097 -2.2332  2.6992 -1.5415
  419MOL0     H56509   7.895   4.513   6.111  0.1866 -1.4253  0.2660
  419MOL0     H56510   7.801   4.731   6.238 -0.6778  0.8380 -0.2043
  419MOL0     H56511   7.962   4.778   6.261  0.0282  0.4375 -0.4374
  419MOL0     H56512   7.847   4.910   6.060  1.9085  1.9560 -1.1172
  419MOL0     H56513   7.996   4.831   6.022 -0.1809  0.9906  1.8372
  419MOL0     H56514   7.716   4.701   5.973 -0.5003 -0.3268 -0.7377
  419MOL0     H56515   7.869   4.643   5.926  1.3587  0.4276  2.6899
  419MOL0     H56516   7.630   4.923   5.828  0.1230 -0.0569 -0.8600
  419MOL0     H56517   7.667   5.128   5.659  1.2175  0.6436 -0.2829
  419MOL0     H56518   7.770   5.086   5.512  2.2321  1.1927  2.3905
  419MOL0     H56519   7.495   4.990   5.593  0.5292 -0.3428  1.2408
  419MOL0     H56520   7.598   4.893   5.479 -2.1489  0.5644 -2.8892
  419MOL0     H56521   7.591   5.088   5.328  0.1518  0.6121 -0.2336
  419MOL0     H56522   7.515   5.184   5.446  2.9620  1.1678 -2.6093
  419MOL0     H56523   7.312   5.044   5.439  1.3794  4.0063  1.1858
  419MOL0     H56524   7.397   4.921   5.355  0.9824 -0.0043  2.5648
  419MOL0     H56525   7.341   5.175   4.989  3.5148 -1.4518  2.0018
  419MOL0     H56526   7.245   5.067   4.712 -0.3873 -0.5096  0.4487
  419MOL0     H56527   7.091   5.151   4.746  0.2803  0.2083  0.0027
  419MOL0     H56528   7.246   5.221   4.799  0.0932 -0.3284  1.4701
  419MOL0     H56529   6.818   5.070   4.641 -0.3222  0.5558  0.4668
  419MOL0     H56530   6.644   5.020   4.478  1.9377 -0.6990 -0.8461
  419MOL0     H56531   6.396   4.640   4.505 -1.8313 -0.2782 -0.1467
  419MOL0     H56532   6.305   4.761   4.589 -5.4680 -4.2578 -2.5600
  419MOL0     H56533   6.171   4.715   4.419 -0.5009  1.1702  0.0452
  419MOL0     H56534   6.259   4.849   4.339  1.3985 -0.0978 -0.7108
  419MOL0     H56535   6.325   4.558   4.305 -1.7860 -0.6721 -2.5560
  419MOL0     H56536   6.430   4.697   4.252 -0.0526  0.7662 -1.7031
  419MOL0     H56537   6.135   4.707   4.174 -0.1873  3.5998 -0.6863
  419MOL0     H56538   6.265   4.793   4.104  0.3219 -0.9595 -1.5656
  419MOL0     H56539   6.349   4.560   4.027  1.9940  1.2715  1.0156
  419MOL0     H56540   6.213   4.645   3.946 -0.3369 -0.3593  1.3250
  419MOL0     H56541   6.199   4.405   4.130  0.7419  0.3613  0.4432
  419MOL0     H56542   6.059   4.497   4.062 -0.6730  0.6212 -1.6828
  419MOL0     H56543   6.123   4.438   3.843  3.3684  2.0658  0.2706
  419MOL0     H56544   6.082   4.300   3.943  0.2510 -1.3162 -1.0139
  419MOL0     H56545   6.370   4.281   3.948 -0.5002 -0.7643 -0.8574
  419MOL0     H56546   6.367   4.417   3.853  1.3689  0.1585  1.2233
  419MOL0     H56547   6.513   4.692   4.695  1.4030 -0.4729 -1.3926
  419MOL0     H56548   6.681   4.745   4.879  0.1136 -0.0869 -0.2524
  419MOL0     H56549   7.031   4.808   5.096  0.6012 -0.0627  2.9659
  419MOL0     H56550   7.192   4.876   5.261  0.9878 -2.6109 -2.0316
  419MOL0     H56551   8.226   4.734   6.890 -0.6662 -1.3007 -0.0237
  419MOL0     H56552   8.401   4.693   7.046 -2.2088 -0.4082 -0.0643
  419MOL0     H56553   8.826   4.639   7.132  0.4601 -0.3487 -0.3480
  419MOL0     H56554   9.032   4.587   7.242 -0.4300  0.0924 -2.4679
  419MOL0     H56555   9.228   4.470   7.269  0.7326  0.7266  0.9789
  419MOL0     H56556   9.192   4.502   7.435  0.7367 -2.5208  2.9090
  419MOL0     H56557   9.302   4.296   7.511  1.6964  1.6151  1.7834
  419MOL0     H56558   9.406   4.416   7.421 -0.2897  1.1147 -0.0995
  419MOL0     H56559   9.407   4.255   7.220  1.1821  1.8026  0.9806
  419MOL0     H56560   9.281   4.168   7.292  1.6832 -3.1382  1.8784
  419MOL0     H56561   9.442   4.079   7.468 -0.4414 -0.5332 -1.0027
  419MOL0     H56562   9.548   4.221   7.453 -0.2879 -0.8070  1.8877
  419MOL0     H56563   9.690   3.977   7.148 -1.0657  1.7440 -0.4302
  419MOL0     H56564   8.888   4.189   7.351 -0.5050  0.1933  0.3197
  419MOL0     H56565   8.675   4.247   7.233 -0.6935  0.8146  0.9109
  420MOL0     O56566   5.527   9.631   5.526  0.0962  0.3175 -0.1820
  420MOL0     C56567   5.592   9.606   5.628  0.3852 -0.3082 -0.6103
  420MOL0     O56568   5.592   9.683   5.745 -0.0043 -0.3672 -0.1919
  420MOL0     C56569   5.497   9.782   5.758  0.6785 -0.2393  0.8979
  420MOL0     C56570   5.369   9.767   5.716 -0.0751  0.7160 -0.1262
  420MOL0     C56571   5.278   9.877   5.702  0.7333 -0.5423 -0.9384
  420MOL0     C56572   5.318  10.004   5.744  0.5124 -0.0209 -0.8471
  420MOL0     O56573   5.240  10.120   5.752  0.8282 -0.1240  0.3565
  420MOL0     C56574   5.096  10.098   5.755 -0.1356 -0.4796  0.3404
  420MOL0     C56575   5.025  10.235   5.766 -0.3615  0.4919 -0.1381
  420MOL0     C56576   4.876  10.222   5.798 -1.3928  0.0255  0.3683
  420MOL0     C56577   4.803  10.357   5.807  0.3470  0.1576 -0.3480
  420MOL0     C56578   4.657  10.343   5.767 -0.2874  0.3038 -0.0858
  420MOL0     C56579   4.635  10.316   5.612 -1.2946 -0.9939 -0.6836
  420MOL0     C56580   4.486  10.318   5.597  0.3857  0.6875  0.1343
  420MOL0     C56581   4.446  10.299   5.449 -0.8162 -0.1933  0.0652
  420MOL0     N56582   4.304  10.291   5.444  0.6507  0.0267 -0.3270
  420MOL0     C56583   4.227  10.181   5.496  0.3224 -0.6977  0.5001
  420MOL0     C56584   4.108  10.201   5.436 -0.4436  0.5599 -0.3483
  420MOL0     C56585   3.999  10.097   5.442 -0.0125  0.5044  0.2322
  420MOL0     C56586   3.907  10.140   5.552  1.0122  1.0740 -0.6570
  420MOL0     C56587   3.788  10.214   5.491 -0.3152  1.0905 -0.5397
  420MOL0     C56588   3.682  10.132   5.419 -0.3488 -0.3733  0.5131
  420MOL0     O56589   3.608  10.053   5.513 -0.6514 -0.1546  0.3805
  420MOL0     C56590   3.510   9.965   5.455 -0.0069 -0.5112 -0.8446
  420MOL0     C56591   3.523   9.833   5.494  0.8626 -0.1013  0.6734
  420MOL0     C56592   3.433   9.732   5.449  0.4288 -0.5999 -0.4469
  420MOL0     C56593   3.459   9.594   5.513 -0.0064 -1.1004  0.0043
  420MOL0     C56594   3.332   9.768   5.362  0.0120  0.4480  0.4100
  420MOL0     C56595   3.233   9.666   5.309 -0.7083 -0.7607  0.0428
  420MOL0     O56596   3.123   9.725   5.275 -0.1540  0.3147  0.2034
  420MOL0     C56597   3.004   9.659   5.243 -0.6263  0.2238  0.3043
  420MOL0     C56598   2.933   9.720   5.143 -0.2610 -0.1525  0.5062
  420MOL0     C56599   2.815   9.665   5.095  0.1148 -0.1090 -0.4227
  420MOL0     C56600   2.760   9.549   5.148 -0.1385 -0.0034 -0.7646
  420MOL0     O56601   2.647   9.500   5.094 -0.1212  0.4282  0.1647
  420MOL0     C56602   2.551   9.439   5.186 -0.0849 -0.0506  0.0606
  420MOL0     C56603   2.477   9.326   5.110  0.8662 -1.2461  0.4218
  420MOL0     C56604   2.358   9.269   5.186  0.1837  0.0536  0.1762
  420MOL0     C56605   2.260   9.206   5.083 -0.1255  0.0126  0.0129
  420MOL0     C56606   2.125   9.167   5.143  0.8352 -0.0017 -0.0913
  420MOL0     C56607   2.049   9.295   5.192  0.2183 -0.4444  0.7779
  420MOL0     C56608   1.947   9.268   5.307 -1.0592 -0.3649  0.1223
  420MOL0     C56609   1.858   9.386   5.340 -0.1240  0.6079 -0.9852
  420MOL0    Cl56610   1.758   9.437   5.202  0.2384  0.2779  0.1781
  420MOL0     C56611   2.831   9.480   5.247  0.6124 -0.0852 -0.6889
  420MOL0     C56612   2.956   9.536   5.291 -0.1241  0.7551  0.8041
  420MOL0     O56613   3.267   9.544   5.281  1.1683 -0.9167  0.4890
  420MOL0     C56614   3.318   9.908   5.322  0.2219  0.7261  0.0591
  420MOL0     C56615   3.407  10.005   5.362  0.2586  0.0788 -0.5024
  420MOL0     N56616   4.104  10.321   5.366 -0.2705 -0.2475  0.0159
  420MOL0     N56617   4.225  10.376   5.372 -0.3411 -0.4093  0.7713
  420MOL0     C56618   5.452  10.021   5.790  0.8605 -0.0293 -0.8229
  420MOL0     C56619   5.540   9.916   5.785  0.0559  0.0387  0.2759
  420MOL0     C56620   5.690   9.492   5.627  0.3142 -0.0666  0.2200
  420MOL0     C56621   5.724   9.432   5.502 -0.7085 -0.3763 -0.3384
  420MOL0     C56622   5.806   9.318   5.505 -1.0206  0.1684 -0.7317
  420MOL0     C56623   5.879   9.278   5.625  0.6727 -0.9043  0.2325
  420MOL0     O56624   5.977   9.191   5.595  0.3444  0.2697 -1.0167
  420MOL0     C56625   6.061   9.146   5.703 -0.2960  0.1194 -0.4085
  420MOL0     C56626   6.001   9.033   5.790 -0.4479  0.6277  0.1587
  420MOL0     C56627   6.093   8.973   5.896 -0.7104 -0.5758  0.2662
  420MOL0     C56628   6.236   8.930   5.850 -0.1388  0.1281  0.8209
  420MOL0     C56629   6.233   8.812   5.759 -0.1084 -0.3404  0.1630
  420MOL0     C56630   6.255   8.721   5.679  1.0169  0.4487 -0.1092
  420MOL0     C56631   5.849   9.345   5.747  0.1613 -0.6586 -0.5125
  420MOL0     C56632   5.755   9.450   5.749 -0.0418  0.1760 -0.1216
  420MOL0     H56633   5.327   9.668   5.700 -1.4333  1.2711 -0.1810
  420MOL0     H56634   5.175   9.851   5.677  0.7125  0.7303 -2.3060
  420MOL0     H56635   5.067  10.046   5.664  3.0928 -0.0911 -1.0599
  420MOL0     H56636   5.074  10.041   5.845  0.3132 -0.1989  0.6338
  420MOL0     H56637   5.074  10.290   5.847  2.2087  1.3101 -2.0790
  420MOL0     H56638   5.044  10.294   5.676 -2.6531  2.0993  0.3459
  420MOL0     H56639   4.831  10.160   5.720  0.7893  0.8690 -1.6970
  420MOL0     H56640   4.854  10.173   5.893 -1.0981 -2.3707 -0.7417
  420MOL0     H56641   4.813  10.401   5.906 -0.9051 -1.7436  0.6808
  420MOL0     H56642   4.853  10.415   5.729  2.1195 -1.0311 -0.1688
  420MOL0     H56643   4.596  10.272   5.824  0.8676 -1.8410 -1.4045
  420MOL0     H56644   4.606  10.435   5.798 -1.0908  0.0273 -0.5388
  420MOL0     H56645   4.686  10.395   5.555  1.5451 -1.1737  1.3766
  420MOL0     H56646   4.689  10.226   5.581 -1.8071 -1.8511  0.8252
  420MOL0     H56647   4.455  10.222   5.639 -0.6358 -0.0265 -2.0554
  420MOL0     H56648   4.444  10.408   5.643 -1.1365  1.0737 -1.8365
  420MOL0     H56649   4.495  10.213   5.402 -0.1675 -0.2697  0.8483
  420MOL0     H56650   4.486  10.389   5.402 -1.1209  1.0313  2.0030
  420MOL0     H56651   4.269  10.099   5.553  2.3294  0.3503  0.6029
  420MOL0     H56652   3.951  10.106   5.344  3.9767 -0.2425 -2.0293
  420MOL0     H56653   4.029   9.992   5.456 -1.6605 -0.1010 -0.4667
  420MOL0     H56654   3.956  10.202   5.628  2.4056 -1.3831  0.5624
  420MOL0     H56655   3.868  10.059   5.614 -1.0682  1.9856 -0.6789
  420MOL0     H56656   3.830  10.286   5.420 -0.2479  1.3700 -0.2169
  420MOL0     H56657   3.724  10.261   5.567 -2.0064 -1.9565  0.1015
  420MOL0     H56658   3.725  10.073   5.336 -2.5170 -0.9376 -0.2780
  420MOL0     H56659   3.616  10.200   5.365  0.9710  0.4379 -0.1133
  420MOL0     H56660   3.600   9.808   5.566 -0.1760  0.2990  1.9704
  420MOL0     H56661   3.523   9.598   5.601 -1.3522  2.1079  0.9694
  420MOL0     H56662   3.360   9.554   5.540 -1.5240  1.7015 -0.9625
  420MOL0     H56663   3.504   9.530   5.437 -1.1495 -0.2691 -1.4299
  420MOL0     H56664   2.970   9.812   5.099 -0.2585 -0.6080 -0.4662
  420MOL0     H56665   2.755   9.724   5.026  2.3605  0.9790 -1.5495
  420MOL0     H56666   2.589   9.413   5.285 -0.6530  0.6984  0.4873
  420MOL0     H56667   2.472   9.512   5.207  0.4781  0.8036 -0.6987
  420MOL0     H56668   2.447   9.361   5.011 -1.1887 -0.8115  1.1362
  420MOL0     H56669   2.543   9.240   5.094  0.4608 -1.2847 -1.1734
  420MOL0     H56670   2.312   9.346   5.248  1.2222 -0.5987  1.8189
  420MOL0     H56671   2.391   9.193   5.256  1.2865  2.1216  2.0038
  420MOL0     H56672   2.248   9.278   5.001  2.1972  2.0124  1.2757
  420MOL0     H56673   2.310   9.122   5.033  1.6644  1.9553 -1.6533
  420MOL0     H56674   2.141   9.109   5.234  4.4701  1.0839  0.1266
  420MOL0     H56675   2.059   9.123   5.068 -0.6329  1.4765  0.2711
  420MOL0     H56676   2.119   9.360   5.245  0.8090 -1.1647  0.8878
  420MOL0     H56677   2.003   9.357   5.114 -2.2743 -1.6166  1.1884
  420MOL0     H56678   2.003   9.247   5.398  0.3970  1.3726 -0.3225
  420MOL0     H56679   1.881   9.187   5.274 -0.5178 -0.8211  0.1380
  420MOL0     H56680   1.910   9.478   5.367  0.1171 -0.3584  2.2113
  420MOL0     H56681   1.800   9.360   5.429  2.0567  0.9296  0.6208
  420MOL0     H56682   2.811   9.380   5.284  0.9093 -0.0640 -0.4638
  420MOL0     H56683   3.019   9.481   5.361  1.0480  1.7807  0.5966
  420MOL0     H56684   3.243   9.929   5.246 -0.8762 -0.5504  0.7436
  420MOL0     H56685   3.391  10.108   5.333  0.3770  0.1485 -0.3237
  420MOL0     H56686   5.487  10.116   5.828 -0.1076 -0.0650  0.2312
  420MOL0     H56687   5.644   9.936   5.809  0.7647  2.6324 -3.9262
  420MOL0     H56688   5.688   9.465   5.405  1.4194 -0.4687 -1.2238
  420MOL0     H56689   5.825   9.273   5.408 -0.8903 -1.3862 -0.0150
  420MOL0     H56690   6.150   9.105   5.655 -1.4550 -0.9279 -1.7371
  420MOL0     H56691   6.093   9.224   5.772  1.3813 -1.2924  0.4746
  420MOL0     H56692   5.980   8.948   5.725  0.1461 -2.0953  3.2505
  420MOL0     H56693   5.915   9.070   5.846 -0.0945  2.6528 -0.5636
  420MOL0     H56694   6.034   8.903   5.956 -3.0365  2.4284  1.8025
  420MOL0     H56695   6.127   9.042   5.974 -1.0643  1.5554 -1.3731
  420MOL0     H56696   6.301   8.903   5.934  2.6806  0.3314 -1.1228
  420MOL0     H56697   6.296   9.014   5.814  1.7583 -0.3402  2.6981
  420MOL0     H56698   6.254   8.641   5.608 -2.4586 -0.2978  0.6349
  420MOL0     H56699   5.890   9.312   5.842  0.4536 -0.0698 -0.4334
  420MOL0     H56700   5.727   9.498   5.842  0.5892 -0.1421  0.2374
  421MOL0     O56701   2.851   8.879   6.903  0.0684  0.4122  0.4659
  421MOL0     C56702   2.891   8.804   6.814 -0.0917 -0.6602 -0.0126
  421MOL0     O56703   2.822   8.759   6.703  0.1372 -0.2334  0.0873
  421MOL0     C56704   2.697   8.802   6.677  0.6250  0.0410 -0.3661
  421MOL0     C56705   2.655   8.935   6.683  0.4666 -0.7247 -0.0550
  421MOL0     C56706   2.521   8.973   6.641  0.1363  0.1201  0.2551
  421MOL0     C56707   2.438   8.862   6.599  0.3610 -0.8810  1.2245
  421MOL0     O56708   2.318   8.868   6.532  0.3149 -0.2430 -0.0394
  421MOL0     C56709   2.249   8.989   6.576  0.4576  0.2507  0.3594
  421MOL0     C56710   2.118   8.986   6.506  0.1302  1.1596 -0.8240
  421MOL0     C56711   2.037   8.861   6.505 -0.3341 -0.1827  0.6478
  421MOL0     C56712   2.028   8.809   6.649  0.3676 -0.7976 -0.2339
  421MOL0     C56713   1.911   8.703   6.640  0.4120 -0.2260 -0.0171
  421MOL0     C56714   1.873   8.651   6.782 -0.1855  0.1715 -0.0045
  421MOL0     C56715   1.733   8.598   6.788 -0.3201  0.0992 -1.0044
  421MOL0     C56716   1.699   8.479   6.689 -0.2887 -1.1994  0.1503
  421MOL0     N56717   1.758   8.349   6.725 -0.5585 -0.3510  0.0857
  421MOL0     C56718   1.809   8.301   6.844 -1.3078 -0.3601  0.5101
  421MOL0     C56719   1.874   8.187   6.806 -0.2418  0.4227 -0.5694
  421MOL0     C56720   1.948   8.093   6.901 -0.1510 -0.0302 -0.8504
  421MOL0     C56721   2.074   8.168   6.947 -0.3050  0.4672 -0.3978
  421MOL0     C56722   2.175   8.091   7.028  0.4749  0.3523 -0.2998
  421MOL0     C56723   2.307   8.162   7.050 -0.1970 -0.6306  0.0169
  421MOL0     O56724   2.392   8.079   7.128 -0.7955  0.6881 -0.4147
  421MOL0     C56725   2.528   8.091   7.112 -0.0761 -0.0514  0.6748
  421MOL0     C56726   2.596   7.993   7.038  1.3929  0.0502  0.3265
  421MOL0     C56727   2.734   7.982   7.046  0.0519  0.2841 -0.7666
  421MOL0     C56728   2.793   7.864   6.967 -0.1494 -0.0563 -0.3481
  421MOL0     C56729   2.817   8.073   7.123  0.5655  0.1968 -0.2444
  421MOL0     C56730   2.968   8.057   7.145 -0.2765  0.1075  1.0782
  421MOL0     O56731   3.044   7.974   7.059 -0.7427 -0.3431  0.9736
  421MOL0     C56732   3.180   7.986   7.045  0.3152  0.3824 -0.7955
  421MOL0     C56733   3.252   7.874   7.068  0.6083  0.7608 -0.5912
  421MOL0     C56734   3.392   7.875   7.060 -0.3189  0.3711 -0.9188
  421MOL0     C56735   3.463   7.991   7.042  0.2874 -0.4997  0.9432
  421MOL0     O56736   3.597   8.001   7.039 -0.1220  0.5818 -0.4621
  421MOL0     C56737   3.661   8.133   7.063 -0.3279  0.0238 -0.2496
  421MOL0     C56738   3.814   8.123   7.069 -0.2605 -0.4494  0.1342
  421MOL0     C56739   3.863   8.028   7.179 -0.5234  0.0807 -0.5558
  421MOL0     C56740   4.017   8.007   7.177 -0.9677  0.2130 -0.1660
  421MOL0     C56741   4.059   7.946   7.309  0.4444  0.4220  0.3604
  421MOL0     C56742   4.209   7.901   7.311  0.0483  0.2632 -0.2427
  421MOL0     C56743   4.270   7.851   7.447  0.3985  0.1124  0.0854
  421MOL0     C56744   4.423   7.840   7.437  0.2890 -0.0472 -0.1617
  421MOL0    Cl56745   4.487   7.776   7.282 -0.0943 -0.2598 -0.4094
  421MOL0     C56746   3.384   8.100   7.008 -0.6043 -0.0154  0.0362
  421MOL0     C56747   3.243   8.104   7.015  0.5909 -0.3553 -0.3132
  421MOL0     O56748   3.021   8.145   7.215  0.1152 -0.4939 -0.2543
  421MOL0     C56749   2.747   8.178   7.191 -0.5700  0.4284  0.0380
  421MOL0     C56750   2.609   8.188   7.184 -0.3428  0.0341 -0.7851
  421MOL0     N56751   1.855   8.161   6.671  0.2559 -0.5990 -0.3611
  421MOL0     N56752   1.782   8.256   6.625 -0.2716  0.2519 -0.0759
  421MOL0     C56753   2.471   8.731   6.611  0.0585  0.4135 -0.2451
  421MOL0     C56754   2.602   8.698   6.643  0.0781  1.3377  0.0068
  421MOL0     C56755   3.027   8.751   6.838 -0.5807  0.0137  0.2028
  421MOL0     C56756   3.094   8.787   6.958 -0.0997 -0.0161  0.3235
  421MOL0     C56757   3.215   8.729   6.983  0.5643 -0.3584 -0.1548
  421MOL0     C56758   3.285   8.651   6.879 -0.3264  0.6907 -0.0986
  421MOL0     O56759   3.412   8.593   6.895  0.3689 -0.2422 -0.3207
  421MOL0     C56760   3.468   8.611   7.032 -0.0447 -0.4348 -0.1319
  421MOL0     C56761   3.605   8.540   7.040  0.1711 -0.0021 -0.2501
  421MOL0     C56762   3.701   8.619   6.947  0.5741 -0.6961 -0.3518
  421MOL0     C56763   3.841   8.587   6.983  0.1644  0.2276 -0.2593
  421MOL0     C56764   3.932   8.665   6.904  0.1621 -0.6305  0.7345
  421MOL0     C56765   4.003   8.714   6.820 -0.4152 -0.4153  0.9152
  421MOL0     C56766   3.219   8.635   6.752  0.1785 -0.9281 -0.4210
  421MOL0     C56767   3.093   8.686   6.732 -0.4011  0.0564  0.2903
  421MOL0     H56768   2.725   9.017   6.697 -2.2733  2.0476 -1.3073
  421MOL0     H56769   2.475   9.070   6.657 -0.6361 -0.2631  0.3991
  421MOL0     H56770   2.235   8.996   6.685 -0.1301  0.0908  0.2941
  421MOL0     H56771   2.300   9.078   6.536 -2.3573  1.1192 -1.6187
  421MOL0     H56772   2.067   9.061   6.567 -1.9200  0.1315 -1.1756
  421MOL0     H56773   2.136   9.033   6.409  5.3550  1.2981 -0.0640
  421MOL0     H56774   1.937   8.883   6.466  0.4016  1.2920 -0.4962
  421MOL0     H56775   2.080   8.784   6.440  0.6497 -0.1021  1.1817
  421MOL0     H56776   2.121   8.762   6.682  0.4049 -0.9601 -0.5612
  421MOL0     H56777   2.016   8.886   6.725  1.8166  1.6005 -2.2938
  421MOL0     H56778   1.819   8.740   6.595 -0.3911 -0.0959  1.6657
  421MOL0     H56779   1.945   8.623   6.573  1.1495  0.8761 -0.9874
  421MOL0     H56780   1.944   8.572   6.809  0.0872  1.3617  3.1788
  421MOL0     H56781   1.894   8.730   6.854  1.1387  1.5605 -1.8108
  421MOL0     H56782   1.706   8.564   6.888 -2.9709  0.8561 -1.3885
  421MOL0     H56783   1.657   8.675   6.771 -0.3939  1.3238  3.6755
  421MOL0     H56784   1.736   8.508   6.590  0.8554 -0.7812  0.6805
  421MOL0     H56785   1.592   8.459   6.684 -0.8066  0.8848  1.3068
  421MOL0     H56786   1.797   8.351   6.940 -0.6955  1.3596 -0.2791
  421MOL0     H56787   1.891   8.059   6.988  0.3339 -2.6060 -1.4536
  421MOL0     H56788   1.986   8.005   6.848  1.0327  0.5810 -1.0439
  421MOL0     H56789   2.047   8.260   6.999  2.3481  2.8255 -2.8257
  421MOL0     H56790   2.117   8.205   6.853 -3.6383  0.5927 -2.0303
  421MOL0     H56791   2.193   7.995   6.981 -0.4391  0.0751 -0.0852
  421MOL0     H56792   2.128   8.070   7.125 -1.4676  0.6768 -1.1465
  421MOL0     H56793   2.285   8.262   7.087 -1.3810 -1.0715  0.5527
  421MOL0     H56794   2.364   8.161   6.957  1.1638 -0.2595  0.8078
  421MOL0     H56795   2.532   7.922   6.986  0.6051  0.3806  0.8321
  421MOL0     H56796   2.873   7.888   6.896  0.3269 -4.8958 -1.8115
  421MOL0     H56797   2.845   7.795   7.034  5.0188  1.6830 -2.0470
  421MOL0     H56798   2.718   7.820   6.900 -1.6477 -0.1636  1.3359
  421MOL0     H56799   3.189   7.787   7.082 -1.1727  2.1206  0.1110
  421MOL0     H56800   3.443   7.780   7.075 -2.9953 -0.9895  0.3685
  421MOL0     H56801   3.629   8.214   6.997 -1.4623  3.3116  3.9164
  421MOL0     H56802   3.617   8.162   7.159 -1.5692  0.3456 -0.9028
  421MOL0     H56803   3.854   8.088   6.974  2.6569 -1.5841  1.6704
  421MOL0     H56804   3.852   8.224   7.089  1.9028 -1.0563 -0.6679
  421MOL0     H56805   3.822   7.929   7.159 -0.6715 -0.3098  1.4398
  421MOL0     H56806   3.828   8.069   7.274  2.4245  1.8103 -0.0755
  421MOL0     H56807   4.062   7.950   7.095  0.6442 -2.8754  2.6419
  421MOL0     H56808   4.055   8.109   7.171 -1.6873  0.4762 -0.3813
  421MOL0     H56809   3.997   7.861   7.339 -0.5657  0.5509 -1.2083
  421MOL0     H56810   4.055   8.021   7.388 -0.2112 -1.3679  2.1059
  421MOL0     H56811   4.212   7.814   7.244 -0.7735  0.6143 -0.7488
  421MOL0     H56812   4.274   7.983   7.278  1.6503 -0.7816  0.1729
  421MOL0     H56813   4.239   7.749   7.471  2.8076  0.0588  3.9162
  421MOL0     H56814   4.242   7.926   7.522  2.5828  0.1746  0.9196
  421MOL0     H56815   4.464   7.777   7.516  0.5176 -0.6449 -0.7396
  421MOL0     H56816   4.465   7.939   7.452 -0.0681  0.1783 -0.6183
  421MOL0     H56817   3.434   8.184   6.961  0.0344  0.4656  1.5048
  421MOL0     H56818   3.196   8.195   6.979  2.1440  0.5038 -0.2605
  421MOL0     H56819   2.799   8.250   7.254 -0.6950  0.6092 -0.0663
  421MOL0     H56820   2.548   8.267   7.226  2.0010  2.1158 -1.0914
  421MOL0     H56821   2.398   8.656   6.582 -1.2829  1.9504 -1.0333
  421MOL0     H56822   2.631   8.593   6.640  1.1607  1.6386 -1.0203
  421MOL0     H56823   3.046   8.838   7.041  0.6908 -0.6095  1.1688
  421MOL0     H56824   3.263   8.755   7.076 -1.6130  3.2435  0.1218
  421MOL0     H56825   3.483   8.717   7.056  2.7288 -0.9724  0.7871
  421MOL0     H56826   3.404   8.565   7.108 -1.6140 -2.3066 -2.4413
  421MOL0     H56827   3.587   8.438   7.003  0.9031 -0.0358 -0.5245
  421MOL0     H56828   3.637   8.544   7.144 -1.1699 -3.3516  0.4192
  421MOL0     H56829   3.689   8.727   6.953 -0.8174 -0.8428 -0.3084
  421MOL0     H56830   3.693   8.588   6.842  3.1215 -0.0155 -0.8036
  421MOL0     H56831   3.858   8.479   6.984 -1.4100 -0.0979 -2.1865
  421MOL0     H56832   3.857   8.613   7.088 -2.9538 -1.1642  0.6906
  421MOL0     H56833   4.067   8.755   6.745 -1.7422 -0.2827 -0.1821
  421MOL0     H56834   3.267   8.593   6.664  0.6509  0.5332 -0.9050
  421MOL0     H56835   3.040   8.676   6.638  0.6305 -0.0376 -0.2953
  422MOL0     O56836   1.990   9.454  11.221 -0.2748 -0.3436 -0.1580
  422MOL0     C56837   2.013   9.377  11.308 -0.7643  0.6570  0.0174
  422MOL0     O56838   1.921   9.334  11.404 -0.4566 -0.5471  0.6152
  422MOL0     C56839   1.789   9.373  11.387 -0.3786  0.6670 -0.2025
  422MOL0     C56840   1.742   9.507  11.366  0.0336  0.1812  0.1359
  422MOL0     C56841   1.609   9.537  11.362  0.2435 -0.4873 -0.0756
  422MOL0     C56842   1.515   9.436  11.370  0.4044  0.7262  0.0989
  422MOL0     O56843   1.381   9.464  11.375 -0.9144  0.4993  0.0180
  422MOL0     C56844   1.323   9.578  11.307  0.7272 -0.0173 -0.1845
  422MOL0     C56845   1.253   9.689  11.400 -0.0417  0.4415  0.4549
  422MOL0     C56846   1.121   9.630  11.444 -0.6122  0.4005  0.3904
  422MOL0     C56847   1.007   9.723  11.496 -0.2044 -0.1874  0.2337
  422MOL0     C56848   0.867   9.661  11.525  0.2168 -0.5554 -0.1060
  422MOL0     C56849   0.826   9.712  11.663  0.9700 -0.0221  0.2931
  422MOL0     C56850   0.678   9.685  11.669 -0.2834  0.2368 -0.0213
  422MOL0     C56851   0.622   9.687  11.812  0.6126  0.0788 -0.3083
  422MOL0     N56852   0.486   9.634  11.825  0.8074  0.5443 -0.6122
  422MOL0     C56853   0.442   9.523  11.899 -0.7607  0.5635  0.6928
  422MOL0     C56854   0.305   9.522  11.891 -0.3676 -0.1384 -0.1309
  422MOL0     C56855   0.224   9.424  11.959 -0.0922  0.3438 -0.5973
  422MOL0     C56856   0.133   9.349  11.866  1.1859  0.1769 -0.1320
  422MOL0     C56857   0.190   9.249  11.769 -0.6837 -0.5603 -0.3150
  422MOL0     C56858   0.102   9.210  11.657 -0.9804  0.1205 -0.3936
  422MOL0     O56859  -0.010   9.161  11.719  0.1031  0.9779 -0.0627
  422MOL0     C56860  -0.124   9.125  11.641 -0.3669 -0.6686  0.1406
  422MOL0     C56861  -0.227   9.067  11.705  0.3515  1.1347 -0.3317
  422MOL0     C56862  -0.335   9.019  11.630 -0.0477  0.0352  0.5081
  422MOL0     C56863  -0.431   8.949  11.706 -0.4426 -0.4071 -1.0959
  422MOL0     C56864  -0.341   9.033  11.485 -0.4615  0.0671 -0.6554
  422MOL0     C56865  -0.464   8.997  11.411  0.4905  0.9201 -0.8319
  422MOL0     O56866  -0.586   9.007  11.478  0.4412  0.6906 -0.2150
  422MOL0     C56867  -0.711   8.986  11.424 -1.1200 -0.1560 -0.2372
  422MOL0     C56868  -0.818   9.005  11.513 -0.7333  0.5430  0.3510
  422MOL0     C56869  -0.953   8.983  11.479 -0.9012  0.3925  0.3588
  422MOL0     C56870  -0.990   8.968  11.344 -0.4413  0.1968 -0.7886
  422MOL0     O56871  -1.124   8.967  11.316  0.2439 -0.2829 -0.2180
  422MOL0     C56872  -1.157   8.972  11.177 -1.3906 -0.0583  0.0964
  422MOL0     C56873  -1.309   9.008  11.164 -0.4162 -0.0243  0.5717
  422MOL0     C56874  -1.346   9.056  11.022 -0.3735  0.6639 -0.4827
  422MOL0     C56875  -1.496   9.035  11.006 -0.1182  0.8692 -0.3437
  422MOL0     C56876  -1.546   9.042  10.865  0.3010  0.8498 -0.2125
  422MOL0     C56877  -1.608   9.178  10.823 -0.3836 -0.3217 -0.7871
  422MOL0     C56878  -1.716   9.245  10.914 -0.5153 -0.1488  0.0425
  422MOL0     C56879  -1.853   9.242  10.846 -0.2478  0.4118  0.4220
  422MOL0    Cl56880  -1.977   9.348  10.920 -0.0189  0.3604  0.0350
  422MOL0     C56881  -0.882   8.952  11.252  0.9737 -0.2033  0.6440
  422MOL0     C56882  -0.744   8.958  11.295  0.5939 -0.4893  0.0252
  422MOL0     O56883  -0.449   8.945  11.300  0.5090  0.1997  0.0550
  422MOL0     C56884  -0.236   9.094  11.425 -0.2241 -0.2519  1.2786
  422MOL0     C56885  -0.124   9.131  11.504  0.2184  0.3312 -0.0957
  422MOL0     N56886   0.264   9.640  11.832 -0.5829 -0.1344 -0.3921
  422MOL0     N56887   0.374   9.704  11.789  0.3230  0.2175 -0.3434
  422MOL0     C56888   1.557   9.301  11.388 -0.3698 -0.3307 -0.0402
  422MOL0     C56889   1.689   9.280  11.393  0.2156  0.0743  0.3350
  422MOL0     C56890   2.156   9.335  11.332 -0.6033  0.5297 -0.1920
  422MOL0     C56891   2.187   9.211  11.397  0.6868  0.4495  0.8360
  422MOL0     C56892   2.319   9.172  11.435  0.0423 -0.1916 -0.7031
  422MOL0     C56893   2.423   9.262  11.406 -0.3157  0.1204  0.6362
  422MOL0     O56894   2.545   9.211  11.440  0.0009 -0.6633  0.3625
  422MOL0     C56895   2.654   9.308  11.446 -0.1335 -0.2425 -0.0141
  422MOL0     C56896   2.754   9.313  11.330  0.0143  0.1014 -0.1588
  422MOL0     C56897   2.819   9.450  11.311 -0.4930 -0.5855 -0.3464
  422MOL0     C56898   2.880   9.472  11.169 -0.1327  0.5964 -0.0456
  422MOL0     C56899   3.007   9.400  11.152  0.4991  0.3028  0.9430
  422MOL0     C56900   3.112   9.354  11.127  0.2506  0.5759  0.7126
  422MOL0     C56901   2.392   9.382  11.345  1.0263 -0.2633 -0.4500
  422MOL0     C56902   2.260   9.418  11.318  0.0346  0.1141 -0.3990
  422MOL0     H56903   1.816   9.586  11.360 -1.1836  1.4322  0.9036
  422MOL0     H56904   1.581   9.642  11.361  1.3090 -0.0771  2.6402
  422MOL0     H56905   1.400   9.624  11.244 -0.1339 -2.6985 -3.4964
  422MOL0     H56906   1.244   9.530  11.248  0.9714 -0.0974 -0.4505
  422MOL0     H56907   1.320   9.718  11.482 -1.4437  0.9325  1.4597
  422MOL0     H56908   1.235   9.782  11.345  2.1943  0.8585  0.3071
  422MOL0     H56909   1.074   9.567  11.367  0.8693 -0.3282  0.0436
  422MOL0     H56910   1.147   9.553  11.517  0.9843  0.1024 -0.4459
  422MOL0     H56911   1.046   9.771  11.587 -0.4612 -0.1796  0.3423
  422MOL0     H56912   0.992   9.804  11.424  2.7590  0.1327 -0.1542
  422MOL0     H56913   0.792   9.705  11.459  1.9262  0.3169 -1.5605
  422MOL0     H56914   0.863   9.552  11.512 -0.4106 -0.3657 -1.7250
  422MOL0     H56915   0.873   9.646  11.736 -1.8468 -1.0238  1.3542
  422MOL0     H56916   0.852   9.817  11.678  2.5767 -0.3409 -0.1287
  422MOL0     H56917   0.625   9.755  11.604  2.9564  1.3827 -1.6707
  422MOL0     H56918   0.666   9.586  11.623  0.6595 -0.8107  1.8537
  422MOL0     H56919   0.629   9.789  11.850 -0.2837 -0.0522  0.2266
  422MOL0     H56920   0.675   9.619  11.880 -0.6228 -1.3770 -0.7300
  422MOL0     H56921   0.499   9.440  11.940 -0.6154 -0.1444 -0.8391
  422MOL0     H56922   0.289   9.360  12.020 -1.2059  1.5485  2.0397
  422MOL0     H56923   0.166   9.469  12.041  0.8485  0.4754  0.0196
  422MOL0     H56924   0.071   9.424  11.817  0.5097  0.1167  0.6128
  422MOL0     H56925   0.065   9.301  11.937 -1.1366  1.1474 -1.6235
  422MOL0     H56926   0.228   9.164  11.827  1.5596 -0.1038 -1.0071
  422MOL0     H56927   0.285   9.287  11.730 -0.5750 -1.4495 -0.9325
  422MOL0     H56928   0.145   9.139  11.586 -2.1138  2.0212 -3.1576
  422MOL0     H56929   0.081   9.301  11.599 -5.0538  0.8799  1.8811
  422MOL0     H56930  -0.225   9.042  11.810  0.0961  0.0891 -0.5650
  422MOL0     H56931  -0.392   8.915  11.802 -1.3346  1.0653 -0.1674
  422MOL0     H56932  -0.507   9.018  11.744  1.9694  0.0950  3.5721
  422MOL0     H56933  -0.481   8.870  11.650  0.4662 -1.3482 -0.6159
  422MOL0     H56934  -0.785   9.029  11.614  1.3820  1.0415 -0.4232
  422MOL0     H56935  -1.026   9.008  11.555 -1.3038  2.5799 -0.6657
  422MOL0     H56936  -1.101   9.051  11.127 -0.8234  0.6705  1.8133
  422MOL0     H56937  -1.139   8.876  11.127 -0.9308  0.4099 -0.6446
  422MOL0     H56938  -1.360   8.920  11.206 -0.7474  2.2669  5.7551
  422MOL0     H56939  -1.325   9.096  11.227 -0.1501  0.1817  0.3523
  422MOL0     H56940  -1.297   8.995  10.945  1.1525  3.1791 -1.6574
  422MOL0     H56941  -1.320   9.162  11.013 -2.4212  1.3828  1.2945
  422MOL0     H56942  -1.519   8.932  11.032  0.1365  0.5602 -1.2931
  422MOL0     H56943  -1.559   9.103  11.065 -1.8539  0.4741 -1.6392
  422MOL0     H56944  -1.631   8.973  10.863 -1.3653  2.8344 -0.4190
  422MOL0     H56945  -1.470   9.001  10.797 -2.6425 -4.9599 -0.6553
  422MOL0     H56946  -1.533   9.255  10.803  0.5410  0.3925  4.0415
  422MOL0     H56947  -1.658   9.150  10.730 -0.0584 -1.3898 -0.6538
  422MOL0     H56948  -1.680   9.347  10.932 -0.4394 -0.3059  0.8344
  422MOL0     H56949  -1.729   9.190  11.008  1.1388  2.1650  1.7500
  422MOL0     H56950  -1.886   9.139  10.836 -0.5021  0.5016  0.3218
  422MOL0     H56951  -1.822   9.282  10.749  2.0627  1.3231  1.4425
  422MOL0     H56952  -0.901   8.904  11.156 -0.7068 -3.0110  2.2467
  422MOL0     H56953  -0.672   8.922  11.222  0.7714  1.1477 -0.6717
  422MOL0     H56954  -0.236   9.123  11.320  0.0536  1.4214  1.7145
  422MOL0     H56955  -0.039   9.186  11.464  1.7370 -1.4059  0.5644
  422MOL0     H56956   1.476   9.229  11.400 -0.9876  0.4585  0.5659
  422MOL0     H56957   1.718   9.178  11.415  0.1297  0.2137  1.1082
  422MOL0     H56958   2.107   9.143  11.423  0.1991  0.2572 -1.0854
  422MOL0     H56959   2.334   9.081  11.493  0.6445 -0.4420 -1.2441
  422MOL0     H56960   2.621   9.409  11.470 -3.4734 -1.4726  0.9865
  422MOL0     H56961   2.716   9.279  11.531  0.4885 -0.2738 -0.4649
  422MOL0     H56962   2.695   9.285  11.242 -1.4780  0.1994  0.7737
  422MOL0     H56963   2.830   9.236  11.345  0.8343  1.1826  1.6229
  422MOL0     H56964   2.901   9.457  11.383  0.6227 -0.3506 -1.6031
  422MOL0     H56965   2.743   9.525  11.334 -1.1871 -1.7581  1.4760
  422MOL0     H56966   2.908   9.576  11.152  0.9637  0.2008 -0.7783
  422MOL0     H56967   2.814   9.452  11.085  0.3751  1.8765 -0.7821
  422MOL0     H56968   3.210   9.318  11.103 -0.2145  0.7545 -1.7310
  422MOL0     H56969   2.463   9.457  11.314  1.5770 -0.0222  1.3181
  422MOL0     H56970   2.240   9.520  11.287 -1.8033  0.1129  0.6380
  423MOL0     O56971   1.045   9.912   5.942 -0.6247 -0.3741 -0.3837
  423MOL0     C56972   1.039   9.887   6.062  0.5890 -0.0451  1.0082
  423MOL0     O56973   0.921   9.863   6.127  0.5899  0.2564  0.1704
  423MOL0     C56974   0.802   9.867   6.054  0.2640  0.5037  0.0208
  423MOL0     C56975   0.706   9.960   6.094  0.2208 -0.9433  0.4547
  423MOL0     C56976   0.579   9.970   6.039 -0.2444 -0.3477 -0.0684
  423MOL0     C56977   0.544   9.883   5.933  1.1512  0.8946 -0.8190
  423MOL0     O56978   0.424   9.873   5.874  0.8085 -0.0776  0.4656
  423MOL0     C56979   0.331   9.984   5.891 -0.4205  0.6484 -0.1627
  423MOL0     C56980   0.221   9.985   5.784  0.0115  0.5610  0.3673
  423MOL0     C56981   0.152   9.851   5.738  0.1889 -0.1341  0.1695
  423MOL0     C56982   0.068   9.872   5.613  0.3946  0.0389 -0.5168
  423MOL0     C56983  -0.031   9.991   5.619 -0.2078 -0.6893 -0.1966
  423MOL0     C56984  -0.106   9.976   5.488 -0.1913  1.0079  0.0733
  423MOL0     C56985  -0.194  10.097   5.466  0.2204  0.0608 -0.4556
  423MOL0     C56986  -0.310  10.123   5.562 -0.7920 -0.9156 -0.2606
  423MOL0     N56987  -0.409  10.023   5.543  0.2647  0.1003  0.0074
  423MOL0     C56988  -0.504  10.010   5.436 -0.1147 -1.0669  0.4377
  423MOL0     C56989  -0.557   9.886   5.456  0.6079 -1.0902 -0.0078
  423MOL0     C56990  -0.675   9.828   5.386 -0.2124 -0.0892 -0.6241
  423MOL0     C56991  -0.802   9.915   5.372  0.9336 -0.2241  0.2561
  423MOL0     C56992  -0.885   9.844   5.262  0.9022  0.3662  1.0321
  423MOL0     C56993  -1.006   9.916   5.221  0.0324 -0.0486 -0.4594
  423MOL0     O56994  -0.975  10.032   5.145 -0.7758  0.5041  0.5954
  423MOL0     C56995  -1.081  10.103   5.092  0.2122  0.5374 -0.0241
  423MOL0     C56996  -1.054  10.225   5.035  1.0095  0.2090 -0.6217
  423MOL0     C56997  -1.150  10.301   4.973  0.9959  0.7851 -0.5481
  423MOL0     C56998  -1.084  10.414   4.904 -0.1942 -0.7498  0.1657
  423MOL0     C56999  -1.284  10.243   4.960  0.0319  0.5212 -0.1709
  423MOL0     C57000  -1.400  10.301   4.891 -0.2212  0.0246  0.0257
  423MOL0     O57001  -1.515  10.230   4.898 -0.8378  0.1199  0.1641
  423MOL0     C57002  -1.632  10.293   4.866 -0.2167  0.2986  0.1628
  423MOL0     C57003  -1.674  10.336   4.734  0.0043  0.3434  0.4610
  423MOL0     C57004  -1.799  10.390   4.717 -0.8491  0.2280  0.4929
  423MOL0     C57005  -1.882  10.413   4.828 -0.1281 -0.0668 -0.4211
  423MOL0     O57006  -2.002  10.466   4.792 -0.4558 -0.0744  0.0982
  423MOL0     C57007  -2.097  10.473   4.900 -1.1792 -0.6884  0.8539
  423MOL0     C57008  -2.243  10.521   4.871 -0.3497 -0.5056 -0.0787
  423MOL0     C57009  -2.300  10.483   4.728 -0.3074 -0.2004  0.0215
  423MOL0     C57010  -2.450  10.508   4.732  0.1726 -0.3948  0.0437
  423MOL0     C57011  -2.536  10.468   4.606  0.3263 -0.6117 -0.0724
  423MOL0     C57012  -2.690  10.490   4.645 -0.0039 -0.7119  0.1366
  423MOL0     C57013  -2.786  10.432   4.539  0.2130  0.0396  0.4529
  423MOL0     C57014  -2.930  10.446   4.575  0.1857  0.1626  1.0839
  423MOL0    Cl57015  -2.977  10.609   4.621 -0.2913 -0.4789 -0.0236
  423MOL0     C57016  -1.833  10.393   4.958  0.0381  0.1797  0.5421
  423MOL0     C57017  -1.706  10.336   4.972 -0.4071  0.5545 -0.3756
  423MOL0     O57018  -1.381  10.402   4.829  0.6729 -0.2361 -0.1115
  423MOL0     C57019  -1.309  10.121   5.022 -0.5799 -0.6580 -0.4909
  423MOL0     C57020  -1.213  10.054   5.086 -0.7957  0.3192 -1.1296
  423MOL0     N57021  -0.501   9.833   5.571 -0.4048 -0.1137 -0.2913
  423MOL0     N57022  -0.409   9.906   5.613 -0.1078 -0.4190  0.0346
  423MOL0     C57023   0.639   9.791   5.888 -0.5811  0.3657  0.1960
  423MOL0     C57024   0.772   9.785   5.941 -0.1463  0.0410 -0.1131
  423MOL0     C57025   1.158   9.873   6.136  0.2481 -0.0316 -0.2767
  423MOL0     C57026   1.166   9.816   6.262  1.0204 -0.2458 -0.3092
  423MOL0     C57027   1.285   9.813   6.337  0.3034 -0.8088 -0.0897
  423MOL0     C57028   1.395   9.869   6.283 -0.3151 -0.3277  0.0307
  423MOL0     O57029   1.512   9.848   6.351 -0.4481  0.1118 -0.0010
  423MOL0     C57030   1.585   9.731   6.316 -0.2371 -0.2838 -0.0401
  423MOL0     C57031   1.733   9.768   6.312 -0.9144 -0.6284  0.0972
  423MOL0     C57032   1.817   9.673   6.212 -0.7084  0.2119 -1.0212
  423MOL0     C57033   1.812   9.524   6.251  0.0748  0.5946  0.3510
  423MOL0     C57034   1.702   9.459   6.170 -0.4692 -0.4256 -0.8313
  423MOL0     C57035   1.640   9.378   6.107  0.3685  0.4975 -0.0898
  423MOL0     C57036   1.393   9.927   6.152 -1.4066  0.5879 -0.5235
  423MOL0     C57037   1.279   9.922   6.083 -0.1644 -0.2495 -0.9129
  423MOL0     H57038   0.724  10.023   6.180 -1.9582  0.0262  0.2499
  423MOL0     H57039   0.518  10.053   6.072 -1.8033 -1.2073 -0.6339
  423MOL0     H57040   0.289   9.968   5.990  0.2774 -1.5941 -0.1715
  423MOL0     H57041   0.380  10.081   5.892  0.6492  0.1242  0.0108
  423MOL0     H57042   0.138  10.051   5.811 -2.8974 -1.9180 -1.7412
  423MOL0     H57043   0.264  10.025   5.691 -0.4127  0.7973  0.2695
  423MOL0     H57044   0.228   9.773   5.725 -0.8258 -1.1541  0.1913
  423MOL0     H57045   0.074   9.832   5.812 -0.8243 -0.6042 -0.9958
  423MOL0     H57046   0.132   9.891   5.526 -0.6975  0.2614 -1.2919
  423MOL0     H57047   0.019   9.775   5.602  0.5109 -0.2292  1.1395
  423MOL0     H57048  -0.098   9.984   5.705 -0.8673  2.6216 -0.3227
  423MOL0     H57049   0.018  10.088   5.629  0.6914 -1.1403 -0.1112
  423MOL0     H57050  -0.037   9.965   5.404 -2.1206 -4.1603 -1.2096
  423MOL0     H57051  -0.166   9.884   5.492  0.7344  0.4316  1.6520
  423MOL0     H57052  -0.129  10.184   5.479 -0.0634  0.1418  0.5132
  423MOL0     H57053  -0.228  10.094   5.362  0.0082 -1.6158 -0.3574
  423MOL0     H57054  -0.347  10.226   5.554  0.4509 -0.2581  1.6759
  423MOL0     H57055  -0.262  10.121   5.660 -2.0094 -1.5896  0.3520
  423MOL0     H57056  -0.540  10.081   5.362  1.5476  0.5186  1.0765
  423MOL0     H57057  -0.623   9.785   5.301  2.0167  1.9281 -0.3823
  423MOL0     H57058  -0.707   9.748   5.454  1.9559 -1.0244 -0.6337
  423MOL0     H57059  -0.785  10.018   5.338 -0.7037 -1.0751 -3.8221
  423MOL0     H57060  -0.850   9.928   5.469  2.0454  0.7874  0.6850
  423MOL0     H57061  -0.924   9.745   5.287 -1.7647 -0.8141 -5.6215
  423MOL0     H57062  -0.824   9.827   5.173  0.3736  0.5528  0.6321
  423MOL0     H57063  -1.064   9.944   5.309 -0.5276 -2.7909  0.1450
  423MOL0     H57064  -1.064   9.845   5.162  1.4011 -0.5807 -1.2214
  423MOL0     H57065  -0.952  10.257   5.051  0.8154 -0.2051  1.7095
  423MOL0     H57066  -1.158  10.489   4.874  3.6894  2.6176 -2.1787
  423MOL0     H57067  -1.006  10.455   4.970 -0.8386  0.4241  0.2265
  423MOL0     H57068  -1.037  10.376   4.813  0.5041  1.6678 -0.5740
  423MOL0     H57069  -1.602  10.310   4.657 -0.3260 -0.3552  0.3858
  423MOL0     H57070  -1.835  10.412   4.618 -4.0814 -3.1448  0.6925
  423MOL0     H57071  -2.111  10.374   4.945 -1.7367 -1.1788 -0.3454
  423MOL0     H57072  -2.059  10.538   4.980 -0.1632  0.1785 -0.2995
  423MOL0     H57073  -2.296  10.464   4.948  0.1274  1.4886  1.8020
  423MOL0     H57074  -2.252  10.628   4.889 -0.2212 -0.4954 -0.0683
  423MOL0     H57075  -2.273  10.381   4.701  1.0280 -0.8532  3.3727
  423MOL0     H57076  -2.262  10.555   4.654 -1.9908 -0.6398 -1.3307
  423MOL0     H57077  -2.482  10.449   4.819  0.2418  1.2118  1.2201
  423MOL0     H57078  -2.469  10.614   4.751  0.5275 -0.7423  2.6899
  423MOL0     H57079  -2.517  10.361   4.591 -3.0073 -1.9022  3.4109
  423MOL0     H57080  -2.515  10.532   4.520  1.5427 -0.1502  0.5387
  423MOL0     H57081  -2.715  10.437   4.737 -0.6048 -1.8627 -0.6625
  423MOL0     H57082  -2.710  10.597   4.650 -1.1203 -0.7146 -2.7223
  423MOL0     H57083  -2.765  10.328   4.512 -1.6104  0.0298 -1.1615
  423MOL0     H57084  -2.760  10.483   4.446 -3.4874  0.8433 -0.2783
  423MOL0     H57085  -2.953  10.366   4.646 -0.7977 -2.9320 -2.4173
  423MOL0     H57086  -2.982  10.430   4.480  1.4123  1.6648  0.1123
  423MOL0     H57087  -1.883  10.433   5.046 -1.7707 -2.6142  0.8977
  423MOL0     H57088  -1.665  10.306   5.067 -2.1545 -0.0701  0.2244
  423MOL0     H57089  -1.412  10.088   5.029 -1.4424  2.0749  2.4767
  423MOL0     H57090  -1.231   9.957   5.130 -0.3048  0.0885 -1.4311
  423MOL0     H57091   0.610   9.720   5.811  2.7283 -0.7994 -0.1684
  423MOL0     H57092   0.855   9.728   5.900  0.8585  1.2524  0.1843
  423MOL0     H57093   1.071   9.774   6.294  0.4456  2.6669  2.3680
  423MOL0     H57094   1.294   9.766   6.434 -2.2400 -1.6339 -0.1871
  423MOL0     H57095   1.571   9.656   6.394 -0.0875 -2.2627 -1.8370
  423MOL0     H57096   1.551   9.686   6.222  4.6188 -0.3389 -2.0384
  423MOL0     H57097   1.777   9.762   6.412  0.3602 -2.1457 -0.4969
  423MOL0     H57098   1.738   9.873   6.284 -0.0451 -0.6808  0.0053
  423MOL0     H57099   1.920   9.710   6.216  1.1692 -4.4682  0.0683
  423MOL0     H57100   1.772   9.688   6.113 -1.2873 -2.2966 -1.2031
  423MOL0     H57101   1.801   9.507   6.358 -3.8913 -1.5474 -0.2317
  423MOL0     H57102   1.901   9.470   6.218 -1.4773 -0.6811 -2.0593
  423MOL0     H57103   1.593   9.311   6.038  0.6309  2.3137 -2.1548
  423MOL0     H57104   1.479   9.974   6.105  1.0100 -3.3218 -0.4673
  423MOL0     H57105   1.280   9.958   5.980  1.6791 -0.3093 -0.9613
  424MOL0     O57106  10.456  10.446   6.247  0.2732  0.9936 -0.7829
  424MOL0     C57107  10.439  10.337   6.184  0.4585 -0.7141  0.0769
  424MOL0     O57108  10.518  10.232   6.199 -0.2359 -0.3556  0.1194
  424MOL0     C57109  10.639  10.249   6.252  0.4158 -0.5971  0.1459
  424MOL0     C57110  10.713  10.367   6.216 -0.8447 -0.4964  0.4065
  424MOL0     C57111  10.844  10.373   6.261 -0.6691  0.5125  0.2313
  424MOL0     C57112  10.900  10.276   6.348  0.0328  0.6325 -0.3300
  424MOL0     O57113  11.035  10.290   6.394 -0.2436  0.3386  0.3383
  424MOL0     C57114  11.107  10.409   6.368 -0.1722  0.0004  0.2723
  424MOL0     C57115  11.237  10.398   6.450  1.1285 -0.0587  0.0919
  424MOL0     C57116  11.206  10.425   6.598  0.4572  0.3797 -1.0388
  424MOL0     C57117  11.279  10.330   6.694 -0.7577 -0.1769  0.5086
  424MOL0     C57118  11.277  10.370   6.840  0.6498  0.1057 -0.1247
  424MOL0     C57119  11.362  10.283   6.930  0.3438  0.2257  0.3487
  424MOL0     C57120  11.392  10.350   7.065  0.0597 -0.0638  0.4820
  424MOL0     C57121  11.283  10.316   7.175  0.2656 -0.1826  0.1295
  424MOL0     N57122  11.151  10.365   7.141  0.5363  0.3241  0.5323
  424MOL0     C57123  11.102  10.491   7.164 -0.1217  0.5064 -0.0866
  424MOL0     C57124  10.973  10.479   7.121 -1.0330  1.1681 -0.0895
  424MOL0     C57125  10.868  10.584   7.141 -0.3673  0.2388 -0.0027
  424MOL0     C57126  10.728  10.525   7.148  0.9572  0.5030  0.3444
  424MOL0     C57127  10.636  10.624   7.214 -1.2809  0.0981  1.1075
  424MOL0     C57128  10.506  10.562   7.255  0.0789 -0.2409 -0.5613
  424MOL0     O57129  10.519  10.497   7.381 -0.5755 -0.3759  0.0855
  424MOL0     C57130  10.405  10.431   7.429  0.9701  0.0122 -0.2057
  424MOL0     C57131  10.421  10.335   7.531 -0.2107 -0.5406 -0.5451
  424MOL0     C57132  10.308  10.256   7.577 -0.1329 -0.1615  0.2981
  424MOL0     C57133  10.341  10.158   7.694  0.8166  0.4494  0.4395
  424MOL0     C57134  10.179  10.268   7.519  0.3157 -1.4584  0.0351
  424MOL0     C57135  10.057  10.175   7.543 -1.2308 -0.0201  0.1563
  424MOL0     O57136  10.076  10.065   7.626 -0.0408 -1.2712 -0.5721
  424MOL0     C57137   9.979   9.964   7.638 -0.7405 -0.6134 -0.3363
  424MOL0     C57138   9.994   9.881   7.747 -0.0287  0.0520  0.3586
  424MOL0     C57139   9.916   9.774   7.767  0.6408  0.6142 -0.2132
  424MOL0     C57140   9.815   9.742   7.684  0.3117  0.3137  0.3160
  424MOL0     O57141   9.742   9.632   7.709  0.3841  0.1834  0.0878
  424MOL0     C57142   9.631   9.602   7.624  0.0426  0.0354 -0.0721
  424MOL0     C57143   9.527   9.505   7.692 -0.2539  0.4647 -0.7463
  424MOL0     C57144   9.451   9.582   7.794  0.4037  0.5913  0.8926
  424MOL0     C57145   9.349   9.498   7.857  0.0137 -0.0386  0.6821
  424MOL0     C57146   9.267   9.563   7.974 -0.1834 -0.2674  0.1586
  424MOL0     C57147   9.162   9.655   7.923  0.1414  0.2914  0.3821
  424MOL0     C57148   9.078   9.715   8.037  0.1775 -0.0622  0.1767
  424MOL0     C57149   8.960   9.805   7.989 -0.0474  1.0156 -0.3284
  424MOL0    Cl57150   8.870   9.851   8.145  0.0896 -0.0884  0.1791
  424MOL0     C57151   9.802   9.815   7.562  0.2438 -0.3900  0.5465
  424MOL0     C57152   9.879   9.930   7.541 -0.0385 -0.8220 -0.6566
  424MOL0     O57153   9.952  10.209   7.487  0.6196 -0.0079  0.5972
  424MOL0     C57154  10.163  10.368   7.415 -0.1834 -0.0211  0.4074
  424MOL0     C57155  10.280  10.440   7.369  1.3897 -0.5215  0.3108
  424MOL0     N57156  10.947  10.360   7.062 -0.4585 -0.0509 -0.7010
  424MOL0     N57157  11.054  10.290   7.079  0.0157  0.1777 -0.1046
  424MOL0     C57158  10.823  10.162   6.379  0.0796 -0.6524 -0.5951
  424MOL0     C57159  10.691  10.151   6.332 -0.4750 -0.3763 -1.3259
  424MOL0     C57160  10.312  10.321   6.116  0.2149  0.8040 -0.1444
  424MOL0     C57161  10.208  10.413   6.118  0.1637 -0.5317  0.0301
  424MOL0     C57162  10.092  10.389   6.041 -0.2036  0.4480  0.3292
  424MOL0     C57163  10.077  10.264   5.985 -0.3270  0.6970 -0.0026
  424MOL0     O57164   9.966  10.227   5.913 -0.0409 -0.8323  0.2006
  424MOL0     C57165   9.847  10.255   5.978  1.2902 -0.5580  0.9077
  424MOL0     C57166   9.775  10.362   5.901  0.3680  0.5305 -0.0706
  424MOL0     C57167   9.671  10.298   5.806 -0.9508 -1.1003 -0.3123
  424MOL0     C57168   9.627  10.412   5.712  0.2802 -0.2070 -0.0764
  424MOL0     C57169   9.720  10.448   5.611  0.1986 -0.5521  0.8768
  424MOL0     C57170   9.791  10.480   5.513 -0.1947  0.1071 -0.6161
  424MOL0     C57171  10.179  10.171   5.985  0.3581 -1.0277  0.5198
  424MOL0     C57172  10.300  10.198   6.042 -0.4670  0.4166  0.3393
  424MOL0     H57173  10.682  10.441   6.143  1.1118  0.8875  0.8958
  424MOL0     H57174  10.903  10.459   6.229  0.4049  0.4660  1.9235
  424MOL0     H57175  11.112  10.436   6.262 -0.5528  1.2742  0.5621
  424MOL0     H57176  11.038  10.492   6.386 -1.1758 -0.3816 -1.4817
  424MOL0     H57177  11.267  10.294   6.431 -1.7720 -1.1284  0.6998
  424MOL0     H57178  11.311  10.464   6.405  0.9181  1.5630  1.9952
  424MOL0     H57179  11.241  10.527   6.620  1.7930 -0.1307 -0.6576
  424MOL0     H57180  11.097  10.419   6.603  0.2628  2.7858 -1.2627
  424MOL0     H57181  11.226  10.235   6.689 -1.3885  0.2170 -0.6872
  424MOL0     H57182  11.383  10.320   6.659 -1.4501  2.2740 -2.6903
  424MOL0     H57183  11.320  10.471   6.844 -2.1933  1.3873  2.3850
  424MOL0     H57184  11.174  10.375   6.875  0.3898 -0.4425 -0.8028
  424MOL0     H57185  11.314  10.186   6.947 -2.6852  1.6819  0.7935
  424MOL0     H57186  11.456  10.265   6.877  0.5492  1.4154  0.2859
  424MOL0     H57187  11.491  10.319   7.100 -0.5455 -2.6247  0.1379
  424MOL0     H57188  11.389  10.458   7.049 -2.5590 -0.2242 -0.7553
  424MOL0     H57189  11.313  10.369   7.265  0.4915 -1.6676  0.9713
  424MOL0     H57190  11.287  10.210   7.202 -0.2712 -0.0834  0.6246
  424MOL0     H57191  11.142  10.582   7.208 -3.0627  2.1016 -0.4724
  424MOL0     H57192  10.888  10.636   7.236 -1.8824  3.3301 -1.2439
  424MOL0     H57193  10.878  10.662   7.065 -0.8715 -0.8442 -1.2152
  424MOL0     H57194  10.740  10.432   7.205 -0.4524 -0.5280 -0.9346
  424MOL0     H57195  10.683  10.495   7.053 -1.1266 -1.1557  1.7587
  424MOL0     H57196  10.627  10.710   7.147  2.9117  0.8157  1.1698
  424MOL0     H57197  10.675  10.679   7.300 -2.2625  1.6147  0.6349
  424MOL0     H57198  10.467  10.499   7.174 -0.3933 -0.5151 -0.1248
  424MOL0     H57199  10.434  10.643   7.269 -1.0283 -1.3453  0.4164
  424MOL0     H57200  10.517  10.319   7.580 -0.6203  0.0182  0.4431
  424MOL0     H57201  10.449  10.168   7.709  0.8445  2.8181 -0.7971
  424MOL0     H57202  10.281  10.180   7.782  2.4399  0.7177  1.5246
  424MOL0     H57203  10.324  10.056   7.659 -2.2694 -0.0112  2.8480
  424MOL0     H57204  10.076   9.893   7.817 -1.9972  0.3366  2.7282
  424MOL0     H57205   9.933   9.704   7.848  0.9138  2.1220  1.0794
  424MOL0     H57206   9.579   9.694   7.596 -0.6552 -0.2221  0.3329
  424MOL0     H57207   9.670   9.545   7.539  0.0284 -1.5115  0.9142
  424MOL0     H57208   9.466   9.455   7.617  2.1570 -0.5037 -2.1625
  424MOL0     H57209   9.585   9.425   7.738 -0.0799  1.1322  0.2256
  424MOL0     H57210   9.408   9.665   7.738 -1.3708 -0.9252 -0.0849
  424MOL0     H57211   9.520   9.628   7.866 -1.0984 -0.1195  2.8636
  424MOL0     H57212   9.283   9.456   7.781  0.7230 -2.0012  1.0842
  424MOL0     H57213   9.404   9.413   7.898  1.2729  0.6277  0.4471
  424MOL0     H57214   9.332   9.608   8.050 -0.0627 -2.1506  1.2385
  424MOL0     H57215   9.218   9.475   8.018  2.0457 -1.9539 -0.5090
  424MOL0     H57216   9.212   9.729   7.860  1.5073 -1.1662 -0.3363
  424MOL0     H57217   9.108   9.598   7.846  0.4603  3.3141 -2.2749
  424MOL0     H57218   9.140   9.783   8.095  0.0287  0.8251 -0.6939
  424MOL0     H57219   9.037   9.631   8.095 -0.1615  0.8671  1.3118
  424MOL0     H57220   8.893   9.746   7.925 -2.1794  0.3315  2.3370
  424MOL0     H57221   9.000   9.890   7.934 -3.0692  1.5509 -1.9040
  424MOL0     H57222   9.729   9.794   7.484  1.0565  0.0555 -0.3485
  424MOL0     H57223   9.852   9.985   7.452 -0.3168  1.2145  0.6203
  424MOL0     H57224  10.077  10.356   7.349  1.3357  0.4315 -1.7593
  424MOL0     H57225  10.268  10.502   7.281 -5.2342  0.7057  1.5710
  424MOL0     H57226  10.888  10.091   6.429  0.9609  0.0902 -0.6407
  424MOL0     H57227  10.628  10.066   6.360  1.0704 -1.3072 -0.5334
  424MOL0     H57228  10.223  10.498   6.184 -1.7822 -0.6822  0.7178
  424MOL0     H57229  10.003  10.452   6.038 -2.2227 -2.2067  0.1379
  424MOL0     H57230   9.783  10.167   5.973  1.6986 -0.8244 -4.0452
  424MOL0     H57231   9.859  10.270   6.086  1.1574 -1.9173  1.1237
  424MOL0     H57232   9.848  10.425   5.849 -0.9761  0.9635 -1.5124
  424MOL0     H57233   9.734  10.427   5.979  1.9461 -0.2615  1.4879
  424MOL0     H57234   9.589  10.244   5.855 -1.4565 -0.3502 -0.3200
  424MOL0     H57235   9.731  10.227   5.748  0.6801  0.6822 -0.9089
  424MOL0     H57236   9.592  10.497   5.772 -1.9277 -1.0911 -0.0030
  424MOL0     H57237   9.537  10.370   5.666 -0.4265 -1.1738  2.0644
  424MOL0     H57238   9.854  10.516   5.434 -0.3403  0.1617 -0.7086
  424MOL0     H57239  10.180  10.076   5.934  2.5709 -0.2963 -0.9092
  424MOL0     H57240  10.371  10.116   6.039  0.4260  1.1946 -0.2449
  425MOL0     O57241   8.465   9.803   7.352  0.0472 -1.0328 -0.3843
  425MOL0     C57242   8.532   9.706   7.307 -0.5261  0.6312  1.1222
  425MOL0     O57243   8.489   9.573   7.312  0.5771 -0.1801 -0.3676
  425MOL0     C57244   8.355   9.547   7.341  0.5924 -0.8617  0.3901
  425MOL0     C57245   8.312   9.462   7.444 -0.5700 -1.0393 -0.5856
  425MOL0     C57246   8.177   9.442   7.482  0.1023  0.2450  0.4653
  425MOL0     C57247   8.075   9.503   7.411 -1.2263 -0.6199 -0.9809
  425MOL0     O57248   7.937   9.492   7.426 -0.2285 -0.2374  0.0090
  425MOL0     C57249   7.890   9.379   7.501  0.3700 -0.3333  0.8812
  425MOL0     C57250   7.742   9.377   7.520  1.0076 -0.0538 -0.3717
  425MOL0     C57251   7.692   9.488   7.621 -0.2965 -0.3306 -0.5924
  425MOL0     C57252   7.548   9.503   7.618  0.1605 -0.1323  0.6511
  425MOL0     C57253   7.499   9.627   7.695 -0.6321 -0.3926 -0.7573
  425MOL0     C57254   7.350   9.645   7.687  0.1999 -0.0962  0.8197
  425MOL0     C57255   7.286   9.777   7.731 -0.4908  0.3917  0.1680
  425MOL0     C57256   7.343   9.816   7.869  0.3824  0.2167 -1.0352
  425MOL0     N57257   7.287   9.932   7.930 -0.0370 -0.1513  0.6799
  425MOL0     C57258   7.159   9.930   7.977  0.6566 -0.7797 -0.2865
  425MOL0     C57259   7.129  10.057   8.020  0.3152  1.2785 -0.8760
  425MOL0     C57260   6.996  10.095   8.072  0.4207 -0.2037  0.1912
  425MOL0     C57261   6.893  10.146   7.963  0.1415 -0.7801 -0.0886
  425MOL0     C57262   6.883  10.053   7.837  0.2894 -0.6455 -0.0096
  425MOL0     C57263   6.757  10.073   7.750 -0.3070  0.3075 -1.0240
  425MOL0     O57264   6.740   9.980   7.637  0.8015 -0.2075 -0.4967
  425MOL0     C57265   6.818  10.000   7.528  0.4042  0.5063  0.0404
  425MOL0     C57266   6.805  10.111   7.454 -0.7188 -0.1362  0.6060
  425MOL0     C57267   6.886  10.131   7.336 -0.4450 -0.3335 -0.4838
  425MOL0     C57268   6.857  10.265   7.267  0.2983  0.3296 -0.3931
  425MOL0     C57269   6.983  10.032   7.300  0.6189 -0.3670  0.1431
  425MOL0     C57270   7.071  10.047   7.180 -0.6202 -0.4203 -0.3126
  425MOL0     O57271   7.173   9.954   7.168 -0.7026 -0.1128  0.4444
  425MOL0     C57272   7.276   9.968   7.081 -0.6487 -0.0612 -0.1485
  425MOL0     C57273   7.334   9.854   7.016 -0.8625 -0.3993  0.8289
  425MOL0     C57274   7.438   9.875   6.926  0.9598 -1.1765  0.1723
  425MOL0     C57275   7.488  10.004   6.908  0.0909  0.0439 -0.0362
  425MOL0     O57276   7.601  10.010   6.823  0.2778 -0.1354 -0.3975
  425MOL0     C57277   7.664  10.135   6.788 -0.4938 -0.2061 -0.4211
  425MOL0     C57278   7.788  10.094   6.697  0.1645  0.5202 -0.4907
  425MOL0     C57279   7.821  10.212   6.601  0.2106  0.3656 -0.1731
  425MOL0     C57280   7.961  10.184   6.537  0.7044 -0.0124  0.5977
  425MOL0     C57281   8.001  10.297   6.446 -0.2150  0.8358 -0.3718
  425MOL0     C57282   8.151  10.304   6.426  0.4327 -0.9253 -0.3980
  425MOL0     C57283   8.195  10.439   6.350  0.1048 -0.2851 -0.2437
  425MOL0     C57284   8.339  10.436   6.308  0.0551  0.2982 -0.3199
  425MOL0    Cl57285   8.377  10.309   6.177 -0.3172  0.3695  0.3169
  425MOL0     C57286   7.420  10.120   6.958  0.6115 -0.1755  0.2238
  425MOL0     C57287   7.321  10.102   7.054  0.1010 -0.4752  0.6002
  425MOL0     O57288   7.036  10.129   7.095 -0.3790 -0.0608 -0.4061
  425MOL0     C57289   6.991   9.918   7.381  0.0633 -0.5196  0.1513
  425MOL0     C57290   6.911   9.903   7.490  0.6699  0.1154 -0.0251
  425MOL0     N57291   7.243  10.135   8.001  0.1465  0.6147  0.3185
  425MOL0     N57292   7.332  10.064   7.937  0.6025 -0.2128  0.7603
  425MOL0     C57293   8.119   9.597   7.321  0.1220 -0.8073 -0.0515
  425MOL0     C57294   8.257   9.618   7.272 -0.7527  0.3153 -0.0229
  425MOL0     C57295   8.672   9.743   7.263  0.8357  0.2061  0.1111
  425MOL0     C57296   8.708   9.872   7.223 -0.3740 -0.5549  0.4311
  425MOL0     C57297   8.847   9.901   7.184  0.6818 -0.3874 -0.2841
  425MOL0     C57298   8.945   9.801   7.185 -0.1269  1.0008 -0.4157
  425MOL0     O57299   9.073   9.813   7.144 -0.3684  0.3083 -0.0960
  425MOL0     C57300   9.119   9.940   7.113  0.4115  0.1287  1.0766
  425MOL0     C57301   9.273   9.929   7.100 -0.2141 -0.5475 -0.1441
  425MOL0     C57302   9.333   9.832   7.003 -0.6587 -0.7344 -0.1623
  425MOL0     C57303   9.284   9.848   6.854 -0.2102 -0.0844 -0.4961
  425MOL0     C57304   9.343   9.975   6.816 -0.3531  1.1201  0.3360
  425MOL0     C57305   9.407  10.074   6.786  0.4529  0.7578 -0.3185
  425MOL0     C57306   8.907   9.675   7.230  0.6805  0.2507 -0.6027
  425MOL0     C57307   8.775   9.641   7.270 -0.1305  0.1193  0.4797
  425MOL0     H57308   8.393   9.407   7.491 -1.4758 -0.0718  2.3378
  425MOL0     H57309   8.161   9.363   7.554  1.0099 -2.1815 -1.8305
  425MOL0     H57310   7.927   9.291   7.449  1.8209  1.7679 -1.9315
  425MOL0     H57311   7.939   9.397   7.597 -0.7586  3.0880  0.9822
  425MOL0     H57312   7.685   9.379   7.426 -1.1507  0.7456  0.8611
  425MOL0     H57313   7.716   9.281   7.566 -0.5616 -0.2786 -1.6238
  425MOL0     H57314   7.715   9.444   7.719 -1.1249 -2.3495 -1.2578
  425MOL0     H57315   7.749   9.581   7.609  0.6126 -0.7160  0.4856
  425MOL0     H57316   7.539   9.524   7.511  0.9972  2.4095  1.0076
  425MOL0     H57317   7.503   9.412   7.658 -2.5454  1.3758  1.2419
  425MOL0     H57318   7.519   9.612   7.802 -2.4239  0.8027 -0.2091
  425MOL0     H57319   7.549   9.718   7.663 -0.3085  0.2332  1.3561
  425MOL0     H57320   7.333   9.634   7.580 -2.5554  0.2711  1.1303
  425MOL0     H57321   7.299   9.562   7.738  0.8034 -1.9793 -1.4506
  425MOL0     H57322   7.316   9.848   7.654 -0.0778 -0.0601 -0.0976
  425MOL0     H57323   7.177   9.770   7.721 -0.4681  1.2265 -0.7956
  425MOL0     H57324   7.449   9.845   7.859  0.0845  0.9650 -2.1856
  425MOL0     H57325   7.335   9.728   7.934 -1.8278  0.6808 -0.6099
  425MOL0     H57326   7.088   9.847   7.968  0.0609 -0.1429 -1.7689
  425MOL0     H57327   6.946  10.016   8.128 -0.8427 -1.0048 -1.9468
  425MOL0     H57328   7.005  10.179   8.141 -1.6083 -1.7689  2.4941
  425MOL0     H57329   6.916  10.251   7.944  0.5510 -0.4300  2.1059
  425MOL0     H57330   6.795  10.157   8.010  0.1219 -1.7108  0.1199
  425MOL0     H57331   6.876   9.950   7.870 -0.9056 -0.1659  1.3288
  425MOL0     H57332   6.967  10.064   7.767  1.6829 -2.4806  1.2966
  425MOL0     H57333   6.752  10.177   7.717  1.5282  0.2333 -1.6278
  425MOL0     H57334   6.669  10.056   7.813  1.1712  0.4626  1.1879
  425MOL0     H57335   6.734  10.185   7.489  2.3595  3.9171 -0.9505
  425MOL0     H57336   6.804  10.249   7.173 -0.4878 -0.6785  0.1997
  425MOL0     H57337   6.810  10.337   7.336 -0.8049 -1.1151  0.4163
  425MOL0     H57338   6.951  10.318   7.247  0.5517 -0.3127 -0.9209
  425MOL0     H57339   7.300   9.755   7.045 -0.0343 -0.6572  0.9498
  425MOL0     H57340   7.475   9.798   6.859  1.4864 -1.3012  0.5986
  425MOL0     H57341   7.595  10.201   6.734  0.1301 -0.5706 -1.6868
  425MOL0     H57342   7.700  10.193   6.874 -1.1169  1.0283 -0.9539
  425MOL0     H57343   7.872  10.061   6.758 -2.0120 -1.4978  1.6355
  425MOL0     H57344   7.747  10.012   6.637 -1.0428 -0.0131  0.9973
  425MOL0     H57345   7.827  10.297   6.670  1.3980  0.1744 -0.0100
  425MOL0     H57346   7.738  10.240   6.537 -0.2057  0.4505  0.3969
  425MOL0     H57347   8.027  10.170   6.624  0.9246 -2.9625  0.0498
  425MOL0     H57348   7.958  10.091   6.481 -0.0558  0.0738  0.4827
  425MOL0     H57349   7.959  10.392   6.480 -1.3856 -0.2794  1.4422
  425MOL0     H57350   7.960  10.273   6.347  1.4965 -0.0086 -0.9164
  425MOL0     H57351   8.199  10.301   6.524  0.9557  3.2039 -0.3296
  425MOL0     H57352   8.180  10.216   6.369  0.2663 -1.8137  0.8493
  425MOL0     H57353   8.174  10.514   6.428 -1.7086 -1.4255  0.4421
  425MOL0     H57354   8.135  10.458   6.261  0.4118 -1.5858 -0.7352
  425MOL0     H57355   8.401  10.420   6.397 -2.0872  0.4527  1.3050
  425MOL0     H57356   8.367  10.535   6.273  2.4806  0.0660  0.7685
  425MOL0     H57357   7.455  10.216   6.920  1.2758 -1.0639 -1.5418
  425MOL0     H57358   7.291  10.197   7.098  2.5572  1.2224 -1.1171
  425MOL0     H57359   7.057   9.839   7.345 -2.5590 -1.8381 -2.1002
  425MOL0     H57360   6.920   9.807   7.539 -0.8836  0.3554  0.7959
  425MOL0     H57361   8.046   9.650   7.261 -0.8943 -0.7010  1.2221
  425MOL0     H57362   8.293   9.685   7.195  2.5321 -2.9857 -1.6330
  425MOL0     H57363   8.647   9.961   7.216  2.7138  1.6664 -0.2344
  425MOL0     H57364   8.866   9.999   7.142  0.5327 -2.1035 -5.0898
  425MOL0     H57365   9.073   9.973   7.019 -0.5987 -1.6820  0.8885
  425MOL0     H57366   9.097  10.019   7.184  1.0192  1.8131 -0.5282
  425MOL0     H57367   9.329   9.908   7.192  1.4285  0.6789 -0.8032
  425MOL0     H57368   9.307  10.031   7.077  0.8117 -0.3611  1.9415
  425MOL0     H57369   9.304   9.731   7.035 -2.0986 -1.6226 -3.7648
  425MOL0     H57370   9.442   9.840   7.009 -0.6954  1.5832 -1.6388
  425MOL0     H57371   9.175   9.850   6.850 -0.2423 -0.9836 -0.3972
  425MOL0     H57372   9.311   9.774   6.778 -1.9172  0.4990 -1.7292
  425MOL0     H57373   9.473  10.158   6.777  0.4304  0.5721 -3.8111
  425MOL0     H57374   8.983   9.599   7.222  0.5831  0.1693 -0.7656
  425MOL0     H57375   8.753   9.540   7.302 -2.7534  1.1009  2.0618
  426MOL0     O57376   8.378   3.700  10.772  0.0998 -0.9758  0.1492
  426MOL0     C57377   8.404   3.819  10.760 -0.3398 -0.1185 -0.0705
  426MOL0     O57378   8.312   3.926  10.751 -0.5594  0.2650  1.0914
  426MOL0     C57379   8.188   3.917  10.806 -0.7540  0.0762  0.3358
  426MOL0     C57380   8.093   4.008  10.761 -0.4921  0.0008 -0.7058
  426MOL0     C57381   7.959   3.994  10.788 -0.2763  0.3547 -0.1615
  426MOL0     C57382   7.919   3.895  10.876  0.7255  0.7979  0.1784
  426MOL0     O57383   7.779   3.891  10.887  0.0024 -0.0573  0.2760
  426MOL0     C57384   7.715   3.777  10.941  0.2009  0.1213 -0.9355
  426MOL0     C57385   7.571   3.801  10.941  0.9867  0.7210  0.4383
  426MOL0     C57386   7.494   3.682  11.000 -0.4778  0.0093 -0.1784
  426MOL0     C57387   7.343   3.714  11.018 -0.3713  0.8032  0.1104
  426MOL0     C57388   7.263   3.597  11.083  0.2598  0.1681 -0.3554
  426MOL0     C57389   7.110   3.624  11.090  0.8972  0.0250 -0.7595
  426MOL0     C57390   7.076   3.750  11.179  0.4733  0.4066 -0.5136
  426MOL0     C57391   7.108   3.724  11.331 -0.5546  0.0865 -0.1303
  426MOL0     N57392   7.056   3.597  11.389 -0.1107  0.0141  0.1807
  426MOL0     C57393   6.931   3.548  11.388  0.2292 -0.1482  0.4737
  426MOL0     C57394   6.930   3.421  11.442 -0.1816  0.2327  1.2093
  426MOL0     C57395   6.832   3.307  11.450  0.1860  0.1660  0.1151
  426MOL0     C57396   6.701   3.350  11.521 -0.1587 -0.0174 -0.1213
  426MOL0     C57397   6.592   3.241  11.520 -0.2691 -0.4103 -0.9145
  426MOL0     C57398   6.617   3.117  11.605 -0.6699 -0.2731 -0.0482
  426MOL0     O57399   6.501   3.036  11.599  0.1266 -0.5680 -0.2210
  426MOL0     C57400   6.382   3.080  11.654 -0.9655  0.5735 -0.1004
  426MOL0     C57401   6.373   3.172  11.765  0.1873 -0.0370 -0.0053
  426MOL0     C57402   6.245   3.193  11.830 -0.1058 -0.1501 -0.8691
  426MOL0     C57403   6.229   3.292  11.941 -0.5421 -0.5803 -0.2390
  426MOL0     C57404   6.138   3.121  11.780  0.2846  0.2927  0.5354
  426MOL0     C57405   6.020   3.116  11.845  0.0839  0.5447 -0.5996
  426MOL0     O57406   5.920   3.211  11.810  0.0440  0.0154 -0.2229
  426MOL0     C57407   5.809   3.220  11.900 -0.0037 -0.7401 -0.5052
  426MOL0     C57408   5.808   3.311  12.005  0.4494  0.1411 -0.1619
  426MOL0     C57409   5.694   3.319  12.077  0.0141 -0.6648  0.5650
  426MOL0     C57410   5.578   3.239  12.055 -0.7463 -0.5255 -0.0305
  426MOL0     O57411   5.466   3.237  12.123  0.0371  0.7823 -0.3118
  426MOL0     C57412   5.476   3.277  12.260  0.4086 -0.1961  0.5498
  426MOL0     C57413   5.353   3.225  12.333 -0.6521  0.2276 -0.8846
  426MOL0     C57414   5.222   3.290  12.273 -0.9462  0.1058 -0.0414
  426MOL0     C57415   5.089   3.226  12.327 -0.1886  0.2314 -1.0351
  426MOL0     C57416   4.968   3.288  12.251  0.6389  0.4216  0.0839
  426MOL0     C57417   4.834   3.270  12.332 -0.2124  0.1324  0.8742
  426MOL0     C57418   4.721   3.335  12.252  0.1515  0.2755  0.0314
  426MOL0     C57419   4.592   3.355  12.329 -0.5828  0.9317  0.2494
  426MOL0    Cl57420   4.475   3.462  12.235 -0.4246  0.1369  0.7818
  426MOL0     C57421   5.583   3.162  11.952 -0.5088  0.7622  1.1338
  426MOL0     C57422   5.703   3.147  11.876  0.9486  0.0672 -1.0033
  426MOL0     O57423   6.006   3.025  11.937 -0.2195 -0.5438 -0.2480
  426MOL0     C57424   6.144   3.028  11.671  0.3467 -0.8898 -0.3667
  426MOL0     C57425   6.271   3.008  11.605 -0.2956 -0.3558  0.2438
  426MOL0     N57426   7.068   3.397  11.476 -0.0915 -0.0387 -0.6223
  426MOL0     N57427   7.140   3.498  11.444 -0.6556 -0.1676 -0.0532
  426MOL0     C57428   8.014   3.809  10.936 -0.2853  0.6711 -0.7073
  426MOL0     C57429   8.147   3.817  10.896  0.4437 -0.7302 -0.9052
  426MOL0     C57430   8.549   3.860  10.729 -0.1728  0.0874 -0.1458
  426MOL0     C57431   8.579   3.971  10.649  0.2175 -0.6783 -0.0783
  426MOL0     C57432   8.714   4.004  10.637  0.3368 -1.4478 -0.2899
  426MOL0     C57433   8.810   3.932  10.692  0.5005 -0.4662 -0.8347
  426MOL0     O57434   8.941   3.975  10.679 -0.0433 -0.3758 -0.3394
  426MOL0     C57435   9.055   3.915  10.746  0.2414  0.4919  0.2083
  426MOL0     C57436   9.179   3.985  10.678 -0.3096  0.2750  0.9307
  426MOL0     C57437   9.305   3.969  10.764  0.0576  0.0573  0.8712
  426MOL0     C57438   9.431   4.015  10.704  0.3361 -0.0067  0.4406
  426MOL0     C57439   9.529   4.028  10.809  0.2131  0.1393  0.3298
  426MOL0     C57440   9.607   4.027  10.902  0.0775  0.5061  0.1372
  426MOL0     C57441   8.778   3.812  10.754  0.2690 -0.0754 -0.1415
  426MOL0     C57442   8.648   3.773  10.777 -0.6890 -0.6928 -0.5205
  426MOL0     H57443   8.128   4.075  10.683  3.7316 -1.5110 -0.3879
  426MOL0     H57444   7.875   4.054  10.753 -1.7538 -1.1443  0.6611
  426MOL0     H57445   7.735   3.684  10.887  1.3441 -0.4665  0.4374
  426MOL0     H57446   7.737   3.762  11.047 -0.0717 -0.6749 -0.9818
  426MOL0     H57447   7.551   3.894  10.996  3.5184 -0.0343  2.8668
  426MOL0     H57448   7.540   3.802  10.836  0.3948 -1.0437  0.5707
  426MOL0     H57449   7.506   3.591  10.940  1.5869 -0.3812  0.7372
  426MOL0     H57450   7.527   3.650  11.099 -2.4772 -2.4684 -0.2120
  426MOL0     H57451   7.335   3.795  11.091  0.4289 -1.4571  2.8589
  426MOL0     H57452   7.295   3.721  10.920  1.2972 -0.6047 -0.8648
  426MOL0     H57453   7.272   3.503  11.029  0.7995 -1.4460  2.3218
  426MOL0     H57454   7.301   3.582  11.185  2.2875 -1.6126 -1.3020
  426MOL0     H57455   7.063   3.647  10.994  0.1439 -0.6701 -0.5670
  426MOL0     H57456   7.060   3.533  11.123  0.1722 -0.0190 -1.9227
  426MOL0     H57457   7.125   3.836  11.131  1.6428  0.8451  1.3627
  426MOL0     H57458   6.971   3.779  11.170  0.7515  2.5117  1.9199
  426MOL0     H57459   7.077   3.809  11.392  1.9911  1.8643 -1.1404
  426MOL0     H57460   7.216   3.711  11.337 -0.7076 -0.8965  0.7510
  426MOL0     H57461   6.848   3.609  11.355 -0.0417 -1.7210 -2.0275
  426MOL0     H57462   6.805   3.265  11.353 -1.1461  1.6020 -0.1589
  426MOL0     H57463   6.879   3.223  11.503 -1.1210 -1.4754 -1.1862
  426MOL0     H57464   6.654   3.417  11.450  1.2508  0.9380 -0.1948
  426MOL0     H57465   6.722   3.388  11.622 -2.8194  2.1750 -0.3125
  426MOL0     H57466   6.573   3.215  11.415  0.8398 -0.0140 -1.2245
  426MOL0     H57467   6.496   3.289  11.543  0.5603  1.7758 -1.7511
  426MOL0     H57468   6.643   3.134  11.709 -1.3717 -0.2969  0.1417
  426MOL0     H57469   6.696   3.056  11.561 -1.9446  0.2146 -3.3440
  426MOL0     H57470   6.456   3.237  11.791  1.7273 -1.8751 -0.0990
  426MOL0     H57471   6.159   3.369  11.910  2.4248  2.5933  0.3250
  426MOL0     H57472   6.195   3.243  12.032 -0.0892 -3.7117 -1.6141
  426MOL0     H57473   6.317   3.348  11.974  0.9251 -1.7238 -1.9984
  426MOL0     H57474   5.884   3.386  12.022  1.2435  0.5186 -4.4922
  426MOL0     H57475   5.707   3.390  12.159  3.4543  1.2292 -1.4071
  426MOL0     H57476   5.568   3.236  12.303  0.2860 -1.5232 -0.4073
  426MOL0     H57477   5.461   3.385  12.267 -4.3177 -0.4855 -1.5075
  426MOL0     H57478   5.350   3.116  12.329 -1.9857  0.2285 -0.6291
  426MOL0     H57479   5.360   3.250  12.439 -0.9534  1.7112 -1.1789
  426MOL0     H57480   5.214   3.272  12.165 -2.4016 -2.9754  0.4705
  426MOL0     H57481   5.225   3.397  12.294  0.3646  0.0321  0.2818
  426MOL0     H57482   5.094   3.120  12.301  1.0836 -0.9444  3.3042
  426MOL0     H57483   5.082   3.241  12.435 -0.7513 -3.9739 -0.3549
  426MOL0     H57484   4.964   3.257  12.146  2.1896  0.1163  0.0855
  426MOL0     H57485   4.991   3.394  12.240  3.1605 -0.0672 -0.0275
  426MOL0     H57486   4.818   3.163  12.351 -2.1685  0.3945  0.9386
  426MOL0     H57487   4.845   3.333  12.421  0.2452  0.4326  0.6067
  426MOL0     H57488   4.706   3.276  12.162 -0.9225  0.6560 -0.0531
  426MOL0     H57489   4.747   3.436  12.219  0.2603  0.4591  0.6582
  426MOL0     H57490   4.615   3.401  12.426  1.1547  1.1935 -0.2487
  426MOL0     H57491   4.541   3.260  12.345  0.4724  0.0523 -1.3500
  426MOL0     H57492   5.499   3.101  11.922  1.9397 -2.8134  0.8526
  426MOL0     H57493   5.709   3.068  11.802 -1.2540  0.3429 -1.5468
  426MOL0     H57494   6.059   2.973  11.633 -1.2783  0.4813  1.0874
  426MOL0     H57495   6.290   2.935  11.528 -2.6299 -0.1973 -0.5476
  426MOL0     H57496   7.983   3.730  11.004  0.7992 -0.4405 -1.4645
  426MOL0     H57497   8.209   3.732  10.922  0.3587 -0.1716  1.2675
  426MOL0     H57498   8.493   4.021  10.607 -1.1076 -0.8511  2.2210
  426MOL0     H57499   8.736   4.090  10.574 -1.9928 -0.2503  0.4319
  426MOL0     H57500   9.055   3.931  10.854  0.2496  0.9552  0.1417
  426MOL0     H57501   9.057   3.806  10.732 -0.1214  0.3050  1.4588
  426MOL0     H57502   9.151   4.088  10.655  1.4072  0.3663 -0.9594
  426MOL0     H57503   9.196   3.940  10.580 -2.0786  0.8695  0.3139
  426MOL0     H57504   9.317   3.867  10.802  2.0384  0.5618  1.7160
  426MOL0     H57505   9.285   4.035  10.849 -4.5879 -0.1139  0.1961
  426MOL0     H57506   9.434   4.119  10.671  2.9958  0.3040  1.3869
  426MOL0     H57507   9.459   3.953  10.618 -2.2578 -0.6109 -0.0443
  426MOL0     H57508   9.681   4.026  10.979  1.0134 -1.0868 -0.7365
  426MOL0     H57509   8.855   3.746  10.792 -0.3680 -2.0126 -1.9686
  426MOL0     H57510   8.638   3.676  10.824 -0.5006  0.1156  1.2349
  427MOL0     O57511   3.115  10.184   5.920 -0.5692 -0.3879 -0.2509
  427MOL0     C57512   3.191  10.110   5.863  0.1087  0.1363  0.9290
  427MOL0     O57513   3.167  10.044   5.745 -0.2046 -0.1166  0.1440
  427MOL0     C57514   3.051  10.044   5.675  0.4201  0.4028 -0.6107
  427MOL0     C57515   2.953  10.143   5.676 -0.5448 -0.0362 -0.3035
  427MOL0     C57516   2.832  10.123   5.603  0.1436  0.8971  0.3785
  427MOL0     C57517   2.817  10.021   5.510 -0.7021  0.1026 -0.3161
  427MOL0     O57518   2.708  10.024   5.442  0.7175 -0.3249  0.0324
  427MOL0     C57519   2.672   9.922   5.348 -0.1643  0.1397 -0.6750
  427MOL0     C57520   2.526   9.953   5.311  0.0727 -0.4518 -0.5085
  427MOL0     C57521   2.466   9.858   5.210  0.0362  0.2250  0.2702
  427MOL0     C57522   2.348   9.919   5.129  0.1877  0.4174 -0.7688
  427MOL0     C57523   2.382   9.998   5.001  0.5939 -0.0322  0.5343
  427MOL0     C57524   2.256  10.036   4.918  0.1534  0.0627 -0.0217
  427MOL0     C57525   2.165  10.129   5.002  0.5380 -1.0103 -0.1524
  427MOL0     C57526   2.102  10.236   4.913  1.1603  0.5719  0.4248
  427MOL0     N57527   2.008  10.334   4.990 -0.0606  0.5362  0.1701
  427MOL0     C57528   1.880  10.304   5.030 -0.2669  0.3608  0.5583
  427MOL0     C57529   1.818  10.415   5.066 -0.4228 -0.3131  0.6743
  427MOL0     C57530   1.672  10.426   5.105 -0.5993 -0.2671  0.1243
  427MOL0     C57531   1.576  10.380   4.997 -0.7193 -0.1279 -0.5562
  427MOL0     C57532   1.533  10.482   4.898 -0.4563 -0.5460 -0.2069
  427MOL0     C57533   1.462  10.419   4.780  0.1367 -0.1260 -0.1479
  427MOL0     O57534   1.355  10.328   4.807  0.3136 -0.5557  0.0281
  427MOL0     C57535   1.223  10.370   4.812  0.1441 -0.0411  0.5676
  427MOL0     C57536   1.184  10.502   4.827 -0.6849  0.3464 -0.0490
  427MOL0     C57537   1.048  10.545   4.836 -0.5106  0.7317  0.0341
  427MOL0     C57538   1.024  10.686   4.882 -0.1179  0.2893 -0.3570
  427MOL0     C57539   0.943  10.451   4.810  0.1522  0.7630  0.0634
  427MOL0     C57540   0.796  10.488   4.800 -0.0187 -0.6187  0.8036
  427MOL0     O57541   0.711  10.383   4.794  0.2378 -0.0577 -0.8378
  427MOL0     C57542   0.571  10.396   4.789 -0.1614  0.2703 -0.2658
  427MOL0     C57543   0.505  10.287   4.836  0.9094  0.1043  0.5069
  427MOL0     C57544   0.369  10.282   4.848 -0.2105 -0.3567 -0.8359
  427MOL0     C57545   0.289  10.387   4.797  0.8329  0.4156  0.1622
  427MOL0     O57546   0.153  10.368   4.812 -0.6385 -0.0265 -0.3993
  427MOL0     C57547   0.071  10.440   4.713 -0.4152 -0.8509  0.1606
  427MOL0     C57548  -0.074  10.397   4.721  0.3164 -0.1242 -0.3705
  427MOL0     C57549  -0.084  10.251   4.676  0.0012  0.4102 -0.2423
  427MOL0     C57550  -0.228  10.218   4.639  0.2358  0.1493 -0.3685
  427MOL0     C57551  -0.242  10.085   4.565 -0.3447 -0.4934 -0.0614
  427MOL0     C57552  -0.386  10.058   4.523  0.3446  0.8348  0.5725
  427MOL0     C57553  -0.399   9.913   4.465  0.1883  0.8486 -0.4063
  427MOL0     C57554  -0.530   9.893   4.407 -1.0326 -0.3290  0.3378
  427MOL0    Cl57555  -0.541   9.993   4.254  0.2162 -0.4191 -0.3707
  427MOL0     C57556   0.360  10.506   4.756  0.0402 -0.9430  0.1245
  427MOL0     C57557   0.493  10.515   4.755  0.1786 -0.0917 -0.0970
  427MOL0     O57558   0.766  10.606   4.817 -0.3654  0.5770  0.7732
  427MOL0     C57559   0.991  10.314   4.785  0.3963 -0.3394 -0.0953
  427MOL0     C57560   1.124  10.277   4.793  0.1984 -0.3418 -0.3486
  427MOL0     N57561   1.912  10.515   5.038  0.2809  0.0388 -0.5026
  427MOL0     N57562   2.019  10.465   4.994 -0.3033 -0.1566 -0.0982
  427MOL0     C57563   2.915   9.926   5.507 -0.0681  0.9574 -0.6204
  427MOL0     C57564   3.038   9.940   5.587  0.5644 -0.2700  0.0053
  427MOL0     C57565   3.337  10.103   5.918  0.9297 -0.4787  0.2959
  427MOL0     C57566   3.444  10.077   5.829  0.1276 -0.3011  0.2037
  427MOL0     C57567   3.576  10.076   5.865 -0.9638 -0.8039  0.2372
  427MOL0     C57568   3.610  10.133   5.987 -0.1469  1.3370 -0.3683
  427MOL0     O57569   3.734  10.162   6.028 -0.6712 -0.4184 -0.7627
  427MOL0     C57570   3.829  10.055   6.007  0.5839  0.1573 -0.1437
  427MOL0     C57571   3.962  10.091   6.061 -0.1824  0.3264 -0.1006
  427MOL0     C57572   4.076   9.990   6.007  0.3266  0.1798  0.2265
  427MOL0     C57573   4.134  10.029   5.872 -0.4562 -0.1270  0.2652
  427MOL0     C57574   4.220  10.148   5.881  1.1759 -1.6404 -0.2664
  427MOL0     C57575   4.308  10.232   5.871  0.4816 -0.0037  0.2452
  427MOL0     C57576   3.506  10.148   6.080 -0.2551 -0.0798 -1.1954
  427MOL0     C57577   3.369  10.138   6.047 -0.3802 -0.8235 -0.5057
  427MOL0     H57578   2.962  10.233   5.736  0.6549 -1.0040  1.0387
  427MOL0     H57579   2.749  10.193   5.613 -0.0194  0.4737  2.6284
  427MOL0     H57580   2.736   9.920   5.260  1.1291 -2.5640  0.2171
  427MOL0     H57581   2.675   9.825   5.398  0.3741  1.0379  1.1354
  427MOL0     H57582   2.465   9.948   5.401 -0.1490 -1.5259 -0.6952
  427MOL0     H57583   2.520  10.057   5.277  1.3636 -0.3464 -0.4598
  427MOL0     H57584   2.548   9.820   5.148  0.3320  2.7328 -1.0014
  427MOL0     H57585   2.436   9.775   5.275 -1.8892  0.4699 -0.2510
  427MOL0     H57586   2.268   9.851   5.098 -2.1155  2.8399 -0.5013
  427MOL0     H57587   2.288   9.978   5.199  0.3741 -1.1974  0.8132
  427MOL0     H57588   2.446  10.085   5.020 -1.3805  1.9341 -1.2791
  427MOL0     H57589   2.449   9.936   4.940 -0.4250 -2.3845  1.6567
  427MOL0     H57590   2.283  10.088   4.826 -0.7368  2.6260  1.0653
  427MOL0     H57591   2.197   9.949   4.887 -0.1706 -0.5404  2.1220
  427MOL0     H57592   2.093  10.066   5.055 -0.8116 -0.4765 -1.2721
  427MOL0     H57593   2.214  10.187   5.081 -0.4582  1.6195 -1.3211
  427MOL0     H57594   2.046  10.189   4.831  0.7849 -1.6710  1.8584
  427MOL0     H57595   2.181  10.294   4.864 -0.5450  2.6837  0.0292
  427MOL0     H57596   1.830  10.209   5.049 -1.0482  0.6199 -0.1462
  427MOL0     H57597   1.673  10.369   5.199  2.7074  1.1653  1.0902
  427MOL0     H57598   1.639  10.527   5.130 -2.1259 -0.8249  0.5095
  427MOL0     H57599   1.485  10.354   5.052 -0.0937 -3.0952 -0.7261
  427MOL0     H57600   1.601  10.291   4.938  0.7013 -0.0637 -0.0986
  427MOL0     H57601   1.613  10.540   4.850 -1.8997  1.8149  0.0696
  427MOL0     H57602   1.466  10.546   4.957  1.6882  1.1909  0.5080
  427MOL0     H57603   1.534  10.374   4.711  0.9878  2.4478 -1.0744
  427MOL0     H57604   1.425  10.504   4.721 -0.8146  0.7751  1.6869
  427MOL0     H57605   1.253  10.585   4.834 -0.6870  0.2549  1.2410
  427MOL0     H57606   1.110  10.741   4.922 -2.6414  2.7044  2.2178
  427MOL0     H57607   0.974  10.748   4.807 -5.3690  1.3149  3.4598
  427MOL0     H57608   0.948  10.674   4.959 -0.6578 -1.8914 -1.1737
  427MOL0     H57609   0.562  10.197   4.852 -1.9552 -1.7635  0.9910
  427MOL0     H57610   0.322  10.197   4.896  1.3237  0.2510  1.9818
  427MOL0     H57611   0.063  10.546   4.737 -1.6624 -0.8293 -0.2847
  427MOL0     H57612   0.103  10.427   4.609  2.5462  0.5787  0.7708
  427MOL0     H57613  -0.104  10.405   4.826  0.9445 -0.5099 -0.1572
  427MOL0     H57614  -0.139  10.469   4.669 -0.9431  1.1808  2.7634
  427MOL0     H57615  -0.055  10.187   4.760 -0.2379  2.6516  1.6295
  427MOL0     H57616  -0.018  10.231   4.591 -0.3244  0.3866 -0.4916
  427MOL0     H57617  -0.291  10.232   4.728 -1.3979  0.3244 -1.5056
  427MOL0     H57618  -0.273  10.293   4.573 -3.8458 -1.5911  0.1428
  427MOL0     H57619  -0.211   9.999   4.625  1.3171 -1.5815 -2.2918
  427MOL0     H57620  -0.179  10.089   4.475  0.7367  4.5157  0.6347
  427MOL0     H57621  -0.452  10.063   4.609 -0.0657 -1.4972  0.4610
  427MOL0     H57622  -0.422  10.136   4.455  0.0452  1.0645  0.9949
  427MOL0     H57623  -0.381   9.836   4.541  1.0754  0.6642 -0.7978
  427MOL0     H57624  -0.330   9.903   4.381 -1.6146 -0.4297 -1.8258
  427MOL0     H57625  -0.608   9.926   4.476  0.4177  0.9447  1.4309
  427MOL0     H57626  -0.543   9.787   4.385 -0.0398 -0.7956  1.8766
  427MOL0     H57627   0.299  10.591   4.726  0.3535 -0.8014 -0.1195
  427MOL0     H57628   0.529  10.609   4.716 -1.5441  1.0345  0.8887
  427MOL0     H57629   0.916  10.236   4.774 -1.6424  0.9716  2.9678
  427MOL0     H57630   1.158  10.174   4.789 -0.0627 -0.4024 -1.2751
  427MOL0     H57631   2.906   9.846   5.435 -0.9615 -0.6929  1.2279
  427MOL0     H57632   3.119   9.869   5.592 -1.7305 -3.1774 -0.8725
  427MOL0     H57633   3.421  10.050   5.726  1.2160 -0.6090  0.0240
  427MOL0     H57634   3.660  10.059   5.798  1.4163 -2.4121  3.3905
  427MOL0     H57635   3.785   9.966   6.053 -1.6389 -0.3204 -2.9170
  427MOL0     H57636   3.847  10.037   5.901  0.8321  0.7498 -0.2041
  427MOL0     H57637   3.975  10.088   6.169  1.6387  3.2066 -0.1320
  427MOL0     H57638   3.992  10.194   6.038  3.9632  0.3264  3.8243
  427MOL0     H57639   4.041   9.887   6.011 -0.4069  0.4230  4.2892
  427MOL0     H57640   4.156  10.001   6.080 -0.2140 -0.5255  0.9357
  427MOL0     H57641   4.065  10.046   5.789  0.2553  1.8612  0.0297
  427MOL0     H57642   4.202   9.956   5.827 -0.2862  1.0680 -1.5219
  427MOL0     H57643   4.377  10.314   5.868  1.3795 -0.7372  0.3910
  427MOL0     H57644   3.527  10.183   6.181  1.7575 -2.1165 -0.8060
  427MOL0     H57645   3.295  10.159   6.123  0.7619 -0.4301  0.5427
  428MOL0     O57646   5.286  10.249   3.544 -0.2115 -0.1632  0.3954
  428MOL0     C57647   5.267  10.162   3.459  0.9868  0.2365 -0.1462
  428MOL0     O57648   5.144  10.122   3.410 -0.2932  0.3809  1.0738
  428MOL0     C57649   5.031  10.145   3.485  0.3775  0.5022  0.2426
  428MOL0     C57650   4.910  10.162   3.410  0.1202  0.6456  0.2080
  428MOL0     C57651   4.795  10.189   3.481 -0.0434  0.0887 -0.4507
  428MOL0     C57652   4.793  10.201   3.619  0.3560 -0.0935 -0.9889
  428MOL0     O57653   4.674  10.236   3.679  0.5036  0.4399 -0.1935
  428MOL0     C57654   4.589  10.128   3.708  0.1002  0.0385  1.0495
  428MOL0     C57655   4.624  10.075   3.847 -0.3367  0.3573  0.4153
  428MOL0     C57656   4.543   9.955   3.883  0.7268  0.0245 -0.3241
  428MOL0     C57657   4.602   9.905   4.017 -0.0841 -0.6573 -0.7701
  428MOL0     C57658   4.537   9.785   4.070 -0.0824 -0.2013 -0.5633
  428MOL0     C57659   4.390   9.789   4.109  0.3535 -0.2636  0.6967
  428MOL0     C57660   4.339   9.650   4.135  0.0273 -0.1148 -0.6759
  428MOL0     C57661   4.185   9.665   4.155  0.0478  0.5823  0.1013
  428MOL0     N57662   4.142   9.535   4.213 -0.9667  0.2420 -0.1428
  428MOL0     C57663   4.169   9.413   4.169  0.5592  0.4965  0.2183
  428MOL0     C57664   4.107   9.335   4.258  1.1562 -0.5027 -0.3667
  428MOL0     C57665   4.079   9.190   4.256  0.0380 -0.2970  0.0320
  428MOL0     C57666   3.944   9.158   4.315  0.8582 -0.0714  0.1459
  428MOL0     C57667   3.928   9.002   4.312 -0.4485 -0.8340  0.3082
  428MOL0     C57668   4.028   8.921   4.396 -0.2303 -0.2340  0.1300
  428MOL0     O57669   4.147   8.901   4.320  0.2443 -0.0952 -0.1504
  428MOL0     C57670   4.220   8.786   4.339  0.4822 -0.8319  0.2111
  428MOL0     C57671   4.199   8.687   4.432 -0.2017 -0.4905  1.8609
  428MOL0     C57672   4.279   8.573   4.432  0.8948  0.1962  0.7140
  428MOL0     C57673   4.247   8.482   4.548  0.0083  0.3431 -0.9129
  428MOL0     C57674   4.372   8.558   4.332 -0.8974 -0.0742  0.9676
  428MOL0     C57675   4.441   8.427   4.306  0.0310 -0.4525  0.7540
  428MOL0     O57676   4.448   8.342   4.414 -0.6916  0.8810 -0.1052
  428MOL0     C57677   4.452   8.205   4.381 -0.0543  0.8723 -0.2384
  428MOL0     C57678   4.559   8.131   4.426  0.2232 -0.7715 -0.1427
  428MOL0     C57679   4.574   7.995   4.401 -0.3362  0.1598  0.7313
  428MOL0     C57680   4.471   7.936   4.325  0.2433  1.4045  0.0012
  428MOL0     O57681   4.459   7.805   4.293  0.0106 -0.3870  0.5745
  428MOL0     C57682   4.572   7.720   4.268 -0.5757  0.2248  0.3071
  428MOL0     C57683   4.524   7.595   4.196  0.4007  0.6841 -0.3882
  428MOL0     C57684   4.648   7.493   4.183  0.8376 -0.2563 -0.9438
  428MOL0     C57685   4.603   7.347   4.189 -0.3444  0.2120  0.1487
  428MOL0     C57686   4.704   7.260   4.125  0.1252 -0.5657  0.1940
  428MOL0     C57687   4.689   7.111   4.146 -0.1260  0.1554  0.0426
  428MOL0     C57688   4.546   7.069   4.125  0.0655 -0.5918  0.1197
  428MOL0     C57689   4.537   6.925   4.087 -0.5528 -1.3074  0.4989
  428MOL0    Cl57690   4.361   6.887   4.070  0.1486  0.0489  0.0958
  428MOL0     C57691   4.360   8.007   4.280 -0.4113  0.6097 -0.6607
  428MOL0     C57692   4.362   8.145   4.297  0.5839 -0.5573  0.0832
  428MOL0     O57693   4.492   8.400   4.198 -0.1767 -0.1933 -0.0479
  428MOL0     C57694   4.394   8.661   4.238 -0.5042  0.2393  0.2805
  428MOL0     C57695   4.318   8.778   4.242  0.5146  0.0915 -0.5132
  428MOL0     N57696   4.045   9.414   4.358  0.0570 -0.0627  0.6097
  428MOL0     N57697   4.058   9.536   4.320  0.1857  0.5040 -0.6146
  428MOL0     C57698   4.914  10.183   3.697  0.4551  0.3904 -0.3184
  428MOL0     C57699   5.029  10.155   3.623  0.1848  0.4188  0.7786
  428MOL0     C57700   5.386  10.105   3.393  0.1721 -0.8710 -0.2826
  428MOL0     C57701   5.376  10.042   3.269 -0.2200  0.4527 -0.0619
  428MOL0     C57702   5.491   9.998   3.202  0.1165 -0.3452  0.0380
  428MOL0     C57703   5.618  10.020   3.242 -0.0383  0.3791 -0.0027
  428MOL0     O57704   5.718   9.973   3.178 -0.1726 -0.1269  0.6647
  428MOL0     C57705   5.772   9.869   3.258  0.2889  0.1648 -0.4592
  428MOL0     C57706   5.919   9.883   3.256 -0.1829  0.7387 -0.3789
  428MOL0     C57707   5.983   9.760   3.316 -0.3241 -0.9617  0.1774
  428MOL0     C57708   6.132   9.774   3.349  0.2426 -0.2002 -0.6198
  428MOL0     C57709   6.210   9.646   3.336 -0.9950 -0.5662  0.0381
  428MOL0     C57710   6.278   9.547   3.322 -1.0761  0.0623 -0.0408
  428MOL0     C57711   5.626  10.101   3.352  0.2286  0.0233 -0.7502
  428MOL0     C57712   5.519  10.144   3.430 -0.0234  0.1090  0.3106
  428MOL0     H57713   4.913  10.133   3.305 -1.9816 -2.9146  0.9521
  428MOL0     H57714   4.706  10.200   3.418  0.3997 -1.8010 -1.5093
  428MOL0     H57715   4.482  10.153   3.709  0.1970  0.5141  0.1243
  428MOL0     H57716   4.607  10.047   3.638 -1.9235  1.2882 -1.0416
  428MOL0     H57717   4.731  10.052   3.840 -0.6007 -0.4766 -1.6629
  428MOL0     H57718   4.614  10.163   3.912 -1.4084  1.0633 -0.6512
  428MOL0     H57719   4.436   9.976   3.895  1.2930  2.7557  0.4603
  428MOL0     H57720   4.562   9.877   3.809  1.2131 -1.2810  1.0997
  428MOL0     H57721   4.708   9.879   4.010 -0.1930 -1.3247 -0.0877
  428MOL0     H57722   4.586   9.987   4.089 -1.3472 -1.2371 -0.3589
  428MOL0     H57723   4.547   9.703   3.999  0.2649 -0.4449 -0.2410
  428MOL0     H57724   4.599   9.753   4.155 -2.1046  2.9264  2.3648
  428MOL0     H57725   4.372   9.846   4.201  0.3807 -1.1820  1.2799
  428MOL0     H57726   4.332   9.829   4.025  1.4506  0.2024  0.1524
  428MOL0     H57727   4.363   9.586   4.049  0.4641 -0.5444 -0.2329
  428MOL0     H57728   4.385   9.608   4.225 -3.9110 -0.9425  1.1627
  428MOL0     H57729   4.129   9.684   4.063 -1.5054  1.6162  1.1973
  428MOL0     H57730   4.162   9.740   4.231  0.3069 -1.8506  2.7827
  428MOL0     H57731   4.212   9.373   4.077  1.0646 -1.7189  1.3464
  428MOL0     H57732   4.097   9.156   4.153 -0.6940  2.3209 -1.0453
  428MOL0     H57733   4.158   9.140   4.312  0.1185  0.1657  0.3330
  428MOL0     H57734   3.873   9.203   4.245  0.7529 -0.9049 -0.2954
  428MOL0     H57735   3.918   9.202   4.412  2.8503 -0.7731  1.0633
  428MOL0     H57736   3.917   8.978   4.206 -1.2245  0.0158  0.1853
  428MOL0     H57737   3.830   8.983   4.355 -2.6772  0.4681 -3.6714
  428MOL0     H57738   3.980   8.828   4.425  4.1741 -2.0990  2.2873
  428MOL0     H57739   4.057   8.969   4.490  0.9285 -2.0952  0.7742
  428MOL0     H57740   4.133   8.696   4.518 -0.0762  0.9740  1.8301
  428MOL0     H57741   4.176   8.519   4.622 -0.5722 -3.5433  0.7308
  428MOL0     H57742   4.204   8.388   4.510  0.3378  1.3318 -3.9953
  428MOL0     H57743   4.333   8.460   4.611  0.0987  0.1707 -1.0945
  428MOL0     H57744   4.638   8.175   4.486  0.7279 -0.7157 -0.8447
  428MOL0     H57745   4.657   7.941   4.444  1.9517  0.8734 -2.3950
  428MOL0     H57746   4.657   7.756   4.209  0.1787 -4.2616 -1.7626
  428MOL0     H57747   4.606   7.696   4.369  2.0887  1.9111 -0.0856
  428MOL0     H57748   4.439   7.554   4.252 -2.0205  4.1375 -1.1761
  428MOL0     H57749   4.492   7.617   4.094  1.0249 -0.8302 -0.9384
  428MOL0     H57750   4.714   7.512   4.268  0.3141 -1.3022 -0.2810
  428MOL0     H57751   4.706   7.506   4.092  1.5164 -1.7929 -0.7581
  428MOL0     H57752   4.579   7.315   4.291 -0.3794 -0.1790  0.0210
  428MOL0     H57753   4.507   7.326   4.141 -0.2582  1.6813 -0.7418
  428MOL0     H57754   4.801   7.287   4.168  0.2514 -1.2372  0.3517
  428MOL0     H57755   4.721   7.285   4.020  1.6032  2.5366  1.0468
  428MOL0     H57756   4.762   7.072   4.074 -0.0769  0.8619 -0.2948
  428MOL0     H57757   4.711   7.080   4.249 -2.5611  1.4953  1.0363
  428MOL0     H57758   4.500   7.128   4.045 -2.9508 -0.5640  1.7349
  428MOL0     H57759   4.491   7.078   4.219  1.8639 -1.8433  1.3415
  428MOL0     H57760   4.578   6.863   4.168  1.4849 -1.2302 -0.4203
  428MOL0     H57761   4.589   6.903   3.994 -1.3952  0.5310 -0.4486
  428MOL0     H57762   4.294   7.958   4.209  1.2409 -2.1441 -0.4284
  428MOL0     H57763   4.279   8.192   4.247  0.4474 -3.0198 -2.2561
  428MOL0     H57764   4.456   8.655   4.149 -0.3836 -0.7634  0.4239
  428MOL0     H57765   4.330   8.857   4.170  1.1933 -0.0569 -0.5686
  428MOL0     H57766   4.911  10.192   3.805  2.5543 -1.6011 -0.0025
  428MOL0     H57767   5.117  10.159   3.687  0.5458  2.3690  0.2209
  428MOL0     H57768   5.284  10.019   3.217  0.1215  1.5150 -1.1858
  428MOL0     H57769   5.473   9.943   3.110  1.7721 -2.0657  0.6890
  428MOL0     H57770   5.746   9.868   3.364 -0.3140 -3.0439 -0.5176
  428MOL0     H57771   5.731   9.777   3.214  0.7678 -0.0835 -0.3907
  428MOL0     H57772   5.942   9.965   3.325 -0.8627  1.7922 -1.3725
  428MOL0     H57773   5.970   9.894   3.160 -1.8491  1.6111 -1.1966
  428MOL0     H57774   5.970   9.670   3.255  3.0679 -2.4422  1.3868
  428MOL0     H57775   5.933   9.744   3.412  0.6003  0.3237  0.8982
  428MOL0     H57776   6.153   9.806   3.452 -1.8419  1.6140 -0.6844
  428MOL0     H57777   6.176   9.847   3.281 -0.6674  2.8386  1.8482
  428MOL0     H57778   6.328   9.453   3.308 -1.0128  0.2170 -0.8887
  428MOL0     H57779   5.728  10.131   3.373  1.1722 -1.6193 -2.6084
  428MOL0     H57780   5.530  10.196   3.525  0.8923  1.7876 -0.6734
  429MOL0     O57781  10.148   5.470   6.673 -0.3017 -0.0795 -0.7149
  429MOL0     C57782  10.245   5.468   6.752 -0.4622 -0.4018 -0.2096
  429MOL0     O57783  10.256   5.403   6.873 -0.4170  0.1310 -0.6870
  429MOL0     C57784  10.164   5.320   6.917  0.0499  0.3644 -0.7744
  429MOL0     C57785  10.203   5.189   6.939  0.1787 -0.1717 -0.2454
  429MOL0     C57786  10.109   5.095   6.976  0.5552  0.2627  0.6430
  429MOL0     C57787   9.970   5.126   6.980  0.4359  0.0832  0.0697
  429MOL0     O57788   9.865   5.036   6.976 -0.0325 -0.0983  0.4369
  429MOL0     C57789   9.893   4.901   6.960  0.2397  0.7676 -0.0888
  429MOL0     C57790   9.763   4.822   6.948  0.1940  0.4776 -0.5459
  429MOL0     C57791   9.769   4.682   6.897  0.0457  0.0155 -0.7145
  429MOL0     C57792   9.770   4.674   6.749  0.4290  0.2849 -0.4188
  429MOL0     C57793   9.780   4.524   6.726  0.0488 -1.3597  0.4228
  429MOL0     C57794   9.741   4.488   6.589  0.8131  0.5896  0.3080
  429MOL0     C57795   9.782   4.349   6.536 -0.3004  0.0288  0.5539
  429MOL0     C57796   9.702   4.291   6.419 -0.1721  0.1436  0.3225
  429MOL0     N57797   9.683   4.384   6.303 -0.8403 -0.1251  0.6106
  429MOL0     C57798   9.777   4.412   6.207 -0.9243  0.1327 -0.0966
  429MOL0     C57799   9.700   4.493   6.123 -0.0497 -0.7965 -0.4792
  429MOL0     C57800   9.731   4.560   5.995  0.1521 -0.2963 -0.2018
  429MOL0     C57801   9.838   4.673   6.011  0.3506 -1.0784  0.1859
  429MOL0     C57802   9.770   4.794   6.080  0.4597  0.5394  0.1357
  429MOL0     C57803   9.682   4.877   5.986 -0.1509 -0.6670  0.0790
  429MOL0     O57804   9.764   4.940   5.894  0.1590 -0.4102  0.0690
  429MOL0     C57805   9.712   4.980   5.773 -0.1807 -0.1070  0.6093
  429MOL0     C57806   9.576   5.018   5.745 -0.4310 -0.0353 -0.3832
  429MOL0     C57807   9.537   5.059   5.613  0.1825 -0.0828 -0.1950
  429MOL0     C57808   9.386   5.100   5.599 -0.2023  0.5256  0.1824
  429MOL0     C57809   9.633   5.074   5.504  0.0542  0.1798  0.1761
  429MOL0     C57810   9.608   5.117   5.365  0.2652  0.8141 -0.1127
  429MOL0     O57811   9.723   5.128   5.288  0.3034  0.6094  0.4736
  429MOL0     C57812   9.752   5.215   5.187  0.2379 -0.0603  0.1798
  429MOL0     C57813   9.859   5.185   5.104 -0.1697 -0.2073 -0.2416
  429MOL0     C57814   9.892   5.262   5.002  0.6089  0.3771  0.3385
  429MOL0     C57815   9.831   5.392   4.988  0.8361 -0.3662 -0.4130
  429MOL0     O57816   9.859   5.486   4.895 -0.6445 -0.4004  0.2216
  429MOL0     C57817   9.986   5.472   4.821  1.3391 -0.6773  0.3111
  429MOL0     C57818   9.992   5.585   4.719 -0.2300  0.5896  0.1707
  429MOL0     C57819  10.054   5.725   4.761  0.7424  1.0516 -0.3727
  429MOL0     C57820  10.175   5.714   4.846 -1.2275 -0.1212  0.1867
  429MOL0     C57821  10.295   5.639   4.773 -0.9646 -0.2240  0.4938
  429MOL0     C57822  10.424   5.646   4.846 -0.0907 -0.8098  0.8558
  429MOL0     C57823  10.540   5.596   4.757  0.0872  0.2337  0.0307
  429MOL0     C57824  10.587   5.708   4.672 -0.6774 -0.1566 -0.1381
  429MOL0    Cl57825  10.675   5.826   4.769  0.7129 -0.2645 -0.1858
  429MOL0     C57826   9.725   5.425   5.064  0.1897 -0.8055 -0.5325
  429MOL0     C57827   9.685   5.338   5.173  1.0893 -0.0339  0.0982
  429MOL0     O57828   9.496   5.165   5.339 -0.1044  0.0257 -0.5687
  429MOL0     C57829   9.765   5.035   5.533  1.1513 -0.5540 -1.1272
  429MOL0     C57830   9.797   4.987   5.660  0.3325  0.9993  0.3041
  429MOL0     N57831   9.568   4.501   6.167  0.5252 -0.1353  0.9732
  429MOL0     N57832   9.561   4.427   6.272  0.6817 -0.5027  0.0680
  429MOL0     C57833   9.932   5.257   6.960 -0.3232  0.7128  0.3591
  429MOL0     C57834  10.029   5.350   6.926  0.3515  0.9180  0.3788
  429MOL0     C57835  10.367   5.550   6.731 -0.1040 -0.0074 -0.3747
  429MOL0     C57836  10.484   5.528   6.803 -0.0499 -0.5098 -0.1635
  429MOL0     C57837  10.608   5.599   6.788  0.4399 -0.9432  0.0861
  429MOL0     C57838  10.603   5.708   6.699  0.2970 -0.7730  0.2033
  429MOL0     O57839  10.714   5.787   6.704  0.3653  0.1969 -0.3506
  429MOL0     C57840  10.758   5.852   6.581  0.2494 -0.5528 -0.3155
  429MOL0     C57841  10.894   5.919   6.599  0.5085  0.2855  0.2987
  429MOL0     C57842  10.883   6.049   6.673 -0.6226  0.0843 -0.3146
  429MOL0     C57843  11.025   6.104   6.712 -0.5221  0.0133  0.4090
  429MOL0     C57844  11.081   6.195   6.616  0.1267  0.0198 -1.1088
  429MOL0     C57845  11.140   6.277   6.543 -0.1682 -0.3790 -0.3783
  429MOL0     C57846  10.482   5.736   6.626 -0.5831 -0.2940 -0.0360
  429MOL0     C57847  10.367   5.653   6.638 -0.3354 -0.2113  0.2075
  429MOL0     H57848  10.307   5.161   6.928  0.5296 -0.0416  2.1436
  429MOL0     H57849  10.139   4.993   6.999  3.6018  1.2215  1.4637
  429MOL0     H57850   9.952   4.874   6.871  1.2847 -1.6766  1.2526
  429MOL0     H57851   9.945   4.867   7.049  1.4770 -0.4129 -1.2109
  429MOL0     H57852   9.717   4.825   7.047  0.3181 -0.8275 -0.4399
  429MOL0     H57853   9.696   4.878   6.882 -1.3401  0.0145  0.5682
  429MOL0     H57854   9.860   4.632   6.931  0.1049  0.3722 -0.3344
  429MOL0     H57855   9.690   4.621   6.943 -0.6309 -0.2587 -2.1815
  429MOL0     H57856   9.680   4.716   6.703  0.1979 -0.7287 -0.9107
  429MOL0     H57857   9.860   4.722   6.709  1.1673  0.0163  0.8451
  429MOL0     H57858   9.883   4.490   6.740  1.1087  1.9870  1.8793
  429MOL0     H57859   9.716   4.471   6.796  0.4216 -0.0394  1.8364
  429MOL0     H57860   9.633   4.500   6.582  0.7010  0.6121  1.7421
  429MOL0     H57861   9.796   4.553   6.521  0.2629  0.5890 -0.1392
  429MOL0     H57862   9.888   4.347   6.510 -0.0102 -0.8389  1.7089
  429MOL0     H57863   9.765   4.288   6.625  1.0073 -0.6696  0.3352
  429MOL0     H57864   9.603   4.262   6.457  0.2242 -1.5271  0.1361
  429MOL0     H57865   9.753   4.198   6.396 -1.8119 -0.9289  0.8339
  429MOL0     H57866   9.883   4.389   6.198 -1.4025 -4.2412  2.6792
  429MOL0     H57867   9.776   4.479   5.937  0.6932  0.8463 -1.4251
  429MOL0     H57868   9.642   4.591   5.939 -0.1972 -3.4610 -1.6476
  429MOL0     H57869   9.876   4.706   5.914  1.4444 -0.8514  0.6734
  429MOL0     H57870   9.925   4.634   6.065  2.3988  2.9147  0.1386
  429MOL0     H57871   9.843   4.860   6.129  2.0942 -2.0311  1.3890
  429MOL0     H57872   9.710   4.752   6.161 -0.8504  0.9315 -0.6015
  429MOL0     H57873   9.623   4.944   6.049  0.1043 -0.2665 -0.1091
  429MOL0     H57874   9.618   4.806   5.933  0.9990 -2.0079  0.4256
  429MOL0     H57875   9.507   5.012   5.828 -0.3232  0.1446 -0.2800
  429MOL0     H57876   9.337   5.054   5.512 -1.5742  0.9712  0.6936
  429MOL0     H57877   9.316   5.079   5.681  0.3029 -0.9885  0.2621
  429MOL0     H57878   9.392   5.206   5.571  3.7036  0.1876 -0.8029
  429MOL0     H57879   9.904   5.087   5.119 -3.7833 -2.0172 -0.0804
  429MOL0     H57880   9.985   5.232   4.955 -0.2249 -1.0144 -0.4927
  429MOL0     H57881  10.075   5.470   4.884  3.2328  1.0519 -2.1154
  429MOL0     H57882   9.977   5.382   4.760 -2.5370  2.0397 -3.8088
  429MOL0     H57883  10.055   5.550   4.636 -1.0939  0.5863 -0.5042
  429MOL0     H57884   9.897   5.598   4.665 -0.7504  2.4546  1.4552
  429MOL0     H57885   9.974   5.784   4.808 -0.6755 -3.1710  3.1560
  429MOL0     H57886  10.091   5.774   4.671  3.4392  0.4320  0.3003
  429MOL0     H57887  10.202   5.817   4.869 -1.1721 -0.3088  0.9940
  429MOL0     H57888  10.154   5.670   4.944  1.0529  0.9862  1.2458
  429MOL0     H57889  10.299   5.674   4.669  4.0283 -3.8654 -0.9398
  429MOL0     H57890  10.276   5.531   4.769  1.1573 -0.6148 -2.7489
  429MOL0     H57891  10.436   5.752   4.869  2.0005 -0.5821 -0.9290
  429MOL0     H57892  10.431   5.590   4.939  4.2187  1.1156  1.9455
  429MOL0     H57893  10.514   5.511   4.694 -2.5574 -1.3028  2.9016
  429MOL0     H57894  10.620   5.563   4.825 -0.0698  1.7371  0.9905
  429MOL0     H57895  10.504   5.767   4.632  2.4625  2.0109 -4.2170
  429MOL0     H57896  10.657   5.675   4.595 -0.6400 -0.9629  0.2369
  429MOL0     H57897   9.672   5.518   5.048 -1.2982 -1.8622 -2.3139
  429MOL0     H57898   9.599   5.370   5.231  0.2435  0.4043 -1.3670
  429MOL0     H57899   9.854   5.032   5.470  1.5195  0.9273 -0.7331
  429MOL0     H57900   9.902   4.963   5.678 -0.2279 -0.2179  2.1521
  429MOL0     H57901   9.830   5.293   6.969  0.0435  1.8396  0.1298
  429MOL0     H57902   9.992   5.449   6.904  1.3070  0.9177 -1.3871
  429MOL0     H57903  10.479   5.447   6.876  2.3155  1.0858  1.9309
  429MOL0     H57904  10.693   5.575   6.852 -1.0824 -2.1540  1.7808
  429MOL0     H57905  10.778   5.776   6.504 -0.6698 -0.0522 -1.0709
  429MOL0     H57906  10.681   5.912   6.531 -0.2813 -0.2830  0.8066
  429MOL0     H57907  10.946   5.928   6.503 -1.3014 -1.7225 -0.9648
  429MOL0     H57908  10.962   5.856   6.657  0.2273  0.0082  0.3249
  429MOL0     H57909  10.824   6.042   6.765  1.0648 -3.3961  0.6581
  429MOL0     H57910  10.828   6.124   6.615 -0.5591  2.1712  2.1424
  429MOL0     H57911  11.095   6.023   6.735  0.3591  0.6352 -0.0290
  429MOL0     H57912  11.008   6.172   6.796 -2.8252  0.9706 -0.7591
  429MOL0     H57913  11.193   6.341   6.476  1.0298 -3.0195 -2.1211
  429MOL0     H57914  10.477   5.823   6.561  1.9500 -0.6130 -0.7932
  429MOL0     H57915  10.274   5.660   6.584 -1.4076 -2.7755  1.5697
  430MOL0     O57916   3.058   1.342   2.417 -0.2356 -0.6146  0.0006
  430MOL0     C57917   3.080   1.453   2.368  0.6696 -0.3358  0.2105
  430MOL0     O57918   2.983   1.536   2.324  0.2974  0.1601 -0.1672
  430MOL0     C57919   2.858   1.491   2.291 -0.5940 -0.0871 -0.2246
  430MOL0     C57920   2.738   1.548   2.339 -0.0929  0.0493 -0.4885
  430MOL0     C57921   2.612   1.487   2.317 -0.6461  0.3002 -0.3167
  430MOL0     C57922   2.600   1.383   2.222 -0.3922  0.3352 -0.1542
  430MOL0     O57923   2.485   1.314   2.192 -0.5175 -0.2600 -0.4649
  430MOL0     C57924   2.357   1.379   2.217 -0.2483  0.2033 -0.3911
  430MOL0     C57925   2.260   1.318   2.123  0.3690 -0.2406  0.2361
  430MOL0     C57926   2.204   1.187   2.170  0.6151  0.0206  0.0384
  430MOL0     C57927   2.079   1.142   2.104 -0.0241  0.7608 -0.2255
  430MOL0     C57928   2.021   1.020   2.167  0.1973 -0.2533  0.1566
  430MOL0     C57929   2.116   0.906   2.183  0.0362 -0.1974  0.1835
  430MOL0     C57930   2.043   0.773   2.197 -0.1819  0.2750  0.7563
  430MOL0     C57931   1.960   0.727   2.068 -0.1149  1.0410  0.4817
  430MOL0     N57932   2.035   0.745   1.941  0.4732 -0.3754 -0.3699
  430MOL0     C57933   2.029   0.854   1.857 -0.0203  0.3980  0.1932
  430MOL0     C57934   2.130   0.840   1.759 -0.5051  0.9839 -0.3227
  430MOL0     C57935   2.179   0.939   1.653  1.1011 -0.4192 -0.2841
  430MOL0     C57936   2.324   0.923   1.626 -0.2442  0.1602 -0.4020
  430MOL0     C57937   2.415   0.945   1.740 -0.6889 -0.3230 -0.6478
  430MOL0     C57938   2.405   1.094   1.796 -0.3162 -0.1028  0.1341
  430MOL0     O57939   2.453   1.174   1.694  0.5903 -0.0057  0.5758
  430MOL0     C57940   2.565   1.251   1.727  0.5178  1.4444 -0.9498
  430MOL0     C57941   2.563   1.388   1.697 -0.4387  0.7464  0.5919
  430MOL0     C57942   2.673   1.471   1.715  0.3692 -0.1770  0.2266
  430MOL0     C57943   2.655   1.621   1.682  0.1609  0.1675  0.1495
  430MOL0     C57944   2.790   1.417   1.766 -1.1707 -0.2013  0.3849
  430MOL0     C57945   2.913   1.496   1.777 -0.3629 -0.3703 -0.4898
  430MOL0     O57946   2.993   1.462   1.881  0.4087 -0.5528  0.4095
  430MOL0     C57947   3.125   1.498   1.881  0.2078  0.1094  0.5861
  430MOL0     C57948   3.209   1.403   1.949  0.0840 -0.8211  0.0628
  430MOL0     C57949   3.338   1.432   1.982 -1.1482 -1.0442 -0.0726
  430MOL0     C57950   3.402   1.556   1.944  0.2374 -0.4048 -0.9088
  430MOL0     O57951   3.531   1.582   1.973  0.5348 -0.0976  0.6435
  430MOL0     C57952   3.611   1.476   2.016 -0.5096 -0.1816  0.3528
  430MOL0     C57953   3.759   1.524   2.053  0.2045  0.1906 -0.0089
  430MOL0     C57954   3.838   1.401   2.097  0.0924 -0.2877 -0.4087
  430MOL0     C57955   3.980   1.445   2.136  0.8972  0.0274 -0.6287
  430MOL0     C57956   4.075   1.449   2.030 -0.2261 -0.3245  0.6009
  430MOL0     C57957   4.154   1.317   2.012 -0.3290 -0.1173  0.2001
  430MOL0     C57958   4.290   1.346   1.933  0.0329  0.2880  0.2502
  430MOL0     C57959   4.268   1.386   1.783 -0.9393  0.4417 -0.6832
  430MOL0    Cl57960   4.431   1.427   1.731  0.0490 -0.2284  0.2777
  430MOL0     C57961   3.321   1.646   1.874  0.0033 -0.0133  0.1344
  430MOL0     C57962   3.185   1.620   1.841 -0.4109 -0.1890 -0.5337
  430MOL0     O57963   2.941   1.581   1.687  0.5712  0.0039  0.0068
  430MOL0     C57964   2.803   1.279   1.777  0.0576 -0.5388 -0.2622
  430MOL0     C57965   2.694   1.193   1.755  0.1951  0.0858 -0.5520
  430MOL0     N57966   2.179   0.713   1.777  0.1954 -0.2849 -0.4173
  430MOL0     N57967   2.124   0.663   1.889 -0.3022  0.9484  0.2336
  430MOL0     C57968   2.715   1.327   2.166  0.1960 -0.6016  0.4105
  430MOL0     C57969   2.837   1.376   2.205  0.1948  0.2923 -0.4769
  430MOL0     C57970   3.229   1.491   2.371  1.1203  0.0434  0.0671
  430MOL0     C57971   3.272   1.603   2.299 -0.7155 -0.0353 -0.2361
  430MOL0     C57972   3.408   1.631   2.292  0.0204  0.6582  0.8963
  430MOL0     C57973   3.507   1.558   2.376  0.0037 -0.4225 -0.3500
  430MOL0     O57974   3.643   1.597   2.380  0.1758  0.0889 -0.1182
  430MOL0     C57975   3.738   1.536   2.468  0.6252 -0.4507 -0.3847
  430MOL0     C57976   3.863   1.620   2.473 -1.2268  0.0838 -0.1181
  430MOL0     C57977   3.982   1.537   2.540  0.4484  0.0793 -0.4886
  430MOL0     C57978   4.110   1.617   2.574 -0.2965 -0.2379  0.7069
  430MOL0     C57979   4.175   1.646   2.446  0.2131  0.9227  0.5586
  430MOL0     C57980   4.216   1.657   2.335  0.2151 -0.6259  0.1354
  430MOL0     C57981   3.461   1.454   2.461 -0.5525  0.2878 -0.7408
  430MOL0     C57982   3.321   1.420   2.454 -0.6717  0.6130 -0.5666
  430MOL0     H57983   2.740   1.636   2.403  0.3567  1.3384 -2.2098
  430MOL0     H57984   2.524   1.511   2.376 -2.8310 -0.9154 -2.8144
  430MOL0     H57985   2.329   1.374   2.323  0.2507 -0.6440 -0.2912
  430MOL0     H57986   2.359   1.488   2.204 -1.0234  0.5764  2.0515
  430MOL0     H57987   2.176   1.388   2.110  0.1425 -0.8378 -1.7988
  430MOL0     H57988   2.290   1.315   2.018  0.4458  0.2307  0.2426
  430MOL0     H57989   2.285   1.114   2.171  0.2978 -0.3689 -1.1804
  430MOL0     H57990   2.175   1.199   2.274  0.2311 -1.7976  0.1650
  430MOL0     H57991   2.005   1.221   2.116 -1.0040 -0.3750  1.6994
  430MOL0     H57992   2.095   1.124   1.998  3.9637  0.1186  0.3197
  430MOL0     H57993   1.978   1.038   2.266  0.3019 -3.2309  0.8272
  430MOL0     H57994   1.932   0.988   2.112 -0.7393  0.3083  1.3085
  430MOL0     H57995   2.190   0.898   2.103  0.1442  0.2372  0.2387
  430MOL0     H57996   2.168   0.921   2.277 -2.3632 -0.4735  1.6351
  430MOL0     H57997   2.125   0.702   2.203 -0.5932 -0.2659  0.0512
  430MOL0     H57998   1.982   0.774   2.288 -0.9807 -2.7816  0.3596
  430MOL0     H57999   1.868   0.786   2.071 -0.2993  0.7444  2.8847
  430MOL0     H58000   1.943   0.621   2.088  3.3962  0.6024  1.8890
  430MOL0     H58001   1.970   0.942   1.879 -0.1264  0.9547 -2.0660
  430MOL0     H58002   2.126   0.923   1.559 -0.1318  0.1625  0.2899
  430MOL0     H58003   2.152   1.039   1.688  0.3745 -1.8050  3.6291
  430MOL0     H58004   2.360   0.984   1.542  1.0033 -1.5449 -1.1809
  430MOL0     H58005   2.351   0.822   1.593 -1.0596  0.2336 -1.3430
  430MOL0     H58006   2.520   0.938   1.710 -0.0465 -1.0981  1.5862
  430MOL0     H58007   2.406   0.870   1.819 -1.0524  0.4593  0.0672
  430MOL0     H58008   2.479   1.091   1.877  1.9308 -1.4887 -1.8587
  430MOL0     H58009   2.305   1.120   1.832 -1.0625  0.8835 -2.4402
  430MOL0     H58010   2.479   1.424   1.639 -0.8223 -2.3830 -0.9900
  430MOL0     H58011   2.658   1.629   1.573 -1.8052 -0.3180  0.0232
  430MOL0     H58012   2.561   1.652   1.728  1.4725  0.7868  2.6306
  430MOL0     H58013   2.733   1.685   1.726  0.7778  0.9091 -1.8989
  430MOL0     H58014   3.175   1.313   1.998  2.3229 -2.2626 -0.8400
  430MOL0     H58015   3.383   1.347   2.032  1.0907 -1.6508 -2.8713
  430MOL0     H58016   3.569   1.429   2.106 -1.4574  2.6754  1.5031
  430MOL0     H58017   3.628   1.411   1.930 -0.7096  3.1776 -2.4509
  430MOL0     H58018   3.809   1.571   1.967 -0.8587  2.2631  0.4526
  430MOL0     H58019   3.752   1.605   2.125  0.4743  1.5091 -1.4257
  430MOL0     H58020   3.822   1.312   2.036 -1.3228 -1.0085  0.9527
  430MOL0     H58021   3.794   1.372   2.193 -0.9236 -0.5430 -0.9354
  430MOL0     H58022   3.978   1.544   2.183 -0.7610 -1.4464  2.7541
  430MOL0     H58023   4.013   1.380   2.218  2.2205  2.1777  0.6596
  430MOL0     H58024   4.148   1.529   2.043 -1.7270  1.1110  0.6131
  430MOL0     H58025   4.016   1.463   1.939  0.5713 -1.8374 -0.1962
  430MOL0     H58026   4.173   1.287   2.115 -0.1305 -0.1418  0.1568
  430MOL0     H58027   4.093   1.243   1.959 -1.6266  1.5661 -0.7475
  430MOL0     H58028   4.354   1.257   1.932 -0.4818 -0.0867  0.3317
  430MOL0     H58029   4.336   1.432   1.981 -1.3323  2.5724 -2.2704
  430MOL0     H58030   4.195   1.466   1.772 -0.3673  1.1951  0.6445
  430MOL0     H58031   4.226   1.298   1.734 -1.9592  0.2794  0.4371
  430MOL0     H58032   3.359   1.742   1.841  0.1019  0.1838  0.8163
  430MOL0     H58033   3.136   1.697   1.783 -0.2055  0.1744 -0.2291
  430MOL0     H58034   2.902   1.238   1.796  0.0833  0.3490  1.6901
  430MOL0     H58035   2.717   1.088   1.770  2.8303  0.3066 -2.4650
  430MOL0     H58036   2.706   1.240   2.102 -2.0605  0.4651 -0.8532
  430MOL0     H58037   2.919   1.313   2.173 -2.1015 -3.8395  1.0583
  430MOL0     H58038   3.199   1.667   2.249  2.3344  3.1811 -1.0462
  430MOL0     H58039   3.448   1.705   2.223  0.9465 -0.6526 -0.0182
  430MOL0     H58040   3.692   1.535   2.568  0.9991  4.1602  0.0396
  430MOL0     H58041   3.756   1.432   2.438  1.0125 -0.6864  0.6176
  430MOL0     H58042   3.861   1.721   2.514  1.8592  0.2434 -0.0763
  430MOL0     H58043   3.894   1.632   2.369 -0.3553 -0.6260  0.0389
  430MOL0     H58044   4.007   1.449   2.479 -1.8578  0.2262 -1.7210
  430MOL0     H58045   3.933   1.506   2.633  0.9744  1.0645  0.1361
  430MOL0     H58046   4.171   1.549   2.635 -0.4888  0.9794  2.3340
  430MOL0     H58047   4.101   1.703   2.641  0.5820 -1.8239  2.9903
  430MOL0     H58048   4.274   1.667   2.246 -1.6026 -1.3197 -1.1827
  430MOL0     H58049   3.512   1.379   2.519 -1.7662 -0.3930 -0.5092
  430MOL0     H58050   3.292   1.332   2.510  0.3656  1.1931  0.9452
  431MOL0     O58051   3.840  10.648  10.860  0.1466 -0.8009  0.2050
  431MOL0     C58052   3.840  10.535  10.841 -0.1151  0.4994  0.4828
  431MOL0     O58053   3.734  10.447  10.825 -0.2295  0.3191 -0.3438
  431MOL0     C58054   3.605  10.497  10.828 -0.2348  0.3167 -0.3402
  431MOL0     C58055   3.561  10.611  10.768 -0.2562 -0.2324  0.3536
  431MOL0     C58056   3.433  10.665  10.771 -0.2733 -0.5215  0.6499
  431MOL0     C58057   3.329  10.595  10.825  0.0705  0.3747  0.0735
  431MOL0     O58058   3.189  10.619  10.794  0.7120 -0.3848 -0.1747
  431MOL0     C58059   3.161  10.740  10.716  1.0144 -0.3092  0.1950
  431MOL0     C58060   3.012  10.729  10.676  0.0262  0.0345  0.3550
  431MOL0     C58061   2.939  10.860  10.671  0.2344  0.1334 -0.6097
  431MOL0     C58062   2.957  10.949  10.540 -0.1974  0.9535 -0.2874
  431MOL0     C58063   2.881  11.074  10.552  0.6953 -0.9268  0.7551
  431MOL0     C58064   2.742  11.072  10.489  0.4097 -0.2771  0.5318
  431MOL0     C58065   2.638  10.987  10.564  0.1750 -0.3673 -0.7291
  431MOL0     C58066   2.609  11.030  10.713 -0.1618  0.3338  0.3669
  431MOL0     N58067   2.537  11.154  10.698 -0.9684  0.9051 -0.7304
  431MOL0     C58068   2.404  11.164  10.687 -0.0546 -0.8366 -0.0886
  431MOL0     C58069   2.384  11.296  10.702  0.8510  0.3764 -0.2271
  431MOL0     C58070   2.246  11.352  10.705  0.3577  0.0930 -0.4216
  431MOL0     C58071   2.129  11.276  10.639  0.0766 -0.5744 -1.0032
  431MOL0     C58072   2.146  11.260  10.483 -0.5951 -0.0398  0.4303
  431MOL0     C58073   2.018  11.218  10.413  1.0070 -0.4170  0.2696
  431MOL0     O58074   1.907  11.305  10.459  0.4070 -1.1663  0.8450
  431MOL0     C58075   1.787  11.267  10.411 -0.2846  0.4582 -0.2978
  431MOL0     C58076   1.753  11.211  10.285 -0.2316 -0.3154 -0.6375
  431MOL0     C58077   1.626  11.173  10.242 -0.3920  0.1992 -0.0057
  431MOL0     C58078   1.609  11.108  10.103 -0.1582 -0.5917 -0.5592
  431MOL0     C58079   1.519  11.190  10.330  0.2450 -0.3904  0.2349
  431MOL0     C58080   1.373  11.168  10.312 -0.4948 -0.6893  0.4070
  431MOL0     O58081   1.281  11.239  10.388 -0.2893  0.1199  0.5380
  431MOL0     C58082   1.147  11.205  10.402  0.0302  0.2824 -0.1604
  431MOL0     C58083   1.087  11.247  10.518 -1.1474  0.8841  1.5686
  431MOL0     C58084   0.948  11.240  10.532 -0.2584  0.4270  0.3902
  431MOL0     C58085   0.868  11.186  10.436 -0.0446 -0.5695  0.7590
  431MOL0     O58086   0.736  11.193  10.458  0.0933 -0.5697  0.0223
  431MOL0     C58087   0.664  11.071  10.422  0.1175 -0.1584 -0.0909
  431MOL0     C58088   0.535  11.063  10.504  0.5314 -0.7175 -0.4736
  431MOL0     C58089   0.567  11.075  10.660  0.2140  0.5606 -0.7415
  431MOL0     C58090   0.644  10.951  10.712 -0.0768  0.3385 -1.6433
  431MOL0     C58091   0.585  10.817  10.679  0.1746 -0.1751 -0.5752
  431MOL0     C58092   0.463  10.771  10.756  0.1858 -0.9372 -0.0625
  431MOL0     C58093   0.429  10.620  10.740  0.0436 -0.2228  0.0012
  431MOL0     C58094   0.313  10.573  10.823  0.0989  0.1966  0.1672
  431MOL0    Cl58095   0.364  10.501  10.977  0.1603 -0.2884 -0.2640
  431MOL0     C58096   0.924  11.145  10.318 -0.0245  0.3372 -1.0323
  431MOL0     C58097   1.062  11.161  10.303  0.8256 -0.2532  0.6395
  431MOL0     O58098   1.343  11.080  10.236 -0.2479  0.5738 -0.2062
  431MOL0     C58099   1.546  11.252  10.454 -1.0030  0.2370 -0.0051
  431MOL0     C58100   1.680  11.280  10.494 -0.1108 -0.0364  0.2158
  431MOL0     N58101   2.503  11.364  10.717 -0.3842 -0.2635 -0.1957
  431MOL0     N58102   2.604  11.275  10.714  0.3637  0.4754  0.0077
  431MOL0     C58103   3.374  10.472  10.891  0.3549  0.2309  0.1061
  431MOL0     C58104   3.502  10.427  10.894 -0.8657  0.9634 -0.5134
  431MOL0     C58105   3.971  10.466  10.845  0.0950 -0.5243  0.2653
  431MOL0     C58106   3.993  10.327  10.843  0.6284 -0.7230 -0.4568
  431MOL0     C58107   4.114  10.266  10.853  0.0267  0.5620  0.4835
  431MOL0     C58108   4.230  10.345  10.863  0.0579  0.7487 -0.8456
  431MOL0     O58109   4.360  10.301  10.884  0.0552  0.3314  0.5730
  431MOL0     C58110   4.391  10.182  10.804 -0.6153 -0.6083 -0.4593
  431MOL0     C58111   4.535  10.197  10.753 -0.4647 -0.0808  0.5346
  431MOL0     C58112   4.641  10.255  10.853  0.0381  0.1065  0.1028
  431MOL0     C58113   4.784  10.264  10.788  0.1077 -0.0317  0.8935
  431MOL0     C58114   4.885  10.259  10.890  0.1532 -0.2462 -0.0455
  431MOL0     C58115   4.957  10.257  10.991  0.0612 -0.0881 -0.3305
  431MOL0     C58116   4.215  10.481  10.883 -0.1506  0.7915  0.1688
  431MOL0     C58117   4.088  10.535  10.876 -0.7697 -0.0013 -0.4843
  431MOL0     H58118   3.640  10.673  10.726  0.3221 -0.8959  0.4370
  431MOL0     H58119   3.415  10.764  10.731 -1.5530 -1.1754 -0.4798
  431MOL0     H58120   3.170  10.823  10.787 -5.2171  0.8029  0.2975
  431MOL0     H58121   3.218  10.776  10.630 -2.3223  2.2710 -1.1994
  431MOL0     H58122   2.995  10.666  10.588 -1.3872 -0.8023  1.1847
  431MOL0     H58123   2.966  10.667  10.753 -0.4713 -0.3984 -0.2782
  431MOL0     H58124   2.832  10.845  10.688 -0.0557  2.6127  0.0832
  431MOL0     H58125   2.969  10.923  10.755 -0.7174  1.3091 -1.1198
  431MOL0     H58126   3.059  10.982  10.522 -0.6932  2.7505  0.0490
  431MOL0     H58127   2.924  10.899  10.449  0.8431  0.1787 -0.2670
  431MOL0     H58128   2.867  11.118  10.651 -0.8018 -2.6798  1.3662
  431MOL0     H58129   2.942  11.151  10.503  0.2550  0.4671  2.3051
  431MOL0     H58130   2.710  11.176  10.478  0.2760 -0.5208 -2.1000
  431MOL0     H58131   2.752  11.042  10.384 -0.5242 -0.6009  0.5222
  431MOL0     H58132   2.541  10.978  10.515  1.1407 -1.2317 -2.5862
  431MOL0     H58133   2.677  10.886  10.546  1.9780  0.3614 -1.0681
  431MOL0     H58134   2.699  11.040  10.774  1.4484  1.0237 -1.9620
  431MOL0     H58135   2.549  10.953  10.762  4.0181 -3.6867 -0.1536
  431MOL0     H58136   2.328  11.088  10.672  0.5250 -1.9715  2.3131
  431MOL0     H58137   2.226  11.367  10.812  2.7641  1.0779 -0.0430
  431MOL0     H58138   2.245  11.456  10.673  0.3177  0.5342  0.9212
  431MOL0     H58139   2.040  11.336  10.661  0.5792 -0.1427 -0.1012
  431MOL0     H58140   2.125  11.178  10.686  1.2853 -0.6349 -0.9961
  431MOL0     H58141   2.221  11.183  10.463 -0.1867  0.2388  0.8460
  431MOL0     H58142   2.183  11.355  10.443 -0.3987  0.5257  1.8698
  431MOL0     H58143   2.003  11.112  10.437 -1.5234  0.4810  3.4924
  431MOL0     H58144   2.035  11.231  10.306  0.7005 -1.3853  0.0972
  431MOL0     H58145   1.837  11.200  10.218  0.1709 -0.8254 -0.0606
  431MOL0     H58146   1.702  11.122  10.047  0.3566  0.2203  0.4419
  431MOL0     H58147   1.601  11.000  10.121  1.4132 -0.4956  1.0235
  431MOL0     H58148   1.515  11.141  10.060 -1.2092 -1.1162  1.2262
  431MOL0     H58149   1.146  11.297  10.594 -0.7220  1.3072  0.9699
  431MOL0     H58150   0.890  11.269  10.619 -1.2505 -0.0150 -0.1088
  431MOL0     H58151   0.642  11.068  10.315 -0.5565 -1.7365  0.0722
  431MOL0     H58152   0.725  10.981  10.433  1.7763  0.8449 -0.6171
  431MOL0     H58153   0.478  11.151  10.474  1.5544 -0.1729 -0.8848
  431MOL0     H58154   0.466  10.981  10.483 -2.1883  0.7854  1.8921
  431MOL0     H58155   0.477  11.080  10.721  1.5084  0.1723  1.2939
  431MOL0     H58156   0.620  11.168  10.684  0.9050 -0.2380  1.0058
  431MOL0     H58157   0.742  10.953  10.665 -0.0315 -1.9802 -1.7498
  431MOL0     H58158   0.673  10.964  10.817 -1.3772  2.0192 -1.4338
  431MOL0     H58159   0.660  10.739  10.696  2.5538  1.8323 -1.2165
  431MOL0     H58160   0.575  10.803  10.571  0.0774 -1.4516 -0.4170
  431MOL0     H58161   0.492  10.788  10.860  1.2279  2.8069 -0.7892
  431MOL0     H58162   0.380  10.838  10.729  0.7269 -0.3820 -0.3822
  431MOL0     H58163   0.514  10.560  10.775 -0.5494  0.1338  2.2475
  431MOL0     H58164   0.407  10.596  10.636 -2.8058  1.6220  0.0796
  431MOL0     H58165   0.255  10.499  10.768  0.4135 -0.1763  0.3340
  431MOL0     H58166   0.246  10.656  10.845  0.7480  1.4017 -2.1541
  431MOL0     H58167   0.865  11.113  10.233  0.3042 -1.3743 -0.6641
  431MOL0     H58168   1.103  11.144  10.204 -1.6274 -1.2818 -0.2940
  431MOL0     H58169   1.468  11.267  10.529 -2.2110  2.0858 -1.5392
  431MOL0     H58170   1.695  11.323  10.592 -2.7033 -1.6089  1.4074
  431MOL0     H58171   3.299  10.397  10.915 -0.2232  0.9178  0.4972
  431MOL0     H58172   3.532  10.333  10.940 -3.4141  0.9461  1.3796
  431MOL0     H58173   3.910  10.258  10.841 -0.7445  0.8656 -1.2384
  431MOL0     H58174   4.116  10.157  10.861  0.9518  0.3367 -1.7516
  431MOL0     H58175   4.390  10.091  10.866  1.9576  0.3609  1.1581
  431MOL0     H58176   4.327  10.165  10.717 -0.9201  0.6774 -0.5003
  431MOL0     H58177   4.547  10.256  10.661  0.4414  0.0746  0.7448
  431MOL0     H58178   4.570  10.097  10.726  3.0010  1.0669  0.2489
  431MOL0     H58179   4.631  10.188  10.939 -0.7120  1.2733  0.9644
  431MOL0     H58180   4.605  10.349  10.895  0.8507 -0.0136  1.1031
  431MOL0     H58181   4.803  10.359  10.737 -1.2329  2.0669  3.9917
  431MOL0     H58182   4.796  10.170  10.733 -1.3089  0.9915 -1.3138
  431MOL0     H58183   5.019  10.266  11.078 -0.4917  1.5700 -0.0703
  431MOL0     H58184   4.311  10.530  10.886  0.8691  0.2230 -6.7505
  431MOL0     H58185   4.080  10.642  10.862 -0.7627 -0.1056 -1.3838
  432MOL0     O58186   6.123   8.087   1.643 -0.3082  0.2333 -0.3804
  432MOL0     C58187   6.228   8.145   1.598 -0.2696  0.6245 -0.4504
  432MOL0     O58188   6.223   8.236   1.506  0.2488  0.3160 -0.6936
  432MOL0     C58189   6.104   8.299   1.488 -0.0935 -0.3314  0.3490
  432MOL0     C58190   6.003   8.256   1.398 -0.3114 -0.1186  0.2811
  432MOL0     C58191   5.878   8.324   1.393 -0.5870 -0.9524  0.9003
  432MOL0     C58192   5.853   8.438   1.475 -1.0265 -0.3593  0.4912
  432MOL0     O58193   5.742   8.509   1.468  0.1261 -0.4198 -0.4651
  432MOL0     C58194   5.643   8.490   1.360 -0.1998  0.4687  0.0592
  432MOL0     C58195   5.602   8.634   1.311 -0.2134 -0.1985 -0.1648
  432MOL0     C58196   5.518   8.722   1.412 -0.1789  0.2152  0.7987
  432MOL0     C58197   5.505   8.863   1.362 -0.1372  0.3679  0.0416
  432MOL0     C58198   5.389   8.938   1.434 -0.7063  0.0682  0.4790
  432MOL0     C58199   5.390   9.086   1.387  0.3445  0.4201 -0.6305
  432MOL0     C58200   5.277   9.176   1.444 -0.5808 -0.2834  0.5591
  432MOL0     C58201   5.129   9.147   1.390  0.0091  0.7065 -0.0317
  432MOL0     N58202   5.051   9.249   1.455  0.1010  0.0683 -0.4470
  432MOL0     C58203   4.994   9.227   1.581 -0.8068  0.2646 -0.1662
  432MOL0     C58204   4.918   9.335   1.602  0.9729 -0.6819 -0.9175
  432MOL0     C58205   4.844   9.371   1.729 -0.2102 -0.8433  0.0718
  432MOL0     C58206   4.698   9.328   1.726 -0.2698 -0.9519  0.0763
  432MOL0     C58207   4.609   9.430   1.659  0.0397  0.0525  0.4505
  432MOL0     C58208   4.462   9.378   1.641  0.2453 -0.4035  0.2717
  432MOL0     O58209   4.415   9.313   1.758 -0.2661 -0.4228 -0.3383
  432MOL0     C58210   4.285   9.262   1.761  0.0243 -0.0524  0.4504
  432MOL0     C58211   4.181   9.309   1.684 -0.3517 -0.6089 -0.1825
  432MOL0     C58212   4.050   9.255   1.706 -0.9027  0.1473 -0.0551
  432MOL0     C58213   3.943   9.337   1.636 -0.0256  0.9600  0.3477
  432MOL0     C58214   4.019   9.152   1.797  0.5782 -0.1465 -0.2520
  432MOL0     C58215   3.893   9.081   1.816 -0.3014 -0.0130 -0.2662
  432MOL0     O58216   3.845   9.059   1.937  0.1292  0.3799 -0.6131
  432MOL0     C58217   3.729   8.983   1.944  0.2014 -0.1425  0.7061
  432MOL0     C58218   3.727   8.845   1.932 -0.4167  0.7598  0.7112
  432MOL0     C58219   3.609   8.766   1.951  0.1949  0.1334 -0.4125
  432MOL0     C58220   3.488   8.833   1.982  0.0400 -0.2572  0.3016
  432MOL0     O58221   3.363   8.775   1.994 -0.3093 -0.1316 -0.4549
  432MOL0     C58222   3.342   8.627   1.992  0.2044 -0.2025  0.1829
  432MOL0     C58223   3.200   8.597   2.029  0.5555  0.8173 -0.1649
  432MOL0     C58224   3.159   8.634   2.170 -1.1270 -0.0781  0.2027
  432MOL0     C58225   3.007   8.638   2.198 -1.3345  0.4699  0.3858
  432MOL0     C58226   2.986   8.646   2.354 -0.1933  0.0554 -0.2608
  432MOL0     C58227   2.861   8.568   2.386 -0.2342  0.2466 -0.1785
  432MOL0     C58228   2.817   8.621   2.527 -0.2826 -0.3867 -0.2948
  432MOL0     C58229   2.692   8.536   2.553  0.1040 -0.5769 -0.1599
  432MOL0    Cl58230   2.652   8.572   2.727 -0.6150  0.2943  0.1546
  432MOL0     C58231   3.489   8.972   1.993  0.8370 -0.0527  0.7170
  432MOL0     C58232   3.602   9.044   1.975  0.7608  0.1216 -0.3575
  432MOL0     O58233   3.837   9.044   1.714  0.2147  0.0105 -0.0234
  432MOL0     C58234   4.131   9.106   1.866 -0.0937  0.1974 -0.4824
  432MOL0     C58235   4.260   9.157   1.847  0.2355 -0.2789 -0.4494
  432MOL0     N58236   4.904   9.410   1.492  0.2418  0.8633  0.1676
  432MOL0     N58237   4.989   9.358   1.403  0.6353 -0.5004  0.0629
  432MOL0     C58238   5.947   8.480   1.566  0.0334  0.7449 -0.0819
  432MOL0     C58239   6.067   8.407   1.577 -0.4657  0.4454  0.3096
  432MOL0     C58240   6.358   8.127   1.662  0.6764  0.0499 -0.2919
  432MOL0     C58241   6.374   8.015   1.754 -0.5792 -0.8356 -0.0084
  432MOL0     C58242   6.503   7.989   1.813  0.3421 -0.6546  0.0450
  432MOL0     C58243   6.611   8.070   1.787 -0.5856  0.3828  0.0410
  432MOL0     O58244   6.733   8.039   1.840  0.7241 -0.3787  0.2913
  432MOL0     C58245   6.758   7.952   1.951  0.0812  0.0574 -0.5740
  432MOL0     C58246   6.900   7.953   1.972 -0.4994  0.0881 -0.1964
  432MOL0     C58247   6.936   8.077   2.052  0.4245 -0.7741 -0.5480
  432MOL0     C58248   7.086   8.099   2.067 -1.5401  0.4530 -1.3338
  432MOL0     C58249   7.130   8.220   2.134  0.6631  0.1058 -0.3225
  432MOL0     C58250   7.164   8.330   2.164 -0.4882  0.6976  0.2395
  432MOL0     C58251   6.595   8.177   1.697 -0.5509 -1.0340 -0.6064
  432MOL0     C58252   6.472   8.208   1.646 -0.3104 -0.0522  0.0419
  432MOL0     H58253   6.014   8.172   1.330  1.4530 -0.2658  0.7196
  432MOL0     H58254   5.803   8.282   1.326 -2.0580  1.0367  1.2009
  432MOL0     H58255   5.684   8.439   1.272 -0.6227  3.0661 -1.7660
  432MOL0     H58256   5.556   8.429   1.386  1.1428 -2.0049 -0.8738
  432MOL0     H58257   5.691   8.695   1.291 -0.9482  1.5258  1.5481
  432MOL0     H58258   5.539   8.622   1.222  1.2838  0.8639 -1.4371
  432MOL0     H58259   5.419   8.678   1.424 -0.4990  0.8468  0.5523
  432MOL0     H58260   5.569   8.719   1.508 -2.1052  1.3011  1.9225
  432MOL0     H58261   5.605   8.905   1.373  0.4768 -0.8841 -0.4911
  432MOL0     H58262   5.474   8.871   1.257  0.1553  0.7843 -0.0133
  432MOL0     H58263   5.291   8.892   1.419 -0.4504 -0.6731  0.9862
  432MOL0     H58264   5.407   8.928   1.541  1.1736  0.4464  0.2226
  432MOL0     H58265   5.488   9.124   1.418 -0.0659  0.3944  0.7927
  432MOL0     H58266   5.381   9.082   1.278 -0.7234 -0.2624 -0.5323
  432MOL0     H58267   5.283   9.171   1.553  1.2394 -0.8011  0.4680
  432MOL0     H58268   5.293   9.279   1.410 -2.4122 -0.8818 -2.4860
  432MOL0     H58269   5.081   9.055   1.426 -0.8659  1.1055 -0.1534
  432MOL0     H58270   5.123   9.159   1.281  1.6842  0.3524 -0.1917
  432MOL0     H58271   5.026   9.151   1.652  0.1575 -1.8556 -2.7084
  432MOL0     H58272   4.892   9.319   1.812 -0.4957 -0.0990  0.7166
  432MOL0     H58273   4.865   9.477   1.746  2.1592 -1.3935  1.0166
  432MOL0     H58274   4.654   9.305   1.824  1.0639 -0.0637  0.9271
  432MOL0     H58275   4.704   9.234   1.671 -1.5315  0.3399 -2.4020
  432MOL0     H58276   4.654   9.451   1.562  1.5338  0.2138  1.1492
  432MOL0     H58277   4.621   9.521   1.718  1.6284 -0.6473  1.2726
  432MOL0     H58278   4.469   9.311   1.555  2.0615  0.1395 -0.0511
  432MOL0     H58279   4.398   9.465   1.627  0.0171 -0.5409  0.4484
  432MOL0     H58280   4.205   9.386   1.611  0.1446 -2.7659 -2.4448
  432MOL0     H58281   3.846   9.310   1.677  1.1524 -2.9899  0.9218
  432MOL0     H58282   3.951   9.444   1.658  2.8838  1.2460 -1.4778
  432MOL0     H58283   3.956   9.323   1.528 -1.1525 -1.5232  0.4591
  432MOL0     H58284   3.817   8.790   1.906 -2.0349 -1.8294  0.2466
  432MOL0     H58285   3.613   8.660   1.930  0.6216  0.5197 -2.4971
  432MOL0     H58286   3.356   8.596   1.888  2.2030  3.4894 -0.8157
  432MOL0     H58287   3.411   8.574   2.059 -1.8485 -0.8352  1.9323
  432MOL0     H58288   3.132   8.650   1.962 -0.6320  1.2398  1.3180
  432MOL0     H58289   3.172   8.491   2.033  0.8171  0.5762 -2.9271
  432MOL0     H58290   3.207   8.730   2.191  1.5110 -1.6996  2.2888
  432MOL0     H58291   3.213   8.569   2.240 -0.3356  1.4120  1.0255
  432MOL0     H58292   2.967   8.725   2.144  2.0553  1.1640 -1.3128
  432MOL0     H58293   2.966   8.545   2.159  1.0553  0.3725 -2.2397
  432MOL0     H58294   2.974   8.751   2.381 -1.4176 -0.0966 -0.1461
  432MOL0     H58295   3.075   8.601   2.399 -0.2631 -0.1071 -0.2873
  432MOL0     H58296   2.775   8.606   2.331  0.6483 -0.6388 -2.2594
  432MOL0     H58297   2.857   8.464   2.353  1.4475  0.3043 -0.6829
  432MOL0     H58298   2.796   8.727   2.510 -1.2803 -0.9793 -3.4365
  432MOL0     H58299   2.895   8.613   2.603 -0.5285  2.7955  0.4309
  432MOL0     H58300   2.720   8.430   2.546  0.5581 -0.4467 -0.3870
  432MOL0     H58301   2.607   8.563   2.490 -0.0838 -0.4743  0.1341
  432MOL0     H58302   3.391   9.015   2.008 -1.0272 -2.7444 -2.4896
  432MOL0     H58303   3.584   9.148   1.998 -0.3505 -0.7516  3.4568
  432MOL0     H58304   4.121   9.019   1.930  1.1495  0.5586  0.2396
  432MOL0     H58305   4.349   9.115   1.894  0.6272  0.4209 -0.5590
  432MOL0     H58306   5.933   8.571   1.623 -0.4632  0.2252  0.6450
  432MOL0     H58307   6.140   8.436   1.652 -0.2687  1.3032 -0.2010
  432MOL0     H58308   6.287   7.952   1.775 -1.7313  1.2266  1.7581
  432MOL0     H58309   6.509   7.893   1.862  0.4982 -1.5393 -1.6450
  432MOL0     H58310   6.702   7.973   2.042  1.1029  0.4676 -0.0204
  432MOL0     H58311   6.736   7.850   1.920 -1.5037  0.6422 -1.5104
  432MOL0     H58312   6.956   7.950   1.878  0.5087 -0.6286  0.4036
  432MOL0     H58313   6.917   7.856   2.021 -3.2027 -1.8101 -2.6750
  432MOL0     H58314   6.889   8.074   2.151 -0.6941 -2.3218 -1.0838
  432MOL0     H58315   6.905   8.171   2.005  2.4661  1.3797  2.0755
  432MOL0     H58316   7.147   8.097   1.977 -1.0325 -1.0380 -0.9846
  432MOL0     H58317   7.127   8.018   2.128  3.5816  3.7018  0.1432
  432MOL0     H58318   7.181   8.432   2.190  2.0793 -0.1688  2.3540
  432MOL0     H58319   6.682   8.241   1.683 -1.7619  0.9113  0.3126
  432MOL0     H58320   6.454   8.293   1.582  0.3937 -1.2144 -1.7781
  433MOL0     O58321  11.250   8.667   2.501 -0.3068 -0.0577 -0.2666
  433MOL0     C58322  11.280   8.628   2.614  0.4765 -0.2506 -1.6249
  433MOL0     O58323  11.189   8.603   2.715  1.0215 -1.1287  0.6257
  433MOL0     C58324  11.055   8.600   2.670  0.3930 -0.3299  0.1085
  433MOL0     C58325  10.984   8.482   2.697 -0.0728  0.1212  0.0371
  433MOL0     C58326  10.842   8.477   2.688  0.8840  0.9845  0.3484
  433MOL0     C58327  10.772   8.586   2.635 -0.2846  0.1079  0.2952
  433MOL0     O58328  10.642   8.561   2.612  0.8637 -0.3715 -0.3364
  433MOL0     C58329  10.585   8.626   2.497 -0.4990 -0.5964  0.0606
  433MOL0     C58330  10.446   8.570   2.502 -0.0370 -0.1098  0.1968
  433MOL0     C58331  10.340   8.638   2.418 -0.3821 -0.8417 -0.0572
  433MOL0     C58332  10.196   8.601   2.461  0.1560  0.0921 -0.3728
  433MOL0     C58333  10.093   8.703   2.393 -0.5838 -0.4155  0.2311
  433MOL0     C58334   9.947   8.653   2.410 -0.1284 -0.1006  0.2671
  433MOL0     C58335   9.852   8.728   2.327  0.0216 -0.0311  0.0945
  433MOL0     C58336   9.713   8.667   2.322  0.3948  0.1195  0.4996
  433MOL0     N58337   9.612   8.759   2.257  0.3778  0.8608  0.8525
  433MOL0     C58338   9.547   8.736   2.138 -0.3749 -0.2813 -0.6086
  433MOL0     C58339   9.477   8.856   2.117  0.1185 -0.1614  0.3677
  433MOL0     C58340   9.404   8.896   1.987 -0.4011 -0.5076 -0.4927
  433MOL0     C58341   9.249   8.913   1.995  0.3573 -0.2709  0.2725
  433MOL0     C58342   9.187   8.850   2.117  0.0913  0.1058 -0.2594
  433MOL0     C58343   9.041   8.822   2.110  0.7095 -0.2477 -0.3715
  433MOL0     O58344   8.991   8.739   2.010  0.6406  0.2202  0.2667
  433MOL0     C58345   8.851   8.731   2.011  0.2592  0.0025  0.0987
  433MOL0     C58346   8.801   8.642   1.913  0.1639  0.2916 -0.2305
  433MOL0     C58347   8.664   8.630   1.887  0.5064  0.1688 -0.0971
  433MOL0     C58348   8.632   8.523   1.786  0.2233 -0.0777  0.8908
  433MOL0     C58349   8.569   8.706   1.955  0.0344 -0.0361 -0.3564
  433MOL0     C58350   8.417   8.707   1.932  0.8521 -0.0271  0.2658
  433MOL0     O58351   8.356   8.598   1.870  0.5753  0.1233  0.6277
  433MOL0     C58352   8.222   8.628   1.851 -0.6370  0.9910 -0.3166
  433MOL0     C58353   8.183   8.671   1.722 -0.2496  0.3506 -0.5327
  433MOL0     C58354   8.050   8.710   1.706 -0.4826  0.3482 -0.1238
  433MOL0     C58355   7.955   8.687   1.803 -0.7740 -0.0969  0.3826
  433MOL0     O58356   7.822   8.710   1.773  0.0392  0.0709  0.1196
  433MOL0     C58357   7.737   8.757   1.877  0.8618  0.2245 -0.5797
  433MOL0     C58358   7.597   8.713   1.847  0.6712  0.4033  1.0573
  433MOL0     C58359   7.561   8.563   1.851 -0.2349  0.3210  0.1949
  433MOL0     C58360   7.431   8.548   1.784  0.0050  0.1190  0.5625
  433MOL0     C58361   7.300   8.585   1.864  0.0509  0.1421 -0.0728
  433MOL0     C58362   7.172   8.540   1.790 -1.2113  0.7778 -0.1713
  433MOL0     C58363   7.176   8.388   1.756 -0.7519  0.8508  0.0842
  433MOL0     C58364   7.041   8.314   1.744  0.0528  0.9464  0.2760
  433MOL0    Cl58365   6.945   8.353   1.587  0.2617 -0.4426 -0.0127
  433MOL0     C58366   7.995   8.621   1.915 -0.4344 -0.2718 -0.3413
  433MOL0     C58367   8.131   8.604   1.951  0.6324 -0.2346  0.5865
  433MOL0     O58368   8.354   8.799   1.978  0.7724 -0.1764  0.4133
  433MOL0     C58369   8.621   8.807   2.039  0.3353 -0.0234 -0.7427
  433MOL0     C58370   8.757   8.815   2.077 -0.0116 -0.5874  0.5994
  433MOL0     N58371   9.505   8.943   2.221 -0.0406  0.3184  0.5112
  433MOL0     N58372   9.573   8.875   2.308 -0.1460 -0.3057  0.5124
  433MOL0     C58373  10.844   8.702   2.601 -0.1968 -0.6446  0.8143
  433MOL0     C58374  10.984   8.711   2.619 -0.2165  0.1742  0.0575
  433MOL0     C58375  11.422   8.635   2.650 -0.3572  1.2132 -0.3760
  433MOL0     C58376  11.524   8.623   2.553 -0.6008  1.2366 -0.0944
  433MOL0     C58377  11.665   8.625   2.586 -0.5867  0.4874  0.1997
  433MOL0     C58378  11.707   8.623   2.719 -0.7533  0.0376 -0.4077
  433MOL0     O58379  11.837   8.593   2.744 -1.3898 -0.3410  0.6154
  433MOL0     C58380  11.892   8.524   2.861  0.0998 -0.9203  0.4849
  433MOL0     C58381  12.048   8.526   2.856 -0.2918  0.6580  0.0936
  433MOL0     C58382  12.094   8.482   2.712 -0.0126 -0.1113 -0.0868
  433MOL0     C58383  12.242   8.437   2.711  0.4043 -0.5707 -0.2509
  433MOL0     C58384  12.320   8.557   2.721 -0.4079  0.3301 -0.5328
  433MOL0     C58385  12.397   8.643   2.752  0.2588  0.4562 -0.8911
  433MOL0     C58386  11.600   8.626   2.815 -0.2238 -0.8300  0.3948
  433MOL0     C58387  11.467   8.641   2.779  0.8214 -0.7396 -0.4795
  433MOL0     H58388  11.033   8.398   2.746 -0.1686 -1.4402 -2.3728
  433MOL0     H58389  10.796   8.391   2.735  1.6041  1.0743  1.2517
  433MOL0     H58390  10.586   8.736   2.503 -1.1913 -0.5738 -0.0553
  433MOL0     H58391  10.620   8.595   2.398 -2.0082 -0.7601 -0.4469
  433MOL0     H58392  10.444   8.469   2.462  0.8849  0.3069 -0.9684
  433MOL0     H58393  10.405   8.583   2.603 -3.8181  0.6832 -1.3006
  433MOL0     H58394  10.354   8.746   2.423  0.4489 -0.9903  1.2084
  433MOL0     H58395  10.358   8.598   2.317 -0.3766 -4.5498  1.2492
  433MOL0     H58396  10.172   8.499   2.431 -2.3119  0.0508  1.4479
  433MOL0     H58397  10.177   8.594   2.568 -1.6406 -2.0462 -0.7618
  433MOL0     H58398  10.095   8.800   2.444  0.0530 -0.4069  0.1973
  433MOL0     H58399  10.128   8.726   2.292  0.5043  1.5134  0.9829
  433MOL0     H58400   9.942   8.546   2.390 -0.3935 -0.5019  2.3194
  433MOL0     H58401   9.905   8.677   2.508  1.0906 -0.1859  0.8289
  433MOL0     H58402   9.862   8.832   2.360  4.1365  0.3166 -1.6126
  433MOL0     H58403   9.878   8.732   2.221 -1.2043  0.5259 -0.1934
  433MOL0     H58404   9.683   8.642   2.424 -1.1458  0.2141  0.0973
  433MOL0     H58405   9.721   8.577   2.260  1.0915 -0.0955  0.8924
  433MOL0     H58406   9.565   8.654   2.069  0.2232  0.5309 -1.4414
  433MOL0     H58407   9.452   8.985   1.944  0.7391 -1.7214 -1.8222
  433MOL0     H58408   9.414   8.824   1.906 -2.2309 -0.2520 -0.9966
  433MOL0     H58409   9.207   8.881   1.899 -2.1642  1.3352  0.7324
  433MOL0     H58410   9.219   9.018   1.998 -1.5177 -0.7423 -0.2948
  433MOL0     H58411   9.200   8.905   2.211 -0.0601  0.2325 -0.3132
  433MOL0     H58412   9.237   8.753   2.130  3.2507  1.3904 -1.6482
  433MOL0     H58413   8.981   8.913   2.122 -3.2262 -2.8224  1.5433
  433MOL0     H58414   9.016   8.760   2.197  1.2737 -0.3243 -0.2624
  433MOL0     H58415   8.881   8.589   1.862  1.3175  2.1604 -0.4534
  433MOL0     H58416   8.724   8.493   1.736  0.7067  2.0826  0.3467
  433MOL0     H58417   8.587   8.434   1.831 -2.4772 -0.2210 -1.7728
  433MOL0     H58418   8.556   8.549   1.712 -1.5877 -0.3813  2.5407
  433MOL0     H58419   8.261   8.685   1.648  1.2392 -0.2547  0.8659
  433MOL0     H58420   8.003   8.750   1.616 -1.0687  4.8626  1.9166
  433MOL0     H58421   7.775   8.733   1.977 -0.4628  2.6677  0.5838
  433MOL0     H58422   7.710   8.862   1.862  0.6913  0.0802 -1.2893
  433MOL0     H58423   7.531   8.763   1.919 -0.8613  2.0410 -1.3419
  433MOL0     H58424   7.578   8.749   1.745  0.4713 -1.5359  0.3671
  433MOL0     H58425   7.549   8.522   1.951 -0.0402 -0.2171  0.0037
  433MOL0     H58426   7.640   8.516   1.791 -1.2231  1.6263 -2.3207
  433MOL0     H58427   7.418   8.604   1.692 -0.4650  0.2000  0.6744
  433MOL0     H58428   7.415   8.444   1.755 -3.5969  0.6573  0.1340
  433MOL0     H58429   7.299   8.689   1.897  1.1696  0.7245 -1.8020
  433MOL0     H58430   7.306   8.517   1.950  1.5795 -1.0467 -1.0618
  433MOL0     H58431   7.090   8.551   1.862 -1.2866 -1.1696  0.0930
  433MOL0     H58432   7.165   8.603   1.701 -0.9704 -0.6634 -1.2522
  433MOL0     H58433   7.215   8.340   1.846  1.5418  0.7232 -0.9089
  433MOL0     H58434   7.244   8.365   1.673  2.1255  0.2943  2.4252
  433MOL0     H58435   6.981   8.326   1.834  2.6269 -0.6258  2.3678
  433MOL0     H58436   7.058   8.206   1.735  1.6512  1.3174 -2.1543
  433MOL0     H58437   7.918   8.581   1.981  0.3781 -2.9017 -0.8815
  433MOL0     H58438   8.169   8.569   2.046  1.4984  1.8497  1.0629
  433MOL0     H58439   8.555   8.882   2.084 -0.8909 -2.2170  1.3435
  433MOL0     H58440   8.768   8.896   2.148  1.3664 -2.4943  2.6882
  433MOL0     H58441  10.786   8.775   2.546  2.1753  0.9755  0.2974
  433MOL0     H58442  11.019   8.811   2.594  1.2278 -0.8862 -2.6775
  433MOL0     H58443  11.509   8.616   2.446  1.5617  3.0065 -0.5907
  433MOL0     H58444  11.743   8.636   2.512  0.3502 -1.3214  0.8452
  433MOL0     H58445  11.861   8.577   2.952 -0.1295  1.0037 -0.6574
  433MOL0     H58446  11.866   8.418   2.873 -0.7670 -1.0075 -1.6697
  433MOL0     H58447  12.084   8.466   2.940 -1.5394  0.5659  0.5929
  433MOL0     H58448  12.084   8.626   2.882 -4.2178  2.6251 -1.1329
  433MOL0     H58449  12.077   8.566   2.644  0.2518  0.6274  0.7467
  433MOL0     H58450  12.039   8.396   2.673 -0.8729  1.5476 -2.8669
  433MOL0     H58451  12.275   8.385   2.621 -1.6838 -1.1758 -0.7161
  433MOL0     H58452  12.262   8.369   2.794  1.8789 -1.0845 -0.9971
  433MOL0     H58453  12.479   8.710   2.770  0.3264 -0.4609  2.9887
  433MOL0     H58454  11.626   8.619   2.920  4.1594 -0.4099 -0.4303
  433MOL0     H58455  11.396   8.654   2.860  1.5885 -0.9982  0.2497
  434MOL0     O58456   4.172   9.244   2.785 -0.7822  0.7563 -0.8215
  434MOL0     C58457   4.166   9.239   2.665  0.8140  0.0878 -0.0509
  434MOL0     O58458   4.268   9.254   2.577 -0.9847 -0.0171  0.2016
  434MOL0     C58459   4.397   9.259   2.621  0.0715 -0.2521  0.5502
  434MOL0     C58460   4.447   9.324   2.736 -0.1385 -0.4250 -0.0187
  434MOL0     C58461   4.575   9.299   2.781  0.1627  0.4140 -0.9928
  434MOL0     C58462   4.664   9.219   2.709 -0.9078 -0.8364  0.6178
  434MOL0     O58463   4.789   9.210   2.764 -1.2851 -0.2351  0.0733
  434MOL0     C58464   4.891   9.133   2.700 -0.5400  0.1763 -0.3480
  434MOL0     C58465   5.009   9.122   2.790 -0.3889 -0.5002  0.3206
  434MOL0     C58466   5.107   9.010   2.744  0.4904  0.1401  0.6197
  434MOL0     C58467   5.221   8.974   2.833  0.2243 -0.2903 -0.2793
  434MOL0     C58468   5.207   8.846   2.920  0.2663  0.4160  0.2531
  434MOL0     C58469   5.316   8.811   3.019  0.7245 -0.1131  0.1083
  434MOL0     C58470   5.303   8.659   3.057 -0.8437  0.3173 -0.0912
  434MOL0     C58471   5.189   8.640   3.164  0.1838  0.0763  0.0202
  434MOL0     N58472   5.182   8.496   3.194 -0.2578 -0.5634  0.2554
  434MOL0     C58473   5.271   8.420   3.261  0.8014 -0.0414 -0.2541
  434MOL0     C58474   5.227   8.295   3.247  0.1377 -0.2185  0.1612
  434MOL0     C58475   5.293   8.174   3.307  0.1844 -0.2395  0.0862
  434MOL0     C58476   5.254   8.147   3.456  1.0358  0.0862  0.7709
  434MOL0     C58477   5.112   8.117   3.474 -0.1560 -0.2734  0.6422
  434MOL0     C58478   5.081   8.032   3.588 -0.3892  0.0129  0.3014
  434MOL0     O58479   4.940   8.017   3.590 -0.4242 -0.2264  0.3453
  434MOL0     C58480   4.882   7.905   3.639 -0.2328  0.0594 -0.1646
  434MOL0     C58481   4.937   7.784   3.673  0.2811  1.8027 -0.3512
  434MOL0     C58482   4.856   7.680   3.738 -0.3939  0.4298 -0.8393
  434MOL0     C58483   4.939   7.570   3.792  0.4467  0.4882  0.6349
  434MOL0     C58484   4.719   7.695   3.756  0.8303  0.0907 -0.1678
  434MOL0     C58485   4.637   7.586   3.795  1.2228 -0.4148  0.0796
  434MOL0     O58486   4.509   7.625   3.833 -0.5803  0.4506  0.1442
  434MOL0     C58487   4.402   7.539   3.853 -0.0529  1.1047 -0.0306
  434MOL0     C58488   4.419   7.403   3.877  0.2357 -0.0163  0.5434
  434MOL0     C58489   4.310   7.316   3.887  0.0905 -0.0413 -0.0365
  434MOL0     C58490   4.172   7.363   3.877 -0.3426  0.2878 -0.1493
  434MOL0     O58491   4.055   7.280   3.882  0.7521 -0.4787  0.8249
  434MOL0     C58492   4.068   7.146   3.928 -0.5606 -0.4851  0.5599
  434MOL0     C58493   3.938   7.061   3.915  0.3951 -0.5835  0.1510
  434MOL0     C58494   3.954   6.938   4.002 -0.8217 -0.0320 -0.2144
  434MOL0     C58495   3.833   6.845   3.983  0.3242  0.4383 -0.7543
  434MOL0     C58496   3.837   6.724   4.089 -0.0396  0.3997  0.8862
  434MOL0     C58497   3.807   6.583   4.023 -0.3414 -0.4531  0.4836
  434MOL0     C58498   3.799   6.466   4.122  0.0279 -0.5877 -0.3982
  434MOL0     C58499   3.668   6.441   4.197  1.0467  0.7270  0.5422
  434MOL0    Cl58500   3.529   6.372   4.094  0.3635 -0.1170 -0.3714
  434MOL0     C58501   4.164   7.501   3.845 -0.6885 -0.3038 -0.1066
  434MOL0     C58502   4.277   7.586   3.833  0.1671  0.4797 -0.6770
  434MOL0     O58503   4.679   7.471   3.781  0.2664  0.0304  0.4046
  434MOL0     C58504   4.663   7.820   3.724  0.0401  0.0184 -1.1580
  434MOL0     C58505   4.743   7.914   3.663 -1.2636 -0.6590  0.2847
  434MOL0     N58506   5.104   8.291   3.189 -0.6954 -0.0097  0.3846
  434MOL0     N58507   5.082   8.416   3.155 -0.5924 -0.1043  0.0796
  434MOL0     C58508   4.626   9.156   2.595  0.1708  0.1624 -0.8707
  434MOL0     C58509   4.489   9.180   2.554 -1.4185  0.4520  0.1879
  434MOL0     C58510   4.032   9.236   2.600  0.2075  0.4613 -0.9834
  434MOL0     C58511   4.019   9.197   2.463 -0.7217  0.1088 -0.4757
  434MOL0     C58512   3.898   9.185   2.405 -0.4285 -0.6677  0.0008
  434MOL0     C58513   3.776   9.196   2.481  0.7840 -0.6779 -0.5355
  434MOL0     O58514   3.649   9.177   2.434  0.1068 -0.3150 -0.1557
  434MOL0     C58515   3.621   9.219   2.299 -0.2068  0.4528  0.9031
  434MOL0     C58516   3.481   9.276   2.274  0.0038  0.8793  0.0324
  434MOL0     C58517   3.372   9.217   2.372 -0.2646 -0.2000 -0.1842
  434MOL0     C58518   3.343   9.069   2.370  0.2538  0.2677 -0.5729
  434MOL0     C58519   3.235   9.047   2.471 -0.0547  0.9483 -0.0144
  434MOL0     C58520   3.139   9.031   2.542  0.1521  0.2899  0.9758
  434MOL0     C58521   3.783   9.226   2.620 -0.0025 -0.2228  0.6964
  434MOL0     C58522   3.910   9.251   2.674  0.2443 -0.4575 -0.5050
  434MOL0     H58523   4.383   9.392   2.791  1.0354  0.1675  0.6386
  434MOL0     H58524   4.597   9.344   2.878  1.8113 -0.9636 -0.6568
  434MOL0     H58525   4.872   9.026   2.687  3.2330 -0.5900 -0.9149
  434MOL0     H58526   4.914   9.176   2.602  0.2039  0.5062 -0.0400
  434MOL0     H58527   5.060   9.218   2.792 -1.7417  0.3279 -1.7230
  434MOL0     H58528   4.983   9.098   2.894 -0.1059  0.5915  0.6556
  434MOL0     H58529   5.065   8.915   2.708 -0.5732  1.5019 -1.9816
  434MOL0     H58530   5.148   9.053   2.652 -2.5401  1.9076 -0.0297
  434MOL0     H58531   5.309   8.950   2.773  1.2802 -1.4563  1.6327
  434MOL0     H58532   5.230   9.067   2.890  1.2310 -1.2474  1.1867
  434MOL0     H58533   5.114   8.858   2.976 -1.1997  0.9426 -2.1191
  434MOL0     H58534   5.193   8.766   2.846  0.7460  0.9626 -0.4499
  434MOL0     H58535   5.409   8.828   2.965  0.2354  1.0059 -0.4088
  434MOL0     H58536   5.320   8.873   3.109 -1.2993  0.5140 -0.1723
  434MOL0     H58537   5.290   8.601   2.965  3.2838 -1.0029 -0.0431
  434MOL0     H58538   5.400   8.623   3.091 -0.7126 -2.1827 -2.6936
  434MOL0     H58539   5.091   8.666   3.124  1.5319  0.5261 -3.4009
  434MOL0     H58540   5.204   8.703   3.252  2.6441  1.0645 -0.9874
  434MOL0     H58541   5.361   8.457   3.309 -1.1414  1.4888  2.4685
  434MOL0     H58542   5.271   8.090   3.241  0.1668  1.2316 -1.8487
  434MOL0     H58543   5.402   8.182   3.307  0.5936 -3.9556  0.6823
  434MOL0     H58544   5.277   8.232   3.521  0.9752  3.5533 -3.2998
  434MOL0     H58545   5.318   8.063   3.484  0.1236  0.3184  3.8665
  434MOL0     H58546   5.073   8.077   3.380  1.9723  2.2280 -1.4747
  434MOL0     H58547   5.066   8.215   3.494  0.8392  0.4232 -0.3403
  434MOL0     H58548   5.116   8.075   3.682  0.2254  0.9328 -0.3336
  434MOL0     H58549   5.148   7.946   3.585  0.0581  0.2668  2.1883
  434MOL0     H58550   5.044   7.777   3.660  0.2398  1.5201 -0.5599
  434MOL0     H58551   4.899   7.530   3.886 -0.3747  0.7971  0.4299
  434MOL0     H58552   4.956   7.497   3.712 -1.8607 -1.2676  1.6229
  434MOL0     H58553   5.042   7.604   3.808  1.0270  0.4458 -2.4400
  434MOL0     H58554   4.518   7.364   3.898  1.2883  1.2133 -1.7597
  434MOL0     H58555   4.326   7.210   3.899 -0.0389 -0.1402 -0.6801
  434MOL0     H58556   4.142   7.095   3.867 -0.7748 -0.1121 -0.0138
  434MOL0     H58557   4.097   7.147   4.033  3.2981 -1.1988 -0.3793
  434MOL0     H58558   3.856   7.124   3.952  2.2645  1.1590  1.5277
  434MOL0     H58559   3.932   7.033   3.810  0.1430 -1.7711  0.4656
  434MOL0     H58560   3.966   6.973   4.105 -1.2143 -2.3532  0.6966
  434MOL0     H58561   4.047   6.883   3.986  0.3972  1.7918  0.2864
  434MOL0     H58562   3.740   6.900   3.996  0.1436 -0.1868  0.9449
  434MOL0     H58563   3.833   6.799   3.884 -1.8792  1.3577 -1.2316
  434MOL0     H58564   3.795   6.751   4.187 -2.7625 -4.6114  1.4515
  434MOL0     H58565   3.939   6.704   4.124 -1.0404 -2.2637  2.5739
  434MOL0     H58566   3.713   6.595   3.969 -0.8241  1.1550  1.6053
  434MOL0     H58567   3.877   6.559   3.943 -2.0663 -1.4508 -0.7925
  434MOL0     H58568   3.876   6.478   4.200 -3.0122 -0.5679  2.8548
  434MOL0     H58569   3.829   6.373   4.071 -0.8668 -0.5433 -1.0106
  434MOL0     H58570   3.627   6.531   4.242 -0.1307 -0.4017  1.7939
  434MOL0     H58571   3.676   6.360   4.270 -1.9927 -0.4285 -0.2449
  434MOL0     H58572   4.065   7.542   3.827 -1.1666  0.3077  3.2773
  434MOL0     H58573   4.267   7.694   3.824  0.5101  0.6797  1.0243
  434MOL0     H58574   4.559   7.849   3.732  0.1798  0.0551  1.3315
  434MOL0     H58575   4.688   7.999   3.625 -1.9035 -1.4812 -0.6966
  434MOL0     H58576   4.681   9.076   2.547 -1.9250 -0.1380 -2.9396
  434MOL0     H58577   4.451   9.131   2.465  0.1111 -1.4591  0.5211
  434MOL0     H58578   4.100   9.190   2.391  0.6236 -0.6544  1.0305
  434MOL0     H58579   3.895   9.178   2.297 -2.1013 -0.4097 -0.0001
  434MOL0     H58580   3.692   9.296   2.269  1.6348 -0.5922  2.2920
  434MOL0     H58581   3.637   9.130   2.237 -0.2438  1.4941 -0.6415
  434MOL0     H58582   3.446   9.246   2.175 -1.4940  0.2354  0.7187
  434MOL0     H58583   3.490   9.385   2.273  1.6340  0.8258 -2.9798
  434MOL0     H58584   3.278   9.263   2.342  0.0158  0.0457 -0.7100
  434MOL0     H58585   3.388   9.255   2.473 -4.1138 -1.2989  1.0077
  434MOL0     H58586   3.436   9.019   2.398 -0.5534 -0.4480  0.9284
  434MOL0     H58587   3.315   9.032   2.270  2.0281 -3.0953  0.0291
  434MOL0     H58588   3.051   9.013   2.601  0.4204 -0.0711  1.2739
  434MOL0     H58589   3.695   9.247   2.680 -0.5912 -0.7172  0.0236
  434MOL0     H58590   3.917   9.275   2.779 -0.8859 -0.8681 -0.3302
  435MOL0     O58591   2.610   5.846   5.019  0.5005 -0.2769  0.4572
  435MOL0     C58592   2.653   5.748   5.078 -1.0224  0.4205  0.4942
  435MOL0     O58593   2.605   5.689   5.186  0.4848 -1.0998  0.0699
  435MOL0     C58594   2.499   5.761   5.246 -0.3166 -0.2556  0.2223
  435MOL0     C58595   2.381   5.691   5.275  0.2417  0.4967 -0.2824
  435MOL0     C58596   2.280   5.746   5.353  0.0645  0.5333  0.3764
  435MOL0     C58597   2.298   5.869   5.403 -0.6137  0.0398 -0.6081
  435MOL0     O58598   2.212   5.936   5.487 -0.2828  0.3265  0.3321
  435MOL0     C58599   2.085   5.953   5.429 -0.0941  0.3728  0.2027
  435MOL0     C58600   2.003   6.043   5.515  0.0542 -0.0500  0.2077
  435MOL0     C58601   1.850   6.014   5.510  0.3140  0.3771  0.4075
  435MOL0     C58602   1.760   6.108   5.585  0.8828 -0.0582 -0.2524
  435MOL0     C58603   1.621   6.073   5.541  0.5890 -0.1411 -0.9429
  435MOL0     C58604   1.515   6.161   5.615 -0.4703  0.7403  0.1431
  435MOL0     C58605   1.369   6.139   5.561  0.1834 -0.2794  0.1495
  435MOL0     C58606   1.258   6.235   5.601 -0.5042  0.2090 -0.1073
  435MOL0     N58607   1.300   6.370   5.549  0.3281 -0.0174 -0.6573
  435MOL0     C58608   1.272   6.489   5.617  0.1041 -0.3696  0.1518
  435MOL0     C58609   1.270   6.582   5.518 -0.2338  0.7328 -0.1211
  435MOL0     C58610   1.244   6.733   5.520 -0.7426 -0.4860 -0.1022
  435MOL0     C58611   1.107   6.757   5.472  0.5893  0.0900 -0.5780
  435MOL0     C58612   1.028   6.866   5.560 -0.4624  0.4153 -0.4650
  435MOL0     C58613   0.885   6.862   5.524  0.0601  0.2761 -0.6873
  435MOL0     O58614   0.875   6.848   5.380 -0.1535 -0.5046  0.0235
  435MOL0     C58615   0.754   6.798   5.326 -0.2278 -0.7694  0.5931
  435MOL0     C58616   0.707   6.672   5.362 -0.0963  0.9821  0.2580
  435MOL0     C58617   0.591   6.623   5.315 -0.3347 -0.4100 -0.4098
  435MOL0     C58618   0.560   6.487   5.375  1.7966  0.1197 -0.0745
  435MOL0     C58619   0.513   6.703   5.230  0.6269  0.6343 -0.8604
  435MOL0     C58620   0.378   6.660   5.183  0.3120  0.1287 -0.2976
  435MOL0     O58621   0.302   6.582   5.250 -0.2566  0.6501 -0.9358
  435MOL0     C58622   0.183   6.537   5.202  0.5738 -0.5400 -0.2927
  435MOL0     C58623   0.065   6.607   5.237 -0.2117  0.4587  0.4970
  435MOL0     C58624  -0.063   6.584   5.180  0.2180 -0.4821 -0.7232
  435MOL0     C58625  -0.063   6.491   5.083 -0.1373 -0.4792 -0.3109
  435MOL0     O58626  -0.188   6.462   5.028 -0.1010 -0.3759 -0.2889
  435MOL0     C58627  -0.230   6.328   5.039  0.2085 -0.0108  0.1974
  435MOL0     C58628  -0.383   6.325   5.073  0.8667  0.0480  0.1514
  435MOL0     C58629  -0.434   6.184   5.091 -0.0564  1.4893  0.1091
  435MOL0     C58630  -0.586   6.184   5.122  0.3515 -0.1794  0.7705
  435MOL0     C58631  -0.657   6.050   5.076 -0.1365 -0.4491 -0.2769
  435MOL0     C58632  -0.598   5.950   5.175 -0.1379 -0.0477  0.0101
  435MOL0     C58633  -0.680   5.820   5.160  0.2942 -0.3037 -0.0269
  435MOL0     C58634  -0.640   5.705   5.248 -0.0526  0.2174 -0.1952
  435MOL0    Cl58635  -0.487   5.642   5.192 -0.2397 -0.2001 -0.4518
  435MOL0     C58636   0.045   6.420   5.038  0.0262 -0.2205  0.1391
  435MOL0     C58637   0.169   6.443   5.099  0.4235 -0.0861  0.2850
  435MOL0     O58638   0.341   6.713   5.077 -0.6034  0.1285  0.5205
  435MOL0     C58639   0.557   6.832   5.193  0.2521  0.2210  0.9462
  435MOL0     C58640   0.676   6.878   5.232 -0.1332 -0.6308  0.1737
  435MOL0     N58641   1.298   6.524   5.396  0.0748 -0.1302 -0.1938
  435MOL0     N58642   1.313   6.401   5.417 -0.1569  0.2905 -0.6517
  435MOL0     C58643   2.410   5.939   5.376  0.8082  0.2981 -0.1244
  435MOL0     C58644   2.504   5.895   5.286 -1.0116 -0.5754  0.2498
  435MOL0     C58645   2.772   5.690   5.019 -0.2514  0.6817 -0.3589
  435MOL0     C58646   2.840   5.741   4.900 -0.1718  0.0037  0.8492
  435MOL0     C58647   2.969   5.690   4.873  0.5945  0.1694 -0.4183
  435MOL0     C58648   3.031   5.585   4.945  0.1870 -0.2181  0.8113
  435MOL0     O58649   3.161   5.542   4.948  0.5264  0.0203 -0.2122
  435MOL0     C58650   3.254   5.607   4.862  0.6723 -0.5411 -0.8312
  435MOL0     C58651   3.391   5.579   4.906 -0.3202 -0.8040 -0.3701
  435MOL0     C58652   3.411   5.425   4.903 -0.5384 -0.4726 -0.3734
  435MOL0     C58653   3.555   5.392   4.886 -0.1768 -0.3632  0.9407
  435MOL0     C58654   3.615   5.411   5.010 -0.9861  0.2802  0.3709
  435MOL0     C58655   3.675   5.404   5.114 -0.0069 -0.0246  0.1504
  435MOL0     C58656   2.950   5.521   5.046 -0.1430 -0.2145 -0.0112
  435MOL0     C58657   2.820   5.570   5.081 -0.1880 -0.8174  0.8070
  435MOL0     H58658   2.356   5.594   5.235 -2.4747  1.3568 -0.8269
  435MOL0     H58659   2.191   5.687   5.368 -0.3497  0.5838 -1.6536
  435MOL0     H58660   2.099   5.997   5.330 -0.7504  1.1116  0.4286
  435MOL0     H58661   2.033   5.856   5.426  1.8809 -0.7332 -0.2117
  435MOL0     H58662   2.029   6.026   5.620  0.4828  0.9267  0.2700
  435MOL0     H58663   2.016   6.149   5.493 -3.1131  0.5131  0.5887
  435MOL0     H58664   1.821   6.008   5.405 -1.8749 -1.7776  1.0438
  435MOL0     H58665   1.833   5.912   5.546  0.0727 -0.1812 -1.2136
  435MOL0     H58666   1.779   6.102   5.692  0.4832 -1.9020 -0.2470
  435MOL0     H58667   1.774   6.213   5.556 -0.1153  0.8097  2.1686
  435MOL0     H58668   1.607   6.101   5.436 -0.8794  2.7489 -0.0920
  435MOL0     H58669   1.598   5.967   5.557  2.6939 -0.2758  1.9976
  435MOL0     H58670   1.510   6.134   5.721  1.0748 -0.8226 -0.1248
  435MOL0     H58671   1.539   6.267   5.612  2.5254  0.2226  1.7374
  435MOL0     H58672   1.372   6.131   5.452  0.0903  1.2821  0.0187
  435MOL0     H58673   1.344   6.041   5.603 -0.5862 -0.3146 -0.3757
  435MOL0     H58674   1.227   6.232   5.706  0.4582 -1.2363  0.1647
  435MOL0     H58675   1.164   6.219   5.547  0.0557  1.5447 -1.5327
  435MOL0     H58676   1.244   6.507   5.720  0.6246 -0.3523  0.2910
  435MOL0     H58677   1.261   6.765   5.623  0.9681  0.4829 -0.6397
  435MOL0     H58678   1.312   6.790   5.457  0.4391  2.2386  3.2923
  435MOL0     H58679   1.045   6.667   5.468 -0.4846  0.8633 -2.3174
  435MOL0     H58680   1.119   6.791   5.369  0.6319 -1.1865 -1.0113
  435MOL0     H58681   1.084   6.957   5.538  2.4407 -1.5773 -1.9267
  435MOL0     H58682   1.036   6.840   5.666 -0.3105  0.7941 -0.3804
  435MOL0     H58683   0.841   6.958   5.553  0.5193  0.0656  0.7576
  435MOL0     H58684   0.846   6.773   5.573  1.1754  0.4917  0.6477
  435MOL0     H58685   0.767   6.620   5.436  0.4887  2.2819  0.7127
  435MOL0     H58686   0.491   6.496   5.459  3.2833 -0.9918  1.3160
  435MOL0     H58687   0.509   6.423   5.302  1.3318 -0.5615  0.8335
  435MOL0     H58688   0.649   6.432   5.407  0.2835 -0.7733  2.9884
  435MOL0     H58689   0.078   6.685   5.312 -3.2117  0.6438  0.9373
  435MOL0     H58690  -0.152   6.633   5.219 -0.2793 -3.0192  1.5725
  435MOL0     H58691  -0.219   6.275   4.944 -0.0319 -0.9137  0.6693
  435MOL0     H58692  -0.179   6.264   5.111  1.2430  2.9515  2.2740
  435MOL0     H58693  -0.386   6.381   5.166  0.6338  0.7116 -0.2513
  435MOL0     H58694  -0.441   6.374   4.994 -0.1657 -1.6621 -0.1943
  435MOL0     H58695  -0.384   6.136   5.176  0.5866  2.4453  0.2845
  435MOL0     H58696  -0.406   6.131   4.999  1.9359  0.5874  1.1454
  435MOL0     H58697  -0.593   6.202   5.229  2.5272 -4.3763  1.8541
  435MOL0     H58698  -0.625   6.266   5.061 -0.9555 -0.2340  1.5092
  435MOL0     H58699  -0.639   6.025   4.972  0.6929 -1.0213 -0.0012
  435MOL0     H58700  -0.766   6.054   5.079 -0.1136  0.5629 -0.4222
  435MOL0     H58701  -0.493   5.929   5.151 -0.0401  1.6168 -1.2395
  435MOL0     H58702  -0.604   5.997   5.273  0.2265  0.3759 -0.1675
  435MOL0     H58703  -0.671   5.798   5.053  0.6399  5.3166 -1.4661
  435MOL0     H58704  -0.786   5.840   5.180 -0.2380 -1.0688 -1.8377
  435MOL0     H58705  -0.714   5.625   5.242 -2.9090  2.7480 -0.7757
  435MOL0     H58706  -0.628   5.739   5.352  0.2513 -0.3635 -0.0321
  435MOL0     H58707   0.035   6.354   4.952  1.3276 -1.2435  0.7319
  435MOL0     H58708   0.251   6.385   5.059 -2.5854 -2.7300 -2.7690
  435MOL0     H58709   0.506   6.889   5.116  2.6920 -1.3476 -2.0717
  435MOL0     H58710   0.711   6.970   5.185 -0.4273 -0.3844  0.4352
  435MOL0     H58711   2.409   6.044   5.402 -1.2564  1.7693 -5.0401
  435MOL0     H58712   2.600   5.942   5.269  0.8996 -3.5526  1.7762
  435MOL0     H58713   2.803   5.832   4.852  0.9133 -0.4890 -1.0234
  435MOL0     H58714   3.031   5.729   4.793  1.0185  1.7352  0.6450
  435MOL0     H58715   3.236   5.578   4.758  2.3400 -0.2848 -1.2251
  435MOL0     H58716   3.244   5.716   4.867 -1.8380 -0.6595 -2.0565
  435MOL0     H58717   3.408   5.625   5.003 -0.8343 -1.4403  0.0324
  435MOL0     H58718   3.459   5.634   4.840  1.2301 -0.7084  1.2428
  435MOL0     H58719   3.357   5.381   4.819  1.9005 -1.7870 -1.3521
  435MOL0     H58720   3.369   5.371   4.988  0.0439 -1.2029 -0.5455
  435MOL0     H58721   3.601   5.468   4.822 -0.7842  0.7088  1.7415
  435MOL0     H58722   3.577   5.291   4.850  1.1333  0.7355 -1.6603
  435MOL0     H58723   3.713   5.374   5.209 -2.8267 -4.7921  0.1034
  435MOL0     H58724   2.981   5.442   5.114 -4.3347 -1.0125  1.2787
  435MOL0     H58725   2.764   5.514   5.155 -0.0577 -2.4770 -0.2916
  436MOL0     O58726   1.273   6.943   4.298  0.3769  0.3853  0.6341
  436MOL0     C58727   1.280   6.980   4.418 -0.1523 -0.6910  1.0375
  436MOL0     O58728   1.198   7.080   4.465 -0.1301  0.0636 -0.0123
  436MOL0     C58729   1.084   7.107   4.397  0.5711  0.3465  0.5392
  436MOL0     C58730   0.973   7.031   4.397  0.3816 -0.1148 -0.8545
  436MOL0     C58731   0.853   7.066   4.334  0.7716  0.3682 -0.4980
  436MOL0     C58732   0.837   7.182   4.265 -0.1189  0.0192  0.6022
  436MOL0     O58733   0.723   7.206   4.193 -0.4408 -0.7760 -0.1507
  436MOL0     C58734   0.717   7.319   4.112 -0.4454 -0.4313 -0.5558
  436MOL0     C58735   0.572   7.340   4.058 -0.1814 -0.5462 -1.1220
  436MOL0     C58736   0.471   7.363   4.171 -0.5626 -0.2211 -0.4203
  436MOL0     C58737   0.339   7.309   4.114  0.2653  0.1028 -0.6298
  436MOL0     C58738   0.222   7.398   4.156  0.4405 -0.1338 -0.6305
  436MOL0     C58739   0.088   7.328   4.120  0.4890  0.1291 -0.1305
  436MOL0     C58740  -0.045   7.401   4.165  1.1758  0.1246 -0.8866
  436MOL0     C58741  -0.171   7.310   4.148 -0.0067  0.0493 -0.2910
  436MOL0     N58742  -0.298   7.375   4.190  0.4680 -0.0854 -0.4012
  436MOL0     C58743  -0.350   7.389   4.313  0.3422  1.6497 -0.2214
  436MOL0     C58744  -0.466   7.450   4.296 -0.4347 -0.9083  0.3347
  436MOL0     C58745  -0.557   7.490   4.411  0.4679  0.2188  0.1017
  436MOL0     C58746  -0.653   7.596   4.362 -0.5182 -0.9422 -0.0083
  436MOL0     C58747  -0.781   7.641   4.445 -0.6427 -0.2787  0.3480
  436MOL0     C58748  -0.869   7.753   4.382 -0.3421  0.0973 -0.6906
  436MOL0     O58749  -0.993   7.756   4.452  0.5305  0.2134 -1.0181
  436MOL0     C58750  -1.096   7.831   4.408 -0.3475  0.6573  0.4586
  436MOL0     C58751  -1.174   7.774   4.308 -0.5827 -0.3027 -0.0790
  436MOL0     C58752  -1.285   7.845   4.259 -0.3109  0.5933  0.9458
  436MOL0     C58753  -1.355   7.772   4.145  0.2785 -0.7916 -0.0242
  436MOL0     C58754  -1.326   7.968   4.310  0.1153  0.2970  0.0946
  436MOL0     C58755  -1.455   8.047   4.283 -0.1527 -0.3058  0.4294
  436MOL0     O58756  -1.552   7.982   4.215  0.4645 -0.3338  0.4027
  436MOL0     C58757  -1.646   8.053   4.148  0.4135 -0.5025  0.0722
  436MOL0     C58758  -1.732   8.136   4.211  0.3863  0.0285  1.0464
  436MOL0     C58759  -1.846   8.198   4.147  0.8600  0.3457 -0.2124
  436MOL0     C58760  -1.865   8.178   4.008 -0.1440 -0.0686  0.0052
  436MOL0     O58761  -1.965   8.235   3.926  0.2644 -0.4841  0.2202
  436MOL0     C58762  -1.949   8.380   3.921  0.2563 -0.1863  0.0655
  436MOL0     C58763  -2.105   8.420   3.915 -0.7767 -0.1524 -0.3089
  436MOL0     C58764  -2.186   8.361   3.802  0.1034 -0.3598  0.4369
  436MOL0     C58765  -2.332   8.392   3.814  0.1390  0.9523  0.7833
  436MOL0     C58766  -2.403   8.338   3.685 -0.2300  0.5820 -0.6660
  436MOL0     C58767  -2.558   8.334   3.703 -0.5634 -0.2237  0.4969
  436MOL0     C58768  -2.632   8.308   3.576  0.8725  0.1867  0.5538
  436MOL0     C58769  -2.780   8.267   3.605  0.9066 -0.2214 -0.7437
  436MOL0    Cl58770  -2.873   8.378   3.702  0.0937 -0.2958 -0.4548
  436MOL0     C58771  -1.770   8.091   3.941  1.2051  0.5405  0.0510
  436MOL0     C58772  -1.677   8.017   4.017 -0.4527  0.7247  0.1281
  436MOL0     O58773  -1.457   8.169   4.314 -0.5494 -0.5270  0.2808
  436MOL0     C58774  -1.240   8.023   4.406 -0.1775  0.0312  0.1735
  436MOL0     C58775  -1.129   7.957   4.461  0.3639 -0.2832 -0.4594
  436MOL0     N58776  -0.487   7.476   4.160 -0.0201  0.2104  0.0269
  436MOL0     N58777  -0.379   7.439   4.095  0.0307 -0.5162 -0.5034
  436MOL0     C58778   0.956   7.266   4.261  0.3044 -0.8050  0.1214
  436MOL0     C58779   1.074   7.228   4.326  0.3037 -0.2601  0.3142
  436MOL0     C58780   1.375   6.913   4.507  0.5832  0.4052  0.4023
  436MOL0     C58781   1.366   6.931   4.648 -0.8129  0.8036 -0.0055
  436MOL0     C58782   1.454   6.876   4.732 -0.3345 -0.0974  0.3795
  436MOL0     C58783   1.545   6.779   4.692 -0.5526  0.4874  0.3902
  436MOL0     O58784   1.607   6.718   4.800  0.2520 -0.7820 -0.6733
  436MOL0     C58785   1.720   6.628   4.774  0.0043 -0.7480 -0.1195
  436MOL0     C58786   1.660   6.492   4.743 -0.7646  0.1097  0.3263
  436MOL0     C58787   1.606   6.423   4.874 -0.1005 -0.3205  0.4374
  436MOL0     C58788   1.562   6.286   4.826 -0.7142  0.0614 -1.2267
  436MOL0     C58789   1.668   6.195   4.812  0.3785 -0.9256  0.6301
  436MOL0     C58790   1.761   6.113   4.807 -0.6406  0.2414  0.4564
  436MOL0     C58791   1.555   6.747   4.550 -0.4612  0.0571  0.0195
  436MOL0     C58792   1.470   6.820   4.461  0.5185  1.0215 -0.4815
  436MOL0     H58793   0.969   6.934   4.447 -1.6203  0.0170 -0.6756
  436MOL0     H58794   0.765   7.003   4.335  1.2991 -0.3875  1.0289
  436MOL0     H58795   0.746   7.415   4.154  0.8636 -0.3132 -1.6396
  436MOL0     H58796   0.781   7.303   4.024  0.0489 -0.1138 -0.2555
  436MOL0     H58797   0.575   7.423   3.987  2.8717  2.2035  1.8180
  436MOL0     H58798   0.552   7.255   3.993  2.1505 -3.5628  1.7373
  436MOL0     H58799   0.497   7.330   4.271 -4.4901 -0.5307  0.6408
  436MOL0     H58800   0.467   7.472   4.179  1.9675 -0.1127  0.1791
  436MOL0     H58801   0.332   7.312   4.005  1.4978 -2.7473 -0.8819
  436MOL0     H58802   0.316   7.205   4.138 -4.6830  0.9395 -0.6713
  436MOL0     H58803   0.222   7.423   4.263 -0.0069  0.3088 -0.7287
  436MOL0     H58804   0.235   7.497   4.111  0.6235  0.3339  0.3983
  436MOL0     H58805   0.081   7.298   4.016  3.5037 -1.9112  0.1547
  436MOL0     H58806   0.087   7.240   4.185 -0.6078  2.5176  3.4166
  436MOL0     H58807  -0.045   7.427   4.272  0.9232 -0.6767 -0.6860
  436MOL0     H58808  -0.064   7.487   4.100 -2.9987 -1.5962 -2.2784
  436MOL0     H58809  -0.157   7.220   4.208 -0.2859 -0.8412 -1.5136
  436MOL0     H58810  -0.166   7.275   4.044 -0.2658 -2.2304  0.4083
  436MOL0     H58811  -0.299   7.343   4.397 -0.9917 -0.4838 -0.5168
  436MOL0     H58812  -0.606   7.399   4.446  0.8830 -1.2669 -2.8854
  436MOL0     H58813  -0.496   7.529   4.492 -0.1902  3.1938 -0.7065
  436MOL0     H58814  -0.696   7.569   4.265  0.7712  0.3125 -0.9766
  436MOL0     H58815  -0.592   7.686   4.345  0.4159 -1.1364  2.0677
  436MOL0     H58816  -0.753   7.680   4.544 -0.8731  1.6242 -0.2960
  436MOL0     H58817  -0.837   7.547   4.450  0.2097 -0.8068  0.2645
  436MOL0     H58818  -0.891   7.738   4.276  2.2392  0.2653 -1.3293
  436MOL0     H58819  -0.811   7.846   4.386 -0.7503  0.3056  0.7131
  436MOL0     H58820  -1.154   7.675   4.268 -0.0572 -0.4941  0.6539
  436MOL0     H58821  -1.455   7.740   4.176 -0.5195 -2.1729 -3.5833
  436MOL0     H58822  -1.365   7.835   4.056  1.2570  0.1360  0.5018
  436MOL0     H58823  -1.289   7.694   4.107  1.3375 -0.9089  1.9141
  436MOL0     H58824  -1.705   8.157   4.314  1.5240  4.5008  0.0462
  436MOL0     H58825  -1.887   8.283   4.201  4.3772  0.0051  3.5080
  436MOL0     H58826  -1.897   8.421   4.008  2.9842 -2.4996 -0.3316
  436MOL0     H58827  -1.891   8.402   3.832 -0.2770 -1.5033 -0.6384
  436MOL0     H58828  -2.153   8.397   4.011  0.3942  1.3980  0.7211
  436MOL0     H58829  -2.095   8.529   3.903 -2.2229 -0.2731 -3.7599
  436MOL0     H58830  -2.166   8.254   3.790  0.7855 -0.1726 -0.1664
  436MOL0     H58831  -2.152   8.404   3.708 -0.8906 -0.5960 -0.0399
  436MOL0     H58832  -2.375   8.339   3.899  0.7138 -1.8901 -0.6115
  436MOL0     H58833  -2.355   8.499   3.819 -1.6986  0.5998  0.4061
  436MOL0     H58834  -2.371   8.233   3.677  1.8932  0.9895  1.2682
  436MOL0     H58835  -2.375   8.388   3.592 -0.2462  1.8378 -0.0163
  436MOL0     H58836  -2.584   8.256   3.776 -2.0856 -1.4124 -1.2229
  436MOL0     H58837  -2.587   8.433   3.740  3.3793  0.5195  2.0524
  436MOL0     H58838  -2.595   8.214   3.534  0.2820  0.1342  0.1366
  436MOL0     H58839  -2.617   8.386   3.500 -0.5384  0.0368  0.0956
  436MOL0     H58840  -2.778   8.175   3.664 -1.0781  0.6514  0.7870
  436MOL0     H58841  -2.831   8.247   3.510 -0.0855 -0.4587 -0.1777
  436MOL0     H58842  -1.812   8.068   3.844 -1.3865 -1.5125  1.5240
  436MOL0     H58843  -1.627   7.931   3.974 -2.7536 -1.4698  1.5402
  436MOL0     H58844  -1.252   8.128   4.435 -1.9617 -0.2305  0.5268
  436MOL0     H58845  -1.061   8.006   4.529 -0.4466 -2.5173  2.1214
  436MOL0     H58846   0.958   7.363   4.212  0.6948 -0.8745 -0.0046
  436MOL0     H58847   1.163   7.290   4.325  0.6726 -0.6983 -2.4604
  436MOL0     H58848   1.286   6.994   4.687 -0.8154  1.2320 -0.6910
  436MOL0     H58849   1.441   6.891   4.839 -1.5788  0.3136  0.1869
  436MOL0     H58850   1.787   6.659   4.693  0.4428  0.5882  0.7165
  436MOL0     H58851   1.774   6.629   4.869 -0.7847 -0.2497  0.3284
  436MOL0     H58852   1.731   6.429   4.689 -1.5220  0.0645 -0.6650
  436MOL0     H58853   1.579   6.491   4.669  2.0384  0.9282 -2.9771
  436MOL0     H58854   1.514   6.472   4.907 -0.0270  0.7637 -0.8650
  436MOL0     H58855   1.691   6.413   4.943  3.4190 -3.0370 -3.7020
  436MOL0     H58856   1.516   6.281   4.726  0.4070 -1.2383 -1.7018
  436MOL0     H58857   1.491   6.229   4.887 -1.3272  0.2128 -1.7829
  436MOL0     H58858   1.837   6.038   4.799  0.0862  1.0740 -0.8124
  436MOL0     H58859   1.625   6.676   4.508 -0.4084  0.0416  0.1321
  436MOL0     H58860   1.502   6.808   4.358  5.1322  1.1961  0.6891
  437MOL0     O58861   0.059   2.686   9.078 -1.2077  0.0106 -0.8585
  437MOL0     C58862   0.127   2.582   9.066 -0.1926  0.2027  0.3407
  437MOL0     O58863   0.103   2.460   9.123 -0.1118  0.6230  0.1494
  437MOL0     C58864   0.003   2.452   9.215  0.3988  0.2071  0.6323
  437MOL0     C58865   0.027   2.431   9.350  0.8752  0.4686  0.4339
  437MOL0     C58866  -0.078   2.441   9.438  0.1409 -0.0234 -0.2352
  437MOL0     C58867  -0.207   2.461   9.391  0.1953  0.8973  1.2893
  437MOL0     O58868  -0.310   2.494   9.470  0.0958 -0.5401 -0.9942
  437MOL0     C58869  -0.408   2.396   9.488 -1.2051 -0.1938  0.3230
  437MOL0     C58870  -0.530   2.457   9.560 -0.3325  0.0014  0.4294
  437MOL0     C58871  -0.653   2.372   9.533 -0.6541  0.0801 -0.0457
  437MOL0     C58872  -0.666   2.269   9.641 -0.2996 -0.7524  0.0255
  437MOL0     C58873  -0.783   2.173   9.613 -0.0345  0.1066 -0.1924
  437MOL0     C58874  -0.918   2.227   9.654 -0.6209  0.2568 -0.1129
  437MOL0     C58875  -1.018   2.126   9.609 -0.3861 -0.1305 -1.0195
  437MOL0     C58876  -1.149   2.194   9.556 -0.6587 -0.2326 -0.4175
  437MOL0     N58877  -1.243   2.098   9.492 -0.8855 -0.4489  0.2541
  437MOL0     C58878  -1.290   2.108   9.360  0.4141  0.2838 -0.2910
  437MOL0     C58879  -1.405   2.037   9.357 -0.6453  0.1169  0.4631
  437MOL0     C58880  -1.499   2.016   9.243 -0.1804  0.6085  0.5893
  437MOL0     C58881  -1.495   2.141   9.146 -1.1607 -0.1369 -0.2268
  437MOL0     C58882  -1.577   2.144   9.019  0.2121 -0.0315  0.2939
  437MOL0     C58883  -1.726   2.176   9.063  0.6140  0.5481 -0.8766
  437MOL0     O58884  -1.809   2.141   8.949 -0.0368 -0.4072 -0.5479
  437MOL0     C58885  -1.847   2.231   8.855 -0.2778 -0.7297  0.3387
  437MOL0     C58886  -1.804   2.365   8.853  0.3928  0.4660 -0.2099
  437MOL0     C58887  -1.851   2.467   8.769 -0.0725 -0.7905 -0.3784
  437MOL0     C58888  -1.807   2.611   8.789  0.5117 -0.9354 -0.1643
  437MOL0     C58889  -1.942   2.425   8.664 -0.2602 -0.7480 -0.0224
  437MOL0     C58890  -1.998   2.526   8.567  0.5136  0.4603 -0.6934
  437MOL0     O58891  -2.026   2.654   8.610 -0.3559  0.1279 -0.2126
  437MOL0     C58892  -2.069   2.752   8.525 -0.5668  0.3665  0.2711
  437MOL0     C58893  -2.002   2.778   8.410  0.3846  0.3949  0.3820
  437MOL0     C58894  -2.034   2.882   8.327  0.4262 -0.8867  0.0235
  437MOL0     C58895  -2.152   2.951   8.355  0.2127 -0.3827 -0.0902
  437MOL0     O58896  -2.197   3.054   8.273  0.0222 -0.1458  0.4557
  437MOL0     C58897  -2.198   3.022   8.135 -0.3032 -0.9019  0.4016
  437MOL0     C58898  -2.298   3.108   8.061 -0.4218  0.1717  0.6923
  437MOL0     C58899  -2.439   3.079   8.101 -0.1680 -0.1538  0.2186
  437MOL0     C58900  -2.550   3.163   8.037 -0.1477 -0.3532  0.4063
  437MOL0     C58901  -2.541   3.311   8.081 -0.2197  0.4359 -0.0629
  437MOL0     C58902  -2.545   3.345   8.232 -0.2919  1.0099 -0.1850
  437MOL0     C58903  -2.540   3.491   8.259  0.9990  0.3470 -0.2556
  437MOL0     C58904  -2.410   3.565   8.244  0.3477  0.5415 -0.2986
  437MOL0    Cl58905  -2.297   3.506   8.360 -0.3352 -0.3569  0.1191
  437MOL0     C58906  -2.224   2.941   8.476  0.0893  0.0348  0.4572
  437MOL0     C58907  -2.184   2.833   8.555  1.0389  0.1532 -0.4724
  437MOL0     O58908  -2.029   2.486   8.457 -0.3581  0.2112  0.3379
  437MOL0     C58909  -1.991   2.293   8.665 -0.5599 -0.0586  0.3464
  437MOL0     C58910  -1.930   2.203   8.748  0.1363 -0.0798  0.1443
  437MOL0     N58911  -1.428   1.975   9.475 -0.6027 -1.0277 -0.2892
  437MOL0     N58912  -1.340   2.022   9.562 -0.3064 -1.0005  0.6504
  437MOL0     C58913  -0.240   2.466   9.253 -1.3003  0.8567 -0.2809
  437MOL0     C58914  -0.129   2.469   9.169 -0.1062 -0.6775  0.3250
  437MOL0     C58915   0.243   2.589   8.978 -0.3223  0.4880  0.1349
  437MOL0     C58916   0.318   2.715   8.969  0.4289 -0.9444  0.4455
  437MOL0     C58917   0.432   2.715   8.888 -0.1047 -0.3723 -0.1731
  437MOL0     C58918   0.466   2.598   8.819  0.2167  0.2563  0.5850
  437MOL0     O58919   0.581   2.600   8.746 -0.5267 -0.0447 -1.0523
  437MOL0     C58920   0.697   2.537   8.805 -0.0999  0.7492  0.2511
  437MOL0     C58921   0.744   2.604   8.931  0.3372  0.0209  0.0678
  437MOL0     C58922   0.776   2.763   8.923 -0.4759  0.1089 -0.1643
  437MOL0     C58923   0.926   2.789   8.914 -0.2018 -0.0963 -0.2263
  437MOL0     C58924   1.003   2.727   9.022 -0.3497 -0.2219  1.0236
  437MOL0     C58925   1.079   2.680   9.107  0.6725  1.0097 -0.4511
  437MOL0     C58926   0.391   2.478   8.826  0.3890  0.5939 -0.3150
  437MOL0     C58927   0.287   2.470   8.916  0.3101 -0.9702 -0.1037
  437MOL0     H58928   0.123   2.399   9.388 -0.0351 -4.5657 -0.7051
  437MOL0     H58929  -0.060   2.437   9.545 -0.3873 -0.8962 -0.1732
  437MOL0     H58930  -0.427   2.352   9.390  4.4111 -1.6396 -0.4577
  437MOL0     H58931  -0.358   2.321   9.550 -0.1082  1.6278  1.7720
  437MOL0     H58932  -0.519   2.482   9.666  0.3565  0.6036  0.2214
  437MOL0     H58933  -0.538   2.556   9.513 -1.5705 -0.9992 -1.6110
  437MOL0     H58934  -0.739   2.441   9.536 -1.0690 -0.4173 -0.3963
  437MOL0     H58935  -0.654   2.332   9.432 -4.5971  0.1206 -0.1722
  437MOL0     H58936  -0.577   2.207   9.655 -1.2809 -2.0206  0.9922
  437MOL0     H58937  -0.661   2.318   9.739 -0.5483 -0.5927 -0.0388
  437MOL0     H58938  -0.783   2.150   9.507  0.5971  3.8548 -1.1393
  437MOL0     H58939  -0.757   2.078   9.663  0.7819 -0.5898 -1.8824
  437MOL0     H58940  -0.928   2.234   9.763 -3.6462  0.7118 -0.3355
  437MOL0     H58941  -0.928   2.325   9.606  1.1160  1.5622  2.0244
  437MOL0     H58942  -0.970   2.071   9.527  0.8766 -0.5835 -0.0106
  437MOL0     H58943  -1.047   2.054   9.686 -1.7781  0.4842 -0.9431
  437MOL0     H58944  -1.106   2.261   9.481 -0.9061 -1.4387 -1.6963
  437MOL0     H58945  -1.188   2.246   9.643  0.6552 -0.0857  0.0962
  437MOL0     H58946  -1.258   2.177   9.283 -0.3824  1.1352  0.1032
  437MOL0     H58947  -1.469   1.929   9.184  0.1159 -0.6791  2.5119
  437MOL0     H58948  -1.597   1.990   9.285 -0.6699  1.5519  0.0542
  437MOL0     H58949  -1.397   2.152   9.098 -1.9511 -1.3140 -2.2471
  437MOL0     H58950  -1.518   2.229   9.207 -2.7257 -0.1946 -0.6738
  437MOL0     H58951  -1.559   2.050   8.965  1.9806  0.9809 -0.9791
  437MOL0     H58952  -1.544   2.225   8.954 -1.1788  1.3370  1.2172
  437MOL0     H58953  -1.735   2.277   9.103  2.2893 -0.1700  1.5860
  437MOL0     H58954  -1.727   2.108   9.150  1.2845  0.0180 -1.2738
  437MOL0     H58955  -1.731   2.398   8.927 -0.4590  2.8791 -0.3700
  437MOL0     H58956  -1.727   2.615   8.863  0.8799 -0.7873 -0.5632
  437MOL0     H58957  -1.780   2.659   8.694 -2.7452  1.8640  0.1131
  437MOL0     H58958  -1.892   2.663   8.835  0.1657 -1.2823 -0.4062
  437MOL0     H58959  -1.922   2.708   8.388 -0.0017 -1.1515  3.3781
  437MOL0     H58960  -1.971   2.906   8.242 -0.7669 -0.7893 -0.8565
  437MOL0     H58961  -2.098   3.040   8.094 -0.3052 -1.0785  0.3157
  437MOL0     H58962  -2.224   2.918   8.113  1.1076 -1.1554 -0.1756
  437MOL0     H58963  -2.267   3.210   8.087 -1.0842  0.7067 -0.5536
  437MOL0     H58964  -2.286   3.093   7.953 -3.2073  0.9630  0.2058
  437MOL0     H58965  -2.451   3.082   8.209  2.1406 -4.9592  0.8575
  437MOL0     H58966  -2.452   2.974   8.073 -2.1770  0.3828 -1.1531
  437MOL0     H58967  -2.550   3.145   7.929 -1.7736  0.6807  0.1894
  437MOL0     H58968  -2.649   3.124   8.065  0.7312 -2.8129  0.3533
  437MOL0     H58969  -2.619   3.372   8.034  0.0739  0.5856 -0.3664
  437MOL0     H58970  -2.445   3.355   8.053  0.6247  0.0625  2.1082
  437MOL0     H58971  -2.642   3.311   8.269 -0.6791  0.8189 -1.3217
  437MOL0     H58972  -2.457   3.302   8.280  0.2521  0.2510 -1.7722
  437MOL0     H58973  -2.573   3.525   8.357  3.6422  0.8150  0.5550
  437MOL0     H58974  -2.613   3.537   8.191 -0.6872  0.1721  1.3640
  437MOL0     H58975  -2.424   3.673   8.254  0.9085  0.5037  1.0494
  437MOL0     H58976  -2.378   3.544   8.141 -1.7668  1.5063 -1.2173
  437MOL0     H58977  -2.309   3.006   8.490  0.5230  0.5616  0.6805
  437MOL0     H58978  -2.229   2.817   8.652 -0.6076  3.5252 -0.5300
  437MOL0     H58979  -2.068   2.262   8.595  0.9803  0.5447 -1.7251
  437MOL0     H58980  -1.971   2.103   8.738 -2.2412  1.0244 -2.5103
  437MOL0     H58981  -0.335   2.496   9.210 -0.6029  1.0200 -1.7835
  437MOL0     H58982  -0.135   2.496   9.064  2.4964 -1.8661 -0.2152
  437MOL0     H58983   0.298   2.801   9.032 -1.8847  1.8199 -3.5913
  437MOL0     H58984   0.498   2.800   8.881  0.4681 -0.9274 -2.1434
  437MOL0     H58985   0.671   2.431   8.815 -1.0901  0.3732 -4.1601
  437MOL0     H58986   0.772   2.541   8.725 -0.4915  2.3865 -0.0764
  437MOL0     H58987   0.822   2.547   8.984  0.1024  0.2994  0.7269
  437MOL0     H58988   0.656   2.595   8.996  0.5103 -4.4782 -0.0161
  437MOL0     H58989   0.723   2.804   9.010  0.6258 -2.1699  1.7251
  437MOL0     H58990   0.730   2.798   8.831 -1.0127  1.0734  0.4553
  437MOL0     H58991   0.945   2.897   8.912 -0.2832 -0.0498  0.7979
  437MOL0     H58992   0.966   2.759   8.817 -1.5721  2.3534 -1.6617
  437MOL0     H58993   1.141   2.649   9.189 -0.8862 -0.1474  0.3303
  437MOL0     H58994   0.426   2.384   8.785 -0.6052  0.1146 -0.0947
  437MOL0     H58995   0.245   2.374   8.943  2.1327 -1.5135  0.9776
  438MOL0     O58996   4.344   0.327   8.516  0.2286 -0.2276  0.3890
  438MOL0     C58997   4.312   0.290   8.626  0.7005  0.0191 -0.2448
  438MOL0     O58998   4.190   0.238   8.655 -0.4393 -0.0632  0.3083
  438MOL0     C58999   4.079   0.245   8.565 -0.9891  0.4077  0.6787
  438MOL0     C59000   4.062   0.322   8.442  0.5740  0.0883 -0.6550
  438MOL0     C59001   3.946   0.308   8.367  0.4312  0.0068 -0.0050
  438MOL0     C59002   3.848   0.218   8.409  0.5719 -0.4804 -0.6668
  438MOL0     O59003   3.734   0.191   8.327 -0.7196 -0.0207 -0.3376
  438MOL0     C59004   3.639   0.292   8.320 -0.3906  0.2846 -0.3357
  438MOL0     C59005   3.528   0.286   8.432 -0.0647  0.9975  0.0264
  438MOL0     C59006   3.463   0.150   8.448  0.3401 -0.4555  1.3192
  438MOL0     C59007   3.370   0.100   8.327 -0.2750  0.3776 -0.0491
  438MOL0     C59008   3.243   0.024   8.384 -0.9121 -0.2439  0.7396
  438MOL0     C59009   3.153   0.129   8.449  0.3998 -0.3930 -0.1590
  438MOL0     C59010   3.010   0.089   8.449  0.8409  0.6274 -0.6274
  438MOL0     C59011   2.936   0.105   8.316 -0.0065 -0.8989  0.1632
  438MOL0     N59012   2.794   0.082   8.341  0.0755 -0.0747 -0.0091
  438MOL0     C59013   2.736  -0.044   8.339 -0.2669  0.5795 -1.0887
  438MOL0     C59014   2.606  -0.010   8.364  0.3061 -0.6385 -0.6212
  438MOL0     C59015   2.488  -0.109   8.382 -0.2158 -0.1121 -0.4184
  438MOL0     C59016   2.389  -0.117   8.258 -0.1399 -0.9802 -1.0318
  438MOL0     C59017   2.307  -0.242   8.264  0.1535 -0.6557 -0.9013
  438MOL0     C59018   2.196  -0.254   8.166  1.3478 -0.1520  0.3648
  438MOL0     O59019   2.100  -0.142   8.190 -0.4343 -0.0225 -0.4197
  438MOL0     C59020   1.994  -0.129   8.100  0.2261  0.6178  0.7163
  438MOL0     C59021   1.954  -0.229   8.007 -0.1310 -0.5097  0.2447
  438MOL0     C59022   1.848  -0.220   7.920  0.0057  0.0943  0.0314
  438MOL0     C59023   1.843  -0.322   7.809 -0.4465  0.6698 -0.0095
  438MOL0     C59024   1.764  -0.105   7.932 -0.1446 -0.5259  0.2325
  438MOL0     C59025   1.641  -0.078   7.861  0.2081  0.3199  0.3250
  438MOL0     O59026   1.593   0.048   7.855  0.3481 -0.1823 -0.4482
  438MOL0     C59027   1.467   0.074   7.797 -0.0682  0.1700  0.1349
  438MOL0     C59028   1.458   0.212   7.762 -0.1273 -0.9217  0.6245
  438MOL0     C59029   1.343   0.257   7.699  0.1449 -0.2189  0.4184
  438MOL0     C59030   1.229   0.175   7.682  0.3134 -0.7328 -0.1525
  438MOL0     O59031   1.126   0.225   7.608 -0.4411  0.2014  0.1753
  438MOL0     C59032   1.003   0.227   7.681 -0.4259  0.6083 -0.5739
  438MOL0     C59033   0.897   0.293   7.587  1.0790 -1.5895 -0.9160
  438MOL0     C59034   0.763   0.312   7.654 -0.6993  0.3632  0.0424
  438MOL0     C59035   0.659   0.364   7.559  0.1135 -0.2082 -0.4674
  438MOL0     C59036   0.515   0.336   7.610  0.1838  0.8626  0.6265
  438MOL0     C59037   0.412   0.416   7.531  0.4721  0.8657  0.3294
  438MOL0     C59038   0.272   0.388   7.590  0.1468  0.5019 -0.3664
  438MOL0     C59039   0.180   0.437   7.485  0.6527  0.5461  0.4668
  438MOL0    Cl59040   0.000   0.460   7.533  0.0773  0.1298  0.0098
  438MOL0     C59041   1.240   0.042   7.713  0.5883 -0.4052 -0.1034
  438MOL0     C59042   1.352  -0.009   7.770 -0.9073 -0.4131  0.3739
  438MOL0     O59043   1.576  -0.179   7.829 -0.2755  0.6090  0.1854
  438MOL0     C59044   1.805  -0.004   8.015 -0.1498  0.1216 -0.0465
  438MOL0     C59045   1.917  -0.017   8.101  1.2843 -0.6041 -0.2011
  438MOL0     N59046   2.578   0.126   8.373  0.1017 -0.7686  0.4938
  438MOL0     N59047   2.698   0.180   8.365 -1.0356 -0.4480  0.7000
  438MOL0     C59048   3.866   0.143   8.528  0.4021  0.2584  0.3708
  438MOL0     C59049   3.980   0.162   8.602  0.2340  0.3075 -0.1615
  438MOL0     C59050   4.424   0.272   8.724  0.6151  0.0666 -0.0932
  438MOL0     C59051   4.400   0.198   8.844 -0.2794  0.8172 -0.2589
  438MOL0     C59052   4.498   0.198   8.943  0.6310 -0.3808 -0.1710
  438MOL0     C59053   4.621   0.267   8.932 -0.5257  0.1084  0.2427
  438MOL0     O59054   4.707   0.272   9.039 -0.9814 -0.3198  0.5911
  438MOL0     C59055   4.660   0.239   9.165 -0.1629 -0.1791 -0.0556
  438MOL0     C59056   4.749   0.305   9.270 -0.0264  0.3507  0.4605
  438MOL0     C59057   4.877   0.221   9.299  0.0954 -0.4072  0.3761
  438MOL0     C59058   4.955   0.308   9.404  0.6851 -0.5330  0.6233
  438MOL0     C59059   5.079   0.236   9.437 -0.9615 -0.8167 -0.1924
  438MOL0     C59060   5.188   0.183   9.466  0.1036 -0.3652 -0.6489
  438MOL0     C59061   4.650   0.328   8.809 -0.4898 -0.7985  0.3004
  438MOL0     C59062   4.556   0.331   8.705  0.8354 -0.0694  0.0585
  438MOL0     H59063   4.144   0.388   8.415  0.6854  0.7543  1.1607
  438MOL0     H59064   3.925   0.358   8.273 -1.1231 -0.5495  0.0108
  438MOL0     H59065   3.679   0.393   8.317  1.4920 -0.2405  2.8298
  438MOL0     H59066   3.594   0.277   8.221  0.7489 -2.5398 -0.5191
  438MOL0     H59067   3.558   0.335   8.525 -1.2989  1.5523  0.1565
  438MOL0     H59068   3.452   0.357   8.397  0.4320  1.8609  0.6686
  438MOL0     H59069   3.537   0.073   8.473 -0.2668 -1.6818 -0.4808
  438MOL0     H59070   3.405   0.153   8.541 -0.6103 -3.3863  0.9211
  438MOL0     H59071   3.347   0.178   8.253 -0.9095  0.2560  0.0162
  438MOL0     H59072   3.421   0.019   8.274 -1.1817 -0.4884  0.3741
  438MOL0     H59073   3.199  -0.031   8.301 -0.9074 -1.4637  1.5223
  438MOL0     H59074   3.262  -0.050   8.462 -0.5001 -1.7322 -0.6977
  438MOL0     H59075   3.183   0.144   8.553  1.1195 -1.8360 -0.1312
  438MOL0     H59076   3.172   0.224   8.397  0.3980  1.3015  2.7279
  438MOL0     H59077   2.993  -0.012   8.487  0.1316  1.3104  0.9851
  438MOL0     H59078   2.969   0.166   8.516  2.6600  1.2684 -0.1927
  438MOL0     H59079   2.984   0.038   8.245  1.3271  1.9731 -1.8040
  438MOL0     H59080   2.946   0.208   8.283  0.1027 -1.0642 -0.3230
  438MOL0     H59081   2.773  -0.145   8.335 -1.3656 -0.0982  2.3167
  438MOL0     H59082   2.534  -0.207   8.402  2.5974  0.6595 -2.5364
  438MOL0     H59083   2.437  -0.079   8.474  1.7449 -0.5732  0.8893
  438MOL0     H59084   2.449  -0.118   8.167 -0.6496 -0.4122 -1.3827
  438MOL0     H59085   2.331  -0.023   8.255  0.5381 -0.5178 -0.0698
  438MOL0     H59086   2.266  -0.252   8.365 -0.4951 -0.5181 -1.1463
  438MOL0     H59087   2.373  -0.328   8.251  0.4224 -1.1715  2.7932
  438MOL0     H59088   2.147  -0.352   8.175  2.1148 -1.1671 -3.9668
  438MOL0     H59089   2.223  -0.254   8.060 -0.2203  0.0428 -0.0719
  438MOL0     H59090   2.017  -0.317   8.006  0.3393 -0.1930  0.8459
  438MOL0     H59091   1.940  -0.374   7.806 -0.8414 -0.2823  1.9570
  438MOL0     H59092   1.760  -0.392   7.821 -0.5210  1.0999  2.3874
  438MOL0     H59093   1.818  -0.281   7.710  0.1732 -1.7332 -1.2460
  438MOL0     H59094   1.536   0.279   7.797 -3.5887  3.3488  1.0110
  438MOL0     H59095   1.335   0.358   7.660 -2.5421 -1.4006 -2.5265
  438MOL0     H59096   0.967   0.126   7.704 -0.3544  0.9839  1.3891
  438MOL0     H59097   1.024   0.279   7.775 -1.8861 -1.8851  1.2470
  438MOL0     H59098   0.918   0.396   7.557 -2.0747 -1.0385 -1.5338
  438MOL0     H59099   0.899   0.228   7.499  2.3316 -1.0038 -1.3429
  438MOL0     H59100   0.777   0.379   7.739 -0.0688 -1.2000  1.2177
  438MOL0     H59101   0.752   0.209   7.690  1.6063 -0.1282 -0.5021
  438MOL0     H59102   0.669   0.473   7.550 -1.9041  0.0282 -0.1308
  438MOL0     H59103   0.685   0.333   7.457  2.8575 -0.8257  0.3328
  438MOL0     H59104   0.510   0.363   7.716  2.3408 -1.0768  1.3143
  438MOL0     H59105   0.493   0.229   7.604 -0.7763  1.0342  0.9547
  438MOL0     H59106   0.441   0.521   7.534  1.1211  0.6699  1.7187
  438MOL0     H59107   0.412   0.386   7.426 -0.9876 -0.3804  0.6363
  438MOL0     H59108   0.262   0.451   7.680 -0.3887  1.7192 -1.2466
  438MOL0     H59109   0.251   0.282   7.605 -0.3146  0.5628 -0.5811
  438MOL0     H59110   0.181   0.377   7.394 -1.4893  0.7507  0.2534
  438MOL0     H59111   0.202   0.542   7.463  1.9967  0.1852  0.0085
  438MOL0     H59112   1.156  -0.017   7.678 -1.1953  1.5207  0.6858
  438MOL0     H59113   1.339  -0.114   7.795 -0.7847  0.3976  4.4919
  438MOL0     H59114   1.752   0.090   8.023  1.0875  0.8091  0.2493
  438MOL0     H59115   1.938   0.067   8.166  0.5764  0.4689 -1.3211
  438MOL0     H59116   3.782   0.083   8.561  2.1176 -1.5475  1.6716
  438MOL0     H59117   3.987   0.101   8.691  0.0639  1.5395  0.7086
  438MOL0     H59118   4.307   0.150   8.875  0.1606  1.0265  1.4508
  438MOL0     H59119   4.462   0.145   9.030 -0.5476  2.2257  1.0190
  438MOL0     H59120   4.557   0.272   9.182  0.4807  2.2994 -0.6830
  438MOL0     H59121   4.667   0.130   9.179  2.6650 -0.2706 -1.4662
  438MOL0     H59122   4.688   0.310   9.361 -0.7679  1.8640 -0.0980
  438MOL0     H59123   4.776   0.409   9.250  1.9477  0.2008  2.0154
  438MOL0     H59124   4.941   0.210   9.211 -1.1718  1.0068 -0.7991
  438MOL0     H59125   4.851   0.117   9.320 -2.3762 -0.4517 -2.1954
  438MOL0     H59126   4.890   0.311   9.492 -1.2995 -1.1571 -0.7540
  438MOL0     H59127   4.963   0.410   9.365  0.3523 -1.0563 -0.8978
  438MOL0     H59128   5.276   0.126   9.489 -0.7037 -1.0676  0.8210
  438MOL0     H59129   4.755   0.359   8.810 -0.3244 -1.3325  1.6181
  438MOL0     H59130   4.570   0.380   8.610  0.7410  1.4200  0.7825
  439MOL0     O59131   6.238   4.374   4.520 -0.3247  1.1881 -0.2123
  439MOL0     C59132   6.173   4.412   4.616  1.6391 -0.2783 -0.1637
  439MOL0     O59133   6.033   4.450   4.605 -0.2665  0.2646 -0.1468
  439MOL0     C59134   5.976   4.449   4.479  0.0784  0.2417 -0.3310
  439MOL0     C59135   5.920   4.570   4.429 -0.1555 -0.1135 -0.2658
  439MOL0     C59136   5.850   4.581   4.299 -0.3446  0.4381  0.2004
  439MOL0     C59137   5.843   4.456   4.223 -0.8974 -0.5824 -0.6733
  439MOL0     O59138   5.783   4.448   4.102 -0.1473  0.5939  0.0668
  439MOL0     C59139   5.648   4.487   4.118  0.3901 -0.0111  1.1335
  439MOL0     C59140   5.561   4.433   3.996 -0.4369  0.5699  0.3263
  439MOL0     C59141   5.411   4.435   4.035  0.9239  0.1387 -0.8335
  439MOL0     C59142   5.328   4.410   3.908  0.1505 -0.3206 -0.7904
  439MOL0     C59143   5.322   4.263   3.871 -0.4415  0.4780  0.8965
  439MOL0     C59144   5.249   4.242   3.738  0.3065 -0.3690 -0.6526
  439MOL0     C59145   5.099   4.240   3.771  0.0646  0.0670  0.1177
  439MOL0     C59146   5.013   4.179   3.650 -1.2716  0.0322 -0.6057
  439MOL0     N59147   4.868   4.187   3.689  0.0888 -0.0828  0.5168
  439MOL0     C59148   4.814   4.154   3.805 -0.5792  0.0862 -0.0833
  439MOL0     C59149   4.692   4.213   3.816  0.1813  1.1351 -0.5483
  439MOL0     C59150   4.606   4.195   3.942  0.3728 -0.2038  0.7348
  439MOL0     C59151   4.466   4.256   3.928  0.6867 -0.6729 -0.2214
  439MOL0     C59152   4.377   4.217   3.806 -0.5685  0.6707 -0.1644
  439MOL0     C59153   4.267   4.309   3.767  0.1104  0.5151  0.5095
  439MOL0     O59154   4.168   4.327   3.869 -0.1701  0.4110  0.4042
  439MOL0     C59155   4.032   4.328   3.851  0.1736 -0.2319 -0.4390
  439MOL0     C59156   3.960   4.322   3.732  1.0858  0.1069  0.7428
  439MOL0     C59157   3.823   4.334   3.736  1.0575 -0.2035  0.5727
  439MOL0     C59158   3.751   4.304   3.602 -0.1832  0.0751  0.5032
  439MOL0     C59159   3.757   4.369   3.859 -1.3976 -0.1625 -0.9519
  439MOL0     C59160   3.610   4.374   3.872 -0.2322 -0.4324 -0.0954
  439MOL0     O59161   3.561   4.461   3.973  0.1927 -0.3781 -0.9618
  439MOL0     C59162   3.427   4.457   3.992 -0.0733  1.0063 -0.5063
  439MOL0     C59163   3.372   4.418   4.119  0.4373  0.0953  0.1287
  439MOL0     C59164   3.237   4.436   4.144  0.0493  0.5496  0.2007
  439MOL0     C59165   3.147   4.485   4.050 -0.6096 -0.2383 -0.5946
  439MOL0     O59166   3.011   4.518   4.069 -0.0281 -0.1747  0.1113
  439MOL0     C59167   2.932   4.439   4.151  0.4127 -0.3288  1.6335
  439MOL0     C59168   2.789   4.423   4.095 -0.1934 -0.1764  0.7324
  439MOL0     C59169   2.697   4.521   4.160  0.9476  1.0243  0.3081
  439MOL0     C59170   2.548   4.483   4.133 -0.6098  0.0746  0.3438
  439MOL0     C59171   2.458   4.581   4.189  0.5417 -0.8721  0.5135
  439MOL0     C59172   2.318   4.538   4.148 -0.2558  0.7767  0.0553
  439MOL0     C59173   2.216   4.648   4.176 -0.2937 -0.6348 -0.0764
  439MOL0     C59174   2.074   4.616   4.140 -0.6604  0.8071 -0.0049
  439MOL0    Cl59175   2.070   4.600   3.961 -0.1802 -0.4990  0.3323
  439MOL0     C59176   3.200   4.528   3.922  0.0342  0.1035 -0.2587
  439MOL0     C59177   3.335   4.506   3.900 -0.2323  0.9148  0.8664
  439MOL0     O59178   3.540   4.286   3.810  0.1469 -0.2924  0.4247
  439MOL0     C59179   3.829   4.389   3.976 -0.9162  0.3365 -0.1643
  439MOL0     C59180   3.970   4.369   3.971 -0.1619  0.4715  0.5882
  439MOL0     N59181   4.681   4.300   3.710  0.1250 -0.4253 -0.7117
  439MOL0     N59182   4.783   4.273   3.635  0.7802 -0.3436  0.7673
  439MOL0     C59183   5.901   4.335   4.273 -0.2358 -0.6117  0.0716
  439MOL0     C59184   5.964   4.337   4.398 -0.6559 -0.6164 -0.2865
  439MOL0     C59185   6.224   4.392   4.750 -0.2039  0.0733  0.8704
  439MOL0     C59186   6.149   4.361   4.858 -0.0552 -0.1900  0.5375
  439MOL0     C59187   6.202   4.319   4.980  0.7078  0.1843 -0.0428
  439MOL0     C59188   6.339   4.322   5.000 -0.1144 -0.7170  0.1368
  439MOL0     O59189   6.387   4.316   5.125 -0.2873 -0.2584 -0.5895
  439MOL0     C59190   6.526   4.307   5.143  0.2069  0.1446 -0.5527
  439MOL0     C59191   6.577   4.270   5.285 -0.3695  0.3168 -0.7026
  439MOL0     C59192   6.587   4.387   5.382  0.6965 -0.1547 -0.5244
  439MOL0     C59193   6.634   4.356   5.527  0.4164  0.5360  0.6700
  439MOL0     C59194   6.767   4.298   5.531 -0.8009 -0.9216  0.0850
  439MOL0     C59195   6.888   4.265   5.523 -0.1408 -0.0440 -0.3622
  439MOL0     C59196   6.425   4.351   4.887  0.5593  0.5041 -0.5076
  439MOL0     C59197   6.366   4.376   4.765 -0.0194 -0.1387  0.7933
  439MOL0     H59198   5.919   4.663   4.487 -0.4480  0.5407 -1.2987
  439MOL0     H59199   5.804   4.673   4.265 -2.8368 -1.3582 -1.6204
  439MOL0     H59200   5.609   4.439   4.208  0.6611 -3.0276 -0.2350
  439MOL0     H59201   5.641   4.596   4.130  1.2616  0.1502  0.2733
  439MOL0     H59202   5.583   4.491   3.906  0.4524  0.4320  0.4446
  439MOL0     H59203   5.585   4.328   3.973 -5.5505 -1.9391  4.2962
  439MOL0     H59204   5.383   4.359   4.109  0.6406  0.6583 -0.4032
  439MOL0     H59205   5.394   4.534   4.077  0.7660  0.3920 -1.4952
  439MOL0     H59206   5.224   4.439   3.925  0.1502 -1.9366  3.1575
  439MOL0     H59207   5.371   4.473   3.830 -1.7722 -1.2701 -2.7082
  439MOL0     H59208   5.423   4.222   3.861 -0.1367  1.7063 -2.8741
  439MOL0     H59209   5.285   4.205   3.956  2.1518 -1.1294  1.0602
  439MOL0     H59210   5.265   4.326   3.669  0.5848  1.3454  1.3923
  439MOL0     H59211   5.278   4.150   3.687 -0.7826  0.1558 -2.3407
  439MOL0     H59212   5.081   4.174   3.856  2.9502 -0.4043  0.4656
  439MOL0     H59213   5.062   4.341   3.795 -1.7294 -0.2703 -1.0137
  439MOL0     H59214   5.049   4.076   3.639 -0.1966  0.4669 -1.3464
  439MOL0     H59215   5.027   4.224   3.551 -1.0851  0.8770 -0.2037
  439MOL0     H59216   4.858   4.092   3.882  1.9213 -1.1065 -2.3123
  439MOL0     H59217   4.591   4.087   3.953  1.5477 -0.2628  2.1457
  439MOL0     H59218   4.662   4.240   4.025  0.7275 -0.6855  0.7639
  439MOL0     H59219   4.471   4.365   3.928 -0.0017 -0.6126  1.5532
  439MOL0     H59220   4.412   4.235   4.021  1.0334  0.1769  0.1812
  439MOL0     H59221   4.332   4.118   3.821  1.0033 -0.2447 -1.2048
  439MOL0     H59222   4.433   4.189   3.717  0.0595 -2.3014  1.0471
  439MOL0     H59223   4.222   4.262   3.679 -1.8023  0.3549  1.5339
  439MOL0     H59224   4.297   4.408   3.731  0.6585  0.2555  0.2391
  439MOL0     H59225   4.006   4.308   3.635 -2.7668 -0.0114 -1.2587
  439MOL0     H59226   3.689   4.215   3.616 -3.3558  2.5317  4.6117
  439MOL0     H59227   3.677   4.380   3.575 -0.4708 -0.1918  0.5337
  439MOL0     H59228   3.827   4.305   3.524  0.7980 -2.3114  1.3512
  439MOL0     H59229   3.442   4.386   4.195  2.7812  0.7645 -1.6589
  439MOL0     H59230   3.215   4.406   4.246 -1.3345 -0.5268 -0.3651
  439MOL0     H59231   2.979   4.341   4.160 -3.1182 -2.6434 -1.8034
  439MOL0     H59232   2.938   4.491   4.247  0.2356  1.0293  0.9475
  439MOL0     H59233   2.777   4.440   3.988 -0.9228  0.6445  0.9329
  439MOL0     H59234   2.761   4.322   4.124  3.2304 -0.8166  2.3493
  439MOL0     H59235   2.710   4.616   4.108  2.9762 -0.0076 -1.1833
  439MOL0     H59236   2.721   4.536   4.266 -0.5317  0.1597  0.7943
  439MOL0     H59237   2.529   4.479   4.025  0.5619  2.2770 -0.0097
  439MOL0     H59238   2.528   4.388   4.183  2.0006 -1.6463 -1.6305
  439MOL0     H59239   2.483   4.682   4.156 -0.2808 -1.4361 -2.0788
  439MOL0     H59240   2.455   4.590   4.298 -0.6047 -0.6804  0.4848
  439MOL0     H59241   2.331   4.531   4.040  1.1956  1.7220  0.1416
  439MOL0     H59242   2.274   4.447   4.189 -0.7054  1.0547  0.2000
  439MOL0     H59243   2.247   4.737   4.122  1.9783 -0.5262  1.2858
  439MOL0     H59244   2.215   4.668   4.284  0.7431 -0.1528 -0.1523
  439MOL0     H59245   2.008   4.697   4.170 -1.2321  0.3811 -0.0879
  439MOL0     H59246   2.052   4.517   4.183 -2.3650  1.5324  0.8697
  439MOL0     H59247   3.121   4.571   3.861 -1.3934 -1.0130  0.7071
  439MOL0     H59248   3.362   4.527   3.797 -3.6141 -3.5039 -1.2629
  439MOL0     H59249   3.772   4.413   4.065 -1.7291 -0.3137 -0.5007
  439MOL0     H59250   4.034   4.388   4.057 -0.2534 -1.0621  1.0340
  439MOL0     H59251   5.892   4.246   4.212  0.6113 -1.4032  1.0619
  439MOL0     H59252   6.008   4.244   4.434 -2.3414 -0.7045  1.7064
  439MOL0     H59253   6.041   4.369   4.854 -0.0329  0.1000  0.5117
  439MOL0     H59254   6.130   4.300   5.060 -2.0175 -2.5262 -2.8518
  439MOL0     H59255   6.555   4.222   5.081  2.7245  1.8514 -1.9263
  439MOL0     H59256   6.577   4.402   5.121  1.1183 -0.4427 -1.0411
  439MOL0     H59257   6.682   4.250   5.262 -0.3375  1.6240 -1.7905
  439MOL0     H59258   6.520   4.188   5.331  1.0028  1.1822  2.8474
  439MOL0     H59259   6.494   4.444   5.389  2.2516  2.5137 -0.1131
  439MOL0     H59260   6.665   4.447   5.334 -0.0136  1.2161 -0.0291
  439MOL0     H59261   6.559   4.287   5.567  0.1648 -0.2841 -1.0881
  439MOL0     H59262   6.627   4.449   5.583  0.9012  0.3264  1.0836
  439MOL0     H59263   6.987   4.228   5.506  0.2756  0.6174  0.5551
  439MOL0     H59264   6.533   4.365   4.890  0.8840 -1.2210 -2.2786
  439MOL0     H59265   6.433   4.395   4.681 -0.1020  0.1027  0.7806
  440MOL0     O59266   5.870   7.270   5.699  0.7475 -0.0422 -0.2068
  440MOL0     C59267   5.885   7.172   5.623  0.3369 -0.5023 -0.4600
  440MOL0     O59268   5.797   7.074   5.595 -0.5022  0.4939 -0.3192
  440MOL0     C59269   5.664   7.065   5.629  0.0821 -0.7893 -0.1630
  440MOL0     C59270   5.586   7.169   5.688 -0.5577  0.5947 -0.7430
  440MOL0     C59271   5.455   7.139   5.708 -0.0714 -0.0011 -0.8327
  440MOL0     C59272   5.397   7.018   5.676 -0.4410  0.8515  0.2630
  440MOL0     O59273   5.264   7.004   5.707 -0.1642  0.0752 -0.1846
  440MOL0     C59274   5.195   6.882   5.660 -0.3075  0.0351 -0.3262
  440MOL0     C59275   5.053   6.870   5.721  0.0915  0.7243  0.3977
  440MOL0     C59276   4.974   6.995   5.723 -0.1691 -0.1316 -0.1792
  440MOL0     C59277   4.823   6.972   5.710  0.0461 -0.4199  0.5696
  440MOL0     C59278   4.752   6.904   5.823 -0.4116  0.5033 -0.3361
  440MOL0     C59279   4.599   6.920   5.822  0.4508  0.4992 -0.1490
  440MOL0     C59280   4.530   6.841   5.941 -0.3728  0.0697  0.2538
  440MOL0     C59281   4.550   6.906   6.081 -0.5879 -0.1542 -0.3213
  440MOL0     N59282   4.457   7.021   6.110 -0.0370  0.7403 -0.1183
  440MOL0     C59283   4.324   7.002   6.137  0.3671  0.5195 -0.7157
  440MOL0     C59284   4.279   7.128   6.143  0.9414  0.5631  0.1793
  440MOL0     C59285   4.141   7.171   6.158 -0.8849 -0.0816  0.0680
  440MOL0     C59286   4.069   7.134   6.035  0.2101 -0.1332 -0.1329
  440MOL0     C59287   3.917   7.137   6.069 -0.7054 -0.4963 -0.4596
  440MOL0     C59288   3.859   7.114   5.936  0.1334  0.0066 -0.4479
  440MOL0     O59289   3.721   7.080   5.971  0.5384 -0.4444  0.1077
  440MOL0     C59290   3.621   7.140   5.890  0.3285  0.2478 -0.3612
  440MOL0     C59291   3.628   7.166   5.751 -0.3066 -0.1457 -0.8968
  440MOL0     C59292   3.519   7.230   5.681 -0.0846  0.8930 -1.1207
  440MOL0     C59293   3.546   7.246   5.537 -0.4046  0.9005  0.1995
  440MOL0     C59294   3.388   7.243   5.752 -0.2367  0.6882  0.3869
  440MOL0     C59295   3.264   7.292   5.680  0.7939  0.2613  0.2951
  440MOL0     O59296   3.156   7.292   5.760  0.1320  0.5684 -0.4450
  440MOL0     C59297   3.028   7.335   5.712  0.2629 -0.3573  0.5042
  440MOL0     C59298   2.946   7.395   5.809  0.5788  0.5910 -0.2804
  440MOL0     C59299   2.819   7.442   5.767 -0.1644  0.3578  0.2742
  440MOL0     C59300   2.778   7.435   5.639  0.2503  0.1408 -0.0186
  440MOL0     O59301   2.647   7.480   5.626  0.0776  0.4945  0.0784
  440MOL0     C59302   2.628   7.549   5.497  0.2616 -0.3974  1.3744
  440MOL0     C59303   2.484   7.602   5.498 -0.4200  0.3114 -0.4040
  440MOL0     C59304   2.456   7.742   5.460 -1.0158 -1.4209  0.2866
  440MOL0     C59305   2.320   7.774   5.520 -0.7907  0.1871  0.0700
  440MOL0     C59306   2.280   7.916   5.471  0.4218  0.6857 -0.3969
  440MOL0     C59307   2.130   7.933   5.489 -0.4422  0.2415 -0.6343
  440MOL0     C59308   2.080   8.063   5.437 -0.5256 -0.0351 -0.0950
  440MOL0     C59309   1.935   8.044   5.399 -0.3381  0.0702 -0.7882
  440MOL0    Cl59310   1.859   8.057   5.559 -0.1768  0.8157 -0.3451
  440MOL0     C59311   2.860   7.373   5.543  0.4309 -0.3225 -0.6501
  440MOL0     C59312   2.981   7.312   5.575 -0.1061  0.0101  0.5802
  440MOL0     O59313   3.272   7.331   5.561  0.2284 -0.3345  0.4364
  440MOL0     C59314   3.392   7.213   5.889  0.2824 -0.0575  0.0827
  440MOL0     C59315   3.506   7.165   5.955 -0.4257  0.0993  1.0027
  440MOL0     N59316   4.377   7.223   6.122 -1.3193 -0.0458 -0.2920
  440MOL0     N59317   4.480   7.153   6.101  0.5870  0.2974  0.2603
  440MOL0     C59318   5.473   6.916   5.617 -0.4214 -0.1448 -1.1116
  440MOL0     C59319   5.607   6.946   5.585  1.0714 -0.4287 -0.1302
  440MOL0     C59320   6.030   7.150   5.584 -0.2497  0.0847  0.2192
  440MOL0     C59321   6.067   7.034   5.516 -0.1733  0.4476 -1.0905
  440MOL0     C59322   6.193   7.003   5.476 -0.6383  0.1077 -0.2989
  440MOL0     C59323   6.299   7.088   5.511  0.0396 -0.8488 -0.2961
  440MOL0     O59324   6.431   7.073   5.484  0.0314 -0.1510  0.8032
  440MOL0     C59325   6.490   6.943   5.448 -0.3631 -0.2900 -0.1652
  440MOL0     C59326   6.535   6.856   5.563  0.3887  0.0491  0.0418
  440MOL0     C59327   6.657   6.906   5.633  0.2465 -0.4869  0.2014
  440MOL0     C59328   6.765   6.973   5.540 -0.3534  1.1999 -0.1197
  440MOL0     C59329   6.878   7.007   5.624 -0.0328  0.6983 -0.4496
  440MOL0     C59330   6.973   7.021   5.694  0.3814  0.2922 -0.1833
  440MOL0     C59331   6.269   7.197   5.595  0.7815  0.5633 -0.1529
  440MOL0     C59332   6.139   7.227   5.624 -1.0027 -0.0493 -0.6422
  440MOL0     H59333   5.632   7.265   5.710 -0.6513  0.9282 -1.9116
  440MOL0     H59334   5.390   7.213   5.754 -0.0205  0.0969 -0.9179
  440MOL0     H59335   5.206   6.884   5.551  2.3111 -1.4803 -0.1930
  440MOL0     H59336   5.242   6.790   5.698 -1.3382  0.5348  2.3685
  440MOL0     H59337   5.000   6.790   5.668 -0.0229  3.0833 -3.4143
  440MOL0     H59338   5.068   6.837   5.824  2.6919  0.7661  0.0832
  440MOL0     H59339   4.989   7.056   5.812 -2.8284  0.5327 -0.1252
  440MOL0     H59340   5.015   7.059   5.644  0.2547 -2.0165 -1.5640
  440MOL0     H59341   4.770   7.066   5.690  0.0858  0.3027  3.4915
  440MOL0     H59342   4.818   6.908   5.621 -0.0391 -0.2922  0.4821
  440MOL0     H59343   4.778   6.798   5.815 -2.6246 -0.0741 -0.4816
  440MOL0     H59344   4.805   6.942   5.911  1.6767 -0.5398 -1.0673
  440MOL0     H59345   4.576   7.026   5.833 -0.2662  0.1033  3.3093
  440MOL0     H59346   4.552   6.893   5.727 -0.2751  1.3331 -0.0408
  440MOL0     H59347   4.425   6.840   5.909 -0.1792  3.9999 -1.1027
  440MOL0     H59348   4.573   6.741   5.950  0.7422  0.5828  0.7495
  440MOL0     H59349   4.650   6.948   6.091 -1.5575  3.1272 -2.8243
  440MOL0     H59350   4.538   6.824   6.153  3.7331 -0.3582  0.4190
  440MOL0     H59351   4.273   6.907   6.146 -0.9442  1.2951  0.2495
  440MOL0     H59352   4.100   7.111   6.240 -1.3421  1.4666  1.0171
  440MOL0     H59353   4.125   7.276   6.185  0.5358  0.3209 -0.5601
  440MOL0     H59354   4.105   7.036   6.002  3.0916  0.6025  0.5548
  440MOL0     H59355   4.089   7.202   5.952 -0.9329 -1.6353 -1.7084
  440MOL0     H59356   3.899   7.242   6.095  1.3782  0.2377 -1.7945
  440MOL0     H59357   3.886   7.064   6.144 -2.7922 -0.9605 -1.6965
  440MOL0     H59358   3.903   7.024   5.892 -1.8653 -0.8503 -0.8179
  440MOL0     H59359   3.876   7.199   5.869  0.4104  0.3431  0.0495
  440MOL0     H59360   3.718   7.159   5.691  0.2330  0.4858 -0.1863
  440MOL0     H59361   3.652   7.240   5.512 -0.2291  3.3245  0.1218
  440MOL0     H59362   3.490   7.172   5.479 -1.4022 -0.3148  2.6184
  440MOL0     H59363   3.513   7.346   5.508 -3.6057 -0.2373 -0.4654
  440MOL0     H59364   2.961   7.400   5.917  0.9208 -1.3132 -0.2128
  440MOL0     H59365   2.755   7.494   5.838  1.1567 -1.3382  2.8655
  440MOL0     H59366   2.693   7.637   5.504  0.5406 -0.6397  1.9468
  440MOL0     H59367   2.647   7.488   5.408 -3.8894  0.7071 -0.5108
  440MOL0     H59368   2.440   7.531   5.429 -2.5897 -0.0045  1.2142
  440MOL0     H59369   2.434   7.583   5.593 -1.1080 -1.7183 -1.1210
  440MOL0     H59370   2.457   7.742   5.350  1.6579  3.6824  0.0138
  440MOL0     H59371   2.534   7.809   5.496  0.0560 -1.9750 -0.8973
  440MOL0     H59372   2.252   7.697   5.481 -0.0942 -0.4308  0.0521
  440MOL0     H59373   2.320   7.775   5.630 -1.0364 -2.9424  0.2056
  440MOL0     H59374   2.317   7.934   5.370 -0.2708 -2.7612 -1.3972
  440MOL0     H59375   2.321   7.988   5.543 -0.3068  0.7924 -0.0810
  440MOL0     H59376   2.087   7.853   5.428  4.3653 -1.5441 -2.1337
  440MOL0     H59377   2.111   7.918   5.596  0.8388  1.8448 -0.1397
  440MOL0     H59378   2.134   8.100   5.349  2.2039 -0.2164  1.4024
  440MOL0     H59379   2.084   8.144   5.511  0.2343 -1.0825  1.0509
  440MOL0     H59380   1.916   7.948   5.351  1.4753  0.2058 -1.8803
  440MOL0     H59381   1.903   8.132   5.342  2.8155  2.1992  0.4120
  440MOL0     H59382   2.822   7.360   5.442  3.2252  0.4795 -1.9047
  440MOL0     H59383   3.038   7.269   5.494  0.1284  0.4542  0.5088
  440MOL0     H59384   3.304   7.227   5.951  0.6670  1.2009  0.3682
  440MOL0     H59385   3.514   7.149   6.062  0.3192 -2.1038  0.6741
  440MOL0     H59386   5.437   6.816   5.599  0.3221 -0.5850 -0.2718
  440MOL0     H59387   5.656   6.858   5.544 -0.5160  0.2663 -3.8694
  440MOL0     H59388   5.996   6.958   5.484  0.9330 -2.0648  1.9190
  440MOL0     H59389   6.207   6.920   5.409  0.6724  2.6294 -3.3947
  440MOL0     H59390   6.418   6.878   5.399 -0.9566 -1.7713  2.4921
  440MOL0     H59391   6.573   6.965   5.380  1.1610 -1.0592  1.3698
  440MOL0     H59392   6.566   6.761   5.518  0.3364  0.5877 -1.1749
  440MOL0     H59393   6.444   6.842   5.623 -1.0162  0.5942 -1.8366
  440MOL0     H59394   6.703   6.818   5.679 -0.5337 -1.3436 -0.6237
  440MOL0     H59395   6.623   6.964   5.720 -0.0238 -0.4898  0.0986
  440MOL0     H59396   6.736   7.066   5.491  0.9866  0.8750 -1.6145
  440MOL0     H59397   6.798   6.901   5.464 -1.8649  0.8322 -0.4594
  440MOL0     H59398   7.061   7.027   5.754 -0.6881 -0.1076  1.4710
  440MOL0     H59399   6.351   7.264   5.620  2.4336 -0.1175 -3.2823
  440MOL0     H59400   6.124   7.323   5.672  1.7301  0.3846 -0.5125
  441MOL0     O59401   6.392   6.507   8.239 -0.1925  0.5475 -0.0153
  441MOL0     C59402   6.432   6.496   8.356 -0.0913 -0.8383 -0.0120
  441MOL0     O59403   6.374   6.414   8.445 -0.1456  0.6797 -1.0489
  441MOL0     C59404   6.253   6.355   8.421 -0.0532 -0.4416  0.3585
  441MOL0     C59405   6.248   6.219   8.417  0.4219 -0.9988 -0.9508
  441MOL0     C59406   6.128   6.160   8.376 -0.3945  0.2334 -0.6975
  441MOL0     C59407   6.016   6.233   8.340 -0.0177  0.0453 -0.3520
  441MOL0     O59408   5.907   6.156   8.303 -0.0773 -0.5323 -0.1857
  441MOL0     C59409   5.818   6.208   8.198 -0.6197  0.1444 -0.4945
  441MOL0     C59410   5.743   6.094   8.123  0.5638  0.3317 -0.0296
  441MOL0     C59411   5.643   6.032   8.222  0.0979 -0.1882 -0.5341
  441MOL0     C59412   5.529   6.128   8.255 -0.1700 -1.1633 -0.0967
  441MOL0     C59413   5.437   6.049   8.348  0.3528 -0.3333  0.2014
  441MOL0     C59414   5.315   6.119   8.414 -0.1511  0.5056  0.2983
  441MOL0     C59415   5.229   6.017   8.478 -0.2541 -0.3305 -0.6488
  441MOL0     C59416   5.104   6.058   8.568  0.4814 -0.3534 -1.2542
  441MOL0     N59417   5.063   5.951   8.668 -0.2148 -0.6812  0.2822
  441MOL0     C59418   5.117   5.947   8.790  0.2088  0.7863 -0.8341
  441MOL0     C59419   5.037   5.860   8.858 -0.3985 -1.1154  0.3130
  441MOL0     C59420   5.050   5.820   8.998 -0.2975 -0.1284 -0.2620
  441MOL0     C59421   4.959   5.916   9.079 -0.3679  0.6361  0.4532
  441MOL0     C59422   5.014   6.057   9.083  0.1779 -0.8880 -0.4997
  441MOL0     C59423   4.969   6.131   9.218  0.0208  0.1380 -0.6200
  441MOL0     O59424   5.011   6.261   9.226 -0.0928 -0.5983  0.4857
  441MOL0     C59425   5.132   6.289   9.283  0.0962  0.2527  0.3631
  441MOL0     C59426   5.235   6.195   9.322  0.5475 -0.5706  0.2057
  441MOL0     C59427   5.353   6.244   9.385 -0.6777 -0.2305  0.3085
  441MOL0     C59428   5.452   6.146   9.413  0.0499  0.8951  0.1690
  441MOL0     C59429   5.366   6.386   9.417  0.2567  0.3466 -0.6093
  441MOL0     C59430   5.486   6.435   9.501  0.1310  0.2864  0.6747
  441MOL0     O59431   5.539   6.559   9.474  0.2084 -0.4610  0.0861
  441MOL0     C59432   5.670   6.598   9.509  0.0944  0.6457  0.9746
  441MOL0     C59433   5.716   6.705   9.435  0.2922 -0.0792 -1.0326
  441MOL0     C59434   5.842   6.761   9.451 -0.1011 -0.0382  0.4154
  441MOL0     C59435   5.930   6.707   9.549  0.3050  0.1058 -0.2401
  441MOL0     O59436   6.057   6.748   9.575 -0.4305 -0.6804  0.1639
  441MOL0     C59437   6.100   6.880   9.555  0.4307 -0.6843 -0.3810
  441MOL0     C59438   6.250   6.888   9.525  0.7693  0.2032  0.4427
  441MOL0     C59439   6.324   6.812   9.639 -0.3214 -0.8452 -0.2603
  441MOL0     C59440   6.463   6.871   9.650 -0.7432  0.0564 -0.4559
  441MOL0     C59441   6.540   6.789   9.766 -0.2756  0.1146  0.1464
  441MOL0     C59442   6.690   6.804   9.745  0.1935 -0.3169  0.3054
  441MOL0     C59443   6.792   6.779   9.866  0.1330  0.2995  0.0721
  441MOL0     C59444   6.932   6.821   9.829  0.8188 -0.2539  0.3184
  441MOL0    Cl59445   7.036   6.773   9.974 -0.4564 -0.0476 -0.0384
  441MOL0     C59446   5.884   6.596   9.616  0.2390 -0.2846 -0.1906
  441MOL0     C59447   5.757   6.545   9.606 -0.2959 -0.4856  0.4164
  441MOL0     O59448   5.533   6.357   9.584 -1.2921 -0.8259 -0.0345
  441MOL0     C59449   5.276   6.477   9.356  0.4414 -0.6984  0.9768
  441MOL0     C59450   5.158   6.427   9.296  0.1641 -0.0634 -0.2336
  441MOL0     N59451   4.939   5.809   8.771  0.0987  0.1401  0.0509
  441MOL0     N59452   4.952   5.872   8.660  0.0844  0.0119 -0.3670
  441MOL0     C59453   6.020   6.369   8.347  0.0217  0.7198 -0.1574
  441MOL0     C59454   6.138   6.433   8.389  0.2272 -0.8958 -0.0591
  441MOL0     C59455   6.546   6.570   8.401  0.2339 -0.1473  0.2726
  441MOL0     C59456   6.632   6.637   8.309  0.0420 -0.6780 -0.0061
  441MOL0     C59457   6.759   6.700   8.345  0.2443  0.4676  0.5664
  441MOL0     C59458   6.794   6.705   8.479  0.3535 -0.8446 -0.2399
  441MOL0     O59459   6.910   6.770   8.515  0.5010  0.1611  0.0188
  441MOL0     C59460   6.918   6.913   8.467 -0.2706 -0.5471 -0.4626
  441MOL0     C59461   7.058   6.960   8.428  0.5626 -0.0534 -0.1373
  441MOL0     C59462   7.144   6.968   8.560  1.0850  0.0381  0.6427
  441MOL0     C59463   7.282   7.012   8.537  0.2179 -0.5302 -0.3492
  441MOL0     C59464   7.384   6.909   8.484  0.7374  0.0250  0.1436
  441MOL0     C59465   7.462   6.830   8.448  0.5290 -0.5797 -0.2149
  441MOL0     C59466   6.712   6.644   8.573 -0.1905 -0.0552  0.0230
  441MOL0     C59467   6.592   6.579   8.537 -0.0390  0.9037  0.1468
  441MOL0     H59468   6.340   6.165   8.438  1.0171 -0.0300 -1.0231
  441MOL0     H59469   6.131   6.052   8.376  0.5478  0.2372  0.9316
  441MOL0     H59470   5.750   6.277   8.248 -0.2217 -0.4164  0.8858
  441MOL0     H59471   5.868   6.263   8.119 -0.4354  1.7068  0.6702
  441MOL0     H59472   5.684   6.134   8.039 -1.4316 -4.3335 -1.1731
  441MOL0     H59473   5.817   6.028   8.077  2.0591  1.8805  0.0399
  441MOL0     H59474   5.607   5.934   8.192 -0.4456  0.9201 -3.9559
  441MOL0     H59475   5.701   6.004   8.310 -1.1081 -2.4482 -0.4048
  441MOL0     H59476   5.563   6.216   8.310 -1.5747 -1.6603  1.6712
  441MOL0     H59477   5.476   6.167   8.168  2.2679 -1.6075 -1.8919
  441MOL0     H59478   5.389   5.967   8.295 -1.5111 -0.1388  1.4839
  441MOL0     H59479   5.492   5.998   8.427  1.2241 -0.7564 -0.6610
  441MOL0     H59480   5.357   6.181   8.494 -0.9477 -0.3636  1.4190
  441MOL0     H59481   5.258   6.181   8.345  2.5289  2.6209 -0.1856
  441MOL0     H59482   5.179   5.963   8.397 -0.9031  0.7027 -0.9573
  441MOL0     H59483   5.298   5.959   8.540 -1.2147  0.5197  1.3272
  441MOL0     H59484   5.029   6.084   8.493 -0.6525  1.8491  0.5377
  441MOL0     H59485   5.135   6.149   8.619  0.6937 -1.9710  1.7337
  441MOL0     H59486   5.200   6.005   8.830 -0.8499  0.2371  2.4177
  441MOL0     H59487   5.015   5.719   9.021 -2.6592  1.0573  1.8515
  441MOL0     H59488   5.154   5.827   9.029 -0.8941 -2.0035  2.4587
  441MOL0     H59489   4.959   5.875   9.180 -3.5663 -0.4804  0.1360
  441MOL0     H59490   4.855   5.916   9.042 -0.3840 -1.0449  0.4335
  441MOL0     H59491   4.987   6.116   8.995 -0.8793 -0.3999  0.1148
  441MOL0     H59492   5.123   6.054   9.089  0.2723  2.0216  1.5890
  441MOL0     H59493   5.006   6.078   9.307 -2.3684  1.2702  1.1688
  441MOL0     H59494   4.860   6.118   9.220  0.0065 -0.4335  3.1384
  441MOL0     H59495   5.222   6.091   9.293 -3.2764 -0.3652  0.6741
  441MOL0     H59496   5.410   6.054   9.371  2.7757 -0.3619 -0.0082
  441MOL0     H59497   5.552   6.172   9.377 -0.0003  2.1480  0.8997
  441MOL0     H59498   5.459   6.128   9.521  1.9072 -0.5662 -0.1353
  441MOL0     H59499   5.653   6.742   9.355 -0.8887 -2.0055 -1.0539
  441MOL0     H59500   5.877   6.833   9.379 -1.2641 -2.2915 -2.6410
  441MOL0     H59501   6.048   6.932   9.475  0.1002 -1.8011 -0.8997
  441MOL0     H59502   6.088   6.931   9.651  1.4524 -3.2965  1.2459
  441MOL0     H59503   6.271   6.823   9.440  1.8242  0.6528  0.3365
  441MOL0     H59504   6.291   6.988   9.508  0.2104  0.5751  1.2266
  441MOL0     H59505   6.340   6.706   9.616  4.4031 -0.2013 -0.9399
  441MOL0     H59506   6.264   6.819   9.730  0.2512 -0.9752  0.1321
  441MOL0     H59507   6.524   6.853   9.561 -0.3660  3.0695 -0.9233
  441MOL0     H59508   6.457   6.980   9.665  1.2272  0.1014  0.3259
  441MOL0     H59509   6.512   6.683   9.762 -2.1215  0.5237  1.0858
  441MOL0     H59510   6.509   6.813   9.868 -0.1966 -0.4953  0.3151
  441MOL0     H59511   6.717   6.733   9.665  1.8762 -0.2452  0.7606
  441MOL0     H59512   6.704   6.906   9.708 -0.8709 -0.9961 -2.2300
  441MOL0     H59513   6.784   6.670   9.877  0.4373  0.1392 -1.1706
  441MOL0     H59514   6.757   6.824   9.960  2.7181 -1.1639  1.8915
  441MOL0     H59515   6.930   6.930   9.814  1.2147 -0.4229 -1.1192
  441MOL0     H59516   6.966   6.779   9.734 -0.9325 -0.0231 -0.4366
  441MOL0     H59517   5.961   6.551   9.677 -0.4872 -0.0144  0.9479
  441MOL0     H59518   5.730   6.456   9.662  0.7962 -1.6699 -0.8732
  441MOL0     H59519   5.286   6.583   9.378 -1.9053 -0.0072 -0.7813
  441MOL0     H59520   5.091   6.501   9.255  0.1816  0.9294  1.4449
  441MOL0     H59521   5.930   6.425   8.323 -2.1304 -1.1800  2.8313
  441MOL0     H59522   6.153   6.540   8.390  3.4319 -1.2513 -0.2704
  441MOL0     H59523   6.606   6.628   8.204 -2.4569  3.1707  0.0600
  441MOL0     H59524   6.829   6.735   8.269 -0.4093  1.0641  0.2286
  441MOL0     H59525   6.857   6.918   8.376  1.5547 -2.3073 -1.8851
  441MOL0     H59526   6.881   6.976   8.549  0.6723 -2.8557  1.8864
  441MOL0     H59527   7.052   7.061   8.387 -1.0755  0.2494  0.7650
  441MOL0     H59528   7.098   6.889   8.354 -0.7325 -0.7049 -0.2350
  441MOL0     H59529   7.150   6.869   8.606  0.2476 -0.5554 -0.4765
  441MOL0     H59530   7.088   7.039   8.622  2.0551  4.3673 -2.8793
  441MOL0     H59531   7.330   7.040   8.631 -0.5948 -0.5202  0.0625
  441MOL0     H59532   7.275   7.100   8.471 -0.4551 -0.0330  0.3726
  441MOL0     H59533   7.538   6.761   8.419 -0.3940 -2.1165  0.8454
  441MOL0     H59534   6.740   6.641   8.677 -0.3513 -0.8387  0.0501
  441MOL0     H59535   6.517   6.541   8.606 -0.0765 -1.9516 -1.3133
  442MOL0     O59536   1.511   5.932   9.752  0.3985  0.5886  0.3820
  442MOL0     C59537   1.454   6.010   9.829  0.5858  0.4800  0.2672
  442MOL0     O59538   1.357   6.100   9.801  0.1433  0.4414  0.5942
  442MOL0     C59539   1.300   6.093   9.678 -0.8469 -0.1203 -0.0843
  442MOL0     C59540   1.373   6.072   9.563 -0.3961  0.3573 -0.4586
  442MOL0     C59541   1.309   6.064   9.443 -0.1573 -0.5363 -0.3800
  442MOL0     C59542   1.173   6.081   9.431  0.6137 -0.5483 -0.5322
  442MOL0     O59543   1.096   6.075   9.320 -0.1843  0.2632  0.9189
  442MOL0     C59544   1.099   5.943   9.255  0.0176  0.0546 -0.9417
  442MOL0     C59545   1.001   5.830   9.307  0.8790 -0.6634 -0.1845
  442MOL0     C59546   1.013   5.712   9.214  0.1156 -0.0723 -0.4866
  442MOL0     C59547   0.990   5.578   9.291  0.5131 -0.8846  0.6737
  442MOL0     C59548   0.967   5.455   9.200  0.4011 -0.3266 -0.3793
  442MOL0     C59549   1.103   5.392   9.153  0.2368  0.0522 -0.7705
  442MOL0     C59550   1.082   5.292   9.035  0.3619 -0.8519 -0.1386
  442MOL0     C59551   1.044   5.357   8.911  0.4574 -0.0184 -0.1550
  442MOL0     N59552   0.985   5.249   8.826  0.9305  0.3875  0.5760
  442MOL0     C59553   1.051   5.168   8.736  0.0973  0.0905 -0.0350
  442MOL0     C59554   0.951   5.096   8.677 -0.0473 -0.2568  0.0162
  442MOL0     C59555   0.969   4.960   8.602  0.1603 -0.4491  0.1168
  442MOL0     C59556   0.847   4.879   8.572  0.5873 -0.2841 -0.0197
  442MOL0     C59557   0.865   4.809   8.435 -0.1888 -0.4870  0.5450
  442MOL0     C59558   0.745   4.732   8.370 -0.4073 -0.7349 -0.2129
  442MOL0     O59559   0.693   4.640   8.472  0.3805 -0.8442 -0.2780
  442MOL0     C59560   0.600   4.542   8.437  0.7207 -1.2144  0.0936
  442MOL0     C59561   0.490   4.564   8.350 -0.0244 -0.9042  0.0034
  442MOL0     C59562   0.392   4.474   8.322 -0.6952 -0.5043 -0.1245
  442MOL0     C59563   0.290   4.514   8.218  0.2531  0.9262 -1.5309
  442MOL0     C59564   0.423   4.346   8.369 -0.1477  0.3792  0.3038
  442MOL0     C59565   0.349   4.233   8.327 -0.2634 -0.3858 -0.3751
  442MOL0     O59566   0.334   4.214   8.196 -0.1584 -0.1866 -0.0511
  442MOL0     C59567   0.243   4.124   8.155  0.4287  1.3962 -1.0901
  442MOL0     C59568   0.292   3.993   8.134 -0.0515 -0.3753  0.0635
  442MOL0     C59569   0.206   3.890   8.085  0.2660  0.1580  0.8573
  442MOL0     C59570   0.071   3.919   8.058 -0.1911  0.3047 -0.1699
  442MOL0     O59571  -0.018   3.822   8.006 -0.4535 -0.5268  0.2663
  442MOL0     C59572   0.019   3.693   7.976 -0.0586 -0.6102  1.1906
  442MOL0     C59573  -0.108   3.599   7.992  0.6284  0.1008  0.7497
  442MOL0     C59574  -0.205   3.622   7.866  0.2022 -0.2739 -0.0632
  442MOL0     C59575  -0.323   3.520   7.872 -0.5185  0.3147  0.4692
  442MOL0     C59576  -0.291   3.374   7.846  0.0257 -0.3270 -0.9071
  442MOL0     C59577  -0.198   3.349   7.723  0.0576 -0.2498 -0.1468
  442MOL0     C59578  -0.252   3.403   7.584 -0.0399  1.2338  0.1951
  442MOL0     C59579  -0.183   3.333   7.463 -0.6106  0.1138 -0.0798
  442MOL0    Cl59580  -0.199   3.153   7.476 -0.8764  0.4740 -0.3226
  442MOL0     C59581   0.021   4.050   8.091 -0.8295 -0.2357  0.4072
  442MOL0     C59582   0.102   4.146   8.147 -0.2985 -0.2846  0.3289
  442MOL0     O59583   0.328   4.154   8.412 -0.8038  0.1572 -0.1960
  442MOL0     C59584   0.533   4.321   8.456 -0.3695  0.5942 -0.0279
  442MOL0     C59585   0.613   4.419   8.495 -0.1696 -0.4080  0.0888
  442MOL0     N59586   0.825   5.135   8.724  0.4249  0.2068  0.2516
  442MOL0     N59587   0.846   5.224   8.812 -0.0872 -0.4362  0.0691
  442MOL0     C59588   1.096   6.122   9.545 -0.1257 -0.3181 -0.0008
  442MOL0     C59589   1.163   6.121   9.669  0.5526  0.7168  0.5986
  442MOL0     C59590   1.489   6.005   9.968  0.1660  0.6673  0.7911
  442MOL0     C59591   1.397   6.008  10.075 -0.2190  0.3171  0.2298
  442MOL0     C59592   1.435   5.989  10.213  0.5647 -1.2229  0.0852
  442MOL0     C59593   1.566   5.962  10.241  0.0904  0.9762  0.5442
  442MOL0     O59594   1.617   5.938  10.365 -0.4533 -1.1751  1.0506
  442MOL0     C59595   1.547   5.887  10.474 -0.0007  0.5700 -0.5653
  442MOL0     C59596   1.529   5.732  10.470 -0.1124  0.5823  0.0584
  442MOL0     C59597   1.636   5.654  10.387  1.0087 -0.2650  0.4311
  442MOL0     C59598   1.611   5.499  10.400 -0.1884 -0.1530  0.6667
  442MOL0     C59599   1.725   5.419  10.352  0.2738 -1.2192 -0.9558
  442MOL0     C59600   1.821   5.358  10.301  0.5839 -1.0235  0.0076
  442MOL0     C59601   1.657   5.953  10.135 -0.1211 -0.3655 -0.4503
  442MOL0     C59602   1.620   5.978  10.006  0.1446 -0.0051 -0.1264
  442MOL0     H59603   1.481   6.067   9.553 -0.4256  0.1923 -0.6917
  442MOL0     H59604   1.377   6.050   9.360 -1.0590  0.2207 -1.2633
  442MOL0     H59605   1.081   5.964   9.149 -1.6980  0.4752 -0.5983
  442MOL0     H59606   1.198   5.896   9.261  1.2408  2.1310 -3.0851
  442MOL0     H59607   1.028   5.796   9.407 -1.2794 -3.7929 -0.5205
  442MOL0     H59608   0.897   5.864   9.305  1.4307  1.1296 -1.1690
  442MOL0     H59609   0.943   5.711   9.130 -1.6451 -0.8060  0.9332
  442MOL0     H59610   1.115   5.711   9.172  0.5667  0.3318  0.5646
  442MOL0     H59611   1.062   5.556   9.370 -3.1314 -0.4224  4.4616
  442MOL0     H59612   0.894   5.593   9.341 -0.4916 -1.4297 -0.9861
  442MOL0     H59613   0.896   5.385   9.243 -1.5133  0.8471 -1.4812
  442MOL0     H59614   0.903   5.492   9.120 -2.0598 -0.6948  1.3347
  442MOL0     H59615   1.167   5.474   9.119 -1.2151  2.2132  1.4056
  442MOL0     H59616   1.145   5.343   9.241  1.3144  1.7441 -0.3015
  442MOL0     H59617   1.183   5.256   9.016  0.3538 -0.4746 -0.9127
  442MOL0     H59618   1.008   5.217   9.065  1.2040 -0.0551  4.9336
  442MOL0     H59619   1.130   5.399   8.858 -1.6109  2.5788 -1.7020
  442MOL0     H59620   0.982   5.447   8.920 -0.6532 -0.6320 -1.5285
  442MOL0     H59621   1.158   5.156   8.729  0.1796 -0.2062  1.2856
  442MOL0     H59622   1.015   4.981   8.505  0.4211  0.6785  0.4675
  442MOL0     H59623   1.030   4.902   8.673  2.2365  2.5932  1.0227
  442MOL0     H59624   0.758   4.941   8.563  0.7056 -0.1029  0.0493
  442MOL0     H59625   0.835   4.810   8.656  2.0491 -0.1136  0.3597
  442MOL0     H59626   0.955   4.747   8.433  0.0558 -0.1614 -2.0787
  442MOL0     H59627   0.886   4.890   8.364 -2.0573  0.5321  1.0884
  442MOL0     H59628   0.769   4.673   8.281 -1.9122 -1.2287 -0.3230
  442MOL0     H59629   0.678   4.813   8.339  0.6499  0.2566 -0.0007
  442MOL0     H59630   0.487   4.663   8.305  2.5451  1.3725  4.2247
  442MOL0     H59631   0.216   4.433   8.221  1.8678 -0.5957 -0.2197
  442MOL0     H59632   0.242   4.609   8.241  0.2019  0.3528  1.1394
  442MOL0     H59633   0.330   4.517   8.116 -0.1485 -0.4282 -1.7491
  442MOL0     H59634   0.399   3.981   8.144 -0.0444 -1.0828 -0.7052
  442MOL0     H59635   0.258   3.797   8.063 -0.7782 -1.1499  3.4594
  442MOL0     H59636   0.056   3.674   7.875 -1.1791  0.7242  0.5062
  442MOL0     H59637   0.090   3.647   8.046  1.3912 -0.8713 -0.3997
  442MOL0     H59638  -0.070   3.497   8.005 -0.1466  0.0028  2.4663
  442MOL0     H59639  -0.162   3.624   8.083  0.5408 -0.3086  0.8132
  442MOL0     H59640  -0.150   3.611   7.772  0.0519  1.9911 -0.4779
  442MOL0     H59641  -0.237   3.726   7.853 -1.0171 -0.0464  3.6655
  442MOL0     H59642  -0.383   3.530   7.963  0.2667  0.0118  1.0306
  442MOL0     H59643  -0.396   3.548   7.795 -0.4406 -3.3728 -1.1901
  442MOL0     H59644  -0.387   3.323   7.834  0.2705 -1.8194  2.3286
  442MOL0     H59645  -0.245   3.340   7.939 -0.5876 -0.7941 -0.7648
  442MOL0     H59646  -0.103   3.400   7.741 -0.2101  0.1024  0.3059
  442MOL0     H59647  -0.166   3.245   7.731  0.8987  0.1519  2.8591
  442MOL0     H59648  -0.249   3.512   7.577 -0.4019  1.2206 -0.2319
  442MOL0     H59649  -0.359   3.377   7.579  0.2940 -0.5027  1.2038
  442MOL0     H59650  -0.079   3.363   7.451 -0.1856 -1.9472 -2.0483
  442MOL0     H59651  -0.219   3.368   7.366 -0.5621 -0.0550 -0.1587
  442MOL0     H59652  -0.086   4.056   8.078 -0.7216 -1.7248 -1.7747
  442MOL0     H59653   0.057   4.241   8.175  0.9484  0.7630 -1.0216
  442MOL0     H59654   0.551   4.223   8.500  0.8037  1.4968  1.6272
  442MOL0     H59655   0.698   4.400   8.560 -1.8710 -0.4553  2.4239
  442MOL0     H59656   0.989   6.133   9.538 -0.3043 -1.9566 -0.2842
  442MOL0     H59657   1.110   6.160   9.755  0.7712  0.6522  0.7640
  442MOL0     H59658   1.291   6.027  10.059 -0.8528 -1.6356  1.6873
  442MOL0     H59659   1.359   6.004  10.289  0.6059  2.3416 -0.3802
  442MOL0     H59660   1.610   5.896  10.562 -0.4116 -2.1792  0.1059
  442MOL0     H59661   1.452   5.940  10.491 -0.7505 -0.5282 -1.1861
  442MOL0     H59662   1.439   5.700  10.416  0.9067 -3.4507  0.4281
  442MOL0     H59663   1.536   5.681  10.567 -0.2936 -0.5605 -0.5066
  442MOL0     H59664   1.738   5.679  10.415  1.5186  3.1445 -3.5176
  442MOL0     H59665   1.630   5.686  10.283 -2.0005 -1.8038 -0.0021
  442MOL0     H59666   1.524   5.480  10.337  1.8410 -0.4331 -2.2668
  442MOL0     H59667   1.595   5.471  10.505  1.3350  1.0535  1.2643
  442MOL0     H59668   1.907   5.310  10.260  1.1457  0.6335 -0.8675
  442MOL0     H59669   1.756   5.918  10.161 -0.6292 -1.0105  0.6660
  442MOL0     H59670   1.701   5.980   9.933  2.7110  1.5193  2.5403
  443MOL0     O59671   3.745   0.815   2.236  0.3964 -0.3996 -0.4942
  443MOL0     C59672   3.831   0.867   2.159 -0.2365 -0.2730  0.7697
  443MOL0     O59673   3.799   0.955   2.053  0.1377 -0.7322 -0.6773
  443MOL0     C59674   3.672   0.957   2.008  0.1560 -0.5396  0.1907
  443MOL0     C59675   3.640   1.074   1.937  0.4020  0.1152 -0.3201
  443MOL0     C59676   3.518   1.084   1.877 -0.1952  0.7340  0.3428
  443MOL0     C59677   3.420   0.987   1.890  0.2831  0.1733 -0.3575
  443MOL0     O59678   3.292   0.995   1.831 -0.7009  0.2135  0.2879
  443MOL0     C59679   3.265   1.109   1.758 -0.7307 -0.6086  0.4794
  443MOL0     C59680   3.121   1.103   1.708 -0.7902  0.0973  0.3404
  443MOL0     C59681   3.093   0.966   1.630 -0.3210 -1.1585  0.2945
  443MOL0     C59682   2.957   0.965   1.557 -0.6490  0.2225  0.0712
  443MOL0     C59683   2.882   0.833   1.551 -0.1579  0.0134  0.3234
  443MOL0     C59684   2.773   0.830   1.442  0.4324  0.8982  0.8332
  443MOL0     C59685   2.665   0.943   1.430 -1.0633 -0.6158 -0.6660
  443MOL0     C59686   2.632   0.972   1.280 -0.1827 -0.1230 -0.1211
  443MOL0     N59687   2.573   0.855   1.217  0.6207 -0.4812  0.2496
  443MOL0     C59688   2.458   0.804   1.260 -0.2824 -0.4438 -0.9285
  443MOL0     C59689   2.426   0.705   1.177 -1.1134  0.6007  0.4053
  443MOL0     C59690   2.294   0.627   1.173  0.2347  0.2099  0.6071
  443MOL0     C59691   2.226   0.595   1.309 -0.1088  0.5922 -0.5251
  443MOL0     C59692   2.126   0.711   1.338 -0.0296  0.1912 -0.0588
  443MOL0     C59693   2.033   0.673   1.457  0.8864 -0.0772 -0.8109
  443MOL0     O59694   1.949   0.563   1.431  0.0550 -0.3813  0.0101
  443MOL0     C59695   1.846   0.531   1.520 -0.0106 -0.5106  0.3656
  443MOL0     C59696   1.796   0.613   1.629 -0.9037  0.9768  0.2034
  443MOL0     C59697   1.687   0.578   1.708  0.1059  0.1954 -0.3369
  443MOL0     C59698   1.651   0.679   1.816 -0.4248 -0.0065 -0.4525
  443MOL0     C59699   1.614   0.464   1.673  0.1564  0.1652  0.7122
  443MOL0     C59700   1.486   0.429   1.742  0.8742  0.8538  0.7011
  443MOL0     O59701   1.390   0.537   1.748 -0.1401 -0.1234  0.0267
  443MOL0     C59702   1.263   0.519   1.797  0.0626 -0.1804  0.4935
  443MOL0     C59703   1.172   0.617   1.758  0.3085 -0.1396  0.2703
  443MOL0     C59704   1.035   0.600   1.777 -0.3931 -0.6450 -0.2012
  443MOL0     C59705   0.997   0.497   1.861  0.2331 -1.0259 -0.6189
  443MOL0     O59706   0.874   0.471   1.903 -0.1613 -0.6195 -0.4569
  443MOL0     C59707   0.764   0.492   1.816 -0.5834 -0.4311 -0.2187
  443MOL0     C59708   0.717   0.352   1.777 -0.0416 -0.6087  0.2138
  443MOL0     C59709   0.792   0.289   1.660 -0.6619 -0.5187  0.1876
  443MOL0     C59710   0.722   0.303   1.524  0.4712  0.5999 -0.5338
  443MOL0     C59711   0.811   0.259   1.411  0.1143 -0.3788 -0.2452
  443MOL0     C59712   0.750   0.301   1.278 -0.3162 -0.8765 -0.7456
  443MOL0     C59713   0.835   0.264   1.156 -0.8790  0.1348 -0.0840
  443MOL0     C59714   0.806   0.352   1.033 -0.7990  0.9432 -0.1792
  443MOL0    Cl59715   0.883   0.272   0.891 -0.0696 -0.1682  0.4271
  443MOL0     C59716   1.088   0.402   1.920  0.6220  0.0501 -0.4847
  443MOL0     C59717   1.228   0.421   1.894  0.8651 -0.1237 -0.6725
  443MOL0     O59718   1.473   0.318   1.789  0.2680  0.3373 -0.2086
  443MOL0     C59719   1.655   0.383   1.558 -0.2913 -0.0775  0.7846
  443MOL0     C59720   1.769   0.414   1.495 -0.1072  1.0165  0.1759
  443MOL0     N59721   2.529   0.707   1.082 -1.2698  0.6138  0.6450
  443MOL0     N59722   2.616   0.795   1.110  0.6157  0.5632  0.8184
  443MOL0     C59723   3.450   0.873   1.954  0.1738 -0.0004 -0.7907
  443MOL0     C59724   3.569   0.860   2.022  0.7570  0.1436 -0.2607
  443MOL0     C59725   3.974   0.843   2.179 -0.2248 -0.1885 -0.2896
  443MOL0     C59726   4.022   0.729   2.243 -0.0160  0.8623  0.6588
  443MOL0     C59727   4.158   0.708   2.265 -0.3193  0.7159  0.1690
  443MOL0     C59728   4.249   0.805   2.219  0.3054 -0.2827  0.9562
  443MOL0     O59729   4.380   0.774   2.241  0.5918  0.1902 -0.3647
  443MOL0     C59730   4.476   0.821   2.149 -0.3431 -1.0783 -0.3876
  443MOL0     C59731   4.611   0.757   2.187 -0.0516  0.7955  0.6541
  443MOL0     C59732   4.596   0.605   2.154 -0.3747 -0.3343  0.4421
  443MOL0     C59733   4.718   0.514   2.183 -0.4439  0.0393  0.2426
  443MOL0     C59734   4.850   0.555   2.134 -0.0257  0.7615 -0.1759
  443MOL0     C59735   4.963   0.580   2.110  0.7232  0.1720  0.8058
  443MOL0     C59736   4.204   0.928   2.164  0.7365  1.1284  0.4433
  443MOL0     C59737   4.068   0.936   2.132 -0.8249 -0.5958 -0.1576
  443MOL0     H59738   3.708   1.159   1.929 -1.7345  1.9211 -0.4286
  443MOL0     H59739   3.489   1.172   1.821  0.1632  1.4310  1.2454
  443MOL0     H59740   3.284   1.205   1.807 -0.7304  1.6192 -3.4724
  443MOL0     H59741   3.332   1.113   1.672 -0.4254  1.4282  0.7597
  443MOL0     H59742   3.057   1.092   1.796 -1.5598 -1.2164 -0.3454
  443MOL0     H59743   3.090   1.195   1.658  2.0078  2.8044  3.1454
  443MOL0     H59744   3.170   0.964   1.553 -0.8325  2.4735 -0.4827
  443MOL0     H59745   3.089   0.872   1.687 -1.0507 -0.3668  1.6089
  443MOL0     H59746   2.895   1.038   1.609  0.4795  1.6686 -0.5372
  443MOL0     H59747   2.973   0.999   1.454 -0.6777  3.8476  1.1262
  443MOL0     H59748   2.953   0.751   1.538 -1.0680 -0.8314  0.5873
  443MOL0     H59749   2.841   0.825   1.652 -1.2737  1.6920  0.0494
  443MOL0     H59750   2.820   0.812   1.345 -1.7206 -0.2543 -0.0850
  443MOL0     H59751   2.717   0.737   1.451 -3.3646  2.2098 -4.3230
  443MOL0     H59752   2.581   0.905   1.488  0.5203 -1.9252  0.8827
  443MOL0     H59753   2.687   1.038   1.479 -0.5506 -0.7617 -0.6069
  443MOL0     H59754   2.708   1.000   1.207 -1.8267 -1.1680 -2.3715
  443MOL0     H59755   2.560   1.055   1.280 -1.4146 -1.1272  1.3924
  443MOL0     H59756   2.404   0.836   1.349 -1.1559 -1.8491 -0.9209
  443MOL0     H59757   2.231   0.682   1.102  0.1877  1.4818  1.5905
  443MOL0     H59758   2.314   0.534   1.119  0.6535  1.2723 -1.1631
  443MOL0     H59759   2.298   0.579   1.389 -1.4331 -0.4680  0.4989
  443MOL0     H59760   2.172   0.500   1.302  0.7570 -0.0627  1.1492
  443MOL0     H59761   2.053   0.720   1.257 -0.9544 -0.9605  0.6075
  443MOL0     H59762   2.187   0.800   1.357  3.7150 -1.8413 -1.4900
  443MOL0     H59763   1.964   0.755   1.480  1.3754 -0.0453  0.6681
  443MOL0     H59764   2.099   0.663   1.544  0.0632 -2.2924 -0.3710
  443MOL0     H59765   1.849   0.708   1.640 -2.0898  2.1623 -3.1321
  443MOL0     H59766   1.618   0.631   1.909 -1.7988  0.2788 -0.7859
  443MOL0     H59767   1.742   0.726   1.856 -0.4968  1.4624 -1.9325
  443MOL0     H59768   1.587   0.763   1.790 -0.6020 -0.3709 -1.1973
  443MOL0     H59769   1.209   0.695   1.691  0.8402 -2.2407 -2.0577
  443MOL0     H59770   0.966   0.672   1.733 -1.2599 -1.6330 -0.5076
  443MOL0     H59771   0.680   0.542   1.865 -0.3098  0.6489 -0.8299
  443MOL0     H59772   0.783   0.554   1.728 -1.6481 -1.0612 -0.9177
  443MOL0     H59773   0.731   0.288   1.865 -0.1158 -0.3874  0.3891
  443MOL0     H59774   0.609   0.354   1.755 -0.4264 -4.8716  0.9851
  443MOL0     H59775   0.800   0.181   1.673  0.8825 -0.1907  2.7058
  443MOL0     H59776   0.891   0.336   1.662 -1.2983  0.9411  2.7272
  443MOL0     H59777   0.631   0.241   1.526 -0.9239  2.3906  4.1406
  443MOL0     H59778   0.690   0.406   1.506  3.6392  1.6522 -0.5866
  443MOL0     H59779   0.831   0.152   1.405  5.0927  0.4003 -2.2607
  443MOL0     H59780   0.905   0.314   1.419 -0.6441  0.9366 -0.1941
  443MOL0     H59781   0.647   0.271   1.257 -0.1663 -0.5550 -1.9955
  443MOL0     H59782   0.744   0.410   1.276  1.4764 -0.6667  1.1647
  443MOL0     H59783   0.821   0.159   1.130 -2.7867  0.4439 -0.4130
  443MOL0     H59784   0.941   0.278   1.180  0.8608 -4.0272 -3.9578
  443MOL0     H59785   0.857   0.446   1.054  3.5266 -0.7712 -1.8704
  443MOL0     H59786   0.697   0.357   1.021 -1.0460  1.2438  1.9082
  443MOL0     H59787   1.040   0.329   1.984  2.3076  0.7909  1.7462
  443MOL0     H59788   1.296   0.362   1.953  1.1732  3.8577  3.5559
  443MOL0     H59789   1.596   0.294   1.538  2.7015 -2.3057  1.1970
  443MOL0     H59790   1.789   0.344   1.414  0.3828 -1.4196  2.2878
  443MOL0     H59791   3.374   0.800   1.978  1.9634 -1.1820  1.7890
  443MOL0     H59792   3.586   0.765   2.071 -3.9839  0.0157  1.6458
  443MOL0     H59793   3.961   0.647   2.281  1.2701 -0.4853 -0.0465
  443MOL0     H59794   4.194   0.615   2.306 -0.4336 -1.3076 -3.8003
  443MOL0     H59795   4.439   0.791   2.051  0.1285  0.2152 -0.9840
  443MOL0     H59796   4.488   0.930   2.150  0.2193 -1.1371  0.6419
  443MOL0     H59797   4.640   0.791   2.287 -1.9918  0.0507  1.5173
  443MOL0     H59798   4.693   0.796   2.126  0.3418  0.3622  0.9023
  443MOL0     H59799   4.576   0.600   2.046  0.7040 -0.8924  0.2618
  443MOL0     H59800   4.509   0.562   2.205  1.6265 -0.4593  3.9950
  443MOL0     H59801   4.693   0.413   2.148 -0.9497  0.6556 -1.2473
  443MOL0     H59802   4.728   0.511   2.291  0.4772  1.1875  0.2018
  443MOL0     H59803   5.063   0.610   2.085  0.8329 -0.3372  0.6289
  443MOL0     H59804   4.264   1.014   2.132 -0.2886  1.0059 -2.0649
  443MOL0     H59805   4.048   1.028   2.078  1.9783 -0.3313 -0.9116
  444MOL0     O59806   9.958   4.381   0.242 -0.0689 -0.2605 -0.1776
  444MOL0     C59807   9.938   4.338   0.127 -0.7966  0.0023  0.7225
  444MOL0     O59808  10.024   4.346   0.015  0.6062  0.3926  0.9403
  444MOL0     C59809  10.155   4.394   0.022  0.4074 -0.7863  0.0054
  444MOL0     C59810  10.218   4.412  -0.100 -0.2557  0.1503  0.0356
  444MOL0     C59811  10.349   4.462  -0.102  0.2073 -0.4429  0.4477
  444MOL0     C59812  10.421   4.500   0.012  0.1977  0.5129  0.0733
  444MOL0     O59813  10.545   4.556   0.002  0.9378  0.5750  0.3056
  444MOL0     C59814  10.643   4.480   0.077  0.3654 -0.0799  0.1928
  444MOL0     C59815  10.730   4.572   0.159  1.0198  0.3663 -0.0102
  444MOL0     C59816  10.863   4.501   0.193  0.5041 -0.1517  0.5882
  444MOL0     C59817  10.943   4.584   0.291 -0.4407  0.2090 -0.8812
  444MOL0     C59818  10.983   4.722   0.242 -0.0188 -1.5128 -0.1617
  444MOL0     C59819  11.100   4.793   0.327  0.6711 -0.1097  0.2837
  444MOL0     C59820  11.140   4.938   0.280  0.3592 -0.3483 -0.6140
  444MOL0     C59821  11.281   4.988   0.329 -0.6869 -0.2272  0.1743
  444MOL0     N59822  11.268   5.001   0.472 -0.6480  0.5062 -0.0144
  444MOL0     C59823  11.202   5.106   0.530  1.2168  0.3192 -0.1281
  444MOL0     C59824  11.232   5.094   0.666 -0.2123  0.8188 -0.2638
  444MOL0     C59825  11.175   5.180   0.776  0.5079 -0.1830  0.0353
  444MOL0     C59826  11.263   5.305   0.794 -1.0433  0.0947 -0.4668
  444MOL0     C59827  11.200   5.410   0.895  0.1711  0.3844  0.2470
  444MOL0     C59828  11.170   5.356   1.033 -0.1585 -0.2074  0.8722
  444MOL0     O59829  11.102   5.462   1.106 -0.2919  0.4094 -0.2426
  444MOL0     C59830  10.963   5.464   1.127  0.0778 -1.1183 -0.1210
  444MOL0     C59831  10.872   5.396   1.041 -0.2045 -0.5707 -0.3179
  444MOL0     C59832  10.731   5.418   1.064  0.0189 -0.2694  0.9361
  444MOL0     C59833  10.641   5.331   0.986 -0.1511  0.9043  0.0937
  444MOL0     C59834  10.682   5.523   1.139  0.4839 -0.7708 -0.3005
  444MOL0     C59835  10.540   5.573   1.143 -0.2727  0.8671  0.1875
  444MOL0     O59836  10.442   5.516   1.064 -0.2101 -0.2022  0.0595
  444MOL0     C59837  10.309   5.537   1.081 -0.7637  0.0942 -0.0112
  444MOL0     C59838  10.240   5.617   0.991  0.1067 -0.1027 -0.4433
  444MOL0     C59839  10.095   5.618   1.009 -0.2809  0.1881  0.4325
  444MOL0     C59840  10.028   5.529   1.096  0.0106  0.3317  0.6350
  444MOL0     O59841   9.889   5.533   1.097 -0.0785 -0.2136  0.1610
  444MOL0     C59842   9.831   5.515   1.231 -0.0266  0.1247  0.1722
  444MOL0     C59843   9.676   5.545   1.209 -0.8496  0.6971  1.1369
  444MOL0     C59844   9.624   5.443   1.111  0.1339  0.2557 -0.1934
  444MOL0     C59845   9.476   5.460   1.122 -0.1538 -0.1402 -0.3485
  444MOL0     C59846   9.402   5.357   1.046 -0.5391 -0.3820 -0.4879
  444MOL0     C59847   9.249   5.396   1.039  0.6742 -0.8782 -0.9250
  444MOL0     C59848   9.153   5.300   0.969  0.6898  0.7728 -0.5490
  444MOL0     C59849   9.016   5.340   1.016  0.5505  0.1057  0.6486
  444MOL0    Cl59850   8.894   5.207   0.992  0.2908 -0.3208 -0.1388
  444MOL0     C59851  10.104   5.447   1.182  0.1001  0.0722 -0.3632
  444MOL0     C59852  10.237   5.452   1.162  0.0139  0.5487  0.0395
  444MOL0     O59853  10.522   5.653   1.232 -0.0769 -0.6633 -0.4125
  444MOL0     C59854  10.781   5.591   1.220  0.3588  0.6312  0.0991
  444MOL0     C59855  10.916   5.565   1.208 -0.4835 -0.1642 -0.6260
  444MOL0     N59856  11.310   4.971   0.684  0.3744  0.2344  0.8653
  444MOL0     N59857  11.327   4.923   0.565 -0.1803 -0.1198  0.4688
  444MOL0     C59858  10.358   4.467   0.132 -0.0541  0.1255 -0.0121
  444MOL0     C59859  10.232   4.409   0.136  0.0887 -0.2548  0.1870
  444MOL0     C59860   9.802   4.278   0.104 -0.7235  0.6574 -0.6269
  444MOL0     C59861   9.695   4.320   0.190  0.0039 -0.6010  0.0160
  444MOL0     C59862   9.567   4.278   0.165  0.3168  0.9206 -0.7018
  444MOL0     C59863   9.536   4.182   0.074  0.0308  0.9909  0.4070
  444MOL0     O59864   9.404   4.141   0.064 -0.3467 -0.4682  0.2370
  444MOL0     C59865   9.362   4.019   0.018 -0.8862 -0.0218 -0.2801
  444MOL0     C59866   9.279   4.024  -0.108 -0.3062  0.0476 -0.3332
  444MOL0     C59867   9.154   4.107  -0.088  0.2677  0.0874  0.4198
  444MOL0     C59868   9.050   4.097  -0.208 -0.4660  0.2908 -0.3439
  444MOL0     C59869   8.977   3.966  -0.209 -0.0612 -0.3793  0.1720
  444MOL0     C59870   8.910   3.864  -0.213 -0.2445 -0.1950  0.1526
  444MOL0     C59871   9.646   4.134  -0.007  0.3767  0.0327  0.7595
  444MOL0     C59872   9.781   4.184   0.003  0.1389  0.2591  0.1863
  444MOL0     H59873  10.170   4.375  -0.190  0.9945 -0.5513 -0.3623
  444MOL0     H59874  10.393   4.486  -0.197 -3.1722 -0.5157 -1.2871
  444MOL0     H59875  10.599   4.403   0.140  0.5884  1.2391  2.0485
  444MOL0     H59876  10.710   4.425   0.010  1.5158  0.9124  0.4969
  444MOL0     H59877  10.755   4.659   0.096 -1.5699  2.8933  2.1760
  444MOL0     H59878  10.683   4.610   0.250  0.8090  3.0018 -1.1112
  444MOL0     H59879  10.836   4.409   0.245  0.8019 -1.9963 -2.3273
  444MOL0     H59880  10.916   4.478   0.101 -0.7813  0.4183 -0.3297
  444MOL0     H59881  10.882   4.588   0.382  0.2003 -0.6464 -0.4009
  444MOL0     H59882  11.028   4.519   0.315 -0.6111  0.3180  0.0433
  444MOL0     H59883  11.016   4.708   0.138 -0.9349  3.7982 -1.4454
  444MOL0     H59884  10.897   4.789   0.230 -0.8384 -2.8108 -1.9972
  444MOL0     H59885  11.073   4.796   0.433 -1.5174 -0.8600 -0.1974
  444MOL0     H59886  11.184   4.723   0.323 -1.0545 -2.2015 -1.6370
  444MOL0     H59887  11.134   4.937   0.170  0.4520 -0.7222 -0.6154
  444MOL0     H59888  11.063   5.012   0.304 -0.2951 -0.0792 -3.1904
  444MOL0     H59889  11.304   5.082   0.278 -0.8190  0.7520  1.8523
  444MOL0     H59890  11.357   4.913   0.308 -1.5236 -0.9741 -0.2700
  444MOL0     H59891  11.133   5.177   0.485  0.4708  0.6981  1.5464
  444MOL0     H59892  11.078   5.227   0.752 -0.4728 -1.4719  1.2936
  444MOL0     H59893  11.164   5.123   0.869 -1.7851  0.8479  0.4963
  444MOL0     H59894  11.282   5.345   0.694  1.1578  0.0914 -0.0977
  444MOL0     H59895  11.356   5.275   0.843 -2.1253 -0.8467  1.1071
  444MOL0     H59896  11.106   5.438   0.847 -0.1844 -1.8144 -0.4310
  444MOL0     H59897  11.270   5.493   0.910  1.4764 -0.9771  2.0352
  444MOL0     H59898  11.268   5.336   1.077  0.1596  2.1592  1.3465
  444MOL0     H59899  11.109   5.265   1.027  0.8862 -0.9581  1.3615
  444MOL0     H59900  10.909   5.334   0.961  0.0709 -0.4234 -0.3053
  444MOL0     H59901  10.689   5.241   0.947 -0.0503  0.7128  0.6463
  444MOL0     H59902  10.569   5.278   1.049  3.3698  0.0595  3.8357
  444MOL0     H59903  10.583   5.385   0.911  0.9892 -0.2546 -1.6896
  444MOL0     H59904  10.288   5.669   0.909  0.6397 -0.6979 -0.5210
  444MOL0     H59905  10.038   5.682   0.943  2.8929  2.3136 -0.4941
  444MOL0     H59906   9.856   5.415   1.266  2.6847  0.8294  0.5271
  444MOL0     H59907   9.883   5.584   1.299  0.5474  0.3928 -0.5267
  444MOL0     H59908   9.621   5.540   1.304  0.4676 -1.9192  1.8742
  444MOL0     H59909   9.673   5.643   1.162 -0.4196  0.0120 -0.3533
  444MOL0     H59910   9.661   5.342   1.131 -0.4589  0.1613  0.4506
  444MOL0     H59911   9.655   5.469   1.009 -0.1575  0.7991 -0.1470
  444MOL0     H59912   9.436   5.460   1.224  0.3038 -3.7519 -0.0378
  444MOL0     H59913   9.459   5.559   1.079 -1.6992 -1.1115 -2.1229
  444MOL0     H59914   9.423   5.264   1.099  0.5248  0.6093  0.9305
  444MOL0     H59915   9.439   5.366   0.944  2.4642 -0.5153  0.5019
  444MOL0     H59916   9.227   5.405   1.145  1.7591  1.2090 -0.8351
  444MOL0     H59917   9.247   5.494   0.992  1.2701  1.2214  3.0307
  444MOL0     H59918   9.170   5.197   1.003 -0.3125  0.8305  0.1704
  444MOL0     H59919   9.161   5.295   0.860 -1.7772  0.2390 -0.7583
  444MOL0     H59920   8.968   5.421   0.959  0.4509 -1.7564 -2.1207
  444MOL0     H59921   9.019   5.349   1.125  0.2962 -2.6524  0.9422
  444MOL0     H59922  10.069   5.385   1.264  0.3195  2.2245  1.4679
  444MOL0     H59923  10.295   5.389   1.229  1.4348  1.2459 -0.4982
  444MOL0     H59924  10.754   5.679   1.279  0.8779  1.0541 -0.2857
  444MOL0     H59925  10.986   5.627   1.262 -1.8898  1.9126 -1.0392
  444MOL0     H59926  10.406   4.486   0.227  1.4305  1.5957 -1.0049
  444MOL0     H59927  10.193   4.391   0.236  0.2337 -1.5823  0.0169
  444MOL0     H59928   9.723   4.391   0.267 -0.8785 -0.9030  0.6302
  444MOL0     H59929   9.481   4.300   0.227  0.8231  3.4642 -0.8135
  444MOL0     H59930   9.440   3.942   0.016 -1.2847 -0.4607 -3.1962
  444MOL0     H59931   9.297   3.985   0.099  0.1150 -0.3523  0.4071
  444MOL0     H59932   9.256   3.920  -0.132  0.2564 -0.1292 -0.1320
  444MOL0     H59933   9.350   4.061  -0.182  1.3496 -1.3604  0.4895
  444MOL0     H59934   9.185   4.212  -0.085 -1.2127  0.5297  1.5011
  444MOL0     H59935   9.104   4.085   0.007  1.5046  1.5777  1.4866
  444MOL0     H59936   9.106   4.108  -0.301 -0.8163 -1.0100 -0.7203
  444MOL0     H59937   8.979   4.181  -0.197 -2.1994 -1.3794  2.3298
  444MOL0     H59938   8.862   3.769  -0.208  1.3685 -0.9979  1.1461
  444MOL0     H59939   9.621   4.069  -0.090 -1.8211 -0.1316  1.4866
  444MOL0     H59940   9.853   4.140  -0.066  1.3861 -0.5763  1.9407
  445MOL0     O59941   7.867   2.275   9.093  0.6155 -0.3459  0.9692
  445MOL0     C59942   7.827   2.390   9.073  0.1969 -0.1329 -0.4198
  445MOL0     O59943   7.707   2.441   9.110 -0.4169 -0.1907  0.7202
  445MOL0     C59944   7.611   2.365   9.168 -0.8671 -0.0194 -0.6021
  445MOL0     C59945   7.576   2.393   9.300  0.2934  0.1832 -0.5691
  445MOL0     C59946   7.457   2.352   9.358  0.4113  0.6639  0.1406
  445MOL0     C59947   7.377   2.256   9.288  0.3534 -0.0717 -1.1753
  445MOL0     O59948   7.269   2.200   9.353  0.5847  0.1452 -0.1557
  445MOL0     C59949   7.177   2.119   9.282 -0.1737  0.0260  0.0696
  445MOL0     C59950   7.082   2.047   9.373 -0.0891 -0.6221  0.4145
  445MOL0     C59951   7.014   2.150   9.474 -0.3114  0.2253  0.0091
  445MOL0     C59952   6.889   2.084   9.520  0.1718 -0.6375  0.8356
  445MOL0     C59953   6.774   2.189   9.548 -0.2866  0.5775  0.0130
  445MOL0     C59954   6.638   2.122   9.532 -0.2965 -0.4384 -0.2057
  445MOL0     C59955   6.516   2.215   9.554  0.2823  0.5734  0.1776
  445MOL0     C59956   6.389   2.140   9.501 -0.1665 -0.5084  0.4836
  445MOL0     N59957   6.371   2.153   9.353  0.2498 -0.0974 -0.1090
  445MOL0     C59958   6.273   2.232   9.309  0.2638 -0.4334  0.6420
  445MOL0     C59959   6.266   2.193   9.177  0.1889 -0.1307 -0.4402
  445MOL0     C59960   6.167   2.257   9.083 -0.6019  0.5955 -0.1502
  445MOL0     C59961   6.031   2.196   9.104  0.0875 -0.3371 -0.6850
  445MOL0     C59962   5.934   2.302   9.167 -1.1214  0.0462 -0.6376
  445MOL0     C59963   5.782   2.265   9.175 -0.7529 -0.9244  0.8701
  445MOL0     O59964   5.755   2.138   9.233 -0.7002  0.0522 -0.6075
  445MOL0     C59965   5.627   2.085   9.229  0.0010 -0.5715  0.3920
  445MOL0     C59966   5.599   1.967   9.287 -0.4555 -0.2000 -0.3299
  445MOL0     C59967   5.471   1.918   9.293  0.2462  0.5159 -0.0108
  445MOL0     C59968   5.457   1.779   9.338  0.6467  0.5735  0.2345
  445MOL0     C59969   5.354   1.997   9.267 -0.0003 -0.0010 -0.0418
  445MOL0     C59970   5.214   1.951   9.286  0.2820  0.2194  0.3172
  445MOL0     O59971   5.129   2.058   9.279 -0.6311  0.0876  0.3025
  445MOL0     C59972   4.994   2.019   9.278 -0.1161  0.4644 -0.9519
  445MOL0     C59973   4.931   2.027   9.154 -0.1630 -0.6665 -0.1935
  445MOL0     C59974   4.801   1.985   9.135 -0.5483  0.4338 -0.9017
  445MOL0     C59975   4.739   1.916   9.242 -0.5420 -0.4685 -0.9893
  445MOL0     O59976   4.612   1.861   9.235  0.4368  0.6071  0.1011
  445MOL0     C59977   4.514   1.910   9.146  1.1771 -0.8441  0.5640
  445MOL0     C59978   4.424   1.799   9.112 -0.7648  0.1653  1.2327
  445MOL0     C59979   4.341   1.854   8.989  0.2435  0.2432  0.5974
  445MOL0     C59980   4.237   1.741   8.954 -0.3826 -0.6633  0.0426
  445MOL0     C59981   4.159   1.784   8.829 -0.0277 -0.1260  0.0727
  445MOL0     C59982   4.058   1.679   8.774  0.5180  0.0462 -0.0064
  445MOL0     C59983   3.956   1.740   8.682 -0.3341  0.3289  0.5434
  445MOL0     C59984   3.823   1.663   8.663  0.9427  0.2519  0.5508
  445MOL0    Cl59985   3.717   1.748   8.541 -0.2853  0.4745  0.0470
  445MOL0     C59986   4.794   1.921   9.369  0.0138  0.3448 -0.1822
  445MOL0     C59987   4.925   1.972   9.386  0.6285  0.5081  0.2464
  445MOL0     O59988   5.173   1.833   9.285 -0.2582  0.0831 -0.2534
  445MOL0     C59989   5.383   2.126   9.212 -0.4024 -0.2270 -0.0471
  445MOL0     C59990   5.514   2.158   9.187 -0.1932  0.0057  0.2131
  445MOL0     N59991   6.360   2.088   9.146  0.1631  0.0663  1.0271
  445MOL0     N59992   6.423   2.074   9.255  0.3289  0.2309 -0.2509
  445MOL0     C59993   7.407   2.230   9.149 -1.2068 -0.0851 -0.4144
  445MOL0     C59994   7.524   2.283   9.093  0.8865  0.5175 -0.1206
  445MOL0     C59995   7.909   2.491   8.994  1.6321 -0.1290  0.0707
  445MOL0     C59996   7.842   2.600   8.934  0.4524 -1.3354  0.7676
  445MOL0     C59997   7.909   2.680   8.833 -0.3246 -0.2543  0.7599
  445MOL0     C59998   8.042   2.652   8.801  0.3222  0.7273  0.7268
  445MOL0     O59999   8.094   2.734   8.708 -0.0470 -0.4952 -0.3521
  445MOL0     C60000   8.234   2.749   8.690  0.6777 -0.1277  0.1198
  445MOL0     C60001   8.275   2.661   8.561  0.6658 -0.2292 -0.2110
  445MOL0     C60002   8.224   2.731   8.438 -0.1651  0.0504 -0.1652
  445MOL0     C60003   8.233   2.651   8.309  0.5636 -0.2894  0.3845
  445MOL0     C60004   8.192   2.717   8.187  0.5206  0.3654 -0.8607
  445MOL0     C60005   8.158   2.776   8.086 -0.4339  1.3555  0.3524
  445MOL0     C60006   8.109   2.547   8.865  0.7742  0.1073 -0.1185
  445MOL0     C60007   8.040   2.475   8.966  0.0885  0.0300  0.5204
  445MOL0     H60008   7.641   2.458   9.358  0.6688  0.8310 -1.6849
  445MOL0     H60009   7.428   2.365   9.462  0.2294 -2.9320  0.6917
  445MOL0     H60010   7.117   2.184   9.217 -0.0807  1.4823  1.3860
  445MOL0     H60011   7.221   2.037   9.224 -1.0754 -0.4292  0.0207
  445MOL0     H60012   7.012   1.995   9.308 -0.2124 -0.3397  0.3216
  445MOL0     H60013   7.138   1.970   9.427  2.5419  0.0629 -1.1622
  445MOL0     H60014   7.081   2.168   9.559 -0.4792 -0.3731  0.2715
  445MOL0     H60015   6.995   2.235   9.407 -0.9158  2.0863  2.4104
  445MOL0     H60016   6.853   2.026   9.435 -0.0166  0.1074  0.3959
  445MOL0     H60017   6.910   2.015   9.602  0.7604 -1.3672  0.0852
  445MOL0     H60018   6.779   2.254   9.636 -1.9970  0.1896  0.4326
  445MOL0     H60019   6.769   2.250   9.458 -0.4700  0.5113 -0.0223
  445MOL0     H60020   6.647   2.072   9.435 -1.1187 -1.5623  0.2784
  445MOL0     H60021   6.635   2.035   9.599 -0.8198 -1.4021 -1.4282
  445MOL0     H60022   6.522   2.239   9.660 -2.3948 -0.7168  0.7193
  445MOL0     H60023   6.534   2.314   9.511 -0.5470  0.8664  0.4738
  445MOL0     H60024   6.310   2.174   9.568  0.2544 -0.9833  1.2354
  445MOL0     H60025   6.402   2.034   9.524  2.9769 -0.8667 -2.1728
  445MOL0     H60026   6.209   2.310   9.350 -2.2107 -0.2875 -2.9941
  445MOL0     H60027   6.165   2.365   9.066 -0.7008  0.2940 -2.3866
  445MOL0     H60028   6.198   2.213   8.987 -0.7515  2.9601 -1.3432
  445MOL0     H60029   6.025   2.104   9.164 -0.3390 -0.4217 -0.8493
  445MOL0     H60030   5.991   2.163   9.007  3.8703 -1.6689 -1.9511
  445MOL0     H60031   5.948   2.387   9.100 -0.2098 -1.0503 -1.8712
  445MOL0     H60032   5.966   2.325   9.269  1.0132 -0.1496 -1.2134
  445MOL0     H60033   5.753   2.255   9.070  1.1645 -0.7712  0.2825
  445MOL0     H60034   5.736   2.347   9.231 -1.6281  0.0531 -1.1698
  445MOL0     H60035   5.686   1.908   9.313  1.1261  2.5324  0.9468
  445MOL0     H60036   5.410   1.730   9.252 -0.9916  1.9178  0.3308
  445MOL0     H60037   5.548   1.730   9.375 -1.7306 -3.1133  1.8662
  445MOL0     H60038   5.380   1.759   9.413 -2.5645  2.4531 -2.2801
  445MOL0     H60039   4.984   2.073   9.071  1.1450 -0.2539  0.8394
  445MOL0     H60040   4.762   1.998   9.035 -2.7150  0.5254 -0.0830
  445MOL0     H60041   4.442   1.982   9.187  0.4394  0.0096 -2.0296
  445MOL0     H60042   4.553   1.961   9.057 -1.4108 -0.4524 -0.4131
  445MOL0     H60043   4.487   1.712   9.092  0.2087  0.0315  4.3167
  445MOL0     H60044   4.361   1.768   9.197  2.1236 -2.7785  2.5201
  445MOL0     H60045   4.405   1.871   8.902 -0.6777  2.4291  0.2965
  445MOL0     H60046   4.285   1.944   9.015 -0.1782  0.5460 -1.2259
  445MOL0     H60047   4.296   1.653   8.928  0.5210 -0.0680  0.0171
  445MOL0     H60048   4.172   1.719   9.038 -0.0066 -1.5984  0.0947
  445MOL0     H60049   4.230   1.815   8.752  0.4930  1.3364  1.0769
  445MOL0     H60050   4.114   1.879   8.862 -3.3410 -1.9651  1.3078
  445MOL0     H60051   4.123   1.603   8.729  0.1660  0.6320 -1.5775
  445MOL0     H60052   4.000   1.625   8.850 -0.5652  0.4396 -0.5297
  445MOL0     H60053   3.999   1.753   8.582 -0.8154  0.4503  0.3473
  445MOL0     H60054   3.935   1.845   8.704 -4.8440  0.5689 -3.3142
  445MOL0     H60055   3.768   1.668   8.757 -0.6488  1.7730 -0.3895
  445MOL0     H60056   3.839   1.559   8.635 -2.3667 -0.4452  0.8546
  445MOL0     H60057   4.733   1.896   9.455 -1.0890  2.1992 -0.3732
  445MOL0     H60058   4.980   1.949   9.476 -1.5962 -0.1012  1.5327
  445MOL0     H60059   5.308   2.200   9.184  1.3956  1.5141 -0.5417
  445MOL0     H60060   5.538   2.249   9.134  0.8536  0.0096  0.6793
  445MOL0     H60061   7.341   2.172   9.085 -1.5596 -0.3066  0.1479
  445MOL0     H60062   7.536   2.266   8.986  0.0001  0.2903 -0.1978
  445MOL0     H60063   7.735   2.619   8.943  0.1370 -1.2995 -2.1581
  445MOL0     H60064   7.852   2.762   8.790  0.0768 -0.6138 -0.5063
  445MOL0     H60065   8.264   2.854   8.680  1.9072 -0.2302  2.2416
  445MOL0     H60066   8.285   2.718   8.781  2.0592  3.8019  0.9209
  445MOL0     H60067   8.236   2.558   8.561  1.8478 -0.6948 -0.5564
  445MOL0     H60068   8.384   2.655   8.557  0.8655  1.8700  0.7010
  445MOL0     H60069   8.286   2.820   8.426  2.2165 -1.2979  1.2162
  445MOL0     H60070   8.120   2.765   8.442  0.6881  3.1192 -1.5145
  445MOL0     H60071   8.178   2.557   8.312 -1.1355  0.6345 -0.6242
  445MOL0     H60072   8.338   2.621   8.306  0.3363 -1.0550 -0.2390
  445MOL0     H60073   8.125   2.820   7.995  0.7805  0.8471 -0.3613
  445MOL0     H60074   8.210   2.522   8.836  1.2802  1.2965  0.5648
  445MOL0     H60075   8.086   2.384   9.002 -0.5468 -0.2598  0.6111
  446MOL0     O60076   8.348   1.293   1.815 -0.0306 -0.3083 -0.6335
  446MOL0     C60077   8.386   1.331   1.707 -0.1840  0.2890 -0.8154
  446MOL0     O60078   8.308   1.375   1.602  0.6283  0.5524 -0.0274
  446MOL0     C60079   8.173   1.403   1.613  0.0399 -0.7858  0.8197
  446MOL0     C60080   8.091   1.333   1.700  0.4615  0.1110  0.2305
  446MOL0     C60081   7.959   1.376   1.720 -0.3183  0.8271 -0.3912
  446MOL0     C60082   7.907   1.481   1.652 -0.3989  0.6158  1.1402
  446MOL0     O60083   7.774   1.504   1.687  0.2606  0.2260  0.2030
  446MOL0     C60084   7.715   1.613   1.618  0.2496 -0.4348  0.2242
  446MOL0     C60085   7.580   1.618   1.679 -0.8486 -0.5269 -0.3040
  446MOL0     C60086   7.495   1.734   1.619  0.3226 -0.0408  0.4430
  446MOL0     C60087   7.350   1.723   1.669 -0.3474  0.9483  0.1060
  446MOL0     C60088   7.256   1.835   1.621 -0.5218  0.1069  0.4780
  446MOL0     C60089   7.113   1.839   1.667  1.1450  0.5051 -0.7895
  446MOL0     C60090   7.028   1.940   1.610 -0.2939  0.0879  0.0931
  446MOL0     C60091   6.891   1.918   1.678 -0.8257  0.4803  0.8732
  446MOL0     N60092   6.805   2.030   1.646 -0.2210  0.2712 -0.0189
  446MOL0     C60093   6.752   2.127   1.729  0.1663 -0.0453 -0.3905
  446MOL0     C60094   6.664   2.200   1.659  0.0662 -0.5973 -1.3434
  446MOL0     C60095   6.555   2.296   1.723 -0.2113  1.0624  0.4179
  446MOL0     C60096   6.442   2.294   1.625 -0.1108 -0.7828 -0.7417
  446MOL0     C60097   6.432   2.419   1.537  0.1185 -0.4850  1.1442
  446MOL0     C60098   6.293   2.441   1.470  0.5001  0.4648 -0.1061
  446MOL0     O60099   6.195   2.488   1.565  0.4052 -0.1493 -0.6535
  446MOL0     C60100   6.058   2.481   1.544  0.0787 -0.7565  0.2332
  446MOL0     C60101   6.008   2.466   1.412 -0.1327 -0.0733  0.1678
  446MOL0     C60102   5.868   2.454   1.399 -0.0637 -0.4993 -0.6139
  446MOL0     C60103   5.811   2.430   1.260 -0.4094  0.1296 -0.8941
  446MOL0     C60104   5.784   2.475   1.512  0.3125  0.7380 -0.5338
  446MOL0     C60105   5.634   2.477   1.512 -0.0691  0.3198 -1.6203
  446MOL0     O60106   5.583   2.408   1.615  0.5191  0.3449 -0.3759
  446MOL0     C60107   5.445   2.413   1.620 -0.0293 -0.5022  0.2820
  446MOL0     C60108   5.366   2.365   1.514  0.1083 -0.1332 -0.0789
  446MOL0     C60109   5.223   2.360   1.531 -0.0687 -0.1548  0.3945
  446MOL0     C60110   5.160   2.397   1.646  0.8885 -0.2276 -0.1607
  446MOL0     O60111   5.026   2.390   1.667  0.8074 -1.0935 -0.4878
  446MOL0     C60112   4.937   2.438   1.560 -0.4383 -0.1314 -0.2434
  446MOL0     C60113   4.795   2.452   1.618  0.6334  0.3362  0.0414
  446MOL0     C60114   4.739   2.333   1.693  0.6531 -0.0695  0.0884
  446MOL0     C60115   4.587   2.340   1.706 -0.1835 -0.0164  0.1170
  446MOL0     C60116   4.527   2.230   1.790 -0.4166  0.6592 -1.0745
  446MOL0     C60117   4.380   2.203   1.782 -0.3522  0.0039  0.0050
  446MOL0     C60118   4.354   2.072   1.857 -0.4921 -0.1684  0.7187
  446MOL0     C60119   4.205   2.060   1.898 -0.1553  0.8922  0.3033
  446MOL0    Cl60120   4.196   1.905   1.975 -0.1665 -0.2917 -0.7844
  446MOL0     C60121   5.241   2.444   1.745  0.0288  0.8399  0.3580
  446MOL0     C60122   5.383   2.456   1.739  0.5072 -0.2201 -0.0531
  446MOL0     O60123   5.571   2.546   1.434 -0.1464 -0.3394  0.0099
  446MOL0     C60124   5.843   2.485   1.634 -0.3666  0.6215  0.8039
  446MOL0     C60125   5.980   2.503   1.656 -0.4927  0.4868  0.8837
  446MOL0     N60126   6.669   2.140   1.528  0.3229  0.1239  0.0510
  446MOL0     N60127   6.749   2.039   1.524  0.5951  0.0365 -1.2599
  446MOL0     C60128   7.987   1.553   1.566  0.8984 -1.1122 -0.0708
  446MOL0     C60129   8.120   1.514   1.552  0.1224  0.2041  0.1412
  446MOL0     C60130   8.530   1.332   1.693 -0.2935  0.0272 -1.0604
  446MOL0     C60131   8.592   1.376   1.573  0.2250  0.0089  0.1106
  446MOL0     C60132   8.731   1.391   1.575  0.0748  0.4796  0.6452
  446MOL0     C60133   8.810   1.351   1.685  0.7440 -0.8569 -0.0476
  446MOL0     O60134   8.947   1.373   1.673  0.3030 -0.3336  0.2179
  446MOL0     C60135   9.031   1.355   1.783  0.1352  0.2635 -0.1751
  446MOL0     C60136   9.172   1.392   1.754 -0.1923 -0.6459  0.2064
  446MOL0     C60137   9.268   1.288   1.693 -0.6328 -0.0277 -0.1733
  446MOL0     C60138   9.243   1.267   1.537 -0.2598  0.6414  0.3469
  446MOL0     C60139   9.298   1.135   1.501  0.4969 -0.1396  0.9764
  446MOL0     C60140   9.331   1.016   1.472 -0.3188  0.2054 -0.0465
  446MOL0     C60141   8.748   1.310   1.801 -0.4817 -0.5364  0.3350
  446MOL0     C60142   8.607   1.289   1.799  0.3066 -0.9527 -0.0287
  446MOL0     H60143   8.130   1.246   1.752  0.1748  0.7309  1.5496
  446MOL0     H60144   7.892   1.327   1.789 -0.4376  1.7536  0.1618
  446MOL0     H60145   7.773   1.705   1.633 -0.5248  0.3097 -1.1393
  446MOL0     H60146   7.710   1.594   1.511 -1.5536 -0.8394  0.3357
  446MOL0     H60147   7.528   1.522   1.666  0.8764 -2.0052  2.5675
  446MOL0     H60148   7.579   1.640   1.786 -1.0617 -1.0859 -0.1872
  446MOL0     H60149   7.536   1.831   1.652 -0.4262  0.5120 -0.2259
  446MOL0     H60150   7.490   1.730   1.510 -2.6920  0.9360  0.4410
  446MOL0     H60151   7.310   1.623   1.651  2.4527 -0.6720  2.0426
  446MOL0     H60152   7.361   1.715   1.777 -1.9703 -1.3976  0.1646
  446MOL0     H60153   7.303   1.931   1.640  0.7326  0.9622 -5.1578
  446MOL0     H60154   7.252   1.833   1.512 -1.6916  1.2114  0.4749
  446MOL0     H60155   7.067   1.741   1.654 -1.4140  1.4410  0.3921
  446MOL0     H60156   7.120   1.847   1.776  1.3634 -0.2988 -0.7439
  446MOL0     H60157   7.064   2.037   1.646  1.1308 -0.1195 -0.6928
  446MOL0     H60158   7.034   1.925   1.501  1.4596 -0.1392  0.1888
  446MOL0     H60159   6.896   1.913   1.788  1.6955 -1.0011  0.7847
  446MOL0     H60160   6.846   1.829   1.633 -0.6644  0.7947  0.0797
  446MOL0     H60161   6.773   2.141   1.834  0.0037  1.0783 -0.4943
  446MOL0     H60162   6.523   2.251   1.817  0.7739 -0.7522 -0.0673
  446MOL0     H60163   6.605   2.391   1.745  1.4582 -0.0299  1.4784
  446MOL0     H60164   6.355   2.283   1.689  0.6682 -0.5133  0.4070
  446MOL0     H60165   6.437   2.203   1.565 -2.9531 -1.6405  0.6145
  446MOL0     H60166   6.510   2.402   1.462 -2.4434 -1.0511 -1.6171
  446MOL0     H60167   6.455   2.507   1.597  0.6376 -0.2957  0.6826
  446MOL0     H60168   6.262   2.348   1.420 -2.4998  0.7921  0.9273
  446MOL0     H60169   6.304   2.511   1.387  1.8298 -2.8906 -3.0473
  446MOL0     H60170   6.061   2.450   1.318  1.2801  1.2070  0.7025
  446MOL0     H60171   5.729   2.359   1.261  1.1202 -1.7372  1.1603
  446MOL0     H60172   5.785   2.527   1.216  1.0925  1.6730  1.3992
  446MOL0     H60173   5.885   2.381   1.196  0.6818 -0.9370  1.1084
  446MOL0     H60174   5.402   2.329   1.418  0.8611 -1.9062  0.8278
  446MOL0     H60175   5.160   2.310   1.459 -1.7614  0.9074  1.0680
  446MOL0     H60176   4.975   2.528   1.511  1.3882 -1.4288 -1.3543
  446MOL0     H60177   4.930   2.360   1.484 -1.8809 -0.7603  0.5069
  446MOL0     H60178   4.787   2.537   1.687  1.9015 -0.4773  1.2532
  446MOL0     H60179   4.726   2.466   1.535 -1.6548  1.6379  2.0207
  446MOL0     H60180   4.781   2.345   1.793 -3.5179  1.9800  1.8258
  446MOL0     H60181   4.770   2.240   1.644  2.3521  0.4072  0.2087
  446MOL0     H60182   4.560   2.438   1.746  3.3848  0.8428  0.7465
  446MOL0     H60183   4.548   2.327   1.604 -0.0467  1.1581 -0.1073
  446MOL0     H60184   4.552   2.255   1.893 -0.5715 -0.5743 -0.7278
  446MOL0     H60185   4.578   2.137   1.761  1.9436  1.3850  0.4491
  446MOL0     H60186   4.325   2.282   1.834  1.0029 -0.6927  2.6245
  446MOL0     H60187   4.334   2.199   1.682  1.1456  0.6037 -0.7406
  446MOL0     H60188   4.416   2.060   1.946  0.2073 -1.6606  0.0656
  446MOL0     H60189   4.386   1.994   1.787  0.7310  0.0953  0.9737
  446MOL0     H60190   4.135   2.073   1.814  0.1647  0.3061 -0.0539
  446MOL0     H60191   4.170   2.135   1.971 -0.0526 -0.4225  1.7515
  446MOL0     H60192   5.190   2.483   1.832 -0.0571  1.2559  0.1229
  446MOL0     H60193   5.445   2.491   1.820 -0.6581  0.5432  0.5379
  446MOL0     H60194   5.785   2.477   1.726 -1.2335  2.0139  0.3980
  446MOL0     H60195   6.019   2.518   1.756 -0.9249  2.5447  0.7933
  446MOL0     H60196   7.963   1.646   1.515 -1.4540 -1.7228 -0.1532
  446MOL0     H60197   8.186   1.580   1.497  2.1887 -2.1750 -0.4588
  446MOL0     H60198   8.527   1.399   1.489 -0.9675 -1.8390  0.4572
  446MOL0     H60199   8.770   1.420   1.478  0.0874 -1.2672  0.1105
  446MOL0     H60200   8.983   1.403   1.870  0.6372 -0.0818  0.2951
  446MOL0     H60201   9.032   1.248   1.804 -2.1815  0.0755 -0.7575
  446MOL0     H60202   9.218   1.417   1.850  0.8324 -1.3931 -0.0704
  446MOL0     H60203   9.181   1.481   1.691  0.2930 -0.1347  0.9707
  446MOL0     H60204   9.270   1.193   1.747  2.0366  0.2043  0.2517
  446MOL0     H60205   9.367   1.335   1.694 -0.2326 -0.8452  0.8415
  446MOL0     H60206   9.296   1.350   1.491  2.0599 -0.2200  1.3307
  446MOL0     H60207   9.139   1.266   1.502  0.4988 -0.0632 -2.0874
  446MOL0     H60208   9.363   0.914   1.458 -0.4779 -0.0228  1.1474
  446MOL0     H60209   8.820   1.288   1.879 -1.4506  0.5385  1.5801
  446MOL0     H60210   8.561   1.242   1.885 -0.4191 -0.5032 -0.1702
  447MOL0     O60211   6.263   8.583   8.120  0.2286  0.2565 -0.0618
  447MOL0     C60212   6.329   8.674   8.066 -0.2993 -0.0198  0.1394
  447MOL0     O60213   6.274   8.766   7.987 -0.2162  0.5584  0.0387
  447MOL0     C60214   6.137   8.764   7.954  0.3826  0.6429 -0.1435
  447MOL0     C60215   6.067   8.880   7.976  0.2410  0.2393 -0.1129
  447MOL0     C60216   5.931   8.889   7.942  0.2011 -0.0535 -0.1696
  447MOL0     C60217   5.857   8.780   7.893  0.6553  1.0523  0.2092
  447MOL0     O60218   5.725   8.769   7.863 -0.3283  0.0944  0.2405
  447MOL0     C60219   5.655   8.889   7.828  0.6680 -0.4560 -0.6495
  447MOL0     C60220   5.592   8.951   7.954  1.0286  0.5915  0.2241
  447MOL0     C60221   5.499   8.859   8.035 -0.6007  0.5679 -0.0252
  447MOL0     C60222   5.368   8.816   7.966 -0.0091  0.1176  0.2343
  447MOL0     C60223   5.303   8.700   8.047  0.8350  0.0623 -0.0936
  447MOL0     C60224   5.158   8.686   7.995 -0.0090  0.5535  0.0755
  447MOL0     C60225   5.074   8.587   8.080 -0.6599 -1.3127 -0.1829
  447MOL0     C60226   4.940   8.554   8.021  0.0607 -1.0216 -0.1669
  447MOL0     N60227   4.852   8.669   8.026  0.0066 -0.0984 -0.8646
  447MOL0     C60228   4.725   8.649   8.078  0.0722 -0.8606 -0.2044
  447MOL0     C60229   4.672   8.765   8.059 -0.6050 -0.9395  1.0829
  447MOL0     C60230   4.539   8.821   8.102 -0.7123  0.2941 -0.7235
  447MOL0     C60231   4.419   8.748   8.031  0.3647  0.4180  0.4462
  447MOL0     C60232   4.287   8.807   8.090  0.1649 -0.2265  0.6112
  447MOL0     C60233   4.170   8.742   8.018 -0.3387  0.5563  0.1293
  447MOL0     O60234   4.062   8.788   8.098 -0.1854  0.0163 -0.4619
  447MOL0     C60235   3.943   8.777   8.044  0.5644 -0.2948  0.4296
  447MOL0     C60236   3.853   8.879   8.081 -1.2648  1.2608  0.3613
  447MOL0     C60237   3.722   8.891   8.021  0.3399  0.9257  0.4378
  447MOL0     C60238   3.640   9.002   8.079  0.8205 -0.4282  0.4146
  447MOL0     C60239   3.675   8.791   7.926 -0.7060 -0.2339  0.7187
  447MOL0     C60240   3.536   8.808   7.869  0.2159  0.6479  0.2640
  447MOL0     O60241   3.470   8.921   7.874  0.1314  0.2960 -0.2119
  447MOL0     C60242   3.362   8.937   7.797  1.2027 -0.2465 -0.3013
  447MOL0     C60243   3.244   8.980   7.860 -0.2854 -0.4053 -0.9257
  447MOL0     C60244   3.125   8.992   7.780  0.3648 -0.1580 -0.8321
  447MOL0     C60245   3.125   8.977   7.641  0.6119  0.5103  0.4057
  447MOL0     O60246   3.006   8.978   7.560 -0.0578 -0.2727 -0.1781
  447MOL0     C60247   2.875   9.021   7.613 -0.0475 -0.3404 -0.9049
  447MOL0     C60248   2.792   9.035   7.496 -0.0445 -0.4476  0.6358
  447MOL0     C60249   2.648   9.082   7.529 -0.3910  0.0228 -0.2048
  447MOL0     C60250   2.551   9.030   7.428 -0.0638 -0.1376 -1.0261
  447MOL0     C60251   2.431   9.124   7.409  0.0580 -0.2153 -0.2730
  447MOL0     C60252   2.327   9.146   7.524 -0.2986  0.2127 -0.1363
  447MOL0     C60253   2.245   9.276   7.506 -0.1589 -0.1025  1.0625
  447MOL0     C60254   2.159   9.285   7.375 -1.2063  0.5287 -0.3149
  447MOL0    Cl60255   2.041   9.409   7.382 -0.3109  0.0654  0.4581
  447MOL0     C60256   3.245   8.939   7.575 -0.7331  0.2383 -0.0883
  447MOL0     C60257   3.360   8.920   7.657 -0.3853 -0.5638  0.5974
  447MOL0     O60258   3.502   8.710   7.804  0.1929 -0.2137  0.0711
  447MOL0     C60259   3.774   8.690   7.897 -0.3125 -0.8376 -0.0594
  447MOL0     C60260   3.906   8.683   7.948 -0.0329 -0.0822 -0.2372
  447MOL0     N60261   4.765   8.854   7.991  0.1252 -0.0671  0.2233
  447MOL0     N60262   4.876   8.795   7.962 -0.2209 -0.2508 -0.0157
  447MOL0     C60263   5.924   8.664   7.879 -0.7666  0.0453 -0.1451
  447MOL0     C60264   6.064   8.648   7.891 -0.6827 -0.2687 -0.4341
  447MOL0     C60265   6.473   8.689   8.102 -0.5620 -1.1855  0.3599
  447MOL0     C60266   6.555   8.765   8.015 -0.4342 -0.1285  0.5308
  447MOL0     C60267   6.692   8.780   8.036  0.4619 -0.0668 -0.0217
  447MOL0     C60268   6.750   8.732   8.151  0.6269  1.1388 -0.4926
  447MOL0     O60269   6.889   8.752   8.172  0.3745 -0.4464 -0.2234
  447MOL0     C60270   6.963   8.673   8.266  1.2595  0.4823  0.5842
  447MOL0     C60271   7.117   8.700   8.271  0.1712  0.8127 -0.6185
  447MOL0     C60272   7.182   8.642   8.144  0.2733  0.9276 -0.3856
  447MOL0     C60273   7.333   8.651   8.153 -0.2850  0.1104  0.0696
  447MOL0     C60274   7.400   8.646   8.021  0.1995  0.4469  0.0158
  447MOL0     C60275   7.450   8.631   7.912  0.4788 -0.3960 -0.6271
  447MOL0     C60276   6.667   8.662   8.234 -0.1707 -0.2755  1.0396
  447MOL0     C60277   6.535   8.640   8.216 -0.8310 -0.1808  0.0277
  447MOL0     H60278   6.111   8.969   8.019  1.9008 -0.8450  0.5267
  447MOL0     H60279   5.890   8.990   7.947 -0.1192 -0.1528 -0.6959
  447MOL0     H60280   5.716   8.966   7.780 -1.3809  0.0905 -2.5713
  447MOL0     H60281   5.576   8.866   7.756  0.6320 -2.9443  0.0959
  447MOL0     H60282   5.673   8.992   8.015  1.6183  0.0279 -0.1743
  447MOL0     H60283   5.537   9.039   7.921 -1.1046 -0.5575  0.5336
  447MOL0     H60284   5.553   8.767   8.060 -0.4693  1.7188  5.1914
  447MOL0     H60285   5.475   8.901   8.133 -1.8745  2.2229 -0.9864
  447MOL0     H60286   5.307   8.907   7.970  0.6799  0.5910  0.1396
  447MOL0     H60287   5.387   8.791   7.861 -1.8591  0.8992 -0.3247
  447MOL0     H60288   5.358   8.605   8.039 -1.5367 -1.7335  2.8100
  447MOL0     H60289   5.284   8.725   8.151  0.2055 -0.3146 -0.1159
  447MOL0     H60290   5.118   8.787   8.007 -0.8884  0.2517 -0.2606
  447MOL0     H60291   5.171   8.660   7.890  0.5386  1.6425 -0.1382
  447MOL0     H60292   5.124   8.490   8.082 -1.4574 -1.7263  0.3555
  447MOL0     H60293   5.078   8.625   8.183 -0.1856  0.1042 -0.7011
  447MOL0     H60294   4.896   8.470   8.076  3.3197 -1.5691  1.8644
  447MOL0     H60295   4.956   8.531   7.916 -0.2829 -2.7700  0.1260
  447MOL0     H60296   4.699   8.556   8.127  0.5625 -2.2443 -2.4291
  447MOL0     H60297   4.542   8.802   8.210  1.2578 -5.1239 -1.4015
  447MOL0     H60298   4.537   8.930   8.096 -0.3325  0.3312 -0.2661
  447MOL0     H60299   4.414   8.640   8.049 -2.5467  0.2471 -0.7582
  447MOL0     H60300   4.433   8.764   7.924 -0.1928  0.7816  0.4222
  447MOL0     H60301   4.286   8.913   8.061  1.8044 -0.6742 -1.2508
  447MOL0     H60302   4.277   8.793   8.198  0.4407  0.8815  0.8011
  447MOL0     H60303   4.176   8.633   8.019 -3.0246  0.2911  2.5374
  447MOL0     H60304   4.164   8.764   7.911  0.9157  2.4243  0.3929
  447MOL0     H60305   3.881   8.964   8.142  0.3474  0.2718  1.0525
  447MOL0     H60306   3.624   9.082   8.006  0.8647 -0.0902  0.7677
  447MOL0     H60307   3.540   8.960   8.096 -0.5866  0.8842 -3.5312
  447MOL0     H60308   3.675   9.050   8.171  0.4683 -1.1454  0.9361
  447MOL0     H60309   3.248   9.004   7.966 -2.5745 -0.5888 -0.7474
  447MOL0     H60310   3.041   9.038   7.830  0.9137  0.9256 -0.8602
  447MOL0     H60311   2.834   8.953   7.687 -0.9231 -0.4838 -1.5018
  447MOL0     H60312   2.875   9.120   7.661 -1.8373 -1.9134  2.7377
  447MOL0     H60313   2.823   9.115   7.428 -4.1938  1.8913  1.1433
  447MOL0     H60314   2.789   8.940   7.442  1.6368  0.5085 -1.2734
  447MOL0     H60315   2.646   9.192   7.528 -0.3974  0.0206 -1.6747
  447MOL0     H60316   2.619   9.042   7.627  2.4344 -1.2303  0.2297
  447MOL0     H60317   2.608   9.022   7.335  4.0624  1.2579  1.1270
  447MOL0     H60318   2.526   8.926   7.450 -0.6797  0.2147  0.0016
  447MOL0     H60319   2.364   9.080   7.334 -1.8080 -3.7524  3.1038
  447MOL0     H60320   2.474   9.218   7.373  1.3781 -1.1729 -1.2863
  447MOL0     H60321   2.265   9.059   7.547  2.2428 -0.9564  3.1136
  447MOL0     H60322   2.391   9.173   7.608  0.7013 -1.0251 -0.4723
  447MOL0     H60323   2.312   9.362   7.517  0.1942 -0.4228  1.4183
  447MOL0     H60324   2.176   9.285   7.590 -3.5858 -0.5444 -1.4732
  447MOL0     H60325   2.114   9.188   7.350 -3.4426  1.1396  1.0658
  447MOL0     H60326   2.231   9.317   7.299 -1.0349  4.8048  1.3890
  447MOL0     H60327   3.250   8.921   7.469 -0.8842 -0.2051 -0.0220
  447MOL0     H60328   3.448   8.881   7.606  0.0648 -0.6754  1.4405
  447MOL0     H60329   3.758   8.606   7.830  0.2823 -0.0563 -1.2112
  447MOL0     H60330   3.961   8.594   7.919  0.5427  0.5048 -0.9899
  447MOL0     H60331   5.879   8.573   7.839 -1.5646 -0.4458  1.7828
  447MOL0     H60332   6.110   8.551   7.875 -0.6868 -0.8349  2.4761
  447MOL0     H60333   6.508   8.805   7.926 -0.6001  1.5055  1.3242
  447MOL0     H60334   6.750   8.832   7.961  0.7862  0.9621  0.9066
  447MOL0     H60335   6.916   8.680   8.365 -0.0621  0.3398 -0.0061
  447MOL0     H60336   6.932   8.573   8.234 -1.8001  1.1241  1.1299
  447MOL0     H60337   7.155   8.653   8.363 -1.5547 -1.3165 -0.9280
  447MOL0     H60338   7.146   8.805   8.286  1.4623  0.2257  1.5852
  447MOL0     H60339   7.155   8.697   8.053  1.2839  0.2882 -1.0890
  447MOL0     H60340   7.161   8.535   8.136  1.1533  0.5347  1.9231
  447MOL0     H60341   7.368   8.566   8.213 -1.6338 -0.9489 -0.5895
  447MOL0     H60342   7.362   8.748   8.194 -1.9237  1.4339 -1.7096
  447MOL0     H60343   7.511   8.624   7.824  1.4636  2.1452 -0.2362
  447MOL0     H60344   6.714   8.632   8.327  2.7218 -1.8583 -0.7887
  447MOL0     H60345   6.481   8.582   8.291 -1.3253 -2.0655 -1.6820
  448MOL0     O60346   0.500   3.703   2.885 -1.0170 -0.6806 -0.5967
  448MOL0     C60347   0.509   3.737   3.007  0.5727  0.6540 -0.2879
  448MOL0     O60348   0.423   3.821   3.065 -0.7927  0.3219 -0.6941
  448MOL0     C60349   0.309   3.865   2.998 -0.0051  0.5243 -0.0406
  448MOL0     C60350   0.307   3.918   2.869 -0.3119 -0.2755  0.1888
  448MOL0     C60351   0.189   3.944   2.806  0.5789 -0.4232  0.0092
  448MOL0     C60352   0.066   3.942   2.871  1.0458  0.3450  0.2002
  448MOL0     O60353  -0.059   3.981   2.817 -0.8229  0.1280 -0.6790
  448MOL0     C60354  -0.060   4.029   2.685 -0.6438 -0.3938  0.3140
  448MOL0     C60355  -0.197   4.079   2.656  0.0256  0.0253 -0.1107
  448MOL0     C60356  -0.285   3.970   2.595 -0.0125  0.6259 -0.7640
  448MOL0     C60357  -0.427   4.022   2.577 -0.4693  0.5224  0.0305
  448MOL0     C60358  -0.502   3.938   2.469  0.3769 -1.1326 -0.5313
  448MOL0     C60359  -0.470   3.985   2.327  0.2527  0.4808 -0.9152
  448MOL0     C60360  -0.541   3.895   2.225  0.1568  1.1944 -0.2833
  448MOL0     C60361  -0.678   3.940   2.202  0.3116  0.0379 -0.1355
  448MOL0     N60362  -0.740   3.873   2.087  0.1386 -0.2082 -0.4385
  448MOL0     C60363  -0.828   3.765   2.087 -0.6891 -0.0237  0.1780
  448MOL0     C60364  -0.893   3.777   1.973 -1.1922  0.2865  0.3512
  448MOL0     C60365  -1.000   3.693   1.920  0.3513  0.4616 -0.1495
  448MOL0     C60366  -1.125   3.778   1.893  0.1633  0.7154 -0.2754
  448MOL0     C60367  -1.243   3.686   1.878  0.1797 -0.0784 -0.0906
  448MOL0     C60368  -1.373   3.772   1.871  0.5177 -0.6475 -0.2305
  448MOL0     O60369  -1.363   3.847   1.747 -0.5396 -1.2338 -0.5959
  448MOL0     C60370  -1.477   3.888   1.688 -0.1650  0.3463  0.0408
  448MOL0     C60371  -1.594   3.906   1.760  0.0420 -0.9096  1.1318
  448MOL0     C60372  -1.710   3.952   1.698  0.8752 -0.1461  0.2293
  448MOL0     C60373  -1.835   3.966   1.785 -0.0195  0.4414  0.5586
  448MOL0     C60374  -1.709   3.966   1.550  0.4468 -0.0472 -0.0605
  448MOL0     C60375  -1.827   4.008   1.465  0.2839 -0.3002  0.3082
  448MOL0     O60376  -1.821   3.963   1.335  0.0581 -0.0024 -0.7046
  448MOL0     C60377  -1.913   3.992   1.236  0.7185 -0.2279 -0.0327
  448MOL0     C60378  -2.022   4.078   1.244  0.3338  0.2621 -0.2677
  448MOL0     C60379  -2.112   4.077   1.141  0.0027 -0.4609  0.3307
  448MOL0     C60380  -2.102   4.001   1.034 -0.6569  0.0078 -0.1458
  448MOL0     O60381  -2.209   4.013   0.952 -0.7505 -0.0112  0.0816
  448MOL0     C60382  -2.179   4.024   0.813 -0.7724  0.2479  0.4832
  448MOL0     C60383  -2.296   4.074   0.724 -0.3950 -0.0921 -0.9849
  448MOL0     C60384  -2.415   3.982   0.742  0.2315 -0.0013  0.7754
  448MOL0     C60385  -2.537   4.021   0.657 -0.6927  0.6239  0.8927
  448MOL0     C60386  -2.649   3.927   0.694  0.9696  0.4383 -0.3381
  448MOL0     C60387  -2.762   3.941   0.600  0.1270 -0.3050 -0.4943
  448MOL0     C60388  -2.798   4.087   0.560  0.7459  0.3566  0.0953
  448MOL0     C60389  -2.833   4.177   0.681  0.2787  0.8760  0.0807
  448MOL0    Cl60390  -2.997   4.126   0.751  0.5010  0.1029 -0.1442
  448MOL0     C60391  -1.988   3.917   1.023 -0.2229 -0.4327 -0.8562
  448MOL0     C60392  -1.896   3.911   1.127  0.4946  0.8392  0.0948
  448MOL0     O60393  -1.922   4.063   1.520  0.2410  0.1209 -0.2370
  448MOL0     C60394  -1.593   3.946   1.481 -0.6395  0.3044  0.6028
  448MOL0     C60395  -1.475   3.902   1.544 -0.7200  1.1224  0.6789
  448MOL0     N60396  -0.845   3.885   1.902  0.4334  0.1918 -0.0031
  448MOL0     N60397  -0.754   3.946   1.973 -0.2119 -0.3352  0.2302
  448MOL0     C60398   0.065   3.890   3.000 -0.1024 -0.6091 -0.0494
  448MOL0     C60399   0.183   3.848   3.064  0.0458 -0.0913 -0.4466
  448MOL0     C60400   0.624   3.689   3.076 -0.3238 -0.0778 -0.2653
  448MOL0     C60401   0.659   3.751   3.199  0.3792  0.1285  0.2369
  448MOL0     C60402   0.772   3.700   3.272 -0.1196  0.4629 -0.0482
  448MOL0     C60403   0.843   3.586   3.225  0.3898  0.4613 -0.3768
  448MOL0     O60404   0.952   3.549   3.291  0.1396 -0.6213 -0.1630
  448MOL0     C60405   0.977   3.409   3.315  1.2182 -1.0406 -0.1455
  448MOL0     C60406   1.104   3.382   3.395 -0.3899 -0.1623 -0.4945
  448MOL0     C60407   1.074   3.412   3.548  0.4951  0.6425  0.2375
  448MOL0     C60408   1.194   3.405   3.651  0.0147  0.0907 -0.2182
  448MOL0     C60409   1.251   3.271   3.654  0.5445 -0.4833  0.3624
  448MOL0     C60410   1.299   3.163   3.667  0.2708 -0.0883 -0.1045
  448MOL0     C60411   0.804   3.535   3.094 -0.2139  0.0270  0.5317
  448MOL0     C60412   0.704   3.595   3.021  0.6997  0.8621  0.4395
  448MOL0     H60413   0.407   3.938   2.833  0.0555  3.6421  2.7438
  448MOL0     H60414   0.196   3.964   2.699 -1.2154 -1.5582 -0.3671
  448MOL0     H60415  -0.001   4.120   2.669 -0.9989 -0.3123 -0.5797
  448MOL0     H60416  -0.032   3.951   2.614 -1.9438  0.2100 -0.9190
  448MOL0     H60417  -0.240   4.118   2.749 -0.3725 -1.3752  0.3187
  448MOL0     H60418  -0.186   4.167   2.591  1.1798  0.2183  0.3252
  448MOL0     H60419  -0.244   3.936   2.500  0.1514 -2.6222  0.3460
  448MOL0     H60420  -0.297   3.882   2.659 -0.7804 -0.0428 -1.8114
  448MOL0     H60421  -0.476   4.027   2.675 -0.5267 -1.2516  0.1141
  448MOL0     H60422  -0.425   4.128   2.547 -2.4076  0.2419 -1.2423
  448MOL0     H60423  -0.487   3.831   2.488 -0.7579 -1.0178  1.3410
  448MOL0     H60424  -0.608   3.964   2.482 -0.1594 -1.9184 -2.8822
  448MOL0     H60425  -0.506   4.088   2.317  1.0350  0.7870 -0.6834
  448MOL0     H60426  -0.361   3.988   2.323  0.3052  0.1739  0.1970
  448MOL0     H60427  -0.486   3.897   2.130  0.9961 -1.0302  0.1100
  448MOL0     H60428  -0.544   3.791   2.257 -0.5979  0.8352 -1.4362
  448MOL0     H60429  -0.672   4.047   2.179 -0.6693  0.1178 -0.1022
  448MOL0     H60430  -0.751   3.942   2.284 -1.3548 -2.5611 -1.4005
  448MOL0     H60431  -0.846   3.689   2.163  0.0956 -0.4128 -0.0081
  448MOL0     H60432  -0.969   3.634   1.833  0.9451 -1.3444  1.2193
  448MOL0     H60433  -1.016   3.616   1.996  0.1927  3.1611  2.7474
  448MOL0     H60434  -1.110   3.833   1.800  0.6149 -0.2329 -0.7682
  448MOL0     H60435  -1.151   3.849   1.973 -1.5551 -0.1243 -0.0455
  448MOL0     H60436  -1.245   3.635   1.975 -2.6047 -0.0857 -0.0846
  448MOL0     H60437  -1.231   3.620   1.792  0.9674  1.0456 -0.8704
  448MOL0     H60438  -1.386   3.845   1.952  0.4456 -1.1366  0.2108
  448MOL0     H60439  -1.460   3.706   1.880 -0.1753 -0.2021 -2.9206
  448MOL0     H60440  -1.600   3.902   1.868  2.7439  1.2956  1.4548
  448MOL0     H60441  -1.919   4.020   1.740 -0.2006 -0.7418 -0.5790
  448MOL0     H60442  -1.890   3.874   1.804 -1.4702  1.1015 -0.2720
  448MOL0     H60443  -1.800   3.999   1.883 -2.2808 -2.8333  2.6604
  448MOL0     H60444  -2.032   4.148   1.326 -2.0920  1.5969 -1.5810
  448MOL0     H60445  -2.197   4.145   1.143 -1.9228 -2.5480 -2.5235
  448MOL0     H60446  -2.087   4.082   0.797 -0.5143  0.5054  2.5551
  448MOL0     H60447  -2.150   3.923   0.782  3.3593  1.3601  0.1283
  448MOL0     H60448  -2.328   4.175   0.751 -0.3164 -0.1920 -0.5024
  448MOL0     H60449  -2.257   4.070   0.622  2.3797  0.0822 -0.0149
  448MOL0     H60450  -2.448   3.970   0.845 -4.1994 -1.2647 -0.5841
  448MOL0     H60451  -2.376   3.884   0.712 -1.3766 -0.8687  1.3885
  448MOL0     H60452  -2.554   4.128   0.677  4.4502  1.6339  1.2760
  448MOL0     H60453  -2.528   4.008   0.549 -0.8180  0.6063  0.8846
  448MOL0     H60454  -2.684   3.939   0.798 -0.9329  1.2779 -1.0135
  448MOL0     H60455  -2.616   3.823   0.691  0.0299 -0.0077  2.1860
  448MOL0     H60456  -2.732   3.888   0.510 -1.2299 -2.2360  0.1252
  448MOL0     H60457  -2.849   3.888   0.641  2.2677 -5.2732 -1.6504
  448MOL0     H60458  -2.889   4.077   0.501  0.9228 -0.7024 -0.0232
  448MOL0     H60459  -2.718   4.130   0.499 -0.4292  0.7723 -1.1914
  448MOL0     H60460  -2.841   4.281   0.649 -0.7167  0.3328 -1.5250
  448MOL0     H60461  -2.766   4.166   0.767 -1.9744  0.0684  1.8450
  448MOL0     H60462  -1.985   3.852   0.935 -1.1797 -3.1796  0.9978
  448MOL0     H60463  -1.807   3.849   1.134  0.0960  0.2704  0.1745
  448MOL0     H60464  -1.586   3.960   1.374 -0.4753 -3.4711 -0.0065
  448MOL0     H60465  -1.385   3.873   1.490  1.3570  0.8628  3.9961
  448MOL0     H60466  -0.026   3.898   3.059 -0.4133  2.3391 -0.7464
  448MOL0     H60467   0.167   3.803   3.162 -1.8202  1.1154 -0.1456
  448MOL0     H60468   0.597   3.833   3.233 -1.5746 -0.6104 -1.3657
  448MOL0     H60469   0.809   3.747   3.363 -0.1225  0.3510  0.0113
  448MOL0     H60470   0.896   3.358   3.368  0.3619  2.7875  2.6875
  448MOL0     H60471   1.001   3.364   3.218 -0.7979  0.9306 -1.6858
  448MOL0     H60472   1.178   3.456   3.361  0.1658 -0.9323 -0.9729
  448MOL0     H60473   1.130   3.279   3.372  1.4132  0.5926 -2.1507
  448MOL0     H60474   0.996   3.349   3.592  0.4605  1.4585  1.3940
  448MOL0     H60475   1.039   3.516   3.551  0.0807  0.5950 -1.7260
  448MOL0     H60476   1.160   3.444   3.747 -0.4163 -0.1059 -0.2876
  448MOL0     H60477   1.270   3.473   3.611 -0.3721  0.5398 -0.1978
  448MOL0     H60478   1.343   3.066   3.665  1.5940  0.5023 -1.9831
  448MOL0     H60479   0.852   3.451   3.045 -2.3290 -0.0364 -1.6555
  448MOL0     H60480   0.677   3.562   2.922  0.2879  2.9586 -0.1881
  449MOL0     O60481   2.149   9.564   2.373 -0.2741  0.2592 -0.1575
  449MOL0     C60482   2.095   9.598   2.261 -0.0596 -0.5438 -0.5752
  449MOL0     O60483   1.962   9.604   2.238 -0.2352  0.0279  0.4656
  449MOL0     C60484   1.872   9.547   2.320  0.3742  0.5191  0.3882
  449MOL0     C60485   1.900   9.427   2.391  0.2328  0.2577 -0.2681
  449MOL0     C60486   1.798   9.370   2.471  0.5800 -0.2766  0.3779
  449MOL0     C60487   1.675   9.428   2.484  0.7428  0.5766  0.2208
  449MOL0     O60488   1.585   9.356   2.561 -0.0709  0.2968  0.8334
  449MOL0     C60489   1.462   9.414   2.602  0.5122  0.2794  0.1003
  449MOL0     C60490   1.354   9.301   2.596  0.1697  0.5326 -0.4777
  449MOL0     C60491   1.212   9.356   2.566  0.2222 -0.9947 -0.6388
  449MOL0     C60492   1.192   9.375   2.420  0.2754  0.5091 -0.6362
  449MOL0     C60493   1.043   9.376   2.386  0.1865 -0.7969  0.3946
  449MOL0     C60494   0.958   9.488   2.454  0.2613  0.1755 -0.3320
  449MOL0     C60495   0.812   9.454   2.430  0.0775 -0.2151 -0.0407
  449MOL0     C60496   0.772   9.447   2.285 -0.7264 -0.2010  1.0682
  449MOL0     N60497   0.634   9.419   2.259 -0.2162  0.2673  0.6468
  449MOL0     C60498   0.591   9.286   2.273 -0.8320  0.0408  1.2319
  449MOL0     C60499   0.474   9.283   2.217  0.2360  0.0149  0.0461
  449MOL0     C60500   0.368   9.178   2.209 -0.9661 -0.5928 -0.4213
  449MOL0     C60501   0.382   9.092   2.081  0.2334 -0.4547 -0.8106
  449MOL0     C60502   0.300   8.959   2.087  0.0499  0.4160 -0.0420
  449MOL0     C60503   0.148   8.981   2.135 -0.0042 -0.1030 -0.7709
  449MOL0     O60504   0.051   8.881   2.097 -0.2108 -0.1618  0.8666
  449MOL0     C60505  -0.082   8.899   2.131  0.2488 -0.6610  0.0360
  449MOL0     C60506  -0.162   9.001   2.076 -0.2759  0.5685 -1.0193
  449MOL0     C60507  -0.305   9.017   2.101 -0.9590  0.1071 -0.4303
  449MOL0     C60508  -0.383   9.123   2.020  0.5068 -0.2896  0.4078
  449MOL0     C60509  -0.363   8.915   2.184 -0.5519  0.2299  0.2064
  449MOL0     C60510  -0.508   8.898   2.215  0.2149 -0.2017  0.0401
  449MOL0     O60511  -0.597   8.963   2.129 -0.6530  0.4397 -0.3935
  449MOL0     C60512  -0.715   9.004   2.173 -0.1293 -0.0185  0.3321
  449MOL0     C60513  -0.734   9.132   2.212 -0.0363 -0.3141  0.4631
  449MOL0     C60514  -0.861   9.179   2.242 -0.2764  0.4104  0.9708
  449MOL0     C60515  -0.977   9.097   2.224  0.3759  0.1219 -0.2467
  449MOL0     O60516  -1.109   9.137   2.251  0.4139  0.3701  0.0971
  449MOL0     C60517  -1.201   9.117   2.147  0.5735 -0.2134  0.3665
  449MOL0     C60518  -1.264   9.261   2.135 -0.5469 -0.2381 -0.4189
  449MOL0     C60519  -1.382   9.271   2.040  0.5782  0.0102  0.5696
  449MOL0     C60520  -1.499   9.193   2.101  0.9705 -0.8538  0.3896
  449MOL0     C60521  -1.619   9.196   2.013  0.2506  0.3106 -0.1691
  449MOL0     C60522  -1.683   9.338   2.006  0.3890 -0.1282 -0.2520
  449MOL0     C60523  -1.823   9.330   1.940  1.0101  1.5482 -0.5805
  449MOL0     C60524  -1.891   9.467   1.956  0.1864  0.5981  1.0722
  449MOL0    Cl60525  -1.836   9.583   1.829 -0.7307  0.1602  0.0369
  449MOL0     C60526  -0.954   8.969   2.179  0.0759 -0.6512 -0.1635
  449MOL0     C60527  -0.830   8.921   2.160 -0.5972  0.5661  0.0687
  449MOL0     O60528  -0.540   8.861   2.325  0.4063  0.1831 -0.5498
  449MOL0     C60529  -0.283   8.807   2.233  0.3241 -0.8432  0.1124
  449MOL0     C60530  -0.148   8.798   2.196  0.0558  0.5506 -0.7445
  449MOL0     N60531   0.444   9.406   2.171 -0.5960 -0.6107 -0.1394
  449MOL0     N60532   0.542   9.486   2.191  0.0657  0.1984  0.1959
  449MOL0     C60533   1.645   9.535   2.398  0.8770  0.2919  0.5135
  449MOL0     C60534   1.741   9.594   2.324  0.5011  0.8662 -0.1132
  449MOL0     C60535   2.180   9.645   2.143 -0.3880 -0.2631  0.0729
  449MOL0     C60536   2.317   9.640   2.148 -0.4929  0.3992  0.3902
  449MOL0     C60537   2.403   9.711   2.059  0.5069  0.3086 -0.1788
  449MOL0     C60538   2.339   9.765   1.939  0.3762  0.0237 -0.4090
  449MOL0     O60539   2.421   9.835   1.853 -0.0646 -0.8878  0.1399
  449MOL0     C60540   2.376   9.968   1.807 -0.2057 -0.6038  0.0331
  449MOL0     C60541   2.475  10.037   1.717  0.2313  0.7705 -0.2778
  449MOL0     C60542   2.623  10.021   1.761 -0.7003 -0.2786 -0.1433
  449MOL0     C60543   2.717  10.126   1.695 -0.1484 -0.1349 -0.0389
  449MOL0     C60544   2.858  10.082   1.721 -0.4703  0.1292 -0.1474
  449MOL0     C60545   2.974  10.051   1.738  0.1912  0.5016 -0.4121
  449MOL0     C60546   2.200   9.761   1.924  0.5374  0.1461 -0.3652
  449MOL0     C60547   2.122   9.709   2.029 -0.2215  0.6872  0.0261
  449MOL0     H60548   1.984   9.360   2.376 -1.3849 -1.6919 -1.1126
  449MOL0     H60549   1.823   9.281   2.529  0.2979 -3.3545 -3.7703
  449MOL0     H60550   1.459   9.465   2.699  1.1629 -0.7844  0.6965
  449MOL0     H60551   1.433   9.487   2.525 -0.8481  1.6016  1.7920
  449MOL0     H60552   1.390   9.228   2.524  1.3805  1.3200 -0.6978
  449MOL0     H60553   1.356   9.261   2.698  0.8381  1.2155 -0.2112
  449MOL0     H60554   1.141   9.275   2.586  0.0986 -1.1614 -1.6967
  449MOL0     H60555   1.191   9.451   2.615 -0.7035 -2.2380  1.4872
  449MOL0     H60556   1.250   9.455   2.374 -2.9542  1.4664 -3.5006
  449MOL0     H60557   1.228   9.284   2.371  0.6376  0.0621  0.4469
  449MOL0     H60558   1.028   9.389   2.279 -0.7497  2.3456  0.7932
  449MOL0     H60559   0.998   9.279   2.409 -0.1883 -0.6029  0.4979
  449MOL0     H60560   0.971   9.487   2.563  0.7963 -0.7530 -0.3975
  449MOL0     H60561   0.986   9.585   2.414  2.3823  0.1978  1.0634
  449MOL0     H60562   0.789   9.364   2.487  2.2733 -1.9804 -1.8048
  449MOL0     H60563   0.757   9.539   2.474  0.0634 -0.1557 -0.1714
  449MOL0     H60564   0.822   9.367   2.230 -0.8862 -2.6658  4.2200
  449MOL0     H60565   0.809   9.545   2.252  0.4425  0.0645  3.0036
  449MOL0     H60566   0.649   9.203   2.311  2.8562  2.1577  0.6816
  449MOL0     H60567   0.388   9.114   2.295  0.4860  1.8268  1.1609
  449MOL0     H60568   0.277   9.237   2.226  0.1385  1.6899 -1.8898
  449MOL0     H60569   0.482   9.058   2.053  0.1658 -3.1785  1.7636
  449MOL0     H60570   0.344   9.148   1.995  0.4594 -1.4762 -1.5911
  449MOL0     H60571   0.347   8.891   2.159  0.9053 -2.0259 -2.7472
  449MOL0     H60572   0.302   8.904   1.993  1.1277 -0.4511  0.4633
  449MOL0     H60573   0.108   9.079   2.109 -0.3409  0.1478  0.6152
  449MOL0     H60574   0.152   8.989   2.244 -0.1578 -3.7752 -0.3817
  449MOL0     H60575  -0.122   9.079   2.012  1.5141  2.0966  1.7512
  449MOL0     H60576  -0.426   9.194   2.091  2.0603  1.8515 -0.6766
  449MOL0     H60577  -0.307   9.170   1.956  0.5815  0.2496  0.8808
  449MOL0     H60578  -0.457   9.077   1.954  0.3114 -2.3290  1.9592
  449MOL0     H60579  -0.651   9.202   2.215  0.2840 -0.7150  1.0822
  449MOL0     H60580  -0.874   9.286   2.255  0.8711  0.4545  1.8442
  449MOL0     H60581  -1.153   9.085   2.054 -0.7943 -0.7288 -0.1840
  449MOL0     H60582  -1.271   9.035   2.162 -1.5123  1.1181 -1.4727
  449MOL0     H60583  -1.297   9.290   2.236 -3.2467  0.4056 -1.4011
  449MOL0     H60584  -1.175   9.318   2.109 -0.1606  0.6995  2.5146
  449MOL0     H60585  -1.351   9.229   1.944 -0.1722  1.4960 -0.3602
  449MOL0     H60586  -1.407   9.376   2.026 -1.2639 -0.6716 -2.0152
  449MOL0     H60587  -1.470   9.088   2.103  1.6938 -0.7582 -1.9904
  449MOL0     H60588  -1.530   9.233   2.197 -3.3339  1.2620 -1.6127
  449MOL0     H60589  -1.687   9.135   2.073  1.7130 -1.3854 -0.1428
  449MOL0     H60590  -1.608   9.149   1.915 -2.5722 -0.6334 -0.1298
  449MOL0     H60591  -1.707   9.366   2.109 -2.2684  0.1911 -0.9035
  449MOL0     H60592  -1.609   9.400   1.954  1.6821 -0.5849  0.9571
  449MOL0     H60593  -1.884   9.266   2.004  0.3492  1.1200 -1.6023
  449MOL0     H60594  -1.831   9.287   1.839 -1.0063  1.3044 -0.3627
  449MOL0     H60595  -1.874   9.511   2.054 -0.2255 -0.8900  1.8474
  449MOL0     H60596  -1.996   9.459   1.927  0.8670  1.1856 -1.9634
  449MOL0     H60597  -1.033   8.898   2.159 -0.7894  0.6074 -1.3192
  449MOL0     H60598  -0.820   8.820   2.122 -0.2559  1.2768 -1.8633
  449MOL0     H60599  -0.325   8.725   2.290 -2.1370 -0.4627 -1.0136
  449MOL0     H60600  -0.100   8.709   2.237 -0.2991 -0.1202 -1.7315
  449MOL0     H60601   1.557   9.598   2.406  0.4866 -0.3013  0.9659
  449MOL0     H60602   1.703   9.680   2.269  0.2956  2.4900  2.4250
  449MOL0     H60603   2.360   9.598   2.238  0.3446  2.0062  0.7838
  449MOL0     H60604   2.510   9.704   2.073  0.4383 -0.5449 -0.0338
  449MOL0     H60605   2.287   9.951   1.747 -1.6274 -2.7249  2.5261
  449MOL0     H60606   2.354  10.036   1.890 -2.2082  0.7930 -1.5622
  449MOL0     H60607   2.454  10.144   1.708 -1.4136  0.4088 -0.9681
  449MOL0     H60608   2.472   9.993   1.617 -1.2229  1.0800 -0.3856
  449MOL0     H60609   2.664   9.924   1.730 -0.1623  0.4345 -1.7481
  449MOL0     H60610   2.633  10.029   1.870  1.1257  0.6244 -0.3497
  449MOL0     H60611   2.702  10.225   1.740 -0.4758 -1.2434  2.4439
  449MOL0     H60612   2.697  10.112   1.588 -1.6952 -0.5794  0.2834
  449MOL0     H60613   3.069  10.010   1.767 -0.8172 -2.2210 -0.6960
  449MOL0     H60614   2.140   9.802   1.844  0.7748 -0.1984 -0.7233
  449MOL0     H60615   2.017   9.729   2.016 -0.6580 -1.5310 -0.1480
  450MOL0     O60616   7.475   6.830   3.511  0.3453  0.3882  0.3782
  450MOL0     C60617   7.526   6.903   3.596  0.2503 -0.4308 -0.0273
  450MOL0     O60618   7.454   6.989   3.681 -0.1701 -0.1767 -0.0250
  450MOL0     C60619   7.317   6.987   3.658  0.6852 -0.1968  0.3368
  450MOL0     C60620   7.255   7.031   3.540  0.3743  0.3260  0.3164
  450MOL0     C60621   7.118   7.017   3.517 -0.4924 -0.1141 -0.5235
  450MOL0     C60622   7.040   6.960   3.620 -0.5608 -0.3756  0.8606
  450MOL0     O60623   6.909   6.941   3.592  0.3171  0.3221  0.0907
  450MOL0     C60624   6.840   6.826   3.636 -0.1406 -1.4376  0.0787
  450MOL0     C60625   6.703   6.822   3.563 -0.4398 -0.1830  0.1459
  450MOL0     C60626   6.579   6.884   3.635  0.4909 -0.2928  0.9306
  450MOL0     C60627   6.583   7.034   3.648 -0.2523  0.2994 -0.3082
  450MOL0     C60628   6.473   7.098   3.732 -0.2747 -0.5142  0.4283
  450MOL0     C60629   6.429   7.234   3.680  0.0320  0.6116  0.1500
  450MOL0     C60630   6.334   7.306   3.780 -0.1920  0.4631  0.1602
  450MOL0     C60631   6.196   7.251   3.807  0.4187  0.3690 -0.4688
  450MOL0     N60632   6.127   7.324   3.917  0.2883 -0.4153 -1.2858
  450MOL0     C60633   6.141   7.310   4.053 -0.1796 -0.6556 -0.1248
  450MOL0     C60634   6.070   7.409   4.112 -0.2324  0.4590 -0.0150
  450MOL0     C60635   6.036   7.417   4.263  0.1017 -0.2077 -0.3131
  450MOL0     C60636   5.892   7.392   4.284 -0.1120  0.5898 -0.5933
  450MOL0     C60637   5.862   7.369   4.438  0.1295 -0.1435  0.7298
  450MOL0     C60638   5.734   7.280   4.467  0.2138  0.2112  0.6926
  450MOL0     O60639   5.625   7.360   4.425 -0.6432 -0.0379  0.2353
  450MOL0     C60640   5.499   7.304   4.422 -1.0478 -0.5307 -0.1950
  450MOL0     C60641   5.399   7.399   4.447 -0.2837  0.0040 -0.4995
  450MOL0     C60642   5.262   7.368   4.447  0.0821 -0.2753  0.1712
  450MOL0     C60643   5.159   7.478   4.463 -0.4031  0.1592 -0.0577
  450MOL0     C60644   5.231   7.230   4.443 -0.0165  0.3345  0.5090
  450MOL0     C60645   5.091   7.179   4.438  0.1678 -0.2173  0.6454
  450MOL0     O60646   5.064   7.052   4.491 -0.2860 -0.1614 -0.0667
  450MOL0     C60647   4.939   7.001   4.483 -0.2914 -0.8939 -0.2822
  450MOL0     C60648   4.911   6.892   4.404  0.2999 -0.0590 -0.2887
  450MOL0     C60649   4.783   6.831   4.401  0.2219  0.0881 -0.4325
  450MOL0     C60650   4.682   6.889   4.480 -0.2618 -0.2437 -1.2779
  450MOL0     O60651   4.557   6.838   4.456 -0.1391 -0.5241  0.0049
  450MOL0     C60652   4.449   6.897   4.531 -0.4592 -0.3039 -0.1230
  450MOL0     C60653   4.315   6.839   4.478 -1.0347 -0.1767 -0.1365
  450MOL0     C60654   4.264   6.717   4.561 -0.2097  0.2858 -1.0626
  450MOL0     C60655   4.130   6.680   4.495 -0.2244  0.0070 -0.0297
  450MOL0     C60656   4.073   6.548   4.546 -0.1779 -0.1095 -0.1884
  450MOL0     C60657   3.931   6.518   4.509  0.0989 -0.4673 -1.4325
  450MOL0     C60658   3.820   6.588   4.599 -0.3681  0.4181  0.8888
  450MOL0     C60659   3.692   6.614   4.518  0.2477 -0.4762  0.3233
  450MOL0    Cl60660   3.566   6.696   4.620  0.0704  0.3223 -0.0140
  450MOL0     C60661   4.712   7.007   4.566 -0.0293  0.3946  0.1806
  450MOL0     C60662   4.841   7.057   4.563  0.4077 -0.0996  0.2423
  450MOL0     O60663   5.008   7.254   4.383 -0.2309  0.0881 -0.3543
  450MOL0     C60664   5.334   7.127   4.422 -0.5497  0.0058 -0.3567
  450MOL0     C60665   5.467   7.171   4.410  0.6192  1.0070  0.1419
  450MOL0     N60666   6.021   7.489   4.010  0.2962 -0.1713  0.0441
  450MOL0     N60667   6.067   7.444   3.901  0.6663 -0.8763 -0.0942
  450MOL0     C60668   7.097   6.925   3.740  0.8792  0.2893  0.4426
  450MOL0     C60669   7.234   6.938   3.757 -0.6129  0.3094 -0.5422
  450MOL0     C60670   7.665   6.880   3.627  0.5349  0.4382  0.1090
  450MOL0     C60671   7.733   6.959   3.714  0.1238  0.1940 -0.5975
  450MOL0     C60672   7.869   6.948   3.729 -0.1148  0.3411  0.3388
  450MOL0     C60673   7.944   6.852   3.672 -0.0658  0.4045 -0.5550
  450MOL0     O60674   8.080   6.847   3.710 -0.6336  0.0636  0.3479
  450MOL0     C60675   8.163   6.753   3.640  0.1587  0.4484 -0.1237
  450MOL0     C60676   8.298   6.746   3.704  0.2760 -0.3407  0.1369
  450MOL0     C60677   8.283   6.715   3.854 -0.4225 -0.3727 -0.7243
  450MOL0     C60678   8.343   6.825   3.941 -0.0691  0.7014 -0.3614
  450MOL0     C60679   8.491   6.812   3.941 -0.4684  0.0602 -0.4013
  450MOL0     C60680   8.608   6.781   3.925  0.6984  0.6981  0.5063
  450MOL0     C60681   7.876   6.776   3.573 -0.0122 -0.0416  0.2983
  450MOL0     C60682   7.738   6.781   3.555 -0.0455 -0.6552 -0.5928
  450MOL0     H60683   7.317   7.078   3.465 -1.3488 -0.3296 -1.6307
  450MOL0     H60684   7.071   7.056   3.427 -0.1047 -2.5706 -1.8857
  450MOL0     H60685   6.901   6.736   3.622  0.3243 -1.0384 -0.5502
  450MOL0     H60686   6.819   6.829   3.743  0.6068 -1.9360  0.2478
  450MOL0     H60687   6.727   6.874   3.470  1.0436 -1.3856 -0.2055
  450MOL0     H60688   6.684   6.715   3.550 -2.1109 -0.0936  1.5136
  450MOL0     H60689   6.486   6.863   3.582  1.2846  0.9287 -1.0966
  450MOL0     H60690   6.584   6.840   3.735 -0.3244 -1.0890  0.6284
  450MOL0     H60691   6.679   7.062   3.692 -0.0698 -0.2932 -0.3198
  450MOL0     H60692   6.575   7.080   3.549 -1.7050  0.7914  0.0193
  450MOL0     H60693   6.381   7.040   3.718 -0.9032  0.6145 -0.4003
  450MOL0     H60694   6.507   7.105   3.835  0.2605 -1.5570  0.3297
  450MOL0     H60695   6.520   7.294   3.669  1.4566 -1.3825  0.5493
  450MOL0     H60696   6.379   7.226   3.583 -0.2820  0.6401  0.3075
  450MOL0     H60697   6.385   7.311   3.877  0.3928 -0.2341 -0.1022
  450MOL0     H60698   6.327   7.413   3.758  2.1178  0.5497 -0.3994
  450MOL0     H60699   6.219   7.146   3.828  1.6015  0.3510 -1.6678
  450MOL0     H60700   6.140   7.255   3.713  0.2793  2.8029 -0.3459
  450MOL0     H60701   6.199   7.241   4.113  2.3547  2.6092  1.4973
  450MOL0     H60702   6.088   7.337   4.317  2.4913 -0.6750 -3.0343
  450MOL0     H60703   6.078   7.515   4.288  0.6772 -0.4551 -0.2830
  450MOL0     H60704   5.872   7.298   4.233 -0.0743 -0.1104  0.6266
  450MOL0     H60705   5.839   7.478   4.242 -0.4906  0.7710  0.2320
  450MOL0     H60706   5.848   7.468   4.484 -0.7142  0.0639  0.0585
  450MOL0     H60707   5.945   7.313   4.480 -0.5213 -2.1662 -0.5479
  450MOL0     H60708   5.731   7.257   4.574 -1.6716  2.9002  1.3245
  450MOL0     H60709   5.737   7.188   4.409 -0.1402  0.7289 -0.1713
  450MOL0     H60710   5.427   7.503   4.457  1.8450 -0.6259  0.7219
  450MOL0     H60711   5.202   7.559   4.524 -2.6961 -0.0118  1.9159
  450MOL0     H60712   5.136   7.507   4.361  1.8458  1.0491 -0.3717
  450MOL0     H60713   5.073   7.443   4.521  1.5351 -1.0895  2.2401
  450MOL0     H60714   4.985   6.847   4.339 -0.4335 -1.0292 -0.4684
  450MOL0     H60715   4.761   6.748   4.335 -0.2691  0.2101 -0.4229
  450MOL0     H60716   4.463   6.869   4.635  0.1750 -1.2708 -0.4539
  450MOL0     H60717   4.441   7.005   4.514 -0.3008 -0.1375  0.8197
  450MOL0     H60718   4.243   6.922   4.479 -0.6318  0.2007 -1.1450
  450MOL0     H60719   4.336   6.817   4.373  3.2214  1.5870  0.1562
  450MOL0     H60720   4.243   6.752   4.662 -0.5815  2.3963 -1.8096
  450MOL0     H60721   4.334   6.633   4.559  0.1457  0.3157  2.9928
  450MOL0     H60722   4.055   6.758   4.509  0.2414  0.1473  1.9625
  450MOL0     H60723   4.151   6.667   4.388  0.5738  0.9131 -0.0011
  450MOL0     H60724   4.098   6.541   4.652  0.3218  3.0195  0.0054
  450MOL0     H60725   4.139   6.476   4.495  1.2265  0.1051  1.2560
  450MOL0     H60726   3.915   6.557   4.407 -0.5573  0.9110 -0.8369
  450MOL0     H60727   3.910   6.411   4.506  0.8884 -0.6226 -4.0676
  450MOL0     H60728   3.851   6.682   4.645  2.3675  0.5532 -1.0435
  450MOL0     H60729   3.800   6.522   4.684 -1.3597  2.9539  2.7320
  450MOL0     H60730   3.657   6.521   4.473 -2.4790  0.5241  0.2076
  450MOL0     H60731   3.715   6.674   4.429  1.4147  0.0187  0.9422
  450MOL0     H60732   4.634   7.055   4.625  1.7094  3.7657 -0.0526
  450MOL0     H60733   4.866   7.150   4.612  1.3166  0.5041 -1.2742
  450MOL0     H60734   5.308   7.022   4.413 -0.7109  0.0668 -0.6008
  450MOL0     H60735   5.537   7.091   4.387  1.8418  1.8790  0.7105
  450MOL0     H60736   7.042   6.879   3.822  0.5101  2.4673  1.4941
  450MOL0     H60737   7.278   6.911   3.852  2.4190 -0.6737 -2.0854
  450MOL0     H60738   7.686   7.047   3.756 -2.4428 -0.1609 -2.4342
  450MOL0     H60739   7.915   7.026   3.789  1.2555 -1.7775  2.1987
  450MOL0     H60740   8.112   6.656   3.631  2.1059 -0.7093  0.5124
  450MOL0     H60741   8.176   6.777   3.534 -0.5494 -1.6220 -0.7250
  450MOL0     H60742   8.347   6.844   3.698 -0.7666  0.1715 -0.1137
  450MOL0     H60743   8.364   6.670   3.661  1.2185 -1.8136  3.7762
  450MOL0     H60744   8.344   6.625   3.866 -0.3530 -0.2047  0.2878
  450MOL0     H60745   8.180   6.694   3.885 -0.4780 -0.3300 -0.8806
  450MOL0     H60746   8.316   6.810   4.046  3.4048 -0.0432  0.5744
  450MOL0     H60747   8.321   6.923   3.897 -0.1925 -0.5010 -3.1697
  450MOL0     H60748   8.709   6.747   3.914 -0.0062 -2.3077  2.2395
  450MOL0     H60749   7.918   6.687   3.527 -1.6350 -0.5228 -0.3477
  450MOL0     H60750   7.685   6.713   3.490 -0.0527  0.3487 -1.6619
  451MOL0     O60751   7.851   0.545   4.808  0.2323 -0.0280 -0.3219
  451MOL0     C60752   7.868   0.553   4.684  0.0836 -0.7625 -0.2842
  451MOL0     O60753   7.774   0.538   4.587  0.4216 -0.3576  0.3978
  451MOL0     C60754   7.639   0.545   4.625 -0.3435 -0.1515  0.5349
  451MOL0     C60755   7.575   0.462   4.715  0.3515 -0.2268 -0.6068
  451MOL0     C60756   7.441   0.470   4.740  0.0749  0.6856  0.1528
  451MOL0     C60757   7.364   0.573   4.675  0.1918  0.5317  0.3217
  451MOL0     O60758   7.231   0.596   4.698  0.2963  0.3480 -0.4423
  451MOL0     C60759   7.168   0.554   4.823 -0.1962 -1.0758  0.6599
  451MOL0     C60760   7.113   0.417   4.810 -0.6341  0.0833  0.1557
  451MOL0     C60761   6.990   0.393   4.892 -0.0492 -0.1048 -1.8343
  451MOL0     C60762   6.930   0.260   4.908 -0.2064  0.1598  0.4342
  451MOL0     C60763   6.823   0.260   5.012  0.1498 -0.1069 -0.0726
  451MOL0     C60764   6.733   0.130   5.006 -0.5855 -0.1829  0.1884
  451MOL0     C60765   6.640   0.141   5.123  0.4253 -0.1734  0.3692
  451MOL0     C60766   6.582   0.004   5.146  0.9889  0.4008  0.1167
  451MOL0     N60767   6.498  -0.005   5.266 -0.2292  0.3271  0.6091
  451MOL0     C60768   6.442  -0.123   5.315 -0.4394 -0.2449 -0.6534
  451MOL0     C60769   6.366  -0.089   5.422  0.3182  0.3072 -0.8067
  451MOL0     C60770   6.274  -0.171   5.516  0.8235 -0.7768 -0.4843
  451MOL0     C60771   6.141  -0.103   5.542  0.7498 -0.2927 -0.3525
  451MOL0     C60772   6.041  -0.189   5.625 -0.7733 -0.0979  0.8859
  451MOL0     C60773   5.911  -0.110   5.652  0.2403 -0.4794  0.5323
  451MOL0     O60774   5.811  -0.135   5.554  0.7985  0.0827  0.5493
  451MOL0     C60775   5.679  -0.118   5.582 -0.3541  0.2401  0.8719
  451MOL0     C60776   5.619  -0.144   5.704 -0.0912 -1.1885 -0.2962
  451MOL0     C60777   5.483  -0.130   5.721  0.2068  0.5929 -0.9683
  451MOL0     C60778   5.427  -0.169   5.858 -0.4931  0.1875  0.5173
  451MOL0     C60779   5.398  -0.100   5.614  0.2063  0.2697  0.6777
  451MOL0     C60780   5.245  -0.093   5.619 -0.4234 -0.3062  0.2076
  451MOL0     O60781   5.166  -0.160   5.707 -0.1168 -0.1187  0.1502
  451MOL0     C60782   5.031  -0.148   5.731  0.8717 -0.8284 -0.3103
  451MOL0     C60783   4.933  -0.129   5.631  0.4377  0.6798  0.1692
  451MOL0     C60784   4.792  -0.114   5.659  0.2879  0.9062  0.6116
  451MOL0     C60785   4.755  -0.131   5.793 -0.6487  1.3027 -1.9966
  451MOL0     O60786   4.621  -0.136   5.828 -0.8875  0.2618  0.3222
  451MOL0     C60787   4.591  -0.176   5.963 -0.2188  0.4751  0.2931
  451MOL0     C60788   4.446  -0.226   5.961  0.1991  0.7026  0.1788
  451MOL0     C60789   4.344  -0.145   5.875  0.4568 -0.1229  0.6794
  451MOL0     C60790   4.197  -0.206   5.883  0.3625 -0.0088 -0.2297
  451MOL0     C60791   4.091  -0.139   5.788 -0.1492  0.1339  0.9735
  451MOL0     C60792   4.071   0.006   5.824 -0.3925  0.2715 -0.5674
  451MOL0     C60793   3.937   0.063   5.778  0.3674  0.0978 -0.6979
  451MOL0     C60794   3.941   0.220   5.792  0.7437  0.0887 -1.2913
  451MOL0    Cl60795   4.052   0.309   5.678  0.0998 -0.3719 -0.0641
  451MOL0     C60796   4.862  -0.141   5.892 -0.2434 -0.4655 -0.6071
  451MOL0     C60797   4.994  -0.143   5.863  0.1429 -0.1863  0.2763
  451MOL0     O60798   5.203  -0.014   5.530 -0.0374  0.6066 -0.0509
  451MOL0     C60799   5.460  -0.069   5.492 -0.3535  0.1251 -0.0937
  451MOL0     C60800   5.598  -0.079   5.479 -1.4019  0.5499 -0.1813
  451MOL0     N60801   6.379   0.049   5.435 -0.1786 -0.5391  0.1277
  451MOL0     N60802   6.462   0.098   5.351 -0.0906  0.4857 -0.5441
  451MOL0     C60803   7.425   0.654   4.582 -0.0188 -0.2128 -0.5647
  451MOL0     C60804   7.559   0.634   4.551 -0.0434 -0.1668 -0.6578
  451MOL0     C60805   7.997   0.568   4.644 -0.1432  0.6692 -0.1864
  451MOL0     C60806   8.107   0.521   4.725  0.5492 -0.9608 -0.5374
  451MOL0     C60807   8.231   0.512   4.663  0.2378  0.1907 -0.7293
  451MOL0     C60808   8.262   0.558   4.540  0.7461  0.7090 -0.9013
  451MOL0     O60809   8.391   0.564   4.489  0.9221  0.5744 -0.0562
  451MOL0     C60810   8.510   0.495   4.552  0.1517  0.1879 -0.1371
  451MOL0     C60811   8.636   0.503   4.459  0.1395  0.5252  0.6668
  451MOL0     C60812   8.749   0.402   4.486  0.1939  0.7807 -0.6652
  451MOL0     C60813   8.877   0.471   4.541  0.5134 -0.3394 -0.0223
  451MOL0     C60814   8.980   0.366   4.556 -0.4865 -0.5543 -0.3279
  451MOL0     C60815   9.076   0.290   4.556 -0.4338 -0.7520 -0.4438
  451MOL0     C60816   8.160   0.606   4.460 -0.0787  0.3180 -0.5771
  451MOL0     C60817   8.027   0.612   4.514 -0.3002  0.7303 -0.3282
  451MOL0     H60818   7.631   0.382   4.765 -0.2710 -0.7103 -0.6743
  451MOL0     H60819   7.405   0.399   4.813  2.2059  1.8703  2.4850
  451MOL0     H60820   7.235   0.565   4.908 -1.2046 -0.0696  1.3511
  451MOL0     H60821   7.085   0.621   4.845  1.6207  2.1900 -1.5843
  451MOL0     H60822   7.075   0.401   4.709  1.0499  0.4103 -0.5495
  451MOL0     H60823   7.197   0.354   4.842 -0.5533  0.3337  0.4470
  451MOL0     H60824   7.005   0.424   4.995 -1.7472  1.1385 -1.9086
  451MOL0     H60825   6.915   0.468   4.865  0.9297  2.4108  1.7234
  451MOL0     H60826   6.880   0.246   4.812  0.9560  0.2636 -0.2136
  451MOL0     H60827   7.016   0.192   4.916  0.1866  0.2897 -1.8215
  451MOL0     H60828   6.862   0.282   5.112  2.3503  1.5012 -1.1815
  451MOL0     H60829   6.754   0.342   4.991 -1.1894 -0.5173  2.3221
  451MOL0     H60830   6.687   0.129   4.907  2.7596  0.6234 -1.5170
  451MOL0     H60831   6.796   0.041   5.015  0.5148  0.2464 -2.3637
  451MOL0     H60832   6.702   0.174   5.207  2.8305 -3.4922  0.1106
  451MOL0     H60833   6.558   0.209   5.098 -1.1236 -2.1458 -0.2216
  451MOL0     H60834   6.666  -0.065   5.150  1.0852  0.4393 -0.8620
  451MOL0     H60835   6.525  -0.025   5.057  1.9026  0.1941 -0.4179
  451MOL0     H60836   6.450  -0.224   5.277 -1.9548 -1.6592  2.3570
  451MOL0     H60837   6.266  -0.269   5.470  0.1175 -1.3366  0.7654
  451MOL0     H60838   6.314  -0.187   5.617 -0.6377  0.8415  0.4308
  451MOL0     H60839   6.090  -0.082   5.448  0.0234  0.9590  0.3066
  451MOL0     H60840   6.166  -0.010   5.594  3.2317 -1.3292  0.4843
  451MOL0     H60841   6.094  -0.205   5.719 -1.8112 -0.2866  1.4488
  451MOL0     H60842   6.027  -0.287   5.579 -1.1734  0.8548 -1.1759
  451MOL0     H60843   5.933  -0.004   5.642  0.4949 -0.6881 -1.5993
  451MOL0     H60844   5.886  -0.126   5.757 -0.8359  2.4514  0.8150
  451MOL0     H60845   5.682  -0.183   5.783 -0.5165  1.3459  1.4200
  451MOL0     H60846   5.350  -0.101   5.894  0.1314  0.9011  0.5352
  451MOL0     H60847   5.379  -0.267   5.851 -2.2354  0.9845  0.7329
  451MOL0     H60848   5.502  -0.180   5.937 -1.0753 -1.5541  0.8796
  451MOL0     H60849   4.961  -0.130   5.526 -2.8442  3.9769 -0.9831
  451MOL0     H60850   4.709  -0.100   5.590 -0.2659 -3.5961  0.0288
  451MOL0     H60851   4.648  -0.265   5.992  1.6761  1.7702  0.7027
  451MOL0     H60852   4.618  -0.094   6.030  1.8058  1.3715 -1.4817
  451MOL0     H60853   4.446  -0.332   5.932  0.1045  0.7814 -0.1097
  451MOL0     H60854   4.412  -0.220   6.065  0.3672 -1.1639  0.3898
  451MOL0     H60855   4.375  -0.130   5.771 -1.3601  3.9541  0.5458
  451MOL0     H60856   4.338  -0.046   5.921 -1.1430 -0.4932  1.3132
  451MOL0     H60857   4.209  -0.307   5.845  0.5915 -0.7486  1.7062
  451MOL0     H60858   4.155  -0.204   5.984  0.9746  1.7232  0.0309
  451MOL0     H60859   3.998  -0.197   5.798  0.2449 -0.3473  1.9654
  451MOL0     H60860   4.134  -0.150   5.688 -0.0041  0.1134  1.0393
  451MOL0     H60861   4.082   0.017   5.932 -0.9410  5.1137 -0.7753
  451MOL0     H60862   4.157   0.065   5.789  1.3717  0.0731  2.9835
  451MOL0     H60863   3.867   0.004   5.838  1.8712 -1.2462 -0.2135
  451MOL0     H60864   3.915   0.041   5.673  0.7775 -0.1331 -0.7370
  451MOL0     H60865   3.977   0.245   5.893  0.4596 -2.1309 -0.5986
  451MOL0     H60866   3.840   0.262   5.787  0.7390  0.4014  0.6537
  451MOL0     H60867   4.842  -0.133   5.999  1.3769 -2.7583 -0.0520
  451MOL0     H60868   5.075  -0.145   5.936  1.5342 -0.1857 -1.1950
  451MOL0     H60869   5.405  -0.041   5.403  0.4447  0.0820 -0.6180
  451MOL0     H60870   5.636  -0.064   5.379 -3.1614  1.4691 -0.7512
  451MOL0     H60871   7.354   0.720   4.534 -1.7705 -1.5922  0.0500
  451MOL0     H60872   7.601   0.697   4.473 -0.6713  1.3756  0.2097
  451MOL0     H60873   8.104   0.472   4.822 -0.5019 -1.3202 -0.7431
  451MOL0     H60874   8.313   0.460   4.712  1.5183  2.8938  0.2120
  451MOL0     H60875   8.545   0.539   4.646  2.1579 -0.2019 -0.6444
  451MOL0     H60876   8.488   0.391   4.579  2.5772 -0.5982 -0.9569
  451MOL0     H60877   8.663   0.608   4.450 -1.9795  1.0203 -0.6883
  451MOL0     H60878   8.598   0.468   4.362  2.9246  0.4833 -0.5023
  451MOL0     H60879   8.764   0.336   4.400 -0.6568  1.5141 -1.4011
  451MOL0     H60880   8.717   0.326   4.558 -1.3363  0.1758 -1.9364
  451MOL0     H60881   8.852   0.516   4.638  0.3663 -1.1927  0.3465
  451MOL0     H60882   8.913   0.546   4.470  0.3198 -1.6498 -1.5681
  451MOL0     H60883   9.148   0.210   4.563 -0.0270 -0.2811  1.2210
  451MOL0     H60884   8.178   0.644   4.360  1.1422 -0.5352 -0.7122
  451MOL0     H60885   7.949   0.636   4.442 -1.7674 -3.3705 -0.4014
  452MOL0     O60886   8.142   2.343   5.931 -0.4524  0.3366 -0.2286
  452MOL0     C60887   8.234   2.375   5.856 -0.2149  0.4750 -0.8570
  452MOL0     O60888   8.218   2.441   5.744 -0.3874  0.0182 -0.4159
  452MOL0     C60889   8.107   2.514   5.715  1.0750  0.3164  0.7032
  452MOL0     C60890   7.968   2.479   5.742 -0.4753  0.5528 -0.5530
  452MOL0     C60891   7.864   2.554   5.708 -0.0328 -0.6233  0.4421
  452MOL0     C60892   7.886   2.672   5.630 -0.0095  0.0978  0.0904
  452MOL0     O60893   7.777   2.750   5.588  0.2298  0.1859 -0.8014
  452MOL0     C60894   7.692   2.795   5.689 -0.5684 -0.2164 -0.7707
  452MOL0     C60895   7.648   2.935   5.656 -0.7324 -0.3469  0.3774
  452MOL0     C60896   7.523   2.969   5.734 -0.2455  0.3373 -0.6079
  452MOL0     C60897   7.489   3.113   5.708 -0.4119  0.1505 -0.4373
  452MOL0     C60898   7.363   3.158   5.774 -0.3207 -0.5438 -0.3388
  452MOL0     C60899   7.234   3.108   5.719  0.4032  0.7689 -0.1950
  452MOL0     C60900   7.114   3.182   5.780  1.0012  0.4275 -0.5780
  452MOL0     C60901   6.986   3.124   5.720  0.2439  0.0683 -0.2705
  452MOL0     N60902   6.891   3.236   5.711  0.5805  0.1065 -0.5513
  452MOL0     C60903   6.838   3.284   5.598  0.3958  0.1531  0.4167
  452MOL0     C60904   6.738   3.368   5.645 -0.4820  0.2078 -0.6097
  452MOL0     C60905   6.664   3.468   5.558 -1.3364 -0.6366  0.2301
  452MOL0     C60906   6.613   3.414   5.426  0.4133  0.5336  0.1933
  452MOL0     C60907   6.508   3.293   5.458  0.1308 -0.0012  0.0765
  452MOL0     C60908   6.405   3.269   5.343  0.1461 -0.2122  0.5145
  452MOL0     O60909   6.324   3.154   5.376  0.0941 -0.2740 -0.3258
  452MOL0     C60910   6.201   3.135   5.315 -0.6147 -0.8743 -0.3687
  452MOL0     C60911   6.120   3.034   5.363 -0.4346  0.1738 -0.0043
  452MOL0     C60912   5.994   3.002   5.312  0.5768  0.4198 -0.1641
  452MOL0     C60913   5.924   2.896   5.390  0.3655  0.0978 -0.2671
  452MOL0     C60914   5.944   3.087   5.212 -0.5926  0.1407 -0.1515
  452MOL0     C60915   5.798   3.077   5.164  0.1912 -0.7957  0.3713
  452MOL0     O60916   5.701   3.023   5.247 -0.0196  0.3513 -0.3426
  452MOL0     C60917   5.575   3.073   5.219 -0.3125 -0.3698 -0.1265
  452MOL0     C60918   5.544   3.202   5.250 -0.0973  0.2422  0.2576
  452MOL0     C60919   5.420   3.255   5.213  0.5110 -0.2010  0.1014
  452MOL0     C60920   5.319   3.172   5.158  0.2064  0.3962 -0.6973
  452MOL0     O60921   5.192   3.231   5.149 -0.0424 -0.2665  0.3000
  452MOL0     C60922   5.088   3.130   5.134  0.3736  0.1433  0.5272
  452MOL0     C60923   4.946   3.190   5.162  0.5992 -0.2223  0.3808
  452MOL0     C60924   4.880   3.254   5.038  0.3442  0.1949  1.1135
  452MOL0     C60925   4.739   3.304   5.054  0.3549 -0.0933  1.0077
  452MOL0     C60926   4.711   3.407   4.938 -0.7939 -0.0081  0.8376
  452MOL0     C60927   4.560   3.457   4.916 -1.7315 -0.0782 -0.0477
  452MOL0     C60928   4.453   3.350   4.920 -0.6216  0.0287 -0.1289
  452MOL0     C60929   4.491   3.244   4.820 -0.7960 -0.3924 -0.2019
  452MOL0    Cl60930   4.367   3.137   4.759 -0.1423 -0.0430 -0.1164
  452MOL0     C60931   5.358   3.041   5.121  0.7076 -0.3596  0.4896
  452MOL0     C60932   5.482   2.991   5.159 -0.7937  0.7598 -0.5494
  452MOL0     O60933   5.775   3.114   5.046  0.2403 -0.5568 -0.6070
  452MOL0     C60934   6.027   3.182   5.155 -0.9913 -0.5240 -0.2812
  452MOL0     C60935   6.157   3.201   5.200  0.5469  0.5412  0.4810
  452MOL0     N60936   6.733   3.372   5.785 -0.2085  0.0423 -0.6289
  452MOL0     N60937   6.826   3.287   5.822 -0.8369 -0.0811 -0.0249
  452MOL0     C60938   8.018   2.711   5.599  0.5783  0.2069  0.0831
  452MOL0     C60939   8.129   2.631   5.639  0.3251 -0.6978 -0.0331
  452MOL0     C60940   8.366   2.346   5.906  0.1030  0.3378 -0.5453
  452MOL0     C60941   8.481   2.417   5.862  0.9146  0.7831  0.3785
  452MOL0     C60942   8.602   2.389   5.906 -0.6113 -0.7381  0.4563
  452MOL0     C60943   8.624   2.295   6.005  0.4827 -0.3295  0.1831
  452MOL0     O60944   8.763   2.270   6.031  0.3744 -0.6773 -0.5682
  452MOL0     C60945   8.804   2.173   6.127  0.0148  0.3073 -0.0341
  452MOL0     C60946   8.960   2.159   6.143  0.1092  0.4224 -0.0680
  452MOL0     C60947   9.023   2.291   6.177  0.5466 -0.0841  0.1010
  452MOL0     C60948   9.184   2.288   6.168  0.5291 -0.2845 -0.3083
  452MOL0     C60949   9.235   2.222   6.288 -0.8986 -0.3477 -0.1428
  452MOL0     C60950   9.275   2.174   6.393 -1.0877 -0.0836  0.4918
  452MOL0     C60951   8.519   2.224   6.061  0.6236 -0.6264 -0.3262
  452MOL0     C60952   8.388   2.257   6.007 -0.3950 -0.4312 -0.4093
  452MOL0     H60953   7.937   2.386   5.789 -0.8087 -0.2640 -2.3443
  452MOL0     H60954   7.760   2.531   5.725  0.3604 -0.7794  3.1516
  452MOL0     H60955   7.605   2.728   5.681  0.7373 -2.4001  1.6793
  452MOL0     H60956   7.739   2.791   5.787  0.6532  1.4360 -1.2545
  452MOL0     H60957   7.732   2.999   5.683 -0.3271 -0.8201  0.2507
  452MOL0     H60958   7.630   2.937   5.549  0.9783 -0.5606  0.0640
  452MOL0     H60959   7.443   2.900   5.707  0.6833 -1.0693  0.0884
  452MOL0     H60960   7.542   2.953   5.841  0.8457 -2.9234 -1.1673
  452MOL0     H60961   7.576   3.173   5.739  0.5303 -0.3324 -2.0317
  452MOL0     H60962   7.495   3.136   5.601  1.5212  1.1141 -0.1705
  452MOL0     H60963   7.370   3.121   5.877  1.6815  2.3191  0.6715
  452MOL0     H60964   7.353   3.267   5.777 -4.1157 -0.7607  0.7977
  452MOL0     H60965   7.239   3.131   5.612  1.8741 -1.7557 -0.7516
  452MOL0     H60966   7.227   3.000   5.728  0.0710  0.4735 -2.9875
  452MOL0     H60967   7.097   3.160   5.886 -1.2290 -4.1833 -1.6369
  452MOL0     H60968   7.128   3.289   5.763  0.7569  0.5928  0.2179
  452MOL0     H60969   6.947   3.052   5.792 -3.0595  2.1238  0.2339
  452MOL0     H60970   6.991   3.079   5.621  0.1679 -0.5206 -0.0083
  452MOL0     H60971   6.876   3.275   5.497  2.6490 -0.5635  1.2489
  452MOL0     H60972   6.579   3.505   5.616 -1.0247  1.2849 -0.4554
  452MOL0     H60973   6.732   3.554   5.551  0.1841 -1.5730  2.2781
  452MOL0     H60974   6.698   3.374   5.370  1.0023  1.6686  0.2498
  452MOL0     H60975   6.549   3.485   5.372 -1.3446 -0.3796  0.9851
  452MOL0     H60976   6.452   3.315   5.549 -0.1276  1.2969 -0.3694
  452MOL0     H60977   6.564   3.202   5.482 -0.2814  0.3276  2.4890
  452MOL0     H60978   6.456   3.251   5.248 -1.7728 -2.3054 -0.2227
  452MOL0     H60979   6.344   3.359   5.333 -0.3706 -0.4680  1.2534
  452MOL0     H60980   6.143   2.981   5.455 -3.8373 -2.2837 -0.3603
  452MOL0     H60981   5.852   2.842   5.328 -1.0198  0.8587  0.6167
  452MOL0     H60982   5.990   2.817   5.427  0.3277 -0.2282 -0.8909
  452MOL0     H60983   5.887   2.940   5.483  3.1333 -1.2120  1.5917
  452MOL0     H60984   5.616   3.266   5.301 -1.0514 -1.5938  4.2676
  452MOL0     H60985   5.392   3.359   5.227 -1.8877 -0.9533  1.4825
  452MOL0     H60986   5.088   3.081   5.036 -0.6765 -0.8522  1.0155
  452MOL0     H60987   5.109   3.045   5.200  1.8805 -0.0285 -0.1347
  452MOL0     H60988   4.886   3.104   5.192  1.6302 -0.7829  0.8938
  452MOL0     H60989   4.954   3.254   5.251  0.0851 -0.8620  0.8961
  452MOL0     H60990   4.878   3.184   4.954  3.0535 -1.3149  2.2020
  452MOL0     H60991   4.940   3.338   5.003 -0.7548 -0.6452 -3.6148
  452MOL0     H60992   4.667   3.221   5.049 -0.6428  0.8096 -1.6646
  452MOL0     H60993   4.721   3.355   5.149 -0.8529 -0.8832  1.2325
  452MOL0     H60994   4.740   3.378   4.837 -1.8356 -1.1700  0.8433
  452MOL0     H60995   4.761   3.501   4.963 -1.6058  0.9092 -0.8078
  452MOL0     H60996   4.542   3.525   4.999  0.9070 -1.0641  1.4437
  452MOL0     H60997   4.559   3.524   4.829  1.2813 -0.1966 -0.2659
  452MOL0     H60998   4.360   3.400   4.891 -1.2024  0.3608  2.0953
  452MOL0     H60999   4.443   3.298   5.016 -1.5676 -1.9955 -1.2517
  452MOL0     H61000   4.574   3.185   4.860 -1.0423 -1.0868 -0.6918
  452MOL0     H61001   4.555   3.290   4.744  1.8981 -3.1730  0.2015
  452MOL0     H61002   5.281   2.981   5.074 -0.3018 -1.7782  3.6359
  452MOL0     H61003   5.519   2.893   5.133  0.7275  0.8798  0.9539
  452MOL0     H61004   5.983   3.246   5.078 -2.9030  0.6009  1.6227
  452MOL0     H61005   6.208   3.288   5.159 -0.7428  0.7285 -0.8351
  452MOL0     H61006   8.035   2.805   5.548 -0.1700 -0.2556 -1.0477
  452MOL0     H61007   8.232   2.652   5.611  1.0317 -2.6754  0.8963
  452MOL0     H61008   8.471   2.491   5.784 -2.3028 -1.7705 -1.9699
  452MOL0     H61009   8.688   2.445   5.870 -1.3830 -1.0496 -2.0711
  452MOL0     H61010   8.774   2.207   6.226  3.2306 -4.1305  2.8785
  452MOL0     H61011   8.754   2.076   6.115  1.1511 -0.3941  0.6921
  452MOL0     H61012   8.995   2.107   6.054 -0.2413  0.7045 -0.3729
  452MOL0     H61013   8.982   2.087   6.222  2.2513  0.8308 -0.2349
  452MOL0     H61014   8.976   2.328   6.269  2.2884  1.2806  0.4957
  452MOL0     H61015   8.989   2.367   6.106  0.2155  0.0736  0.4209
  452MOL0     H61016   9.221   2.391   6.166  1.7596 -0.6906  0.3461
  452MOL0     H61017   9.216   2.238   6.076  1.6066  1.9473 -1.2126
  452MOL0     H61018   9.321   2.137   6.482  0.4054 -0.8809 -0.5640
  452MOL0     H61019   8.523   2.144   6.135 -1.8992 -3.1362 -2.6371
  452MOL0     H61020   8.312   2.193   6.052 -1.2686 -0.7821 -2.3140
  453MOL0     O61021   5.645   6.243   0.037 -0.0355  0.1495 -0.1996
  453MOL0     C61022   5.712   6.157   0.082 -0.9370  0.0409 -0.8495
  453MOL0     O61023   5.674   6.047   0.157 -0.3791  0.7718  1.2638
  453MOL0     C61024   5.553   6.046   0.216  0.0875 -0.1423  0.8620
  453MOL0     C61025   5.481   5.929   0.228  0.5423 -0.9333  0.3351
  453MOL0     C61026   5.354   5.922   0.291  0.0227 -0.3569  0.4098
  453MOL0     C61027   5.304   6.039   0.348  1.0516  1.2584  0.0691
  453MOL0     O61028   5.174   6.021   0.408  0.0462 -0.2837 -0.3080
  453MOL0     C61029   5.072   6.124   0.396 -0.6532 -0.3547 -0.4591
  453MOL0     C61030   4.938   6.084   0.333 -0.0985  0.3856  0.4625
  453MOL0     C61031   4.849   5.997   0.425  0.9829  0.3121  0.2686
  453MOL0     C61032   4.742   6.083   0.493  0.7711  0.5088 -0.4295
  453MOL0     C61033   4.642   5.997   0.576 -0.1170  0.8971  0.2582
  453MOL0     C61034   4.538   5.917   0.492 -0.4271  0.3548 -0.2289
  453MOL0     C61035   4.471   5.986   0.361 -0.1362 -0.6200  0.7015
  453MOL0     C61036   4.343   5.919   0.316 -0.3156 -0.0149 -0.9101
  453MOL0     N61037   4.232   5.913   0.411 -0.2335 -0.5152  0.4238
  453MOL0     C61038   4.220   5.818   0.507  0.2682 -0.1015 -0.2359
  453MOL0     C61039   4.092   5.846   0.556  0.6796  0.1098 -0.0499
  453MOL0     C61040   4.017   5.760   0.653  0.8275  0.4989 -0.4702
  453MOL0     C61041   3.866   5.734   0.634  0.4705  0.4940  0.7838
  453MOL0     C61042   3.810   5.651   0.746 -0.2990  0.3396  0.3530
  453MOL0     C61043   3.659   5.603   0.714 -0.0675  0.2642  1.0885
  453MOL0     O61044   3.589   5.728   0.695  0.3988  0.3714  0.0357
  453MOL0     C61045   3.456   5.731   0.736 -1.1721  0.3562  0.0871
  453MOL0     C61046   3.380   5.613   0.754 -0.3562 -0.6260  0.6344
  453MOL0     C61047   3.243   5.619   0.786 -1.0807 -1.0240 -0.9140
  453MOL0     C61048   3.181   5.486   0.786  0.0191 -0.5145  0.0617
  453MOL0     C61049   3.185   5.750   0.792 -0.3436  0.3666 -0.8968
  453MOL0     C61050   3.041   5.766   0.820  0.0273  0.3389  0.6043
  453MOL0     O61051   3.002   5.885   0.875 -0.2177 -0.0611  0.2848
  453MOL0     C61052   2.870   5.893   0.918  0.6083 -0.4970 -0.0763
  453MOL0     C61053   2.803   5.792   0.989  0.3788 -0.1821 -0.0345
  453MOL0     C61054   2.668   5.817   1.024 -0.0339  0.0227 -0.1721
  453MOL0     C61055   2.601   5.936   1.000 -0.2846  0.1021  0.0694
  453MOL0     O61056   2.474   5.976   1.041  0.4838 -0.0620 -0.4936
  453MOL0     C61057   2.418   5.919   1.154  0.7550  0.7524  0.2775
  453MOL0     C61058   2.302   6.000   1.196 -0.4623  0.3594  0.0915
  453MOL0     C61059   2.205   6.029   1.080  0.2429  0.0591 -0.0539
  453MOL0     C61060   2.067   6.074   1.130 -0.2664  0.6931 -0.3986
  453MOL0     C61061   1.976   5.951   1.148  0.2625 -0.1309  0.2449
  453MOL0     C61062   1.839   5.987   1.201  0.4070 -0.4516  0.0215
  453MOL0     C61063   1.753   5.864   1.230  0.8034 -0.1241  0.1006
  453MOL0     C61064   1.607   5.913   1.245 -0.4399 -0.1115 -0.1833
  453MOL0    Cl61065   1.584   6.017   1.392 -0.0980  0.4564 -0.5660
  453MOL0     C61066   2.675   6.037   0.929  0.2736 -0.2011 -0.3204
  453MOL0     C61067   2.804   6.012   0.883 -0.8859 -0.1835 -0.7311
  453MOL0     O61068   2.966   5.678   0.778  0.1484 -0.8580 -0.5434
  453MOL0     C61069   3.273   5.865   0.784  0.4197  0.1369  0.3780
  453MOL0     C61070   3.405   5.856   0.754  0.3575  0.8870  0.3964
  453MOL0     N61071   4.040   5.967   0.504 -0.0003  0.5916 -0.3755
  453MOL0     N61072   4.129   6.004   0.413 -0.2244 -0.0215 -0.2635
  453MOL0     C61073   5.376   6.154   0.350  0.4660  0.1057  0.5468
  453MOL0     C61074   5.498   6.158   0.279  0.0779  0.0820  0.1861
  453MOL0     C61075   5.859   6.157   0.046  0.4699 -0.5189  0.2423
  453MOL0     C61076   5.947   6.051   0.082  0.1041 -0.0784 -0.3769
  453MOL0     C61077   6.077   6.066   0.037 -0.2047  0.0919 -0.6394
  453MOL0     C61078   6.126   6.179  -0.024 -0.1467 -1.0876 -0.5150
  453MOL0     O61079   6.254   6.195  -0.062  0.8413 -0.1046 -0.0074
  453MOL0     C61080   6.318   6.073  -0.092  0.2686 -0.0231  0.3268
  453MOL0     C61081   6.456   6.097  -0.150  0.1356  0.4882 -0.3384
  453MOL0     C61082   6.448   6.175  -0.284 -0.0982  0.2077 -0.5394
  453MOL0     C61083   6.592   6.203  -0.336 -0.8248  0.6740  0.6631
  453MOL0     C61084   6.603   6.262  -0.465  0.9462 -0.6707  0.5258
  453MOL0     C61085   6.595   6.334  -0.564  0.6140  0.5288 -0.3745
  453MOL0     C61086   6.039   6.281  -0.061  0.2319  0.1014 -0.1802
  453MOL0     C61087   5.903   6.261  -0.039  0.2251  0.5405 -0.0313
  453MOL0     H61088   5.516   5.843   0.172  0.2304 -0.9066  0.0933
  453MOL0     H61089   5.297   5.830   0.286  0.9807 -1.0635  1.8293
  453MOL0     H61090   5.055   6.169   0.494  1.1495 -1.5423  0.4496
  453MOL0     H61091   5.113   6.205   0.335  1.5035 -0.3023  0.9661
  453MOL0     H61092   4.892   6.179   0.302  2.2284  0.8452 -1.9789
  453MOL0     H61093   4.951   6.024   0.242 -0.2158  1.5059 -0.3210
  453MOL0     H61094   4.792   5.936   0.354 -1.1970  2.1335  0.3478
  453MOL0     H61095   4.911   5.942   0.496  1.3022  2.8396  2.0662
  453MOL0     H61096   4.788   6.152   0.564 -0.0743 -1.0530  1.7218
  453MOL0     H61097   4.682   6.139   0.420 -0.7800 -2.0677 -1.2540
  453MOL0     H61098   4.691   5.920   0.637 -0.9316  0.4950  0.4234
  453MOL0     H61099   4.584   6.062   0.643 -0.2778  1.0832 -0.0585
  453MOL0     H61100   4.586   5.823   0.465  0.2866  0.6397  0.0282
  453MOL0     H61101   4.464   5.887   0.566  1.3129 -0.6480  1.1948
  453MOL0     H61102   4.457   6.092   0.386  1.5062 -0.3450  0.5701
  453MOL0     H61103   4.546   5.988   0.282 -0.9605  1.2027 -0.1055
  453MOL0     H61104   4.372   5.817   0.290  0.8874  0.0428  0.1384
  453MOL0     H61105   4.309   5.968   0.224 -0.6551  0.0917 -0.7288
  453MOL0     H61106   4.271   5.723   0.504 -0.0169 -0.2332 -2.8848
  453MOL0     H61107   4.067   5.664   0.640  2.6472  0.7695  3.2324
  453MOL0     H61108   4.026   5.796   0.756  2.2450 -1.0058 -0.0364
  453MOL0     H61109   3.860   5.675   0.542  1.7298 -0.8862  1.5420
  453MOL0     H61110   3.808   5.826   0.643  0.9653  0.6744  2.5924
  453MOL0     H61111   3.809   5.711   0.837  0.6669  1.2680 -0.2212
  453MOL0     H61112   3.876   5.565   0.762 -2.7206 -1.5180  0.9818
  453MOL0     H61113   3.614   5.552   0.800 -1.8249  0.3257  0.2419
  453MOL0     H61114   3.648   5.527   0.636  2.5196  0.6170  0.2537
  453MOL0     H61115   3.418   5.514   0.729  2.7916  0.7104 -0.3066
  453MOL0     H61116   3.106   5.476   0.865 -0.1618  0.3526  0.0035
  453MOL0     H61117   3.131   5.476   0.690  1.1860 -0.1984 -0.5942
  453MOL0     H61118   3.256   5.408   0.804  2.1303  1.0233 -1.5029
  453MOL0     H61119   2.857   5.703   1.019 -2.4257 -1.7201  0.8399
  453MOL0     H61120   2.620   5.734   1.076  2.5249 -2.0243 -0.8271
  453MOL0     H61121   2.383   5.819   1.125 -1.0645  1.6843 -0.9186
  453MOL0     H61122   2.497   5.907   1.230  2.4272 -0.6515 -1.5464
  453MOL0     H61123   2.251   5.949   1.277 -0.2067 -0.2624 -0.1373
  453MOL0     H61124   2.336   6.094   1.240  0.1918  0.1428  0.0677
  453MOL0     H61125   2.203   5.934   1.024  1.7896  0.4673 -0.8650
  453MOL0     H61126   2.247   6.112   1.022 -0.5057  0.4255 -0.0850
  453MOL0     H61127   2.080   6.129   1.224  0.1483  0.4262 -0.2962
  453MOL0     H61128   2.026   6.140   1.053 -1.5182 -0.3747 -0.6808
  453MOL0     H61129   2.024   5.893   1.227  0.7433 -0.1057 -0.0265
  453MOL0     H61130   1.966   5.908   1.048  1.4146  3.0983 -1.4049
  453MOL0     H61131   1.841   6.057   1.285 -2.0714 -0.0442 -0.1738
  453MOL0     H61132   1.790   6.051   1.126  0.3315  0.4126  0.7902
  453MOL0     H61133   1.786   5.817   1.323 -0.4381 -1.0055  0.1241
  453MOL0     H61134   1.761   5.794   1.147  0.4531 -0.2984  0.2101
  453MOL0     H61135   1.536   5.830   1.253 -0.8543  0.3622  1.6531
  453MOL0     H61136   1.569   5.983   1.170 -2.4055 -0.2682  0.5878
  453MOL0     H61137   2.622   6.131   0.914 -0.9763 -0.6877  0.8337
  453MOL0     H61138   2.847   6.094   0.826 -2.4577  2.1700  1.2228
  453MOL0     H61139   3.241   5.968   0.794  3.0206  1.3914 -2.7903
  453MOL0     H61140   3.470   5.942   0.743  0.3493  0.6434 -2.1731
  453MOL0     H61141   5.341   6.245   0.398  1.6163  0.5188  0.6431
  453MOL0     H61142   5.555   6.251   0.285  0.3315 -0.1571  3.9408
  453MOL0     H61143   5.924   5.961   0.138  3.0424  0.1540  1.4005
  453MOL0     H61144   6.130   5.976   0.067 -2.6899 -0.4815  2.6761
  453MOL0     H61145   6.335   6.007  -0.007  0.7521  0.3827  0.5451
  453MOL0     H61146   6.260   6.020  -0.169 -0.1589  0.2564  0.4556
  453MOL0     H61147   6.504   6.001  -0.168 -0.2131 -0.2074  2.1092
  453MOL0     H61148   6.529   6.146  -0.085  3.4333 -0.6798 -2.8700
  453MOL0     H61149   6.399   6.273  -0.279  1.7260  1.1192  1.3418
  453MOL0     H61150   6.401   6.105  -0.353  1.2078 -0.5485 -0.7015
  453MOL0     H61151   6.642   6.108  -0.356 -1.3644  0.9244 -2.5127
  453MOL0     H61152   6.642   6.266  -0.262 -0.6662  1.5412 -0.1646
  453MOL0     H61153   6.581   6.397  -0.649  1.6964  0.3045 -0.7339
  453MOL0     H61154   6.074   6.373  -0.109  1.9118 -1.0104 -1.1913
  453MOL0     H61155   5.834   6.338  -0.073 -1.3136 -0.5806  0.4822
  454MOL0     O61156   0.251   7.385   2.803  0.1425  0.2495 -0.4738
  454MOL0     C61157   0.252   7.396   2.678 -0.8169  0.4683  0.4876
  454MOL0     O61158   0.134   7.399   2.600 -0.4088 -0.0771 -0.8463
  454MOL0     C61159   0.013   7.385   2.652 -0.7612 -0.0683 -0.7147
  454MOL0     C61160  -0.093   7.439   2.580 -0.7466  0.3495  0.0125
  454MOL0     C61161  -0.228   7.417   2.626 -0.4300  1.1089 -0.0472
  454MOL0     C61162  -0.253   7.323   2.738 -0.0314  0.6212  0.4542
  454MOL0     O61163  -0.378   7.296   2.784 -0.1957 -0.0908 -0.0616
  454MOL0     C61164  -0.481   7.379   2.739 -0.1500 -0.5784  0.4822
  454MOL0     C61165  -0.607   7.333   2.817 -0.2896 -0.7666  0.4518
  454MOL0     C61166  -0.710   7.442   2.811 -0.2083  0.3747  0.6592
  454MOL0     C61167  -0.837   7.406   2.896 -0.3309 -0.0885  1.2299
  454MOL0     C61168  -0.907   7.283   2.843  0.0538  0.0296  0.6309
  454MOL0     C61169  -1.052   7.298   2.880 -0.8990  0.8217 -0.0762
  454MOL0     C61170  -1.105   7.153   2.842  0.3691  0.5955  0.0909
  454MOL0     C61171  -1.255   7.159   2.872  0.2241  0.5421  0.0073
  454MOL0     N61172  -1.318   7.032   2.832 -0.3644 -0.0771  1.4408
  454MOL0     C61173  -1.320   6.974   2.704  0.0857  0.6181  0.0021
  454MOL0     C61174  -1.383   6.856   2.726  0.1920  0.9335 -0.3494
  454MOL0     C61175  -1.415   6.741   2.634 -0.1194  0.2203 -0.4721
  454MOL0     C61176  -1.462   6.776   2.495 -0.1190 -0.2062  0.6073
  454MOL0     C61177  -1.581   6.867   2.488 -0.0905  0.2033  0.1170
  454MOL0     C61178  -1.712   6.809   2.540  0.0960 -0.7374 -0.2120
  454MOL0     O61179  -1.818   6.901   2.535  1.1159  0.2108  0.6654
  454MOL0     C61180  -1.952   6.854   2.519  0.5166 -0.5770 -0.2312
  454MOL0     C61181  -1.993   6.736   2.577  0.4874  0.5677 -0.1708
  454MOL0     C61182  -2.116   6.677   2.550  0.0451 -0.5843  0.0352
  454MOL0     C61183  -2.141   6.539   2.610  0.0814 -0.6010  0.1787
  454MOL0     C61184  -2.209   6.742   2.464  0.1728 -0.2956  0.0544
  454MOL0     C61185  -2.344   6.691   2.427 -0.2544  0.8968  0.1656
  454MOL0     O61186  -2.409   6.770   2.344  0.4277 -0.1329 -0.2489
  454MOL0     C61187  -2.544   6.758   2.331  0.1593 -0.4407  0.7714
  454MOL0     C61188  -2.627   6.873   2.337  0.5502  0.1035 -0.4519
  454MOL0     C61189  -2.762   6.859   2.302  0.5891  0.6859 -1.4758
  454MOL0     C61190  -2.818   6.736   2.269 -0.6403  0.7070  0.5894
  454MOL0     O61191  -2.946   6.718   2.227  0.4811 -0.9309  0.6611
  454MOL0     C61192  -3.006   6.835   2.181  0.1585 -0.3402  0.6595
  454MOL0     C61193  -3.112   6.796   2.081  0.7767  0.5519  0.2054
  454MOL0     C61194  -3.242   6.744   2.150  0.7435 -0.0713 -0.7090
  454MOL0     C61195  -3.240   6.590   2.175 -0.0079  0.0531 -0.6079
  454MOL0     C61196  -3.323   6.568   2.299  0.0294 -0.2748 -0.3788
  454MOL0     C61197  -3.466   6.572   2.274  1.0431  0.3404  0.2819
  454MOL0     C61198  -3.556   6.548   2.401  0.7737  0.5918 -0.4843
  454MOL0     C61199  -3.494   6.584   2.533  0.1098  0.3113  0.5685
  454MOL0    Cl61200  -3.626   6.563   2.664 -0.0830 -0.0634  0.3623
  454MOL0     C61201  -2.734   6.618   2.278  0.5930  0.0212  0.5253
  454MOL0     C61202  -2.597   6.631   2.300  0.9779  0.0181  1.0426
  454MOL0     O61203  -2.388   6.578   2.468 -0.5637 -0.2732  0.3567
  454MOL0     C61204  -2.167   6.865   2.410  0.2196  0.2016  0.2608
  454MOL0     C61205  -2.043   6.924   2.443 -0.3251 -0.0983  1.2135
  454MOL0     N61206  -1.416   6.845   2.860  0.2035 -0.3669  0.5502
  454MOL0     N61207  -1.370   6.940   2.927 -0.2859 -0.9716  0.2262
  454MOL0     C61208  -0.147   7.270   2.800 -0.3996 -0.2619 -0.6377
  454MOL0     C61209  -0.019   7.308   2.763  0.1634 -0.7356 -0.3042
  454MOL0     C61210   0.376   7.403   2.602 -0.2352  0.5305  0.6679
  454MOL0     C61211   0.504   7.385   2.653  0.6332 -0.0260 -0.6251
  454MOL0     C61212   0.619   7.397   2.576 -0.0025  0.0988 -0.4559
  454MOL0     C61213   0.617   7.429   2.440  0.0357 -0.1041 -0.3573
  454MOL0     O61214   0.739   7.440   2.376 -0.5101 -0.1636  0.3296
  454MOL0     C61215   0.743   7.481   2.240  0.2859  0.3112 -0.2860
  454MOL0     C61216   0.895   7.495   2.207 -0.3693 -0.8125 -0.0756
  454MOL0     C61217   0.907   7.533   2.058 -0.1980 -0.1916 -0.3343
  454MOL0     C61218   0.973   7.423   1.975 -0.4824 -0.6513  1.0064
  454MOL0     C61219   0.882   7.315   1.919 -0.3027 -0.0301 -0.0754
  454MOL0     C61220   0.805   7.233   1.870 -1.0275  0.6399  0.6215
  454MOL0     C61221   0.488   7.454   2.387 -1.1192  0.5110 -0.3623
  454MOL0     C61222   0.375   7.451   2.468  0.3373  1.2133 -0.3648
  454MOL0     H61223  -0.067   7.499   2.494 -1.3345  0.6507  0.0401
  454MOL0     H61224  -0.301   7.476   2.571  2.0864  4.1494 -0.4115
  454MOL0     H61225  -0.460   7.484   2.758 -1.6471  0.2721 -2.0991
  454MOL0     H61226  -0.488   7.369   2.631 -0.2340 -2.0233  0.5994
  454MOL0     H61227  -0.628   7.235   2.772  2.2939 -0.6751 -1.2126
  454MOL0     H61228  -0.573   7.311   2.919 -1.2486 -2.3902  0.4571
  454MOL0     H61229  -0.666   7.537   2.840  0.9236 -0.1779  0.8116
  454MOL0     H61230  -0.740   7.450   2.706 -1.3889 -1.1987  0.8361
  454MOL0     H61231  -0.813   7.377   2.999  0.3375 -0.0110  1.1015
  454MOL0     H61232  -0.894   7.498   2.887  0.0488  0.0176 -0.4058
  454MOL0     H61233  -0.899   7.266   2.736  2.3601  0.0972  0.7279
  454MOL0     H61234  -0.858   7.195   2.887  0.1476  0.1547  0.7804
  454MOL0     H61235  -1.059   7.317   2.987  0.4080  1.5702 -0.1064
  454MOL0     H61236  -1.101   7.366   2.810  1.5374  0.0249 -2.7721
  454MOL0     H61237  -1.088   7.134   2.735  0.3841  0.4179  0.1254
  454MOL0     H61238  -1.061   7.066   2.891  0.3627  0.9691  0.7653
  454MOL0     H61239  -1.292   7.241   2.810  1.5692  0.3974 -1.0144
  454MOL0     H61240  -1.250   7.184   2.979  5.5104 -2.3784  0.8041
  454MOL0     H61241  -1.266   7.007   2.616  1.3956 -1.1904  0.0766
  454MOL0     H61242  -1.322   6.684   2.627 -0.6179 -0.4247 -2.6765
  454MOL0     H61243  -1.493   6.679   2.678 -0.1673 -0.0854 -0.9854
  454MOL0     H61244  -1.490   6.679   2.454 -0.9303  1.0517 -1.9906
  454MOL0     H61245  -1.385   6.817   2.428 -0.7217  0.0002  0.0360
  454MOL0     H61246  -1.607   6.898   2.386 -0.7287 -0.5707  0.0404
  454MOL0     H61247  -1.563   6.950   2.557  1.2139 -1.8317  2.3831
  454MOL0     H61248  -1.692   6.778   2.643  0.4592 -1.9698 -0.6451
  454MOL0     H61249  -1.742   6.723   2.479 -3.1307 -0.7625  1.2114
  454MOL0     H61250  -1.924   6.686   2.645 -0.0814  0.6999  0.5173
  454MOL0     H61251  -2.212   6.558   2.691  1.7601  2.6563  1.0861
  454MOL0     H61252  -2.179   6.468   2.537 -0.9184  1.0935 -1.0315
  454MOL0     H61253  -2.050   6.495   2.652  0.7597  0.6084  0.0307
  454MOL0     H61254  -2.576   6.967   2.357  0.0092  0.1809  0.6747
  454MOL0     H61255  -2.817   6.952   2.291 -0.3545  0.5694  1.2882
  454MOL0     H61256  -3.038   6.889   2.270  0.9276 -1.0049  1.3585
  454MOL0     H61257  -2.930   6.890   2.123 -1.1677 -1.3490 -2.2241
  454MOL0     H61258  -3.120   6.879   2.010  1.7205 -0.0933 -0.6929
  454MOL0     H61259  -3.082   6.713   2.017  0.7457  1.1016 -0.5305
  454MOL0     H61260  -3.330   6.760   2.087  0.4616  2.9175  0.2727
  454MOL0     H61261  -3.265   6.811   2.234  3.1539 -0.4252  0.3236
  454MOL0     H61262  -3.282   6.535   2.090 -1.5068 -0.6832  0.5747
  454MOL0     H61263  -3.143   6.547   2.199 -1.1003 -1.6466  1.0285
  454MOL0     H61264  -3.296   6.645   2.372  1.0978  0.7976 -1.8513
  454MOL0     H61265  -3.294   6.471   2.342 -1.3318  0.1270  1.6185
  454MOL0     H61266  -3.491   6.675   2.247  0.3327  0.5657  1.7076
  454MOL0     H61267  -3.501   6.495   2.205 -0.5372  1.7471 -0.5550
  454MOL0     H61268  -3.584   6.442   2.403 -1.8156  1.2226  1.1319
  454MOL0     H61269  -3.642   6.615   2.404  1.4703  1.5850  4.3940
  454MOL0     H61270  -3.454   6.686   2.531 -0.2953  0.4634 -0.1915
  454MOL0     H61271  -3.406   6.524   2.560  3.0580  2.9060 -2.4100
  454MOL0     H61272  -2.776   6.520   2.261  0.2283 -0.2340  2.6084
  454MOL0     H61273  -2.528   6.552   2.271  2.3656  1.6165 -0.2143
  454MOL0     H61274  -2.227   6.907   2.329  0.7967  0.2055 -0.1710
  454MOL0     H61275  -2.016   7.019   2.398  0.3715  0.3169  2.4634
  454MOL0     H61276  -0.160   7.204   2.885  2.4125  0.4253  0.4574
  454MOL0     H61277   0.056   7.258   2.823 -0.4051  0.2165  1.2777
  454MOL0     H61278   0.508   7.372   2.761  0.9098 -0.0314 -0.6364
  454MOL0     H61279   0.720   7.377   2.612  0.5956  2.5795 -0.5671
  454MOL0     H61280   0.693   7.408   2.175 -1.8865  0.6528  0.9051
  454MOL0     H61281   0.685   7.573   2.250 -2.1805 -1.2653  1.0749
  454MOL0     H61282   0.949   7.401   2.221 -1.7019 -1.2291  3.6471
  454MOL0     H61283   0.949   7.562   2.275  2.8028  0.2006 -3.3089
  454MOL0     H61284   0.961   7.627   2.049 -1.2808  0.3961 -0.9342
  454MOL0     H61285   0.809   7.564   2.020  0.3147  2.4217  0.3007
  454MOL0     H61286   1.051   7.371   2.032  1.2363 -1.6769 -2.0848
  454MOL0     H61287   1.010   7.475   1.887 -2.3672  2.6235  1.9627
  454MOL0     H61288   0.740   7.160   1.828 -4.7761  3.4754  1.0018
  454MOL0     H61289   0.477   7.479   2.282  0.8346 -1.4482 -1.1256
  454MOL0     H61290   0.286   7.486   2.417  2.4748  0.5357 -5.1427
  455MOL0     O61291   5.940   5.662   1.795 -0.5328 -0.3614 -0.3315
  455MOL0     C61292   6.011   5.586   1.858 -0.0253 -0.4040 -1.0154
  455MOL0     O61293   5.985   5.549   1.985  0.1007 -0.0393  0.3708
  455MOL0     C61294   5.872   5.585   2.060  0.2582  0.0372  0.1895
  455MOL0     C61295   5.752   5.639   2.015 -0.5234 -0.1498  0.7298
  455MOL0     C61296   5.648   5.678   2.102  0.6052 -0.3060 -0.3649
  455MOL0     C61297   5.659   5.656   2.240  0.4413  0.3899 -0.3092
  455MOL0     O61298   5.556   5.694   2.326  0.1330 -0.0832 -0.7114
  455MOL0     C61299   5.528   5.624   2.448  0.4867  0.7273  0.0776
  455MOL0     C61300   5.403   5.690   2.505  0.6907  0.2009 -0.3272
  455MOL0     C61301   5.359   5.644   2.652 -0.3110 -0.4445  0.4252
  455MOL0     C61302   5.267   5.736   2.731  0.6059 -0.4935 -0.1763
  455MOL0     C61303   5.216   5.669   2.858  0.5426  0.1238 -0.1686
  455MOL0     C61304   5.080   5.603   2.844  0.3177 -0.3449  0.3077
  455MOL0     C61305   5.021   5.542   2.977 -0.0724 -0.6410  0.9811
  455MOL0     C61306   4.961   5.639   3.070  0.3045  0.1222 -0.8355
  455MOL0     N61307   4.934   5.581   3.200 -0.6945  0.0831  0.4580
  455MOL0     C61308   4.836   5.492   3.224  1.1375 -0.3704  0.0760
  455MOL0     C61309   4.833   5.492   3.364  0.4079 -0.0682 -0.0998
  455MOL0     C61310   4.743   5.407   3.448  0.1653  0.3874 -0.5343
  455MOL0     C61311   4.622   5.474   3.511 -0.1864 -0.4718 -0.3298
  455MOL0     C61312   4.571   5.389   3.622  0.6316 -0.4283  0.2374
  455MOL0     C61313   4.416   5.386   3.615 -0.0417 -0.0453 -0.1710
  455MOL0     O61314   4.356   5.290   3.713 -0.2352  0.4204 -0.5463
  455MOL0     C61315   4.237   5.316   3.770 -0.5301  0.0125  0.2911
  455MOL0     C61316   4.136   5.387   3.705 -0.0001 -0.2428  1.0438
  455MOL0     C61317   4.023   5.430   3.772  0.7643  1.2619  0.2755
  455MOL0     C61318   3.915   5.495   3.688  0.8327 -0.7193 -0.7837
  455MOL0     C61319   3.991   5.374   3.897  0.2065  0.2800 -0.1319
  455MOL0     C61320   3.872   5.410   3.977 -0.7576  0.6091 -0.0746
  455MOL0     O61321   3.852   5.323   4.074  0.4370  0.3206 -0.2416
  455MOL0     C61322   3.724   5.328   4.128  0.4323  0.1289 -0.9453
  455MOL0     C61323   3.615   5.261   4.074  0.6101 -0.0461 -0.0914
  455MOL0     C61324   3.492   5.250   4.148  0.0725  0.7576  0.0891
  455MOL0     C61325   3.467   5.328   4.262 -0.3064  0.1799 -0.1199
  455MOL0     O61326   3.339   5.326   4.314  0.0754  0.7840 -0.2652
  455MOL0     C61327   3.321   5.427   4.417 -0.5743 -0.3411  0.1673
  455MOL0     C61328   3.178   5.465   4.427  0.5059 -0.1366 -0.5683
  455MOL0     C61329   3.078   5.353   4.431  0.2236 -0.4412 -0.2027
  455MOL0     C61330   2.938   5.408   4.471 -0.1957 -0.1022 -0.0575
  455MOL0     C61331   2.836   5.295   4.473  0.2370 -0.0387 -0.0694
  455MOL0     C61332   2.768   5.288   4.325  0.3205 -0.2091  0.4998
  455MOL0     C61333   2.659   5.177   4.329  0.5477  0.3890 -0.1158
  455MOL0     C61334   2.581   5.144   4.198  0.1970  0.9119  0.6149
  455MOL0    Cl61335   2.699   5.105   4.073 -0.6291  0.1110 -0.0752
  455MOL0     C61336   3.581   5.399   4.303 -0.2336 -0.3916 -0.9194
  455MOL0     C61337   3.703   5.408   4.243 -0.5215  0.0785 -0.8021
  455MOL0     O61338   3.811   5.509   3.947  0.1842  0.0603  0.1182
  455MOL0     C61339   4.090   5.292   3.957  0.5100 -0.5014  0.0113
  455MOL0     C61340   4.214   5.264   3.890  0.1541  0.2508 -0.6925
  455MOL0     N61341   4.918   5.587   3.413  0.5764  0.0324 -0.4803
  455MOL0     N61342   4.984   5.633   3.315 -0.3971  0.4008  0.1484
  455MOL0     C61343   5.784   5.600   2.288  0.0981  0.0988 -0.1640
  455MOL0     C61344   5.880   5.555   2.200  0.1644  0.5915  0.3049
  455MOL0     C61345   6.124   5.519   1.789 -0.0802  0.3258 -0.3322
  455MOL0     C61346   6.117   5.510   1.648  0.0530 -0.4991  0.1805
  455MOL0     C61347   6.233   5.461   1.582 -0.1319 -0.3656  0.3304
  455MOL0     C61348   6.347   5.424   1.652 -0.6215  0.6643 -0.5403
  455MOL0     O61349   6.452   5.359   1.590  0.4254  0.8422 -0.3157
  455MOL0     C61350   6.427   5.281   1.469 -0.0718  0.2924 -0.0178
  455MOL0     C61351   6.533   5.174   1.453  0.1420  0.7917 -0.2465
  455MOL0     C61352   6.484   5.074   1.345  0.4973  0.4023  0.0265
  455MOL0     C61353   6.605   4.980   1.298  0.4252  0.6186  0.0776
  455MOL0     C61354   6.559   4.882   1.204 -1.0682 -0.6198 -0.5639
  455MOL0     C61355   6.514   4.782   1.145  0.4685  0.4430 -0.0344
  455MOL0     C61356   6.346   5.431   1.789  0.0513 -0.4686 -1.2962
  455MOL0     C61357   6.234   5.472   1.858  0.3401  0.3247 -0.3299
  455MOL0     H61358   5.739   5.676   1.914 -1.7242 -0.1365  0.8806
  455MOL0     H61359   5.570   5.733   2.050 -0.2163 -1.0642  0.0429
  455MOL0     H61360   5.505   5.519   2.429  0.2090  0.3139  2.4440
  455MOL0     H61361   5.611   5.618   2.519 -0.5302 -0.0330  1.2244
  455MOL0     H61362   5.419   5.798   2.512 -0.0727  0.4725 -2.1391
  455MOL0     H61363   5.317   5.670   2.440  0.3170 -4.4037  1.1738
  455MOL0     H61364   5.302   5.550   2.653 -0.2143 -0.5057  0.2541
  455MOL0     H61365   5.453   5.621   2.702 -0.5963 -0.4221  0.9787
  455MOL0     H61366   5.319   5.825   2.769 -1.7482  1.6611 -1.6558
  455MOL0     H61367   5.174   5.766   2.682 -0.3481 -1.9249  0.6898
  455MOL0     H61368   5.292   5.601   2.899  1.9944  2.3263  1.0168
  455MOL0     H61369   5.202   5.748   2.932 -1.0220 -0.1706 -0.1183
  455MOL0     H61370   5.007   5.670   2.797 -1.2947 -1.4059  1.1707
  455MOL0     H61371   5.091   5.526   2.768 -2.1031 -0.5463  0.0579
  455MOL0     H61372   4.943   5.469   2.952  2.6161 -2.4225 -3.2034
  455MOL0     H61373   5.099   5.486   3.030  1.5573  0.8119  0.2214
  455MOL0     H61374   4.862   5.656   3.025 -0.4020 -0.4023  0.4733
  455MOL0     H61375   5.026   5.727   3.076  0.5768  0.0905 -2.6872
  455MOL0     H61376   4.764   5.446   3.157  0.5052  0.4551  0.1593
  455MOL0     H61377   4.709   5.325   3.385 -1.9150  0.4398  0.4391
  455MOL0     H61378   4.800   5.359   3.528 -2.4138  1.3595  2.0614
  455MOL0     H61379   4.548   5.484   3.432 -0.6750 -1.2971  0.0127
  455MOL0     H61380   4.637   5.575   3.549 -1.0736 -1.0615  1.7527
  455MOL0     H61381   4.596   5.436   3.717  1.7915 -0.2571 -0.1363
  455MOL0     H61382   4.612   5.287   3.618 -0.1845 -0.7494 -2.8232
  455MOL0     H61383   4.388   5.354   3.514 -1.3093  0.7525 -0.0981
  455MOL0     H61384   4.378   5.487   3.630  0.5984 -0.0528  1.7023
  455MOL0     H61385   4.152   5.428   3.605 -0.7359 -0.5479  0.7915
  455MOL0     H61386   3.921   5.463   3.583  0.3912  0.5575 -1.2173
  455MOL0     H61387   3.815   5.463   3.717  0.0584  2.1987  0.0379
  455MOL0     H61388   3.921   5.604   3.691 -0.1446 -0.6772  0.3576
  455MOL0     H61389   3.628   5.201   3.984 -2.1634 -0.3452 -0.3741
  455MOL0     H61390   3.404   5.205   4.102 -0.3016  2.9459 -1.5012
  455MOL0     H61391   3.356   5.393   4.515  1.0925  1.1920  0.1433
  455MOL0     H61392   3.372   5.521   4.396 -2.5717  1.1851  1.6891
  455MOL0     H61393   3.169   5.525   4.518 -0.4375  0.6556 -1.1661
  455MOL0     H61394   3.151   5.531   4.345  2.8067  0.7789 -0.6606
  455MOL0     H61395   3.118   5.284   4.506  3.5586  1.2390 -0.2496
  455MOL0     H61396   3.077   5.297   4.337 -1.3787 -1.3684  0.3233
  455MOL0     H61397   2.939   5.451   4.572 -3.1172  0.6385 -0.2458
  455MOL0     H61398   2.907   5.494   4.411  1.0618  0.2638 -0.2171
  455MOL0     H61399   2.764   5.312   4.554 -0.4540 -0.3753 -0.6042
  455MOL0     H61400   2.899   5.206   4.485  0.4616 -0.0848 -1.4147
  455MOL0     H61401   2.716   5.381   4.299  2.8926  0.7765 -1.4982
  455MOL0     H61402   2.837   5.263   4.244 -1.2497 -1.4877 -0.4993
  455MOL0     H61403   2.581   5.207   4.400 -0.4194  1.9392 -1.7550
  455MOL0     H61404   2.708   5.088   4.369 -1.1992 -1.5844 -2.1045
  455MOL0     H61405   2.525   5.233   4.168  1.4844  2.0465  1.4601
  455MOL0     H61406   2.514   5.060   4.217 -0.1356  1.4225  1.8523
  455MOL0     H61407   3.562   5.465   4.388 -1.5377 -0.8865 -0.8003
  455MOL0     H61408   3.781   5.456   4.300 -0.4108 -1.8398  0.7743
  455MOL0     H61409   4.070   5.241   4.051 -2.8153  0.4847 -0.0251
  455MOL0     H61410   4.287   5.203   3.944  1.0953  1.8883 -0.0210
  455MOL0     H61411   5.801   5.585   2.394 -0.2646  0.2515 -0.0796
  455MOL0     H61412   5.974   5.509   2.231  1.3761  0.8698 -2.6103
  455MOL0     H61413   6.026   5.540   1.597 -0.4422 -0.4985  1.0411
  455MOL0     H61414   6.235   5.470   1.474  0.2922  3.4815  0.5154
  455MOL0     H61415   6.326   5.240   1.477 -0.1866  0.8961  2.9459
  455MOL0     H61416   6.449   5.348   1.385  1.5581 -0.1731  0.0109
  455MOL0     H61417   6.556   5.127   1.549  1.6937  2.3252  0.1897
  455MOL0     H61418   6.626   5.219   1.416  0.2977  0.3455 -0.4088
  455MOL0     H61419   6.438   5.121   1.258  0.7052 -0.0693 -0.3471
  455MOL0     H61420   6.403   5.010   1.383  0.3257 -0.1414 -1.2179
  455MOL0     H61421   6.654   4.933   1.383 -0.0217  1.7170  0.9622
  455MOL0     H61422   6.678   5.044   1.247  0.5909 -0.0134 -0.4921
  455MOL0     H61423   6.474   4.696   1.096  0.3651  0.2452  0.3885
  455MOL0     H61424   6.434   5.397   1.842  0.8585  1.2022 -1.5172
  455MOL0     H61425   6.241   5.479   1.967  0.2978 -1.9158 -0.1262
  456MOL0     O61426   9.726   3.452   4.723 -0.3469  0.0650  0.0896
  456MOL0     C61427   9.712   3.550   4.649 -0.5934  0.0656 -0.5459
  456MOL0     O61428   9.598   3.592   4.590  0.0448 -0.5385 -0.3841
  456MOL0     C61429   9.505   3.497   4.570 -0.0048 -0.8599 -0.3582
  456MOL0     C61430   9.519   3.399   4.477  0.5845  0.6576  0.7859
  456MOL0     C61431   9.402   3.328   4.446 -0.1712 -0.2156  0.9198
  456MOL0     C61432   9.279   3.321   4.512 -1.1783 -0.4739 -0.5472
  456MOL0     O61433   9.182   3.235   4.471  0.0045 -0.1701  0.7674
  456MOL0     C61434   9.046   3.280   4.472 -0.5817 -0.2087 -0.7217
  456MOL0     C61435   8.981   3.229   4.602  0.5905 -0.0840 -0.1402
  456MOL0     C61436   8.838   3.179   4.583  0.3360 -1.2409 -0.9368
  456MOL0     C61437   8.778   3.116   4.712  0.4982 -0.5084 -0.1035
  456MOL0     C61438   8.660   3.030   4.669  0.1348  0.1621 -0.1514
  456MOL0     C61439   8.599   2.949   4.792  0.1086 -1.0702 -0.1722
  456MOL0     C61440   8.467   2.882   4.746 -1.0017 -0.5026 -0.7833
  456MOL0     C61441   8.381   2.815   4.854  0.2520  0.0111 -0.0766
  456MOL0     N61442   8.347   2.895   4.973  0.3546  0.4228  0.2729
  456MOL0     C61443   8.430   2.909   5.085  0.2966 -0.9484 -0.2501
  456MOL0     C61444   8.354   2.961   5.185 -0.9322  0.0511  0.5621
  456MOL0     C61445   8.398   2.984   5.328 -0.1535 -0.0956 -0.5313
  456MOL0     C61446   8.294   3.078   5.401  0.9672 -0.2374  0.6588
  456MOL0     C61447   8.335   3.112   5.536 -0.9960 -0.2464  0.6176
  456MOL0     C61448   8.234   3.209   5.600 -0.4785 -0.4309  0.5880
  456MOL0     O61449   8.104   3.145   5.608 -0.1114  0.5963 -0.4557
  456MOL0     C61450   7.998   3.223   5.597 -0.6940  1.3432 -0.1912
  456MOL0     C61451   7.983   3.341   5.664 -0.3104 -1.0653 -0.1647
  456MOL0     C61452   7.861   3.423   5.664 -0.4054  0.8640  0.1846
  456MOL0     C61453   7.867   3.547   5.745  1.0551 -0.3512  0.5071
  456MOL0     C61454   7.756   3.376   5.585 -0.5598  0.3705  0.4226
  456MOL0     C61455   7.618   3.437   5.582 -0.1396  0.4018 -0.7349
  456MOL0     O61456   7.594   3.546   5.654  0.0601  0.0440  0.1959
  456MOL0     C61457   7.461   3.598   5.648  0.0870  0.0564 -0.2336
  456MOL0     C61458   7.385   3.600   5.767 -0.4975  0.2092  1.6057
  456MOL0     C61459   7.254   3.645   5.759  0.1980  0.1004  0.0679
  456MOL0     C61460   7.191   3.676   5.629 -0.0422  0.0907  0.2497
  456MOL0     O61461   7.058   3.707   5.610  0.8681 -0.2597 -0.3433
  456MOL0     C61462   6.963   3.661   5.711  0.0536 -0.5943 -0.4270
  456MOL0     C61463   6.936   3.760   5.828 -0.0182  1.1072  0.4342
  456MOL0     C61464   6.832   3.866   5.804 -0.6750 -0.6330  0.0836
  456MOL0     C61465   6.821   3.960   5.921 -0.0855  0.6254  0.1430
  456MOL0     C61466   6.747   4.080   5.859 -0.0909 -0.2397  0.0932
  456MOL0     C61467   6.690   4.176   5.966  0.9704 -0.9872 -0.5949
  456MOL0     C61468   6.591   4.276   5.905 -0.8435  0.5226 -0.8400
  456MOL0     C61469   6.641   4.420   5.934 -0.7045 -0.1185  0.3233
  456MOL0    Cl61470   6.545   4.544   5.848 -0.3315 -0.0905 -0.3155
  456MOL0     C61471   7.272   3.675   5.523 -0.2819  0.7922  0.0476
  456MOL0     C61472   7.403   3.635   5.527 -0.1733  0.2367 -0.2413
  456MOL0     O61473   7.536   3.382   5.514 -0.0563 -0.1989  0.2350
  456MOL0     C61474   7.774   3.250   5.516 -0.1737 -0.3060  0.5241
  456MOL0     C61475   7.895   3.174   5.521  0.9088  0.2848  0.5174
  456MOL0     N61476   8.230   2.983   5.133  0.0147 -0.8283 -0.7109
  456MOL0     N61477   8.225   2.931   5.013  0.2076 -0.8533  0.4009
  456MOL0     C61478   9.278   3.411   4.619 -0.3262  0.1828 -0.6354
  456MOL0     C61479   9.388   3.495   4.648  0.4152  0.6465 -0.0902
  456MOL0     C61480   9.824   3.648   4.643  0.2919 -0.8309  0.6741
  456MOL0     C61481   9.811   3.776   4.578 -0.0480 -0.6265 -0.0016
  456MOL0     C61482   9.915   3.878   4.588  0.0115  0.0376 -0.5072
  456MOL0     C61483  10.031   3.848   4.656  0.1601  1.1049 -0.1330
  456MOL0     O61484  10.137   3.927   4.684 -0.1678 -0.4553  0.0852
  456MOL0     C61485  10.142   4.060   4.621  0.7518 -0.4092 -0.0728
  456MOL0     C61486  10.224   4.144   4.713 -0.4086  0.6917 -0.4809
  456MOL0     C61487  10.368   4.101   4.696 -0.3610  0.1802 -0.5429
  456MOL0     C61488  10.449   4.168   4.810 -0.2706  0.4310  0.0326
  456MOL0     C61489  10.590   4.115   4.796 -0.3935  0.1199 -0.4341
  456MOL0     C61490  10.706   4.069   4.779  0.2724  0.1428  0.7177
  456MOL0     C61491  10.045   3.723   4.705  0.5128  0.5371 -0.1786
  456MOL0     C61492   9.946   3.625   4.706  0.3032 -0.1462  0.0625
  456MOL0     H61493   9.612   3.394   4.422 -1.5079 -2.2166 -3.0272
  456MOL0     H61494   9.417   3.255   4.367 -0.7125 -0.2823  0.8749
  456MOL0     H61495   9.038   3.389   4.466 -1.4280 -0.2349 -0.2500
  456MOL0     H61496   8.990   3.236   4.389  1.7265 -2.6362 -1.1377
  456MOL0     H61497   9.039   3.152   4.654  0.0944  0.1083  0.7296
  456MOL0     H61498   8.967   3.304   4.680  0.5865  1.2914 -1.4321
  456MOL0     H61499   8.763   3.253   4.555  0.1271 -1.2009 -0.2773
  456MOL0     H61500   8.836   3.096   4.512 -4.9530 -2.2002 -0.0615
  456MOL0     H61501   8.849   3.046   4.758 -0.1868 -1.3597 -0.3195
  456MOL0     H61502   8.764   3.200   4.780  0.3616  0.7147 -1.5857
  456MOL0     H61503   8.579   3.087   4.621  0.1356 -0.9814 -1.5747
  456MOL0     H61504   8.683   2.956   4.592 -2.9277 -1.2044  0.0830
  456MOL0     H61505   8.672   2.878   4.832  2.0255  0.1528 -1.3336
  456MOL0     H61506   8.567   3.023   4.865  1.2994  1.8787 -2.4320
  456MOL0     H61507   8.405   2.957   4.696  1.5185  1.5708 -1.0190
  456MOL0     H61508   8.482   2.804   4.672  0.9758 -0.1816 -0.7709
  456MOL0     H61509   8.419   2.718   4.886  2.2690  0.9774  0.6684
  456MOL0     H61510   8.283   2.798   4.808  0.4633 -1.7820  0.0636
  456MOL0     H61511   8.535   2.883   5.089 -0.1106 -2.9301 -1.3404
  456MOL0     H61512   8.397   2.887   5.379  0.0818  0.2170  0.0679
  456MOL0     H61513   8.497   3.027   5.344 -0.5573  0.7768 -0.3173
  456MOL0     H61514   8.203   3.018   5.400 -0.7257  2.1377 -0.9316
  456MOL0     H61515   8.264   3.163   5.339  0.5181 -0.2312  0.8863
  456MOL0     H61516   8.430   3.165   5.525 -0.5306 -0.8636  1.5560
  456MOL0     H61517   8.358   3.025   5.599 -0.8323 -2.5707 -2.4215
  456MOL0     H61518   8.232   3.299   5.538 -0.5219  1.0758  2.6533
  456MOL0     H61519   8.268   3.240   5.699  1.7608  0.0386 -0.2780
  456MOL0     H61520   8.068   3.371   5.724 -0.7135 -0.3469  0.0519
  456MOL0     H61521   7.872   3.633   5.677 -0.7137  0.1893  0.9959
  456MOL0     H61522   7.784   3.555   5.816 -1.1275 -0.9764 -1.8368
  456MOL0     H61523   7.964   3.550   5.796  1.0610 -1.4757  0.5856
  456MOL0     H61524   7.418   3.577   5.868  1.3870  0.7527  1.1479
  456MOL0     H61525   7.194   3.635   5.849  2.8398 -4.8163  1.6732
  456MOL0     H61526   6.866   3.649   5.661 -0.3927 -1.8094  0.6661
  456MOL0     H61527   6.998   3.559   5.732  1.2076 -0.2137 -0.4389
  456MOL0     H61528   6.903   3.689   5.905 -0.7492 -0.5936 -1.3499
  456MOL0     H61529   7.024   3.808   5.872 -0.2858  1.7416  0.2900
  456MOL0     H61530   6.736   3.816   5.789 -1.9079  1.7714 -0.6046
  456MOL0     H61531   6.861   3.917   5.712 -4.2848  0.0711 -0.8412
  456MOL0     H61532   6.776   3.926   6.015 -1.9145  1.9997 -0.1644
  456MOL0     H61533   6.915   3.999   5.960 -0.5828  0.1557  1.9012
  456MOL0     H61534   6.663   4.052   5.796 -0.4187  0.8512  0.0228
  456MOL0     H61535   6.819   4.150   5.815  1.8475 -0.8284  2.1514
  456MOL0     H61536   6.625   4.121   6.035  1.5776 -2.7851 -1.3850
  456MOL0     H61537   6.768   4.218   6.031  0.8432  0.3736 -1.2932
  456MOL0     H61538   6.498   4.271   5.962 -2.2639  5.4607 -2.2108
  456MOL0     H61539   6.562   4.259   5.801  0.5220  0.0795 -1.1671
  456MOL0     H61540   6.747   4.421   5.909 -1.2432  2.8895 -2.5355
  456MOL0     H61541   6.629   4.442   6.041  1.1707 -0.0691  0.5473
  456MOL0     H61542   7.220   3.699   5.431 -0.4582 -0.7237 -0.2757
  456MOL0     H61543   7.461   3.620   5.437  0.5253 -1.0939  0.3857
  456MOL0     H61544   7.688   3.204   5.467  0.6586 -2.2937  0.8324
  456MOL0     H61545   7.893   3.072   5.484 -2.4238  0.4884 -0.1131
  456MOL0     H61546   9.181   3.415   4.666 -0.6120 -3.7120 -0.5836
  456MOL0     H61547   9.389   3.561   4.734 -3.5918  0.8954 -0.0501
  456MOL0     H61548   9.727   3.810   4.519  0.0723  3.1220  1.7094
  456MOL0     H61549   9.910   3.970   4.531  0.3889  0.1502 -0.3636
  456MOL0     H61550  10.200   4.053   4.529 -0.0393  2.4228 -0.9042
  456MOL0     H61551  10.044   4.106   4.607  0.2323 -0.0490  3.7402
  456MOL0     H61552  10.185   4.125   4.813  1.3868 -0.0471  0.1140
  456MOL0     H61553  10.223   4.252   4.694  1.2537  1.1485  1.5571
  456MOL0     H61554  10.395   4.134   4.595  0.0756 -0.0269 -0.4964
  456MOL0     H61555  10.381   3.993   4.704  0.9838  0.2074 -1.9305
  456MOL0     H61556  10.412   4.130   4.906 -0.6081 -0.9850 -0.6420
  456MOL0     H61557  10.447   4.278   4.811  3.8956  0.7760 -2.5627
  456MOL0     H61558  10.805   4.028   4.775 -0.3751 -1.5332  1.1290
  456MOL0     H61559  10.137   3.704   4.760  0.1388 -0.7951  0.0128
  456MOL0     H61560   9.963   3.531   4.758  1.2957  1.1641  2.2574
  457MOL0     O61561   8.504   1.424   2.110 -0.1571  0.1186  0.4274
  457MOL0     C61562   8.491   1.543   2.134  0.6139 -0.0607  0.4094
  457MOL0     O61563   8.383   1.606   2.174  0.3890  0.9057  0.4994
  457MOL0     C61564   8.276   1.519   2.194  0.2323 -0.2742  0.6103
  457MOL0     C61565   8.215   1.520   2.317 -0.8924  0.3411  0.1919
  457MOL0     C61566   8.097   1.450   2.332  0.0273 -0.3089 -0.7161
  457MOL0     C61567   8.042   1.374   2.229 -0.0319 -0.1408 -0.6341
  457MOL0     O61568   7.927   1.303   2.254  0.5692  0.4038  0.2840
  457MOL0     C61569   7.805   1.384   2.258  1.3460  0.1639 -0.5903
  457MOL0     C61570   7.685   1.304   2.207 -0.3073  0.7114 -0.8329
  457MOL0     C61571   7.538   1.332   2.235 -0.3016  0.1059  0.0152
  457MOL0     C61572   7.488   1.358   2.382  0.2119  0.0218  0.3281
  457MOL0     C61573   7.335   1.398   2.383 -0.1658 -0.0130 -0.7524
  457MOL0     C61574   7.246   1.270   2.356 -0.3137 -0.1653  0.3509
  457MOL0     C61575   7.090   1.286   2.363 -0.2543 -0.2163 -1.0683
  457MOL0     C61576   7.025   1.417   2.319 -0.3469  0.1222  0.0154
  457MOL0     N61577   6.885   1.409   2.317  0.2257 -0.4303 -0.4607
  457MOL0     C61578   6.802   1.422   2.207  0.2289 -0.3925  0.8846
  457MOL0     C61579   6.677   1.424   2.254  0.1235 -0.7157  0.8633
  457MOL0     C61580   6.556   1.450   2.171  1.1760 -0.5453  0.1541
  457MOL0     C61581   6.459   1.565   2.221 -1.6401  0.0229 -0.2196
  457MOL0     C61582   6.328   1.553   2.143  0.1054 -0.1428 -0.1707
  457MOL0     C61583   6.234   1.669   2.182 -0.1155 -0.3226  0.2710
  457MOL0     O61584   6.137   1.679   2.078 -0.4345 -0.4084  0.4183
  457MOL0     C61585   6.018   1.751   2.094 -0.3895  0.2873 -0.3076
  457MOL0     C61586   5.983   1.835   2.201  0.7806  0.0549 -0.6476
  457MOL0     C61587   5.868   1.911   2.183 -0.0219  0.3829 -0.9944
  457MOL0     C61588   5.835   2.008   2.297  0.3026  0.1325  0.7513
  457MOL0     C61589   5.776   1.892   2.074 -0.2461 -0.1445  0.3031
  457MOL0     C61590   5.651   1.976   2.056 -0.6422 -0.4359 -0.3162
  457MOL0     O61591   5.552   1.987   2.157  0.4350  0.3068  0.5961
  457MOL0     C61592   5.444   2.071   2.141 -0.7429 -0.2424  0.3433
  457MOL0     C61593   5.377   2.091   2.020  0.4887 -0.5049 -0.3015
  457MOL0     C61594   5.264   2.181   2.016 -1.3446 -0.6698  0.2648
  457MOL0     C61595   5.213   2.247   2.121 -0.8195  0.8553  0.9392
  457MOL0     O61596   5.112   2.335   2.093 -0.6497 -0.0284 -0.2249
  457MOL0     C61597   5.055   2.423   2.199  0.9687 -0.4776  0.0067
  457MOL0     C61598   4.901   2.433   2.199  1.4597 -0.5118  1.3283
  457MOL0     C61599   4.819   2.530   2.113 -0.8661  0.0360 -0.1016
  457MOL0     C61600   4.669   2.499   2.144 -0.1872  0.1276 -0.8624
  457MOL0     C61601   4.570   2.580   2.059  0.2558  0.6159 -0.3918
  457MOL0     C61602   4.425   2.526   2.078 -0.0266  0.5697  0.4887
  457MOL0     C61603   4.327   2.610   2.007 -0.0187  0.1064  0.1050
  457MOL0     C61604   4.188   2.567   2.047  0.0328  0.1161 -0.1874
  457MOL0    Cl61605   4.164   2.394   2.055 -0.5767 -0.0044 -0.0521
  457MOL0     C61606   5.290   2.224   2.244 -0.9564 -0.1459 -0.1037
  457MOL0     C61607   5.395   2.136   2.253 -0.1712 -0.5928  0.1237
  457MOL0     O61608   5.648   2.025   1.944 -0.0322  0.7529  0.0078
  457MOL0     C61609   5.809   1.790   1.983  0.4037 -0.0163  0.3102
  457MOL0     C61610   5.933   1.726   1.992  0.6306 -0.0068 -0.3828
  457MOL0     N61611   6.689   1.405   2.395 -0.3317  0.5522  0.9274
  457MOL0     N61612   6.812   1.391   2.428  0.2181  0.1747  0.2003
  457MOL0     C61613   8.102   1.378   2.108  0.7337  0.2872 -0.1188
  457MOL0     C61614   8.216   1.451   2.087  0.3885 -0.3707 -0.4421
  457MOL0     C61615   8.599   1.630   2.107  0.5633  0.2233  0.0889
  457MOL0     C61616   8.720   1.578   2.076 -0.0743 -0.2217 -0.1151
  457MOL0     C61617   8.840   1.652   2.065 -0.0507 -0.3032 -0.4398
  457MOL0     C61618   8.833   1.795   2.096  0.0383  0.0621 -0.4689
  457MOL0     O61619   8.936   1.891   2.080  0.1099 -0.1940 -0.7232
  457MOL0     C61620   9.048   1.853   2.000  0.6724 -0.5548 -0.5534
  457MOL0     C61621   9.119   1.970   1.934 -0.4644 -0.4497  0.0840
  457MOL0     C61622   9.224   1.924   1.829  0.4539 -1.1555 -0.3176
  457MOL0     C61623   9.326   1.836   1.882 -1.0186  0.6594 -0.4376
  457MOL0     C61624   9.454   1.819   1.803  0.6980 -0.4038  0.1573
  457MOL0     C61625   9.546   1.789   1.732 -0.2449  0.4816  0.2524
  457MOL0     C61626   8.709   1.855   2.119 -0.3992 -0.3510  1.3734
  457MOL0     C61627   8.590   1.773   2.122 -0.0078  0.0472 -0.4235
  457MOL0     H61628   8.272   1.567   2.397  0.3564 -0.3905 -0.2282
  457MOL0     H61629   8.047   1.450   2.429 -1.0930  1.2191 -1.2429
  457MOL0     H61630   7.782   1.412   2.362  2.9272 -0.4265 -0.0602
  457MOL0     H61631   7.807   1.472   2.193  0.7169 -0.7685 -1.9076
  457MOL0     H61632   7.695   1.301   2.098  1.3313  0.4666 -0.7065
  457MOL0     H61633   7.703   1.200   2.237  2.1817  0.7259 -2.0395
  457MOL0     H61634   7.525   1.430   2.186 -2.6387 -0.2890 -0.2842
  457MOL0     H61635   7.477   1.253   2.190 -0.5861  0.7890 -0.8444
  457MOL0     H61636   7.497   1.261   2.433 -0.6726 -0.5214 -0.4990
  457MOL0     H61637   7.552   1.434   2.427  0.8313  0.4641 -1.2288
  457MOL0     H61638   7.322   1.433   2.485 -0.9642 -0.2756 -0.7567
  457MOL0     H61639   7.306   1.473   2.309 -0.9798  0.0654 -0.3682
  457MOL0     H61640   7.265   1.223   2.259 -2.1949 -1.7337  0.6751
  457MOL0     H61641   7.281   1.191   2.424 -1.6776 -0.6207  0.5506
  457MOL0     H61642   7.042   1.212   2.299 -2.3266  1.0015 -1.0125
  457MOL0     H61643   7.066   1.270   2.469  1.3770  1.1288 -0.4662
  457MOL0     H61644   7.055   1.428   2.214  1.0898  0.4853  0.4471
  457MOL0     H61645   7.058   1.504   2.376  0.6762  0.8235 -1.5651
  457MOL0     H61646   6.828   1.433   2.102 -1.1620 -2.5573  0.2521
  457MOL0     H61647   6.587   1.475   2.069 -3.1281  3.1708 -0.5358
  457MOL0     H61648   6.492   1.361   2.173 -0.1483  0.3927  0.9890
  457MOL0     H61649   6.500   1.661   2.187  2.1287  0.4221  4.4008
  457MOL0     H61650   6.444   1.562   2.329 -1.9009  0.3640 -0.2462
  457MOL0     H61651   6.285   1.455   2.161  1.0588 -0.5794 -0.2150
  457MOL0     H61652   6.350   1.554   2.035 -0.3380 -1.6114 -0.2887
  457MOL0     H61653   6.292   1.761   2.194  2.5580 -1.6326 -1.6547
  457MOL0     H61654   6.173   1.636   2.267 -3.0298  1.4971 -0.9418
  457MOL0     H61655   6.050   1.834   2.287  1.7748  1.5402 -1.3739
  457MOL0     H61656   5.787   1.952   2.378  0.6545  0.0027  0.8733
  457MOL0     H61657   5.925   2.051   2.342 -0.8403  1.1402  2.1681
  457MOL0     H61658   5.764   2.086   2.269  0.2811  0.5934  1.9987
  457MOL0     H61659   5.413   2.065   1.921 -0.1589  2.4476 -1.4297
  457MOL0     H61660   5.233   2.220   1.920 -0.8350 -2.5676 -0.7182
  457MOL0     H61661   5.079   2.382   2.298 -0.4951  3.5938  2.3172
  457MOL0     H61662   5.086   2.528   2.206  0.2853 -0.1367 -1.6826
  457MOL0     H61663   4.861   2.333   2.182  0.0847  0.4823 -2.4651
  457MOL0     H61664   4.872   2.464   2.300  0.7581  2.3543  0.3572
  457MOL0     H61665   4.832   2.530   2.005  0.4862 -2.3426  0.0072
  457MOL0     H61666   4.837   2.634   2.142  1.0504  0.1313 -1.4429
  457MOL0     H61667   4.656   2.395   2.113  1.1760 -0.2823 -0.1351
  457MOL0     H61668   4.654   2.508   2.252  2.1970  4.6035 -0.6484
  457MOL0     H61669   4.600   2.565   1.955  0.4378 -1.0508 -0.1341
  457MOL0     H61670   4.572   2.685   2.091 -3.5078  0.3059  1.4259
  457MOL0     H61671   4.421   2.423   2.041  0.1097 -0.4555  3.1218
  457MOL0     H61672   4.392   2.521   2.182 -3.2477 -0.9212 -0.5025
  457MOL0     H61673   4.349   2.593   1.901  0.6306 -0.7352  0.3726
  457MOL0     H61674   4.336   2.716   2.034  1.2428 -0.6313  2.9229
  457MOL0     H61675   4.117   2.592   1.967 -0.4278 -2.5477 -0.6908
  457MOL0     H61676   4.149   2.604   2.143  1.3319  2.2084 -0.4130
  457MOL0     H61677   5.277   2.281   2.335  2.6006  1.6813 -0.5788
  457MOL0     H61678   5.446   2.123   2.347  0.1857 -1.9422 -0.2333
  457MOL0     H61679   5.755   1.764   1.892 -0.0927  0.7447  0.3810
  457MOL0     H61680   5.953   1.650   1.917  1.7318 -1.0766  0.9471
  457MOL0     H61681   8.062   1.332   2.019 -1.9973 -0.2016  1.2632
  457MOL0     H61682   8.252   1.467   1.986 -0.0421 -0.4910 -0.6156
  457MOL0     H61683   8.733   1.473   2.048  3.7173  1.1040 -4.7549
  457MOL0     H61684   8.935   1.599   2.062  0.2954  0.0788  2.1029
  457MOL0     H61685   9.126   1.796   2.051  0.4868 -1.7711 -1.5591
  457MOL0     H61686   9.015   1.784   1.922 -0.5265  0.6132 -1.1188
  457MOL0     H61687   9.184   2.018   2.008  2.6741 -0.6506 -2.3324
  457MOL0     H61688   9.058   2.052   1.895  2.4472  1.8891  0.1278
  457MOL0     H61689   9.273   2.018   1.801  0.0980 -0.9078 -0.1103
  457MOL0     H61690   9.167   1.882   1.745 -2.4886  0.1164  0.9080
  457MOL0     H61691   9.281   1.737   1.891  0.2311 -0.4169 -4.1005
  457MOL0     H61692   9.353   1.879   1.979  0.1256 -2.2780  0.6346
  457MOL0     H61693   9.621   1.771   1.658  0.3928  0.9698  0.7711
  457MOL0     H61694   8.701   1.963   2.114 -0.1363 -0.2530 -4.8970
  457MOL0     H61695   8.499   1.825   2.149  0.9541  0.6598  1.8477
  458MOL0     O61696   7.023   1.425   9.319  0.1563 -0.7014  0.0493
  458MOL0     C61697   7.030   1.322   9.255 -1.0565 -0.0816 -0.8098
  458MOL0     O61698   6.946   1.215   9.264 -0.3982 -0.2831 -0.5060
  458MOL0     C61699   6.837   1.220   9.350  0.0707  0.1392 -0.6078
  458MOL0     C61700   6.755   1.340   9.363 -0.7693 -0.3238  0.0297
  458MOL0     C61701   6.641   1.352   9.443  0.5584  0.1565 -0.2575
  458MOL0     C61702   6.613   1.239   9.527  0.7859 -0.2335 -0.3560
  458MOL0     O61703   6.528   1.234   9.633  0.0669 -0.7135  0.4073
  458MOL0     C61704   6.467   1.361   9.682 -0.8945  0.1235  0.0666
  458MOL0     C61705   6.348   1.430   9.615 -0.4919  0.3599 -0.1601
  458MOL0     C61706   6.245   1.319   9.607  1.4215 -0.1364 -0.2674
  458MOL0     C61707   6.105   1.365   9.551 -0.0614 -0.4088 -0.3958
  458MOL0     C61708   5.988   1.279   9.592  0.0413  0.1941 -0.0397
  458MOL0     C61709   5.853   1.352   9.582  0.0721 -0.1135 -0.2420
  458MOL0     C61710   5.816   1.374   9.430  0.3301 -0.6149  0.6754
  458MOL0     C61711   5.714   1.495   9.422  0.5348 -0.2256 -0.0972
  458MOL0     N61712   5.580   1.449   9.456  0.6615  0.1984 -0.8130
  458MOL0     C61713   5.514   1.493   9.561  0.6295 -0.5623 -1.3256
  458MOL0     C61714   5.385   1.442   9.556 -0.5141 -0.0003 -0.3174
  458MOL0     C61715   5.281   1.471   9.651  0.3816  0.7499  0.2296
  458MOL0     C61716   5.145   1.504   9.592  0.0966  0.6237 -0.5628
  458MOL0     C61717   5.126   1.619   9.498  0.0117 -0.2631  0.1240
  458MOL0     C61718   4.982   1.636   9.459  0.0671 -0.0402 -1.1083
  458MOL0     O61719   4.900   1.667   9.573 -0.7849  0.0437 -0.0832
  458MOL0     C61720   4.764   1.639   9.562 -0.0924  0.8428  0.4433
  458MOL0     C61721   4.686   1.637   9.676 -0.2836  0.1731 -0.3269
  458MOL0     C61722   4.554   1.593   9.674 -0.4081  0.5302  0.3325
  458MOL0     C61723   4.500   1.589   9.813  0.5748  0.7936 -0.2437
  458MOL0     C61724   4.481   1.579   9.550  0.1563  1.1430  0.7399
  458MOL0     C61725   4.331   1.547   9.536 -0.2248  0.6202  0.2737
  458MOL0     O61726   4.247   1.583   9.634  0.2220 -0.0457  0.1373
  458MOL0     C61727   4.105   1.566   9.615 -0.1054 -0.1130 -0.7090
  458MOL0     C61728   4.050   1.633   9.502 -0.7556 -0.0781 -0.0323
  458MOL0     C61729   3.915   1.617   9.469  0.1553  0.1462 -0.0247
  458MOL0     C61730   3.823   1.546   9.553 -0.4778 -0.9714 -0.3548
  458MOL0     O61731   3.687   1.519   9.518 -0.7104  0.3326 -0.2353
  458MOL0     C61732   3.619   1.586   9.414 -0.1249  0.0625 -0.4873
  458MOL0     C61733   3.583   1.732   9.458  0.5093 -0.3340 -0.3011
  458MOL0     C61734   3.467   1.746   9.552  0.6997  0.4313  0.2219
  458MOL0     C61735   3.455   1.892   9.583 -0.6267 -0.3110  0.3160
  458MOL0     C61736   3.325   1.941   9.651 -0.4392  0.2429 -0.2758
  458MOL0     C61737   3.194   1.889   9.597 -0.3055 -0.0574  0.6365
  458MOL0     C61738   3.080   1.957   9.667  0.6255  0.0325 -0.2604
  458MOL0     C61739   2.954   1.913   9.592  0.8508 -0.8964  0.6997
  458MOL0    Cl61740   2.807   2.000   9.641  0.1570 -0.1100  0.4023
  458MOL0     C61741   3.876   1.502   9.678  0.1020 -0.3554 -0.3952
  458MOL0     C61742   4.016   1.518   9.713  0.0052  0.1908  0.4822
  458MOL0     O61743   4.302   1.491   9.433  0.4530 -0.1229  0.7527
  458MOL0     C61744   4.565   1.592   9.430 -0.4546  0.1145 -0.0599
  458MOL0     C61745   4.704   1.610   9.439 -0.2525 -1.0926 -0.4710
  458MOL0     N61746   5.377   1.361   9.444 -0.2992  0.4223 -0.0085
  458MOL0     N61747   5.491   1.366   9.384  0.1145  0.7478  0.0572
  458MOL0     C61748   6.684   1.125   9.504 -0.3105  0.1674 -0.6039
  458MOL0     C61749   6.793   1.102   9.414  0.0887 -0.9645 -0.2540
  458MOL0     C61750   7.156   1.310   9.166 -0.4268  0.2435 -0.9103
  458MOL0     C61751   7.179   1.196   9.095 -0.3245  0.5407 -0.4085
  458MOL0     C61752   7.294   1.187   9.012  0.3333  0.2145  0.3018
  458MOL0     C61753   7.381   1.290   9.001 -0.8365 -0.7404  0.8021
  458MOL0     O61754   7.498   1.272   8.924  1.3520  0.3023 -1.1648
  458MOL0     C61755   7.604   1.357   8.925  0.2827 -0.3444  0.6900
  458MOL0     C61756   7.716   1.301   8.829 -0.7673  0.1053 -0.0665
  458MOL0     C61757   7.821   1.420   8.809 -0.0407 -0.4219  0.7897
  458MOL0     C61758   7.954   1.372   8.741  0.7516 -0.2669 -0.6320
  458MOL0     C61759   8.050   1.481   8.730 -0.4157  1.0295  0.1289
  458MOL0     C61760   8.142   1.555   8.722 -0.8949 -0.0887 -0.0135
  458MOL0     C61761   7.356   1.402   9.083 -0.3687 -0.2201 -0.1818
  458MOL0     C61762   7.238   1.415   9.158 -0.4972 -0.4273  0.4653
  458MOL0     H61763   6.787   1.418   9.294 -3.4837  1.2242  0.3962
  458MOL0     H61764   6.591   1.447   9.456 -0.5133 -0.3932 -0.2789
  458MOL0     H61765   6.432   1.334   9.782 -2.0986 -0.1166 -0.3994
  458MOL0     H61766   6.549   1.432   9.694  1.9324 -3.3030  3.5416
  458MOL0     H61767   6.310   1.517   9.669  0.5790 -0.0201  1.2642
  458MOL0     H61768   6.374   1.469   9.515  0.2308  0.3555  0.0203
  458MOL0     H61769   6.280   1.242   9.537  0.0783 -0.7121 -0.3272
  458MOL0     H61770   6.227   1.283   9.708  1.4324  1.0843  0.1745
  458MOL0     H61771   6.087   1.463   9.595  0.0201 -1.6757  2.7284
  458MOL0     H61772   6.105   1.379   9.443  2.2197  4.1832 -0.0270
  458MOL0     H61773   5.994   1.187   9.532  1.4657 -0.0677  0.4542
  458MOL0     H61774   6.011   1.252   9.695  0.7814 -0.9541 -0.4737
  458MOL0     H61775   5.770   1.296   9.625 -2.3542  2.2621 -1.5857
  458MOL0     H61776   5.859   1.447   9.635 -1.8078 -0.1504  0.0847
  458MOL0     H61777   5.906   1.397   9.373  0.4184 -1.7485  0.3292
  458MOL0     H61778   5.774   1.280   9.390  0.4572 -0.5191  0.3100
  458MOL0     H61779   5.722   1.518   9.316 -0.8978  0.8181  0.0005
  458MOL0     H61780   5.746   1.584   9.477  1.7290  0.1887 -1.4101
  458MOL0     H61781   5.543   1.552   9.648 -1.3623 -1.2336 -0.1445
  458MOL0     H61782   5.260   1.385   9.715 -2.7351  0.2326 -1.3339
  458MOL0     H61783   5.316   1.550   9.718  1.8389  0.3853 -0.0544
  458MOL0     H61784   5.083   1.531   9.678  0.7547 -1.8781  0.7832
  458MOL0     H61785   5.104   1.417   9.540 -0.3157  0.2280  0.4014
  458MOL0     H61786   5.183   1.603   9.406  0.4543  0.1237  0.3254
  458MOL0     H61787   5.164   1.704   9.555  1.6172  0.8182 -2.3712
  458MOL0     H61788   4.948   1.536   9.431 -0.8258 -0.3586  0.9138
  458MOL0     H61789   4.972   1.701   9.372  1.6093  0.9948 -0.5612
  458MOL0     H61790   4.743   1.652   9.767  4.5627  2.3045 -3.2989
  458MOL0     H61791   4.406   1.534   9.814  0.6863  0.5431  2.5632
  458MOL0     H61792   4.556   1.523   9.880 -2.8145 -0.9960  1.0495
  458MOL0     H61793   4.474   1.689   9.849 -1.2883 -0.8670  3.6317
  458MOL0     H61794   4.109   1.689   9.431 -1.4643 -0.0074 -0.5665
  458MOL0     H61795   3.872   1.653   9.376  0.6617  1.3094  0.1788
  458MOL0     H61796   3.685   1.583   9.326 -1.1976 -2.2111 -1.2763
  458MOL0     H61797   3.537   1.526   9.373 -1.1083  0.6345  0.5943
  458MOL0     H61798   3.674   1.775   9.502  0.1869  0.3003 -0.2285
  458MOL0     H61799   3.560   1.795   9.372 -0.1219  0.6345  0.5441
  458MOL0     H61800   3.487   1.687   9.642 -1.7275 -1.2531 -0.2607
  458MOL0     H61801   3.375   1.711   9.504  2.4328 -4.5107 -0.0004
  458MOL0     H61802   3.544   1.929   9.635 -1.9338  2.9101  0.4426
  458MOL0     H61803   3.464   1.944   9.487  2.0047 -0.9841  0.1245
  458MOL0     H61804   3.325   2.048   9.629 -2.0167 -0.2185 -3.0571
  458MOL0     H61805   3.323   1.915   9.757 -0.3189 -0.6667 -0.4883
  458MOL0     H61806   3.186   1.915   9.491 -2.1609 -1.3279  0.4268
  458MOL0     H61807   3.200   1.781   9.586  3.3207  0.3051 -3.9016
  458MOL0     H61808   3.094   2.066   9.662 -1.4914  0.5054  2.1264
  458MOL0     H61809   3.074   1.924   9.771  0.4654  0.3512 -0.1671
  458MOL0     H61810   2.944   1.806   9.615  0.0207 -1.4959 -2.0584
  458MOL0     H61811   2.954   1.904   9.483 -1.1936  2.4991  0.3030
  458MOL0     H61812   3.805   1.453   9.744 -2.9146  1.1171 -2.3258
  458MOL0     H61813   4.066   1.488   9.804  0.7663  3.3240  1.2032
  458MOL0     H61814   4.521   1.575   9.332  1.3450 -3.0865 -0.4636
  458MOL0     H61815   4.755   1.608   9.343 -0.8789 -2.4965 -0.8083
  458MOL0     H61816   6.635   1.045   9.559 -0.5515  2.8644  3.5763
  458MOL0     H61817   6.829   1.001   9.401 -0.5889 -1.0777 -1.4258
  458MOL0     H61818   7.115   1.108   9.093 -1.1985  1.0779  1.4555
  458MOL0     H61819   7.315   1.103   8.947 -0.1503 -2.1788  3.0395
  458MOL0     H61820   7.576   1.451   8.878  3.3227  0.4307  0.2082
  458MOL0     H61821   7.633   1.369   9.029 -0.5850 -1.7589  1.1206
  458MOL0     H61822   7.677   1.278   8.729 -1.2354 -0.2725  0.1951
  458MOL0     H61823   7.763   1.215   8.877  0.5916  0.0288 -1.4658
  458MOL0     H61824   7.848   1.478   8.898  1.9284  0.6573 -0.4358
  458MOL0     H61825   7.768   1.498   8.753 -1.3417 -0.9933  1.1707
  458MOL0     H61826   7.933   1.339   8.638 -0.4920  1.7058 -1.0703
  458MOL0     H61827   7.984   1.281   8.794  0.5951  1.5068  2.7009
  458MOL0     H61828   8.227   1.619   8.718  0.5320 -1.9243 -3.9986
  458MOL0     H61829   7.423   1.484   9.104 -1.7988  0.1521  3.5817
  458MOL0     H61830   7.214   1.503   9.216 -2.6197 -1.0369  0.5738
  459MOL0     O61831   4.050   6.170   3.331  0.6517 -0.0469 -0.8292
  459MOL0     C61832   4.052   6.110   3.229 -0.8588 -0.4138 -0.1713
  459MOL0     O61833   3.948   6.064   3.162 -0.1205 -0.0542  0.6284
  459MOL0     C61834   3.820   6.075   3.197  0.2453 -0.0764  0.1810
  459MOL0     C61835   3.720   6.047   3.094 -0.4207  0.4327 -0.1223
  459MOL0     C61836   3.583   6.072   3.104  0.0882 -1.3219 -0.1377
  459MOL0     C61837   3.541   6.120   3.230  0.0095 -0.1271 -0.2551
  459MOL0     O61838   3.411   6.138   3.269  0.5120  0.1095  0.4347
  459MOL0     C61839   3.312   6.130   3.171 -0.0299 -0.5808  1.6806
  459MOL0     C61840   3.179   6.163   3.246 -0.9142  1.1019 -0.4358
  459MOL0     C61841   3.060   6.187   3.151  0.0961  0.9879  0.3481
  459MOL0     C61842   2.987   6.058   3.114 -0.0537 -0.3642  0.5011
  459MOL0     C61843   2.887   6.008   3.219  0.2356 -0.1077  0.5536
  459MOL0     C61844   2.748   5.999   3.160 -0.5293  0.0434 -0.9452
  459MOL0     C61845   2.676   6.133   3.167 -0.3759  0.0075 -0.0954
  459MOL0     C61846   2.546   6.145   3.094 -1.3069  0.8066  0.2311
  459MOL0     N61847   2.429   6.074   3.155  0.4371  0.6667  0.3911
  459MOL0     C61848   2.334   6.127   3.233 -0.3364 -0.2594 -0.6894
  459MOL0     C61849   2.236   6.033   3.236 -0.3552 -0.0682  0.5598
  459MOL0     C61850   2.104   6.042   3.302 -0.6341  1.1454 -0.3517
  459MOL0     C61851   1.989   5.982   3.222  0.0831  0.4406  0.0955
  459MOL0     C61852   1.858   5.969   3.306 -0.2643  0.3452  0.1553
  459MOL0     C61853   1.857   5.907   3.448  0.7163  0.5084  0.3306
  459MOL0     O61854   1.804   5.772   3.456  0.1692 -0.1152 -0.0274
  459MOL0     C61855   1.669   5.737   3.446  0.1696  0.0970 -0.3492
  459MOL0     C61856   1.637   5.604   3.455 -0.9706 -0.1154 -0.2554
  459MOL0     C61857   1.507   5.547   3.443 -0.5229  0.9994 -0.4305
  459MOL0     C61858   1.494   5.400   3.464  0.2289 -0.0526  0.3671
  459MOL0     C61859   1.408   5.635   3.411 -0.8415 -0.2819 -0.4454
  459MOL0     C61860   1.266   5.592   3.386  0.1159  0.8749 -0.6777
  459MOL0     O61861   1.169   5.685   3.402 -0.0232 -0.4534  0.1941
  459MOL0     C61862   1.036   5.651   3.395  1.0640  0.0727 -0.6431
  459MOL0     C61863   0.983   5.536   3.456 -0.6047 -0.0438  0.5391
  459MOL0     C61864   0.847   5.516   3.470 -0.5286 -0.1391  0.0117
  459MOL0     C61865   0.750   5.618   3.433 -0.4710 -0.1800 -0.1452
  459MOL0     O61866   0.621   5.592   3.458 -0.2849  0.3501  0.0550
  459MOL0     C61867   0.518   5.676   3.406  0.3155  0.0214  0.3310
  459MOL0     C61868   0.384   5.638   3.471 -0.2456 -0.3476 -0.9570
  459MOL0     C61869   0.274   5.727   3.414 -0.1837 -0.2808 -0.3742
  459MOL0     C61870   0.135   5.660   3.451 -0.5890 -0.5395 -1.2566
  459MOL0     C61871   0.025   5.735   3.396 -1.2492 -0.4207  0.1892
  459MOL0     C61872  -0.104   5.679   3.438  0.2240 -0.4237 -0.0777
  459MOL0     C61873  -0.218   5.768   3.398  0.3687  1.3619  0.2806
  459MOL0     C61874  -0.353   5.695   3.425 -0.2177  0.6810  0.0063
  459MOL0    Cl61875  -0.372   5.557   3.331 -0.0858  0.8938  0.0099
  459MOL0     C61876   0.796   5.736   3.382 -0.1680 -0.9960  0.7117
  459MOL0     C61877   0.936   5.750   3.356  0.8566 -0.2730 -0.2299
  459MOL0     O61878   1.248   5.473   3.351  0.3083 -0.5898  0.4350
  459MOL0     C61879   1.439   5.775   3.417  0.3073  1.0123 -0.0232
  459MOL0     C61880   1.565   5.827   3.442  0.5490  0.3893  1.1952
  459MOL0     N61881   2.286   5.920   3.170 -0.3161  0.2404 -1.0976
  459MOL0     N61882   2.400   5.942   3.125  1.5139  0.2105 -0.3921
  459MOL0     C61883   3.633   6.140   3.336 -1.2591 -0.6739  0.3190
  459MOL0     C61884   3.769   6.122   3.320  0.3900 -0.5613  0.1776
  459MOL0     C61885   4.180   6.102   3.156 -0.7877  0.6243  0.1120
  459MOL0     C61886   4.186   6.056   3.021  0.8206  0.2508 -0.2462
  459MOL0     C61887   4.302   6.068   2.955  0.2170 -0.7207  0.1727
  459MOL0     C61888   4.417   6.118   3.009 -0.9874 -0.5125 -0.3667
  459MOL0     O61889   4.542   6.108   2.953  0.0530 -0.7803  0.3295
  459MOL0     C61890   4.556   6.076   2.811 -0.8199 -0.5590 -0.3707
  459MOL0     C61891   4.514   6.189   2.718  0.6576 -0.3409  0.5739
  459MOL0     C61892   4.577   6.172   2.580 -0.7744 -0.4396  0.1695
  459MOL0     C61893   4.534   6.039   2.516  0.1519 -0.5602  0.0001
  459MOL0     C61894   4.591   6.028   2.382 -0.0689  0.7353  0.2384
  459MOL0     C61895   4.653   6.001   2.283 -0.3799 -0.4467  0.2812
  459MOL0     C61896   4.420   6.159   3.144 -0.0895 -0.4963  0.1941
  459MOL0     C61897   4.304   6.152   3.215  1.0346  0.8015  0.2345
  459MOL0     H61898   3.766   6.023   2.998  0.7802  0.3613  0.4437
  459MOL0     H61899   3.520   6.051   3.018 -0.0956 -1.4511  0.0281
  459MOL0     H61900   3.317   6.193   3.081 -0.0419 -0.8054  1.5227
  459MOL0     H61901   3.298   6.027   3.137  1.2735  0.0566 -1.0648
  459MOL0     H61902   3.165   6.079   3.315  3.8555  1.8195  1.8462
  459MOL0     H61903   3.207   6.256   3.296 -1.9588  1.0856  0.1932
  459MOL0     H61904   2.992   6.259   3.197  0.3902  2.6559 -1.6586
  459MOL0     H61905   3.092   6.235   3.057  0.2519  0.7328  0.2712
  459MOL0     H61906   2.920   6.081   3.031 -0.6986 -1.7476  0.6178
  459MOL0     H61907   3.045   5.974   3.075  0.2670  0.1495 -0.1719
  459MOL0     H61908   2.930   5.911   3.245  0.3553 -1.2666 -3.3669
  459MOL0     H61909   2.890   6.072   3.308  2.6587  1.6502 -0.6693
  459MOL0     H61910   2.748   5.961   3.057  1.1809  1.7151 -1.6192
  459MOL0     H61911   2.690   5.927   3.219 -0.0512 -0.1947 -0.7611
  459MOL0     H61912   2.654   6.153   3.272  2.3420 -0.9305  0.7226
  459MOL0     H61913   2.747   6.210   3.136 -0.3066  0.5421  1.3032
  459MOL0     H61914   2.551   6.105   2.992 -3.4584  3.6277 -1.1193
  459MOL0     H61915   2.528   6.252   3.082  1.3341  1.3303  0.3542
  459MOL0     H61916   2.317   6.229   3.266 -1.3275 -1.2686  2.2937
  459MOL0     H61917   2.127   5.978   3.388  0.4068 -0.0684 -1.4991
  459MOL0     H61918   2.092   6.145   3.338  1.2917  1.1126  0.5162
  459MOL0     H61919   2.018   5.882   3.191 -2.4894  0.1666 -1.7679
  459MOL0     H61920   1.958   6.045   3.138 -2.4587  0.7751  1.1871
  459MOL0     H61921   1.801   5.909   3.235  1.0057  0.1784 -0.7691
  459MOL0     H61922   1.811   6.067   3.319 -2.1708 -0.6229  0.8079
  459MOL0     H61923   1.796   5.963   3.518  2.5550 -0.2437  2.6524
  459MOL0     H61924   1.960   5.902   3.485  1.0629  1.6460 -0.4317
  459MOL0     H61925   1.723   5.542   3.479  0.0130  1.4547  0.4443
  459MOL0     H61926   1.480   5.348   3.369 -1.7514  2.1585 -0.6586
  459MOL0     H61927   1.585   5.371   3.517  2.3834  0.6470 -2.6746
  459MOL0     H61928   1.416   5.367   3.533  0.0902 -0.7046 -0.0953
  459MOL0     H61929   1.049   5.458   3.493  0.9410  0.1475 -1.5900
  459MOL0     H61930   0.812   5.433   3.531  0.4028  0.4387  1.4073
  459MOL0     H61931   0.536   5.782   3.423 -0.2023  0.0130  0.9752
  459MOL0     H61932   0.509   5.681   3.297  0.9102  0.5736  0.3024
  459MOL0     H61933   0.375   5.534   3.439 -0.9692 -1.3192  2.0516
  459MOL0     H61934   0.383   5.640   3.581  0.0221 -2.3608 -0.8688
  459MOL0     H61935   0.281   5.738   3.306 -2.1477  3.1131 -0.3075
  459MOL0     H61936   0.279   5.829   3.454 -2.7219 -1.6295  4.1134
  459MOL0     H61937   0.124   5.556   3.420  1.3740 -0.3038 -2.9826
  459MOL0     H61938   0.122   5.664   3.559 -3.8192 -0.2287 -1.5561
  459MOL0     H61939   0.026   5.739   3.286 -0.8987 -1.2996  0.1498
  459MOL0     H61940   0.033   5.836   3.435  0.3768 -1.2970  2.3211
  459MOL0     H61941  -0.106   5.580   3.390 -0.2161 -0.2087 -0.5145
  459MOL0     H61942  -0.109   5.660   3.545 -3.5836  3.5663  0.7147
  459MOL0     H61943  -0.231   5.795   3.293 -0.3475  1.7341  0.4528
  459MOL0     H61944  -0.224   5.865   3.449  1.5658  1.0531  1.0389
  459MOL0     H61945  -0.431   5.765   3.392 -0.2842 -0.0555 -1.5440
  459MOL0     H61946  -0.371   5.673   3.530 -0.5507 -1.0653 -0.3749
  459MOL0     H61947   0.729   5.819   3.359  1.6200  1.4913  3.6333
  459MOL0     H61948   0.982   5.846   3.339  1.7263 -0.5220  0.5988
  459MOL0     H61949   1.365   5.854   3.410 -1.8683 -0.8567  0.3037
  459MOL0     H61950   1.593   5.931   3.429  2.8097  0.1532  3.3615
  459MOL0     H61951   3.602   6.179   3.432  0.3061  3.2802 -0.5681
  459MOL0     H61952   3.828   6.140   3.410 -1.1300 -0.7664  1.2657
  459MOL0     H61953   4.094   6.029   2.970  0.3971 -0.0516  0.6472
  459MOL0     H61954   4.297   6.036   2.851 -0.3418 -1.4271  0.4177
  459MOL0     H61955   4.662   6.056   2.792 -0.0661  0.8231  1.9524
  459MOL0     H61956   4.498   5.985   2.793 -0.3845 -1.0122  0.4624
  459MOL0     H61957   4.540   6.283   2.767 -1.0954 -1.0890  3.1263
  459MOL0     H61958   4.406   6.176   2.705  0.8498 -1.8327  0.2602
  459MOL0     H61959   4.687   6.173   2.585 -0.3754 -1.6353 -4.1832
  459MOL0     H61960   4.553   6.258   2.517  1.5176 -0.7880 -1.2873
  459MOL0     H61961   4.425   6.043   2.503 -0.2276 -2.6924  1.9926
  459MOL0     H61962   4.562   5.950   2.572  0.4697  0.5911  1.7581
  459MOL0     H61963   4.703   5.978   2.191 -1.2256 -2.4228  0.2667
  459MOL0     H61964   4.506   6.206   3.191 -0.4687 -1.5782  2.1041
  459MOL0     H61965   4.290   6.176   3.320  1.8516 -0.4833  0.6669
  460MOL0     O61966   6.456   8.760   8.958  0.2307 -0.6992  0.2533
  460MOL0     C61967   6.375   8.806   9.042  0.3508 -0.6212  0.1708
  460MOL0     O61968   6.403   8.905   9.130  0.8205 -0.2981  0.1580
  460MOL0     C61969   6.534   8.954   9.154 -0.1089  0.6585 -0.2952
  460MOL0     C61970   6.653   8.889   9.131  0.0945  0.3576 -0.0938
  460MOL0     C61971   6.777   8.953   9.150 -0.6056  0.0910 -0.2574
  460MOL0     C61972   6.777   9.090   9.191 -0.2994 -0.2942 -0.2545
  460MOL0     O61973   6.890   9.162   9.229 -0.0117 -0.3400  0.3203
  460MOL0     C61974   7.014   9.091   9.236 -0.3591  0.1920 -0.2655
  460MOL0     C61975   7.119   9.195   9.244 -0.4503  0.2564 -0.6687
  460MOL0     C61976   7.266   9.142   9.281 -1.7060  0.2045 -0.6931
  460MOL0     C61977   7.356   9.253   9.262  0.8233 -1.5629 -0.1827
  460MOL0     C61978   7.505   9.231   9.303 -0.2832  0.0946  0.0246
  460MOL0     C61979   7.594   9.329   9.227  0.2882  0.3407 -0.3778
  460MOL0     C61980   7.733   9.291   9.241 -0.5750  0.5268 -0.0011
  460MOL0     C61981   7.816   9.375   9.147  0.8709 -0.1017 -0.0404
  460MOL0     N61982   7.958   9.344   9.170 -0.5970  0.2084  0.0239
  460MOL0     C61983   8.058   9.435   9.173 -0.1557  0.1457 -0.7147
  460MOL0     C61984   8.178   9.368   9.170  0.0635 -0.0904 -0.4269
  460MOL0     C61985   8.313   9.427   9.181  0.1973 -0.1870 -0.2855
  460MOL0     C61986   8.397   9.406   9.054 -0.2485  0.0631 -0.9256
  460MOL0     C61987   8.334   9.483   8.938  0.8580 -0.1423 -0.4943
  460MOL0     C61988   8.392   9.444   8.805 -0.3961 -0.1194  0.2482
  460MOL0     O61989   8.350   9.321   8.750 -0.3401  0.0325  0.3085
  460MOL0     C61990   8.213   9.306   8.737  0.6429  0.7968  0.1130
  460MOL0     C61991   8.140   9.378   8.646  0.7095  0.0584 -0.0817
  460MOL0     C61992   8.001   9.377   8.637 -0.1278  0.3788 -0.7754
  460MOL0     C61993   7.937   9.445   8.523 -0.3268  0.3019  0.1438
  460MOL0     C61994   7.930   9.290   8.740 -0.7019 -0.0510 -0.5526
  460MOL0     C61995   7.785   9.267   8.747 -1.2612  0.8185  0.0454
  460MOL0     O61996   7.726   9.212   8.864  0.9777 -0.1124  0.4883
  460MOL0     C61997   7.588   9.192   8.869 -0.1997  1.0351  0.1935
  460MOL0     C61998   7.496   9.300   8.829 -0.9302  0.8230 -0.1443
  460MOL0     C61999   7.360   9.275   8.842 -0.4726 -1.0763  0.1540
  460MOL0     C62000   7.305   9.151   8.884  0.6424 -0.0667 -0.3419
  460MOL0     O62001   7.174   9.126   8.900  0.0060 -0.3325  0.4217
  460MOL0     C62002   7.075   9.216   8.844 -0.3721  0.1226 -0.1246
  460MOL0     C62003   6.931   9.167   8.828 -0.3987  0.2025  0.2775
  460MOL0     C62004   6.847   9.271   8.762 -0.9050 -0.0113 -0.5000
  460MOL0     C62005   6.712   9.209   8.754 -0.7977 -0.7420  0.8999
  460MOL0     C62006   6.615   9.310   8.685 -0.6066 -0.1795 -0.5498
  460MOL0     C62007   6.481   9.243   8.653  0.1704  0.6818 -0.0286
  460MOL0     C62008   6.378   9.351   8.613  0.5444 -0.2405  0.7379
  460MOL0     C62009   6.242   9.292   8.576 -0.1223 -0.3168 -0.4706
  460MOL0    Cl62010   6.178   9.220   8.719  0.0802  0.1917  0.1579
  460MOL0     C62011   7.391   9.054   8.916  0.2124  0.3546 -0.4329
  460MOL0     C62012   7.535   9.067   8.916 -1.1284 -0.8906  0.1433
  460MOL0     O62013   7.732   9.288   8.642 -0.1549  0.0849 -0.0528
  460MOL0     C62014   8.007   9.217   8.838 -0.4163 -0.0429  0.3561
  460MOL0     C62015   8.145   9.226   8.832 -0.2205 -0.9281  0.0478
  460MOL0     N62016   8.149   9.237   9.149 -0.5714  0.1186 -0.1314
  460MOL0     N62017   8.023   9.222   9.159 -0.1786 -0.4140 -0.3164
  460MOL0     C62018   6.663   9.156   9.215 -0.8122  0.2697 -0.6237
  460MOL0     C62019   6.540   9.081   9.200  0.0047  0.3320  0.0767
  460MOL0     C62020   6.247   8.748   9.017  1.3348  0.6294 -0.3554
  460MOL0     C62021   6.138   8.802   9.084  0.3439  0.3969 -0.0255
  460MOL0     C62022   6.015   8.730   9.077  0.3746  0.2276 -1.4680
  460MOL0     C62023   6.001   8.601   9.023 -0.5444 -0.7653 -0.1775
  460MOL0     O62024   5.883   8.538   9.047 -0.0741  0.4151 -0.4618
  460MOL0     C62025   5.880   8.408   9.005 -0.3953  0.1867 -0.4007
  460MOL0     C62026   5.764   8.350   9.078  0.4946 -0.0454 -0.1676
  460MOL0     C62027   5.758   8.205   9.045  0.2560 -0.2357  0.3867
  460MOL0     C62028   5.642   8.110   9.089 -0.1536  0.4414  0.0888
  460MOL0     C62029   5.637   7.999   8.994 -0.1488 -1.1403  0.7682
  460MOL0     C62030   5.624   7.910   8.916 -0.5127 -0.2592  0.4344
  460MOL0     C62031   6.106   8.559   8.929  0.0319  0.1783 -0.3418
  460MOL0     C62032   6.228   8.630   8.939 -0.3343 -0.6486  0.1343
  460MOL0     H62033   6.655   8.786   9.095  1.0627  1.6480 -4.3451
  460MOL0     H62034   6.869   8.909   9.113 -1.4756 -2.0854  0.0464
  460MOL0     H62035   7.012   9.016   9.315 -2.6406 -1.1667 -1.4893
  460MOL0     H62036   7.042   9.031   9.150  0.3568  0.6753 -0.3776
  460MOL0     H62037   7.127   9.230   9.140 -0.2920 -2.0667 -1.5136
  460MOL0     H62038   7.099   9.271   9.320  0.8347  0.2101 -0.2590
  460MOL0     H62039   7.271   9.105   9.384 -4.7478 -2.1168 -1.2108
  460MOL0     H62040   7.308   9.060   9.222  1.6453  1.8238 -0.7626
  460MOL0     H62041   7.347   9.276   9.155  1.6023  1.9334  0.4079
  460MOL0     H62042   7.310   9.338   9.313  0.7896 -1.1073 -0.9504
  460MOL0     H62043   7.514   9.243   9.411  0.6378 -1.1573  0.1094
  460MOL0     H62044   7.531   9.128   9.275 -1.7234 -0.1663 -0.4769
  460MOL0     H62045   7.561   9.322   9.123 -0.7300 -2.9510  0.0457
  460MOL0     H62046   7.591   9.428   9.273  0.4101 -1.1557  3.2427
  460MOL0     H62047   7.770   9.296   9.344 -0.8351  1.1134  0.0670
  460MOL0     H62048   7.748   9.188   9.207  0.3069  1.0283 -1.1907
  460MOL0     H62049   7.787   9.476   9.177  0.9466  0.2070 -0.9708
  460MOL0     H62050   7.794   9.369   9.040  1.9325  1.3237 -0.3806
  460MOL0     H62051   8.036   9.541   9.188 -0.0692 -0.1945  2.5550
  460MOL0     H62052   8.317   9.535   9.200 -0.8399  0.5126 -3.4647
  460MOL0     H62053   8.362   9.374   9.263  1.6986  1.4097 -0.0799
  460MOL0     H62054   8.400   9.299   9.033  0.8479 -0.1495  0.1950
  460MOL0     H62055   8.496   9.445   9.078 -0.8437  2.3742 -1.8636
  460MOL0     H62056   8.340   9.592   8.952 -2.0861  0.2714 -1.7243
  460MOL0     H62057   8.226   9.475   8.926  0.6042 -2.1200  2.1904
  460MOL0     H62058   8.501   9.447   8.813 -0.4188  0.7412  0.3957
  460MOL0     H62059   8.368   9.515   8.726  1.8013  0.5524  0.1111
  460MOL0     H62060   8.187   9.434   8.565 -0.9153  0.4791 -0.7651
  460MOL0     H62061   7.913   9.367   8.450  1.4517 -0.2566  0.1177
  460MOL0     H62062   7.852   9.499   8.565  0.3963  0.9429  0.8051
  460MOL0     H62063   7.996   9.529   8.487 -0.9277  1.8754  2.5844
  460MOL0     H62064   7.539   9.390   8.788 -1.8091  0.7618 -1.2508
  460MOL0     H62065   7.291   9.350   8.804 -1.4323 -0.9571  2.0354
  460MOL0     H62066   7.078   9.310   8.899  1.1061  0.0036  0.0288
  460MOL0     H62067   7.107   9.248   8.745 -1.4836  1.5168 -0.0737
  460MOL0     H62068   6.930   9.082   8.759  0.4314  1.4521 -1.3373
  460MOL0     H62069   6.886   9.151   8.926 -1.4659 -2.0872 -0.5273
  460MOL0     H62070   6.886   9.298   8.663  0.3288 -0.7544 -0.2328
  460MOL0     H62071   6.847   9.366   8.817  1.2601  0.1506 -0.7181
  460MOL0     H62072   6.705   9.113   8.704 -1.0055 -1.1967  1.7761
  460MOL0     H62073   6.681   9.188   8.857 -0.7179  1.3773  1.4019
  460MOL0     H62074   6.653   9.347   8.589  0.9510 -0.9618 -0.2753
  460MOL0     H62075   6.603   9.392   8.756  1.7078 -1.0872  1.0321
  460MOL0     H62076   6.495   9.181   8.564 -2.1880  0.8183 -0.5586
  460MOL0     H62077   6.447   9.173   8.730  1.1824 -3.0267 -2.6457
  460MOL0     H62078   6.425   9.397   8.526  0.2957  1.5969  1.5193
  460MOL0     H62079   6.373   9.427   8.692 -0.2391 -0.4987  0.9496
  460MOL0     H62080   6.267   9.218   8.500 -0.6869 -1.6533  0.5984
  460MOL0     H62081   6.171   9.360   8.529  0.9932  1.5195  0.3634
  460MOL0     H62082   7.347   8.969   8.968  0.8121  1.0205  1.2183
  460MOL0     H62083   7.595   8.990   8.964  0.3328  0.1966  0.1021
  460MOL0     H62084   7.956   9.143   8.899  0.9580 -2.7609 -1.6184
  460MOL0     H62085   8.199   9.161   8.899 -3.3781 -2.4538  1.3205
  460MOL0     H62086   6.677   9.261   9.242 -0.6948  0.2227 -0.5008
  460MOL0     H62087   6.444   9.116   9.235  0.5161 -0.6260  2.6156
  460MOL0     H62088   6.133   8.892   9.144  2.6062  0.0756  0.7535
  460MOL0     H62089   5.931   8.764   9.137  0.4034 -0.9511 -0.7277
  460MOL0     H62090   5.871   8.399   8.896  0.2502  2.4749 -0.7060
  460MOL0     H62091   5.973   8.363   9.041  0.8098  1.7018 -1.4893
  460MOL0     H62092   5.674   8.399   9.040  0.1151 -1.2036 -0.8040
  460MOL0     H62093   5.778   8.370   9.184  0.2890 -2.9281  0.4787
  460MOL0     H62094   5.848   8.164   9.091  0.9373  0.7718 -0.0482
  460MOL0     H62095   5.758   8.196   8.936  0.0459  1.0984  0.2606
  460MOL0     H62096   5.552   8.170   9.078  0.0456  0.8520  0.6212
  460MOL0     H62097   5.656   8.068   9.190  2.5459 -2.1639 -1.2146
  460MOL0     H62098   5.622   7.832   8.842  1.0897 -0.7439  0.8421
  460MOL0     H62099   6.087   8.470   8.870 -1.3566 -0.6657  1.3098
  460MOL0     H62100   6.308   8.593   8.876 -0.6304 -0.2316 -0.4994
  461MOL0     O62101   6.375   9.002   1.355  0.4613  0.5339  0.2339
  461MOL0     C62102   6.458   9.054   1.433 -0.0756  0.6232  0.4598
  461MOL0     O62103   6.431   9.082   1.561  0.2383  0.1562 -0.5597
  461MOL0     C62104   6.320   9.030   1.616  0.0128  0.5405 -0.0159
  461MOL0     C62105   6.293   8.891   1.613  0.4043 -0.1880  0.8777
  461MOL0     C62106   6.182   8.846   1.679 -0.5703  0.5238  0.3137
  461MOL0     C62107   6.098   8.932   1.751  0.4253 -0.0398 -0.3437
  461MOL0     O62108   5.985   8.877   1.811 -0.2142  0.1257  0.7832
  461MOL0     C62109   5.883   8.965   1.846 -0.3001  0.2690  0.8949
  461MOL0     C62110   5.749   8.889   1.817  0.8574 -0.5399 -0.2491
  461MOL0     C62111   5.632   8.944   1.902  0.5342  0.2090 -1.1339
  461MOL0     C62112   5.506   8.984   1.819 -0.5477  0.4371 -1.3892
  461MOL0     C62113   5.415   9.069   1.904 -0.1231  0.1551  0.1638
  461MOL0     C62114   5.314   9.129   1.818  0.2048 -0.0358  0.6576
  461MOL0     C62115   5.198   9.190   1.889  0.8753  0.0197  1.0272
  461MOL0     C62116   5.104   9.104   1.984  0.0412  0.6302 -0.1712
  461MOL0     N62117   5.025   9.001   1.902  0.2382 -0.2280 -0.7474
  461MOL0     C62118   5.068   8.888   1.836 -0.3947  0.2159 -0.4860
  461MOL0     C62119   4.971   8.856   1.746 -0.2724  0.3985 -0.0004
  461MOL0     C62120   4.962   8.749   1.646 -0.7226  0.9329  0.5819
  461MOL0     C62121   4.936   8.616   1.714  0.2656  0.0325  0.3129
  461MOL0     C62122   4.792   8.599   1.752 -0.3273 -0.0106 -0.0030
  461MOL0     C62123   4.782   8.473   1.829 -0.0627 -0.7000  0.3047
  461MOL0     O62124   4.866   8.469   1.945  0.1808  0.9641 -0.2090
  461MOL0     C62125   4.823   8.465   2.072  0.1546 -0.2590 -0.2281
  461MOL0     C62126   4.689   8.456   2.117  0.0392 -0.0810 -0.3986
  461MOL0     C62127   4.651   8.449   2.250 -0.1766  0.8246 -0.0481
  461MOL0     C62128   4.501   8.435   2.289 -0.1271  0.2513  0.2577
  461MOL0     C62129   4.753   8.469   2.348  0.5570 -0.5241 -0.2760
  461MOL0     C62130   4.735   8.480   2.496  1.0074  0.5590 -0.1038
  461MOL0     O62131   4.835   8.532   2.559 -0.2333 -0.3733 -0.1793
  461MOL0     C62132   4.823   8.562   2.702  0.6641 -0.5884  0.5940
  461MOL0     C62133   4.861   8.689   2.734 -0.4263 -0.4652  0.3211
  461MOL0     C62134   4.853   8.738   2.865 -0.0190  0.2410  0.2726
  461MOL0     C62135   4.817   8.645   2.968 -0.0720 -0.7293  0.4440
  461MOL0     O62136   4.833   8.687   3.101  0.2285  0.1297 -0.8348
  461MOL0     C62137   4.776   8.602   3.205 -0.4142 -0.1027  0.3666
  461MOL0     C62138   4.754   8.688   3.332 -0.0017  0.0180 -0.4270
  461MOL0     C62139   4.888   8.759   3.378  0.1512  0.4246 -0.0081
  461MOL0     C62140   4.978   8.652   3.439  0.2964  0.1501 -0.5310
  461MOL0     C62141   5.087   8.718   3.527  0.2233  0.4002 -0.3695
  461MOL0     C62142   5.036   8.761   3.664  0.2880 -0.0676 -0.5715
  461MOL0     C62143   5.145   8.826   3.755  0.3819  0.5106  1.3732
  461MOL0     C62144   5.126   8.975   3.761  0.3781 -0.6363  0.7421
  461MOL0    Cl62145   5.235   9.057   3.880 -0.0979  0.0031 -0.0620
  461MOL0     C62146   4.781   8.509   2.929 -0.1319 -0.5373 -0.3096
  461MOL0     C62147   4.786   8.476   2.793 -0.1565  0.1326  0.7492
  461MOL0     O62148   4.629   8.452   2.550 -0.2499  0.0447 -0.1368
  461MOL0     C62149   4.883   8.484   2.305 -0.2231 -0.4945 -0.1899
  461MOL0     C62150   4.926   8.480   2.165 -0.7660 -0.0578  0.7170
  461MOL0     N62151   4.869   8.942   1.774 -0.3285 -0.4393 -0.0998
  461MOL0     N62152   4.899   9.027   1.874  0.2054  0.1262  0.3145
  461MOL0     C62153   6.122   9.064   1.743 -0.5280 -0.0278  0.5339
  461MOL0     C62154   6.232   9.118   1.681  0.3093 -0.3966 -0.2390
  461MOL0     C62155   6.590   9.080   1.376 -0.2008  0.7049  0.2649
  461MOL0     C62156   6.620   9.026   1.248 -0.8093  0.0785 -0.3804
  461MOL0     C62157   6.753   9.052   1.207  0.0917  0.1576  0.1289
  461MOL0     C62158   6.847   9.113   1.282  1.1993  0.2210  0.6267
  461MOL0     O62159   6.970   9.139   1.224  0.0436  0.6266 -0.7282
  461MOL0     C62160   7.054   9.233   1.291  0.5041  0.7846 -0.0346
  461MOL0     C62161   7.183   9.250   1.212  0.6786 -0.3753 -0.2964
  461MOL0     C62162   7.293   9.149   1.263 -0.9445 -0.2183 -0.0851
  461MOL0     C62163   7.401   9.132   1.158 -0.0986 -0.2921  1.2406
  461MOL0     C62164   7.485   9.026   1.198  0.5140 -0.2480  0.9639
  461MOL0     C62165   7.566   8.933   1.219  0.5563 -0.5451  0.9090
  461MOL0     C62166   6.825   9.146   1.413  0.2997 -0.1032 -0.4374
  461MOL0     C62167   6.689   9.140   1.459 -0.8889 -0.5232 -0.2266
  461MOL0     H62168   6.371   8.824   1.579 -1.5783 -1.4459 -1.4927
  461MOL0     H62169   6.157   8.740   1.679  1.9991 -0.1823 -1.1066
  461MOL0     H62170   5.884   8.989   1.953 -2.2444  1.8622  0.6218
  461MOL0     H62171   5.869   9.059   1.792  0.7903  0.0333  0.1766
  461MOL0     H62172   5.735   8.894   1.709  1.4183  2.2488 -0.2609
  461MOL0     H62173   5.765   8.787   1.852 -2.3469 -1.2088 -0.4718
  461MOL0     H62174   5.607   8.874   1.983 -0.7971  1.9909  0.0610
  461MOL0     H62175   5.669   9.039   1.939  1.2155  0.7720 -3.1284
  461MOL0     H62176   5.541   9.048   1.737 -0.7822  4.0079  1.0413
  461MOL0     H62177   5.460   8.892   1.783  0.3456 -1.5079  2.0051
  461MOL0     H62178   5.373   9.012   1.987  2.7190  0.5307  2.0046
  461MOL0     H62179   5.466   9.150   1.957  1.5918 -1.2335  0.7773
  461MOL0     H62180   5.363   9.204   1.755 -3.0327  0.4540 -1.5352
  461MOL0     H62181   5.271   9.060   1.746 -2.2849  2.1213 -0.0842
  461MOL0     H62182   5.250   9.266   1.948  1.3952  0.0116  0.5856
  461MOL0     H62183   5.129   9.246   1.826 -0.0200 -1.1740  0.8978
  461MOL0     H62184   5.040   9.165   2.048 -1.2275  0.1601 -0.9486
  461MOL0     H62185   5.168   9.048   2.052 -2.7955 -0.7904  1.4874
  461MOL0     H62186   5.162   8.834   1.839 -2.1295 -3.0252  2.5096
  461MOL0     H62187   4.892   8.773   1.566 -0.7852  2.8197  1.1630
  461MOL0     H62188   5.063   8.738   1.605 -1.7055 -0.3000 -1.7280
  461MOL0     H62189   4.992   8.615   1.808  0.1073  1.0398  0.4283
  461MOL0     H62190   4.975   8.531   1.657 -0.7637 -0.4480  0.3024
  461MOL0     H62191   4.726   8.602   1.665 -2.1462  2.0252  1.3647
  461MOL0     H62192   4.757   8.688   1.804 -3.9403 -0.0118 -2.0828
  461MOL0     H62193   4.800   8.385   1.767  0.9906 -1.2374  1.3521
  461MOL0     H62194   4.676   8.461   1.855 -0.0372 -0.5606  0.4699
  461MOL0     H62195   4.606   8.449   2.047 -2.9239  0.9928  2.7348
  461MOL0     H62196   4.498   8.357   2.366 -0.7179  0.9218  0.9275
  461MOL0     H62197   4.455   8.522   2.337 -1.2809 -0.2934  0.1738
  461MOL0     H62198   4.439   8.413   2.202 -1.0230  1.4396  0.5608
  461MOL0     H62199   4.895   8.758   2.658  0.6895  1.2212  2.2254
  461MOL0     H62200   4.878   8.839   2.894 -0.2943  0.2695  0.4137
  461MOL0     H62201   4.678   8.559   3.182  1.1986 -4.1951  0.4529
  461MOL0     H62202   4.841   8.520   3.236  0.0751  0.2990  0.4025
  461MOL0     H62203   4.681   8.768   3.315  1.1988  0.9036 -1.5805
  461MOL0     H62204   4.713   8.630   3.416 -1.5752  0.4043 -0.8917
  461MOL0     H62205   4.863   8.831   3.457 -1.1314 -0.2711  0.2508
  461MOL0     H62206   4.935   8.809   3.293 -2.5841 -1.3677 -2.7996
  461MOL0     H62207   4.920   8.585   3.504 -0.4182 -0.0360 -1.3522
  461MOL0     H62208   5.022   8.585   3.365  0.6281  2.1163 -2.1913
  461MOL0     H62209   5.141   8.798   3.477  1.4514  0.6388  1.2528
  461MOL0     H62210   5.162   8.640   3.545 -0.5269 -0.2362  0.0870
  461MOL0     H62211   4.955   8.834   3.652  1.4292  1.3049 -0.2947
  461MOL0     H62212   4.988   8.669   3.699  2.4846 -0.3932  1.9752
  461MOL0     H62213   5.246   8.804   3.717 -0.2504  0.7719 -0.5815
  461MOL0     H62214   5.137   8.777   3.852  0.5349 -0.7387  0.7862
  461MOL0     H62215   5.025   9.004   3.789  0.9375  1.5507  0.6560
  461MOL0     H62216   5.147   9.018   3.663 -0.6285 -1.2730  0.2283
  461MOL0     H62217   4.759   8.437   3.007  2.1931 -1.3328 -0.3296
  461MOL0     H62218   4.751   8.376   2.766  1.0391  0.7944 -4.4047
  461MOL0     H62219   4.966   8.494   2.374 -0.9647  0.7700  0.5693
  461MOL0     H62220   5.033   8.492   2.151 -1.1691  0.3160 -3.0752
  461MOL0     H62221   6.071   9.146   1.792 -0.4169 -0.7546  1.9186
  461MOL0     H62222   6.254   9.224   1.684 -0.4385 -0.2615  1.4639
  461MOL0     H62223   6.574   8.939   1.202  3.5105 -2.2601 -0.8336
  461MOL0     H62224   6.780   9.026   1.105  0.4742  2.2374 -0.3612
  461MOL0     H62225   7.001   9.328   1.294 -0.5859  0.2270  4.0451
  461MOL0     H62226   7.074   9.204   1.394 -2.0341  0.9063  0.5345
  461MOL0     H62227   7.192   9.355   1.240  0.0021 -0.2620 -0.4846
  461MOL0     H62228   7.163   9.231   1.107 -3.2979 -2.5686  0.6335
  461MOL0     H62229   7.251   9.055   1.298  2.2733 -0.7418  2.8293
  461MOL0     H62230   7.337   9.195   1.352  0.0461  0.1687 -0.7577
  461MOL0     H62231   7.455   9.226   1.145 -0.8300 -0.2496 -2.6964
  461MOL0     H62232   7.360   9.111   1.059 -1.2412  4.6157  0.3821
  461MOL0     H62233   7.639   8.855   1.225  0.5674 -0.4308  2.8800
  461MOL0     H62234   6.899   9.203   1.468  0.1147 -0.1606 -0.1302
  461MOL0     H62235   6.658   9.191   1.549  1.0570  2.6454 -1.1991
  462MOL0     O62236   6.446   9.790   6.910  0.1139  0.6418  0.1271
  462MOL0     C62237   6.476   9.903   6.942  0.4623  0.3158  0.5177
  462MOL0     O62238   6.415   9.984   7.037 -0.1242  0.1555 -1.0080
  462MOL0     C62239   6.288   9.946   7.075 -0.3509  1.2171 -0.1521
  462MOL0     C62240   6.179   9.925   6.987  0.0790  0.6991  0.0847
  462MOL0     C62241   6.057   9.872   7.026 -0.3969  0.4640  0.3931
  462MOL0     C62242   6.033   9.853   7.168  0.9798  0.7864  0.3181
  462MOL0     O62243   5.915   9.818   7.227  0.2308 -0.1267  0.4947
  462MOL0     C62244   5.835   9.732   7.155 -0.4455 -0.2952  0.5690
  462MOL0     C62245   5.713   9.811   7.106 -0.2533 -0.3396  0.9554
  462MOL0     C62246   5.626   9.728   7.010  0.2164 -0.4241 -0.3446
  462MOL0     C62247   5.530   9.633   7.089  0.0542 -0.6040  0.2875
  462MOL0     C62248   5.442   9.546   7.001  0.1040 -0.1613 -0.9513
  462MOL0     C62249   5.321   9.486   7.080 -0.8981 -0.0508  0.5267
  462MOL0     C62250   5.236   9.398   6.986 -0.2606 -0.0907  0.4112
  462MOL0     C62251   5.113   9.355   7.064 -0.2571  0.1608  0.5510
  462MOL0     N62252   5.015   9.293   6.974 -0.4810  0.0412  0.5146
  462MOL0     C62253   5.028   9.175   6.905 -0.1389  0.1170  0.0365
  462MOL0     C62254   4.909   9.160   6.834 -0.3019 -0.0347 -0.8304
  462MOL0     C62255   4.880   9.051   6.732  0.0083  0.2236 -0.3297
  462MOL0     C62256   4.780   8.953   6.798  0.3686 -0.4063 -0.6885
  462MOL0     C62257   4.627   8.999   6.801 -0.3574 -0.7588 -0.1958
  462MOL0     C62258   4.584   9.089   6.677 -0.3358  0.6702 -0.8941
  462MOL0     O62259   4.445   9.075   6.684 -0.0430  0.6897  0.5971
  462MOL0     C62260   4.361   9.152   6.759 -0.7278 -0.6342 -0.2492
  462MOL0     C62261   4.227   9.128   6.742 -0.4000 -0.2325 -0.6500
  462MOL0     C62262   4.138   9.194   6.825 -0.9521 -0.6212  0.2459
  462MOL0     C62263   3.998   9.151   6.803 -0.5807  0.2735 -0.3846
  462MOL0     C62264   4.188   9.282   6.927  0.0213 -0.1826  0.7437
  462MOL0     C62265   4.095   9.367   7.007  0.0480  0.8156  0.3929
  462MOL0     O62266   3.960   9.341   7.012 -0.0845 -0.5919  0.2517
  462MOL0     C62267   3.889   9.409   7.108 -0.0461 -0.7295 -0.3456
  462MOL0     C62268   3.810   9.338   7.197  0.1610  0.0190 -0.0740
  462MOL0     C62269   3.715   9.390   7.282  0.1240  0.4532 -0.0764
  462MOL0     C62270   3.697   9.529   7.288  0.5060 -0.4025 -0.8082
  462MOL0     O62271   3.601   9.567   7.377 -0.1282 -0.8149  0.0783
  462MOL0     C62272   3.541   9.697   7.361 -0.1726  0.1409  0.4040
  462MOL0     C62273   3.400   9.677   7.420 -0.1012 -0.4161  0.5154
  462MOL0     C62274   3.317   9.803   7.381 -0.1491  0.0871  0.3809
  462MOL0     C62275   3.174   9.793   7.438  0.6576 -0.7661  0.0343
  462MOL0     C62276   3.082   9.862   7.343  0.9855 -0.3419  0.8146
  462MOL0     C62277   2.933   9.879   7.386 -0.2351  0.2001 -0.7830
  462MOL0     C62278   2.844   9.922   7.269  0.5949  0.2248 -0.7127
  462MOL0     C62279   2.698   9.914   7.307  0.4015  1.0779  0.1165
  462MOL0    Cl62280   2.662  10.016   7.455  0.2684  0.5587 -0.0506
  462MOL0     C62281   3.775   9.607   7.198 -0.0886  0.1796 -0.2331
  462MOL0     C62282   3.872   9.549   7.114  0.0436 -0.0253 -0.0075
  462MOL0     O62283   4.146   9.451   7.084 -0.1283  1.1975 -0.0491
  462MOL0     C62284   4.321   9.298   6.942  0.6259  0.1482 -0.4057
  462MOL0     C62285   4.407   9.242   6.851  0.4716  0.3566 -0.0942
  462MOL0     N62286   4.830   9.274   6.864 -0.2669  0.6236  1.1188
  462MOL0     N62287   4.898   9.346   6.946  0.2311 -0.5667  0.1844
  462MOL0     C62288   6.134   9.877   7.257 -0.4410 -0.5393 -0.1969
  462MOL0     C62289   6.261   9.925   7.213 -0.7126  1.1299 -0.7992
  462MOL0     C62290   6.587   9.972   6.885  0.6377  0.5745 -0.4544
  462MOL0     C62291   6.633   9.926   6.761  0.5977  0.1189  0.8763
  462MOL0     C62292   6.744   9.979   6.704 -0.1719 -0.2015  0.8172
  462MOL0     C62293   6.814  10.087   6.767  0.8833  0.3595  0.4915
  462MOL0     O62294   6.925  10.133   6.699 -0.5644  0.0040 -0.5651
  462MOL0     C62295   6.964  10.271   6.704  0.1694  0.1310  0.1167
  462MOL0     C62296   7.111  10.296   6.742  0.0804 -0.3426 -0.2970
  462MOL0     C62297   7.121  10.443   6.792 -0.7580 -0.3034  0.1948
  462MOL0     C62298   7.261  10.472   6.853  0.3219 -0.6810  0.0273
  462MOL0     C62299   7.361  10.460   6.748 -0.1985  0.2462 -0.3351
  462MOL0     C62300   7.432  10.433   6.659 -0.3185  0.2016 -1.0565
  462MOL0     C62301   6.769  10.122   6.893  0.2225 -0.9760 -0.3436
  462MOL0     C62302   6.650  10.074   6.956 -0.0828  0.9081 -0.0928
  462MOL0     H62303   6.192   9.935   6.880 -4.9823 -0.7135 -0.9322
  462MOL0     H62304   5.977   9.852   6.956 -1.6092  0.1296  1.8188
  462MOL0     H62305   5.879   9.675   7.072 -2.0969 -1.3434  0.3796
  462MOL0     H62306   5.797   9.668   7.235  1.4341  0.0634  1.8214
  462MOL0     H62307   5.643   9.855   7.177 -2.6784  1.3043 -2.1929
  462MOL0     H62308   5.748   9.899   7.052 -4.2878  1.3768  0.7512
  462MOL0     H62309   5.564   9.799   6.955 -0.9936 -1.9284 -0.9992
  462MOL0     H62310   5.685   9.665   6.943  0.4810 -1.6660  1.0104
  462MOL0     H62311   5.592   9.566   7.149  0.3053 -1.5690 -0.9919
  462MOL0     H62312   5.465   9.687   7.158 -0.3650 -1.6100  0.7068
  462MOL0     H62313   5.416   9.608   6.914  1.8874  2.1389  0.0545
  462MOL0     H62314   5.497   9.456   6.970  1.1039 -0.0501  0.4500
  462MOL0     H62315   5.357   9.410   7.150  0.0177  1.4253  1.7390
  462MOL0     H62316   5.268   9.571   7.126 -1.9274 -0.5181  0.2131
  462MOL0     H62317   5.215   9.455   6.896  0.9606 -1.8410 -1.0558
  462MOL0     H62318   5.298   9.313   6.956  1.4960  2.1178 -2.7135
  462MOL0     H62319   5.072   9.446   7.109 -1.8316 -0.2477 -0.0118
  462MOL0     H62320   5.136   9.283   7.143 -4.1279 -1.6661  0.2408
  462MOL0     H62321   5.114   9.109   6.900 -1.1955 -1.2260 -1.4067
  462MOL0     H62322   4.862   9.095   6.634 -0.2667  1.9162  0.4557
  462MOL0     H62323   4.967   8.984   6.731  0.2783  0.5480  0.5068
  462MOL0     H62324   4.823   8.926   6.895 -2.1215 -3.4153 -0.2677
  462MOL0     H62325   4.775   8.857   6.746 -0.8918 -1.4608  1.2363
  462MOL0     H62326   4.614   9.053   6.895 -0.5426  0.2544 -0.7874
  462MOL0     H62327   4.559   8.914   6.813  1.1986 -2.0620 -0.2366
  462MOL0     H62328   4.632   9.064   6.581  0.8755  4.2616 -1.3894
  462MOL0     H62329   4.605   9.194   6.699 -0.1206  0.7981 -1.6536
  462MOL0     H62330   4.200   9.052   6.670  3.0113 -1.3765 -0.8798
  462MOL0     H62331   3.970   9.092   6.892  1.4573  0.9191  0.7408
  462MOL0     H62332   3.935   9.240   6.809 -0.7685  0.1282 -0.1744
  462MOL0     H62333   3.983   9.102   6.706 -0.4657 -1.2922  0.3588
  462MOL0     H62334   3.822   9.230   7.200  1.1480  0.1250  0.2099
  462MOL0     H62335   3.654   9.331   7.350  0.8453  0.4680  0.6022
  462MOL0     H62336   3.603   9.769   7.415  1.7658 -1.3819  0.3313
  462MOL0     H62337   3.532   9.727   7.256  0.2006 -0.1645  0.2838
  462MOL0     H62338   3.357   9.582   7.387 -1.4769  0.0863  0.7742
  462MOL0     H62339   3.395   9.679   7.529 -0.8976 -0.0742  0.4805
  462MOL0     H62340   3.318   9.815   7.272  1.2647  0.7747  0.4493
  462MOL0     H62341   3.366   9.889   7.427 -1.3052  0.6422  0.6122
  462MOL0     H62342   3.151   9.686   7.428 -1.4541 -0.4745  1.1152
  462MOL0     H62343   3.172   9.832   7.540  0.8105  1.1476 -0.6527
  462MOL0     H62344   3.070   9.804   7.251 -1.6744  0.5092  0.5281
  462MOL0     H62345   3.122   9.958   7.310 -1.1037 -0.5045 -2.7136
  462MOL0     H62346   2.902   9.777   7.409  0.6359 -0.0205 -0.5357
  462MOL0     H62347   2.924   9.934   7.481 -1.0489 -3.4373  1.4214
  462MOL0     H62348   2.859   9.853   7.186 -1.0722 -2.0363  0.7709
  462MOL0     H62349   2.859  10.026   7.238  0.3204  0.7275  0.7422
  462MOL0     H62350   2.671   9.809   7.326 -1.9005  2.0749  3.1505
  462MOL0     H62351   2.640   9.945   7.219  2.7455 -0.7761 -2.2569
  462MOL0     H62352   3.756   9.713   7.192 -1.8690 -0.1745 -3.2543
  462MOL0     H62353   3.923   9.620   7.050  0.4920 -2.0369 -2.0025
  462MOL0     H62354   4.362   9.350   7.027 -0.4178 -0.9794  0.8350
  462MOL0     H62355   4.509   9.257   6.886 -0.3188  2.3322  1.5781
  462MOL0     H62356   6.116   9.866   7.364 -1.0796  0.3335 -0.2078
  462MOL0     H62357   6.337   9.941   7.289  0.2587 -2.6995 -0.7471
  462MOL0     H62358   6.593   9.841   6.705 -0.5389  0.1172  1.6677
  462MOL0     H62359   6.766   9.948   6.603  2.1945  2.3985  0.4021
  462MOL0     H62360   6.938  10.321   6.611 -1.2274 -1.1158 -0.1972
  462MOL0     H62361   6.899  10.316   6.780 -0.9973 -0.8652 -0.2664
  462MOL0     H62362   7.173  10.271   6.656  0.9775 -0.6063  0.4164
  462MOL0     H62363   7.127  10.221   6.820 -2.0417 -0.2639  0.2792
  462MOL0     H62364   7.043  10.445   6.869  0.3260  0.1657  1.3119
  462MOL0     H62365   7.102  10.513   6.711 -1.9792 -1.0596 -0.2016
  462MOL0     H62366   7.289  10.423   6.947 -0.0992 -0.4582  0.2723
  462MOL0     H62367   7.273  10.579   6.874  1.6262 -0.4716 -1.5571
  462MOL0     H62368   7.494  10.402   6.577  1.7203  0.0060  0.4840
  462MOL0     H62369   6.826  10.203   6.939  2.1059 -1.7927 -1.1694
  462MOL0     H62370   6.612  10.093   7.056  1.5771 -4.2905  1.8575
  463MOL0     O62371   8.625   6.927  10.427 -0.2859 -0.1941 -0.1436
  463MOL0     C62372   8.666   6.958  10.539  0.2537 -0.5539 -0.0598
  463MOL0     O62373   8.591   7.024  10.633  0.3885 -0.5398 -0.8015
  463MOL0     C62374   8.456   7.052  10.621  0.2378  0.1232  0.2861
  463MOL0     C62375   8.389   7.084  10.503 -0.5093  0.8185  0.1915
  463MOL0     C62376   8.255   7.114  10.491  0.0638 -0.5973 -0.2666
  463MOL0     C62377   8.180   7.120  10.612 -0.6096  0.2021  0.5169
  463MOL0     O62378   8.054   7.149  10.626 -0.1566  0.1634  0.2140
  463MOL0     C62379   7.976   7.179  10.512 -0.1951 -0.5411 -0.1328
  463MOL0     C62380   7.858   7.273  10.555  0.2360 -0.1553  1.1163
  463MOL0     C62381   7.717   7.210  10.542 -0.0264 -0.1661 -1.0723
  463MOL0     C62382   7.662   7.178  10.406  0.8021 -0.6039 -0.2379
  463MOL0     C62383   7.654   7.295  10.309 -0.0306 -0.6641 -0.2372
  463MOL0     C62384   7.559   7.276  10.192  0.9425  0.2691 -0.4606
  463MOL0     C62385   7.407   7.278  10.229  0.4064 -0.6532  0.6745
  463MOL0     C62386   7.315   7.247  10.104  0.0893  0.1426 -0.1172
  463MOL0     N62387   7.177   7.217  10.142  0.5268 -0.4774  0.2802
  463MOL0     C62388   7.135   7.108  10.218 -0.6902 -0.4353 -0.3311
  463MOL0     C62389   7.014   7.144  10.251  0.6778 -0.4196 -0.1659
  463MOL0     C62390   6.926   7.059  10.336  0.1993  0.8214 -0.4258
  463MOL0     C62391   6.771   7.069  10.305 -0.0703  0.4606  0.0404
  463MOL0     C62392   6.743   7.004  10.167  0.3309 -1.0414  0.1830
  463MOL0     C62393   6.595   7.044  10.124 -0.2895 -0.3810  0.4000
  463MOL0     O62394   6.494   6.973  10.205  0.6594  0.4666  0.9510
  463MOL0     C62395   6.369   6.966  10.158  0.3060 -0.5494  0.3336
  463MOL0     C62396   6.276   6.886  10.225 -0.0334 -0.2068 -0.4609
  463MOL0     C62397   6.137   6.878  10.177 -0.3886  0.7917 -0.4040
  463MOL0     C62398   6.050   6.802  10.274 -0.5263  0.5115  0.0643
  463MOL0     C62399   6.100   6.946  10.058 -0.5203 -0.3674 -0.0508
  463MOL0     C62400   5.964   6.939  10.006 -0.0775  0.2932 -0.6064
  463MOL0     O62401   5.941   6.982   9.882  0.1493 -0.1442 -0.1277
  463MOL0     C62402   5.818   7.027   9.846  0.1739  0.5207 -0.2299
  463MOL0     C62403   5.781   7.161   9.869  0.3564 -0.3920 -0.3508
  463MOL0     C62404   5.648   7.204   9.838 -0.4147  0.0292 -0.2417
  463MOL0     C62405   5.566   7.122   9.752  0.6700 -0.5699 -0.5977
  463MOL0     O62406   5.445   7.171   9.705 -0.4898  0.3423  0.3261
  463MOL0     C62407   5.349   7.071   9.688  0.7847  0.1614  0.1444
  463MOL0     C62408   5.215   7.147   9.675  0.4295 -0.4725 -0.4856
  463MOL0     C62409   5.180   7.242   9.805  0.3584 -1.0409 -0.3502
  463MOL0     C62410   5.146   7.166   9.932 -0.2118 -0.3009  0.1644
  463MOL0     C62411   5.136   7.257  10.058 -0.0939  0.0905 -0.4306
  463MOL0     C62412   5.033   7.372  10.044  0.5691  0.0112  0.5161
  463MOL0     C62413   4.895   7.319  10.007  0.9591 -1.0024 -0.7955
  463MOL0     C62414   4.780   7.396  10.083 -0.0826 -0.5671  0.1667
  463MOL0    Cl62415   4.765   7.563  10.022  0.1362  0.3443 -0.1207
  463MOL0     C62416   5.625   7.002   9.707 -0.0971  0.4038 -0.0338
  463MOL0     C62417   5.733   6.951   9.767  0.2347  0.3529 -0.0780
  463MOL0     O62418   5.879   6.904  10.088  0.2117 -0.1774  0.1375
  463MOL0     C62419   6.192   7.033  10.001 -0.0677 -0.3432  0.2622
  463MOL0     C62420   6.319   7.045  10.055  0.1183  0.3917 -0.3117
  463MOL0     N62421   6.974   7.265  10.185 -0.0547 -0.2578 -0.0235
  463MOL0     N62422   7.072   7.295  10.111  0.2963  0.0662  0.2486
  463MOL0     C62423   8.249   7.093  10.733 -0.3618  0.4634 -0.3190
  463MOL0     C62424   8.383   7.066  10.734  0.5311 -0.1207  0.7659
  463MOL0     C62425   8.814   6.943  10.573 -0.1839  0.1368  0.3227
  463MOL0     C62426   8.902   6.890  10.482  0.5162 -0.5204 -0.2497
  463MOL0     C62427   9.044   6.885  10.505  0.1177 -0.6169 -0.0197
  463MOL0     C62428   9.098   6.931  10.624 -0.5497 -0.4431 -0.6189
  463MOL0     O62429   9.232   6.960  10.621  0.4244  0.7274  0.2543
  463MOL0     C62430   9.290   7.023  10.728 -0.0681 -0.4181 -0.6982
  463MOL0     C62431   9.439   7.045  10.709 -0.8260  0.9011 -0.4784
  463MOL0     C62432   9.536   6.931  10.762  0.2930  1.0698 -0.0443
  463MOL0     C62433   9.503   6.796  10.695 -0.0765  0.8824  0.7278
  463MOL0     C62434   9.598   6.683  10.723 -0.0609 -0.2317  0.2151
  463MOL0     C62435   9.671   6.606  10.779  0.1173  0.5862 -0.1797
  463MOL0     C62436   9.005   6.976  10.714 -0.4126 -0.7009 -0.0823
  463MOL0     C62437   8.873   6.981  10.690 -0.2476  0.1909  0.7790
  463MOL0     H62438   8.440   7.071  10.408 -2.4462  2.3790 -1.1486
  463MOL0     H62439   8.210   7.148  10.399  0.0272  0.5996  0.1796
  463MOL0     H62440   8.029   7.231  10.431 -2.1326 -1.0930 -1.8247
  463MOL0     H62441   7.939   7.083  10.475 -1.0883 -1.0820  2.0330
  463MOL0     H62442   7.866   7.295  10.662 -0.9650  1.6110  0.8767
  463MOL0     H62443   7.867   7.370  10.506 -2.2634  0.2533  1.3761
  463MOL0     H62444   7.711   7.121  10.605  2.1920 -0.0954 -0.6812
  463MOL0     H62445   7.655   7.292  10.580  1.0693 -0.3255  1.2132
  463MOL0     H62446   7.718   7.104  10.350 -1.2539 -1.0812 -1.7935
  463MOL0     H62447   7.559   7.144  10.418 -0.5569  3.0818 -0.0132
  463MOL0     H62448   7.612   7.381  10.362  1.5274 -0.8885  1.4817
  463MOL0     H62449   7.751   7.326  10.269 -1.3576  3.7351 -0.5186
  463MOL0     H62450   7.575   7.358  10.122  0.6313 -0.5174 -1.4896
  463MOL0     H62451   7.588   7.184  10.140  0.9150 -0.4657  0.7778
  463MOL0     H62452   7.384   7.203  10.304 -2.1959  0.2135  0.8228
  463MOL0     H62453   7.363   7.373  10.262 -0.5372 -0.8149 -0.0915
  463MOL0     H62454   7.356   7.160  10.052 -1.1051  0.3752 -1.5372
  463MOL0     H62455   7.319   7.324  10.026 -0.4207 -1.6004 -1.9560
  463MOL0     H62456   7.183   7.020  10.258  1.6479  0.8830 -0.0758
  463MOL0     H62457   6.959   6.957  10.317  1.3702  0.8782  1.1012
  463MOL0     H62458   6.961   7.082  10.437 -3.0294 -1.5184  1.3806
  463MOL0     H62459   6.738   7.173  10.303  0.4352  0.6114 -0.9382
  463MOL0     H62460   6.711   7.017  10.381  1.3257 -1.1316  0.1319
  463MOL0     H62461   6.750   6.896  10.183  1.0098 -1.3154 -1.6749
  463MOL0     H62462   6.808   7.042  10.087 -0.2424 -2.6875 -1.1300
  463MOL0     H62463   6.585   7.025  10.017 -2.4069 -1.0161  0.6674
  463MOL0     H62464   6.573   7.147  10.151 -3.9291 -0.6069 -1.1837
  463MOL0     H62465   6.307   6.836  10.317  0.5337 -1.1653 -1.1567
  463MOL0     H62466   6.106   6.722  10.324 -1.8463 -2.3923 -2.6998
  463MOL0     H62467   6.011   6.879  10.341 -4.1707  0.4571 -1.7801
  463MOL0     H62468   5.967   6.743  10.234 -1.9602  2.7879 -0.5043
  463MOL0     H62469   5.845   7.240   9.908 -0.2576 -0.9138  1.8843
  463MOL0     H62470   5.618   7.302   9.872  2.1691  1.9798 -2.9666
  463MOL0     H62471   5.359   7.016   9.594  2.4263 -0.8761  0.8735
  463MOL0     H62472   5.357   6.995   9.766  0.9437 -0.9030 -0.8797
  463MOL0     H62473   5.215   7.219   9.592  0.9809  1.0961  0.8176
  463MOL0     H62474   5.128   7.083   9.666  0.1938 -0.2500  0.1195
  463MOL0     H62475   5.094   7.305   9.779  0.8402 -0.1372  0.2193
  463MOL0     H62476   5.268   7.301   9.830 -0.3419 -0.7534  1.6098
  463MOL0     H62477   5.055   7.106   9.922  0.2343 -0.8385 -0.8235
  463MOL0     H62478   5.228   7.099   9.959 -1.0008 -1.4585 -0.2402
  463MOL0     H62479   5.233   7.304  10.079 -0.4696  2.6909 -3.5996
  463MOL0     H62480   5.105   7.186  10.134 -1.0158 -0.5321 -1.3640
  463MOL0     H62481   5.025   7.438  10.131  2.4493 -0.4517  1.0884
  463MOL0     H62482   5.070   7.431   9.959 -1.5769 -1.8127 -1.8396
  463MOL0     H62483   4.892   7.215  10.040  3.1629 -0.4869  1.3611
  463MOL0     H62484   4.888   7.322   9.898  1.6097  1.4488 -0.8346
  463MOL0     H62485   4.801   7.406  10.190  0.2685 -0.2381  0.0684
  463MOL0     H62486   4.681   7.349  10.077 -0.8536  0.6149  2.2658
  463MOL0     H62487   5.560   6.951   9.636  2.2791 -3.4014  0.2481
  463MOL0     H62488   5.761   6.849   9.744  1.2896  1.0105 -2.0183
  463MOL0     H62489   6.161   7.100   9.921 -1.5854  0.3370  1.3534
  463MOL0     H62490   6.379   7.126  10.016 -1.3975  1.3334 -0.7927
  463MOL0     H62491   8.192   7.094  10.826 -0.2376 -1.0354 -0.1920
  463MOL0     H62492   8.439   7.046  10.825  0.2570  2.3198  1.5473
  463MOL0     H62493   8.860   6.859  10.387 -1.4586 -2.9189  1.2922
  463MOL0     H62494   9.110   6.837  10.434  2.6865  1.5984  0.7003
  463MOL0     H62495   9.246   7.121  10.748  3.3252  1.0422  0.3777
  463MOL0     H62496   9.275   6.968  10.821 -1.7283  0.6508 -0.2845
  463MOL0     H62497   9.464   7.140  10.756 -2.6256  0.6679  1.0815
  463MOL0     H62498   9.470   7.056  10.605  0.3822  2.0187 -0.0290
  463MOL0     H62499   9.521   6.909  10.868  0.9404  1.8825  0.2272
  463MOL0     H62500   9.644   6.946  10.750  0.8171 -1.9658 -0.1325
  463MOL0     H62501   9.489   6.804  10.587  0.6604 -0.8691  0.4639
  463MOL0     H62502   9.408   6.758  10.734 -0.0614 -0.0129 -0.0572
  463MOL0     H62503   9.730   6.542  10.841 -1.4276 -2.0273 -1.2882
  463MOL0     H62504   9.034   7.022  10.808 -0.0324  3.3589 -1.9470
  463MOL0     H62505   8.820   7.032  10.770 -1.6474  2.5069 -1.4712
  464MOL0     O62506   9.494   5.222   1.334 -0.5450  0.1985 -0.1582
  464MOL0     C62507   9.527   5.290   1.426  0.5553  0.2048 -0.1690
  464MOL0     O62508   9.445   5.370   1.491 -0.3925  0.3928  1.0070
  464MOL0     C62509   9.305   5.361   1.477  1.1818 -0.6574 -0.4145
  464MOL0     C62510   9.223   5.248   1.455 -0.2548 -0.1069  0.0797
  464MOL0     C62511   9.080   5.252   1.453 -0.3818 -1.2399  0.1683
  464MOL0     C62512   9.021   5.380   1.479  1.7230 -0.0864  0.0180
  464MOL0     O62513   8.881   5.390   1.487  0.2711 -0.2453 -0.1535
  464MOL0     C62514   8.793   5.306   1.402  0.8696 -0.8619  0.8693
  464MOL0     C62515   8.642   5.355   1.401  0.4868  0.2074 -0.3703
  464MOL0     C62516   8.570   5.259   1.310  0.5863 -0.1788  1.0733
  464MOL0     C62517   8.444   5.324   1.255 -0.0341 -0.5336 -0.1744
  464MOL0     C62518   8.387   5.223   1.153  0.3127  0.2242 -0.0538
  464MOL0     C62519   8.298   5.289   1.050 -0.8661  0.3821 -0.2487
  464MOL0     C62520   8.178   5.369   1.099 -0.3830 -0.0464  0.4200
  464MOL0     C62521   8.079   5.284   1.173 -0.0348  0.4588 -0.1135
  464MOL0     N62522   7.980   5.376   1.225  0.4164 -0.5496  0.0750
  464MOL0     C62523   7.997   5.477   1.318 -0.4793 -0.3126  0.1508
  464MOL0     C62524   7.890   5.551   1.308  0.1419 -0.4155 -0.1808
  464MOL0     C62525   7.839   5.650   1.409 -0.4289 -1.1576  0.1479
  464MOL0     C62526   7.949   5.742   1.466 -0.6671  1.0605  0.9979
  464MOL0     C62527   7.887   5.828   1.574  0.1715 -0.4101  0.2856
  464MOL0     C62528   7.991   5.889   1.663 -0.0525  0.0990 -0.0857
  464MOL0     O62529   8.077   5.796   1.747  0.7896  0.4893  0.0120
  464MOL0     C62530   8.009   5.726   1.837 -1.0024 -0.5342 -0.0654
  464MOL0     C62531   7.910   5.782   1.922  0.3410  0.2686  0.4921
  464MOL0     C62532   7.840   5.700   2.014  0.8836 -0.0235 -0.5514
  464MOL0     C62533   7.730   5.769   2.100 -0.0683 -0.3374 -0.0243
  464MOL0     C62534   7.873   5.562   2.033  0.3944 -0.2452 -0.0735
  464MOL0     C62535   7.810   5.467   2.119 -0.6533 -1.0203  0.5893
  464MOL0     O62536   7.876   5.352   2.141 -1.1261 -0.0007  0.0565
  464MOL0     C62537   7.811   5.270   2.225  0.4644  0.5507  0.6113
  464MOL0     C62538   7.826   5.271   2.358 -0.2361 -0.4130 -0.4845
  464MOL0     C62539   7.754   5.177   2.441 -0.0659 -0.2853 -0.5994
  464MOL0     C62540   7.663   5.087   2.392  0.5850  0.7248  0.9988
  464MOL0     O62541   7.602   5.021   2.492  0.3917  0.8106 -0.4010
  464MOL0     C62542   7.493   4.939   2.453  0.3674  0.0352  0.4004
  464MOL0     C62543   7.419   4.895   2.579 -0.8339  0.4565 -0.6851
  464MOL0     C62544   7.301   4.802   2.537 -0.7966 -0.2503  0.2645
  464MOL0     C62545   7.218   4.848   2.423  0.3315  0.9747  0.7923
  464MOL0     C62546   7.078   4.787   2.419 -0.3902  0.5157 -0.5403
  464MOL0     C62547   7.018   4.815   2.275  1.0669 -0.4071 -0.8973
  464MOL0     C62548   6.892   4.737   2.248  0.1706  0.6473 -0.2334
  464MOL0     C62549   6.769   4.781   2.337 -0.5073  0.1801  0.0576
  464MOL0    Cl62550   6.627   4.739   2.243 -0.1862 -0.1003  0.1088
  464MOL0     C62551   7.641   5.079   2.255 -0.7543  0.4618 -0.0273
  464MOL0     C62552   7.717   5.171   2.174  0.5833  0.3757  0.0270
  464MOL0     O62553   7.708   5.495   2.178 -0.1235  0.2593  0.2069
  464MOL0     C62554   7.984   5.515   1.953 -0.9098 -1.1520 -0.4375
  464MOL0     C62555   8.056   5.596   1.861  0.4651 -0.7114  0.6092
  464MOL0     N62556   7.807   5.498   1.206  0.5491 -0.3397 -0.3593
  464MOL0     N62557   7.860   5.386   1.160 -0.2126  0.1572  1.0396
  464MOL0     C62558   9.099   5.499   1.496  0.0957  0.2303 -0.0224
  464MOL0     C62559   9.235   5.487   1.497  0.6405 -0.1196  0.0966
  464MOL0     C62560   9.677   5.284   1.451  0.8895  0.5851  0.3405
  464MOL0     C62561   9.756   5.194   1.381 -0.9031 -0.5084 -0.0117
  464MOL0     C62562   9.892   5.180   1.413  0.3307  0.0031 -0.4591
  464MOL0     C62563   9.945   5.257   1.516  1.3809  0.4288 -0.1941
  464MOL0     O62564  10.080   5.262   1.557  0.6457  0.1310  0.1524
  464MOL0     C62565  10.140   5.130   1.551 -0.1382 -0.9336  0.1994
  464MOL0     C62566  10.285   5.145   1.586  0.2653 -0.3916  0.1448
  464MOL0     C62567  10.306   5.171   1.735 -0.0740  0.1785  0.1909
  464MOL0     C62568  10.447   5.196   1.772 -1.0110  0.6946  1.2984
  464MOL0     C62569  10.537   5.083   1.751  0.7248 -0.0081  0.7504
  464MOL0     C62570  10.608   4.979   1.736  0.8525 -0.7077  0.3203
  464MOL0     C62571   9.862   5.355   1.579 -1.1439 -0.1373 -0.1024
  464MOL0     C62572   9.728   5.369   1.554 -0.1428  0.6536  0.8362
  464MOL0     H62573   9.263   5.148   1.442  3.9590  1.1041  1.9987
  464MOL0     H62574   9.020   5.169   1.417 -2.5430  0.6682 -0.8863
  464MOL0     H62575   8.833   5.304   1.300  2.2583 -3.4925  1.3665
  464MOL0     H62576   8.801   5.203   1.437  0.6931 -0.8749  0.8705
  464MOL0     H62577   8.598   5.356   1.501 -3.5293 -0.0001 -1.9646
  464MOL0     H62578   8.635   5.456   1.359 -2.0623 -0.3936 -1.5914
  464MOL0     H62579   8.632   5.224   1.227 -1.5146 -0.7389 -0.3329
  464MOL0     H62580   8.541   5.173   1.371 -1.0342  1.1404  2.2795
  464MOL0     H62581   8.371   5.346   1.333 -2.8204 -1.3089 -2.3909
  464MOL0     H62582   8.464   5.421   1.208  0.5316  0.8848  2.7510
  464MOL0     H62583   8.464   5.174   1.094 -0.1212  0.2610 -0.6587
  464MOL0     H62584   8.334   5.151   1.216  0.2173  1.1121  0.9247
  464MOL0     H62585   8.369   5.351   0.996 -1.4248  3.3670  2.1763
  464MOL0     H62586   8.259   5.206   0.990  0.4239 -1.5199  1.4245
  464MOL0     H62587   8.208   5.450   1.166  0.0435 -2.1291  2.9012
  464MOL0     H62588   8.133   5.413   1.010 -0.9949 -1.0289  0.2346
  464MOL0     H62589   8.129   5.235   1.257 -1.7740 -2.1203 -0.4713
  464MOL0     H62590   8.034   5.208   1.108  2.4661 -0.3215 -1.0434
  464MOL0     H62591   8.085   5.492   1.379  0.6016 -3.2216 -0.5311
  464MOL0     H62592   7.761   5.713   1.365 -0.5415  2.0225  4.3076
  464MOL0     H62593   7.799   5.587   1.489 -1.0670  0.3637  1.0562
  464MOL0     H62594   7.976   5.804   1.379  3.4612 -3.1986 -1.2204
  464MOL0     H62595   8.042   5.689   1.487 -0.8266 -0.4632 -1.6738
  464MOL0     H62596   7.811   5.765   1.621  0.1039 -1.9700 -1.7306
  464MOL0     H62597   7.832   5.916   1.541  1.7472  0.8544  0.9235
  464MOL0     H62598   7.944   5.964   1.727  1.2171 -0.2159  1.2576
  464MOL0     H62599   8.060   5.947   1.601 -0.7110  1.3238  0.3006
  464MOL0     H62600   7.878   5.885   1.911 -2.5080 -0.5209  0.4808
  464MOL0     H62601   7.733   5.878   2.089  0.7974 -0.1133  2.0285
  464MOL0     H62602   7.631   5.728   2.077  0.9013 -2.2937 -0.9459
  464MOL0     H62603   7.761   5.745   2.202  0.5769 -1.3445 -0.4456
  464MOL0     H62604   7.897   5.338   2.406  0.5152 -1.4604 -0.0866
  464MOL0     H62605   7.774   5.175   2.548 -1.2271 -2.1825 -0.3718
  464MOL0     H62606   7.423   5.006   2.403  0.5985  0.0390  0.0780
  464MOL0     H62607   7.524   4.851   2.395  0.3622  1.4120 -1.8064
  464MOL0     H62608   7.485   4.839   2.646  0.1983 -0.5123 -2.4652
  464MOL0     H62609   7.377   4.982   2.631  0.8740  0.0307  1.5745
  464MOL0     H62610   7.234   4.792   2.622 -3.0948  1.5740 -1.2152
  464MOL0     H62611   7.343   4.706   2.506 -0.5821 -0.3293  0.7918
  464MOL0     H62612   7.205   4.957   2.415  0.0902  0.9609  1.0218
  464MOL0     H62613   7.267   4.821   2.328 -2.5953  1.2924 -0.9324
  464MOL0     H62614   7.008   4.831   2.490  0.1681 -1.3905  1.2620
  464MOL0     H62615   7.075   4.679   2.434 -0.2498  0.4647 -0.8659
  464MOL0     H62616   7.000   4.923   2.272  1.8537 -0.2327 -0.0215
  464MOL0     H62617   7.091   4.781   2.202  1.0721 -2.5013  0.0048
  464MOL0     H62618   6.916   4.634   2.278  5.3454  1.7965  0.5757
  464MOL0     H62619   6.864   4.746   2.143 -0.6174  0.0309 -0.0867
  464MOL0     H62620   6.789   4.885   2.364  1.6551 -0.7279  2.3147
  464MOL0     H62621   6.771   4.729   2.433  0.6362  1.3162  0.6642
  464MOL0     H62622   7.570   5.014   2.204  2.0484 -2.6127 -0.2891
  464MOL0     H62623   7.703   5.177   2.067  1.3624  0.2446 -0.0879
  464MOL0     H62624   8.033   5.419   1.963 -0.4609 -0.9134 -0.3137
  464MOL0     H62625   8.138   5.556   1.802  0.0631 -1.7353  0.7127
  464MOL0     H62626   9.057   5.595   1.523 -1.7890 -0.0749 -1.6500
  464MOL0     H62627   9.299   5.573   1.515 -0.9735  1.8175 -2.6406
  464MOL0     H62628   9.723   5.140   1.293 -2.2728  0.6326 -0.2414
  464MOL0     H62629   9.944   5.113   1.345  1.3458  0.5874 -0.2900
  464MOL0     H62630  10.090   5.065   1.623 -1.4729  1.3136  1.4350
  464MOL0     H62631  10.125   5.086   1.452 -2.8138 -0.9068  0.5122
  464MOL0     H62632  10.339   5.224   1.533 -0.7063  1.8369  2.2388
  464MOL0     H62633  10.331   5.051   1.555 -0.3463 -0.2302 -1.3183
  464MOL0     H62634  10.274   5.079   1.785 -2.8443  1.1626  0.3797
  464MOL0     H62635  10.250   5.258   1.773 -0.2847  0.0999  0.0613
  464MOL0     H62636  10.442   5.232   1.875 -4.6206  0.4661  1.3506
  464MOL0     H62637  10.483   5.281   1.714 -1.7169  1.2319  1.6220
  464MOL0     H62638  10.665   4.890   1.748 -1.2827 -1.8428  3.0957
  464MOL0     H62639   9.916   5.409   1.656 -0.8483 -1.7423  0.8776
  464MOL0     H62640   9.658   5.439   1.598 -2.5647 -1.3003  0.3653
  465MOL0     O62641   6.393   0.349   7.920 -0.5423 -0.2015 -0.3874
  465MOL0     C62642   6.436   0.452   7.972 -0.2604 -0.1381 -0.9179
  465MOL0     O62643   6.374   0.570   8.005 -0.6087 -0.1757 -0.6684
  465MOL0     C62644   6.243   0.577   7.979 -0.6411 -0.3914 -0.5683
  465MOL0     C62645   6.160   0.555   8.087 -0.3365 -0.5592  0.0672
  465MOL0     C62646   6.020   0.580   8.072 -0.4375 -0.8666 -0.3364
  465MOL0     C62647   5.968   0.637   7.957 -0.4479  0.4693 -0.1923
  465MOL0     O62648   5.836   0.681   7.950 -0.4677  0.2184 -0.2716
  465MOL0     C62649   5.800   0.755   8.062 -0.4198 -0.2256 -0.7310
  465MOL0     C62650   5.682   0.845   8.052 -1.0002 -0.7045 -0.0747
  465MOL0     C62651   5.595   0.853   8.187  0.6728 -0.4647  0.7238
  465MOL0     C62652   5.465   0.935   8.167  0.5190 -0.6109 -0.2143
  465MOL0     C62653   5.493   1.089   8.152 -0.3236 -0.0506  0.6441
  465MOL0     C62654   5.422   1.144   8.031 -0.9337 -0.7251  0.2615
  465MOL0     C62655   5.460   1.100   7.896 -0.4936  0.0776  1.1717
  465MOL0     C62656   5.597   1.148   7.847  0.2997 -1.2287  1.0161
  465MOL0     N62657   5.601   1.288   7.794 -0.9292  0.0933  0.2254
  465MOL0     C62658   5.536   1.328   7.682 -0.4969  0.1267  0.4352
  465MOL0     C62659   5.596   1.444   7.649  0.3366  0.5244  0.6252
  465MOL0     C62660   5.553   1.542   7.540  0.2465  0.3480  0.2211
  465MOL0     C62661   5.487   1.460   7.426 -0.8409 -0.2220  0.4264
  465MOL0     C62662   5.574   1.351   7.361  0.5873  0.3504  0.4325
  465MOL0     C62663   5.485   1.240   7.291 -0.8636 -0.1031  0.0772
  465MOL0     O62664   5.407   1.188   7.393  0.6641 -0.1262  0.0758
  465MOL0     C62665   5.298   1.114   7.361 -0.0832  0.9294  0.1450
  465MOL0     C62666   5.232   1.084   7.483  1.0970 -0.4687  0.1219
  465MOL0     C62667   5.106   1.016   7.487 -0.2982  0.0121 -1.1144
  465MOL0     C62668   5.037   1.006   7.621  0.1660  0.4291 -0.6371
  465MOL0     C62669   5.053   0.978   7.362 -0.2236  0.3614  1.1493
  465MOL0     C62670   4.915   0.914   7.353 -0.4920 -0.3279 -0.7884
  465MOL0     O62671   4.853   0.930   7.241 -0.0225 -0.2698  0.6187
  465MOL0     C62672   4.729   0.874   7.224 -0.4526 -0.0174  0.2120
  465MOL0     C62673   4.712   0.798   7.105  0.0316 -1.3554  0.2298
  465MOL0     C62674   4.582   0.739   7.075 -0.2317 -0.2641  0.4566
  465MOL0     C62675   4.473   0.765   7.164 -0.5508  0.0409 -0.3635
  465MOL0     O62676   4.349   0.713   7.145 -0.0058  0.7519  0.8678
  465MOL0     C62677   4.348   0.578   7.097 -0.3152  0.3656  1.0375
  465MOL0     C62678   4.240   0.500   7.167 -0.5789  0.9317 -0.4824
  465MOL0     C62679   4.203   0.369   7.109  0.0561  0.6168 -0.6748
  465MOL0     C62680   4.164   0.273   7.231  0.0539 -0.1086 -0.7141
  465MOL0     C62681   4.093   0.141   7.201 -0.1592 -0.1500 -0.6861
  465MOL0     C62682   4.068   0.065   7.333  1.2812  0.0472  0.6881
  465MOL0     C62683   3.977  -0.054   7.302 -0.1855  0.1443 -0.6739
  465MOL0     C62684   3.837  -0.025   7.272  0.4755  0.1818  0.6042
  465MOL0    Cl62685   3.775  -0.188   7.227 -0.0949  0.4845 -0.2561
  465MOL0     C62686   4.491   0.850   7.274  0.4914  0.3239  0.3433
  465MOL0     C62687   4.615   0.896   7.305 -0.7448  0.2353  0.4997
  465MOL0     O62688   4.873   0.846   7.445  0.3633 -0.7704 -0.2929
  465MOL0     C62689   5.114   1.006   7.241 -0.7018 -0.0312 -0.0359
  465MOL0     C62690   5.246   1.067   7.239  0.1086 -0.4765  0.4500
  465MOL0     N62691   5.689   1.475   7.747  0.5481  0.5719 -0.3829
  465MOL0     N62692   5.691   1.370   7.825  0.1896  0.1696 -0.0631
  465MOL0     C62693   6.055   0.663   7.853 -0.3886 -0.9769 -0.4731
  465MOL0     C62694   6.193   0.640   7.862 -0.0556 -0.0499  0.4713
  465MOL0     C62695   6.584   0.448   8.001 -0.2220  0.4282  0.0897
  465MOL0     C62696   6.639   0.548   8.086 -1.0516 -0.0032  0.1029
  465MOL0     C62697   6.782   0.558   8.106  0.4898 -0.6425  0.2414
  465MOL0     C62698   6.863   0.473   8.042 -0.8269  0.2072 -0.1043
  465MOL0     O62699   6.999   0.495   8.057 -0.2324 -0.5769 -0.1800
  465MOL0     C62700   7.084   0.394   8.112  0.1166  0.9267  0.0909
  465MOL0     C62701   7.226   0.438   8.077  0.0643  0.6445  0.0954
  465MOL0     C62702   7.285   0.508   8.204 -0.1486 -0.2602 -0.1481
  465MOL0     C62703   7.424   0.557   8.174 -0.5620 -0.1407  0.2527
  465MOL0     C62704   7.510   0.529   8.291  0.2528 -0.5781 -0.4133
  465MOL0     C62705   7.589   0.516   8.382  0.6945  0.1163 -0.0201
  465MOL0     C62706   6.807   0.383   7.948 -0.3369 -0.0914 -0.0821
  465MOL0     C62707   6.671   0.358   7.938 -0.4134 -0.3722  0.4690
  465MOL0     H62708   6.206   0.515   8.176  1.1985  1.2208  0.1379
  465MOL0     H62709   5.957   0.554   8.157  0.3064  3.9133  2.0576
  465MOL0     H62710   5.786   0.681   8.141  0.3400 -1.9959 -2.1899
  465MOL0     H62711   5.877   0.827   8.093 -1.3188  0.7791 -0.7957
  465MOL0     H62712   5.721   0.946   8.040 -2.9232  0.6890  3.7784
  465MOL0     H62713   5.627   0.817   7.961  0.0173 -1.3577 -0.5019
  465MOL0     H62714   5.573   0.751   8.220 -0.3402 -0.8226 -0.9128
  465MOL0     H62715   5.650   0.899   8.269  1.4873 -0.0970 -0.0069
  465MOL0     H62716   5.410   0.897   8.081  1.0378 -1.3632 -0.2255
  465MOL0     H62717   5.406   0.920   8.258 -1.3461 -4.0307 -1.7961
  465MOL0     H62718   5.451   1.137   8.240 -1.9197 -1.4798  0.7076
  465MOL0     H62719   5.600   1.111   8.161 -0.6023  0.6691  2.5167
  465MOL0     H62720   5.316   1.128   8.051 -0.9749  0.1065  0.7582
  465MOL0     H62721   5.428   1.253   8.038 -1.7673 -0.7532  1.9057
  465MOL0     H62722   5.458   0.991   7.889  0.5253  0.1365 -0.8930
  465MOL0     H62723   5.391   1.144   7.823  0.8701 -1.1132 -0.9293
  465MOL0     H62724   5.629   1.092   7.759 -1.2203  0.0727 -0.4306
  465MOL0     H62725   5.677   1.138   7.922  0.6272  0.4155  0.9266
  465MOL0     H62726   5.449   1.274   7.646  0.4660 -1.6669  0.7033
  465MOL0     H62727   5.477   1.610   7.579 -1.2441 -1.3751  0.4800
  465MOL0     H62728   5.640   1.597   7.503 -0.0638 -0.1227 -1.3133
  465MOL0     H62729   5.455   1.527   7.345  1.2005 -0.7686 -0.9245
  465MOL0     H62730   5.400   1.411   7.469  1.8042 -3.8786  2.0735
  465MOL0     H62731   5.640   1.305   7.435  1.9831  1.9945  0.2787
  465MOL0     H62732   5.632   1.397   7.280 -0.4984  0.6449 -0.1996
  465MOL0     H62733   5.553   1.165   7.250 -0.2031  0.6142 -0.1665
  465MOL0     H62734   5.429   1.287   7.210 -1.9337 -0.4798  0.5808
  465MOL0     H62735   5.275   1.124   7.574  3.6141 -2.5831 -0.0175
  465MOL0     H62736   5.094   1.057   7.700  1.8677  1.4325 -2.4237
  465MOL0     H62737   4.938   1.050   7.611 -0.7239 -1.1253  0.8212
  465MOL0     H62738   5.014   0.904   7.653 -0.2333  0.2223 -1.5492
  465MOL0     H62739   4.794   0.781   7.036  0.0133 -1.0592  0.1349
  465MOL0     H62740   4.562   0.680   6.986 -1.9629 -2.4722  2.1916
  465MOL0     H62741   4.328   0.575   6.990  0.1698 -2.4913  0.9474
  465MOL0     H62742   4.445   0.530   7.110  0.1526  0.8684 -0.4477
  465MOL0     H62743   4.277   0.488   7.269 -0.1381 -2.0041 -0.9115
  465MOL0     H62744   4.151   0.563   7.164 -1.6090 -0.5131 -1.7754
  465MOL0     H62745   4.287   0.320   7.058 -0.2085 -2.1560  1.2830
  465MOL0     H62746   4.116   0.378   7.044 -1.3136  0.7529  1.1206
  465MOL0     H62747   4.249   0.259   7.299 -1.4589 -1.1720  1.0887
  465MOL0     H62748   4.090   0.327   7.292  0.9545  0.3032  0.0432
  465MOL0     H62749   4.143   0.073   7.131 -0.1402 -0.1577 -0.6654
  465MOL0     H62750   4.000   0.171   7.152 -2.4839 -0.2757  3.2645
  465MOL0     H62751   4.165   0.021   7.361  0.6213 -3.1605 -1.4282
  465MOL0     H62752   4.013   0.131   7.400  1.2124 -0.0104  0.6869
  465MOL0     H62753   3.984  -0.126   7.384 -0.9163 -0.9541 -1.5528
  465MOL0     H62754   4.021  -0.108   7.217  0.8145  0.0247 -0.0977
  465MOL0     H62755   3.819   0.032   7.180 -1.2627  1.4801  1.6806
  465MOL0     H62756   3.792   0.026   7.359 -0.6846  0.1523  0.0458
  465MOL0     H62757   4.412   0.877   7.343  0.7203  1.3821  0.2123
  465MOL0     H62758   4.635   0.953   7.395  1.7642  1.9994 -1.0342
  465MOL0     H62759   5.062   0.991   7.147 -2.6185  1.1682  0.7885
  465MOL0     H62760   5.280   1.107   7.145 -1.9883 -0.0330 -0.1672
  465MOL0     H62761   6.010   0.696   7.760  4.1731  2.1377 -1.9679
  465MOL0     H62762   6.255   0.668   7.778  0.2597 -2.5602 -0.2124
  465MOL0     H62763   6.576   0.613   8.146  0.7489  1.8206  0.1315
  465MOL0     H62764   6.825   0.641   8.161  1.4400 -1.5597  0.9200
  465MOL0     H62765   7.063   0.386   8.219 -0.5691 -1.7097 -0.1665
  465MOL0     H62766   7.057   0.300   8.062 -2.5531 -0.2855  3.4654
  465MOL0     H62767   7.227   0.497   7.984  1.4500 -0.4226 -0.5980
  465MOL0     H62768   7.289   0.349   8.072  2.4221  2.2740 -1.8885
  465MOL0     H62769   7.268   0.432   8.281 -1.3023  0.5366  0.4073
  465MOL0     H62770   7.222   0.590   8.240  0.6026 -0.1500  0.9768
  465MOL0     H62771   7.415   0.665   8.158  1.9192 -0.1735 -1.9428
  465MOL0     H62772   7.462   0.500   8.089 -2.3932 -1.6137  0.3548
  465MOL0     H62773   7.653   0.505   8.468 -0.4910  0.2201  0.9101
  465MOL0     H62774   6.873   0.314   7.896 -0.6292  0.6294 -1.4316
  465MOL0     H62775   6.633   0.278   7.876 -0.9341  1.1967 -1.3135
  466MOL0     O62776   6.141   3.913   6.299  0.1594  0.0907 -0.5839
  466MOL0     C62777   6.193   3.969   6.399 -0.1799  0.5590  0.4352
  466MOL0     O62778   6.120   4.045   6.496  0.1027  0.9950 -0.0180
  466MOL0     C62779   6.005   4.106   6.458  0.1759  0.3453 -0.2369
  466MOL0     C62780   5.899   4.032   6.410  0.7930  0.3708  1.1402
  466MOL0     C62781   5.769   4.086   6.394  0.0149 -0.2513 -0.1150
  466MOL0     C62782   5.747   4.220   6.419 -0.8430 -0.0696 -0.1813
  466MOL0     O62783   5.631   4.290   6.418 -0.1253  0.6939 -0.6310
  466MOL0     C62784   5.508   4.208   6.423  0.1601  0.4585 -1.1721
  466MOL0     C62785   5.454   4.191   6.288  0.1006 -0.6250  0.2142
  466MOL0     C62786   5.329   4.103   6.294 -0.0998  0.2029 -0.2752
  466MOL0     C62787   5.239   4.125   6.170  0.6162 -0.2510  0.2007
  466MOL0     C62788   5.093   4.088   6.187 -0.1770 -0.4644 -0.5284
  466MOL0     C62789   5.069   3.941   6.228  0.2629 -0.0811  0.5349
  466MOL0     C62790   4.923   3.918   6.249  0.6085 -0.1261 -0.3231
  466MOL0     C62791   4.846   3.875   6.120  0.0778 -0.6598 -0.5208
  466MOL0     N62792   4.697   3.853   6.157 -0.8165  0.3220 -0.2440
  466MOL0     C62793   4.657   3.730   6.197  0.5197  0.0005 -0.4035
  466MOL0     C62794   4.526   3.725   6.172  0.2994  0.4767  0.3129
  466MOL0     C62795   4.429   3.620   6.205  0.0222 -0.0992 -0.5191
  466MOL0     C62796   4.386   3.641   6.349  0.1373  0.1930 -0.9882
  466MOL0     C62797   4.281   3.538   6.401 -0.5064  0.2488  0.3119
  466MOL0     C62798   4.134   3.580   6.398 -0.0981  0.4718  0.2507
  466MOL0     O62799   4.089   3.630   6.525  0.1469 -0.5933 -0.1034
  466MOL0     C62800   3.964   3.696   6.525 -0.2337  0.9170  0.0998
  466MOL0     C62801   3.929   3.745   6.650  0.1383 -0.2549  0.8053
  466MOL0     C62802   3.823   3.835   6.658 -0.5728  0.8774 -0.1815
  466MOL0     C62803   3.826   3.917   6.785  0.4439  0.1883  0.2925
  466MOL0     C62804   3.736   3.856   6.549  1.6550 -0.6349 -0.4656
  466MOL0     C62805   3.619   3.942   6.549 -0.3669 -0.2388 -0.5913
  466MOL0     O62806   3.537   3.949   6.440  0.0904 -0.0961 -0.8225
  466MOL0     C62807   3.404   3.977   6.451  0.0906  0.4440 -0.2617
  466MOL0     C62808   3.321   3.907   6.541 -0.0551 -0.1020  0.7196
  466MOL0     C62809   3.184   3.919   6.526  1.0118 -0.0653 -0.2796
  466MOL0     C62810   3.126   4.015   6.433  0.9875  0.0178  0.0103
  466MOL0     O62811   2.987   4.027   6.445 -0.2252  0.0013  0.3106
  466MOL0     C62812   2.925   4.134   6.373  0.5485  0.4017  0.5229
  466MOL0     C62813   2.774   4.119   6.378 -0.5088 -0.4923 -1.2059
  466MOL0     C62814   2.725   4.146   6.529 -0.0318 -0.1219  0.1656
  466MOL0     C62815   2.576   4.122   6.553 -0.0011  0.7013  0.4638
  466MOL0     C62816   2.545   4.100   6.704  0.0510 -0.8360  0.5243
  466MOL0     C62817   2.419   4.022   6.732  0.5491  0.0406 -0.2462
  466MOL0     C62818   2.410   4.013   6.883  1.1916  0.3436  0.1846
  466MOL0     C62819   2.296   3.911   6.912  0.4205 -0.2943 -0.2221
  466MOL0    Cl62820   2.272   3.895   7.097 -0.0727 -0.3094 -0.3738
  466MOL0     C62821   3.212   4.081   6.342  0.0840 -0.1662  0.0138
  466MOL0     C62822   3.347   4.046   6.343 -0.1595 -0.0630 -1.3982
  466MOL0     O62823   3.598   3.999   6.650  0.0206 -0.7526 -0.4592
  466MOL0     C62824   3.765   3.781   6.431 -0.2938  0.2857 -0.3769
  466MOL0     C62825   3.877   3.705   6.420 -0.5379 -0.0630 -0.4733
  466MOL0     N62826   4.489   3.847   6.123  0.1651 -0.1205 -0.4614
  466MOL0     N62827   4.590   3.920   6.109  0.5448 -0.4676  0.3577
  466MOL0     C62828   5.863   4.304   6.444 -0.0008 -0.4565  0.1139
  466MOL0     C62829   5.991   4.245   6.467 -0.3759 -0.1333  0.4598
  466MOL0     C62830   6.341   3.968   6.431 -0.9713 -0.1259  0.8327
  466MOL0     C62831   6.438   3.905   6.348 -0.5312  0.0902  0.6514
  466MOL0     C62832   6.580   3.906   6.369  0.0614  0.3201  0.2201
  466MOL0     C62833   6.627   3.975   6.481 -0.7333 -0.3321 -0.9407
  466MOL0     O62834   6.767   3.981   6.506  0.8917 -0.0150  0.3592
  466MOL0     C62835   6.802   4.009   6.644 -0.8400 -0.6186  0.6571
  466MOL0     C62836   6.947   3.973   6.677  1.0951 -0.2493  0.8226
  466MOL0     C62837   7.052   4.076   6.627 -0.4604 -0.3228  0.3906
  466MOL0     C62838   7.194   4.049   6.652 -0.6608 -0.8360 -0.1461
  466MOL0     C62839   7.273   4.159   6.590 -0.9077 -0.1066 -0.3458
  466MOL0     C62840   7.326   4.246   6.525 -0.0888  0.2330  0.7063
  466MOL0     C62841   6.531   4.039   6.560 -1.1499  0.2627  0.1219
  466MOL0     C62842   6.395   4.031   6.538  0.4427  0.5767 -0.4056
  466MOL0     H62843   5.902   3.925   6.391  1.2922  0.7944 -1.5494
  466MOL0     H62844   5.693   4.017   6.359 -1.8376  2.3792 -1.5559
  466MOL0     H62845   5.523   4.118   6.484 -1.8802  1.6303  1.2135
  466MOL0     H62846   5.430   4.263   6.476  3.3734  1.8795  2.6729
  466MOL0     H62847   5.424   4.285   6.240 -3.1075 -1.1420  0.9683
  466MOL0     H62848   5.531   4.148   6.223 -0.3191 -0.0347 -0.6971
  466MOL0     H62849   5.352   3.997   6.300  2.7118  0.7810  0.5394
  466MOL0     H62850   5.268   4.119   6.384 -2.6702 -1.4739 -1.5969
  466MOL0     H62851   5.241   4.231   6.147  2.9533 -0.1003  0.8977
  466MOL0     H62852   5.264   4.061   6.085 -2.7210 -0.3509 -0.8814
  466MOL0     H62853   5.045   4.159   6.254  3.4017  1.7856 -0.0745
  466MOL0     H62854   5.051   4.106   6.087 -2.2826  0.2698  0.4340
  466MOL0     H62855   5.094   3.870   6.149 -0.8412 -1.1795  1.1493
  466MOL0     H62856   5.127   3.916   6.318  0.6416 -1.7180 -0.1251
  466MOL0     H62857   4.925   3.838   6.323  2.7808  0.6678  0.5499
  466MOL0     H62858   4.879   4.009   6.293  0.6577  0.1146 -0.7707
  466MOL0     H62859   4.895   3.790   6.072 -1.3166 -1.6553 -0.2071
  466MOL0     H62860   4.863   3.959   6.052  2.3161 -1.3730 -0.9092
  466MOL0     H62861   4.719   3.645   6.222 -2.0201 -2.0474 -0.5960
  466MOL0     H62862   4.342   3.620   6.139 -0.2421 -2.5142 -0.2836
  466MOL0     H62863   4.485   3.528   6.185  1.4459  0.9647 -1.6275
  466MOL0     H62864   4.329   3.734   6.355 -0.7417 -0.3953  0.4292
  466MOL0     H62865   4.463   3.645   6.427 -1.2742 -0.1658  0.4814
  466MOL0     H62866   4.307   3.508   6.503 -0.8847 -0.9153  0.0797
  466MOL0     H62867   4.294   3.447   6.341  0.1933  1.1418 -0.9309
  466MOL0     H62868   4.076   3.490   6.373 -0.1443  0.1174  1.5774
  466MOL0     H62869   4.116   3.657   6.322 -0.8564  0.4532  0.3991
  466MOL0     H62870   4.002   3.741   6.730  2.0458  2.1936 -0.6509
  466MOL0     H62871   3.849   4.024   6.772 -0.1041  0.5684  2.1595
  466MOL0     H62872   3.732   3.901   6.838  0.1117 -2.5867 -0.9536
  466MOL0     H62873   3.902   3.881   6.854  1.1003  0.8506 -0.0641
  466MOL0     H62874   3.363   3.847   6.622  0.0206  1.9123  2.2630
  466MOL0     H62875   3.115   3.864   6.589  2.3722 -1.8531 -0.2535
  466MOL0     H62876   2.967   4.228   6.411  0.5372  1.9481 -2.8797
  466MOL0     H62877   2.949   4.136   6.266  2.6228 -2.8846  0.7831
  466MOL0     H62878   2.718   4.192   6.319 -2.5505 -1.0843 -0.0754
  466MOL0     H62879   2.749   4.021   6.338  0.4790 -0.9364 -0.7807
  466MOL0     H62880   2.742   4.249   6.562  0.6138 -0.7810  2.0375
  466MOL0     H62881   2.784   4.089   6.602 -2.5602 -1.3085  1.4112
  466MOL0     H62882   2.527   4.211   6.512  0.4033  0.8281  0.2616
  466MOL0     H62883   2.548   4.028   6.504 -0.5216  0.6924  0.7674
  466MOL0     H62884   2.537   4.193   6.760 -0.5885 -1.2403  1.1177
  466MOL0     H62885   2.628   4.043   6.746  3.2661  2.3901 -0.8579
  466MOL0     H62886   2.332   4.067   6.683  0.5371  2.0110  1.4218
  466MOL0     H62887   2.427   3.922   6.688  0.5486 -1.1819  2.3454
  466MOL0     H62888   2.390   4.110   6.929 -1.0341 -0.7111  1.6467
  466MOL0     H62889   2.499   3.968   6.928  0.9016 -2.7371 -1.9913
  466MOL0     H62890   2.322   3.815   6.867  1.9186 -1.2676  2.5056
  466MOL0     H62891   2.203   3.949   6.868 -0.5494 -0.6203  1.4635
  466MOL0     H62892   3.176   4.153   6.269 -0.4141 -1.9870 -1.6028
  466MOL0     H62893   3.416   4.084   6.268  0.7953  0.1356 -0.4433
  466MOL0     H62894   3.698   3.793   6.347 -1.6066  0.0664  0.5892
  466MOL0     H62895   3.900   3.661   6.323 -0.0331 -2.6534  0.7210
  466MOL0     H62896   5.838   4.407   6.470 -0.6541 -0.4724 -0.4135
  466MOL0     H62897   6.078   4.303   6.497 -0.3436 -0.3493  0.7845
  466MOL0     H62898   6.400   3.856   6.258  0.8177 -1.1616  0.7271
  466MOL0     H62899   6.630   3.863   6.283  3.2679  0.9915  1.5597
  466MOL0     H62900   6.797   4.116   6.667 -1.6053  0.4175 -3.5437
  466MOL0     H62901   6.739   3.950   6.711 -2.0898  0.3552  0.3868
  466MOL0     H62902   6.955   3.884   6.614 -0.8576  0.7522 -0.9590
  466MOL0     H62903   6.950   3.958   6.785  0.0434  0.1104  0.9113
  466MOL0     H62904   7.046   4.170   6.683  0.8203  0.8055 -1.2661
  466MOL0     H62905   7.033   4.101   6.522 -3.0834 -0.4402  0.7614
  466MOL0     H62906   7.234   3.957   6.608  2.3672  0.6431 -0.7079
  466MOL0     H62907   7.214   4.055   6.760  1.4547 -0.1526 -0.5212
  466MOL0     H62908   7.378   4.315   6.462 -1.2561  0.7800  0.3070
  466MOL0     H62909   6.558   4.091   6.651 -3.2141 -1.5840  1.9293
  466MOL0     H62910   6.328   4.063   6.617 -2.1654  0.4225 -2.4486
  467MOL0     O62911   5.058   8.837   4.955  0.0129  0.1973 -0.2594
  467MOL0     C62912   5.002   8.864   4.849  1.2096  0.1727  0.8662
  467MOL0     O62913   4.872   8.909   4.838 -0.2953 -0.5846 -0.3174
  467MOL0     C62914   4.784   8.905   4.949  0.1761 -0.2340  0.5044
  467MOL0     C62915   4.677   8.998   4.951 -0.4408 -0.1705  0.0473
  467MOL0     C62916   4.587   8.998   5.061  0.4988  0.8344  0.6143
  467MOL0     C62917   4.594   8.899   5.156  0.0287  0.4373 -0.4167
  467MOL0     O62918   4.500   8.901   5.248  0.3614  0.8641  0.3476
  467MOL0     C62919   4.484   8.792   5.349  0.2081 -0.5036 -0.5375
  467MOL0     C62920   4.340   8.783   5.394 -0.2020  0.0539 -0.2411
  467MOL0     C62921   4.242   8.756   5.275  0.1649  0.3922  0.3616
  467MOL0     C62922   4.103   8.706   5.320 -0.0841  0.4806  0.3787
  467MOL0     C62923   3.996   8.814   5.348  0.0045 -0.2174 -0.1077
  467MOL0     C62924   3.876   8.757   5.418 -0.4132  0.0879  0.0618
  467MOL0     C62925   3.781   8.871   5.457 -0.3716 -0.7630 -0.8757
  467MOL0     C62926   3.680   8.815   5.554 -0.4817 -0.1888  0.4601
  467MOL0     N62927   3.574   8.721   5.497 -0.3690 -1.3462  0.5283
  467MOL0     C62928   3.494   8.776   5.402  0.6611  0.2875  0.6631
  467MOL0     C62929   3.451   8.676   5.325  0.4122  0.4872 -0.3318
  467MOL0     C62930   3.357   8.692   5.204 -0.0675  0.1700 -1.2457
  467MOL0     C62931   3.214   8.659   5.262 -0.2166  0.8941  0.2477
  467MOL0     C62932   3.203   8.510   5.293  0.2376  0.4379  0.2663
  467MOL0     C62933   3.060   8.440   5.270  0.9586 -0.7538 -0.0733
  467MOL0     O62934   2.957   8.500   5.358 -0.3807  0.9610 -1.0121
  467MOL0     C62935   2.830   8.460   5.367  1.0700  0.1139 -0.4503
  467MOL0     C62936   2.770   8.349   5.308  0.2681 -0.6139  0.2665
  467MOL0     C62937   2.636   8.309   5.339  0.3995 -0.7567  0.5337
  467MOL0     C62938   2.590   8.194   5.262 -0.4147 -0.0692  0.7160
  467MOL0     C62939   2.561   8.388   5.431 -0.2539  0.4792 -0.2597
  467MOL0     C62940   2.421   8.360   5.466  0.2694 -0.1156  0.0224
  467MOL0     O62941   2.340   8.463   5.514 -0.3089  0.2489 -0.3676
  467MOL0     C62942   2.206   8.444   5.529 -0.3029  0.5686 -0.5816
  467MOL0     C62943   2.137   8.478   5.645 -0.9676 -0.2212 -0.2948
  467MOL0     C62944   1.994   8.477   5.645  0.3841 -0.6439  1.2132
  467MOL0     C62945   1.924   8.453   5.523  0.4994 -0.2067  1.4445
  467MOL0     O62946   1.793   8.455   5.504  0.0702  0.6629 -0.0744
  467MOL0     C62947   1.707   8.447   5.622  0.6634  0.4475 -0.3056
  467MOL0     C62948   1.570   8.392   5.569  0.9945 -0.6446 -0.1363
  467MOL0     C62949   1.500   8.493   5.477  0.1209  0.2054 -0.1350
  467MOL0     C62950   1.361   8.447   5.427  1.0872  0.2787  0.0721
  467MOL0     C62951   1.300   8.568   5.344 -0.0748  0.8057 -0.3186
  467MOL0     C62952   1.182   8.511   5.277  0.1809 -0.2570  0.0199
  467MOL0     C62953   1.120   8.628   5.190  0.0109  1.0008  0.9626
  467MOL0     C62954   0.995   8.570   5.124 -0.4219 -0.2659 -0.1943
  467MOL0    Cl62955   0.911   8.675   4.999 -0.0713  0.2713 -0.1072
  467MOL0     C62956   1.995   8.410   5.413 -1.0384  1.0933 -0.1168
  467MOL0     C62957   2.132   8.417   5.411 -0.7399  0.4879 -0.7234
  467MOL0     O62958   2.378   8.247   5.443  0.2076 -0.4171 -0.0609
  467MOL0     C62959   2.613   8.511   5.469 -0.6059 -0.5308 -0.2219
  467MOL0     C62960   2.751   8.544   5.445  0.7475  0.1539 -0.2329
  467MOL0     N62961   3.491   8.556   5.376 -0.4990 -1.3073 -0.7245
  467MOL0     N62962   3.573   8.586   5.476 -0.7133 -0.2388  0.7655
  467MOL0     C62963   4.698   8.805   5.149  0.1892 -0.5137  0.3211
  467MOL0     C62964   4.791   8.802   5.044  0.5030 -0.3103  1.0425
  467MOL0     C62965   5.078   8.852   4.712  0.0754 -0.2118 -0.5682
  467MOL0     C62966   5.217   8.820   4.705 -0.2276  0.2541 -0.1471
  467MOL0     C62967   5.295   8.801   4.588 -0.5915  0.0390 -0.3234
  467MOL0     C62968   5.234   8.837   4.471  0.1589  0.1728  1.0553
  467MOL0     O62969   5.307   8.816   4.358  0.2240  0.1639  0.8245
  467MOL0     C62970   5.242   8.836   4.229 -1.7031 -0.4037 -0.9469
  467MOL0     C62971   5.354   8.828   4.122 -0.1538  0.7537  0.1165
  467MOL0     C62972   5.459   8.945   4.140  0.0385  0.5733 -0.7100
  467MOL0     C62973   5.577   8.937   4.041 -0.4690 -0.5083  0.2277
  467MOL0     C62974   5.698   8.989   4.100  0.1606 -0.2516 -0.6252
  467MOL0     C62975   5.802   9.025   4.140 -0.7619 -0.8988 -0.1597
  467MOL0     C62976   5.101   8.890   4.472  0.1305 -0.8677 -0.2279
  467MOL0     C62977   5.021   8.886   4.586  0.0842 -0.0086 -0.1173
  467MOL0     H62978   4.680   9.070   4.870  1.8420  1.0765  1.1272
  467MOL0     H62979   4.522   9.080   5.086 -0.6391 -0.8082  3.6242
  467MOL0     H62980   4.507   8.697   5.301  1.1319 -0.4344 -0.2435
  467MOL0     H62981   4.550   8.815   5.433 -0.0765 -3.2613  0.5393
  467MOL0     H62982   4.335   8.698   5.462 -1.3048  0.1825 -0.1446
  467MOL0     H62983   4.308   8.880   5.434  1.4118  1.2346 -1.5988
  467MOL0     H62984   4.248   8.844   5.211  1.2048  0.0526 -0.0207
  467MOL0     H62985   4.295   8.675   5.224 -0.5042 -0.4584  0.9703
  467MOL0     H62986   4.066   8.637   5.243  0.2618  1.5463 -0.7817
  467MOL0     H62987   4.118   8.646   5.410 -1.7036  0.4240  0.6346
  467MOL0     H62988   4.046   8.884   5.417  2.1801  0.5705 -2.3167
  467MOL0     H62989   3.961   8.861   5.256 -2.4262  0.4184  1.0662
  467MOL0     H62990   3.825   8.698   5.342  1.1375  0.6517 -1.4954
  467MOL0     H62991   3.904   8.693   5.502 -2.1782  0.2715  0.8280
  467MOL0     H62992   3.832   8.953   5.508 -2.0217 -0.4574  0.3644
  467MOL0     H62993   3.718   8.909   5.376 -1.2775 -1.2769 -0.4318
  467MOL0     H62994   3.633   8.904   5.597  0.4919  0.6701 -0.2104
  467MOL0     H62995   3.725   8.758   5.636 -2.6074 -1.9154  0.5343
  467MOL0     H62996   3.480   8.880   5.374 -0.6459 -0.2344 -0.7221
  467MOL0     H62997   3.363   8.792   5.160  1.0448  1.1434  0.9541
  467MOL0     H62998   3.387   8.627   5.122  1.6986  0.6938 -1.0653
  467MOL0     H62999   3.149   8.694   5.181  1.7811  0.5769 -1.5994
  467MOL0     H63000   3.184   8.726   5.343  2.3887  3.8046 -0.9713
  467MOL0     H63001   3.226   8.478   5.395 -0.6465  2.6517  1.2327
  467MOL0     H63002   3.268   8.455   5.225 -3.0220 -3.0141 -0.3994
  467MOL0     H63003   3.062   8.332   5.285 -0.9309 -1.0935 -1.7957
  467MOL0     H63004   3.031   8.438   5.164 -2.2435 -1.0802  0.7158
  467MOL0     H63005   2.832   8.300   5.233 -0.0711  2.2276 -2.0420
  467MOL0     H63006   2.496   8.217   5.212  0.3421  0.9829 -0.2713
  467MOL0     H63007   2.664   8.171   5.185  1.2503  1.9979  1.6051
  467MOL0     H63008   2.579   8.113   5.335 -1.7086  0.4004  1.0788
  467MOL0     H63009   2.178   8.511   5.740 -0.2747 -0.9789 -0.3178
  467MOL0     H63010   1.950   8.495   5.743 -2.4407  0.9800 -0.2143
  467MOL0     H63011   1.745   8.385   5.703 -1.1221  2.3434  2.1600
  467MOL0     H63012   1.701   8.547   5.667 -0.5377  0.3693 -0.2360
  467MOL0     H63013   1.590   8.296   5.521 -1.2424 -0.3033 -1.9006
  467MOL0     H63014   1.504   8.378   5.656  1.2445  1.6952  0.4957
  467MOL0     H63015   1.573   8.502   5.396  2.0139 -1.4960  1.2799
  467MOL0     H63016   1.486   8.590   5.527 -0.5191 -0.3002  0.6911
  467MOL0     H63017   1.360   8.357   5.364  1.5968  1.1657 -1.2493
  467MOL0     H63018   1.297   8.428   5.514  0.5232  1.0222 -0.1710
  467MOL0     H63019   1.361   8.619   5.269  0.1856  2.9476  1.2553
  467MOL0     H63020   1.266   8.642   5.418 -1.9515 -1.5316  1.2986
  467MOL0     H63021   1.218   8.435   5.208 -0.1969 -1.8289  1.4811
  467MOL0     H63022   1.106   8.463   5.340  1.4472 -1.1066  0.9393
  467MOL0     H63023   1.186   8.658   5.108 -2.0351 -3.6159 -2.8564
  467MOL0     H63024   1.093   8.715   5.252  2.8616  1.0921  2.2130
  467MOL0     H63025   0.930   8.568   5.211 -0.3221 -0.0770 -0.1156
  467MOL0     H63026   1.017   8.469   5.089 -1.2816 -0.7528  0.6263
  467MOL0     H63027   1.955   8.371   5.320 -2.0173  1.1686  0.2501
  467MOL0     H63028   2.184   8.420   5.316 -0.8849  3.2217 -0.8168
  467MOL0     H63029   2.563   8.593   5.518 -0.6858  0.9430 -2.6123
  467MOL0     H63030   2.790   8.640   5.478  1.6747  0.5971 -2.4398
  467MOL0     H63031   4.722   8.736   5.229  0.8916 -0.7785 -0.1160
  467MOL0     H63032   4.866   8.724   5.053  1.8786  1.0008  1.4955
  467MOL0     H63033   5.262   8.813   4.803 -3.7571  0.4018  1.6364
  467MOL0     H63034   5.397   8.763   4.584  0.1234  1.8306  0.0242
  467MOL0     H63035   5.173   8.757   4.198  1.1950 -2.6063 -2.3010
  467MOL0     H63036   5.180   8.926   4.220 -0.2039  0.8827  0.7268
  467MOL0     H63037   5.320   8.826   4.018  2.8472  0.7043 -0.9440
  467MOL0     H63038   5.400   8.729   4.129 -0.8552  0.4180  0.1143
  467MOL0     H63039   5.498   8.947   4.242 -1.8206  0.5858  0.0406
  467MOL0     H63040   5.401   9.037   4.127 -4.5535 -1.9537  0.0370
  467MOL0     H63041   5.561   8.999   3.952  1.6501 -1.4973 -0.9200
  467MOL0     H63042   5.598   8.835   4.008  0.7797 -1.3783  3.3554
  467MOL0     H63043   5.899   9.057   4.172  0.1022 -3.0439 -0.4554
  467MOL0     H63044   5.049   8.926   4.384 -2.3618 -2.4337  0.5006
  467MOL0     H63045   4.921   8.928   4.588  1.1171  2.6884  0.8336
  468MOL0     O63046   2.024   1.972   9.500 -0.2191  0.0561  0.3676
  468MOL0     C63047   2.035   1.876   9.421 -0.7712  0.0031 -0.2137
  468MOL0     O63048   1.935   1.811   9.366  0.4327 -0.0783  0.8168
  468MOL0     C63049   1.812   1.844   9.385  0.2274 -0.2262 -0.2696
  468MOL0     C63050   1.715   1.760   9.447  0.1828  0.1236 -0.2779
  468MOL0     C63051   1.580   1.789   9.454 -0.3616  0.1097 -0.6724
  468MOL0     C63052   1.531   1.910   9.410  0.1386 -0.0816  0.2521
  468MOL0     O63053   1.400   1.935   9.439  0.7234  0.9974 -0.1014
  468MOL0     C63054   1.318   2.014   9.355 -0.0921 -0.6364 -0.5882
  468MOL0     C63055   1.289   1.939   9.226 -0.1088  0.4249  0.0943
  468MOL0     C63056   1.212   1.809   9.238 -0.4439 -0.0109 -0.2456
  468MOL0     C63057   1.098   1.809   9.349 -0.3325  1.6827 -0.5817
  468MOL0     C63058   1.017   1.679   9.356  0.3501 -0.0097  0.3947
  468MOL0     C63059   0.911   1.666   9.247  0.0680  0.1464  0.0677
  468MOL0     C63060   0.802   1.765   9.250  0.0036 -0.3105  0.3177
  468MOL0     C63061   0.711   1.781   9.373 -0.1762  0.3056  0.1985
  468MOL0     N63062   0.610   1.672   9.367 -0.5963 -0.4152 -0.3547
  468MOL0     C63063   0.500   1.677   9.290 -0.2692  0.2378  0.4174
  468MOL0     C63064   0.434   1.567   9.318  0.4774 -0.2047  0.0275
  468MOL0     C63065   0.310   1.525   9.244  0.6740  0.1768 -0.3679
  468MOL0     C63066   0.183   1.593   9.303 -0.4044  0.3629 -1.0007
  468MOL0     C63067   0.174   1.578   9.449  0.4127 -0.4176  0.0497
  468MOL0     C63068   0.051   1.648   9.506 -0.9514 -0.2424  1.0514
  468MOL0     O63069  -0.065   1.575   9.462  0.0465  0.5154 -0.4353
  468MOL0     C63070  -0.176   1.596   9.543 -0.2559 -0.1577  0.8021
  468MOL0     C63071  -0.188   1.666   9.663 -0.6787 -0.8489  0.1184
  468MOL0     C63072  -0.312   1.653   9.733 -0.9651 -0.2004  0.4681
  468MOL0     C63073  -0.313   1.709   9.870 -0.1810 -0.1226 -0.5337
  468MOL0     C63074  -0.425   1.597   9.676  0.3623  0.5539 -0.9873
  468MOL0     C63075  -0.552   1.617   9.739 -0.0835 -0.3674  0.3209
  468MOL0     O63076  -0.593   1.749   9.760  0.1994 -0.2273  0.1680
  468MOL0     C63077  -0.725   1.773   9.776 -0.4367  0.2108  0.7216
  468MOL0     C63078  -0.769   1.862   9.871 -0.3621  0.1855  0.3624
  468MOL0     C63079  -0.903   1.884   9.900 -0.4672  0.0541  0.0235
  468MOL0     C63080  -1.003   1.821   9.827  0.1044 -0.4818 -0.4311
  468MOL0     O63081  -1.132   1.844   9.862  0.3725  0.6762  0.2597
  468MOL0     C63082  -1.238   1.796   9.770  0.3386  0.9045  0.5938
  468MOL0     C63083  -1.375   1.846   9.826  0.4937 -0.4459 -0.1423
  468MOL0     C63084  -1.375   1.987   9.876 -0.4797 -0.0127 -0.9836
  468MOL0     C63085  -1.514   2.041   9.900 -0.1626  0.0872 -0.1655
  468MOL0     C63086  -1.504   2.192   9.936  0.4953 -0.2106  0.1567
  468MOL0     C63087  -1.649   2.246   9.949 -0.4244 -0.3912  0.1845
  468MOL0     C63088  -1.638   2.400   9.979  0.7822 -0.6095 -0.0016
  468MOL0     C63089  -1.768   2.458  10.015 -0.1393  0.0294 -0.0724
  468MOL0    Cl63090  -1.819   2.410  10.176 -0.1225  0.0723 -0.1019
  468MOL0     C63091  -0.964   1.733   9.727 -0.7691  0.5294  0.7123
  468MOL0     C63092  -0.826   1.707   9.692 -0.3213 -0.1339  0.2994
  468MOL0     O63093  -0.617   1.513   9.763  0.4810  0.4533  0.3783
  468MOL0     C63094  -0.405   1.530   9.563 -0.1833 -0.0015 -0.0938
  468MOL0     C63095  -0.276   1.517   9.499 -0.6834 -1.6255  0.2836
  468MOL0     N63096   0.502   1.494   9.415  0.4160 -0.2256  0.3305
  468MOL0     N63097   0.605   1.564   9.449 -0.0771  0.2480 -0.2021
  468MOL0     C63098   1.625   1.999   9.355  0.2921  0.2193 -0.7003
  468MOL0     C63099   1.761   1.964   9.338 -0.7626  0.4509 -0.2034
  468MOL0     C63100   2.173   1.838   9.387  0.2758 -0.2895  0.5184
  468MOL0     C63101   2.199   1.729   9.300 -0.1784  0.4610 -0.0833
  468MOL0     C63102   2.328   1.709   9.256 -0.3456  0.4613 -0.7690
  468MOL0     C63103   2.436   1.774   9.314 -0.2349  0.7211 -0.4034
  468MOL0     O63104   2.561   1.769   9.263  0.0506  0.7078 -0.1345
  468MOL0     C63105   2.594   1.670   9.161 -0.0641 -0.2225  0.1973
  468MOL0     C63106   2.733   1.673   9.099 -0.5910  0.9712 -0.0591
  468MOL0     C63107   2.844   1.607   9.182 -0.1798  0.1137 -0.0364
  468MOL0     C63108   2.917   1.708   9.271 -0.1471  0.0579  0.3171
  468MOL0     C63109   3.048   1.664   9.308 -0.4422 -0.7377 -1.1366
  468MOL0     C63110   3.160   1.622   9.344 -0.2962 -0.0128  0.1461
  468MOL0     C63111   2.416   1.872   9.412 -0.5371  0.5903  0.2265
  468MOL0     C63112   2.283   1.903   9.449 -0.5059 -0.9461  0.4250
  468MOL0     H63113   1.746   1.678   9.511 -0.0194 -2.6967 -3.5167
  468MOL0     H63114   1.508   1.720   9.498  0.5195 -0.2093  0.3069
  468MOL0     H63115   1.230   2.052   9.406  0.8874 -0.8191  1.3464
  468MOL0     H63116   1.364   2.110   9.326 -1.2302 -0.2142 -1.0442
  468MOL0     H63117   1.220   2.006   9.173 -1.8532  0.0767  1.8134
  468MOL0     H63118   1.383   1.907   9.180 -0.4585 -0.3506 -0.1035
  468MOL0     H63119   1.166   1.785   9.142  0.2874 -2.7745  0.0094
  468MOL0     H63120   1.289   1.738   9.268 -1.3941  0.0796  2.7600
  468MOL0     H63121   1.154   1.807   9.443  0.8649  0.9151 -1.2847
  468MOL0     H63122   1.038   1.900   9.353 -1.4640  1.0773 -2.6664
  468MOL0     H63123   1.091   1.599   9.360 -0.3474 -0.7051 -0.3297
  468MOL0     H63124   0.960   1.675   9.449 -0.2834 -2.3501 -0.0192
  468MOL0     H63125   0.954   1.668   9.146 -0.8126 -1.1706 -0.3567
  468MOL0     H63126   0.858   1.571   9.259  0.6058 -0.1690 -0.0103
  468MOL0     H63127   0.843   1.865   9.231  1.7685 -1.0264  0.1670
  468MOL0     H63128   0.735   1.734   9.170  1.0076 -2.7284  0.3271
  468MOL0     H63129   0.668   1.881   9.364 -0.2733  0.2599  0.1606
  468MOL0     H63130   0.774   1.786   9.463 -1.7226  3.2342  1.2554
  468MOL0     H63131   0.472   1.749   9.214 -1.6716 -2.5486 -1.9062
  468MOL0     H63132   0.328   1.549   9.139 -0.3050  1.5650 -0.2461
  468MOL0     H63133   0.302   1.416   9.256 -0.2938  0.4886  2.8584
  468MOL0     H63134   0.096   1.546   9.256  0.0031 -1.1824 -0.2731
  468MOL0     H63135   0.190   1.696   9.267 -1.4383  0.9512  0.3954
  468MOL0     H63136   0.265   1.624   9.489  0.6742 -1.7154  1.0352
  468MOL0     H63137   0.175   1.473   9.479 -2.4568 -0.5448  0.0019
  468MOL0     H63138   0.041   1.753   9.477  1.7534 -0.2617 -0.2494
  468MOL0     H63139   0.061   1.659   9.615  0.5824  0.7619  0.8420
  468MOL0     H63140  -0.107   1.719   9.713 -0.7813 -1.5382  1.0369
  468MOL0     H63141  -0.355   1.635   9.938  0.5436 -1.7874 -1.8229
  468MOL0     H63142  -0.210   1.734   9.895 -0.2937  1.3342 -1.3614
  468MOL0     H63143  -0.386   1.791   9.867 -1.1172 -0.8896  0.5465
  468MOL0     H63144  -0.701   1.921   9.932 -1.6983  2.4344 -0.2023
  468MOL0     H63145  -0.928   1.958   9.976  0.1923  0.1085  0.1879
  468MOL0     H63146  -1.222   1.842   9.672  0.3878  1.3000  0.7900
  468MOL0     H63147  -1.241   1.687   9.759  3.6030  0.6476  1.3373
  468MOL0     H63148  -1.446   1.834   9.744 -0.3438 -0.2025  0.5290
  468MOL0     H63149  -1.421   1.777   9.897 -0.9888 -1.8358 -2.3243
  468MOL0     H63150  -1.315   2.051   9.810  0.5670  0.9425  0.8007
  468MOL0     H63151  -1.322   1.994   9.971 -2.0866 -1.5090  0.0645
  468MOL0     H63152  -1.588   2.030   9.821 -1.0430 -0.5218  0.7110
  468MOL0     H63153  -1.564   1.997   9.987 -2.0844  0.8351 -0.8344
  468MOL0     H63154  -1.448   2.245   9.858 -0.4215 -2.2071 -1.9691
  468MOL0     H63155  -1.459   2.206  10.035  3.3638  1.8241 -1.2760
  468MOL0     H63156  -1.701   2.227   9.854  1.2059 -2.0606 -0.4461
  468MOL0     H63157  -1.707   2.203  10.031 -0.8152 -0.2074  0.0055
  468MOL0     H63158  -1.598   2.441   9.886  1.5507  0.3315  0.7268
  468MOL0     H63159  -1.560   2.426  10.051  3.6506 -0.0640 -3.0573
  468MOL0     H63160  -1.849   2.419   9.953  0.7913  0.6624 -1.7403
  468MOL0     H63161  -1.761   2.566  10.002  1.9271  0.0557  0.7825
  468MOL0     H63162  -1.035   1.679   9.665  1.8766 -1.8128 -0.4468
  468MOL0     H63163  -0.793   1.631   9.621 -0.6940  1.5613 -1.7779
  468MOL0     H63164  -0.491   1.478   9.522  1.2356 -3.7024  1.2172
  468MOL0     H63165  -0.262   1.457   9.410  0.9938 -2.0379  0.7909
  468MOL0     H63166   1.599   2.095   9.312 -0.2894  1.2636  1.8284
  468MOL0     H63167   1.829   2.043   9.305  0.7662 -0.7437 -0.0293
  468MOL0     H63168   2.118   1.670   9.259 -0.3030 -1.1488  2.3074
  468MOL0     H63169   2.333   1.645   9.168  0.1941 -1.2466  0.4455
  468MOL0     H63170   2.582   1.569   9.200 -0.0345  0.7020  2.8021
  468MOL0     H63171   2.523   1.685   9.078  1.0581 -3.8189 -1.6240
  468MOL0     H63172   2.756   1.775   9.065  3.4377  1.1753  2.5846
  468MOL0     H63173   2.727   1.610   9.010 -0.9492 -0.9015  1.2421
  468MOL0     H63174   2.920   1.563   9.118 -0.8815  0.6702 -1.2872
  468MOL0     H63175   2.802   1.519   9.233  1.3451 -2.0316 -2.2594
  468MOL0     H63176   2.860   1.717   9.364  1.8387  1.7695  1.4562
  468MOL0     H63177   2.924   1.804   9.219  0.1486  0.7508  1.5838
  468MOL0     H63178   3.260   1.584   9.348 -0.1557  0.2873 -0.4396
  468MOL0     H63179   2.504   1.927   9.444  0.7815 -1.8935  1.1288
  468MOL0     H63180   2.267   1.985   9.519  1.1314  0.5499 -0.8449
  469MOL0     O63181  10.090   1.637   6.575  0.4131  0.4944  0.1995
  469MOL0     C63182  10.149   1.554   6.643 -0.6047 -0.4035  0.5722
  469MOL0     O63183  10.104   1.452   6.716  0.2514  0.3152  0.2798
  469MOL0     C63184   9.964   1.444   6.732 -0.2781 -0.1159  0.7890
  469MOL0     C63185   9.907   1.309   6.736  0.1775  0.4607 -0.4828
  469MOL0     C63186   9.764   1.297   6.750 -0.1397 -0.3664 -0.6965
  469MOL0     C63187   9.681   1.407   6.774  0.4906  0.3973 -0.0930
  469MOL0     O63188   9.552   1.399   6.824  0.3802  0.2726 -0.3910
  469MOL0     C63189   9.486   1.270   6.827  0.6266 -0.4383  0.4727
  469MOL0     C63190   9.360   1.280   6.914 -0.2458 -0.7386 -0.5471
  469MOL0     C63191   9.258   1.382   6.862  0.4245  0.2236 -0.1462
  469MOL0     C63192   9.112   1.350   6.899 -0.0434 -0.9864  0.4189
  469MOL0     C63193   9.034   1.479   6.852 -0.4468  0.0994  0.6649
  469MOL0     C63194   8.994   1.481   6.699 -0.3659 -0.4851  0.3523
  469MOL0     C63195   8.935   1.353   6.636  0.1947  0.2108 -0.6314
  469MOL0     C63196   8.805   1.319   6.701 -0.2301  0.5355  0.0847
  469MOL0     N63197   8.704   1.421   6.691 -0.3330  0.8548  0.7911
  469MOL0     C63198   8.663   1.491   6.801  0.8147  0.0736 -0.5572
  469MOL0     C63199   8.569   1.574   6.753  0.3021 -1.4855  0.2879
  469MOL0     C63200   8.480   1.661   6.836 -0.3026  0.0611  0.3463
  469MOL0     C63201   8.372   1.728   6.755 -0.5177 -0.8130  0.0726
  469MOL0     C63202   8.428   1.840   6.666  0.5077 -0.0683 -0.0780
  469MOL0     C63203   8.321   1.898   6.581  0.2616 -0.2588 -0.2548
  469MOL0     O63204   8.304   1.828   6.458  0.4767  0.5972  0.2888
  469MOL0     C63205   8.172   1.785   6.435 -0.0613  0.1973 -0.3210
  469MOL0     C63206   8.134   1.666   6.468 -0.8515 -0.0908 -0.6236
  469MOL0     C63207   8.011   1.620   6.455 -0.7698 -0.5479  1.0357
  469MOL0     C63208   7.992   1.478   6.496 -0.4896  0.3570  0.3514
  469MOL0     C63209   7.908   1.700   6.386 -0.1533  1.6025  0.1515
  469MOL0     C63210   7.767   1.659   6.350 -0.1460  0.2861 -1.1030
  469MOL0     O63211   7.684   1.751   6.292 -0.0721 -0.7185  0.8784
  469MOL0     C63212   7.552   1.712   6.268 -0.2103 -0.6679 -0.3707
  469MOL0     C63213   7.451   1.799   6.314 -0.3737  1.4749  0.2777
  469MOL0     C63214   7.318   1.762   6.292  0.0729 -0.6376  1.1575
  469MOL0     C63215   7.282   1.652   6.215 -0.1702  0.0970  0.1848
  469MOL0     O63216   7.154   1.606   6.184  0.1182 -0.6366  0.5173
  469MOL0     C63217   7.044   1.693   6.209 -0.5380  0.3360  0.6395
  469MOL0     C63218   6.917   1.633   6.140 -0.6496 -0.2695  0.2190
  469MOL0     C63219   6.862   1.512   6.221  0.6398  0.0147  1.0026
  469MOL0     C63220   6.738   1.448   6.161 -0.2148 -0.2061  0.5215
  469MOL0     C63221   6.696   1.315   6.228  0.1762  0.8307  0.4272
  469MOL0     C63222   6.766   1.190   6.168  0.2764 -0.3305  0.0607
  469MOL0     C63223   6.692   1.070   6.232  0.0792 -0.1694 -0.8455
  469MOL0     C63224   6.778   0.954   6.209 -0.0266  0.8944 -0.1511
  469MOL0    Cl63225   6.709   0.792   6.252 -0.2740  0.1809  0.0149
  469MOL0     C63226   7.389   1.567   6.173  0.5346 -0.7728  0.0270
  469MOL0     C63227   7.521   1.599   6.195 -0.1569  0.1221 -1.1746
  469MOL0     O63228   7.731   1.543   6.383  0.4184 -0.3988  0.1171
  469MOL0     C63229   7.949   1.825   6.344  0.3786  0.5606 -0.2947
  469MOL0     C63230   8.080   1.868   6.368  0.1903  0.2670  0.1277
  469MOL0     N63231   8.548   1.544   6.618 -0.4150 -0.2554  0.1513
  469MOL0     N63232   8.631   1.450   6.582 -0.0395 -0.1115 -0.2191
  469MOL0     C63233   9.740   1.535   6.769 -0.1459 -0.2303  0.4275
  469MOL0     C63234   9.873   1.550   6.741 -0.2671 -0.3714 -0.0723
  469MOL0     C63235  10.297   1.565   6.640  0.4351  0.0379  0.6916
  469MOL0     C63236  10.370   1.682   6.626  0.4447  0.2288 -0.2641
  469MOL0     C63237  10.514   1.679   6.629  0.8892 -0.2435 -0.1916
  469MOL0     C63238  10.589   1.561   6.660  0.7629  0.0534 -0.1948
  469MOL0     O63239  10.721   1.547   6.693 -0.1995 -0.1261  0.7018
  469MOL0     C63240  10.810   1.659   6.711 -0.1401 -0.0277 -0.4932
  469MOL0     C63241  10.856   1.685   6.861 -0.7974  0.1194  0.1417
  469MOL0     C63242  10.734   1.733   6.946 -0.1674  0.4490 -0.5515
  469MOL0     C63243  10.789   1.825   7.061  0.6666 -0.2894 -0.3122
  469MOL0     C63244  10.700   1.877   7.158  0.8455 -0.3451  0.2338
  469MOL0     C63245  10.629   1.929   7.250  0.0378 -0.0994  0.4226
  469MOL0     C63246  10.510   1.440   6.653 -0.0254  0.8257  0.4143
  469MOL0     C63247  10.374   1.446   6.654  0.3959  0.4984  0.6705
  469MOL0     H63248   9.960   1.215   6.748 -2.2407 -0.6703  3.2948
  469MOL0     H63249   9.721   1.198   6.759  1.2594 -0.9399 -0.0251
  469MOL0     H63250   9.444   1.243   6.730 -2.0439 -0.2992  1.5171
  469MOL0     H63251   9.553   1.192   6.864  4.2319  2.7367  1.3185
  469MOL0     H63252   9.315   1.180   6.912  0.6520 -1.1385 -1.2515
  469MOL0     H63253   9.391   1.302   7.017 -1.2175 -1.6021 -0.0491
  469MOL0     H63254   9.274   1.484   6.897 -0.4051  0.2337  0.2129
  469MOL0     H63255   9.266   1.388   6.753  0.8779 -1.7866 -0.2592
  469MOL0     H63256   9.073   1.260   6.850  0.8527  0.4745 -3.3033
  469MOL0     H63257   9.097   1.344   7.007 -2.2694 -1.5197  0.1421
  469MOL0     H63258   8.935   1.474   6.897 -0.4339 -0.4322  0.6403
  469MOL0     H63259   9.084   1.575   6.868  1.7015 -1.0589  1.2557
  469MOL0     H63260   8.917   1.559   6.704 -0.6566 -0.8412  2.6384
  469MOL0     H63261   9.072   1.516   6.632  0.0837  1.7274  1.8881
  469MOL0     H63262   8.918   1.366   6.529 -2.3885 -0.2069 -0.3395
  469MOL0     H63263   9.014   1.279   6.651  0.3869  0.8831  2.3483
  469MOL0     H63264   8.812   1.290   6.807 -1.0410 -1.5517 -0.3774
  469MOL0     H63265   8.765   1.230   6.651  0.6527  0.0230  0.2678
  469MOL0     H63266   8.713   1.493   6.897  2.6490 -0.6570 -1.4439
  469MOL0     H63267   8.432   1.601   6.914  0.9453 -0.6289  0.6029
  469MOL0     H63268   8.540   1.740   6.883  0.4151 -0.3115  0.0651
  469MOL0     H63269   8.305   1.780   6.824  0.2477  2.2137 -1.3046
  469MOL0     H63270   8.315   1.658   6.693 -4.9879  0.1298  2.6520
  469MOL0     H63271   8.508   1.807   6.598  1.2924 -0.5032  1.0210
  469MOL0     H63272   8.462   1.924   6.729 -2.2730 -0.1772  1.7315
  469MOL0     H63273   8.348   1.995   6.539  0.1635 -0.6273 -1.2020
  469MOL0     H63274   8.231   1.905   6.642  1.0276 -2.1114  1.2105
  469MOL0     H63275   8.216   1.611   6.512 -1.5564  0.1523  1.0610
  469MOL0     H63276   8.064   1.435   6.566  1.8778  0.9673 -1.5887
  469MOL0     H63277   7.897   1.456   6.547 -0.9983  2.3048  0.3041
  469MOL0     H63278   7.999   1.417   6.406  0.6454  3.1473 -1.5727
  469MOL0     H63279   7.472   1.890   6.369  0.1860  3.3497 -2.7879
  469MOL0     H63280   7.238   1.832   6.316  0.1523  0.1798 -0.7601
  469MOL0     H63281   7.017   1.716   6.312 -0.7014 -0.1935  0.7172
  469MOL0     H63282   7.071   1.778   6.146  1.8810 -1.8748 -1.5876
  469MOL0     H63283   6.846   1.715   6.126 -0.4583  0.2140  1.8360
  469MOL0     H63284   6.939   1.599   6.039  0.0618  1.6044 -0.3040
  469MOL0     H63285   6.840   1.521   6.328  1.2321 -0.3346  1.1569
  469MOL0     H63286   6.945   1.441   6.217 -0.3073 -1.0372 -1.0561
  469MOL0     H63287   6.653   1.513   6.183  0.0693  0.1507  0.5733
  469MOL0     H63288   6.749   1.441   6.052 -0.8183  2.3990  0.2328
  469MOL0     H63289   6.590   1.289   6.221  0.1929  0.8216  0.2161
  469MOL0     H63290   6.726   1.323   6.333 -0.9913  1.2244  0.7466
  469MOL0     H63291   6.752   1.187   6.060  0.2737  1.0910  0.0003
  469MOL0     H63292   6.870   1.181   6.198  0.8918  0.8584 -1.5881
  469MOL0     H63293   6.599   1.040   6.182  1.2892  2.6806 -5.4345
  469MOL0     H63294   6.683   1.086   6.340 -0.1358  2.3382 -1.1744
  469MOL0     H63295   6.876   0.967   6.256 -0.0903  0.0923  0.2254
  469MOL0     H63296   6.803   0.936   6.104  0.7291 -2.0036  0.4332
  469MOL0     H63297   7.363   1.484   6.109  1.6333  0.1196 -1.6533
  469MOL0     H63298   7.590   1.530   6.148 -0.8422 -0.0628 -1.9382
  469MOL0     H63299   7.878   1.897   6.306  0.8660  0.6480 -1.0824
  469MOL0     H63300   8.107   1.972   6.353 -0.3561  0.5697  1.1554
  469MOL0     H63301   9.674   1.621   6.773 -0.6309 -0.3989 -2.2152
  469MOL0     H63302   9.925   1.645   6.750 -1.1995 -0.0149  2.7591
  469MOL0     H63303  10.332   1.783   6.622 -1.1526 -0.3343 -0.1390
  469MOL0     H63304  10.568   1.772   6.616  1.8659 -0.6045  1.0276
  469MOL0     H63305  10.905   1.641   6.659  0.8799 -3.5890  2.2049
  469MOL0     H63306  10.765   1.756   6.691  0.2374  0.5438  1.2173
  469MOL0     H63307  10.936   1.759   6.872  1.1770 -1.9650  0.6076
  469MOL0     H63308  10.893   1.586   6.890 -0.8391 -0.5207 -1.8270
  469MOL0     H63309  10.676   1.655   6.995  2.1067 -2.0724 -1.6367
  469MOL0     H63310  10.665   1.793   6.886 -3.8163 -1.9224  0.9571
  469MOL0     H63311  10.837   1.912   7.017 -0.2988  0.6420  0.4130
  469MOL0     H63312  10.852   1.765   7.127 -1.2257  0.4770  2.3792
  469MOL0     H63313  10.568   1.989   7.315 -0.9691  1.3662 -1.7801
  469MOL0     H63314  10.564   1.347   6.667 -0.3759  0.0843 -2.5515
  469MOL0     H63315  10.321   1.353   6.675  0.0473  0.0888 -1.7070
  470MOL0     O63316   3.618   4.599   3.682  0.0987  0.4110 -1.1905
  470MOL0     C63317   3.650   4.685   3.596  0.0922  0.1136  0.1969
  470MOL0     O63318   3.568   4.785   3.545 -0.3069  0.2272  0.3244
  470MOL0     C63319   3.441   4.794   3.591 -0.3424 -0.3128  0.0411
  470MOL0     C63320   3.417   4.798   3.728 -1.5020 -0.9841  0.3148
  470MOL0     C63321   3.289   4.815   3.774 -0.8135  0.1111 -0.2475
  470MOL0     C63322   3.189   4.841   3.681  0.2343  0.5852 -0.4053
  470MOL0     O63323   3.054   4.855   3.709  1.1076 -0.3058 -0.1630
  470MOL0     C63324   3.014   4.844   3.847 -0.0213  0.0388 -0.6605
  470MOL0     C63325   2.860   4.842   3.851 -0.4333  0.0901 -0.3988
  470MOL0     C63326   2.819   4.712   3.790 -0.3045  0.6194 -0.1565
  470MOL0     C63327   2.670   4.690   3.793  0.6625  1.1024  0.2847
  470MOL0     C63328   2.625   4.579   3.697 -0.3001  0.2341 -0.7003
  470MOL0     C63329   2.669   4.433   3.737 -0.1421 -0.4315  1.1503
  470MOL0     C63330   2.649   4.356   3.608  0.3355  0.3102  0.4555
  470MOL0     C63331   2.715   4.218   3.603 -0.0626 -0.8705  0.6678
  470MOL0     N63332   2.866   4.230   3.605 -0.1872 -0.1261 -0.1066
  470MOL0     C63333   2.935   4.337   3.551 -0.5943 -0.0606  0.2383
  470MOL0     C63334   3.062   4.325   3.594  0.0827  0.0450 -0.0068
  470MOL0     C63335   3.166   4.423   3.568 -0.7000  0.1538  0.4202
  470MOL0     C63336   3.165   4.452   3.419  0.3887  0.4457  0.4607
  470MOL0     C63337   3.312   4.480   3.379  0.7612 -0.0677 -0.0117
  470MOL0     C63338   3.298   4.590   3.267 -0.1145 -0.5690  0.0937
  470MOL0     O63339   3.265   4.527   3.146 -0.1500 -0.3743  0.7014
  470MOL0     C63340   3.352   4.453   3.077 -0.4804 -0.0559  0.0512
  470MOL0     C63341   3.300   4.379   2.974  0.8571 -1.2269 -0.8510
  470MOL0     C63342   3.380   4.309   2.877  0.0499 -0.1373 -0.4173
  470MOL0     C63343   3.306   4.248   2.763  0.0283  0.0711 -0.0025
  470MOL0     C63344   3.521   4.311   2.888  0.5472 -0.4019 -1.1395
  470MOL0     C63345   3.619   4.238   2.815  0.6906 -0.4847 -0.1883
  470MOL0     O63346   3.755   4.271   2.816 -0.0280 -0.3894 -0.4850
  470MOL0     C63347   3.848   4.183   2.777 -0.0180  0.0159 -0.2123
  470MOL0     C63348   3.959   4.169   2.867 -0.9681 -0.9303  0.2210
  470MOL0     C63349   4.056   4.071   2.846  0.0994 -0.0868 -0.4201
  470MOL0     C63350   4.051   3.985   2.731  0.2838  0.6648  0.2608
  470MOL0     O63351   4.151   3.894   2.703  0.3039 -0.3609  0.9300
  470MOL0     C63352   4.261   3.955   2.626 -0.1641  0.5359  0.5327
  470MOL0     C63353   4.399   3.926   2.694  0.7125  0.2204 -0.4376
  470MOL0     C63354   4.409   3.775   2.741 -0.4505  0.4036  0.3748
  470MOL0     C63355   4.559   3.738   2.768 -0.0656  0.4891 -0.7515
  470MOL0     C63356   4.639   3.838   2.858  0.3853  0.3171 -0.0994
  470MOL0     C63357   4.774   3.775   2.892 -1.1924 -0.1595 -0.9573
  470MOL0     C63358   4.858   3.840   3.011  0.0054 -0.1012  0.6928
  470MOL0     C63359   4.905   3.982   2.972  1.2650 -0.0127 -0.4858
  470MOL0    Cl63360   4.997   3.982   2.821  0.1511 -0.4621 -0.2807
  470MOL0     C63361   3.947   4.008   2.643 -0.3831  0.3410 -0.1614
  470MOL0     C63362   3.847   4.095   2.670  0.1568 -0.8224 -0.0765
  470MOL0     O63363   3.573   4.138   2.761 -0.6251 -0.5115 -0.3228
  470MOL0     C63364   3.577   4.389   2.993  1.1014 -0.3910 -0.4148
  470MOL0     C63365   3.492   4.454   3.083  0.3145  0.5192 -0.9609
  470MOL0     N63366   3.071   4.213   3.673  0.5120  0.8677  0.2234
  470MOL0     N63367   2.952   4.151   3.677  0.2408 -0.6635 -1.0167
  470MOL0     C63368   3.210   4.831   3.541  0.8680  0.2170 -0.1529
  470MOL0     C63369   3.343   4.809   3.498 -0.0098 -1.2857  0.0298
  470MOL0     C63370   3.785   4.663   3.535  0.6872 -0.2846  0.3667
  470MOL0     C63371   3.887   4.643   3.614 -0.4286  0.5841 -0.1540
  470MOL0     C63372   4.015   4.640   3.560 -0.0740  0.1596  0.4259
  470MOL0     C63373   4.041   4.644   3.421 -0.5906 -0.4735 -0.5878
  470MOL0     O63374   4.176   4.639   3.370  0.0887  0.0567 -0.2185
  470MOL0     C63375   4.211   4.676   3.235 -0.3092 -0.2076 -0.1103
  470MOL0     C63376   4.354   4.738   3.208 -0.7219 -0.0504 -0.2925
  470MOL0     C63377   4.467   4.648   3.261 -0.7669 -0.0132  0.5181
  470MOL0     C63378   4.610   4.711   3.286  0.7584  0.7321 -0.1946
  470MOL0     C63379   4.709   4.620   3.350 -0.3937 -0.3049  0.4957
  470MOL0     C63380   4.777   4.546   3.418  0.3449 -0.0966 -0.0655
  470MOL0     C63381   3.928   4.674   3.345 -0.5240  0.8930 -0.3573
  470MOL0     C63382   3.802   4.669   3.397  0.4366  0.2704 -1.0399
  470MOL0     H63383   3.500   4.780   3.796 -1.0602 -2.4735 -0.5854
  470MOL0     H63384   3.276   4.829   3.881  0.0814  1.5485 -0.2995
  470MOL0     H63385   3.058   4.755   3.893 -1.3939 -0.3600 -0.0698
  470MOL0     H63386   3.046   4.929   3.909 -0.0586  0.0758 -0.6915
  470MOL0     H63387   2.831   4.842   3.957  1.0912 -2.9909  0.1105
  470MOL0     H63388   2.822   4.930   3.798  0.5514  1.7848  1.5789
  470MOL0     H63389   2.861   4.695   3.690  1.7111  0.6979  0.6456
  470MOL0     H63390   2.871   4.641   3.855  3.7471  2.8996 -0.5694
  470MOL0     H63391   2.635   4.665   3.893  1.5430  2.0450  0.8525
  470MOL0     H63392   2.623   4.784   3.761 -1.8030  0.5659  2.0099
  470MOL0     H63393   2.517   4.567   3.703 -0.0172 -2.0930  0.8871
  470MOL0     H63394   2.663   4.605   3.597  2.1459  0.5557  0.2271
  470MOL0     H63395   2.774   4.425   3.767 -0.1645  0.0190  1.3402
  470MOL0     H63396   2.599   4.392   3.810 -1.8180  0.9895  0.4050
  470MOL0     H63397   2.541   4.343   3.594  0.6175  0.7674 -3.1770
  470MOL0     H63398   2.675   4.412   3.517 -0.6328 -0.6952 -0.4721
  470MOL0     H63399   2.684   4.172   3.508  2.7398  0.7277 -1.1646
  470MOL0     H63400   2.682   4.150   3.682 -2.1270  1.0370  1.5325
  470MOL0     H63401   2.895   4.410   3.481  0.1539 -0.9803 -1.2211
  470MOL0     H63402   3.144   4.519   3.614  0.5668  2.2511 -2.9705
  470MOL0     H63403   3.261   4.385   3.607 -2.0318 -3.8439  0.3014
  470MOL0     H63404   3.094   4.530   3.390 -2.9790 -2.7304 -0.6217
  470MOL0     H63405   3.140   4.364   3.358  0.4410  1.1788 -0.6625
  470MOL0     H63406   3.372   4.395   3.346  2.2417  1.5636 -1.7221
  470MOL0     H63407   3.365   4.529   3.461  1.8612  0.0378 -0.7672
  470MOL0     H63408   3.400   4.630   3.267 -0.0924 -0.6176 -0.2871
  470MOL0     H63409   3.223   4.666   3.292 -1.3845 -2.1569  1.2678
  470MOL0     H63410   3.191   4.372   2.976  0.6916  0.9267 -0.7336
  470MOL0     H63411   3.357   4.276   2.671  0.8948  0.6144  0.6250
  470MOL0     H63412   3.307   4.140   2.778  1.8375  0.1791  0.9202
  470MOL0     H63413   3.200   4.276   2.758 -0.1787 -0.8793 -3.7474
  470MOL0     H63414   3.989   4.231   2.950  1.5252 -0.0272 -1.2405
  470MOL0     H63415   4.132   4.067   2.923 -0.0754  1.9737 -0.0839
  470MOL0     H63416   4.256   3.912   2.525 -2.0208  1.0083  0.3924
  470MOL0     H63417   4.251   4.062   2.606 -1.3471  0.1651 -1.0191
  470MOL0     H63418   4.484   3.949   2.629  1.5405 -0.7060  0.2730
  470MOL0     H63419   4.404   3.995   2.779  4.0405 -0.0114 -0.3176
  470MOL0     H63420   4.363   3.713   2.664  1.0391  0.2036 -0.3746
  470MOL0     H63421   4.358   3.760   2.837  0.0545 -0.7126  0.4818
  470MOL0     H63422   4.553   3.638   2.812 -2.1997  0.2090 -1.5416
  470MOL0     H63423   4.613   3.742   2.673 -0.6129  0.3859 -1.0729
  470MOL0     H63424   4.593   3.869   2.953 -1.0593 -0.6006 -0.4639
  470MOL0     H63425   4.647   3.928   2.796 -1.0401  0.8168  0.4004
  470MOL0     H63426   4.762   3.672   2.925  0.8844  0.1048  0.8650
  470MOL0     H63427   4.837   3.791   2.804  0.8082 -0.1670  0.4067
  470MOL0     H63428   4.947   3.779   3.028  0.1878  0.1303  0.5561
  470MOL0     H63429   4.812   3.828   3.110  3.4040 -2.3021  2.1765
  470MOL0     H63430   4.968   4.010   3.057 -3.1001 -2.1662  3.9555
  470MOL0     H63431   4.821   4.051   2.963  2.4726  1.8234  1.3876
  470MOL0     H63432   3.935   3.960   2.546 -1.3402  0.1566  0.0338
  470MOL0     H63433   3.756   4.108   2.612  0.3487  1.9929  0.1199
  470MOL0     H63434   3.683   4.404   3.007  0.5534  0.5937  4.0671
  470MOL0     H63435   3.525   4.527   3.157 -0.2347 -0.0600 -0.1207
  470MOL0     H63436   3.131   4.835   3.466 -0.1566 -2.8164  0.6260
  470MOL0     H63437   3.374   4.800   3.394 -0.9376 -5.3556 -0.0264
  470MOL0     H63438   3.883   4.637   3.722  1.8970  3.8469  0.2583
  470MOL0     H63439   4.103   4.640   3.622  0.0489 -1.1476  0.2670
  470MOL0     H63440   4.195   4.594   3.164 -0.4644  1.5824 -2.2765
  470MOL0     H63441   4.145   4.756   3.200  1.5044  1.7500  0.6816
  470MOL0     H63442   4.364   4.839   3.250  0.7811  0.4176 -1.6492
  470MOL0     H63443   4.369   4.753   3.101  1.2361  0.3373 -0.0019
  470MOL0     H63444   4.480   4.557   3.200 -0.3737 -0.6523  1.5239
  470MOL0     H63445   4.436   4.611   3.359  1.4948 -0.4721  1.1365
  470MOL0     H63446   4.580   4.799   3.344 -2.9410  0.9156 -2.0846
  470MOL0     H63447   4.666   4.755   3.202  2.8183  0.9306  1.2036
  470MOL0     H63448   4.830   4.474   3.476 -0.8230  0.0679  1.2560
  470MOL0     H63449   3.939   4.696   3.240  0.9195  2.8052  0.1329
  470MOL0     H63450   3.708   4.668   3.343 -0.3835  5.1064 -0.1189
  471MOL0     O63451   5.336   6.294  10.061  0.8493 -0.2141 -0.8389
  471MOL0     C63452   5.398   6.396  10.103 -0.1738 -0.4425  0.0317
  471MOL0     O63453   5.354   6.490  10.188  0.2341  0.2522 -0.8290
  471MOL0     C63454   5.241   6.461  10.262  0.3476 -0.3600  0.0459
  471MOL0     C63455   5.236   6.361  10.352  0.2220  0.1167 -0.0361
  471MOL0     C63456   5.110   6.329  10.403 -0.1031  0.0841 -0.5266
  471MOL0     C63457   4.995   6.409  10.372  0.2794 -0.8297  0.3339
  471MOL0     O63458   4.876   6.390  10.435 -0.1414  0.2626  0.4270
  471MOL0     C63459   4.863   6.300  10.541  0.6451  0.9461  0.3123
  471MOL0     C63460   4.747   6.327  10.627  0.5559 -0.3813 -0.4578
  471MOL0     C63461   4.620   6.356  10.555  0.1066  0.6608 -0.3166
  471MOL0     C63462   4.504   6.333  10.651  0.1689 -0.6183  0.0699
  471MOL0     C63463   4.369   6.372  10.591  0.5469 -0.6468  0.2743
  471MOL0     C63464   4.247   6.337  10.678 -0.0160 -0.1972  0.2430
  471MOL0     C63465   4.120   6.349  10.588 -0.2045  0.2488 -0.2529
  471MOL0     C63466   4.003   6.289  10.671  0.2108  0.3808 -0.4838
  471MOL0     N63467   3.887   6.325  10.596 -0.2236  0.2030  0.3864
  471MOL0     C63468   3.802   6.425  10.639  0.0522 -0.8662 -0.0821
  471MOL0     C63469   3.707   6.443  10.539  0.0406  0.0161  0.7738
  471MOL0     C63470   3.604   6.553  10.520  0.4068 -0.4397 -0.2239
  471MOL0     C63471   3.502   6.552  10.630 -0.3713  0.2795  0.0761
  471MOL0     C63472   3.370   6.608  10.564 -0.7474 -0.1401  0.0552
  471MOL0     C63473   3.262   6.632  10.659  0.0441 -0.1988  0.2585
  471MOL0     O63474   3.280   6.743  10.743 -0.3776  0.3971  0.3225
  471MOL0     C63475   3.181   6.841  10.718  0.5407 -0.1593  0.3040
  471MOL0     C63476   3.049   6.804  10.751  1.1161 -0.2602 -0.2176
  471MOL0     C63477   2.944   6.895  10.736 -0.0802 -0.8880  0.2519
  471MOL0     C63478   2.809   6.844  10.767  0.0824 -0.9915  0.5517
  471MOL0     C63479   2.965   7.029  10.673  0.6464  0.6813  0.2753
  471MOL0     C63480   2.865   7.134  10.634 -0.7856  0.2944 -0.0011
  471MOL0     O63481   2.732   7.091  10.640 -0.0657 -0.0408  0.0071
  471MOL0     C63482   2.622   7.170  10.616  0.8144 -0.2555  1.0038
  471MOL0     C63483   2.602   7.293  10.681  1.2083  0.7165  0.0274
  471MOL0     C63484   2.482   7.363  10.665  0.4230  0.1595 -0.7759
  471MOL0     C63485   2.378   7.307  10.591 -0.5143  0.4073 -0.6173
  471MOL0     O63486   2.258   7.374  10.597 -0.5320  0.7733 -1.1694
  471MOL0     C63487   2.140   7.301  10.582  0.0322 -0.4108  0.3902
  471MOL0     C63488   2.031   7.401  10.619  0.0331 -0.2486 -0.1462
  471MOL0     C63489   1.900   7.331  10.627  0.3837 -0.1658 -0.8761
  471MOL0     C63490   1.794   7.396  10.714  0.2030 -0.7716  0.2038
  471MOL0     C63491   1.669   7.306  10.733 -0.4034 -0.4268  0.3452
  471MOL0     C63492   1.566   7.319  10.615 -0.4334 -0.1698  1.1447
  471MOL0     C63493   1.426   7.300  10.663  0.1621 -0.8467 -0.4900
  471MOL0     C63494   1.393   7.154  10.668  0.5529  0.0749  0.8054
  471MOL0    Cl63495   1.223   7.130  10.705  0.3938 -0.1352  0.1885
  471MOL0     C63496   2.398   7.186  10.522 -0.8451  0.0352 -0.2653
  471MOL0     C63497   2.518   7.114  10.536 -0.1484 -0.2090 -0.1663
  471MOL0     O63498   2.907   7.239  10.579  0.4208  0.3810  0.3010
  471MOL0     C63499   3.100   7.058  10.654  0.0982 -0.2649  0.8145
  471MOL0     C63500   3.204   6.971  10.674  0.6080  0.4528 -0.7580
  471MOL0     N63501   3.723   6.335  10.450  0.5813 -0.8019 -0.5731
  471MOL0     N63502   3.835   6.268  10.478 -0.2759 -0.4639 -0.5177
  471MOL0     C63503   4.992   6.514  10.277 -0.6456 -0.3093  0.3545
  471MOL0     C63504   5.123   6.538  10.230  0.7438 -0.1610 -0.0591
  471MOL0     C63505   5.532   6.420  10.039 -0.3022  0.0214  0.5046
  471MOL0     C63506   5.589   6.344   9.931  0.0558  0.2976 -0.0968
  471MOL0     C63507   5.722   6.365   9.894  0.4633 -0.0549  0.4943
  471MOL0     C63508   5.807   6.461   9.953  0.0382 -0.0980  0.6666
  471MOL0     O63509   5.935   6.481   9.904  0.7811  0.2610  0.2593
  471MOL0     C63510   6.011   6.583   9.970  0.1275  0.0059 -0.0588
  471MOL0     C63511   6.156   6.579   9.935  0.6132 -0.4101 -0.4122
  471MOL0     C63512   6.216   6.444   9.915  0.2333 -0.2885 -0.5983
  471MOL0     C63513   6.259   6.373  10.049 -1.3461 -0.3619  0.2328
  471MOL0     C63514   6.365   6.457  10.108  0.7964 -0.1693 -0.0737
  471MOL0     C63515   6.448   6.546  10.137  0.1296  0.2014 -0.3703
  471MOL0     C63516   5.748   6.552  10.045 -0.7851  0.6454  0.1071
  471MOL0     C63517   5.621   6.527  10.087 -0.6456 -0.2276  0.2254
  471MOL0     H63518   5.321   6.300  10.380 -1.3883 -1.1872  2.2894
  471MOL0     H63519   5.110   6.268  10.493 -1.4059  0.2844 -0.3649
  471MOL0     H63520   4.858   6.199  10.500  2.0731  1.1248 -0.3614
  471MOL0     H63521   4.948   6.304  10.609  1.7083 -0.4185 -0.8833
  471MOL0     H63522   4.743   6.243  10.698  3.2704 -0.2416 -0.0141
  471MOL0     H63523   4.766   6.418  10.685 -2.9417  1.4509 -1.9166
  471MOL0     H63524   4.614   6.462  10.530 -0.7670  0.7772  0.3331
  471MOL0     H63525   4.598   6.307  10.460  0.3355  3.3968 -1.8962
  471MOL0     H63526   4.496   6.229  10.685 -0.0174 -1.1080 -1.4103
  471MOL0     H63527   4.521   6.398  10.737  1.3263  0.6812 -1.1069
  471MOL0     H63528   4.377   6.481  10.583  0.2208 -0.4731  1.9111
  471MOL0     H63529   4.361   6.326  10.492  0.0004 -1.0549  0.5009
  471MOL0     H63530   4.257   6.232  10.704 -1.7631 -0.4836 -0.1217
  471MOL0     H63531   4.237   6.406  10.762  3.1364  1.2112 -0.3770
  471MOL0     H63532   4.105   6.455  10.568  0.8884  0.3701 -0.5182
  471MOL0     H63533   4.124   6.291  10.495 -2.2699 -3.4639  1.7427
  471MOL0     H63534   4.001   6.331  10.772  0.2067 -1.6528  0.4220
  471MOL0     H63535   4.012   6.180  10.679 -1.7681  0.2265  0.1049
  471MOL0     H63536   3.820   6.484  10.728  3.8696 -1.6098 -0.1821
  471MOL0     H63537   3.656   6.649  10.516 -2.1215  0.9971 -0.7839
  471MOL0     H63538   3.559   6.536  10.422 -1.0747 -0.5764  0.4511
  471MOL0     H63539   3.529   6.610  10.718 -0.1210 -1.1249  0.9586
  471MOL0     H63540   3.488   6.446  10.655  1.2353 -1.1078 -4.0389
  471MOL0     H63541   3.330   6.534  10.494  0.8368  1.2716 -2.5306
  471MOL0     H63542   3.386   6.705  10.516  0.0210 -0.0398  0.4977
  471MOL0     H63543   3.242   6.544  10.721 -3.4393 -0.9348 -1.6038
  471MOL0     H63544   3.173   6.638  10.595  1.8783  1.8033 -2.3307
  471MOL0     H63545   3.026   6.703  10.782 -0.4852  0.3646  0.7666
  471MOL0     H63546   2.737   6.840  10.685 -1.9308  2.1048  1.9837
  471MOL0     H63547   2.823   6.740  10.801  1.9964 -0.4096  1.7132
  471MOL0     H63548   2.766   6.900  10.851  0.0562 -0.2952  0.0795
  471MOL0     H63549   2.683   7.336  10.740  0.1563  3.9808 -0.7177
  471MOL0     H63550   2.459   7.445  10.733 -2.2999 -1.7395  0.7860
  471MOL0     H63551   2.117   7.267  10.481  0.0552  1.7209 -0.3891
  471MOL0     H63552   2.135   7.215  10.649  1.7551 -1.3486 -0.6205
  471MOL0     H63553   2.048   7.457  10.712  0.0464 -0.5832  0.0543
  471MOL0     H63554   2.019   7.471  10.536 -0.5445 -1.0718 -0.7646
  471MOL0     H63555   1.915   7.231  10.670  2.3476  0.1387 -0.7741
  471MOL0     H63556   1.859   7.315  10.527  0.9499 -0.1870 -1.1062
  471MOL0     H63557   1.840   7.427  10.808 -2.0158  4.4836 -0.1148
  471MOL0     H63558   1.749   7.488  10.675  1.8102  0.2796  0.7512
  471MOL0     H63559   1.621   7.338  10.826  0.7686 -2.9457  1.9270
  471MOL0     H63560   1.700   7.202  10.752  1.4527  0.5621  3.5565
  471MOL0     H63561   1.573   7.422  10.579  0.1699 -0.4239  0.5177
  471MOL0     H63562   1.595   7.255  10.532  0.2221 -0.6428  1.7209
  471MOL0     H63563   1.361   7.358  10.597 -3.4265 -1.9996  1.8012
  471MOL0     H63564   1.422   7.343  10.764  0.4333 -0.0140 -0.8235
  471MOL0     H63565   1.456   7.115  10.749  2.1109 -1.9346 -1.2254
  471MOL0     H63566   1.418   7.119  10.567  0.4209  2.6316 -0.1766
  471MOL0     H63567   2.323   7.137  10.460  0.2853 -0.7270 -1.0517
  471MOL0     H63568   2.507   7.021  10.482 -1.0583 -0.5326  0.5497
  471MOL0     H63569   3.138   7.153  10.616  2.2503 -1.6798 -0.8478
  471MOL0     H63570   3.310   6.992  10.669  0.6175  0.6804  0.2127
  471MOL0     H63571   4.908   6.581  10.258  0.2849  0.8678  0.2400
  471MOL0     H63572   5.133   6.624  10.165  0.9739  0.6746  1.0617
  471MOL0     H63573   5.526   6.274   9.876 -0.7326  1.9762 -1.4090
  471MOL0     H63574   5.752   6.309   9.806 -2.2215 -0.0716 -0.4925
  471MOL0     H63575   5.980   6.684   9.942  1.1062  0.7671  1.4682
  471MOL0     H63576   6.006   6.574  10.079 -0.0731  0.5441 -0.0199
  471MOL0     H63577   6.201   6.634  10.018  0.7007  1.0585 -1.3962
  471MOL0     H63578   6.169   6.636   9.842  0.6024  1.0611  0.4441
  471MOL0     H63579   6.306   6.452   9.854 -0.0576 -0.0038 -0.9953
  471MOL0     H63580   6.143   6.384   9.859 -2.2373 -0.0046  2.0652
  471MOL0     H63581   6.300   6.277  10.016  1.6450  1.1997 -1.0028
  471MOL0     H63582   6.168   6.358  10.107 -0.3344 -1.2008  1.6509
  471MOL0     H63583   6.526   6.602  10.185 -0.5295  2.3237 -1.6459
  471MOL0     H63584   5.794   6.644  10.081  0.8862 -0.3769  0.6790
  471MOL0     H63585   5.592   6.591  10.170 -2.3939  0.7524 -1.0547
  472MOL0     O63586   1.596   2.562   3.210 -0.5352 -0.3633  0.3998
  472MOL0     C63587   1.575   2.630   3.313 -0.3353 -0.1620 -0.5832
  472MOL0     O63588   1.465   2.637   3.385 -0.1167 -0.3824  0.4429
  472MOL0     C63589   1.357   2.562   3.356  0.3771 -0.3480 -0.2648
  472MOL0     C63590   1.346   2.436   3.281 -0.5385  0.1773  0.7447
  472MOL0     C63591   1.237   2.348   3.261  1.3114 -0.1318 -0.0694
  472MOL0     C63592   1.113   2.402   3.297 -0.1141  0.1585 -0.4448
  472MOL0     O63593   0.995   2.343   3.264  0.5478  0.2553 -0.4085
  472MOL0     C63594   1.002   2.213   3.223  0.1709 -0.2840  0.2196
  472MOL0     C63595   0.859   2.164   3.211  0.2523 -0.6570  0.4442
  472MOL0     C63596   0.793   2.200   3.075 -0.2871  0.3853  0.6221
  472MOL0     C63597   0.647   2.161   3.074 -0.4888 -0.5619  0.0956
  472MOL0     C63598   0.555   2.231   2.972 -0.9475  0.4823  0.1919
  472MOL0     C63599   0.532   2.378   2.996  0.1599  0.6384  0.5004
  472MOL0     C63600   0.419   2.427   2.908  0.4319 -0.3892 -0.9926
  472MOL0     C63601   0.358   2.549   2.986 -0.5317 -1.1895  0.1761
  472MOL0     N63602   0.263   2.625   2.899 -0.1618 -0.5586  0.1155
  472MOL0     C63603   0.141   2.577   2.860  0.8566  0.5285 -0.1167
  472MOL0     C63604   0.082   2.678   2.797  0.1213 -0.0806  0.2359
  472MOL0     C63605  -0.049   2.663   2.723  0.0653 -0.2228  0.2709
  472MOL0     C63606  -0.159   2.621   2.823  0.6328 -0.4267  0.4293
  472MOL0     C63607  -0.295   2.591   2.760 -0.0341  0.7519  0.3955
  472MOL0     C63608  -0.420   2.617   2.842 -0.9200 -0.0189  0.8323
  472MOL0     O63609  -0.523   2.644   2.750 -0.7171 -0.1342  0.5771
  472MOL0     C63610  -0.632   2.713   2.799 -0.1266 -0.5930 -0.1955
  472MOL0     C63611  -0.675   2.700   2.932 -0.6274  0.2920  0.0468
  472MOL0     C63612  -0.789   2.749   2.979  0.6707  0.1236  0.1936
  472MOL0     C63613  -0.824   2.707   3.122 -0.5981  0.4651 -0.0475
  472MOL0     C63614  -0.877   2.820   2.890  0.4841 -0.0441  0.4932
  472MOL0     C63615  -0.987   2.907   2.930  0.3714 -0.5436 -0.5782
  472MOL0     O63616  -1.096   2.920   2.842  0.3193 -0.3088 -0.6803
  472MOL0     C63617  -1.205   3.001   2.866 -0.4974  0.3443 -0.4068
  472MOL0     C63618  -1.199   3.123   2.941  0.1684 -0.6767 -0.5674
  472MOL0     C63619  -1.313   3.200   2.968 -0.1272  0.5588 -0.6419
  472MOL0     C63620  -1.442   3.156   2.931 -0.4683  0.1277  0.1721
  472MOL0     O63621  -1.548   3.225   2.970  0.6740 -0.2432 -0.0267
  472MOL0     C63622  -1.672   3.147   2.997  0.1179 -0.5590  0.5560
  472MOL0     C63623  -1.789   3.227   3.040  0.2042 -0.1647 -0.2358
  472MOL0     C63624  -1.917   3.146   3.063 -0.2963  0.3135  1.0942
  472MOL0     C63625  -2.025   3.243   3.101 -0.0610 -0.3028  0.3421
  472MOL0     C63626  -2.159   3.157   3.113 -0.0575 -0.1168  0.4097
  472MOL0     C63627  -2.267   3.251   3.166 -0.3298 -0.3794  0.1766
  472MOL0     C63628  -2.400   3.215   3.108 -0.6515 -0.4300  0.0474
  472MOL0     C63629  -2.508   3.314   3.140  0.2446  0.0932  0.3884
  472MOL0    Cl63630  -2.487   3.455   3.021  0.2061 -0.3285 -0.0807
  472MOL0     C63631  -1.450   3.030   2.862 -0.0427 -0.8303  0.7443
  472MOL0     C63632  -1.331   2.961   2.832  0.3469 -0.6283 -0.8923
  472MOL0     O63633  -0.980   2.956   3.050 -0.3227 -0.1082 -0.5087
  472MOL0     C63634  -0.836   2.831   2.750 -0.4697  0.2557  0.0045
  472MOL0     C63635  -0.715   2.790   2.710 -0.7270  0.3451 -0.4989
  472MOL0     N63636   0.169   2.785   2.786 -0.6773 -0.3575 -0.0538
  472MOL0     N63637   0.276   2.751   2.853  0.1775 -0.3375 -0.3545
  472MOL0     C63638   1.116   2.519   3.376  0.5300  0.2673 -0.6656
  472MOL0     C63639   1.230   2.594   3.401 -0.1879 -0.2155  0.2421
  472MOL0     C63640   1.691   2.701   3.365  0.0027  0.3886  0.0461
  472MOL0     C63641   1.704   2.776   3.486 -0.3636  0.4456 -0.8265
  472MOL0     C63642   1.827   2.838   3.522 -0.4903 -0.2967 -0.5393
  472MOL0     C63643   1.942   2.826   3.446 -0.9549  0.0819  0.4251
  472MOL0     O63644   2.056   2.893   3.474 -0.4934  0.6308  0.5216
  472MOL0     C63645   2.056   3.019   3.404  1.1039 -0.6959  0.3945
  472MOL0     C63646   2.158   3.118   3.469 -0.1080 -0.2747 -0.2673
  472MOL0     C63647   2.298   3.054   3.455  0.7567 -0.2267 -1.1765
  472MOL0     C63648   2.405   3.156   3.419  0.6085  0.4439  0.3120
  472MOL0     C63649   2.460   3.222   3.538  0.5011  1.0120 -0.4901
  472MOL0     C63650   2.490   3.295   3.624 -0.5246 -0.6788 -0.5739
  472MOL0     C63651   1.939   2.752   3.331  0.4904  0.3338 -1.2682
  472MOL0     C63652   1.812   2.697   3.290  0.0253 -0.3712  0.3845
  472MOL0     H63653   1.439   2.405   3.233  0.5122  1.9380  1.5438
  472MOL0     H63654   1.254   2.261   3.198 -0.4220 -0.7375  0.2390
  472MOL0     H63655   1.048   2.184   3.128 -0.0794 -3.6931  1.0061
  472MOL0     H63656   1.051   2.141   3.290 -3.4224 -1.7655  1.5023
  472MOL0     H63657   0.864   2.056   3.222 -0.1906 -0.5352  1.9271
  472MOL0     H63658   0.811   2.201   3.302 -0.0486  0.3627 -0.1035
  472MOL0     H63659   0.805   2.307   3.055  2.1580  0.0710  0.1508
  472MOL0     H63660   0.838   2.149   2.990 -2.7660  2.9295 -2.4775
  472MOL0     H63661   0.640   2.052   3.063  4.0407 -1.0388  0.1853
  472MOL0     H63662   0.601   2.178   3.172 -0.5791  0.8331 -0.1707
  472MOL0     H63663   0.581   2.208   2.868  2.2364  0.9731  0.7671
  472MOL0     H63664   0.458   2.184   2.991 -0.5223  0.2113  1.8538
  472MOL0     H63665   0.521   2.397   3.103  1.0936 -0.6095  0.8472
  472MOL0     H63666   0.620   2.438   2.971 -0.1744  0.4272 -1.3060
  472MOL0     H63667   0.446   2.447   2.804 -1.3361 -0.3226 -1.4726
  472MOL0     H63668   0.340   2.351   2.903 -0.0580 -0.3751  3.2095
  472MOL0     H63669   0.435   2.616   3.025 -1.5729  0.1425  0.0368
  472MOL0     H63670   0.307   2.517   3.077 -1.0358 -1.5012 -0.2088
  472MOL0     H63671   0.096   2.480   2.878 -0.1445  1.3205  1.9170
  472MOL0     H63672  -0.074   2.762   2.682  2.7241 -0.4343 -2.1376
  472MOL0     H63673  -0.038   2.586   2.647  3.1836  1.2818 -1.0147
  472MOL0     H63674  -0.178   2.705   2.890  1.0765  0.9136 -1.0754
  472MOL0     H63675  -0.124   2.545   2.893  2.5945  1.1385  1.2408
  472MOL0     H63676  -0.297   2.490   2.718 -1.0671  0.6690  0.6274
  472MOL0     H63677  -0.308   2.659   2.676 -1.7983 -0.4226 -0.3397
  472MOL0     H63678  -0.422   2.690   2.923 -0.1315 -1.9335  2.6761
  472MOL0     H63679  -0.446   2.525   2.895 -3.4639  1.5030  2.4642
  472MOL0     H63680  -0.619   2.645   3.007 -1.0865  0.4608  0.5251
  472MOL0     H63681  -0.841   2.599   3.131  0.6591  0.3283  0.8886
  472MOL0     H63682  -0.739   2.726   3.187  1.0875 -0.4706 -1.8564
  472MOL0     H63683  -0.915   2.752   3.164  0.2831  0.2393  2.2369
  472MOL0     H63684  -1.116   3.153   3.004 -1.8000  1.7913  1.0380
  472MOL0     H63685  -1.311   3.289   3.030 -3.3651 -0.8082  1.6764
  472MOL0     H63686  -1.700   3.101   2.902 -1.0991  0.9881  0.1162
  472MOL0     H63687  -1.645   3.070   3.070  1.2553  2.2889  3.3877
  472MOL0     H63688  -1.762   3.285   3.129  0.7815 -0.2920 -0.3178
  472MOL0     H63689  -1.812   3.301   2.963 -0.4262 -0.8749 -0.7345
  472MOL0     H63690  -1.898   3.077   3.145  3.3693  0.7266  0.7830
  472MOL0     H63691  -1.938   3.095   2.968  0.1294  1.3068  0.4419
  472MOL0     H63692  -1.995   3.277   3.201  2.3879  0.7156 -0.6469
  472MOL0     H63693  -2.045   3.329   3.037 -4.0383 -0.3929  1.2276
  472MOL0     H63694  -2.138   3.079   3.187  0.1958  0.1714  0.6447
  472MOL0     H63695  -2.188   3.101   3.023  1.2668 -1.2706  0.6516
  472MOL0     H63696  -2.285   3.242   3.274 -1.0004  0.0069  0.1053
  472MOL0     H63697  -2.253   3.356   3.140  0.9967 -0.6258 -0.1185
  472MOL0     H63698  -2.427   3.116   3.147 -1.0028 -0.2131  0.3696
  472MOL0     H63699  -2.386   3.206   3.000  0.0773  2.3764 -0.1646
  472MOL0     H63700  -2.497   3.348   3.243  0.5751  0.0436  0.3703
  472MOL0     H63701  -2.606   3.270   3.122  0.5296 -0.0522 -0.8908
  472MOL0     H63702  -1.536   2.980   2.821  0.5103  0.2978 -2.0015
  472MOL0     H63703  -1.339   2.869   2.776  0.6938 -2.0904  1.3645
  472MOL0     H63704  -0.900   2.887   2.682  0.5602  0.9715 -0.4147
  472MOL0     H63705  -0.686   2.819   2.610 -0.3661  0.4493 -0.3636
  472MOL0     H63706   1.016   2.555   3.400 -0.6785 -1.5773 -2.5865
  472MOL0     H63707   1.218   2.685   3.459 -0.0287 -1.6211  2.6147
  472MOL0     H63708   1.622   2.777   3.557 -0.5695  2.4153 -1.0412
  472MOL0     H63709   1.831   2.897   3.613 -2.9740 -0.9510  0.0640
  472MOL0     H63710   2.064   3.011   3.295 -2.0538  1.3101 -0.1036
  472MOL0     H63711   1.954   3.056   3.416  0.9749 -1.1434  0.7374
  472MOL0     H63712   2.143   3.130   3.577 -0.6173  0.5139 -0.4207
  472MOL0     H63713   2.151   3.218   3.425 -1.9018 -1.8120 -3.8790
  472MOL0     H63714   2.288   2.973   3.383 -1.8469 -1.8519  0.8182
  472MOL0     H63715   2.338   3.004   3.544  4.8526  1.4635 -1.8729
  472MOL0     H63716   2.367   3.227   3.345  0.9506  0.1571 -0.1459
  472MOL0     H63717   2.476   3.097   3.361 -0.2771 -0.8474  0.4897
  472MOL0     H63718   2.515   3.372   3.694 -2.3239 -1.4550  1.0039
  472MOL0     H63719   2.029   2.736   3.274  1.8819 -5.3761  1.7565
  472MOL0     H63720   1.830   2.640   3.199 -0.4122  0.4178 -0.2036
  473MOL0     O63721   6.216   4.406   7.747 -0.0191  0.5747  0.4492
  473MOL0     C63722   6.322   4.459   7.729 -0.4010  0.1997  0.3588
  473MOL0     O63723   6.335   4.594   7.718 -0.6411 -0.7671 -0.6098
  473MOL0     C63724   6.226   4.683   7.732  0.5285  0.2323  0.6107
  473MOL0     C63725   6.162   4.694   7.855 -0.0164  0.5640 -0.0150
  473MOL0     C63726   6.061   4.791   7.870 -0.2262  0.3910  0.0890
  473MOL0     C63727   6.025   4.871   7.762  0.6189  0.0513  0.4878
  473MOL0     O63728   5.923   4.965   7.777  0.5943 -0.4474  0.2393
  473MOL0     C63729   5.841   4.944   7.895 -0.0229 -0.6849 -1.1653
  473MOL0     C63730   5.728   5.033   7.882 -0.2321 -0.2921 -0.1229
  473MOL0     C63731   5.618   4.969   7.786 -0.2590  0.0879 -0.0859
  473MOL0     C63732   5.485   5.031   7.809 -0.1894 -0.0563  0.5943
  473MOL0     C63733   5.379   4.945   7.744  0.4569  0.2559 -0.2845
  473MOL0     C63734   5.236   5.001   7.770 -0.6822 -0.3264  0.1695
  473MOL0     C63735   5.121   4.924   7.719 -0.0533 -0.5926  0.9333
  473MOL0     C63736   5.129   4.921   7.565  0.7064  0.0082 -0.3305
  473MOL0     N63737   5.015   4.855   7.498  0.5851  0.4227 -0.2506
  473MOL0     C63738   4.888   4.910   7.496  0.1849 -0.3747  0.2058
  473MOL0     C63739   4.804   4.815   7.455  0.0170 -0.0736 -0.1463
  473MOL0     C63740   4.656   4.821   7.431 -0.2057 -0.0700  0.1217
  473MOL0     C63741   4.606   4.853   7.288  0.2606  0.1631  0.1391
  473MOL0     C63742   4.465   4.919   7.294  0.3594 -0.3210  0.1918
  473MOL0     C63743   4.438   5.013   7.178  0.0968 -0.5293  0.3335
  473MOL0     O63744   4.406   4.939   7.060  0.5554  0.3559 -0.8703
  473MOL0     C63745   4.278   4.881   7.060 -0.4479  0.5801  0.4793
  473MOL0     C63746   4.259   4.742   7.053  0.0974 -0.4497 -0.2162
  473MOL0     C63747   4.134   4.681   7.038  0.1362  0.0186  0.0390
  473MOL0     C63748   4.135   4.530   7.014 -0.0224  0.2901 -0.4155
  473MOL0     C63749   4.016   4.768   7.035  0.0837 -0.1862 -1.1704
  473MOL0     C63750   3.880   4.724   7.010 -0.2868  0.6068 -0.6525
  473MOL0     O63751   3.799   4.834   6.992 -0.4241  0.0062 -0.1034
  473MOL0     C63752   3.662   4.828   6.974  0.6144  0.1042  0.4520
  473MOL0     C63753   3.606   4.939   6.911 -0.2036 -0.1973 -0.1462
  473MOL0     C63754   3.468   4.951   6.886  1.1315 -0.3817 -1.2367
  473MOL0     C63755   3.383   4.839   6.915 -0.7441  0.3080  0.7647
  473MOL0     O63756   3.254   4.861   6.904 -0.4773 -0.3682  0.0566
  473MOL0     C63757   3.162   4.761   6.939  0.6054  0.1720 -0.7740
  473MOL0     C63758   3.140   4.776   7.092 -0.3184 -0.5573  0.6305
  473MOL0     C63759   3.029   4.697   7.161 -0.6145 -0.3467 -0.3075
  473MOL0     C63760   2.884   4.743   7.148  1.1745 -0.3313 -0.4878
  473MOL0     C63761   2.786   4.627   7.155  0.2271  0.0153 -0.6148
  473MOL0     C63762   2.772   4.559   7.295 -0.1028 -0.2733  0.8634
  473MOL0     C63763   2.695   4.425   7.277  0.5845 -0.6827  0.4747
  473MOL0     C63764   2.613   4.377   7.395 -0.1128 -0.2633 -0.9422
  473MOL0    Cl63765   2.527   4.230   7.349 -0.4279 -0.0398 -0.4261
  473MOL0     C63766   3.442   4.722   6.971 -0.4646  0.3744 -0.0718
  473MOL0     C63767   3.576   4.718   6.996 -0.6683  0.0192 -0.0639
  473MOL0     O63768   3.842   4.607   7.000 -0.7396  0.1894 -0.0807
  473MOL0     C63769   4.040   4.904   7.062  0.1534  0.0301 -0.0814
  473MOL0     C63770   4.165   4.958   7.075 -0.9157  0.0419  0.0679
  473MOL0     N63771   4.881   4.702   7.425  0.6885  0.5279 -1.0328
  473MOL0     N63772   5.010   4.732   7.441 -0.0115  1.1961 -0.0369
  473MOL0     C63773   6.080   4.855   7.633 -0.1130  0.3613 -0.8163
  473MOL0     C63774   6.174   4.749   7.622 -0.9102 -0.4501  0.6156
  473MOL0     C63775   6.436   4.377   7.722 -0.4996 -0.9254 -0.3504
  473MOL0     C63776   6.427   4.241   7.681  0.8544 -0.0677  0.5884
  473MOL0     C63777   6.546   4.170   7.658  0.3291 -0.8100 -0.6435
  473MOL0     C63778   6.669   4.226   7.686 -0.6288 -1.0617  0.3614
  473MOL0     O63779   6.782   4.151   7.672 -0.3348 -0.7159 -0.5915
  473MOL0     C63780   6.792   4.064   7.557 -0.0385  0.4606 -0.5829
  473MOL0     C63781   6.945   4.034   7.521  0.8875  0.8736  0.5237
  473MOL0     C63782   7.026   3.974   7.631  0.2529 -0.1175  0.3212
  473MOL0     C63783   7.176   4.002   7.614 -0.2482  0.2950  1.0769
  473MOL0     C63784   7.270   3.903   7.670  0.8365 -0.2168 -0.3408
  473MOL0     C63785   7.328   3.812   7.728  0.4682 -0.5068  0.2166
  473MOL0     C63786   6.678   4.353   7.739  0.5452  0.8464 -0.6873
  473MOL0     C63787   6.568   4.428   7.747 -0.2545 -0.8728 -0.4508
  473MOL0     H63788   6.201   4.632   7.935  0.6673  1.1745  0.1314
  473MOL0     H63789   6.036   4.799   7.975  1.4270 -0.9779  0.6396
  473MOL0     H63790   5.810   4.840   7.914 -0.3419 -0.7868 -2.2029
  473MOL0     H63791   5.896   4.988   7.978 -1.0466  0.1958 -0.9364
  473MOL0     H63792   5.683   5.041   7.982 -0.4276 -1.5114 -0.0993
  473MOL0     H63793   5.761   5.133   7.853 -0.2710  0.0174  0.8766
  473MOL0     H63794   5.664   4.985   7.688 -0.9805  0.0303 -0.4471
  473MOL0     H63795   5.601   4.862   7.803  0.9847 -0.0649  0.2483
  473MOL0     H63796   5.468   5.025   7.917  0.5984 -2.7642  0.6404
  473MOL0     H63797   5.478   5.132   7.768  1.3303 -0.6540 -1.2676
  473MOL0     H63798   5.391   4.923   7.638 -2.5180  0.0470 -0.6652
  473MOL0     H63799   5.378   4.844   7.786 -0.4587 -0.5851 -2.2140
  473MOL0     H63800   5.216   5.018   7.876 -1.4896  0.7454 -0.1321
  473MOL0     H63801   5.226   5.104   7.734 -0.3123 -1.1443 -2.5187
  473MOL0     H63802   5.120   4.820   7.753  1.3637 -1.0634 -0.3190
  473MOL0     H63803   5.024   4.967   7.745  0.5168  1.0273  0.5386
  473MOL0     H63804   5.211   4.855   7.537 -0.0974 -0.4166 -1.7693
  473MOL0     H63805   5.145   5.019   7.518 -3.1149  1.2347  0.5926
  473MOL0     H63806   4.870   5.012   7.526  0.2600 -0.1973 -0.3299
  473MOL0     H63807   4.603   4.731   7.465  1.9509 -0.4328  2.8490
  473MOL0     H63808   4.626   4.906   7.492  2.2120 -0.1583  1.5502
  473MOL0     H63809   4.598   4.769   7.218 -2.6608 -0.9089  1.5699
  473MOL0     H63810   4.671   4.931   7.248 -0.2927  1.4822  1.6719
  473MOL0     H63811   4.456   4.989   7.378 -1.4281  1.3804 -1.3303
  473MOL0     H63812   4.384   4.845   7.301 -0.2047  0.2967  0.2464
  473MOL0     H63813   4.511   5.091   7.156 -3.2622  3.3856  1.5683
  473MOL0     H63814   4.349   5.074   7.198 -0.9190 -1.7405 -0.3483
  473MOL0     H63815   4.341   4.671   7.044  0.0601 -0.4668 -0.4290
  473MOL0     H63816   4.036   4.485   7.027  0.7251 -0.6301  2.8866
  473MOL0     H63817   4.182   4.505   6.918  1.5507  3.5899 -0.6404
  473MOL0     H63818   4.187   4.483   7.098  0.9091  2.4121  0.2558
  473MOL0     H63819   3.670   5.021   6.883 -1.0370 -0.0230 -1.6183
  473MOL0     H63820   3.428   5.048   6.857 -0.2105 -0.3878  0.4515
  473MOL0     H63821   3.073   4.780   6.877 -1.2299 -2.3919  0.8351
  473MOL0     H63822   3.202   4.661   6.920  1.2757 -0.5630  3.5012
  473MOL0     H63823   3.232   4.739   7.136  0.7272  0.5289 -0.5661
  473MOL0     H63824   3.128   4.884   7.102 -2.2188 -0.7396  0.6801
  473MOL0     H63825   3.060   4.692   7.266  2.3157 -4.4519 -1.1134
  473MOL0     H63826   3.027   4.592   7.129 -1.2783 -0.9231  1.4837
  473MOL0     H63827   2.847   4.806   7.229 -0.7964 -2.0003  0.0025
  473MOL0     H63828   2.878   4.787   7.048 -1.3009 -0.5651 -0.5125
  473MOL0     H63829   2.801   4.546   7.083  2.5993 -1.5968  1.5046
  473MOL0     H63830   2.687   4.671   7.136  0.1522  0.8664  1.4337
  473MOL0     H63831   2.865   4.541   7.351 -1.0006 -1.9233  1.8907
  473MOL0     H63832   2.706   4.617   7.360 -1.0689 -0.5466  0.1445
  473MOL0     H63833   2.770   4.345   7.273 -0.5018 -1.9758  3.4900
  473MOL0     H63834   2.637   4.437   7.185  1.7003 -0.5205 -0.2318
  473MOL0     H63835   2.537   4.445   7.432  1.1267 -0.2104  1.7182
  473MOL0     H63836   2.681   4.357   7.479 -2.2561 -1.3326  0.6083
  473MOL0     H63837   3.392   4.630   7.001 -0.1292  0.5763  1.1452
  473MOL0     H63838   3.618   4.629   7.041 -2.3175 -1.5827 -1.5252
  473MOL0     H63839   3.962   4.979   7.071  0.1102  0.1446 -1.2471
  473MOL0     H63840   4.171   5.067   7.079  1.1263  0.0053 -0.8555
  473MOL0     H63841   6.052   4.908   7.543 -2.0363  0.4597 -0.1988
  473MOL0     H63842   6.219   4.729   7.526 -1.8925 -1.1514  0.2834
  473MOL0     H63843   6.335   4.193   7.649  0.4434  0.0461  1.5483
  473MOL0     H63844   6.531   4.071   7.616  0.5249 -1.0912 -0.0770
  473MOL0     H63845   6.742   3.970   7.583  0.1936  0.2690 -0.8269
  473MOL0     H63846   6.748   4.102   7.464 -1.2041 -1.4459 -0.8798
  473MOL0     H63847   6.997   4.125   7.488  1.1788  0.4608 -0.1632
  473MOL0     H63848   6.940   3.966   7.436  0.4507  2.0413 -0.4083
  473MOL0     H63849   7.006   3.867   7.640 -3.4526  0.4965  1.1365
  473MOL0     H63850   7.009   4.017   7.730  1.5663 -0.5359  0.7457
  473MOL0     H63851   7.194   4.104   7.648  0.0918  1.6635 -2.6901
  473MOL0     H63852   7.203   4.004   7.508 -1.8256  2.1151  0.6507
  473MOL0     H63853   7.379   3.722   7.756  1.5297  0.5048  1.7052
  473MOL0     H63854   6.771   4.397   7.774  1.0266 -0.6810  0.0798
  473MOL0     H63855   6.592   4.529   7.776 -1.8714 -0.2825 -1.0553
  474MOL0     O63856   8.213   9.200   6.851 -0.0570  0.1753 -0.0625
  474MOL0     C63857   8.261   9.166   6.958 -0.5691 -1.1822 -0.3619
  474MOL0     O63858   8.200   9.089   7.048  0.6195 -0.1704 -0.0719
  474MOL0     C63859   8.077   9.113   7.111 -0.5984  0.3259  0.0409
  474MOL0     C63860   8.036   9.014   7.201 -0.1573  0.6844  0.2999
  474MOL0     C63861   7.923   9.027   7.277  0.1106 -0.2150  0.1543
  474MOL0     C63862   7.831   9.128   7.242  0.3386 -0.4319 -0.9083
  474MOL0     O63863   7.712   9.130   7.311 -0.0727  0.0481 -0.1691
  474MOL0     C63864   7.590   9.134   7.226 -0.8850 -0.1819 -0.5709
  474MOL0     C63865   7.486   9.047   7.288 -0.1607 -0.4549  1.1800
  474MOL0     C63866   7.345   9.061   7.211 -0.2476 -0.5757  0.0709
  474MOL0     C63867   7.229   9.000   7.283  0.2638  0.8568 -0.5815
  474MOL0     C63868   7.153   9.107   7.366  0.6561 -0.1754  0.3447
  474MOL0     C63869   7.075   9.202   7.274 -0.0893 -0.6374 -0.1576
  474MOL0     C63870   6.957   9.275   7.350 -0.3694  0.5221 -0.0302
  474MOL0     C63871   7.020   9.403   7.408 -0.0277 -0.5326  0.0638
  474MOL0     N63872   6.931   9.481   7.496 -0.6588  0.3954 -0.9791
  474MOL0     C63873   6.807   9.512   7.461 -0.3829  0.7880 -0.4413
  474MOL0     C63874   6.761   9.583   7.566 -0.2246 -0.1392 -0.4540
  474MOL0     C63875   6.626   9.656   7.576 -0.0725  0.3335 -0.2385
  474MOL0     C63876   6.589   9.679   7.720 -0.6404  0.8156  0.6584
  474MOL0     C63877   6.466   9.776   7.733 -0.4486  0.0659  0.0380
  474MOL0     C63878   6.343   9.710   7.669  0.5786 -0.6524 -0.8885
  474MOL0     O63879   6.313   9.588   7.739  0.4011  0.7037 -0.2434
  474MOL0     C63880   6.218   9.511   7.686  0.7448 -0.4313 -0.3832
  474MOL0     C63881   6.138   9.530   7.578  0.4143  0.5780 -0.2872
  474MOL0     C63882   6.033   9.445   7.543  0.5889 -0.0249 -0.4490
  474MOL0     C63883   5.951   9.473   7.418  0.2714 -1.1401  0.0821
  474MOL0     C63884   6.015   9.327   7.614  0.2214  0.5715  0.3473
  474MOL0     C63885   5.918   9.216   7.576 -0.3949 -1.4026  0.1133
  474MOL0     O63886   5.817   9.251   7.495  0.2245  0.1891  0.1811
  474MOL0     C63887   5.703   9.178   7.499 -0.0547  0.0485 -0.0758
  474MOL0     C63888   5.617   9.187   7.603 -0.4531  0.6453 -0.3089
  474MOL0     C63889   5.496   9.121   7.605 -0.5005 -0.4562 -0.3966
  474MOL0     C63890   5.471   9.037   7.495  0.3733  0.8452  0.2252
  474MOL0     O63891   5.369   8.944   7.497 -0.3319  0.0111 -0.2357
  474MOL0     C63892   5.254   8.971   7.575 -0.3656 -0.7614  0.5734
  474MOL0     C63893   5.147   8.882   7.524 -0.3156  0.6486  0.7020
  474MOL0     C63894   5.013   8.914   7.600  0.7143 -0.1995  0.6764
  474MOL0     C63895   4.916   8.818   7.536  0.6766 -0.7523  0.2599
  474MOL0     C63896   4.772   8.831   7.597 -0.8190 -0.3108  1.2077
  474MOL0     C63897   4.684   8.713   7.569  0.0182  0.5415 -0.7440
  474MOL0     C63898   4.731   8.601   7.658 -0.1149  1.0674 -0.5470
  474MOL0     C63899   4.610   8.501   7.659  0.1458 -0.2232  1.1696
  474MOL0    Cl63900   4.455   8.568   7.723 -0.2528  0.3906  0.3622
  474MOL0     C63901   5.551   9.038   7.383 -0.2306 -0.2968 -0.0623
  474MOL0     C63902   5.670   9.108   7.389  0.1325  0.1569  0.7204
  474MOL0     O63903   5.920   9.111   7.638 -0.0009 -0.3057 -0.1649
  474MOL0     C63904   6.103   9.303   7.718  0.1811 -0.3105  0.3985
  474MOL0     C63905   6.201   9.393   7.755  0.4410  0.3976 -0.7758
  474MOL0     N63906   6.867   9.594   7.657 -0.2763  0.5400 -0.2059
  474MOL0     N63907   6.974   9.539   7.611  0.9713 -0.5449 -0.3014
  474MOL0     C63908   7.862   9.226   7.147 -0.3305  0.3155  0.4744
  474MOL0     C63909   7.983   9.216   7.082 -0.2366  0.2063  0.1320
  474MOL0     C63910   8.407   9.190   6.983 -1.0169 -0.2377  0.7711
  474MOL0     C63911   8.511   9.178   6.885  0.7155 -0.2108 -0.4456
  474MOL0     C63912   8.645   9.206   6.925 -0.1982 -0.0410  0.5763
  474MOL0     C63913   8.678   9.234   7.053 -0.0022  0.2321  0.3507
  474MOL0     O63914   8.813   9.231   7.079 -0.4349 -0.7908 -0.5523
  474MOL0     C63915   8.853   9.241   7.216 -0.4654  0.3665  0.2265
  474MOL0     C63916   9.012   9.245   7.228 -0.5102  0.3975  0.2319
  474MOL0     C63917   9.068   9.104   7.200  0.7094  0.3714  0.3505
  474MOL0     C63918   9.219   9.103   7.206 -0.0564  0.0896  0.9279
  474MOL0     C63919   9.268   9.137   7.336 -0.8049 -0.3223  0.4371
  474MOL0     C63920   9.312   9.143   7.447 -0.0574 -0.2795 -0.3162
  474MOL0     C63921   8.573   9.250   7.145  0.0386  0.0906 -0.1594
  474MOL0     C63922   8.438   9.233   7.112  1.0275 -0.1845  1.0212
  474MOL0     H63923   8.093   8.922   7.194 -0.1902  0.7623 -1.2260
  474MOL0     H63924   7.905   8.971   7.367 -0.9457 -2.9906 -1.6604
  474MOL0     H63925   7.557   9.238   7.216 -0.7630 -0.0919 -0.0238
  474MOL0     H63926   7.611   9.085   7.131 -0.8859 -1.1394 -0.0850
  474MOL0     H63927   7.526   8.947   7.270 -2.5314 -1.0402 -1.6161
  474MOL0     H63928   7.489   9.082   7.392 -1.7997  2.0988  0.4778
  474MOL0     H63929   7.318   9.161   7.178  1.1653 -0.4414 -0.7748
  474MOL0     H63930   7.353   9.004   7.117  0.9262 -0.7724  0.2708
  474MOL0     H63931   7.167   8.963   7.200  1.0758 -0.0649 -0.7880
  474MOL0     H63932   7.266   8.919   7.346 -0.6717  0.5843 -0.3704
  474MOL0     H63933   7.086   9.050   7.430  2.1462 -3.0992 -0.4965
  474MOL0     H63934   7.232   9.148   7.429 -0.2809  4.3587 -1.0894
  474MOL0     H63935   7.138   9.277   7.225  0.7237 -0.6844  0.7764
  474MOL0     H63936   7.024   9.143   7.198  0.5835  2.8871 -3.6803
  474MOL0     H63937   6.885   9.290   7.269 -0.9222 -0.8667  0.1817
  474MOL0     H63938   6.903   9.216   7.425  0.3534  0.2968  0.3180
  474MOL0     H63939   7.053   9.465   7.324 -0.0968 -1.5138 -0.7121
  474MOL0     H63940   7.109   9.375   7.465  0.8893  1.5348 -0.2848
  474MOL0     H63941   6.760   9.480   7.369  0.1896 -3.1394  0.4668
  474MOL0     H63942   6.630   9.749   7.518  0.6183  1.1498  1.0601
  474MOL0     H63943   6.552   9.585   7.541 -0.1072  0.4602 -0.4207
  474MOL0     H63944   6.669   9.726   7.778  1.0638 -0.1990 -0.7629
  474MOL0     H63945   6.570   9.580   7.761 -1.2723  0.2108 -0.9737
  474MOL0     H63946   6.482   9.880   7.702 -1.0555  0.9938  2.5647
  474MOL0     H63947   6.455   9.785   7.842 -3.8241 -3.9421  0.2730
  474MOL0     H63948   6.350   9.690   7.562 -0.3488 -2.4969 -0.6355
  474MOL0     H63949   6.263   9.785   7.675  2.9166  2.4121 -3.6686
  474MOL0     H63950   6.153   9.618   7.516  0.9747  0.0411 -0.9304
  474MOL0     H63951   5.971   9.568   7.368 -1.0778 -0.5481  0.6086
  474MOL0     H63952   5.974   9.393   7.347  1.3640 -1.8052  1.1450
  474MOL0     H63953   5.845   9.490   7.441 -0.3743 -0.4062 -2.9809
  474MOL0     H63954   5.641   9.242   7.693 -1.1395 -2.2124  1.7742
  474MOL0     H63955   5.423   9.131   7.685 -1.9240  0.0122 -1.6937
  474MOL0     H63956   5.276   8.950   7.680 -1.6213 -3.4656  0.3796
  474MOL0     H63957   5.234   9.079   7.572  2.5355 -0.1014  1.2019
  474MOL0     H63958   5.138   8.897   7.416  0.3322  1.9749  0.8165
  474MOL0     H63959   5.173   8.777   7.541  0.6535  0.5703 -0.9812
  474MOL0     H63960   4.983   9.017   7.581  0.5816 -0.6937 -2.3960
  474MOL0     H63961   5.030   8.901   7.707  2.7147  1.0412  0.5507
  474MOL0     H63962   4.902   8.833   7.428  1.2960 -2.0386 -0.0167
  474MOL0     H63963   4.947   8.714   7.553  1.1915 -0.2590  2.5569
  474MOL0     H63964   4.727   8.917   7.547  0.4465 -1.5521 -2.4069
  474MOL0     H63965   4.775   8.852   7.704 -0.4524 -0.0355  1.1477
  474MOL0     H63966   4.584   8.745   7.599  0.1295 -1.5451  2.1858
  474MOL0     H63967   4.684   8.679   7.465 -0.6852 -1.8249 -0.0127
  474MOL0     H63968   4.751   8.639   7.759 -0.8587 -0.5209  0.2319
  474MOL0     H63969   4.824   8.554   7.624 -0.9234 -2.1191  1.2642
  474MOL0     H63970   4.634   8.407   7.711  0.0309 -2.0707 -1.8807
  474MOL0     H63971   4.592   8.457   7.560 -1.1218 -1.5567  1.9510
  474MOL0     H63972   5.512   8.992   7.293  1.0031 -0.8013 -0.3641
  474MOL0     H63973   5.735   9.119   7.303 -1.9825  1.5733 -0.8039
  474MOL0     H63974   6.105   9.205   7.764  1.1148  0.1921  1.5006
  474MOL0     H63975   6.257   9.370   7.846 -2.7258  0.6198  1.3850
  474MOL0     H63976   7.801   9.312   7.123  0.5034  0.4096 -1.4190
  474MOL0     H63977   8.025   9.293   7.019 -0.3199  0.1044 -0.0482
  474MOL0     H63978   8.497   9.154   6.780  1.1279  0.2296 -0.6076
  474MOL0     H63979   8.729   9.211   6.856 -1.4913  1.6170 -0.9951
  474MOL0     H63980   8.814   9.335   7.253 -1.1661  0.4113 -0.5948
  474MOL0     H63981   8.822   9.157   7.279 -0.3570  0.2219  0.0917
  474MOL0     H63982   9.049   9.276   7.326 -0.2522  1.0237 -0.0593
  474MOL0     H63983   9.071   9.308   7.160  1.2801 -1.5083 -0.1119
  474MOL0     H63984   9.030   9.066   7.105  1.1030 -1.4177  0.8550
  474MOL0     H63985   9.029   9.033   7.274 -1.1014  1.4089  0.4589
  474MOL0     H63986   9.248   9.179   7.133 -0.9286  0.0255  0.5048
  474MOL0     H63987   9.259   9.005   7.177 -0.3211 -0.2653  1.7309
  474MOL0     H63988   9.358   9.129   7.543 -0.3276 -0.4075 -0.2050
  474MOL0     H63989   8.607   9.277   7.244  2.5722 -0.7997 -0.7079
  474MOL0     H63990   8.362   9.237   7.190  2.1796  3.9427  2.1509
  475MOL0     O63991   1.081   4.694   3.460 -0.1572  0.7399 -0.0252
  475MOL0     C63992   1.158   4.711   3.368 -0.4075  0.9508 -0.4635
  475MOL0     O63993   1.128   4.728   3.229  0.1738  0.5331 -0.1507
  475MOL0     C63994   0.996   4.728   3.189 -0.7311  0.1616 -0.2827
  475MOL0     C63995   0.940   4.641   3.093  0.6963 -0.0037  0.2011
  475MOL0     C63996   0.802   4.650   3.074  0.7917  0.9633 -0.0618
  475MOL0     C63997   0.722   4.748   3.125  0.1432  0.0336  0.2206
  475MOL0     O63998   0.594   4.757   3.080  0.2452  0.1516 -0.1594
  475MOL0     C63999   0.490   4.682   3.148  0.7394 -0.1899 -0.1828
  475MOL0     C64000   0.359   4.670   3.069  0.7602  0.0994  1.0014
  475MOL0     C64001   0.270   4.785   3.107 -0.0286 -0.0856 -0.5423
  475MOL0     C64002   0.145   4.800   3.017  0.1063 -0.1714 -0.7690
  475MOL0     C64003   0.011   4.797   3.091 -0.6153 -0.5669  0.4560
  475MOL0     C64004  -0.106   4.840   2.994 -0.6635  0.6162  0.5028
  475MOL0     C64005  -0.250   4.795   3.038 -0.4931  0.3556  0.3295
  475MOL0     C64006  -0.347   4.884   2.968 -0.3183  0.7270  0.8509
  475MOL0     N64007  -0.454   4.801   2.907  0.4652 -0.0847  1.0684
  475MOL0     C64008  -0.585   4.825   2.927  0.0743 -0.9190 -0.6273
  475MOL0     C64009  -0.655   4.760   2.829  0.5811 -0.3149  0.0647
  475MOL0     C64010  -0.804   4.755   2.813 -0.9561  0.2236  0.7718
  475MOL0     C64011  -0.869   4.629   2.867  0.2413  0.6960 -0.4426
  475MOL0     C64012  -1.013   4.627   2.883  0.1960 -0.3140  0.2213
  475MOL0     C64013  -1.062   4.482   2.895 -0.6662 -0.3565 -0.4895
  475MOL0     O64014  -1.195   4.471   2.845 -0.1480  0.3097 -0.2576
  475MOL0     C64015  -1.294   4.534   2.911  0.8786 -1.0023 -0.2518
  475MOL0     C64016  -1.339   4.661   2.876  0.0993 -0.7836 -0.0954
  475MOL0     C64017  -1.449   4.718   2.946  0.2353 -0.0344 -0.5149
  475MOL0     C64018  -1.485   4.856   2.919 -0.0635 -0.3408 -0.0433
  475MOL0     C64019  -1.514   4.645   3.058  0.0028  0.3896 -0.3221
  475MOL0     C64020  -1.621   4.706   3.149  0.2058  0.3063 -0.7854
  475MOL0     O64021  -1.643   4.838   3.154 -0.2753 -0.2495 -0.1029
  475MOL0     C64022  -1.750   4.888   3.222 -0.0441 -0.1853 -0.6527
  475MOL0     C64023  -1.742   4.890   3.366 -0.2025  0.1484  0.2882
  475MOL0     C64024  -1.855   4.940   3.436 -0.2162  0.5347 -0.3923
  475MOL0     C64025  -1.975   4.988   3.373  0.7524 -0.8487  0.2381
  475MOL0     O64026  -2.077   5.053   3.447  0.0178 -0.0907  0.3872
  475MOL0     C64027  -2.191   5.087   3.377  0.8456  0.2076  0.2765
  475MOL0     C64028  -2.289   5.154   3.478  1.3693 -0.0571  0.0913
  475MOL0     C64029  -2.432   5.172   3.427  0.0162 -0.2419 -0.1599
  475MOL0     C64030  -2.522   5.229   3.548 -0.5838 -0.5273 -0.3083
  475MOL0     C64031  -2.670   5.220   3.512 -0.4208  0.1981 -0.5235
  475MOL0     C64032  -2.764   5.263   3.623  0.4736  0.4293  0.8490
  475MOL0     C64033  -2.911   5.255   3.587 -0.5901 -0.0227  0.0920
  475MOL0     C64034  -3.001   5.273   3.704 -0.9516 -0.8037 -0.4668
  475MOL0    Cl64035  -3.011   5.437   3.742 -0.3131 -0.3124  0.4009
  475MOL0     C64036  -1.970   4.985   3.238  0.6954 -0.0303 -0.7907
  475MOL0     C64037  -1.862   4.941   3.165 -0.3213 -1.4253  0.2610
  475MOL0     O64038  -1.673   4.624   3.223  0.5096 -0.4401 -0.3689
  475MOL0     C64039  -1.465   4.518   3.090  0.6897 -0.0744 -0.1851
  475MOL0     C64040  -1.352   4.463   3.022  0.7251 -0.0130  0.6718
  475MOL0     N64041  -0.564   4.696   2.753 -0.3879 -0.2639 -0.6851
  475MOL0     N64042  -0.441   4.731   2.790  0.3623  0.1167 -0.7824
  475MOL0     C64043   0.778   4.826   3.225  0.3608 -0.5584  0.2534
  475MOL0     C64044   0.908   4.814   3.262  0.1291 -0.0680 -0.7433
  475MOL0     C64045   1.313   4.717   3.393  0.3657 -0.6730  0.5322
  475MOL0     C64046   1.406   4.672   3.296  0.4914  0.0226  0.4293
  475MOL0     C64047   1.541   4.667   3.326 -0.0621  0.3536  0.1353
  475MOL0     C64048   1.600   4.710   3.444  0.3982 -0.1083 -0.1669
  475MOL0     O64049   1.737   4.692   3.452  0.0601  0.8557 -0.0980
  475MOL0     C64050   1.811   4.736   3.563 -0.1977 -0.0791 -0.6284
  475MOL0     C64051   1.937   4.657   3.590  0.0996  0.3879 -0.1772
  475MOL0     C64052   1.897   4.529   3.665  0.1745  0.3263  1.3406
  475MOL0     C64053   1.977   4.407   3.632  0.0006  0.3681 -0.6933
  475MOL0     C64054   2.115   4.431   3.672  0.5918 -0.7371  0.2625
  475MOL0     C64055   2.231   4.427   3.711 -0.1463 -1.0495 -0.3703
  475MOL0     C64056   1.501   4.760   3.538 -0.2599 -0.3481  0.3051
  475MOL0     C64057   1.364   4.761   3.515 -0.0716  0.2591 -0.0719
  475MOL0     H64058   0.993   4.559   3.045  3.6796  1.2776  1.0964
  475MOL0     H64059   0.756   4.576   3.009 -0.0373 -1.4355  2.9890
  475MOL0     H64060   0.538   4.586   3.171  4.6148  1.0804 -2.1433
  475MOL0     H64061   0.475   4.731   3.244 -0.2183  0.8328 -0.8363
  475MOL0     H64062   0.368   4.669   2.960 -2.9770 -3.3360  0.4947
  475MOL0     H64063   0.292   4.589   3.100 -0.9700  2.1747  3.1317
  475MOL0     H64064   0.236   4.761   3.208  1.7588 -0.8756 -0.1005
  475MOL0     H64065   0.314   4.885   3.116  1.1303 -0.6515  0.2781
  475MOL0     H64066   0.141   4.895   2.963 -1.5637 -1.1346 -2.4755
  475MOL0     H64067   0.150   4.723   2.939 -0.2890 -0.0648 -0.9012
  475MOL0     H64068  -0.017   4.702   3.139  0.5866 -0.8203  0.6783
  475MOL0     H64069   0.018   4.870   3.172  1.6237 -1.4974  1.1557
  475MOL0     H64070  -0.090   4.948   2.986 -3.4116  1.0302 -0.6746
  475MOL0     H64071  -0.087   4.797   2.895 -0.4783  3.4040 -0.7930
  475MOL0     H64072  -0.269   4.687   3.032  3.7487 -0.5891  0.4344
  475MOL0     H64073  -0.243   4.818   3.145  0.2514 -2.8268  1.0651
  475MOL0     H64074  -0.300   4.935   2.884  0.2823 -2.4342 -0.9114
  475MOL0     H64075  -0.389   4.945   3.048  0.3003  0.4053  1.4277
  475MOL0     H64076  -0.634   4.881   3.005 -0.6857  1.3962 -2.6348
  475MOL0     H64077  -0.838   4.848   2.860 -1.2787  0.6973 -0.3698
  475MOL0     H64078  -0.822   4.759   2.705 -0.3935 -0.3102  0.6502
  475MOL0     H64079  -0.823   4.598   2.961 -1.0811 -2.0510 -0.6009
  475MOL0     H64080  -0.839   4.551   2.796 -2.5777 -0.9211 -0.0025
  475MOL0     H64081  -1.051   4.681   2.795  1.9108 -0.0480 -0.3955
  475MOL0     H64082  -1.042   4.684   2.972  0.3624 -0.2666  0.2450
  475MOL0     H64083  -1.044   4.443   2.996  0.9901 -0.0130 -0.6104
  475MOL0     H64084  -1.000   4.422   2.827  2.1825  1.4334  0.3509
  475MOL0     H64085  -1.289   4.710   2.793  0.4476 -1.8368 -0.5220
  475MOL0     H64086  -1.594   4.865   2.918 -0.1045 -0.3943  1.5177
  475MOL0     H64087  -1.440   4.920   2.996  1.0686 -1.8170  0.5930
  475MOL0     H64088  -1.439   4.889   2.825 -0.4684 -0.7097 -0.3730
  475MOL0     H64089  -1.656   4.854   3.422  1.2733  0.4600 -1.6212
  475MOL0     H64090  -1.834   4.954   3.542 -1.6483  2.8770 -0.3468
  475MOL0     H64091  -2.164   5.158   3.299  3.0188 -0.2679  0.5494
  475MOL0     H64092  -2.246   4.997   3.346 -0.1634 -0.6564  4.0647
  475MOL0     H64093  -2.282   5.099   3.572 -0.5048 -0.0789  0.2674
  475MOL0     H64094  -2.262   5.256   3.508  0.9240  0.1982 -0.3562
  475MOL0     H64095  -2.473   5.079   3.387 -3.1533  0.6964  0.6496
  475MOL0     H64096  -2.433   5.248   3.348 -1.5779 -0.3978 -0.3229
  475MOL0     H64097  -2.499   5.176   3.642 -2.9368  0.9922  1.2235
  475MOL0     H64098  -2.502   5.335   3.566  1.9230 -0.9784 -0.0584
  475MOL0     H64099  -2.695   5.117   3.484  1.0043 -0.1421 -0.6162
  475MOL0     H64100  -2.678   5.284   3.424  1.5115 -2.6210 -2.9405
  475MOL0     H64101  -2.746   5.191   3.703 -2.4227 -0.8342  0.4792
  475MOL0     H64102  -2.736   5.364   3.655 -1.7443  1.3170  0.2120
  475MOL0     H64103  -2.914   5.150   3.558  0.5607 -1.0055  3.1727
  475MOL0     H64104  -2.942   5.330   3.513  1.1789  0.2751 -0.3955
  475MOL0     H64105  -2.966   5.206   3.783 -0.6281  1.4249  1.4028
  475MOL0     H64106  -3.106   5.250   3.681 -1.1329  0.7540 -1.2805
  475MOL0     H64107  -2.057   5.026   3.187 -0.8611 -4.1473 -1.8298
  475MOL0     H64108  -1.859   4.969   3.060  1.5692  2.2996  1.1137
  475MOL0     H64109  -1.506   4.459   3.172  0.2319 -1.7321 -1.5594
  475MOL0     H64110  -1.316   4.362   3.044 -1.1269 -1.2468 -1.5022
  475MOL0     H64111   0.711   4.890   3.282  1.3227  0.5890  0.1455
  475MOL0     H64112   0.949   4.875   3.342  1.3735  1.4180 -2.4126
  475MOL0     H64113   1.358   4.633   3.206  1.8639 -2.9084  0.8644
  475MOL0     H64114   1.604   4.616   3.253  0.2416 -1.1306  1.3850
  475MOL0     H64115   1.845   4.838   3.542 -0.1605  0.0006 -0.1829
  475MOL0     H64116   1.755   4.753   3.655  2.1003  1.1886  0.6319
  475MOL0     H64117   1.993   4.719   3.662  0.1947 -1.1445  1.1131
  475MOL0     H64118   1.991   4.641   3.496  0.0064 -2.8427  0.2045
  475MOL0     H64119   1.794   4.505   3.636 -0.0646  3.8450 -1.4108
  475MOL0     H64120   1.897   4.535   3.774  1.5648 -2.4334  1.5827
  475MOL0     H64121   1.974   4.383   3.525 -0.7863 -0.7342 -0.4341
  475MOL0     H64122   1.938   4.322   3.689  6.0588 -2.2331  0.3343
  475MOL0     H64123   2.336   4.424   3.729  0.2022  2.6999 -0.9245
  475MOL0     H64124   1.525   4.797   3.637  0.7365 -0.4235  0.1052
  475MOL0     H64125   1.299   4.799   3.593  3.2321 -0.6912  3.4727
  476MOL0     O64126   8.721   3.733   8.739  1.2719  0.3256  0.3795
  476MOL0     C64127   8.785   3.834   8.782  0.0526  1.2872 -0.3243
  476MOL0     O64128   8.749   3.908   8.886 -0.4723 -0.6174 -0.1444
  476MOL0     C64129   8.650   3.876   8.974  0.4337  0.6523 -1.2489
  476MOL0     C64130   8.561   3.978   9.016 -0.3288 -0.0138 -0.0302
  476MOL0     C64131   8.466   3.956   9.110  0.4281 -0.0989 -0.1015
  476MOL0     C64132   8.451   3.828   9.176  1.3568 -0.4668 -0.2606
  476MOL0     O64133   8.357   3.799   9.266  0.5810  0.6901  0.3988
  476MOL0     C64134   8.247   3.889   9.288  0.5983  0.2359  0.2427
  476MOL0     C64135   8.141   3.812   9.365  1.1525  0.3688 -0.2119
  476MOL0     C64136   8.080   3.697   9.282  0.9901  0.2991 -0.0002
  476MOL0     C64137   7.961   3.634   9.365  0.7770  0.5563 -0.5643
  476MOL0     C64138   7.884   3.536   9.275 -0.7077 -0.3891  1.4970
  476MOL0     C64139   7.769   3.457   9.345 -0.8975  0.0872  0.1783
  476MOL0     C64140   7.733   3.332   9.268  0.2579 -0.0327 -0.2816
  476MOL0     C64141   7.624   3.239   9.313  0.1153 -0.9550 -1.1784
  476MOL0     N64142   7.494   3.308   9.317 -0.3831 -0.2321  0.2031
  476MOL0     C64143   7.400   3.285   9.228  1.6713  0.4917  0.6837
  476MOL0     C64144   7.310   3.386   9.245  0.0095  0.3433 -0.9649
  476MOL0     C64145   7.180   3.413   9.157 -0.4220  0.1614  0.2785
  476MOL0     C64146   7.050   3.353   9.213 -0.4043  0.7432  0.5924
  476MOL0     C64147   7.007   3.428   9.342 -0.0336  0.1356  0.7377
  476MOL0     C64148   6.860   3.408   9.380 -0.0767  0.3837 -0.7935
  476MOL0     O64149   6.809   3.524   9.439 -0.6851 -0.2506  0.0543
  476MOL0     C64150   6.674   3.538   9.433  0.2644  0.7115 -0.0067
  476MOL0     C64151   6.621   3.629   9.340 -0.9311  0.1604 -0.5239
  476MOL0     C64152   6.489   3.670   9.347 -0.5995 -0.5434  0.5469
  476MOL0     C64153   6.459   3.792   9.255  0.1237  0.3720  0.8425
  476MOL0     C64154   6.408   3.613   9.453 -0.1576 -0.7551 -0.2733
  476MOL0     C64155   6.271   3.667   9.481 -0.1618 -0.0247  0.0364
  476MOL0     O64156   6.233   3.785   9.413 -0.3679  0.4477  0.5263
  476MOL0     C64157   6.119   3.860   9.451  0.1402  0.8509 -0.7446
  476MOL0     C64158   6.035   3.898   9.347  0.0216 -0.4378  0.0793
  476MOL0     C64159   5.927   3.969   9.380  0.1335 -0.0364 -0.5891
  476MOL0     C64160   5.895   4.010   9.508 -1.2232  0.6561  0.1604
  476MOL0     O64161   5.776   4.084   9.514 -0.1434  0.2510 -0.3188
  476MOL0     C64162   5.706   4.081   9.634  0.2531  0.0872 -0.7009
  476MOL0     C64163   5.555   4.111   9.614 -0.2054  0.3299  0.2804
  476MOL0     C64164   5.473   4.116   9.746 -0.1313 -0.1117  0.5761
  476MOL0     C64165   5.315   4.108   9.715 -0.2713  0.7235 -0.1126
  476MOL0     C64166   5.231   4.111   9.839  0.3082 -0.2629 -0.2057
  476MOL0     C64167   5.088   4.144   9.792 -0.1046  1.0325  0.0532
  476MOL0     C64168   4.997   4.144   9.916 -0.4840 -0.0339 -0.0105
  476MOL0     C64169   4.856   4.173   9.866  0.8832  0.3331  0.0632
  476MOL0    Cl64170   4.796   4.017   9.799  0.3001 -0.6043  0.0350
  476MOL0     C64171   5.969   3.960   9.618 -0.0652  0.1138  0.2953
  476MOL0     C64172   6.087   3.895   9.584  0.5576 -0.2041  0.1373
  476MOL0     O64173   6.210   3.613   9.573  1.3259  0.9272  0.6463
  476MOL0     C64174   6.460   3.515   9.539 -0.7141 -0.1305 -0.0928
  476MOL0     C64175   6.592   3.482   9.532 -0.8244 -0.7701  0.0283
  476MOL0     N64176   7.352   3.455   9.363 -0.3593  0.4787  0.2389
  476MOL0     N64177   7.462   3.404   9.409 -0.0619 -1.1396 -0.1460
  476MOL0     C64178   8.535   3.732   9.145  0.2638 -0.0470  0.4188
  476MOL0     C64179   8.637   3.748   9.045 -0.2044 -1.3198  0.2846
  476MOL0     C64180   8.905   3.878   8.712  0.4798  0.1762  0.4603
  476MOL0     C64181   8.941   3.800   8.600 -0.6401 -0.2148  1.0633
  476MOL0     C64182   9.050   3.839   8.520 -0.4525 -0.4020  0.9398
  476MOL0     C64183   9.121   3.949   8.554 -0.5147  0.0810 -0.5564
  476MOL0     O64184   9.232   3.995   8.485 -0.5203  0.5295  1.0483
  476MOL0     C64185   9.280   3.930   8.362  0.4221 -0.0212  0.2472
  476MOL0     C64186   9.372   3.821   8.409 -1.1057  0.2153 -0.5271
  476MOL0     C64187   9.403   3.723   8.299 -0.1098 -0.0972 -0.3235
  476MOL0     C64188   9.510   3.774   8.192 -0.4811 -0.2164  0.6580
  476MOL0     C64189   9.641   3.793   8.242 -0.6220 -0.7961 -0.3563
  476MOL0     C64190   9.751   3.838   8.288  0.4018  1.1526  0.1054
  476MOL0     C64191   9.077   4.035   8.651 -0.7466 -0.9401  0.2165
  476MOL0     C64192   8.972   4.000   8.735  0.9958 -0.2359  0.3643
  476MOL0     H64193   8.557   4.073   8.965  0.1260  0.9878  1.7156
  476MOL0     H64194   8.394   4.034   9.134  1.9310  1.4514 -0.4131
  476MOL0     H64195   8.272   3.976   9.349  3.1122 -1.2595  1.5324
  476MOL0     H64196   8.205   3.914   9.190  0.9262  0.4522  0.1576
  476MOL0     H64197   8.184   3.756   9.448 -1.2474 -1.2099  0.0811
  476MOL0     H64198   8.060   3.876   9.402 -0.7617 -1.1733 -1.5520
  476MOL0     H64199   8.059   3.735   9.182  1.3808 -3.0554 -1.4871
  476MOL0     H64200   8.155   3.618   9.273 -0.4051 -1.1111  0.3377
  476MOL0     H64201   7.989   3.578   9.455 -0.6546 -0.7381 -0.8747
  476MOL0     H64202   7.898   3.717   9.399  1.1961  0.4186  0.6007
  476MOL0     H64203   7.846   3.601   9.196  3.0785 -1.1856 -1.2502
  476MOL0     H64204   7.956   3.469   9.225  1.0605  0.8935  2.2438
  476MOL0     H64205   7.811   3.431   9.443  2.0109 -0.9441 -1.2207
  476MOL0     H64206   7.683   3.522   9.364 -0.5431  0.2874  1.1802
  476MOL0     H64207   7.708   3.354   9.164  2.7006  0.2107 -0.8794
  476MOL0     H64208   7.823   3.270   9.272 -0.1748 -0.6230  0.3769
  476MOL0     H64209   7.663   3.204   9.409  2.7833 -1.6992 -2.4463
  476MOL0     H64210   7.614   3.151   9.249  0.0329 -2.2007  0.4839
  476MOL0     H64211   7.394   3.209   9.151 -1.3644  2.1771 -0.9439
  476MOL0     H64212   7.165   3.521   9.149 -2.8061 -0.0711  0.9299
  476MOL0     H64213   7.190   3.365   9.060  0.7463 -2.2515  1.5054
  476MOL0     H64214   7.061   3.246   9.230 -2.0024  0.3259 -0.7574
  476MOL0     H64215   6.967   3.371   9.144  0.5189  0.3639 -0.6669
  476MOL0     H64216   7.030   3.533   9.323  0.7940 -0.5402 -2.5296
  476MOL0     H64217   7.052   3.376   9.428 -2.0055  1.3115  2.5911
  476MOL0     H64218   6.854   3.338   9.463 -1.4146  0.1591 -1.0552
  476MOL0     H64219   6.801   3.375   9.294 -2.4413  3.0624 -0.3372
  476MOL0     H64220   6.696   3.677   9.279 -1.3174 -0.6583 -1.6712
  476MOL0     H64221   6.531   3.807   9.174 -1.6494 -1.3165 -1.1705
  476MOL0     H64222   6.361   3.791   9.207 -0.6706  0.2662  2.3935
  476MOL0     H64223   6.460   3.884   9.314 -0.7812  2.0990 -1.6926
  476MOL0     H64224   6.059   3.867   9.245  1.7517 -2.1498  0.9196
  476MOL0     H64225   5.871   4.013   9.299 -2.8307  0.9707  1.8399
  476MOL0     H64226   5.716   3.985   9.686 -0.6640  0.0880 -0.5173
  476MOL0     H64227   5.749   4.160   9.698 -2.2693  1.8455 -1.0449
  476MOL0     H64228   5.545   4.206   9.561  0.3478  0.1366 -0.1874
  476MOL0     H64229   5.522   4.028   9.550  2.4049 -0.0925 -0.6512
  476MOL0     H64230   5.485   4.214   9.793 -1.2119 -0.8668  2.5416
  476MOL0     H64231   5.510   4.046   9.821 -1.3586  1.2600  2.5859
  476MOL0     H64232   5.288   4.191   9.649  2.9976  2.4162  0.4762
  476MOL0     H64233   5.293   4.015   9.662  0.9167 -0.0932  0.7820
  476MOL0     H64234   5.268   4.194   9.900  0.3691  0.4317 -1.1595
  476MOL0     H64235   5.226   4.015   9.890 -2.2863  0.0083  0.1836
  476MOL0     H64236   5.085   4.241   9.742 -0.9385 -0.3919 -2.9092
  476MOL0     H64237   5.056   4.062   9.726 -0.6042 -0.5850  2.1830
  476MOL0     H64238   5.029   4.233   9.971  0.9221  0.4297 -1.4745
  476MOL0     H64239   5.012   4.062   9.987  0.2676  0.9357  0.9876
  476MOL0     H64240   4.851   4.259   9.798 -1.6605  0.2705  0.0970
  476MOL0     H64241   4.796   4.189   9.956  0.0041 -0.2941 -0.3991
  476MOL0     H64242   5.957   3.974   9.725  3.6551 -0.5271  0.9239
  476MOL0     H64243   6.171   3.875   9.650  2.1764  0.7749 -1.5404
  476MOL0     H64244   6.396   3.467   9.612 -3.2891 -0.2112 -2.2102
  476MOL0     H64245   6.635   3.416   9.607 -2.7695  0.4807  2.3876
  476MOL0     H64246   8.516   3.636   9.193 -2.5276 -0.8466 -1.9985
  476MOL0     H64247   8.701   3.667   9.010  0.3826  0.2817 -2.7104
  476MOL0     H64248   8.898   3.707   8.564  0.7453 -0.6203  0.3972
  476MOL0     H64249   9.096   3.760   8.463  0.0945  1.1126 -0.8465
  476MOL0     H64250   9.191   3.897   8.309  0.8003 -1.8030  0.6191
  476MOL0     H64251   9.338   4.001   8.303 -1.2542  1.3953  0.2630
  476MOL0     H64252   9.339   3.763   8.495  2.3945 -0.6640  0.4057
  476MOL0     H64253   9.465   3.869   8.440 -0.8553  0.9277 -2.2815
  476MOL0     H64254   9.315   3.688   8.243  0.7556 -0.6314 -1.3871
  476MOL0     H64255   9.439   3.629   8.342  0.6537  0.2333 -0.2354
  476MOL0     H64256   9.473   3.864   8.141 -1.1277 -0.5867  0.4514
  476MOL0     H64257   9.511   3.692   8.119  1.9351 -1.4274  1.9638
  476MOL0     H64258   9.850   3.858   8.325  0.5680  0.6625 -0.0596
  476MOL0     H64259   9.126   4.128   8.679 -1.3550 -0.6312  0.2671
  476MOL0     H64260   8.949   4.075   8.810 -2.1728 -1.9383  1.2818
  477MOL0     O64261   8.350   8.119   5.390  0.4588  0.7263  0.3852
  477MOL0     C64262   8.390   8.071   5.281  0.0842 -0.0953  0.2886
  477MOL0     O64263   8.316   8.058   5.167  0.2368  0.6030 -0.3431
  477MOL0     C64264   8.185   8.095   5.180 -0.0957  0.2141 -0.7822
  477MOL0     C64265   8.095   7.993   5.218 -0.0466  0.3319 -0.2730
  477MOL0     C64266   7.961   8.038   5.242  0.0933  0.2482  1.0685
  477MOL0     C64267   7.910   8.167   5.206 -0.5811 -0.0412 -0.1408
  477MOL0     O64268   7.785   8.204   5.219 -0.2232 -0.0221  0.0375
  477MOL0     C64269   7.713   8.226   5.106 -0.0747 -0.2394 -0.1785
  477MOL0     C64270   7.563   8.202   5.124 -0.1823 -0.0540 -0.0196
  477MOL0     C64271   7.549   8.048   5.134  0.0887 -0.2913  0.2074
  477MOL0     C64272   7.400   8.003   5.129  0.0194 -0.1740 -0.2401
  477MOL0     C64273   7.346   7.985   4.983 -0.8479  0.3624 -0.3224
  477MOL0     C64274   7.198   7.958   4.996 -0.3813 -0.5435 -0.5889
  477MOL0     C64275   7.162   7.896   4.854  0.6381 -0.3629  0.1696
  477MOL0     C64276   7.009   7.878   4.840 -1.2799 -0.2097  0.4243
  477MOL0     N64277   6.965   7.765   4.924 -0.6205  0.0324 -0.5986
  477MOL0     C64278   6.986   7.635   4.892  0.0859 -0.2436 -0.1713
  477MOL0     C64279   6.927   7.559   4.989  0.4994 -0.4341 -0.6080
  477MOL0     C64280   6.933   7.408   5.005  0.2248  0.3654  0.6834
  477MOL0     C64281   7.073   7.359   4.977 -0.2741  0.1787 -0.7803
  477MOL0     C64282   7.117   7.216   5.021 -0.0477 -0.2441  0.1877
  477MOL0     C64283   7.130   7.210   5.171  0.1323  0.8645  0.1408
  477MOL0     O64284   7.240   7.282   5.228 -0.0463  0.2141  0.3430
  477MOL0     C64285   7.301   7.226   5.334  0.7111 -0.7458  0.1787
  477MOL0     C64286   7.281   7.276   5.460  0.0797  0.2112 -0.1614
  477MOL0     C64287   7.364   7.243   5.562 -0.0440 -0.5445 -0.6394
  477MOL0     C64288   7.318   7.270   5.701 -0.2500  0.4132 -0.3460
  477MOL0     C64289   7.488   7.178   5.531  0.0446 -0.2629 -0.2969
  477MOL0     C64290   7.600   7.167   5.625 -0.1085  0.3925 -0.4169
  477MOL0     O64291   7.604   7.250   5.738  0.1170 -0.0735 -0.0536
  477MOL0     C64292   7.700   7.225   5.838  0.1381 -0.1806  0.6698
  477MOL0     C64293   7.818   7.287   5.818  0.0430 -0.8493  0.2201
  477MOL0     C64294   7.923   7.260   5.906 -0.4071 -0.0119  0.3301
  477MOL0     C64295   7.904   7.187   6.018 -0.5006 -0.0445  1.1274
  477MOL0     O64296   8.000   7.163   6.109 -0.0482 -0.1000 -0.1067
  477MOL0     C64297   8.116   7.249   6.123 -0.5460  0.4011  0.4553
  477MOL0     C64298   8.174   7.234   6.273  0.1003 -0.1916  0.3661
  477MOL0     C64299   8.079   7.267   6.381  0.0380  0.2462  0.1606
  477MOL0     C64300   8.127   7.231   6.528  0.1338 -0.3815  0.1978
  477MOL0     C64301   8.033   7.287   6.640 -0.5752 -0.5774  0.2713
  477MOL0     C64302   8.085   7.265   6.775  0.0189  0.2283 -0.9966
  477MOL0     C64303   8.009   7.326   6.895  0.0186  0.3466 -0.8536
  477MOL0     C64304   7.859   7.279   6.906  0.0014 -0.4029  0.1095
  477MOL0    Cl64305   7.775   7.389   6.790  0.0327 -0.2085 -0.5672
  477MOL0     C64306   7.777   7.130   6.036  0.5943  0.2271 -0.0850
  477MOL0     C64307   7.675   7.138   5.940 -0.6355  0.7455 -0.9062
  477MOL0     O64308   7.680   7.074   5.607 -0.4495 -0.2402 -0.2999
  477MOL0     C64309   7.511   7.142   5.395  0.4764  0.4466  0.5543
  477MOL0     C64310   7.418   7.171   5.299  0.5470  0.2229  0.4213
  477MOL0     N64311   6.877   7.650   5.081 -0.5778 -0.9542 -0.6351
  477MOL0     N64312   6.902   7.764   5.045  0.5603 -0.4196  0.7445
  477MOL0     C64313   8.005   8.254   5.145 -0.5708 -0.0327  0.1598
  477MOL0     C64314   8.140   8.222   5.142  0.5302 -0.5477  0.1131
  477MOL0     C64315   8.538   8.038   5.285 -0.1625  0.4059 -0.2052
  477MOL0     C64316   8.621   8.047   5.401 -0.3355  0.7720  0.0861
  477MOL0     C64317   8.756   8.005   5.403 -0.6330 -0.8077  0.8253
  477MOL0     C64318   8.809   7.946   5.291 -0.1906 -0.7625  0.3067
  477MOL0     O64319   8.929   7.885   5.285 -0.1910 -0.2177 -0.7624
  477MOL0     C64320   9.011   7.881   5.406  0.9128  0.3646  0.1251
  477MOL0     C64321   9.115   7.779   5.397 -0.3338 -0.0298  1.2493
  477MOL0     C64322   9.199   7.778   5.266 -0.5599 -0.5219  0.6782
  477MOL0     C64323   9.283   7.902   5.243 -0.2210  0.4519  0.4829
  477MOL0     C64324   9.400   7.872   5.150  1.0590  0.0359  0.4383
  477MOL0     C64325   9.486   7.843   5.071 -0.5236  0.4213  0.5933
  477MOL0     C64326   8.721   7.921   5.185 -0.7260 -0.2676 -0.2142
  477MOL0     C64327   8.591   7.972   5.179  0.0770 -1.0758  0.4859
  477MOL0     H64328   8.114   7.887   5.230  0.1192  0.3276 -0.5712
  477MOL0     H64329   7.901   7.962   5.292  2.3396  0.0180  3.6075
  477MOL0     H64330   7.715   8.333   5.084  3.7238  0.1076  1.0806
  477MOL0     H64331   7.754   8.176   5.018 -0.3872 -2.9373  1.1104
  477MOL0     H64332   7.527   8.248   5.217  0.4207  2.4994 -0.9665
  477MOL0     H64333   7.514   8.258   5.044 -0.4050 -0.6724 -0.3235
  477MOL0     H64334   7.594   8.002   5.045  2.3301  1.9298  0.0672
  477MOL0     H64335   7.601   8.012   5.223  0.8907  0.8802  0.2290
  477MOL0     H64336   7.384   7.912   5.187 -0.1903 -0.8979 -1.3890
  477MOL0     H64337   7.339   8.074   5.185 -1.3173 -0.6434 -1.0660
  477MOL0     H64338   7.366   8.071   4.917  0.5014  1.9157  1.9789
  477MOL0     H64339   7.396   7.898   4.940  1.7020  1.9504 -0.8195
  477MOL0     H64340   7.179   7.888   5.078  1.0242  1.0410  1.1692
  477MOL0     H64341   7.142   8.051   5.014 -2.3633 -2.0308  1.5025
  477MOL0     H64342   7.185   7.968   4.775 -0.0731  2.4360  2.3463
  477MOL0     H64343   7.205   7.797   4.840 -0.8831 -1.0231 -0.0158
  477MOL0     H64344   6.980   7.859   4.736 -1.1960  0.3689  0.2920
  477MOL0     H64345   6.957   7.967   4.876  1.5524  0.9251  2.0061
  477MOL0     H64346   7.047   7.592   4.812 -1.0880 -0.5857 -0.9128
  477MOL0     H64347   6.902   7.376   5.105  1.0390 -0.9395  0.5316
  477MOL0     H64348   6.861   7.369   4.933 -0.0534  2.2206 -0.1256
  477MOL0     H64349   7.146   7.431   5.015 -2.7653  2.5866 -0.2408
  477MOL0     H64350   7.075   7.359   4.867  0.5221 -0.1221 -0.7699
  477MOL0     H64351   7.214   7.200   4.974 -0.0101  1.0254 -0.2033
  477MOL0     H64352   7.052   7.139   4.979 -0.1213 -0.4032  0.5823
  477MOL0     H64353   7.141   7.105   5.203  1.0388  0.6322 -0.8769
  477MOL0     H64354   7.039   7.241   5.223 -0.3064  0.6131 -0.4700
  477MOL0     H64355   7.191   7.331   5.486  0.6210  1.9333 -1.7110
  477MOL0     H64356   7.215   7.307   5.708  0.5780  2.6749  2.1177
  477MOL0     H64357   7.314   7.181   5.765 -0.4947  0.3071 -0.5081
  477MOL0     H64358   7.379   7.353   5.738 -1.1087 -0.2119  2.8358
  477MOL0     H64359   7.829   7.362   5.741 -0.5879  0.2487  1.1688
  477MOL0     H64360   8.015   7.312   5.881 -0.3003 -0.8062 -1.0280
  477MOL0     H64361   8.200   7.228   6.057 -0.7620  0.2934  0.2123
  477MOL0     H64362   8.078   7.351   6.112 -1.2341  0.3235  1.8459
  477MOL0     H64363   8.210   7.131   6.281 -1.3317 -0.7519 -0.0999
  477MOL0     H64364   8.257   7.305   6.281 -0.1487  0.4969 -2.1148
  477MOL0     H64365   7.994   7.202   6.357 -0.1820  0.8876 -0.8619
  477MOL0     H64366   8.054   7.372   6.366 -1.5048  0.0175  0.8881
  477MOL0     H64367   8.143   7.125   6.549 -1.2376 -0.1383  2.8905
  477MOL0     H64368   8.218   7.289   6.546 -0.1683  0.4011 -0.6934
  477MOL0     H64369   7.929   7.258   6.619  0.0384 -1.5003 -1.8208
  477MOL0     H64370   8.019   7.394   6.624  1.0233 -0.6766 -2.4828
  477MOL0     H64371   8.112   7.159   6.782 -0.0182  0.2650 -0.1781
  477MOL0     H64372   8.186   7.303   6.791  0.0828 -0.2786 -0.1135
  477MOL0     H64373   8.014   7.435   6.907 -1.9496  0.1992  2.7080
  477MOL0     H64374   8.064   7.289   6.982 -0.4570  3.0885  0.7487
  477MOL0     H64375   7.834   7.303   7.010  0.7006  1.0993 -0.0375
  477MOL0     H64376   7.842   7.175   6.878 -0.3854 -0.5297  0.7850
  477MOL0     H64377   7.762   7.064   6.121 -2.3469  1.0805  0.1570
  477MOL0     H64378   7.577   7.093   5.954 -0.9270  1.9890  1.4435
  477MOL0     H64379   7.600   7.084   5.371  0.1728  0.9651 -2.0943
  477MOL0     H64380   7.437   7.157   5.193 -2.1785  2.4642 -0.4770
  477MOL0     H64381   7.974   8.356   5.127  1.9093  0.9040  0.8063
  477MOL0     H64382   8.210   8.296   5.103  0.5026 -0.6439 -0.1246
  477MOL0     H64383   8.565   8.081   5.487  0.2284 -0.6269  1.0310
  477MOL0     H64384   8.821   8.025   5.487 -0.7788  0.7522  0.5954
  477MOL0     H64385   9.057   7.979   5.421 -2.1331  1.9780 -0.2825
  477MOL0     H64386   8.941   7.847   5.483  0.1431  2.2163  0.2857
  477MOL0     H64387   9.065   7.682   5.390 -0.4161  0.0875  0.1622
  477MOL0     H64388   9.183   7.794   5.482  1.0149  2.1179 -0.1229
  477MOL0     H64389   9.127   7.767   5.184 -0.6296 -1.6803  0.8780
  477MOL0     H64390   9.271   7.696   5.255  2.5886  2.1301 -0.1229
  477MOL0     H64391   9.308   7.950   5.338 -1.9367  0.8063  0.7871
  477MOL0     H64392   9.222   7.975   5.189 -1.4588 -0.2027  0.9543
  477MOL0     H64393   9.566   7.821   5.003 -1.8347 -2.2029 -0.2621
  477MOL0     H64394   8.756   7.860   5.102 -0.6226 -0.8017  0.2188
  477MOL0     H64395   8.533   7.939   5.093 -0.4181 -0.2396  0.4909
  478MOL0     O64396   6.379   7.188   5.883 -0.1480 -0.9380  0.1839
  478MOL0     C64397   6.421   7.130   5.989 -0.5568 -0.2013 -0.0094
  478MOL0     O64398   6.344   7.064   6.078  0.1638 -0.4227  0.3328
  478MOL0     C64399   6.212   7.036   6.063  0.8693  0.5984  0.3281
  478MOL0     C64400   6.130   7.070   5.960 -0.5044  0.4281  0.5770
  478MOL0     C64401   5.998   7.031   5.953  0.0608 -0.7576  0.6463
  478MOL0     C64402   5.944   6.944   6.047  0.6981 -0.6578  0.4752
  478MOL0     O64403   5.820   6.890   6.042 -0.2058 -0.1489  0.0287
  478MOL0     C64404   5.761   6.876   5.912 -0.7157 -0.3137  0.1451
  478MOL0     C64405   5.671   6.766   5.911 -0.3663 -0.0382  0.1970
  478MOL0     C64406   5.563   6.768   6.024 -0.4143 -0.4211 -0.1826
  478MOL0     C64407   5.459   6.875   5.992  0.9080  0.0197  0.4655
  478MOL0     C64408   5.358   6.883   6.105 -1.1283  0.6463  0.1698
  478MOL0     C64409   5.235   6.964   6.061 -0.1339 -0.2159  0.2445
  478MOL0     C64410   5.116   6.985   6.164 -0.2579  0.1158 -0.1010
  478MOL0     C64411   5.158   7.032   6.306  0.0346  0.8241  0.0330
  478MOL0     N64412   5.039   7.034   6.387  0.1515  0.4130  0.5200
  478MOL0     C64413   4.932   7.115   6.381  0.4443 -0.3180 -1.3296
  478MOL0     C64414   4.834   7.056   6.452 -0.9128  0.2133  0.4479
  478MOL0     C64415   4.697   7.109   6.472  0.6312  0.2051 -0.6718
  478MOL0     C64416   4.666   7.265   6.481 -0.1322  0.2169  0.0660
  478MOL0     C64417   4.644   7.337   6.349 -0.7636 -0.3941  1.0235
  478MOL0     C64418   4.621   7.495   6.359  0.4311 -0.0013  0.2829
  478MOL0     O64419   4.529   7.526   6.458  0.1079  0.1540  0.1980
  478MOL0     C64420   4.392   7.509   6.430 -0.8465 -0.0038  0.0647
  478MOL0     C64421   4.308   7.498   6.542  0.8192  1.2855 -0.0350
  478MOL0     C64422   4.168   7.497   6.534 -0.7873  0.3287  0.8701
  478MOL0     C64423   4.085   7.491   6.660 -0.3196  0.2311  0.3120
  478MOL0     C64424   4.101   7.502   6.406 -0.2130 -0.0777  0.5297
  478MOL0     C64425   3.959   7.483   6.400 -0.1457  0.6161 -0.0838
  478MOL0     O64426   3.887   7.602   6.413 -0.0175  0.0503 -0.3430
  478MOL0     C64427   3.750   7.589   6.422 -0.2688 -0.0944  0.0600
  478MOL0     C64428   3.692   7.504   6.512  1.2323 -0.6317  0.1533
  478MOL0     C64429   3.552   7.491   6.516  0.0427 -0.3745  1.4437
  478MOL0     C64430   3.476   7.563   6.428  0.4971 -0.3821  0.1980
  478MOL0     O64431   3.335   7.561   6.418 -0.4268  0.2916  0.0469
  478MOL0     C64432   3.269   7.434   6.432 -0.7540  0.5436 -1.0126
  478MOL0     C64433   3.127   7.466   6.397 -0.1467  0.2483 -0.6319
  478MOL0     C64434   3.054   7.580   6.484  0.4904 -0.0040 -0.0891
  478MOL0     C64435   2.910   7.591   6.433  0.4404 -0.3004  0.3552
  478MOL0     C64436   2.830   7.680   6.526  0.6200  0.4648 -0.0241
  478MOL0     C64437   2.679   7.682   6.486  0.3417 -0.4607  0.4836
  478MOL0     C64438   2.609   7.808   6.537 -0.1335  1.0570  0.2196
  478MOL0     C64439   2.460   7.785   6.522 -0.1811  0.2260  0.5227
  478MOL0    Cl64440   2.371   7.919   6.596  0.4755 -0.1935 -0.6516
  478MOL0     C64441   3.526   7.658   6.340  0.0120  1.1793  0.0617
  478MOL0     C64442   3.669   7.669   6.336  0.0842 -0.1069 -1.0462
  478MOL0     O64443   3.916   7.376   6.378 -0.4750 -0.6955 -1.1953
  478MOL0     C64444   4.182   7.507   6.283 -0.2400 -0.5697  0.1509
  478MOL0     C64445   4.321   7.513   6.301 -0.4250 -0.3553  0.0922
  478MOL0     N64446   4.882   6.944   6.502 -0.1480  0.5980 -0.4266
  478MOL0     N64447   5.006   6.933   6.468  0.3299 -0.0561  0.2686
  478MOL0     C64448   6.030   6.916   6.153  0.3002  0.5878  0.2086
  478MOL0     C64449   6.158   6.968   6.166  0.1790 -0.1356 -1.1486
  478MOL0     C64450   6.576   7.136   6.007  0.6564 -0.2862 -0.7510
  478MOL0     C64451   6.657   7.189   5.903  0.7800  0.1066 -0.5482
  478MOL0     C64452   6.796   7.206   5.919 -0.3644  0.1240  0.2795
  478MOL0     C64453   6.859   7.172   6.037 -0.5315 -0.2907  0.0177
  478MOL0     O64454   6.996   7.195   6.047 -0.1483 -0.5769 -0.3597
  478MOL0     C64455   7.065   7.176   6.171  0.1417  0.5054  0.0292
  478MOL0     C64456   7.074   7.295   6.275 -0.2956  0.5926  0.0215
  478MOL0     C64457   7.136   7.421   6.211 -0.0732  0.3368  0.0242
  478MOL0     C64458   7.140   7.545   6.296  0.5001  0.3077 -0.6562
  478MOL0     C64459   7.240   7.533   6.406  0.1771 -0.5125 -0.6340
  478MOL0     C64460   7.316   7.546   6.497  0.1552  0.6583  0.3089
  478MOL0     C64461   6.776   7.117   6.137 -0.6361 -0.3672  0.5244
  478MOL0     C64462   6.642   7.097   6.122  1.3568 -0.5225  0.1160
  478MOL0     H64463   6.165   7.131   5.877  2.3104 -0.4578  0.9942
  478MOL0     H64464   5.929   7.053   5.872  2.9736 -0.2384 -1.8498
  478MOL0     H64465   5.716   6.971   5.880  1.3492 -0.2933 -3.3185
  478MOL0     H64466   5.838   6.854   5.837  2.8061  0.1825  3.3365
  478MOL0     H64467   5.622   6.759   5.814 -1.9029 -3.3349  1.0593
  478MOL0     H64468   5.737   6.679   5.922  0.6410  0.7950  1.0065
  478MOL0     H64469   5.524   6.667   6.037  0.5764 -1.1342 -2.2597
  478MOL0     H64470   5.613   6.787   6.119  0.6825 -1.2741 -0.5684
  478MOL0     H64471   5.497   6.976   5.973  1.9790 -0.8504 -2.6017
  478MOL0     H64472   5.399   6.846   5.904  0.2737  1.5076  0.3797
  478MOL0     H64473   5.335   6.778   6.126  0.2046 -1.0267 -5.1035
  478MOL0     H64474   5.403   6.933   6.191  2.0146 -1.1309 -0.3052
  478MOL0     H64475   5.275   7.063   6.037 -1.2909  0.9022  2.6106
  478MOL0     H64476   5.197   6.924   5.967 -0.1849 -0.4891  0.3803
  478MOL0     H64477   5.035   7.043   6.118  1.4749  1.2476 -1.9226
  478MOL0     H64478   5.072   6.886   6.176 -0.4859 -0.3305 -3.4538
  478MOL0     H64479   5.213   7.126   6.299 -1.1107  1.5010 -0.2254
  478MOL0     H64480   5.239   6.963   6.330 -0.4699 -0.4671 -1.7410
  478MOL0     H64481   4.920   7.203   6.319  0.0545  0.9313  0.4292
  478MOL0     H64482   4.632   7.070   6.393  1.0757 -0.8307 -0.5472
  478MOL0     H64483   4.658   7.066   6.565  1.2124  2.7512  0.8503
  478MOL0     H64484   4.755   7.315   6.521 -0.4977  2.0459 -1.2977
  478MOL0     H64485   4.579   7.276   6.546  0.9017 -1.8956  1.9242
  478MOL0     H64486   4.558   7.292   6.298 -0.5192 -0.3175  0.5307
  478MOL0     H64487   4.724   7.317   6.277  0.4615 -0.8666  2.4924
  478MOL0     H64488   4.596   7.533   6.260 -0.2233 -0.7561  0.1553
  478MOL0     H64489   4.724   7.521   6.389  1.1517 -3.1981  0.9836
  478MOL0     H64490   4.349   7.511   6.642 -2.5729  2.0831  1.3829
  478MOL0     H64491   4.003   7.564   6.662  0.5396  1.2174  0.2893
  478MOL0     H64492   4.031   7.396   6.662 -1.5505  0.9090  2.0837
  478MOL0     H64493   4.148   7.499   6.749 -1.2602  1.3317  0.9105
  478MOL0     H64494   3.741   7.455   6.596 -1.2308  0.1885  2.2382
  478MOL0     H64495   3.506   7.419   6.582 -1.0208 -2.6533 -1.5249
  478MOL0     H64496   3.318   7.351   6.382  0.4782  0.4390  0.3023
  478MOL0     H64497   3.263   7.410   6.539 -1.4620  0.7658 -0.9974
  478MOL0     H64498   3.123   7.496   6.291 -0.1413  0.3792 -0.5957
  478MOL0     H64499   3.072   7.373   6.411  1.0029 -0.2810  0.6207
  478MOL0     H64500   3.107   7.675   6.471 -0.5129  0.7719  1.2675
  478MOL0     H64501   3.053   7.546   6.588 -2.9145 -2.9887 -0.8661
  478MOL0     H64502   2.920   7.635   6.334  1.1019  1.1808  1.0595
  478MOL0     H64503   2.870   7.489   6.425  0.6859 -0.2674 -1.9345
  478MOL0     H64504   2.876   7.780   6.531  3.3991 -0.7606  1.6090
  478MOL0     H64505   2.852   7.660   6.631  0.1446 -0.0972 -0.0298
  478MOL0     H64506   2.668   7.686   6.377  1.6379  0.7895  0.3617
  478MOL0     H64507   2.627   7.594   6.523 -1.7258  0.4060 -0.2189
  478MOL0     H64508   2.643   7.894   6.479  1.3141 -0.1605 -0.8311
  478MOL0     H64509   2.640   7.826   6.640 -0.2946  0.4765  0.3735
  478MOL0     H64510   2.423   7.693   6.569 -2.0416  0.7419  0.1437
  478MOL0     H64511   2.427   7.780   6.418 -2.1416  0.5777  1.0858
  478MOL0     H64512   3.469   7.720   6.270 -1.4331  1.3101  1.3075
  478MOL0     H64513   3.724   7.721   6.258  2.7943 -0.0478  0.7635
  478MOL0     H64514   4.125   7.501   6.191 -0.2031 -0.4737  0.1224
  478MOL0     H64515   4.376   7.519   6.207 -0.0025 -1.5400  0.2486
  478MOL0     H64516   5.994   6.838   6.219 -2.5092 -0.2685 -2.1328
  478MOL0     H64517   6.210   6.935   6.256 -3.4547  1.8102  1.9742
  478MOL0     H64518   6.606   7.212   5.809  0.2378 -3.7625 -1.3689
  478MOL0     H64519   6.858   7.233   5.834 -0.1053 -2.0760 -0.3078
  478MOL0     H64520   7.034   7.080   6.213 -1.4549  0.1447 -1.8290
  478MOL0     H64521   7.168   7.156   6.140 -0.6099 -1.9888 -1.1556
  478MOL0     H64522   7.137   7.261   6.357  0.3852  1.5275 -0.0851
  478MOL0     H64523   6.974   7.306   6.318 -0.0256 -1.2774  1.2173
  478MOL0     H64524   7.074   7.437   6.123 -1.7539  1.0938  1.2873
  478MOL0     H64525   7.237   7.400   6.174 -0.8683 -1.7453 -1.0914
  478MOL0     H64526   7.043   7.563   6.345  0.0409 -2.9008 -0.1896
  478MOL0     H64527   7.169   7.623   6.225 -0.9435  0.3560 -1.2330
  478MOL0     H64528   7.381   7.554   6.581  2.9093 -1.0260 -1.5190
  478MOL0     H64529   6.829   7.091   6.228 -0.0945 -1.0893  0.0188
  478MOL0     H64530   6.586   7.053   6.204  1.1790  0.7693  0.7219
  479MOL0     O64531   9.300   5.388   2.300  0.2266 -0.5513  0.0028
  479MOL0     C64532   9.284   5.288   2.366  0.5139  0.1351 -0.2628
  479MOL0     O64533   9.169   5.254   2.431  0.0911 -0.0294  0.1513
  479MOL0     C64534   9.084   5.359   2.457  0.1383  0.1100 -0.3655
  479MOL0     C64535   8.963   5.385   2.392  0.3972 -0.0435  0.3607
  479MOL0     C64536   8.864   5.475   2.437 -0.2312  0.1708  1.0296
  479MOL0     C64537   8.893   5.553   2.541  0.2372 -0.2991  0.3126
  479MOL0     O64538   8.804   5.642   2.590  0.6429 -0.9290 -0.3268
  479MOL0     C64539   8.689   5.586   2.644 -0.1403  0.6007  0.7928
  479MOL0     C64540   8.567   5.636   2.571 -0.1298  0.4030 -0.1833
  479MOL0     C64541   8.451   5.600   2.658  0.1456 -0.4309  1.0409
  479MOL0     C64542   8.318   5.623   2.586 -0.0438  0.0616  0.0114
  479MOL0     C64543   8.188   5.636   2.680  0.1194 -0.2183  0.6467
  479MOL0     C64544   8.078   5.695   2.615  0.4832  0.0321 -0.6495
  479MOL0     C64545   7.999   5.591   2.524  0.1279  0.1333  0.1931
  479MOL0     C64546   7.855   5.636   2.492 -0.6288  1.1094  0.8755
  479MOL0     N64547   7.767   5.586   2.602  0.1508 -0.5701  0.3576
  479MOL0     C64548   7.679   5.474   2.591  0.5618 -0.0377 -0.5298
  479MOL0     C64549   7.614   5.475   2.716 -0.2679 -0.1810 -0.1477
  479MOL0     C64550   7.496   5.387   2.747 -0.6992  1.3831  0.0647
  479MOL0     C64551   7.364   5.444   2.698 -0.4989 -0.0403 -1.1340
  479MOL0     C64552   7.239   5.383   2.760  0.3675 -0.1357 -0.0655
  479MOL0     C64553   7.186   5.275   2.666  0.4376  0.7436 -1.0097
  479MOL0     O64554   7.079   5.195   2.723 -0.7614 -0.8310  0.3092
  479MOL0     C64555   6.956   5.247   2.736  0.4719 -0.1231  0.4369
  479MOL0     C64556   6.873   5.160   2.810 -0.4365 -0.2169 -0.7143
  479MOL0     C64557   6.745   5.201   2.834  0.1100 -0.7028 -0.2980
  479MOL0     C64558   6.662   5.107   2.907  0.8692  0.2749 -0.2921
  479MOL0     C64559   6.700   5.324   2.787  0.5000  0.1112 -0.3681
  479MOL0     C64560   6.553   5.375   2.817  0.0423 -0.0489 -0.1659
  479MOL0     O64561   6.496   5.337   2.938 -0.1156 -0.3210 -0.0213
  479MOL0     C64562   6.362   5.352   2.973  0.2800  0.1962 -0.1264
  479MOL0     C64563   6.325   5.300   3.099  0.2089 -0.3771 -0.2535
  479MOL0     C64564   6.188   5.325   3.145 -0.2001  0.1675  0.5374
  479MOL0     C64565   6.093   5.372   3.061  0.3925 -0.5812  0.5450
  479MOL0     O64566   5.958   5.372   3.096 -0.2329  0.3270  0.3391
  479MOL0     C64567   5.860   5.351   2.991  0.5518 -0.1112 -0.0602
  479MOL0     C64568   5.734   5.292   3.054  0.0870 -0.2831 -0.5089
  479MOL0     C64569   5.624   5.276   2.963 -0.2354 -0.2193  0.4058
  479MOL0     C64570   5.505   5.195   3.022  1.1078  0.1304 -0.0754
  479MOL0     C64571   5.392   5.151   2.923  0.2134 -1.0274 -0.3292
  479MOL0     C64572   5.269   5.243   2.944  0.2750  0.2106 -0.2430
  479MOL0     C64573   5.157   5.177   2.857 -0.6835  0.1983 -0.6894
  479MOL0     C64574   5.058   5.093   2.944 -1.1975 -0.3957  0.1392
  479MOL0    Cl64575   4.976   5.211   3.056 -0.0245 -0.2426  0.4717
  479MOL0     C64576   6.125   5.417   2.932 -0.5385  0.7391 -0.5130
  479MOL0     C64577   6.264   5.409   2.891 -0.6042  0.0152  0.4334
  479MOL0     O64578   6.508   5.461   2.737  0.2170  0.1445 -0.1331
  479MOL0     C64579   6.782   5.407   2.721 -0.5038 -0.1606  0.2260
  479MOL0     C64580   6.911   5.372   2.693  0.4959 -0.3962  0.4103
  479MOL0     N64581   7.669   5.587   2.789 -0.1781  0.3272 -0.3272
  479MOL0     N64582   7.753   5.649   2.723 -0.6905 -0.4541  0.0394
  479MOL0     C64583   9.009   5.536   2.610 -0.9570 -1.0932  0.2772
  479MOL0     C64584   9.107   5.441   2.567 -0.7958  0.7482  0.1307
  479MOL0     C64585   9.400   5.199   2.381  0.0771 -1.0365 -0.0788
  479MOL0     C64586   9.404   5.113   2.497 -0.5126  0.3702  0.3804
  479MOL0     C64587   9.507   5.023   2.503 -0.2172  0.3298 -0.7633
  479MOL0     C64588   9.607   5.009   2.399  0.1743  0.0924 -0.2800
  479MOL0     O64589   9.715   4.924   2.409  0.3851 -0.5338  0.4585
  479MOL0     C64590   9.738   4.841   2.520  0.3242 -0.2539  0.3761
  479MOL0     C64591   9.865   4.749   2.484  0.2805 -0.3059  0.6787
  479MOL0     C64592  10.002   4.839   2.488  0.2311  1.3609  0.1476
  479MOL0     C64593  10.135   4.761   2.479 -0.0663  0.1918  0.7117
  479MOL0     C64594  10.144   4.669   2.363  0.3574  0.2775  0.1248
  479MOL0     C64595  10.157   4.588   2.274 -0.1204 -0.3039  0.1955
  479MOL0     C64596   9.602   5.100   2.289 -0.2667  0.4312  0.0119
  479MOL0     C64597   9.501   5.200   2.285 -0.1992  0.1989 -0.0971
  479MOL0     H64598   8.947   5.334   2.297  2.9864  1.9357 -1.2745
  479MOL0     H64599   8.772   5.492   2.383 -0.0238  2.3948  1.2746
  479MOL0     H64600   8.702   5.478   2.652 -1.4054  0.1858 -1.7943
  479MOL0     H64601   8.687   5.619   2.748  1.1917 -2.6669  1.9749
  479MOL0     H64602   8.583   5.744   2.566 -0.5193  0.4918  0.4136
  479MOL0     H64603   8.569   5.593   2.470  0.2415 -2.3213  0.8986
  479MOL0     H64604   8.449   5.497   2.693 -0.8012 -0.2930  1.4062
  479MOL0     H64605   8.450   5.665   2.746  1.0082  0.8030  0.1676
  479MOL0     H64606   8.331   5.711   2.522 -2.0361  0.3631 -0.0486
  479MOL0     H64607   8.292   5.533   2.529  2.6230 -1.1617  0.5878
  479MOL0     H64608   8.167   5.535   2.716  1.6712 -0.6822  0.3364
  479MOL0     H64609   8.214   5.708   2.758 -1.0016  2.3540 -1.2151
  479MOL0     H64610   8.003   5.731   2.686 -2.9090  0.4595 -4.1112
  479MOL0     H64611   8.109   5.769   2.542 -1.6154  1.7548  0.0957
  479MOL0     H64612   8.056   5.582   2.431 -0.7054 -3.4900 -0.1206
  479MOL0     H64613   7.994   5.489   2.565  0.1438  1.2330  3.2030
  479MOL0     H64614   7.819   5.590   2.400  0.5396 -1.4351  1.5898
  479MOL0     H64615   7.863   5.744   2.478  2.5452  0.8096 -0.3528
  479MOL0     H64616   7.656   5.402   2.513 -0.9723  0.6698 -0.7659
  479MOL0     H64617   7.510   5.288   2.703  1.7099  0.4031  2.7151
  479MOL0     H64618   7.482   5.369   2.854 -3.5444  3.4348  0.1481
  479MOL0     H64619   7.352   5.463   2.591 -2.5413  1.3764 -0.7186
  479MOL0     H64620   7.365   5.543   2.744 -2.6593 -1.3430  2.1089
  479MOL0     H64621   7.166   5.464   2.768 -1.9277 -2.1769  1.0031
  479MOL0     H64622   7.254   5.347   2.863 -1.1529  0.5546  0.4263
  479MOL0     H64623   7.269   5.204   2.661  1.7287  2.0312  0.8612
  479MOL0     H64624   7.168   5.307   2.563 -2.0343  1.6051 -0.3735
  479MOL0     H64625   6.923   5.068   2.837 -2.6444 -1.5363 -0.8923
  479MOL0     H64626   6.561   5.095   2.866  0.8024 -1.0006  0.2142
  479MOL0     H64627   6.693   5.003   2.914  0.6296  0.3311  2.6834
  479MOL0     H64628   6.657   5.136   3.012  3.0567 -0.1465 -0.0369
  479MOL0     H64629   6.392   5.260   3.175 -1.3306 -0.0004  1.3706
  479MOL0     H64630   6.167   5.291   3.246  0.5482  1.7571  1.2522
  479MOL0     H64631   5.829   5.443   2.941 -3.3502 -0.5962  1.1704
  479MOL0     H64632   5.899   5.275   2.923  0.3881  0.1065 -0.3996
  479MOL0     H64633   5.764   5.196   3.096 -1.4318 -1.7097 -2.4808
  479MOL0     H64634   5.713   5.370   3.128  3.1464 -0.1550  0.3395
  479MOL0     H64635   5.649   5.250   2.860  2.6100 -0.7568  1.1484
  479MOL0     H64636   5.584   5.377   2.959  0.0193 -0.1072  0.6561
  479MOL0     H64637   5.542   5.099   3.059 -1.8010 -0.0067  2.9968
  479MOL0     H64638   5.464   5.245   3.110  0.9533  0.6884 -0.4577
  479MOL0     H64639   5.356   5.050   2.941  0.0723 -0.5520  2.4133
  479MOL0     H64640   5.435   5.169   2.824  2.1061 -2.8524  0.0894
  479MOL0     H64641   5.240   5.239   3.050  2.1803 -3.1798  0.2897
  479MOL0     H64642   5.293   5.346   2.916  2.7027 -0.0418  0.6786
  479MOL0     H64643   5.210   5.119   2.781 -0.6145 -1.4477  0.5629
  479MOL0     H64644   5.101   5.244   2.790  0.2275 -0.5045 -2.2171
  479MOL0     H64645   5.108   5.016   3.003  0.6046  1.5274  1.2615
  479MOL0     H64646   4.978   5.049   2.883 -0.1268  0.0755 -1.6909
  479MOL0     H64647   6.046   5.459   2.870 -0.6204  2.1716  0.5179
  479MOL0     H64648   6.286   5.456   2.795  1.8601 -0.6764  0.5993
  479MOL0     H64649   6.767   5.510   2.688  0.7754  0.7680  2.3262
  479MOL0     H64650   6.967   5.451   2.645  0.1891  0.6411  1.6858
  479MOL0     H64651   9.034   5.599   2.694  0.8053  2.5863 -2.7336
  479MOL0     H64652   9.193   5.423   2.630 -0.3148 -1.4293 -1.0328
  479MOL0     H64653   9.327   5.118   2.572 -1.1234 -1.9709 -0.0219
  479MOL0     H64654   9.513   4.948   2.581 -0.9089  0.3978 -0.6452
  479MOL0     H64655   9.763   4.901   2.608  1.2632  1.7055 -1.1394
  479MOL0     H64656   9.648   4.782   2.541 -0.3416  0.5714 -0.0806
  479MOL0     H64657   9.837   4.709   2.386  0.5800  2.7620 -0.7829
  479MOL0     H64658   9.871   4.669   2.558  1.2682 -1.8186 -0.9604
  479MOL0     H64659   9.993   4.891   2.584 -2.3340  3.2490 -1.0470
  479MOL0     H64660   9.992   4.913   2.409 -0.4155  0.0328 -1.0677
  479MOL0     H64661  10.155   4.704   2.570  1.8194 -1.1701 -0.4766
  479MOL0     H64662  10.220   4.831   2.477  1.5273 -1.6198 -2.4518
  479MOL0     H64663  10.170   4.519   2.193  1.1798  2.7299 -2.3827
  479MOL0     H64664   9.668   5.090   2.203 -0.7729  1.7000 -0.5587
  479MOL0     H64665   9.494   5.269   2.201  2.9840 -1.7179 -2.1717
  480MOL0     O64666   7.076   2.969   8.410 -0.1868  0.7000 -0.0322
  480MOL0     C64667   7.150   3.066   8.399 -0.0947  0.0845  0.6227
  480MOL0     O64668   7.185   3.161   8.497 -0.1840  0.6865  0.3936
  480MOL0     C64669   7.149   3.128   8.625 -0.3089  0.0403 -0.6469
  480MOL0     C64670   7.194   3.004   8.685  0.8649  0.8648 -0.0135
  480MOL0     C64671   7.147   2.969   8.819 -0.3142 -0.8006 -0.2247
  480MOL0     C64672   7.080   3.064   8.900  0.7352  0.3958  0.5645
  480MOL0     O64673   7.024   3.049   9.028 -0.5175 -0.0834  0.1744
  480MOL0     C64674   6.981   2.922   9.067 -0.6203 -0.0377  0.4782
  480MOL0     C64675   6.866   2.923   9.170  0.7032 -0.1069  0.3612
  480MOL0     C64676   6.879   3.019   9.286 -0.1647 -0.1996  0.4493
  480MOL0     C64677   6.769   2.987   9.398 -0.5229  0.2990  0.1078
  480MOL0     C64678   6.619   3.002   9.346 -0.1995  0.9607  0.3032
  480MOL0     C64679   6.573   3.135   9.292  0.3360 -1.1110  0.4961
  480MOL0     C64680   6.422   3.142   9.252  0.4460 -0.5128 -0.9843
  480MOL0     C64681   6.349   3.266   9.307 -1.0780  0.2105  0.7400
  480MOL0     N64682   6.205   3.261   9.303 -0.2596 -0.3056 -0.4117
  480MOL0     C64683   6.119   3.362   9.343  0.3097  0.2065 -0.3715
  480MOL0     C64684   6.001   3.318   9.300  0.6166 -1.0894  0.0711
  480MOL0     C64685   5.867   3.385   9.314  0.2854 -0.1120  0.6494
  480MOL0     C64686   5.862   3.513   9.222 -0.1701  0.1857 -0.5457
  480MOL0     C64687   5.721   3.586   9.240 -0.0582  0.0079 -1.1692
  480MOL0     C64688   5.696   3.645   9.389  0.1732 -0.0147 -0.5466
  480MOL0     O64689   5.569   3.599   9.426  0.0082  0.8730 -0.3021
  480MOL0     C64690   5.446   3.662   9.381 -0.5150 -0.2836 -0.2143
  480MOL0     C64691   5.431   3.788   9.311 -0.2789  0.6834 -0.7168
  480MOL0     C64692   5.315   3.839   9.263  0.2894 -0.0684  0.2596
  480MOL0     C64693   5.320   3.971   9.185 -0.3177  0.1341 -0.5470
  480MOL0     C64694   5.195   3.773   9.297 -0.2588  0.3488 -0.3338
  480MOL0     C64695   5.068   3.805   9.241 -0.0301 -0.3154  0.2522
  480MOL0     O64696   4.961   3.789   9.325 -1.2834  0.0132 -0.3317
  480MOL0     C64697   4.836   3.818   9.277 -0.8622 -0.8533 -0.0225
  480MOL0     C64698   4.760   3.938   9.294 -0.6907 -0.1143  0.4218
  480MOL0     C64699   4.632   3.951   9.238  0.0867 -0.1061  0.1037
  480MOL0     C64700   4.579   3.853   9.156 -0.5637  0.3061  0.7028
  480MOL0     O64701   4.469   3.871   9.077  0.4150 -0.2855 -0.4123
  480MOL0     C64702   4.346   3.891   9.158  0.8961  0.3057  0.2187
  480MOL0     C64703   4.230   3.879   9.058  0.4132  0.4880 -0.1542
  480MOL0     C64704   4.088   3.862   9.126  0.3459  0.5030  0.0633
  480MOL0     C64705   3.978   3.822   9.030  0.3055  0.4828 -0.5208
  480MOL0     C64706   3.841   3.806   9.107 -0.3293 -0.3345 -0.1104
  480MOL0     C64707   3.715   3.803   9.019 -0.0918 -0.6074 -0.4162
  480MOL0     C64708   3.590   3.849   9.104  0.0764  0.1119 -0.3496
  480MOL0     C64709   3.467   3.851   9.023  0.4215 -0.0997  0.0180
  480MOL0    Cl64710   3.429   4.018   8.951  0.4459  0.0819 -0.2969
  480MOL0     C64711   4.650   3.734   9.139 -0.0880  0.2686 -0.2629
  480MOL0     C64712   4.779   3.720   9.201  0.1867 -0.8358 -0.4067
  480MOL0     O64713   5.065   3.839   9.121  0.5303 -0.7063  0.3978
  480MOL0     C64714   5.213   3.653   9.369  0.2177  0.1218 -0.2976
  480MOL0     C64715   5.330   3.598   9.411 -0.2075  0.3776  0.2649
  480MOL0     N64716   6.009   3.193   9.249 -0.1762  0.2326  0.1052
  480MOL0     N64717   6.133   3.159   9.242 -0.3316 -0.7322 -0.5831
  480MOL0     C64718   7.065   3.191   8.836 -0.1532  0.2170 -0.5936
  480MOL0     C64719   7.098   3.223   8.701  0.4435  0.5389 -0.1757
  480MOL0     C64720   7.213   3.090   8.264 -0.7839 -0.2602 -0.0734
  480MOL0     C64721   7.309   3.188   8.248  0.7675  0.0834 -1.0387
  480MOL0     C64722   7.370   3.204   8.122  0.2363  0.3283 -0.8521
  480MOL0     C64723   7.342   3.118   8.019 -0.6482 -0.4452  0.9593
  480MOL0     O64724   7.411   3.124   7.904 -0.2612 -0.4841  0.1490
  480MOL0     C64725   7.342   3.142   7.772  0.1373  1.0552  0.6941
  480MOL0     C64726   7.286   3.282   7.763 -0.3930 -0.5150 -0.3024
  480MOL0     C64727   7.372   3.412   7.753 -1.0375  0.1384  0.8161
  480MOL0     C64728   7.477   3.394   7.643  0.8345 -0.1394 -0.5695
  480MOL0     C64729   7.555   3.513   7.630 -0.0909 -0.5015  1.2551
  480MOL0     C64730   7.621   3.608   7.637  0.4053 -0.3240 -0.7727
  480MOL0     C64731   7.229   3.028   8.034 -0.0873  0.3722  1.4973
  480MOL0     C64732   7.161   3.016   8.155  0.2136 -0.3683  0.7777
  480MOL0     H64733   7.250   2.929   8.630 -1.6735 -1.4083  0.3089
  480MOL0     H64734   7.185   2.882   8.872  2.6705  2.1889  3.0547
  480MOL0     H64735   6.935   2.865   8.985  3.0571 -1.8801 -0.4997
  480MOL0     H64736   7.067   2.864   9.100  1.8965  1.8604 -2.2622
  480MOL0     H64737   6.777   2.952   9.112  1.2920  0.9553 -0.0541
  480MOL0     H64738   6.849   2.823   9.211 -1.3710  1.2061  3.0378
  480MOL0     H64739   6.981   3.004   9.323 -0.7290 -2.8333  1.1394
  480MOL0     H64740   6.862   3.123   9.258 -0.5371  0.4870  2.9280
  480MOL0     H64741   6.778   2.884   9.434 -1.3100 -0.1945 -1.0394
  480MOL0     H64742   6.773   3.046   9.490  0.8500 -0.7404  0.7550
  480MOL0     H64743   6.614   2.928   9.266  3.3806  0.2004  0.5885
  480MOL0     H64744   6.553   2.970   9.426 -0.6615 -0.1016 -0.4847
  480MOL0     H64745   6.600   3.207   9.369 -0.2931 -1.5599  1.1449
  480MOL0     H64746   6.639   3.164   9.209 -1.4003 -0.1560 -0.6284
  480MOL0     H64747   6.417   3.139   9.142  0.6393  0.3052 -1.0226
  480MOL0     H64748   6.377   3.049   9.288  1.2291 -0.0796  1.2155
  480MOL0     H64749   6.389   3.355   9.258 -2.3940  0.2708 -0.2515
  480MOL0     H64750   6.379   3.270   9.412  4.1266 -3.2047 -0.2028
  480MOL0     H64751   6.132   3.458   9.391 -0.7036 -1.2072  3.0103
  480MOL0     H64752   5.797   3.308   9.282  2.8295 -2.6066  0.6654
  480MOL0     H64753   5.855   3.408   9.420  0.9507  1.9158  0.3433
  480MOL0     H64754   5.890   3.467   9.127 -0.0192 -1.7502  0.3868
  480MOL0     H64755   5.945   3.582   9.241  1.3752 -1.5252 -0.8183
  480MOL0     H64756   5.644   3.516   9.205 -0.2797  0.8521 -2.4042
  480MOL0     H64757   5.706   3.676   9.179  1.9799 -0.1162 -1.9099
  480MOL0     H64758   5.706   3.753   9.402 -0.0144  0.0537 -0.9589
  480MOL0     H64759   5.773   3.609   9.458 -0.6056  0.7908  0.7834
  480MOL0     H64760   5.525   3.834   9.281 -0.5997  1.6476 -0.2808
  480MOL0     H64761   5.333   3.963   9.077  1.7033 -2.4519 -0.2118
  480MOL0     H64762   5.225   4.022   9.203 -0.1987  0.1178  0.1632
  480MOL0     H64763   5.402   4.034   9.220  0.7425 -0.7697 -1.3662
  480MOL0     H64764   4.795   4.022   9.353 -0.5990 -0.1640  0.4370
  480MOL0     H64765   4.580   4.045   9.259  1.0058 -0.1627  3.0144
  480MOL0     H64766   4.331   3.812   9.232 -2.3451  2.2433  1.9012
  480MOL0     H64767   4.349   3.988   9.210  0.4663  0.3406  0.1768
  480MOL0     H64768   4.243   3.947   8.974 -2.2116  0.6339 -0.5264
  480MOL0     H64769   4.245   3.777   9.022 -3.9895 -0.4314 -0.0239
  480MOL0     H64770   4.053   3.958   9.163 -0.9432  0.1745 -0.2765
  480MOL0     H64771   4.094   3.793   9.211 -1.1454  1.9236  1.3939
  480MOL0     H64772   3.969   3.898   8.951  1.2784  0.5280 -0.6031
  480MOL0     H64773   4.015   3.732   8.981  1.4193 -0.3467  1.7284
  480MOL0     H64774   3.844   3.900   9.164  1.3237 -0.2640 -0.2627
  480MOL0     H64775   3.851   3.727   9.183 -0.7020  0.0830  0.3836
  480MOL0     H64776   3.718   3.878   8.940 -4.0900 -0.2337 -0.4282
  480MOL0     H64777   3.713   3.701   8.980  0.7893 -0.6766 -0.2854
  480MOL0     H64778   3.615   3.946   9.148  2.3771 -0.5608 -0.0544
  480MOL0     H64779   3.569   3.772   9.179 -2.0269 -0.2061 -1.1905
  480MOL0     H64780   3.382   3.822   9.085 -1.6464 -1.9325 -3.3577
  480MOL0     H64781   3.467   3.770   8.950 -0.9238 -1.6897  1.6771
  480MOL0     H64782   4.628   3.652   9.071  0.3915 -1.8990  2.0259
  480MOL0     H64783   4.841   3.634   9.179  0.2734 -0.5171 -1.4673
  480MOL0     H64784   5.115   3.614   9.396 -0.0596 -0.7053 -2.3452
  480MOL0     H64785   5.328   3.511   9.477 -0.5881  2.6112  3.3999
  480MOL0     H64786   7.014   3.268   8.892  0.6551 -0.1984  0.7552
  480MOL0     H64787   7.074   3.324   8.669  1.4585  1.0730  0.6937
  480MOL0     H64788   7.336   3.249   8.334 -0.3263  0.0234 -0.6246
  480MOL0     H64789   7.446   3.281   8.111  0.6208 -0.2140 -2.1345
  480MOL0     H64790   7.416   3.127   7.694 -2.1999 -0.6275 -1.3610
  480MOL0     H64791   7.259   3.073   7.755  0.0930  1.5591 -1.4081
  480MOL0     H64792   7.221   3.301   7.849  1.6242  2.2465  0.7732
  480MOL0     H64793   7.214   3.287   7.681 -2.2220 -0.8719  1.2295
  480MOL0     H64794   7.413   3.439   7.850 -0.1326  2.1241 -0.0725
  480MOL0     H64795   7.303   3.492   7.724  0.1449  0.6583 -0.7078
  480MOL0     H64796   7.418   3.370   7.554  0.3390 -2.0806  0.2199
  480MOL0     H64797   7.540   3.310   7.675 -0.4147 -0.3781  1.4451
  480MOL0     H64798   7.676   3.697   7.659  0.5428 -0.7741  0.8264
  480MOL0     H64799   7.190   2.980   7.944 -0.6401 -0.3263  2.0959
  480MOL0     H64800   7.071   2.956   8.167  1.3281 -2.3250 -0.1880
  481MOL0     O64801   2.781   8.624   1.743  0.1445 -0.0900 -0.3574
  481MOL0     C64802   2.872   8.577   1.679 -0.9046 -0.7421  0.4826
  481MOL0     O64803   2.865   8.455   1.613 -0.2340  0.5211  0.0052
  481MOL0     C64804   2.764   8.369   1.639 -0.0578 -0.3438  0.7119
  481MOL0     C64805   2.713   8.345   1.761  0.1354 -0.0234  0.1562
  481MOL0     C64806   2.603   8.262   1.786  0.5537 -0.3743 -0.1267
  481MOL0     C64807   2.550   8.187   1.676  1.0988  1.1166 -0.0800
  481MOL0     O64808   2.443   8.120   1.704 -0.2978  0.2277  0.2282
  481MOL0     C64809   2.385   8.041   1.604 -0.2320  0.3093  0.7353
  481MOL0     C64810   2.239   7.995   1.644 -0.2731 -0.5352 -0.0417
  481MOL0     C64811   2.244   7.914   1.779  0.4159  0.2239 -0.1370
  481MOL0     C64812   2.108   7.863   1.822  0.3331 -0.9494  0.0030
  481MOL0     C64813   2.107   7.823   1.971 -0.9614  0.4994  1.0372
  481MOL0     C64814   2.109   7.935   2.073  0.7193 -0.7573 -0.7309
  481MOL0     C64815   1.992   8.030   2.061  0.0245  0.0452 -0.3270
  481MOL0     C64816   1.994   8.138   2.170  0.2940  0.2872  0.0839
  481MOL0     N64817   2.114   8.221   2.155 -0.6642  0.4060  0.9435
  481MOL0     C64818   2.174   8.266   2.036  0.0571  0.4558 -0.1407
  481MOL0     C64819   2.279   8.345   2.084 -0.5020  0.6905 -0.1904
  481MOL0     C64820   2.370   8.427   1.988  1.0832  0.6444  0.5568
  481MOL0     C64821   2.329   8.572   1.992  0.4870  0.1074  0.4259
  481MOL0     C64822   2.423   8.656   1.903  0.5081 -0.4594 -0.5349
  481MOL0     C64823   2.375   8.803   1.893 -0.7059  0.9216  0.8415
  481MOL0     O64824   2.327   8.852   2.017 -0.0355 -0.3387  0.1515
  481MOL0     C64825   2.206   8.922   2.032  0.0287  0.7501  0.0289
  481MOL0     C64826   2.166   8.953   2.159 -0.0315  1.0025 -0.4823
  481MOL0     C64827   2.045   9.006   2.195 -0.3394  0.4270  0.3862
  481MOL0     C64828   2.007   9.005   2.344  0.6340  0.0850 -0.2417
  481MOL0     C64829   1.954   9.043   2.092 -0.3821  0.4218  0.3199
  481MOL0     C64830   1.814   9.076   2.106  0.5381  0.1806 -0.2232
  481MOL0     O64831   1.737   9.108   1.993  0.1806 -0.2714 -0.2722
  481MOL0     C64832   1.608   9.170   1.996 -1.0938 -0.1648 -0.0290
  481MOL0     C64833   1.566   9.246   2.102 -0.2618 -0.5680 -0.1874
  481MOL0     C64834   1.445   9.308   2.105 -0.3487 -0.9786 -0.9610
  481MOL0     C64835   1.358   9.295   1.996 -0.0313  0.2511 -0.2776
  481MOL0     O64836   1.235   9.355   2.005 -0.1008 -0.0884 -0.3375
  481MOL0     C64837   1.129   9.281   1.946 -0.0086 -0.9423  0.2015
  481MOL0     C64838   0.991   9.321   1.993 -0.0221  0.3062  0.6075
  481MOL0     C64839   0.881   9.305   1.889  0.3712  0.4855 -0.2162
  481MOL0     C64840   0.819   9.159   1.891  0.4750  0.1419 -0.1047
  481MOL0     C64841   0.731   9.128   1.770 -0.2435  0.1886 -0.6305
  481MOL0     C64842   0.587   9.179   1.772  0.2222  0.4361 -0.1935
  481MOL0     C64843   0.515   9.142   1.643 -1.5008  0.2750 -0.1484
  481MOL0     C64844   0.372   9.192   1.641  1.2860 -0.6001 -0.2178
  481MOL0    Cl64845   0.314   9.170   1.474  0.1186 -0.0408  0.6288
  481MOL0     C64846   1.405   9.232   1.886  0.8395 -0.7133 -0.3293
  481MOL0     C64847   1.525   9.170   1.883 -1.0616  0.1228 -1.0225
  481MOL0     O64848   1.772   9.073   2.217  0.3212 -0.5200 -0.6676
  481MOL0     C64849   1.993   9.022   1.956 -0.1321  0.0977  0.1634
  481MOL0     C64850   2.119   8.965   1.924  0.0278 -0.0954  0.2087
  481MOL0     N64851   2.283   8.337   2.221  0.0108  0.1501  0.2229
  481MOL0     N64852   2.181   8.280   2.263  0.0241  0.2414  0.1763
  481MOL0     C64853   2.608   8.199   1.549  0.3364  0.3840 -0.0680
  481MOL0     C64854   2.710   8.287   1.535  0.1699 -0.8586  0.2995
  481MOL0     C64855   2.994   8.653   1.658 -0.9426 -0.7317  0.3309
  481MOL0     C64856   3.018   8.768   1.733 -0.9793 -0.3306  0.0847
  481MOL0     C64857   3.122   8.844   1.710 -0.4524 -0.4457 -0.2623
  481MOL0     C64858   3.222   8.814   1.615 -0.2880 -0.6863  0.3595
  481MOL0     O64859   3.330   8.895   1.587  0.1506  0.0568  0.1728
  481MOL0     C64860   3.358   9.016   1.655  0.8737 -0.0820  0.4332
  481MOL0     C64861   3.501   9.057   1.602  0.1800 -0.0342 -0.9847
  481MOL0     C64862   3.505   9.064   1.451  0.4376 -0.1564  0.1765
  481MOL0     C64863   3.643   9.088   1.394 -0.6521 -0.3892 -0.1354
  481MOL0     C64864   3.648   9.130   1.251  0.1693  0.8718  0.5052
  481MOL0     C64865   3.658   9.164   1.137 -0.8574  0.2477  0.5073
  481MOL0     C64866   3.220   8.690   1.552 -0.9650 -0.6112  0.0877
  481MOL0     C64867   3.102   8.612   1.568  0.1056 -0.4404  0.4593
  481MOL0     H64868   2.744   8.395   1.852 -3.9810 -0.9247  2.3059
  481MOL0     H64869   2.556   8.248   1.883 -1.6536  4.0190 -0.2731
  481MOL0     H64870   2.379   8.110   1.519  1.0285  0.6493  0.9075
  481MOL0     H64871   2.442   7.953   1.574  1.6146  1.1614  1.5997
  481MOL0     H64872   2.180   8.086   1.656  1.2941  1.0174 -2.9892
  481MOL0     H64873   2.198   7.933   1.563 -0.6670 -3.0806  1.9586
  481MOL0     H64874   2.310   7.830   1.754 -0.7479 -0.9107  0.5061
  481MOL0     H64875   2.296   7.980   1.849 -2.3376  0.1875  2.0996
  481MOL0     H64876   2.026   7.935   1.811 -1.2085 -2.8585 -1.5874
  481MOL0     H64877   2.085   7.785   1.750 -0.2200 -0.0242 -0.8465
  481MOL0     H64878   2.028   7.756   2.005 -1.5257  0.7537  0.2585
  481MOL0     H64879   2.200   7.766   1.983 -1.0780 -0.4416 -1.8192
  481MOL0     H64880   2.095   7.893   2.173  2.5033  1.9623  0.8352
  481MOL0     H64881   2.209   7.980   2.079  0.2727  0.1392  0.3051
  481MOL0     H64882   1.990   8.079   1.963 -2.1567 -1.6587 -1.2128
  481MOL0     H64883   1.904   7.966   2.071  2.3665 -3.9999 -2.8070
  481MOL0     H64884   2.005   8.084   2.264  3.1344 -3.8507 -2.3016
  481MOL0     H64885   1.903   8.199   2.167 -1.1651 -1.8006 -0.4776
  481MOL0     H64886   2.159   8.232   1.934 -1.0950 -1.4918  0.6053
  481MOL0     H64887   2.476   8.407   2.008  1.5200  1.6257 -0.6457
  481MOL0     H64888   2.348   8.393   1.886 -1.1111 -0.5990  1.3710
  481MOL0     H64889   2.333   8.616   2.092  1.2968  2.3738 -0.5441
  481MOL0     H64890   2.226   8.577   1.954  0.5915  0.9682  0.2383
  481MOL0     H64891   2.418   8.617   1.801  1.6089 -1.5812 -0.1983
  481MOL0     H64892   2.528   8.644   1.933 -0.3040 -2.1368  2.0632
  481MOL0     H64893   2.289   8.809   1.825 -0.1599 -1.4624 -0.1405
  481MOL0     H64894   2.455   8.866   1.855  0.6757 -0.3859  1.4796
  481MOL0     H64895   2.232   8.914   2.236  0.7870  0.8265 -1.2589
  481MOL0     H64896   1.930   8.929   2.361  0.7417 -0.0680 -0.4344
  481MOL0     H64897   2.096   8.985   2.403  1.0436 -1.2284 -1.2755
  481MOL0     H64898   1.965   9.103   2.372  1.4630  1.4019 -3.2131
  481MOL0     H64899   1.631   9.245   2.189 -1.7777 -3.1117  1.0498
  481MOL0     H64900   1.406   9.358   2.193 -0.8901 -1.5149 -0.8877
  481MOL0     H64901   1.132   9.306   1.839 -1.4779  3.1858  0.9449
  481MOL0     H64902   1.144   9.173   1.951  2.4651 -0.6295  1.0240
  481MOL0     H64903   0.969   9.264   2.083  0.5354  0.7470  1.0288
  481MOL0     H64904   0.995   9.427   2.018  4.6483  1.1352 -2.4951
  481MOL0     H64905   0.927   9.328   1.792  2.6543 -0.0814  0.6580
  481MOL0     H64906   0.799   9.376   1.901 -0.8016 -0.8112 -0.3919
  481MOL0     H64907   0.903   9.090   1.905  1.1591  1.4460  3.0741
  481MOL0     H64908   0.765   9.158   1.986 -1.9758 -0.4384 -1.4310
  481MOL0     H64909   0.737   9.019   1.766  0.2037  0.1031  1.4123
  481MOL0     H64910   0.783   9.175   1.686 -0.2104 -1.6323 -1.6900
  481MOL0     H64911   0.536   9.123   1.851  0.7916 -1.7376 -1.2821
  481MOL0     H64912   0.594   9.288   1.782  4.5799  0.1357  2.7584
  481MOL0     H64913   0.523   9.034   1.629 -2.3143 -0.2941  2.9824
  481MOL0     H64914   0.557   9.197   1.558 -0.7142  1.7191  1.1374
  481MOL0     H64915   0.369   9.296   1.674 -3.7251 -0.8931  1.1298
  481MOL0     H64916   0.309   9.130   1.705  1.3064  0.5114  0.9027
  481MOL0     H64917   1.334   9.250   1.805 -1.5436  4.3428  2.3990
  481MOL0     H64918   1.566   9.120   1.796 -2.3623  0.7734 -2.0376
  481MOL0     H64919   1.931   9.046   1.870  1.1574 -1.6564 -1.3539
  481MOL0     H64920   2.144   8.952   1.819  3.2432 -0.6499  0.9557
  481MOL0     H64921   2.576   8.147   1.460  2.6369 -0.8883 -0.2274
  481MOL0     H64922   2.745   8.287   1.432  0.9597  2.2776  0.4467
  481MOL0     H64923   2.947   8.786   1.814  0.0665 -4.0687  2.0879
  481MOL0     H64924   3.132   8.940   1.758  0.7928 -0.1029 -1.1665
  481MOL0     H64925   3.282   9.087   1.621 -0.3789 -1.4035  0.3959
  481MOL0     H64926   3.343   9.003   1.763 -2.6042 -2.5984 -0.1606
  481MOL0     H64927   3.573   8.985   1.645  0.7899  0.6581 -0.8273
  481MOL0     H64928   3.533   9.154   1.640 -0.2429 -0.0661 -0.5382
  481MOL0     H64929   3.443   9.144   1.410  1.6860  0.4783 -0.5217
  481MOL0     H64930   3.482   8.963   1.415 -1.4165 -0.7370  2.6803
  481MOL0     H64931   3.704   8.998   1.403 -1.2123 -0.6512  1.4054
  481MOL0     H64932   3.681   9.168   1.459 -2.8747  1.7187 -1.2553
  481MOL0     H64933   3.665   9.194   1.035 -1.6122  1.8982  0.9039
  481MOL0     H64934   3.313   8.666   1.501 -0.5476  2.0946 -0.5738
  481MOL0     H64935   3.107   8.514   1.523  2.6770 -1.4643  2.7121
  482MOL0     O64936   6.716   0.073  11.278 -0.8903  1.7117 -0.9632
  482MOL0     C64937   6.726   0.114  11.390  0.2124 -0.3941 -0.7045
  482MOL0     O64938   6.637   0.186  11.465 -0.2337 -0.5321  0.3672
  482MOL0     C64939   6.532   0.240  11.408  0.0350 -0.8022 -0.8034
  482MOL0     C64940   6.405   0.252  11.477 -0.2987 -0.4581 -0.3697
  482MOL0     C64941   6.292   0.308  11.421 -0.1117 -0.1417 -0.0036
  482MOL0     C64942   6.297   0.346  11.288 -0.6954 -0.1031 -0.2063
  482MOL0     O64943   6.190   0.386  11.218 -0.4747 -0.0204  0.4905
  482MOL0     C64944   6.066   0.422  11.280  0.0279 -0.3511  0.5039
  482MOL0     C64945   5.969   0.299  11.268  0.6981  0.2643  0.1902
  482MOL0     C64946   5.862   0.314  11.380  0.1516  0.7569 -0.1231
  482MOL0     C64947   5.762   0.426  11.349  0.0239 -0.2237 -0.2913
  482MOL0     C64948   5.642   0.373  11.265 -0.5678 -0.3580 -0.0933
  482MOL0     C64949   5.512   0.353  11.347 -0.2158 -0.0954 -0.4186
  482MOL0     C64950   5.406   0.293  11.253 -0.4168 -0.0575  0.1671
  482MOL0     C64951   5.262   0.301  11.291  0.0016 -0.5971  0.0640
  482MOL0     N64952   5.198   0.427  11.245 -0.2957  0.6815  0.3004
  482MOL0     C64953   5.161   0.463  11.119 -0.4482 -0.2480 -0.8487
  482MOL0     C64954   5.114   0.588  11.128 -0.2237 -0.6394 -0.5693
  482MOL0     C64955   5.061   0.666  11.015 -0.7708 -0.4028 -0.5093
  482MOL0     C64956   4.909   0.670  11.018 -0.0169  0.8960  1.0148
  482MOL0     C64957   4.835   0.540  11.059 -0.3305 -0.0437 -0.0057
  482MOL0     C64958   4.677   0.564  11.049 -1.4937 -0.4963 -0.2050
  482MOL0     O64959   4.622   0.666  11.137  0.3766  0.4757 -0.1243
  482MOL0     C64960   4.485   0.660  11.164  0.0111 -1.1105 -0.1897
  482MOL0     C64961   4.434   0.705  11.288  0.1080 -0.6020  0.0206
  482MOL0     C64962   4.299   0.713  11.312  0.6247 -0.3263  1.1111
  482MOL0     C64963   4.266   0.808  11.428 -0.3736 -0.3616  0.4764
  482MOL0     C64964   4.212   0.683  11.212  0.2782 -0.1206  0.4940
  482MOL0     C64965   4.067   0.672  11.248  0.2081  0.1244 -0.9848
  482MOL0     O64966   3.982   0.655  11.141 -0.6088 -0.1070 -0.0549
  482MOL0     C64967   3.849   0.650  11.160  0.1223  0.2589 -0.1885
  482MOL0     C64968   3.779   0.760  11.198  0.5574 -0.6527 -0.4530
  482MOL0     C64969   3.643   0.750  11.235 -0.2826  0.6967 -0.4369
  482MOL0     C64970   3.580   0.627  11.247 -0.3776  0.3273  0.9379
  482MOL0     O64971   3.447   0.628  11.259  0.6504 -0.5888  0.0293
  482MOL0     C64972   3.364   0.513  11.224 -0.2290  0.0348 -0.2811
  482MOL0     C64973   3.217   0.540  11.266  0.3367  0.2722 -0.7879
  482MOL0     C64974   3.173   0.668  11.207  0.5611 -0.4321  0.0457
  482MOL0     C64975   3.018   0.673  11.216 -0.1276  0.0763 -0.3369
  482MOL0     C64976   2.972   0.790  11.129  0.4101 -0.3106  0.1673
  482MOL0     C64977   2.816   0.823  11.144 -0.7239  0.5357 -0.0539
  482MOL0     C64978   2.775   0.949  11.059 -0.3520  0.8901 -0.1372
  482MOL0     C64979   2.622   0.941  11.038 -0.5781 -0.0031 -0.4518
  482MOL0    Cl64980   2.553   1.084  10.964 -0.3620  0.0396  0.4574
  482MOL0     C64981   3.647   0.514  11.199 -1.2635  0.4549 -0.6361
  482MOL0     C64982   3.783   0.524  11.161 -0.3568 -0.4592  0.5333
  482MOL0     O64983   4.025   0.668  11.365 -0.6383 -0.3658 -0.0992
  482MOL0     C64984   4.257   0.635  11.085  0.5845 -0.5411 -0.4950
  482MOL0     C64985   4.394   0.624  11.063 -0.5678  0.0279 -0.5012
  482MOL0     N64986   5.133   0.627  11.260  0.8556 -0.2255  0.7678
  482MOL0     N64987   5.183   0.533  11.331  0.0215  0.1673 -0.8213
  482MOL0     C64988   6.416   0.334  11.215  0.7927 -0.5043 -0.1868
  482MOL0     C64989   6.526   0.285  11.278 -0.2159  0.4703  0.7641
  482MOL0     C64990   6.841   0.072  11.462  0.5710 -0.1918 -0.9035
  482MOL0     C64991   6.858   0.115  11.593 -0.5910 -0.3020 -0.6641
  482MOL0     C64992   6.970   0.073  11.670  0.3172  0.0262 -0.2327
  482MOL0     C64993   7.064  -0.013  11.614  0.2373 -0.1668  0.2242
  482MOL0     O64994   7.174  -0.064  11.678  0.4080 -1.0486  0.2629
  482MOL0     C64995   7.237   0.007  11.785  0.6280 -0.4958 -0.4124
  482MOL0     C64996   7.378  -0.051  11.822  0.5841 -0.7504  0.3909
  482MOL0     C64997   7.360  -0.188  11.894  0.0327 -0.0287  0.5768
  482MOL0     C64998   7.326  -0.298  11.803  0.4552 -0.5132  0.2365
  482MOL0     C64999   7.335  -0.433  11.874  0.8934 -0.1510  0.1782
  482MOL0     C65000   7.346  -0.540  11.938 -0.2347 -0.2152  0.0133
  482MOL0     C65001   7.052  -0.050  11.479 -0.3382 -0.6668 -0.7738
  482MOL0     C65002   6.941  -0.006  11.405 -0.1965  0.2766 -0.3513
  482MOL0     H65003   6.409   0.216  11.579  1.2517 -2.5435 -1.0886
  482MOL0     H65004   6.198   0.314  11.475 -1.4229 -1.2553 -2.0350
  482MOL0     H65005   6.078   0.464  11.381 -0.3612  0.2505  0.3043
  482MOL0     H65006   6.012   0.493  11.217 -0.9257 -2.3529 -1.0357
  482MOL0     H65007   5.931   0.303  11.165  1.4607 -1.0461 -0.1635
  482MOL0     H65008   6.023   0.206  11.288 -0.2576 -0.5734 -0.9246
  482MOL0     H65009   5.814   0.216  11.388  5.2728 -1.9704  2.0381
  482MOL0     H65010   5.912   0.315  11.477 -0.4505 -0.8096  0.2370
  482MOL0     H65011   5.730   0.471  11.444  0.2517  2.6329 -1.4503
  482MOL0     H65012   5.818   0.501  11.293  1.9624  0.3745  2.2513
  482MOL0     H65013   5.628   0.445  11.184  1.6898  0.1625 -0.0784
  482MOL0     H65014   5.658   0.278  11.214 -0.8254  0.1052 -1.0494
  482MOL0     H65015   5.514   0.287  11.434 -1.5828 -0.1324 -0.3882
  482MOL0     H65016   5.486   0.454  11.379  1.6319 -0.0673  1.1567
  482MOL0     H65017   5.417   0.351  11.161 -2.8587  2.5452  1.3495
  482MOL0     H65018   5.445   0.193  11.236  2.3095  1.2264 -1.9245
  482MOL0     H65019   5.265   0.301  11.401  1.8980  2.6080  0.1285
  482MOL0     H65020   5.189   0.224  11.263 -3.9039  2.5899  0.5992
  482MOL0     H65021   5.157   0.384  11.044 -2.0457 -1.7186  0.6849
  482MOL0     H65022   5.106   0.766  11.007 -1.1893  0.0140  1.6876
  482MOL0     H65023   5.087   0.609  10.926 -0.7518 -1.5005  0.1804
  482MOL0     H65024   4.871   0.703  10.921  1.3218  2.3396  0.9389
  482MOL0     H65025   4.885   0.731  11.106  0.3306 -2.3589  3.5421
  482MOL0     H65026   4.851   0.516  11.164 -1.9133 -0.8238  0.0763
  482MOL0     H65027   4.870   0.451  11.006 -0.5172 -0.8584  1.1877
  482MOL0     H65028   4.641   0.465  11.081  1.8838 -1.0877  2.3059
  482MOL0     H65029   4.650   0.615  10.956  1.4589  0.2479 -0.7374
  482MOL0     H65030   4.502   0.744  11.363 -2.3786  0.7791  1.7402
  482MOL0     H65031   4.190   0.882  11.402  0.6648  1.1620  1.6152
  482MOL0     H65032   4.221   0.762  11.517 -0.6163  2.7964  2.1095
  482MOL0     H65033   4.354   0.862  11.462 -0.8728 -0.5167  2.0968
  482MOL0     H65034   3.829   0.857  11.202 -0.4818 -0.1535  0.9883
  482MOL0     H65035   3.579   0.836  11.254 -1.5160 -0.0400 -1.1047
  482MOL0     H65036   3.372   0.495  11.116 -4.8439 -0.4667 -0.7592
  482MOL0     H65037   3.388   0.418  11.272 -0.1728 -0.2599 -0.8763
  482MOL0     H65038   3.146   0.459  11.247 -0.9225  1.1215  0.1658
  482MOL0     H65039   3.209   0.552  11.374  3.9788  0.4271 -0.3982
  482MOL0     H65040   3.203   0.672  11.102 -1.1604  3.0519 -0.4542
  482MOL0     H65041   3.225   0.756  11.247  0.1063  0.4800 -1.3074
  482MOL0     H65042   2.971   0.580  11.184  0.2738  0.0331 -0.8074
  482MOL0     H65043   2.997   0.690  11.323 -0.0863 -3.0067  0.2435
  482MOL0     H65044   2.966   0.751  11.027 -4.3816 -0.5594  0.3163
  482MOL0     H65045   3.045   0.871  11.143  1.8265 -1.7518  1.5587
  482MOL0     H65046   2.756   0.736  11.116 -0.5481  0.6606 -0.8271
  482MOL0     H65047   2.806   0.839  11.252  1.7553  0.5420  0.2297
  482MOL0     H65048   2.833   0.955  10.966 -1.5567  0.5294 -0.9382
  482MOL0     H65049   2.795   1.040  11.117  0.4635  1.3741 -1.1371
  482MOL0     H65050   2.579   0.932  11.138  2.1922  0.4571  0.8942
  482MOL0     H65051   2.588   0.848  10.992 -2.0000 -0.8908  2.1754
  482MOL0     H65052   3.591   0.422  11.211 -0.8544  0.3111  0.2567
  482MOL0     H65053   3.842   0.441  11.124 -3.0803 -1.7607 -1.2392
  482MOL0     H65054   4.192   0.607  11.003 -1.2908  2.7536 -0.2854
  482MOL0     H65055   4.431   0.577  10.973  2.7674  0.0056  0.7378
  482MOL0     H65056   6.403   0.362  11.111  1.1166 -5.3338 -1.7501
  482MOL0     H65057   6.614   0.276  11.215 -1.2039 -4.3589 -0.2846
  482MOL0     H65058   6.789   0.186  11.639 -0.0228 -1.0533  1.4883
  482MOL0     H65059   6.981   0.096  11.775  1.5321 -3.1348  0.4539
  482MOL0     H65060   7.247   0.116  11.775  0.9988 -0.6112 -1.3647
  482MOL0     H65061   7.178  -0.012  11.875  1.1623 -0.0097  0.0537
  482MOL0     H65062   7.434   0.020  11.884  2.1124  2.3746 -4.0746
  482MOL0     H65063   7.431  -0.055  11.727  1.2055 -0.3349  0.7134
  482MOL0     H65064   7.295  -0.181  11.982 -0.6279  2.7752 -0.0277
  482MOL0     H65065   7.456  -0.221  11.933  0.4976  1.7049  1.0163
  482MOL0     H65066   7.399  -0.301  11.722  0.0690 -1.5845 -0.0977
  482MOL0     H65067   7.222  -0.296  11.769  1.1867  4.3368 -2.5478
  482MOL0     H65068   7.351  -0.638  11.981  3.5645 -1.1305 -2.0950
  482MOL0     H65069   7.129  -0.110  11.430 -1.3620 -3.4782  0.8444
  482MOL0     H65070   6.942  -0.034  11.300  0.1883 -3.6177  0.5425
  483MOL0     O65071   4.562   5.043  11.047  0.5029 -0.2111 -0.0941
  483MOL0     C65072   4.602   5.149  10.996 -0.4155 -0.6942 -0.3760
  483MOL0     O65073   4.527   5.249  10.941 -0.4922 -0.2240 -0.1604
  483MOL0     C65074   4.392   5.245  10.954  0.0925  0.6088 -0.0541
  483MOL0     C65075   4.335   5.339  11.037  0.5118  0.6612 -0.7874
  483MOL0     C65076   4.204   5.327  11.072  0.0667  0.3036 -0.6836
  483MOL0     C65077   4.126   5.232  11.006  0.0750  0.1438 -0.0996
  483MOL0     O65078   3.993   5.218  11.013  0.9892  0.4548  0.4963
  483MOL0     C65079   3.910   5.313  11.073  0.0783 -0.3289  0.1463
  483MOL0     C65080   3.894   5.436  10.977 -0.1909 -0.2344 -0.5600
  483MOL0     C65081   3.754   5.504  10.999  0.8190 -0.3656 -0.2189
  483MOL0     C65082   3.740   5.562  11.138  0.7144 -1.1339  0.0932
  483MOL0     C65083   3.595   5.620  11.151  0.6337 -0.6770  0.8691
  483MOL0     C65084   3.577   5.767  11.158 -1.0992 -0.4813  0.0690
  483MOL0     C65085   3.442   5.819  11.131  0.6726  0.3447  0.1523
  483MOL0     C65086   3.336   5.794  11.244 -0.4543 -0.1122  0.2051
  483MOL0     N65087   3.201   5.812  11.195  1.0178  0.3095  0.3871
  483MOL0     C65088   3.100   5.876  11.269 -1.2746 -0.1162  0.6623
  483MOL0     C65089   2.985   5.836  11.213 -0.6098 -0.0722  0.0196
  483MOL0     C65090   2.846   5.885  11.238  0.4716  0.1911  0.4135
  483MOL0     C65091   2.817   5.886  11.390  0.1189 -0.3091  0.3291
  483MOL0     C65092   2.662   5.867  11.423  0.7218  0.1819 -0.0295
  483MOL0     C65093   2.637   5.716  11.428  0.5245 -0.6254  0.6344
  483MOL0     O65094   2.516   5.695  11.480  0.7177  0.5904 -0.3796
  483MOL0     C65095   2.488   5.682  11.621  0.2055 -0.1527 -0.3005
  483MOL0     C65096   2.578   5.687  11.727  0.0922 -0.3854  0.8956
  483MOL0     C65097   2.542   5.667  11.867  1.0348  0.1966 -0.0016
  483MOL0     C65098   2.657   5.636  11.965  0.5569  0.2959 -0.4175
  483MOL0     C65099   2.406   5.650  11.904 -0.2234 -0.2411 -0.3898
  483MOL0     C65100   2.352   5.630  12.039  0.1750  0.1995 -0.2508
  483MOL0     O65101   2.229   5.571  12.058 -0.0841  0.3709  0.5639
  483MOL0     C65102   2.172   5.541  12.176 -0.1869  0.6970 -0.0355
  483MOL0     C65103   2.092   5.420  12.183 -0.5622 -0.1823  0.3414
  483MOL0     C65104   2.011   5.389  12.297 -0.1113  0.4396  0.1588
  483MOL0     C65105   2.014   5.470  12.414 -0.7215 -0.5385 -0.2973
  483MOL0     O65106   1.951   5.441  12.534 -0.8350  0.1278  0.4659
  483MOL0     C65107   1.837   5.360  12.536 -1.1072 -0.1250  1.1253
  483MOL0     C65108   1.804   5.333  12.683 -0.9495  0.2953  0.3646
  483MOL0     C65109   1.664   5.278  12.681  0.5219 -0.3545  0.0681
  483MOL0     C65110   1.562   5.361  12.759  0.2947 -1.0593 -0.0162
  483MOL0     C65111   1.432   5.285  12.771 -0.0986 -0.4995 -0.2939
  483MOL0     C65112   1.329   5.357  12.874  0.1937  0.4541 -0.1237
  483MOL0     C65113   1.201   5.273  12.892  0.7464  0.0595  0.4634
  483MOL0     C65114   1.085   5.304  12.795 -0.1722  0.6168  0.2167
  483MOL0    Cl65115   1.131   5.382  12.640 -0.2407 -0.3031 -0.1795
  483MOL0     C65116   2.100   5.591  12.409  0.6832  0.5752  0.7005
  483MOL0     C65117   2.174   5.620  12.292 -0.3792 -0.1799  0.9841
  483MOL0     O65118   2.427   5.676  12.128 -0.6746  0.4113  0.5855
  483MOL0     C65119   2.307   5.656  11.798 -0.0310  0.5123 -0.2787
  483MOL0     C65120   2.352   5.654  11.662  0.5717 -0.2574 -0.3632
  483MOL0     N65121   3.011   5.741  11.120 -0.6119 -0.1273  1.1214
  483MOL0     N65122   3.142   5.733  11.105  0.4439  0.8899  0.3023
  483MOL0     C65123   4.179   5.128  10.930  0.9313  0.0025 -0.4649
  483MOL0     C65124   4.313   5.138  10.904 -0.1765  0.4514  0.0573
  483MOL0     C65125   4.759   5.172  11.005  0.3102  0.1457 -0.9284
  483MOL0     C65126   4.819   5.285  10.947 -0.2347  0.8514 -0.4027
  483MOL0     C65127   4.952   5.318  10.964 -0.8790 -0.9075 -0.2954
  483MOL0     C65128   5.044   5.238  11.027  0.3629  1.0444 -0.1962
  483MOL0     O65129   5.175   5.268  11.038  0.3485 -0.7896  0.2269
  483MOL0     C65130   5.235   5.332  10.929 -0.0185  0.2801 -0.1403
  483MOL0     C65131   5.390   5.310  10.937 -0.5625 -0.1179 -0.7068
  483MOL0     C65132   5.459   5.337  10.807  0.1010  0.0997 -0.0126
  483MOL0     C65133   5.537   5.475  10.812  0.1911  0.5620 -0.4458
  483MOL0     C65134   5.622   5.495  10.693  0.0486 -0.1569 -0.0297
  483MOL0     C65135   5.688   5.508  10.592 -0.2049  0.1055 -0.4793
  483MOL0     C65136   4.993   5.129  11.098 -1.0658 -0.3830  0.2602
  483MOL0     C65137   4.846   5.096  11.086 -0.0483  0.0086 -0.8274
  483MOL0     H65138   4.392   5.416  11.087  0.1972  0.3609  0.0399
  483MOL0     H65139   4.162   5.397  11.144 -1.5756 -1.8720  0.5906
  483MOL0     H65140   3.810   5.271  11.085 -1.6652  2.9307 -1.8017
  483MOL0     H65141   3.957   5.341  11.167 -0.1408 -1.8617  0.7504
  483MOL0     H65142   3.973   5.504  11.011  0.1728 -0.3167 -1.2258
  483MOL0     H65143   3.914   5.413  10.872  0.2654 -3.8638  0.1974
  483MOL0     H65144   3.758   5.584  10.924  1.7413 -1.2719 -1.1820
  483MOL0     H65145   3.678   5.428  10.980  1.0960 -1.2334  1.9094
  483MOL0     H65146   3.757   5.490  11.218 -2.0192 -2.5114 -0.4331
  483MOL0     H65147   3.816   5.639  11.154  3.0372 -2.4748 -3.2234
  483MOL0     H65148   3.520   5.594  11.076 -0.4929  2.9830  0.5251
  483MOL0     H65149   3.548   5.575  11.239 -1.0383 -0.0404  0.3372
  483MOL0     H65150   3.605   5.816  11.251 -1.2610  0.4812 -0.3831
  483MOL0     H65151   3.641   5.802  11.076 -2.8994  0.2768 -1.0780
  483MOL0     H65152   3.438   5.928  11.123  0.2749  0.2736 -0.7736
  483MOL0     H65153   3.398   5.783  11.038 -1.9456  1.4358  0.8765
  483MOL0     H65154   3.358   5.859  11.329 -1.1845  1.0984 -0.5021
  483MOL0     H65155   3.335   5.694  11.287  0.4522  0.7429  2.3343
  483MOL0     H65156   3.099   5.960  11.337 -0.6296  0.7886 -0.4210
  483MOL0     H65157   2.831   5.985  11.197  5.1942  0.6050 -0.8847
  483MOL0     H65158   2.775   5.821  11.185 -0.2818  0.0707  1.5284
  483MOL0     H65159   2.849   5.985  11.424  2.7697 -1.5440  1.7852
  483MOL0     H65160   2.879   5.816  11.447  0.9301  1.1628  1.3362
  483MOL0     H65161   2.586   5.908  11.356 -1.1174 -3.1190 -0.1741
  483MOL0     H65162   2.639   5.895  11.527 -1.6470 -1.0301 -0.1520
  483MOL0     H65163   2.719   5.659  11.474 -0.1860 -0.6119  1.9662
  483MOL0     H65164   2.629   5.679  11.325 -0.4951 -4.3919  1.9135
  483MOL0     H65165   2.681   5.690  11.693  0.2377 -0.0643  1.3593
  483MOL0     H65166   2.636   5.574  12.052  3.2028 -0.3222 -0.1443
  483MOL0     H65167   2.728   5.567  11.919  0.7987  0.6226 -0.5453
  483MOL0     H65168   2.706   5.727  12.001 -1.1896  1.1572 -0.1096
  483MOL0     H65169   2.092   5.368  12.088  2.5739  0.1683  0.0353
  483MOL0     H65170   1.956   5.295  12.298 -0.4838  0.6440 -0.5125
  483MOL0     H65171   1.747   5.410  12.500 -0.4454  1.7634  1.9297
  483MOL0     H65172   1.858   5.263  12.489 -0.8080  0.1572  0.6723
  483MOL0     H65173   1.875   5.253  12.708  0.3238 -0.1236 -3.8024
  483MOL0     H65174   1.811   5.428  12.736  1.0089  0.1345  0.4483
  483MOL0     H65175   1.670   5.179  12.728 -2.5687 -0.5923  0.1471
  483MOL0     H65176   1.617   5.277  12.583 -1.7175  0.3321  1.0702
  483MOL0     H65177   1.606   5.394  12.854  1.1662  0.7427 -0.9858
  483MOL0     H65178   1.537   5.456  12.711 -0.6591 -0.7153  1.1117
  483MOL0     H65179   1.435   5.181  12.804 -0.6906 -0.9171 -1.4701
  483MOL0     H65180   1.381   5.282  12.674  0.1457  0.5904 -0.4608
  483MOL0     H65181   1.365   5.365  12.977 -0.9304  1.5316  0.2223
  483MOL0     H65182   1.306   5.461  12.846  3.2052  0.9362 -1.1865
  483MOL0     H65183   1.167   5.282  12.995  3.2747 -1.8203  1.5627
  483MOL0     H65184   1.225   5.167  12.894 -2.0343 -0.6535  0.5881
  483MOL0     H65185   1.021   5.370  12.853  0.1500 -0.1935  1.5325
  483MOL0     H65186   1.033   5.210  12.774 -0.9695  0.7169  1.6347
  483MOL0     H65187   2.097   5.648  12.501 -0.1537  1.5947  0.0607
  483MOL0     H65188   2.232   5.712  12.284 -0.5558 -0.0276  1.4148
  483MOL0     H65189   2.200   5.655  11.818 -0.8189  0.9361 -3.8668
  483MOL0     H65190   2.270   5.649  11.591 -2.3280  1.7769  2.4980
  483MOL0     H65191   4.106   5.059  10.888 -0.4230  0.5565  0.8913
  483MOL0     H65192   4.360   5.066  10.838 -1.6046  0.5349 -1.1133
  483MOL0     H65193   4.767   5.351  10.879  0.6230  1.9024 -0.0734
  483MOL0     H65194   4.983   5.412  10.919 -0.4884  0.9074  3.3816
  483MOL0     H65195   5.198   5.292  10.834 -0.3908 -0.6953  0.3985
  483MOL0     H65196   5.228   5.441  10.937  2.4150  0.4203  0.6601
  483MOL0     H65197   5.418   5.207  10.960 -1.2612  0.1099  1.3801
  483MOL0     H65198   5.427   5.365  11.024 -0.4616  1.9291 -1.9679
  483MOL0     H65199   5.385   5.341  10.727  2.0596 -0.7007 -1.9637
  483MOL0     H65200   5.528   5.254  10.795  0.2041  0.4914 -2.7649
  483MOL0     H65201   5.595   5.485  10.904 -1.8789 -0.3337  1.0098
  483MOL0     H65202   5.465   5.556  10.799 -2.4935 -1.4659  0.9291
  483MOL0     H65203   5.760   5.514  10.512  0.0964  1.9141 -0.1262
  483MOL0     H65204   5.048   5.065  11.166 -0.6624 -0.4443 -0.1182
  483MOL0     H65205   4.799   5.009  11.131  0.0218  1.4274  2.2755
  484MOL0     O65206   0.938   2.543   1.775  0.4683 -0.1988  0.0273
  484MOL0     C65207   0.924   2.665   1.777 -0.5021 -0.3126 -0.3726
  484MOL0     O65208   0.808   2.739   1.773  0.0952  0.5228  0.4190
  484MOL0     C65209   0.685   2.673   1.785  0.0690  0.3399 -0.3063
  484MOL0     C65210   0.575   2.758   1.785  0.4517  0.5587  0.3195
  484MOL0     C65211   0.436   2.714   1.787 -0.1567 -1.3080 -0.4621
  484MOL0     C65212   0.406   2.578   1.786 -0.2638  0.2847  0.1971
  484MOL0     O65213   0.285   2.522   1.761  0.4390  0.9772  0.3518
  484MOL0     C65214   0.188   2.608   1.712 -0.6003  0.0480 -0.5001
  484MOL0     C65215   0.052   2.544   1.664 -0.2916 -0.6895 -0.2194
  484MOL0     C65216  -0.015   2.459   1.762 -0.0611  0.3363  0.3470
  484MOL0     C65217  -0.154   2.416   1.706  0.1243  0.2914  0.1570
  484MOL0     C65218  -0.223   2.307   1.807  0.0772  0.1695  0.3086
  484MOL0     C65219  -0.358   2.253   1.749 -0.3836  1.2253 -0.6885
  484MOL0     C65220  -0.423   2.138   1.829  0.1325 -0.6651 -0.3769
  484MOL0     C65221  -0.341   2.015   1.855  0.5589  0.3745 -0.1534
  484MOL0     N65222  -0.413   1.929   1.945  0.0981  0.5535  0.0832
  484MOL0     C65223  -0.501   1.826   1.908 -0.3022  0.1935  0.1031
  484MOL0     C65224  -0.556   1.775   2.025 -0.4675  0.3870  0.0183
  484MOL0     C65225  -0.657   1.672   2.028  0.2950 -0.2256 -0.0449
  484MOL0     C65226  -0.775   1.721   2.116  0.2052  0.4091 -0.0788
  484MOL0     C65227  -0.904   1.623   2.128  0.4421 -0.2182 -0.1700
  484MOL0     C65228  -1.010   1.652   2.245 -1.2109  0.0054 -0.1295
  484MOL0     O65229  -1.040   1.799   2.252 -0.2474 -0.3961 -0.0922
  484MOL0     C65230  -1.121   1.850   2.352 -0.3777 -0.3410 -0.1465
  484MOL0     C65231  -1.150   1.991   2.337 -0.2495  0.4231  0.4085
  484MOL0     C65232  -1.225   2.059   2.429  0.2031  0.5725 -0.0732
  484MOL0     C65233  -1.243   2.212   2.389  0.0369 -0.4527 -0.5951
  484MOL0     C65234  -1.296   1.988   2.523 -0.4545  0.0512  0.5861
  484MOL0     C65235  -1.366   2.057   2.632 -0.1939 -0.5462  0.4951
  484MOL0     O65236  -1.486   2.005   2.663 -0.5069 -0.5606 -0.3397
  484MOL0     C65237  -1.575   2.087   2.725  0.0289  0.6812  0.2416
  484MOL0     C65238  -1.586   2.222   2.704 -0.7874 -0.3540 -0.4114
  484MOL0     C65239  -1.682   2.290   2.777 -0.7327  1.0388 -0.4249
  484MOL0     C65240  -1.769   2.230   2.867 -0.1372  0.5623 -0.5483
  484MOL0     O65241  -1.861   2.299   2.935 -0.3192 -0.9173  0.0248
  484MOL0     C65242  -1.995   2.281   2.888 -0.4043 -0.8674 -0.4509
  484MOL0     C65243  -2.073   2.206   2.988  0.4312  0.0349 -0.8053
  484MOL0     C65244  -2.112   2.272   3.110  0.3725 -0.2209 -0.3179
  484MOL0     C65245  -2.217   2.376   3.093  0.4224 -0.5002 -0.1572
  484MOL0     C65246  -2.312   2.384   3.223  0.5329 -0.0706 -0.8026
  484MOL0     C65247  -2.422   2.271   3.224 -0.0284 -0.1938  0.2642
  484MOL0     C65248  -2.480   2.248   3.365 -0.3439 -0.4752 -0.1531
  484MOL0     C65249  -2.609   2.169   3.347 -0.5804  0.1250 -0.0974
  484MOL0    Cl65250  -2.704   2.199   3.498 -0.3540  0.1869  0.1110
  484MOL0     C65251  -1.754   2.095   2.888 -0.0899 -0.4723  0.5004
  484MOL0     C65252  -1.654   2.025   2.820  0.3612  0.2802  0.2931
  484MOL0     O65253  -1.304   2.145   2.689  0.1225 -0.7208  0.0148
  484MOL0     C65254  -1.284   1.848   2.529 -0.0324  0.5085 -0.0021
  484MOL0     C65255  -1.193   1.783   2.447  0.6705  0.1133  0.5687
  484MOL0     N65256  -0.477   1.835   2.132  0.0277 -0.2084 -0.1261
  484MOL0     N65257  -0.399   1.920   2.087 -0.2070 -0.1226  0.3362
  484MOL0     C65258   0.514   2.485   1.796 -0.0568 -0.0801 -0.2045
  484MOL0     C65259   0.647   2.540   1.808  0.4733  0.4406  0.9957
  484MOL0     C65260   1.047   2.758   1.788 -0.0947  0.2643  0.5122
  484MOL0     C65261   1.027   2.895   1.766  0.1621  0.8128  0.4678
  484MOL0     C65262   1.142   2.979   1.778  1.2212 -0.1101 -0.7271
  484MOL0     C65263   1.264   2.932   1.812 -0.3450  0.8163  0.4970
  484MOL0     O65264   1.362   3.020   1.810  0.2380  0.0012  0.1740
  484MOL0     C65265   1.459   3.013   1.920  0.4691 -0.3066 -1.0625
  484MOL0     C65266   1.521   3.155   1.941  0.0966  0.8551 -0.1276
  484MOL0     C65267   1.576   3.215   1.814  0.2182  0.1107  0.3894
  484MOL0     C65268   1.635   3.351   1.849 -0.3774  0.1684 -0.0530
  484MOL0     C65269   1.692   3.404   1.721  0.3433  0.2843 -0.1316
  484MOL0     C65270   1.750   3.441   1.620  0.7698 -0.5034 -0.0356
  484MOL0     C65271   1.281   2.796   1.833 -0.4169  0.9747 -0.8130
  484MOL0     C65272   1.176   2.706   1.815  0.4076 -0.8565 -0.3822
  484MOL0     H65273   0.594   2.863   1.766  0.2938  0.7132  0.9883
  484MOL0     H65274   0.360   2.790   1.773 -0.5696 -1.7961 -0.8631
  484MOL0     H65275   0.170   2.685   1.787  2.6899  0.6672 -0.2257
  484MOL0     H65276   0.224   2.664   1.625 -0.7433 -1.5149 -1.6110
  484MOL0     H65277  -0.020   2.623   1.640  1.0585  0.4698 -0.6187
  484MOL0     H65278   0.076   2.484   1.575  1.1106  0.9865 -1.0389
  484MOL0     H65279   0.047   2.371   1.782 -1.7723 -0.3834  2.9354
  484MOL0     H65280  -0.038   2.514   1.853 -2.4406 -0.1831  0.1338
  484MOL0     H65281  -0.218   2.503   1.691  1.3610  1.4862  1.5295
  484MOL0     H65282  -0.137   2.377   1.605  1.6269  1.1155  0.0649
  484MOL0     H65283  -0.157   2.220   1.819 -2.3582 -1.7487  0.3989
  484MOL0     H65284  -0.235   2.348   1.908 -1.4297  0.9515 -0.1506
  484MOL0     H65285  -0.429   2.335   1.741 -1.8987  0.2583  1.6909
  484MOL0     H65286  -0.335   2.209   1.651  2.2962 -0.5143  0.5843
  484MOL0     H65287  -0.473   2.180   1.916 -2.1880  0.4208 -2.1101
  484MOL0     H65288  -0.507   2.103   1.768  0.9700 -0.0234 -1.9765
  484MOL0     H65289  -0.241   2.030   1.895  0.9658 -2.4858  0.0464
  484MOL0     H65290  -0.328   1.959   1.762 -0.3870 -2.2551  1.2043
  484MOL0     H65291  -0.520   1.804   1.803 -0.5971  0.0694  0.1843
  484MOL0     H65292  -0.700   1.647   1.930 -0.9647  0.2220  0.3647
  484MOL0     H65293  -0.614   1.587   2.082  1.1398 -1.3471 -2.3482
  484MOL0     H65294  -0.804   1.810   2.059  1.5388  0.7465 -0.2731
  484MOL0     H65295  -0.740   1.747   2.216 -0.7512 -1.0780  0.6798
  484MOL0     H65296  -0.866   1.522   2.142  1.7858  0.5705  2.4420
  484MOL0     H65297  -0.957   1.621   2.032  2.0916 -1.5782 -1.1173
  484MOL0     H65298  -0.976   1.630   2.346  0.5498  3.3592  0.1469
  484MOL0     H65299  -1.095   1.585   2.229 -0.3557 -0.7444 -1.8353
  484MOL0     H65300  -1.101   2.035   2.251  1.4256 -0.6046  0.8110
  484MOL0     H65301  -1.321   2.262   2.448 -1.4333 -4.1566  0.8877
  484MOL0     H65302  -1.151   2.269   2.404 -1.0721  0.7048  3.1009
  484MOL0     H65303  -1.266   2.207   2.283  0.1850  1.9511 -0.7895
  484MOL0     H65304  -1.523   2.267   2.628  2.8316 -0.0517  2.5214
  484MOL0     H65305  -1.699   2.393   2.746  1.1865  1.2653 -0.8363
  484MOL0     H65306  -2.045   2.377   2.875  3.3617  1.4319  0.3130
  484MOL0     H65307  -2.001   2.228   2.793  1.6702 -2.4152  0.1951
  484MOL0     H65308  -2.164   2.165   2.943 -1.0201 -1.5820  3.1687
  484MOL0     H65309  -2.024   2.112   3.017  2.2444  0.6518 -1.6871
  484MOL0     H65310  -2.032   2.314   3.173 -1.3548  0.3262  1.6336
  484MOL0     H65311  -2.160   2.199   3.176 -2.0581 -0.3569 -2.1011
  484MOL0     H65312  -2.159   2.469   3.088  1.2454 -0.7747  2.8766
  484MOL0     H65313  -2.275   2.376   2.999 -1.3006 -1.1459  0.8548
  484MOL0     H65314  -2.368   2.478   3.217 -1.2472 -1.0724 -0.7424
  484MOL0     H65315  -2.264   2.391   3.321  0.7945  2.6501 -1.0468
  484MOL0     H65316  -2.494   2.300   3.147  2.0676  1.7006 -1.1414
  484MOL0     H65317  -2.366   2.178   3.209 -0.0156 -1.2028  4.9725
  484MOL0     H65318  -2.509   2.340   3.416 -2.0892 -0.4034 -1.1752
  484MOL0     H65319  -2.402   2.203   3.426 -1.8384 -1.3709  1.1625
  484MOL0     H65320  -2.581   2.063   3.342 -0.1378 -0.0049  2.9013
  484MOL0     H65321  -2.677   2.199   3.268 -1.6788  2.5410  1.6564
  484MOL0     H65322  -1.810   2.044   2.966  1.0727  0.7547  2.2062
  484MOL0     H65323  -1.637   1.920   2.839  1.1415  0.7218  2.2724
  484MOL0     H65324  -1.348   1.792   2.597  0.7992  1.2053  1.3984
  484MOL0     H65325  -1.195   1.674   2.442 -1.2953  0.1789 -3.3150
  484MOL0     H65326   0.500   2.378   1.799 -0.7049 -0.0648 -1.7794
  484MOL0     H65327   0.725   2.465   1.808  3.1177  2.9210 -1.2245
  484MOL0     H65328   0.933   2.940   1.736  0.3047 -0.3009 -1.8678
  484MOL0     H65329   1.118   3.085   1.781  1.9253  0.0370  0.2006
  484MOL0     H65330   1.399   2.991   2.009 -1.5119  0.6504 -2.1062
  484MOL0     H65331   1.538   2.938   1.908 -1.5538 -2.8107  0.2632
  484MOL0     H65332   1.589   3.147   2.027 -2.0350 -1.5249  1.4685
  484MOL0     H65333   1.447   3.218   1.989 -1.1634 -1.8466  1.7237
  484MOL0     H65334   1.500   3.233   1.737  0.0395  1.2354  0.8007
  484MOL0     H65335   1.650   3.148   1.769  0.0182  0.0119  0.2066
  484MOL0     H65336   1.721   3.332   1.914  0.8279 -0.9945 -1.8625
  484MOL0     H65337   1.564   3.416   1.901 -0.7859 -0.0004 -0.3939
  484MOL0     H65338   1.794   3.493   1.537  0.6792  2.9176  1.8776
  484MOL0     H65339   1.376   2.747   1.855 -1.5956 -2.0260 -1.9355
  484MOL0     H65340   1.189   2.599   1.808 -0.5926 -0.9798 -0.5253
  485MOL0     O65341   5.002   6.311   0.078  1.0850 -0.4395  0.3546
  485MOL0     C65342   4.974   6.208   0.018  0.2739  0.3647 -0.1813
  485MOL0     O65343   4.845   6.152   0.012 -0.3595 -0.4561  0.3745
  485MOL0     C65344   4.731   6.217   0.055  0.0905 -0.0881  0.4811
  485MOL0     C65345   4.600   6.163   0.022  1.0481  0.3082  0.1924
  485MOL0     C65346   4.477   6.220   0.059 -0.5471  0.0289 -0.4090
  485MOL0     C65347   4.482   6.345   0.121  0.3706  0.5303 -0.8346
  485MOL0     O65348   4.363   6.402   0.156  0.3154  0.4359  0.3237
  485MOL0     C65349   4.240   6.346   0.107  0.2506  0.0946 -0.2422
  485MOL0     C65350   4.126   6.441   0.142  0.6892  0.0564  0.3370
  485MOL0     C65351   3.999   6.351   0.124 -0.2886 -0.0149  0.0559
  485MOL0     C65352   3.888   6.440   0.158  0.0297 -0.6525 -0.3858
  485MOL0     C65353   3.747   6.380   0.148 -0.5779 -0.6992 -0.1677
  485MOL0     C65354   3.730   6.287   0.265 -0.0836  0.3328 -1.2336
  485MOL0     C65355   3.601   6.200   0.249  0.6239 -0.3559 -0.4515
  485MOL0     C65356   3.478   6.294   0.268  0.3331  0.1605  0.8452
  485MOL0     N65357   3.354   6.218   0.285 -0.0763 -0.1246 -0.5946
  485MOL0     C65358   3.272   6.181   0.392 -1.1589 -0.4884  0.5498
  485MOL0     C65359   3.211   6.071   0.371  0.2054  0.7005 -0.3888
  485MOL0     C65360   3.108   5.996   0.459  0.2729 -0.4483 -0.0874
  485MOL0     C65361   2.973   6.050   0.423 -0.1133 -1.4935  1.2380
  485MOL0     C65362   2.854   5.971   0.482 -0.5517  0.4172  0.1517
  485MOL0     C65363   2.730   6.065   0.483  1.1023 -0.5641 -0.5723
  485MOL0     O65364   2.607   5.987   0.515 -0.3998 -0.1872  0.1547
  485MOL0     C65365   2.507   6.068   0.569  0.0271  0.1425  0.0282
  485MOL0     C65366   2.463   6.196   0.523  0.2237  1.0049  0.5072
  485MOL0     C65367   2.348   6.257   0.561  0.0534  0.3907  0.1799
  485MOL0     C65368   2.320   6.393   0.517 -0.5625 -0.2193 -0.6136
  485MOL0     C65369   2.271   6.201   0.660  0.1073  0.6262  0.1973
  485MOL0     C65370   2.149   6.254   0.719 -0.2249 -0.4749  0.3737
  485MOL0     O65371   2.059   6.159   0.756 -0.5702 -0.2891  0.0909
  485MOL0     C65372   1.922   6.188   0.756 -0.0370  0.0305  0.3603
  485MOL0     C65373   1.842   6.086   0.808 -0.3243 -0.6646  0.7256
  485MOL0     C65374   1.711   6.100   0.832  0.5129 -0.7026  0.0444
  485MOL0     C65375   1.641   6.217   0.790  0.4792  0.9176 -0.0417
  485MOL0     O65376   1.509   6.210   0.802  0.6336 -0.7232 -0.2420
  485MOL0     C65377   1.427   6.332   0.791 -0.7840  0.6755  0.5678
  485MOL0     C65378   1.290   6.315   0.855  0.0777 -0.1293 -0.1540
  485MOL0     C65379   1.187   6.209   0.794 -0.0507 -0.0803  0.3187
  485MOL0     C65380   1.064   6.187   0.886 -0.0996  0.5088 -0.8816
  485MOL0     C65381   0.982   6.059   0.852  0.3782 -0.1038  0.2574
  485MOL0     C65382   0.901   6.008   0.978  0.7636  0.4859  0.0681
  485MOL0     C65383   0.782   6.102   1.014  0.1510 -0.0215 -0.5222
  485MOL0     C65384   0.663   6.019   1.065  0.4591  0.8727  0.0066
  485MOL0    Cl65385   0.533   6.125   1.117  0.3678  0.2208  0.0060
  485MOL0     C65386   1.719   6.319   0.730  0.8118  1.2126 -0.0097
  485MOL0     C65387   1.854   6.295   0.709  0.1495 -0.7235  0.2837
  485MOL0     O65388   2.139   6.380   0.720 -0.6534  0.0412  0.9379
  485MOL0     C65389   2.308   6.071   0.713 -0.4587 -0.0596 -0.1195
  485MOL0     C65390   2.421   6.008   0.655  1.2099  0.5852 -0.1902
  485MOL0     N65391   3.232   6.031   0.242  0.1712  0.7830  0.9936
  485MOL0     N65392   3.322   6.113   0.200 -0.4101  0.3485  0.1976
  485MOL0     C65393   4.606   6.400   0.159 -0.3722  0.3150 -1.3671
  485MOL0     C65394   4.726   6.335   0.128 -0.0534  0.4766  0.1591
  485MOL0     C65395   5.090   6.141  -0.040 -0.1365  0.2041 -0.3143
  485MOL0     C65396   5.224   6.179  -0.018  0.1435  0.6821  0.4432
  485MOL0     C65397   5.322   6.102  -0.069 -1.3040  0.7506 -0.3189
  485MOL0     C65398   5.311   5.976  -0.133  0.9252 -0.9351  0.5038
  485MOL0     O65399   5.406   5.883  -0.170 -0.7109 -0.0918 -0.3772
  485MOL0     C65400   5.542   5.930  -0.170  0.5805  0.3277  0.0553
  485MOL0     C65401   5.638   5.815  -0.210 -0.0094 -0.6632 -0.5141
  485MOL0     C65402   5.784   5.871  -0.212  0.2556  0.0966 -0.2023
  485MOL0     C65403   5.891   5.769  -0.263  0.3599  0.2873 -0.2580
  485MOL0     C65404   5.992   5.821  -0.358  0.3428 -0.1100  0.3693
  485MOL0     C65405   6.070   5.864  -0.434 -0.1004 -0.5246  0.8480
  485MOL0     C65406   5.172   5.937  -0.154  0.2272 -0.1617  0.8836
  485MOL0     C65407   5.063   6.020  -0.110 -0.0488  1.1735  0.2050
  485MOL0     H65408   4.592   6.078  -0.044 -0.2602 -1.3883  2.3965
  485MOL0     H65409   4.390   6.166   0.025 -0.0934  0.8506 -3.0884
  485MOL0     H65410   4.234   6.339  -0.002  0.0962  0.4147 -0.2540
  485MOL0     H65411   4.239   6.245   0.149  5.0607  0.4789  1.4099
  485MOL0     H65412   4.143   6.486   0.241  1.3743  0.2165  0.1510
  485MOL0     H65413   4.129   6.529   0.077  0.1874  0.5308  0.9375
  485MOL0     H65414   3.999   6.305   0.025  0.3817 -4.4925  1.8697
  485MOL0     H65415   4.016   6.270   0.196  0.9752 -0.1725 -0.3959
  485MOL0     H65416   3.905   6.478   0.259 -1.7304 -3.3932  1.0879
  485MOL0     H65417   3.884   6.525   0.090  0.5801 -0.2202  0.1111
  485MOL0     H65418   3.678   6.465   0.145  0.2008 -0.0399  0.2166
  485MOL0     H65419   3.741   6.317   0.059 -1.1517 -0.9446  0.0439
  485MOL0     H65420   3.815   6.218   0.266  0.4804  0.9665 -2.7816
  485MOL0     H65421   3.721   6.338   0.361 -1.5013  2.3382 -2.3509
  485MOL0     H65422   3.595   6.165   0.145 -0.7474  0.0432 -0.5320
  485MOL0     H65423   3.602   6.126   0.330  1.8140  2.4396  2.2507
  485MOL0     H65424   3.477   6.369   0.189  0.1242  0.7031  1.3511
  485MOL0     H65425   3.499   6.348   0.361  0.9966  0.4430  0.5387
  485MOL0     H65426   3.259   6.237   0.484 -0.5057 -1.7837  1.4624
  485MOL0     H65427   3.116   5.889   0.438  1.2748 -0.3907 -0.0494
  485MOL0     H65428   3.137   6.009   0.564  2.7655 -1.2033 -0.5999
  485MOL0     H65429   2.968   6.055   0.314  1.0979  2.9968  1.1897
  485MOL0     H65430   2.970   6.152   0.462 -0.6345 -0.3905 -1.4878
  485MOL0     H65431   2.881   5.944   0.584  0.3498  1.1049  0.1100
  485MOL0     H65432   2.822   5.882   0.427 -0.9349  0.5790  0.1065
  485MOL0     H65433   2.713   6.121   0.390  1.3715  0.7501  0.1485
  485MOL0     H65434   2.748   6.139   0.561  2.4999 -0.7623 -0.6739
  485MOL0     H65435   2.527   6.253   0.456 -0.7378 -0.6584 -1.9801
  485MOL0     H65436   2.216   6.398   0.486 -1.0728  1.3417  1.1206
  485MOL0     H65437   2.344   6.460   0.600 -1.4630  0.2126 -0.6997
  485MOL0     H65438   2.382   6.418   0.430  2.8801 -1.8648  1.1295
  485MOL0     H65439   1.886   5.993   0.845  0.3881 -2.0142 -3.0658
  485MOL0     H65440   1.679   6.011   0.886  2.9630 -0.7770  1.5322
  485MOL0     H65441   1.478   6.417   0.837 -0.5760  0.6880  0.3196
  485MOL0     H65442   1.408   6.353   0.685  1.5277 -1.3527 -0.3579
  485MOL0     H65443   1.313   6.291   0.959  0.8091  0.2334 -0.2279
  485MOL0     H65444   1.246   6.415   0.856 -1.1739 -0.6381  2.0461
  485MOL0     H65445   1.235   6.110   0.788  2.3771  0.8668  2.0821
  485MOL0     H65446   1.145   6.227   0.695 -0.0735 -3.0456 -0.3206
  485MOL0     H65447   1.100   6.178   0.989  3.7511  2.0800 -1.9092
  485MOL0     H65448   0.993   6.270   0.874 -0.3679  0.1963 -1.5120
  485MOL0     H65449   1.048   5.979   0.818  0.9932  1.3814 -2.2658
  485MOL0     H65450   0.911   6.070   0.769  0.0726  1.3536  0.6815
  485MOL0     H65451   0.864   5.910   0.947 -0.6789  0.8161  0.6375
  485MOL0     H65452   0.971   6.002   1.062  0.7689  2.0455  0.1982
  485MOL0     H65453   0.748   6.151   0.922 -0.3833  0.6088 -0.0062
  485MOL0     H65454   0.798   6.174   1.095  1.6292 -1.2195  0.3009
  485MOL0     H65455   0.699   5.967   1.154  1.8337  1.0339 -0.4329
  485MOL0     H65456   0.621   5.942   1.000  0.7091 -0.1788  1.0486
  485MOL0     H65457   1.687   6.409   0.679 -1.0998  0.7162  0.2336
  485MOL0     H65458   1.904   6.375   0.655 -1.7433  0.0151 -0.4703
  485MOL0     H65459   2.254   6.008   0.783  0.3876  0.2822  0.8690
  485MOL0     H65460   2.465   5.919   0.701  2.8752  0.5588 -1.7208
  485MOL0     H65461   4.618   6.493   0.215  0.1565  0.2408 -1.3464
  485MOL0     H65462   4.815   6.390   0.158  1.1905 -1.4689  0.2042
  485MOL0     H65463   5.238   6.270   0.040 -4.6853  1.7574  0.3976
  485MOL0     H65464   5.421   6.139  -0.042 -1.0000 -0.3432  0.1430
  485MOL0     H65465   5.554   6.008  -0.245  0.4956 -0.7164 -1.0683
  485MOL0     H65466   5.564   5.968  -0.070  0.4247  0.7963 -0.0845
  485MOL0     H65467   5.610   5.776  -0.308 -0.4799  0.4569 -0.8382
  485MOL0     H65468   5.633   5.736  -0.134  0.4278  0.1373  0.3647
  485MOL0     H65469   5.804   5.902  -0.109 -0.3139  0.1027 -0.0911
  485MOL0     H65470   5.780   5.959  -0.277  0.3617  0.2543  0.0046
  485MOL0     H65471   5.830   5.689  -0.305 -0.0041 -0.0447  0.8614
  485MOL0     H65472   5.939   5.739  -0.170  0.0548 -0.3663 -0.3078
  485MOL0     H65473   6.151   5.892  -0.499  0.1131 -0.4491  1.1450
  485MOL0     H65474   5.171   5.857  -0.227  2.8410  3.1471 -3.2401
  485MOL0     H65475   4.958   6.002  -0.130 -0.0906  1.5720  0.0434
  486MOL0     O65476   7.373   3.879   4.492 -0.2866  0.3807  0.4977
  486MOL0     C65477   7.393   3.789   4.577  0.1918 -1.0351 -0.6285
  486MOL0     O65478   7.321   3.672   4.580 -0.3216 -0.2504 -0.5697
  486MOL0     C65479   7.211   3.662   4.495 -0.3756 -0.7179 -0.3526
  486MOL0     C65480   7.234   3.648   4.358 -0.0049 -0.0796 -0.7191
  486MOL0     C65481   7.132   3.632   4.265 -0.6444 -0.4460  0.4515
  486MOL0     C65482   6.998   3.635   4.310  0.0381 -0.8298 -0.1005
  486MOL0     O65483   6.885   3.622   4.234 -0.4092  0.1367 -0.0576
  486MOL0     C65484   6.894   3.607   4.092 -1.1106  0.3975  0.6246
  486MOL0     C65485   6.755   3.585   4.041 -0.0674  0.4776  0.0599
  486MOL0     C65486   6.680   3.472   4.123  0.7918 -0.4244  0.4348
  486MOL0     C65487   6.567   3.414   4.044 -0.0119  0.0372  0.2008
  486MOL0     C65488   6.487   3.320   4.119  0.2274 -0.3500 -0.4540
  486MOL0     C65489   6.540   3.179   4.151 -0.4721 -0.1820  0.4256
  486MOL0     C65490   6.467   3.061   4.073 -0.5201  0.1197  0.6735
  486MOL0     C65491   6.521   2.923   4.098  1.0398 -0.6034  0.0966
  486MOL0     N65492   6.496   2.868   4.230 -1.2075 -1.0969 -0.4753
  486MOL0     C65493   6.375   2.826   4.277 -0.1108 -0.3584 -0.2414
  486MOL0     C65494   6.398   2.785   4.397  0.3381  0.2502 -0.1689
  486MOL0     C65495   6.300   2.718   4.492  0.1931  0.5654  0.2775
  486MOL0     C65496   6.152   2.773   4.473  0.2841  0.2605  0.6768
  486MOL0     C65497   6.049   2.673   4.514 -0.2417 -0.2866  0.2715
  486MOL0     C65498   5.911   2.733   4.489 -0.4937  0.2466  0.0599
  486MOL0     O65499   5.813   2.633   4.507 -0.3875 -0.3204  0.6823
  486MOL0     C65500   5.689   2.662   4.463  0.1901 -0.2728 -0.1337
  486MOL0     C65501   5.594   2.558   4.468  0.0323  0.3910  0.2793
  486MOL0     C65502   5.459   2.578   4.437 -0.0639 -0.4918 -0.6332
  486MOL0     C65503   5.365   2.461   4.436 -0.0336 -0.5012  0.0305
  486MOL0     C65504   5.420   2.707   4.396  0.4787 -0.1426 -0.1870
  486MOL0     C65505   5.276   2.744   4.366  0.4933  0.6199 -0.0604
  486MOL0     O65506   5.177   2.653   4.411 -0.1450  0.3761 -0.4503
  486MOL0     C65507   5.039   2.668   4.399 -0.1551  0.2214  0.1227
  486MOL0     C65508   4.964   2.595   4.491  0.4785  0.4992 -0.3161
  486MOL0     C65509   4.828   2.580   4.479 -0.5944  0.2567 -0.3012
  486MOL0     C65510   4.752   2.641   4.391  0.2950 -0.6883  0.6886
  486MOL0     O65511   4.612   2.632   4.399 -0.3256  0.5972  0.0042
  486MOL0     C65512   4.542   2.697   4.289 -1.5050 -0.0202  0.1280
  486MOL0     C65513   4.394   2.655   4.295  0.9228  0.2823  0.7292
  486MOL0     C65514   4.324   2.716   4.421 -0.9149  0.7545  0.1901
  486MOL0     C65515   4.180   2.657   4.422 -0.6708 -0.0641 -0.2725
  486MOL0     C65516   4.108   2.712   4.538 -0.5411 -0.6764 -0.5834
  486MOL0     C65517   3.967   2.657   4.562 -0.3029 -0.2075  0.5323
  486MOL0     C65518   3.889   2.754   4.648 -0.0335 -0.3685 -0.2735
  486MOL0     C65519   3.930   2.750   4.792 -0.0760 -0.3379 -0.1314
  486MOL0    Cl65520   3.829   2.859   4.883  0.0421 -0.2665  0.0858
  486MOL0     C65521   4.830   2.720   4.300 -0.1456  0.4954 -0.1384
  486MOL0     C65522   4.963   2.734   4.299  0.2953 -0.7871  0.1195
  486MOL0     O65523   5.257   2.846   4.306 -0.1898  0.2881  0.1924
  486MOL0     C65524   5.511   2.804   4.364  0.0546  0.5617  0.0738
  486MOL0     C65525   5.642   2.783   4.412  0.0888 -0.4441 -0.3435
  486MOL0     N65526   6.529   2.798   4.432  0.0379  1.2125  0.0601
  486MOL0     N65527   6.589   2.849   4.326 -0.7680  0.4836 -0.7883
  486MOL0     C65528   6.978   3.655   4.447 -0.4278  0.4202  0.2949
  486MOL0     C65529   7.077   3.668   4.542 -0.0791 -0.0179  0.7010
  486MOL0     C65530   7.523   3.794   4.647  0.3364  0.6658 -0.0594
  486MOL0     C65531   7.617   3.887   4.613  0.1295  0.8068 -0.4347
  486MOL0     C65532   7.744   3.892   4.674 -0.3881  0.0975 -0.5666
  486MOL0     C65533   7.779   3.796   4.772 -0.4454 -0.4151  0.2844
  486MOL0     O65534   7.903   3.803   4.843 -0.1668 -0.0757 -0.1087
  486MOL0     C65535   7.999   3.902   4.803 -0.3477 -0.7569  0.1674
  486MOL0     C65536   8.110   3.926   4.901 -0.2350 -0.2036  0.3870
  486MOL0     C65537   8.202   3.807   4.908 -0.3441 -0.0478 -0.5105
  486MOL0     C65538   8.322   3.839   4.992 -0.3266 -0.2802 -0.0809
  486MOL0     C65539   8.425   3.901   4.911  1.1930 -0.7399 -0.6071
  486MOL0     C65540   8.522   3.953   4.867 -0.3924  0.3210  0.0341
  486MOL0     C65541   7.682   3.702   4.806 -0.6768  0.1576  0.6324
  486MOL0     C65542   7.550   3.702   4.753 -0.3367  0.3055  0.4092
  486MOL0     H65543   7.338   3.645   4.328  0.2023 -1.4682  0.0814
  486MOL0     H65544   7.150   3.606   4.161  3.0382  0.0369  0.8185
  486MOL0     H65545   6.943   3.691   4.042  0.9802 -1.3494 -0.4041
  486MOL0     H65546   6.955   3.519   4.070 -0.2477  1.0602  0.2880
  486MOL0     H65547   6.694   3.676   4.050 -0.3366  0.3331 -0.2721
  486MOL0     H65548   6.759   3.555   3.936 -2.9634  0.7840 -0.2385
  486MOL0     H65549   6.750   3.393   4.151  1.1790 -0.8715 -1.6420
  486MOL0     H65550   6.643   3.516   4.216 -0.6521 -2.3291  0.7931
  486MOL0     H65551   6.495   3.493   4.019 -3.7955 -3.3687 -0.8908
  486MOL0     H65552   6.600   3.376   3.947 -1.1649 -0.9084  0.1477
  486MOL0     H65553   6.447   3.362   4.212 -3.3978 -2.4884 -0.8612
  486MOL0     H65554   6.399   3.311   4.055  0.4607  0.2961 -0.8786
  486MOL0     H65555   6.647   3.170   4.131 -0.3071 -0.6500  1.4984
  486MOL0     H65556   6.527   3.162   4.258  0.2818  0.3867  0.6174
  486MOL0     H65557   6.360   3.063   4.097 -0.7866 -0.5325 -0.4173
  486MOL0     H65558   6.471   3.077   3.965 -2.8661  1.0004  0.6432
  486MOL0     H65559   6.628   2.919   4.075  0.9005  0.7183 -0.8911
  486MOL0     H65560   6.470   2.849   4.036 -0.7588  0.5409  0.1593
  486MOL0     H65561   6.278   2.838   4.229 -0.8953  2.6331  1.7532
  486MOL0     H65562   6.301   2.609   4.480 -1.6395  0.5165  0.2314
  486MOL0     H65563   6.320   2.738   4.598  0.5877  2.1449 -0.0852
  486MOL0     H65564   6.123   2.802   4.371  0.8246 -1.3333  0.0459
  486MOL0     H65565   6.148   2.869   4.525  0.5025 -1.0387  3.2233
  486MOL0     H65566   6.064   2.640   4.617  0.6118 -1.7680 -0.2956
  486MOL0     H65567   6.043   2.585   4.450 -2.7965 -0.3495  0.4774
  486MOL0     H65568   5.907   2.772   4.387  0.6301  1.8373  0.5969
  486MOL0     H65569   5.904   2.819   4.556  2.4827  0.0961  0.7200
  486MOL0     H65570   5.621   2.453   4.482 -0.4906  0.1417 -0.5001
  486MOL0     H65571   5.421   2.369   4.457  0.0216 -0.6199 -0.6227
  486MOL0     H65572   5.295   2.475   4.519 -0.6795  0.0201 -0.5903
  486MOL0     H65573   5.314   2.455   4.340  0.6175 -0.5183 -0.3243
  486MOL0     H65574   5.020   2.548   4.571  1.6416 -2.1058 -2.4676
  486MOL0     H65575   4.782   2.506   4.544 -0.3576  0.5034  0.1556
  486MOL0     H65576   4.550   2.805   4.303 -0.0256 -0.2941  1.9183
  486MOL0     H65577   4.594   2.670   4.197 -3.0382 -1.8524 -0.2544
  486MOL0     H65578   4.347   2.703   4.209  0.0721  0.3248  1.2047
  486MOL0     H65579   4.381   2.546   4.287  0.1179  0.5106 -4.1879
  486MOL0     H65580   4.325   2.823   4.401  0.0018  0.8021  0.4644
  486MOL0     H65581   4.388   2.688   4.506  2.3841 -2.7664 -3.0631
  486MOL0     H65582   4.125   2.685   4.331  3.4507  0.4173 -2.8949
  486MOL0     H65583   4.189   2.548   4.428  0.3427  0.0904  1.5840
  486MOL0     H65584   4.104   2.817   4.508  0.2355 -0.4159  0.2083
  486MOL0     H65585   4.167   2.700   4.629 -2.3055  0.7129  0.8161
  486MOL0     H65586   3.920   2.641   4.464 -0.5636  0.0347  0.6163
  486MOL0     H65587   3.960   2.561   4.614  0.9104 -0.7518 -0.2404
  486MOL0     H65588   3.783   2.729   4.650 -0.2459  0.3998 -0.9169
  486MOL0     H65589   3.901   2.858   4.616 -1.6338 -0.8024 -2.5026
  486MOL0     H65590   4.034   2.785   4.797  0.5169 -1.5358 -2.5533
  486MOL0     H65591   3.932   2.656   4.847  0.7112  0.7070  1.7248
  486MOL0     H65592   4.781   2.771   4.217 -1.7181  0.5527  0.7800
  486MOL0     H65593   5.010   2.793   4.220  0.1382 -0.1544  0.4858
  486MOL0     H65594   5.485   2.900   4.319  1.3405  1.5356  1.3037
  486MOL0     H65595   5.709   2.868   4.407 -0.3673 -0.0310  0.4339
  486MOL0     H65596   6.870   3.665   4.459 -0.8345  3.1619 -3.4887
  486MOL0     H65597   7.040   3.698   4.639 -1.0481  2.2921 -0.3048
  486MOL0     H65598   7.601   3.952   4.527 -1.3054 -0.9504 -1.5859
  486MOL0     H65599   7.809   3.973   4.642 -0.6612  0.8607  0.7436
  486MOL0     H65600   8.037   3.884   4.703  0.0315  0.9002 -0.0168
  486MOL0     H65601   7.949   4.000   4.801  0.9107 -0.0342  1.7835
  486MOL0     H65602   8.074   3.947   5.002  1.3727 -3.6101  1.8427
  486MOL0     H65603   8.162   4.016   4.866 -2.4248  0.6494 -0.8580
  486MOL0     H65604   8.221   3.764   4.809 -2.1011  0.3867 -1.0776
  486MOL0     H65605   8.138   3.731   4.952 -0.1682  0.3339  0.4240
  486MOL0     H65606   8.365   3.746   5.030 -0.2336 -0.2610 -0.1414
  486MOL0     H65607   8.296   3.911   5.070  1.7061 -1.4900  1.8228
  486MOL0     H65608   8.620   3.987   4.840 -0.9128  0.8612 -1.2978
  486MOL0     H65609   7.704   3.622   4.875  0.2705  0.0096  0.1838
  486MOL0     H65610   7.490   3.613   4.767  0.5297 -0.3494  0.0548
  487MOL0     O65611   4.857   9.561   2.901 -1.1448 -0.2022 -0.1966
  487MOL0     C65612   4.910   9.568   2.789 -0.0960 -0.2890  0.3441
  487MOL0     O65613   4.853   9.635   2.680  0.0270  0.6127 -0.2990
  487MOL0     C65614   4.734   9.691   2.706  0.4775  0.1588  0.0661
  487MOL0     C65615   4.610   9.612   2.698 -0.5455 -0.3723 -0.4352
  487MOL0     C65616   4.490   9.680   2.702  0.3660  0.1217 -0.2698
  487MOL0     C65617   4.475   9.813   2.724 -0.4940  1.1259  0.3207
  487MOL0     O65618   4.351   9.870   2.725 -0.4714 -0.1134  0.1639
  487MOL0     C65619   4.338  10.013   2.716 -0.4244  0.1792  0.3415
  487MOL0     C65620   4.194  10.038   2.665  0.2853  0.2019  0.0554
  487MOL0     C65621   4.092   9.983   2.771  0.3959 -1.2802  0.8138
  487MOL0     C65622   3.950   9.977   2.723  0.6682  0.0255 -0.7939
  487MOL0     C65623   3.862   9.880   2.802 -0.2014 -0.2895 -0.4454
  487MOL0     C65624   3.717   9.904   2.770 -0.1669 -0.3308 -0.2791
  487MOL0     C65625   3.628   9.814   2.848  0.4345 -0.3011  0.2509
  487MOL0     C65626   3.479   9.814   2.807 -0.3142  0.5660  0.1879
  487MOL0     N65627   3.413   9.706   2.868  0.2100 -0.0867  0.4671
  487MOL0     C65628   3.390   9.705   3.008  0.2901 -0.0517 -0.1504
  487MOL0     C65629   3.347   9.581   3.033 -0.4626  0.0037  1.1156
  487MOL0     C65630   3.312   9.527   3.163  0.2606  0.0928 -0.1813
  487MOL0     C65631   3.179   9.570   3.218  0.6280 -0.9409  0.6296
  487MOL0     C65632   3.062   9.480   3.185 -0.0333 -0.0619 -0.2221
  487MOL0     C65633   2.931   9.553   3.240 -0.5829  0.5649  0.1949
  487MOL0     O65634   2.957   9.563   3.379  0.1112  0.1738  0.0078
  487MOL0     C65635   2.895   9.653   3.468 -0.6064 -0.1086 -0.1197
  487MOL0     C65636   2.946   9.673   3.600 -0.1946  0.2285  0.2749
  487MOL0     C65637   2.887   9.772   3.682 -1.5184  0.6616  0.0448
  487MOL0     C65638   2.957   9.793   3.821  0.9607 -0.1340 -0.2921
  487MOL0     C65639   2.771   9.847   3.646  0.2338 -0.4997  0.3090
  487MOL0     C65640   2.696   9.942   3.729  0.2475 -0.3465  0.1801
  487MOL0     O65641   2.619  10.040   3.660 -0.2999  0.7824  0.2425
  487MOL0     C65642   2.527  10.116   3.726  1.1154  0.8484  0.1511
  487MOL0     C65643   2.399  10.112   3.677 -0.7211  1.0966  0.5112
  487MOL0     C65644   2.302  10.199   3.717 -0.3540  0.6650  0.1432
  487MOL0     C65645   2.326  10.290   3.817  0.6265  0.9007  0.3801
  487MOL0     O65646   2.221  10.379   3.854 -0.6373  0.7574  0.4595
  487MOL0     C65647   2.241  10.450   3.973 -0.1521 -0.9301  0.3645
  487MOL0     C65648   2.112  10.522   3.999 -0.1720 -0.5792  0.5277
  487MOL0     C65649   2.117  10.578   4.147 -0.5078  0.2862  0.5384
  487MOL0     C65650   2.036  10.710   4.169  0.3284  0.3385 -0.7973
  487MOL0     C65651   1.890  10.675   4.186  0.7887  0.5646  0.7537
  487MOL0     C65652   1.804  10.805   4.177  0.1438 -0.2007  0.3531
  487MOL0     C65653   1.653  10.785   4.172  1.0681  0.4347  0.0644
  487MOL0     C65654   1.601  10.728   4.308  0.0565 -0.2126 -0.3028
  487MOL0    Cl65655   1.609  10.852   4.437 -0.1323 -0.1723 -0.5804
  487MOL0     C65656   2.449  10.290   3.872 -0.0450  0.0322  0.4367
  487MOL0     C65657   2.554  10.203   3.832 -0.2731 -0.1490 -0.8136
  487MOL0     O65658   2.699   9.941   3.851  0.8366  0.4640  0.0087
  487MOL0     C65659   2.732   9.833   3.509  0.0127  0.5742 -0.7908
  487MOL0     C65660   2.788   9.729   3.433  1.0958 -0.2891 -0.0191
  487MOL0     N65661   3.328   9.509   2.916 -0.0919  0.0260  0.1662
  487MOL0     N65662   3.377   9.584   2.822 -0.5160 -0.5709  0.1946
  487MOL0     C65663   4.595   9.884   2.746 -0.1959 -0.1269  0.6296
  487MOL0     C65664   4.721   9.827   2.734  0.6247 -0.6042  0.5517
  487MOL0     C65665   5.048   9.515   2.759 -0.5126  0.1362 -0.3458
  487MOL0     C65666   5.127   9.469   2.864 -0.5036  0.1916 -0.5684
  487MOL0     C65667   5.254   9.404   2.836  0.3596  0.0601  0.6727
  487MOL0     C65668   5.284   9.378   2.701 -0.4773  0.1253 -0.7178
  487MOL0     O65669   5.390   9.296   2.676 -0.0885 -0.0243 -0.2624
  487MOL0     C65670   5.403   9.237   2.552 -0.3022  0.3397  0.1016
  487MOL0     C65671   5.510   9.138   2.579 -0.5766  0.1468  0.0035
  487MOL0     C65672   5.648   9.203   2.586 -0.4753 -0.1637 -0.1926
  487MOL0     C65673   5.752   9.092   2.564 -0.4541  0.1441  0.4134
  487MOL0     C65674   5.882   9.141   2.588 -0.4406 -0.1872 -0.6734
  487MOL0     C65675   6.002   9.175   2.609  0.0713 -0.1874  0.5879
  487MOL0     C65676   5.210   9.427   2.598  0.1599  0.4368  0.9351
  487MOL0     C65677   5.096   9.502   2.627  0.4199 -0.2239 -0.5898
  487MOL0     H65678   4.613   9.508   2.669  0.4768 -0.5613  0.2855
  487MOL0     H65679   4.407   9.612   2.687  1.3605 -1.7132  1.9922
  487MOL0     H65680   4.348  10.063   2.813  1.9315  1.7623 -0.6157
  487MOL0     H65681   4.410  10.059   2.648 -1.1636  2.5243  1.0116
  487MOL0     H65682   4.184  10.145   2.646  1.0546  0.9714  3.3357
  487MOL0     H65683   4.178   9.994   2.566  0.9648  1.5385 -0.6756
  487MOL0     H65684   4.115   9.879   2.796  1.1240 -1.7607 -1.5859
  487MOL0     H65685   4.096  10.049   2.858 -0.1099  0.9896 -0.8110
  487MOL0     H65686   3.906  10.078   2.725 -0.4548 -0.4171  1.5472
  487MOL0     H65687   3.938   9.940   2.621 -0.0409 -3.0154  0.2839
  487MOL0     H65688   3.900   9.778   2.787  3.8602  1.0514 -0.5170
  487MOL0     H65689   3.875   9.892   2.910 -0.8187 -3.7011  0.1478
  487MOL0     H65690   3.700  10.011   2.781  1.9256  0.0824 -0.6978
  487MOL0     H65691   3.702   9.881   2.664 -1.1535  2.5795 -0.8400
  487MOL0     H65692   3.665   9.712   2.835  0.0676 -0.1541 -2.6680
  487MOL0     H65693   3.636   9.843   2.953  2.2025 -2.2071  0.7066
  487MOL0     H65694   3.466   9.808   2.699 -1.3545 -3.3762  0.3672
  487MOL0     H65695   3.424   9.901   2.845  0.5667  0.2857  2.2796
  487MOL0     H65696   3.407   9.775   3.089  1.7319 -1.8068  1.1678
  487MOL0     H65697   3.318   9.418   3.172  0.6922 -0.0916 -2.1648
  487MOL0     H65698   3.389   9.569   3.228  1.5153 -0.0770 -1.4965
  487MOL0     H65699   3.163   9.675   3.191  2.8028 -0.9173 -0.7865
  487MOL0     H65700   3.194   9.568   3.327 -1.7399 -0.6020  1.0194
  487MOL0     H65701   3.069   9.385   3.238  0.0782  1.2095  2.1484
  487MOL0     H65702   3.054   9.463   3.077 -0.8155  1.0743 -0.3614
  487MOL0     H65703   2.849   9.484   3.223  0.1168 -0.1949 -0.1790
  487MOL0     H65704   2.916   9.656   3.205  0.5262  0.6012 -0.2323
  487MOL0     H65705   3.032   9.617   3.636  0.2819  1.8776  1.8910
  487MOL0     H65706   2.936   9.895   3.854 -0.9809 -0.6977  0.3665
  487MOL0     H65707   2.930   9.725   3.902 -1.4770  0.7256 -0.3013
  487MOL0     H65708   3.063   9.776   3.800  1.2242 -0.4163  1.1978
  487MOL0     H65709   2.372  10.041   3.599  0.2905 -0.2333  1.3260
  487MOL0     H65710   2.207  10.190   3.665  0.5748  1.8026 -1.8902
  487MOL0     H65711   2.271  10.382   4.054 -0.1637 -1.5098 -0.1126
  487MOL0     H65712   2.318  10.526   3.960 -1.2938  0.0672 -0.8000
  487MOL0     H65713   2.096  10.607   3.933  0.3646 -0.9671 -0.1116
  487MOL0     H65714   2.030  10.450   3.985 -2.2149  1.8277 -0.7869
  487MOL0     H65715   2.223  10.594   4.168  0.0092 -2.7819  0.6005
  487MOL0     H65716   2.092  10.499   4.219 -0.3659 -0.7986 -0.5789
  487MOL0     H65717   2.066  10.765   4.259  0.0076 -1.1238  0.2485
  487MOL0     H65718   2.044  10.779   4.085 -1.6563  0.7275 -0.7079
  487MOL0     H65719   1.877  10.633   4.286  2.1791 -3.9376 -0.7316
  487MOL0     H65720   1.855  10.604   4.111  0.7322  0.5636  0.7816
  487MOL0     H65721   1.836  10.873   4.256  1.8002  1.2168 -1.4154
  487MOL0     H65722   1.837  10.843   4.080  1.2591  0.5571  1.0075
  487MOL0     H65723   1.643  10.702   4.102  0.6942 -1.2748  2.0251
  487MOL0     H65724   1.595  10.872   4.142  3.2793  3.0285  2.6844
  487MOL0     H65725   1.663  10.641   4.333 -2.1978 -2.3454 -1.6136
  487MOL0     H65726   1.499  10.692   4.290  0.7842 -1.3572 -2.5508
  487MOL0     H65727   2.479  10.367   3.942  1.2057 -0.0368 -0.0072
  487MOL0     H65728   2.656  10.196   3.870  0.1850 -1.9378 -2.2547
  487MOL0     H65729   2.643   9.885   3.473 -0.8153 -1.0549 -1.1764
  487MOL0     H65730   2.751   9.722   3.331 -1.4026  0.6618  0.7409
  487MOL0     H65731   4.575   9.989   2.763  0.1057  0.0061  0.1663
  487MOL0     H65732   4.807   9.893   2.742  0.0150  0.1982  0.5378
  487MOL0     H65733   5.090   9.473   2.966 -2.7672 -4.2789 -0.9379
  487MOL0     H65734   5.324   9.370   2.911  0.3235 -1.1336  0.1861
  487MOL0     H65735   5.307   9.195   2.520 -2.2058  4.9515 -1.0152
  487MOL0     H65736   5.435   9.307   2.475 -1.5302  0.9501  0.1292
  487MOL0     H65737   5.507   9.075   2.489  3.4469  1.6031 -1.4024
  487MOL0     H65738   5.499   9.070   2.664  4.4879 -1.2791 -0.0963
  487MOL0     H65739   5.651   9.239   2.690 -2.2471 -0.7195  0.1029
  487MOL0     H65740   5.651   9.281   2.510 -0.6606  0.4600  0.4218
  487MOL0     H65741   5.749   9.062   2.459 -1.5801 -0.7931  0.7010
  487MOL0     H65742   5.735   9.009   2.633 -2.8138  0.8315  0.7376
  487MOL0     H65743   6.108   9.190   2.617  0.7813 -2.3195 -2.6451
  487MOL0     H65744   5.240   9.420   2.494  1.0780 -1.5563  1.2771
  487MOL0     H65745   5.044   9.551   2.545  4.3141  0.7800 -2.7360
  488MOL0     O65746   7.067   4.105   0.817  0.1613 -0.0719 -0.1574
  488MOL0     C65747   7.032   3.985   0.811 -0.6605 -0.1408 -0.2034
  488MOL0     O65748   6.900   3.943   0.805 -0.9249 -0.0620  0.3117
  488MOL0     C65749   6.798   4.039   0.815 -0.6030  0.0930 -0.9592
  488MOL0     C65750   6.712   4.051   0.710 -0.2263  0.0038 -0.8657
  488MOL0     C65751   6.601   4.140   0.727  0.1417  0.6051 -0.2944
  488MOL0     C65752   6.583   4.216   0.838  0.0001 -0.3000 -0.1250
  488MOL0     O65753   6.464   4.288   0.845 -1.0286 -0.4611  0.0100
  488MOL0     C65754   6.415   4.346   0.968 -0.9284  0.8247 -0.1080
  488MOL0     C65755   6.268   4.394   0.964 -0.5798 -0.9818  0.3042
  488MOL0     C65756   6.271   4.550   0.971 -0.3150 -0.9401  0.7948
  488MOL0     C65757   6.137   4.630   0.936 -0.3570  1.6375 -0.3303
  488MOL0     C65758   6.024   4.604   1.044 -0.1047  0.6550 -0.2284
  488MOL0     C65759   5.884   4.648   0.997 -0.1008 -0.7139  0.3403
  488MOL0     C65760   5.862   4.802   0.995 -0.0444  0.2798  0.2192
  488MOL0     C65761   5.713   4.834   0.976  0.1755  0.3087 -0.0964
  488MOL0     N65762   5.654   4.817   1.106 -0.2063  0.4458 -0.3587
  488MOL0     C65763   5.591   4.703   1.160  0.2203 -0.3840  0.0102
  488MOL0     C65764   5.552   4.745   1.282  0.5208 -0.1267 -0.3548
  488MOL0     C65765   5.458   4.670   1.377  0.3902 -0.1243  0.2732
  488MOL0     C65766   5.335   4.612   1.324  0.3106 -0.0378 -0.6461
  488MOL0     C65767   5.255   4.716   1.243  0.3104  0.1190 -0.1158
  488MOL0     C65768   5.148   4.632   1.156 -0.9027 -0.3530 -0.9476
  488MOL0     O65769   5.038   4.601   1.235  0.3824  0.5717 -1.0483
  488MOL0     C65770   4.910   4.648   1.203 -0.3824 -0.0131  0.6345
  488MOL0     C65771   4.799   4.605   1.285 -0.3949 -0.0743 -0.1179
  488MOL0     C65772   4.662   4.644   1.262  0.8818 -0.5461 -0.3143
  488MOL0     C65773   4.559   4.583   1.346 -0.1392 -0.1164 -0.0204
  488MOL0     C65774   4.634   4.732   1.147  0.9856 -0.3072  0.4797
  488MOL0     C65775   4.498   4.791   1.110 -0.5578 -0.2405  1.2103
  488MOL0     O65776   4.391   4.758   1.187  0.1535  0.6817 -0.4630
  488MOL0     C65777   4.262   4.795   1.164  0.1265 -0.2593  0.3436
  488MOL0     C65778   4.219   4.913   1.095  0.5310  0.6533 -0.3467
  488MOL0     C65779   4.083   4.943   1.091 -0.6902  0.8277  0.3389
  488MOL0     C65780   3.982   4.866   1.140  0.5314 -0.0276  0.3802
  488MOL0     O65781   3.847   4.900   1.113  0.2622  0.2413  0.2451
  488MOL0     C65782   3.798   5.032   1.132 -0.5773  0.3203 -0.5297
  488MOL0     C65783   3.660   5.010   1.183 -0.1158 -0.0802 -0.6735
  488MOL0     C65784   3.590   5.141   1.222  1.2362 -0.0872 -0.1840
  488MOL0     C65785   3.437   5.131   1.187  0.3446  0.1678  0.0032
  488MOL0     C65786   3.366   5.264   1.178 -0.9481  0.5609 -0.0625
  488MOL0     C65787   3.213   5.235   1.168  1.1979  0.6072  0.4673
  488MOL0     C65788   3.124   5.367   1.174  0.2612  0.1945 -0.7741
  488MOL0     C65789   2.981   5.334   1.125  0.4447  0.2738 -0.4545
  488MOL0    Cl65790   2.879   5.247   1.246  0.3469 -0.2648  0.1253
  488MOL0     C65791   4.021   4.764   1.221  0.4237  0.0234 -0.0037
  488MOL0     C65792   4.156   4.735   1.239 -0.2200 -0.3994 -0.0363
  488MOL0     O65793   4.483   4.857   1.001  0.1118 -0.5587  0.1928
  488MOL0     C65794   4.743   4.780   1.074  0.1880  0.0222  0.4519
  488MOL0     C65795   4.882   4.740   1.098  0.4244  0.3673 -0.4660
  488MOL0     N65796   5.574   4.881   1.296 -1.0072 -0.4011  0.0560
  488MOL0     N65797   5.645   4.923   1.197  0.6945 -0.5671  0.4571
  488MOL0     C65798   6.677   4.206   0.945  0.1733  0.4363 -0.2279
  488MOL0     C65799   6.789   4.121   0.933  0.3101 -0.6725  0.3205
  488MOL0     C65800   7.132   3.880   0.798 -0.2661  0.3520  0.7072
  488MOL0     C65801   7.094   3.747   0.773 -0.3971 -0.5033 -0.1173
  488MOL0     C65802   7.186   3.644   0.769  0.8078 -0.4340 -0.4869
  488MOL0     C65803   7.318   3.674   0.788  0.3611 -0.5238  0.4238
  488MOL0     O65804   7.423   3.586   0.777 -0.6460  0.0510  0.1394
  488MOL0     C65805   7.398   3.451   0.749  0.7786  0.1183 -0.0100
  488MOL0     C65806   7.519   3.361   0.775 -0.2618 -0.3405  0.4503
  488MOL0     C65807   7.636   3.406   0.692 -0.3714 -0.4825  0.0385
  488MOL0     C65808   7.771   3.331   0.713 -0.0518  0.0584  0.7307
  488MOL0     C65809   7.842   3.370   0.830  0.6499 -1.2622 -0.5059
  488MOL0     C65810   7.914   3.404   0.919 -0.1255 -0.5999 -0.5779
  488MOL0     C65811   7.353   3.806   0.813 -0.4339  0.1778 -0.8033
  488MOL0     C65812   7.268   3.911   0.808  0.5632 -0.5767  0.0926
  488MOL0     H65813   6.717   3.996   0.616 -0.4045 -0.5008 -0.5893
  488MOL0     H65814   6.523   4.155   0.653 -0.4407 -2.0016 -0.3113
  488MOL0     H65815   6.411   4.273   1.049  0.2460 -0.7485 -1.4154
  488MOL0     H65816   6.487   4.427   0.986  0.0612 -0.1126  0.2104
  488MOL0     H65817   6.220   4.358   0.872 -0.4147  0.0293 -0.1952
  488MOL0     H65818   6.209   4.351   1.045 -0.4224 -0.5507  0.6485
  488MOL0     H65819   6.302   4.577   1.072  2.1146  1.6037 -0.5096
  488MOL0     H65820   6.348   4.590   0.905 -0.1798  2.0379  2.5948
  488MOL0     H65821   6.163   4.736   0.935  0.8117  1.4426  2.0549
  488MOL0     H65822   6.098   4.595   0.840  2.9933 -3.0735 -0.3710
  488MOL0     H65823   6.022   4.495   1.056 -1.3140  0.7195  0.2626
  488MOL0     H65824   6.049   4.646   1.142 -1.2804  0.4579  0.1693
  488MOL0     H65825   5.870   4.605   0.897 -3.4878 -0.3169  0.5432
  488MOL0     H65826   5.807   4.613   1.066 -3.3369  1.8277 -1.6566
  488MOL0     H65827   5.906   4.856   1.080 -2.9293  1.8569  0.8373
  488MOL0     H65828   5.915   4.849   0.911 -0.9626  0.1130 -0.4634
  488MOL0     H65829   5.672   4.765   0.902  0.2471  0.4840 -0.3041
  488MOL0     H65830   5.697   4.936   0.939  1.0982  1.2728  2.0252
  488MOL0     H65831   5.567   4.610   1.109 -1.5367 -0.3187  0.6651
  488MOL0     H65832   5.523   4.588   1.409  0.5897  0.3099  1.0205
  488MOL0     H65833   5.443   4.732   1.466  0.8924  4.9926 -2.7858
  488MOL0     H65834   5.286   4.583   1.417 -0.4308  1.5802 -0.4983
  488MOL0     H65835   5.373   4.535   1.256  2.1766 -2.8073  3.1478
  488MOL0     H65836   5.310   4.788   1.182  0.2191  0.4807  0.2272
  488MOL0     H65837   5.207   4.784   1.314  1.6123  1.7493 -0.7474
  488MOL0     H65838   5.184   4.540   1.110 -2.3668 -0.4874 -1.9284
  488MOL0     H65839   5.130   4.691   1.065 -1.8304 -0.5658 -0.9127
  488MOL0     H65840   4.819   4.526   1.357  3.5916  0.5438 -0.3068
  488MOL0     H65841   4.609   4.524   1.424 -0.7756  0.7382  1.0655
  488MOL0     H65842   4.505   4.661   1.401  2.0969  0.0788  2.0839
  488MOL0     H65843   4.497   4.525   1.277  0.4132 -0.0147 -0.6027
  488MOL0     H65844   4.295   4.982   1.061  0.0651  1.1592 -0.3803
  488MOL0     H65845   4.046   5.033   1.043  0.7601  2.2145  1.7115
  488MOL0     H65846   3.856   5.098   1.198 -2.2872  2.3967 -0.9787
  488MOL0     H65847   3.798   5.083   1.035 -0.2561 -0.2509 -0.8353
  488MOL0     H65848   3.600   4.977   1.098 -0.8403 -0.1630 -0.1347
  488MOL0     H65849   3.647   4.928   1.254 -1.9878  0.3023 -0.5300
  488MOL0     H65850   3.645   5.224   1.177  2.7475 -0.3370  1.0833
  488MOL0     H65851   3.598   5.163   1.329  1.0686  0.3178 -0.2556
  488MOL0     H65852   3.426   5.079   1.091  1.3405 -0.6717  0.3273
  488MOL0     H65853   3.399   5.068   1.268 -1.8846 -1.8308 -2.3938
  488MOL0     H65854   3.401   5.319   1.089  0.2437  3.6727  2.1274
  488MOL0     H65855   3.375   5.329   1.265  0.6391  0.5683 -0.1890
  488MOL0     H65856   3.194   5.171   1.081  0.4541  1.8448 -0.3185
  488MOL0     H65857   3.191   5.181   1.260  0.8741  0.4612  0.3050
  488MOL0     H65858   3.176   5.442   1.114  1.0501  0.7601  0.5534
  488MOL0     H65859   3.121   5.401   1.278 -0.1073  2.1340 -1.3880
  488MOL0     H65860   2.995   5.270   1.038  0.2254  1.7675 -1.6221
  488MOL0     H65861   2.934   5.424   1.084 -0.0125 -0.4342 -1.5078
  488MOL0     H65862   3.944   4.705   1.270  1.1466 -1.3022 -0.4150
  488MOL0     H65863   4.188   4.663   1.313 -0.2276 -2.3397 -1.8295
  488MOL0     H65864   4.728   4.838   0.983  0.9108 -0.1773  0.1996
  488MOL0     H65865   4.953   4.781   1.027 -1.2953  0.9188 -1.9357
  488MOL0     H65866   6.666   4.279   1.024  2.2112 -1.8005  2.2630
  488MOL0     H65867   6.862   4.120   1.013  1.6062 -0.1720 -0.8225
  488MOL0     H65868   6.990   3.721   0.752  0.0991 -2.3758 -0.3972
  488MOL0     H65869   7.156   3.542   0.748  1.2937 -0.2380 -2.2331
  488MOL0     H65870   7.314   3.410   0.806  1.1084 -2.7498 -1.4159
  488MOL0     H65871   7.362   3.441   0.647  2.4020 -0.3163 -0.5713
  488MOL0     H65872   7.500   3.262   0.732  0.4356  0.3790 -1.6424
  488MOL0     H65873   7.542   3.365   0.882 -1.8860 -0.6479  0.8307
  488MOL0     H65874   7.661   3.512   0.704  0.2246 -0.1084 -3.5005
  488MOL0     H65875   7.609   3.411   0.587  3.4690  1.5970 -1.0492
  488MOL0     H65876   7.823   3.361   0.622 -1.5825 -1.0190 -0.5582
  488MOL0     H65877   7.755   3.223   0.701 -1.0234  0.3365 -0.6556
  488MOL0     H65878   7.990   3.431   0.990 -0.6060  0.2244 -0.3624
  488MOL0     H65879   7.458   3.829   0.833 -1.0312  0.5544  2.6323
  488MOL0     H65880   7.306   4.009   0.837 -1.7266  0.4604 -0.1456
  489MOL0     O65881   9.878  10.955  10.751 -0.3770  0.1932  0.1830
  489MOL0     C65882   9.911  10.901  10.643  0.7966 -0.0800  0.5241
  489MOL0     O65883   9.825  10.829  10.570 -0.7270  0.0005  0.1178
  489MOL0     C65884   9.726  10.777  10.641  0.2861 -0.0548 -0.3144
  489MOL0     C65885   9.602  10.825  10.604  0.4790 -0.5037  0.0029
  489MOL0     C65886   9.482  10.782  10.670  0.0304 -0.1211  0.3867
  489MOL0     C65887   9.496  10.695  10.780 -0.4982  0.3045  0.1234
  489MOL0     O65888   9.387  10.641  10.847 -0.1680 -0.8270 -0.2402
  489MOL0     C65889   9.317  10.721  10.933  1.0761 -0.2379 -0.5023
  489MOL0     C65890   9.175  10.679  10.945 -0.3695  0.9879  0.7747
  489MOL0     C65891   9.091  10.772  11.032  0.4173  0.1710  0.1251
  489MOL0     C65892   9.126  10.779  11.177  0.1049 -0.0821  0.2475
  489MOL0     C65893   9.048  10.873  11.262 -0.0871 -0.2499 -0.1796
  489MOL0     C65894   8.898  10.849  11.254  0.5736 -0.0881  0.4195
  489MOL0     C65895   8.817  10.936  11.341  0.0865 -0.3668 -0.5014
  489MOL0     C65896   8.830  10.908  11.493  0.6502  0.8483  0.4180
  489MOL0     N65897   8.715  10.975  11.570  0.6094  0.1380  0.3202
  489MOL0     C65898   8.614  10.911  11.633  0.0606  0.1369  0.0079
  489MOL0     C65899   8.549  11.008  11.709 -0.3777  1.4105  0.2189
  489MOL0     C65900   8.450  10.972  11.818  0.2048  0.0109  0.5579
  489MOL0     C65901   8.339  11.074  11.844 -0.9624  0.5084  0.1520
  489MOL0     C65902   8.225  11.078  11.741  0.8302 -0.3114 -0.9508
  489MOL0     C65903   8.166  10.943  11.709  0.4926 -0.1398  1.1442
  489MOL0     O65904   8.044  10.972  11.640  0.0756  0.3203  0.3023
  489MOL0     C65905   7.951  10.871  11.619 -0.4790 -0.8211  0.4575
  489MOL0     C65906   7.987  10.738  11.616 -0.9192  0.7831  0.6139
  489MOL0     C65907   7.902  10.631  11.589  0.1323  0.8151  0.3653
  489MOL0     C65908   7.962  10.488  11.603  0.4857  1.5362  0.6209
  489MOL0     C65909   7.768  10.661  11.564  1.0196  0.7449 -0.2260
  489MOL0     C65910   7.655  10.560  11.546  0.1483 -0.2179  0.6327
  489MOL0     O65911   7.528  10.612  11.530  0.0685  0.5201 -0.1731
  489MOL0     C65912   7.421  10.530  11.515  0.5108 -0.1467  0.5510
  489MOL0     C65913   7.376  10.482  11.379 -0.8607  0.7844 -0.1386
  489MOL0     C65914   7.263  10.403  11.368 -0.2942  0.4093 -0.1813
  489MOL0     C65915   7.194  10.372  11.489 -0.1098 -0.2693 -0.1572
  489MOL0     O65916   7.078  10.296  11.488 -0.4193 -0.3723 -0.4234
  489MOL0     C65917   6.995  10.288  11.367 -0.2077  0.9961  0.7987
  489MOL0     C65918   6.919  10.417  11.325 -0.3622  0.6605 -0.0663
  489MOL0     C65919   6.810  10.452  11.424  0.7322  0.3469 -0.4478
  489MOL0     C65920   6.719  10.574  11.388 -0.3594  0.8700 -0.8663
  489MOL0     C65921   6.600  10.598  11.481  0.7980  0.6130 -0.3803
  489MOL0     C65922   6.474  10.515  11.429  0.1750  0.0684  0.6755
  489MOL0     C65923   6.415  10.553  11.286  0.4018  0.5550 -0.2274
  489MOL0     C65924   6.270  10.504  11.264  0.2603  0.3865 -0.2398
  489MOL0    Cl65925   6.162  10.588  11.376 -0.2258  0.1920 -0.2224
  489MOL0     C65926   7.234  10.424  11.614  0.5607 -0.0839  0.0380
  489MOL0     C65927   7.349  10.504  11.625  0.1890 -0.2334  0.2838
  489MOL0     O65928   7.679  10.441  11.541  0.2177  0.4061  0.6259
  489MOL0     C65929   7.729  10.801  11.553  0.0014 -0.0365 -0.4389
  489MOL0     C65930   7.823  10.900  11.582 -0.1749 -0.2295 -0.1544
  489MOL0     N65931   8.622  11.127  11.692 -0.3758  0.0425  0.4961
  489MOL0     N65932   8.709  11.106  11.599  0.0161  0.2441  0.6104
  489MOL0     C65933   9.625  10.647  10.812  0.3242 -0.0598 -0.7129
  489MOL0     C65934   9.739  10.695  10.754  0.4357 -0.1408  0.6271
  489MOL0     C65935  10.039  10.943  10.579 -0.4743 -0.1342  0.2003
  489MOL0     C65936  10.107  11.045  10.651 -0.1616 -1.2139 -0.1563
  489MOL0     C65937  10.228  11.088  10.592  0.7413 -0.3051 -0.5577
  489MOL0     C65938  10.278  11.048  10.473  0.3787  0.1842 -0.8010
  489MOL0     O65939  10.387  11.095  10.425  0.3000  0.1155 -0.2868
  489MOL0     C65940  10.500  11.061  10.510 -0.4874  0.3653  0.1405
  489MOL0     C65941  10.611  11.005  10.419 -0.0454  0.0662  0.6544
  489MOL0     C65942  10.720  11.109  10.391 -0.0498  0.1913 -1.1062
  489MOL0     C65943  10.819  11.118  10.505  0.6221 -0.2636  0.3393
  489MOL0     C65944  10.897  10.991  10.507  0.2896 -0.4165 -0.2335
  489MOL0     C65945  10.965  10.888  10.520 -0.5944  0.4260 -0.2531
  489MOL0     C65946  10.210  10.954  10.396 -0.2737  1.0724 -0.7177
  489MOL0     C65947  10.087  10.891  10.457  0.6732 -0.6358 -0.3673
  489MOL0     H65948   9.598  10.884  10.513 -0.2561 -0.6590 -0.0759
  489MOL0     H65949   9.383  10.810  10.635  1.1716  1.5300 -1.8176
  489MOL0     H65950   9.369  10.724  11.029 -1.1777  4.3820  0.8547
  489MOL0     H65951   9.314  10.827  10.903  0.2210 -0.3037 -0.6669
  489MOL0     H65952   9.133  10.667  10.845  1.4863  1.9916 -0.1665
  489MOL0     H65953   9.164  10.587  11.003 -0.2224  1.7685  2.0726
  489MOL0     H65954   9.093  10.871  10.986 -0.8574  0.2636  0.2163
  489MOL0     H65955   8.988  10.736  11.025  0.1908  0.0638  2.7859
  489MOL0     H65956   9.115  10.683  11.229 -2.2664  0.0460  0.0810
  489MOL0     H65957   9.230  10.810  11.194 -0.1002 -0.1687  1.8568
  489MOL0     H65958   9.069  10.843  11.365  1.0598 -1.4917 -0.7506
  489MOL0     H65959   9.056  10.979  11.235  0.0786 -0.2607 -0.1788
  489MOL0     H65960   8.869  10.885  11.155 -2.6591  0.2629  1.3796
  489MOL0     H65961   8.864  10.747  11.270 -2.4194  1.0039  1.8220
  489MOL0     H65962   8.846  11.042  11.339  1.1270 -0.4635  2.7525
  489MOL0     H65963   8.711  10.926  11.317 -0.3376  2.4919 -0.2146
  489MOL0     H65964   8.931  10.937  11.524  0.5754  1.0735  0.4546
  489MOL0     H65965   8.819  10.803  11.522  1.4800  0.2240 -1.4147
  489MOL0     H65966   8.601  10.803  11.630  1.0503 -0.0272  0.9392
  489MOL0     H65967   8.413  10.873  11.792  0.5269  0.6502 -2.7338
  489MOL0     H65968   8.511  10.966  11.909  1.0864  2.2169  0.1792
  489MOL0     H65969   8.386  11.171  11.864  1.6692 -0.5051 -0.6715
  489MOL0     H65970   8.296  11.035  11.937  1.6967 -1.8052  0.5368
  489MOL0     H65971   8.257  11.138  11.655  2.3332  1.4486  0.7331
  489MOL0     H65972   8.147  11.147  11.773  0.2913 -1.7922  1.1494
  489MOL0     H65973   8.153  10.884  11.800  0.8907  2.3669  2.9197
  489MOL0     H65974   8.235  10.892  11.641  0.6150  1.4462  0.0099
  489MOL0     H65975   8.090  10.712  11.639  0.0694  3.3335 -0.5468
  489MOL0     H65976   8.070  10.483  11.619  1.0298 -1.9570 -2.5065
  489MOL0     H65977   7.901  10.423  11.667  0.4186 -0.2772 -1.1711
  489MOL0     H65978   7.950  10.422  11.516 -0.5050 -1.1608  2.6481
  489MOL0     H65979   7.439  10.505  11.294 -2.3285  0.8584 -1.2458
  489MOL0     H65980   7.228  10.358  11.275 -0.1528  0.2227 -0.1455
  489MOL0     H65981   7.069  10.254  11.294  0.7854 -1.3836  2.7746
  489MOL0     H65982   6.932  10.200  11.377 -0.1341  0.8290 -0.0944
  489MOL0     H65983   6.980  10.507  11.320  0.3985  0.1086 -3.5077
  489MOL0     H65984   6.882  10.398  11.224  1.8898  2.6001 -1.3289
  489MOL0     H65985   6.865  10.462  11.518  2.1052 -1.5293 -1.0083
  489MOL0     H65986   6.751  10.361  11.438  0.5017  0.5117 -0.3350
  489MOL0     H65987   6.786  10.660  11.395  2.6292 -1.3519 -0.4853
  489MOL0     H65988   6.690  10.570  11.282  0.8881  2.5975 -1.3167
  489MOL0     H65989   6.581  10.705  11.491 -1.0731  0.1696  1.5056
  489MOL0     H65990   6.629  10.557  11.578  0.1693 -1.2673 -0.9284
  489MOL0     H65991   6.492  10.407  11.426 -3.7013 -0.7049  0.1112
  489MOL0     H65992   6.392  10.541  11.498 -1.0944 -0.1012 -0.7147
  489MOL0     H65993   6.481  10.495  11.221 -1.5736 -1.4481 -0.5756
  489MOL0     H65994   6.424  10.659  11.262 -0.7861  0.7747  0.2481
  489MOL0     H65995   6.263  10.395  11.263 -0.2368  0.4093  0.6481
  489MOL0     H65996   6.235  10.551  11.171  0.3890  1.9202  0.4508
  489MOL0     H65997   7.169  10.395  11.695  1.3094 -2.4521 -0.1365
  489MOL0     H65998   7.391  10.544  11.717 -0.3408  0.1377  0.3686
  489MOL0     H65999   7.625  10.829  11.539  0.6297  2.5334 -0.3874
  489MOL0     H66000   7.794  11.003  11.594  1.6821  0.1857  1.2760
  489MOL0     H66001   9.639  10.580  10.896  1.6527  1.0730  0.0160
  489MOL0     H66002   9.837  10.664  10.788  0.8790  2.9409  2.6137
  489MOL0     H66003  10.067  11.090  10.741  0.1990  1.5046 -1.2411
  489MOL0     H66004  10.279  11.157  10.659  0.6228 -0.5360 -0.2336
  489MOL0     H66005  10.534  11.149  10.566  0.3444 -1.0640  2.0050
  489MOL0     H66006  10.477  10.990  10.590  1.1740  0.2010  0.5067
  489MOL0     H66007  10.570  10.978  10.321  1.1700 -1.7160  0.5982
  489MOL0     H66008  10.660  10.919  10.466  0.4591  0.6237  1.1544
  489MOL0     H66009  10.672  11.206  10.379 -1.6162 -0.5481 -1.1163
  489MOL0     H66010  10.761  11.078  10.294 -4.3109 -1.2234 -2.7136
  489MOL0     H66011  10.757  11.115  10.595 -2.2659  0.9466 -1.4643
  489MOL0     H66012  10.884  11.205  10.493  3.7994 -2.6392 -1.1331
  489MOL0     H66013  11.030  10.804  10.533  3.3940  3.1412 -1.0991
  489MOL0     H66014  10.265  10.927  10.307  2.6723  1.1793  0.9395
  489MOL0     H66015  10.034  10.813  10.403  0.4827  0.2787 -1.5620
  490MOL0     O66016   3.949   3.749  11.296 -1.0560  0.7250 -0.4720
  490MOL0     C66017   4.010   3.854  11.317  0.5597 -0.1991  0.2601
  490MOL0     O66018   3.951   3.972  11.309 -0.3802 -0.8098  0.5639
  490MOL0     C66019   3.830   3.975  11.252  0.5238 -0.2123 -0.3972
  490MOL0     C66020   3.719   4.019  11.329 -0.3565  0.1361 -0.7008
  490MOL0     C66021   3.604   4.067  11.276  0.6112 -0.0609  0.6753
  490MOL0     C66022   3.580   4.039  11.145  0.0826 -0.3627  0.2742
  490MOL0     O66023   3.463   4.068  11.079 -0.5298 -0.1157 -0.5827
  490MOL0     C66024   3.340   4.036  11.152 -0.0599 -0.5032  0.0991
  490MOL0     C66025   3.208   4.034  11.066  0.5922  0.0670 -0.3554
  490MOL0     C66026   3.100   3.948  11.139 -0.5229  0.1907 -0.0821
  490MOL0     C66027   2.992   3.925  11.040 -0.1883  0.0989 -0.1370
  490MOL0     C66028   2.868   3.840  11.085 -0.5627  0.3493  0.0437
  490MOL0     C66029   2.767   3.839  10.971  1.0545  0.2267 -0.4244
  490MOL0     C66030   2.656   3.728  10.977 -0.2003  0.4126 -0.2371
  490MOL0     C66031   2.705   3.593  11.032 -0.2796 -0.2562  0.5252
  490MOL0     N66032   2.595   3.493  11.038  0.0257 -0.1524 -0.0113
  490MOL0     C66033   2.576   3.421  10.925 -0.1615 -0.2594  0.4879
  490MOL0     C66034   2.457   3.355  10.947 -0.4188 -0.0858  0.3056
  490MOL0     C66035   2.419   3.249  10.839  0.1099 -0.1816 -0.8660
  490MOL0     C66036   2.263   3.225  10.846  0.1995 -0.0884 -0.1317
  490MOL0     C66037   2.221   3.095  10.778  0.3239 -1.7878 -0.1280
  490MOL0     C66038   2.063   3.090  10.785  0.2546  0.4770 -0.1046
  490MOL0     O66039   2.006   2.956  10.756  0.7012 -0.8077 -0.2410
  490MOL0     C66040   1.867   2.963  10.747  1.2200  0.1677 -0.5949
  490MOL0     C66041   1.819   2.838  10.692  0.5058 -0.8234 -0.8204
  490MOL0     C66042   1.679   2.820  10.668 -0.1965 -0.6975 -0.7228
  490MOL0     C66043   1.638   2.678  10.624 -0.0470  0.3255  0.2837
  490MOL0     C66044   1.590   2.933  10.688 -0.3698 -0.5813 -0.1150
  490MOL0     C66045   1.449   2.944  10.658 -0.8301  0.3430 -0.7164
  490MOL0     O66046   1.381   3.062  10.678 -0.0813  0.1100  0.4429
  490MOL0     C66047   1.262   3.104  10.610  0.5186  0.1599  0.1336
  490MOL0     C66048   1.217   3.223  10.662  0.0585  0.3884  0.5906
  490MOL0     C66049   1.094   3.274  10.617 -0.3318  0.2596  0.3353
  490MOL0     C66050   1.021   3.216  10.514  0.4592  0.1530  0.7885
  490MOL0     O66051   0.910   3.280  10.469  0.0099  0.2098 -0.0988
  490MOL0     C66052   0.801   3.191  10.421 -0.3157 -0.7643 -0.7786
  490MOL0     C66053   0.673   3.262  10.451  0.4309  0.3141 -0.0401
  490MOL0     C66054   0.559   3.152  10.438 -1.2715  0.5304 -0.0200
  490MOL0     C66055   0.422   3.223  10.449 -0.5418 -0.0680  0.7798
  490MOL0     C66056   0.306   3.131  10.429  0.1567  0.5221 -0.9728
  490MOL0     C66057   0.158   3.194  10.433 -0.7246 -0.6634 -1.3250
  490MOL0     C66058   0.047   3.094  10.449 -0.5118 -0.4447 -0.0027
  490MOL0     C66059  -0.078   3.125  10.364  0.0158  0.8657 -0.4518
  490MOL0    Cl66060  -0.157   3.284  10.407  0.0457 -0.0566 -0.2966
  490MOL0     C66061   1.074   3.100  10.461 -0.3295  0.4805  0.6203
  490MOL0     C66062   1.191   3.049  10.503 -0.0316  0.1342  0.3675
  490MOL0     O66063   1.404   2.846  10.619 -0.1949 -0.0256 -0.1644
  490MOL0     C66064   1.637   3.051  10.748 -0.9708 -0.4518  0.9679
  490MOL0     C66065   1.776   3.067  10.780  0.1075 -0.4997 -0.3307
  490MOL0     N66066   2.423   3.381  11.077 -0.6863  0.7765  0.1696
  490MOL0     N66067   2.504   3.467  11.127  0.4037 -0.6235 -0.2818
  490MOL0     C66068   3.683   3.986  11.061  0.4293 -0.0896 -0.6445
  490MOL0     C66069   3.809   3.960  11.117 -0.9085  0.0161  0.1832
  490MOL0     C66070   4.152   3.856  11.361 -0.4128  0.4708 -0.1699
  490MOL0     C66071   4.228   3.740  11.373 -0.1710  0.6089  0.2559
  490MOL0     C66072   4.368   3.745  11.403  0.0091 -0.0633  0.0262
  490MOL0     C66073   4.433   3.869  11.424 -0.2237 -0.3898  0.0532
  490MOL0     O66074   4.561   3.882  11.465  0.2689 -0.2072 -0.2797
  490MOL0     C66075   4.631   3.773  11.531 -0.7952  0.2053 -0.3521
  490MOL0     C66076   4.749   3.825  11.605  0.3156 -0.1900 -0.1336
  490MOL0     C66077   4.865   3.725  11.620 -0.0049  0.5121  0.3860
  490MOL0     C66078   4.916   3.692  11.760  0.1579 -0.6445  0.6936
  490MOL0     C66079   4.813   3.612  11.827  0.5939 -0.0986 -0.3722
  490MOL0     C66080   4.728   3.543  11.879 -0.4115 -0.5879 -0.5610
  490MOL0     C66081   4.354   3.985  11.420  0.8403  0.9716  0.7764
  490MOL0     C66082   4.219   3.977  11.385 -0.2878 -0.0355  0.3312
  490MOL0     H66083   3.727   4.035  11.436 -1.1092 -0.9178 -0.4730
  490MOL0     H66084   3.531   4.109  11.344  2.5540  5.1260 -0.0074
  490MOL0     H66085   3.354   3.937  11.197 -0.3260 -0.9052 -0.6932
  490MOL0     H66086   3.307   4.104  11.231 -0.4519  0.1362 -0.6151
  490MOL0     H66087   3.173   4.137  11.061 -0.7462 -0.4025 -1.7296
  490MOL0     H66088   3.226   3.994  10.965  1.9464  3.3656 -1.5831
  490MOL0     H66089   3.139   3.849  11.165  2.2078  1.2598  0.3118
  490MOL0     H66090   3.062   3.997  11.229 -0.3508 -1.3864  0.8838
  490MOL0     H66091   2.954   4.022  11.007 -1.1535 -0.6222 -1.2519
  490MOL0     H66092   3.041   3.875  10.955  0.9312  0.0928  0.4950
  490MOL0     H66093   2.914   3.741  11.098 -1.6932 -0.3952 -1.3521
  490MOL0     H66094   2.837   3.873  11.184  1.7714  2.1764  0.2715
  490MOL0     H66095   2.724   3.938  10.952  0.5427  0.3905  1.4108
  490MOL0     H66096   2.820   3.820  10.877 -0.5232  3.1375 -2.0429
  490MOL0     H66097   2.573   3.763  11.039  0.7973  2.1755  0.1966
  490MOL0     H66098   2.607   3.706  10.882 -0.4168  0.4107 -0.1261
  490MOL0     H66099   2.729   3.622  11.134 -0.8360  1.0676  0.2996
  490MOL0     H66100   2.791   3.554  10.977  0.4042  3.0792 -1.0473
  490MOL0     H66101   2.647   3.418  10.843 -0.6000 -2.3815  0.1391
  490MOL0     H66102   2.442   3.287  10.740 -2.6122 -1.6009 -2.1664
  490MOL0     H66103   2.472   3.155  10.855 -0.1897 -0.4147 -1.2202
  490MOL0     H66104   2.207   3.308  10.800 -2.1115 -0.3237  2.0369
  490MOL0     H66105   2.239   3.222  10.953 -1.8835  0.2721 -0.5484
  490MOL0     H66106   2.264   3.009  10.831 -1.5544  0.1415  5.1487
  490MOL0     H66107   2.257   3.087  10.674  0.2880 -0.7808 -0.2229
  490MOL0     H66108   2.013   3.174  10.736 -1.0386 -0.1309  0.1221
  490MOL0     H66109   2.028   3.108  10.887  0.2197 -1.2375  0.2289
  490MOL0     H66110   1.887   2.756  10.672 -0.7919 -1.4212 -3.1502
  490MOL0     H66111   1.719   2.606  10.636 -0.5713 -0.6186 -1.4555
  490MOL0     H66112   1.550   2.641  10.677  0.2688  0.3001  0.8006
  490MOL0     H66113   1.632   2.679  10.515  1.0082  1.6652  0.2081
  490MOL0     H66114   1.279   3.264  10.742  1.9827 -0.4450 -0.4198
  490MOL0     H66115   1.058   3.367  10.661 -0.7344  1.3263 -2.0678
  490MOL0     H66116   0.809   3.168  10.314 -1.7978 -4.3540 -0.2649
  490MOL0     H66117   0.817   3.094  10.468  1.0528 -2.0133 -3.5547
  490MOL0     H66118   0.681   3.292  10.556 -0.7479  0.5181  0.0147
  490MOL0     H66119   0.660   3.357  10.398  4.0982  1.1165  0.2743
  490MOL0     H66120   0.565   3.083  10.523  2.4609  0.1787 -0.3831
  490MOL0     H66121   0.560   3.096  10.344  0.8766  0.7379 -0.1650
  490MOL0     H66122   0.407   3.275  10.544 -0.0125 -0.7349  1.2363
  490MOL0     H66123   0.424   3.296  10.368  1.2722 -0.2796  0.5830
  490MOL0     H66124   0.308   3.048  10.502 -1.5955 -0.4034 -1.9054
  490MOL0     H66125   0.314   3.084  10.331  3.3777 -0.2723 -0.4469
  490MOL0     H66126   0.151   3.262  10.518 -0.3808 -2.4881  0.2381
  490MOL0     H66127   0.133   3.249  10.342 -2.0273  1.1624  0.0726
  490MOL0     H66128   0.010   3.103  10.552 -0.3233 -0.8475  0.1031
  490MOL0     H66129   0.077   2.991  10.427 -2.0851 -0.5764 -1.7909
  490MOL0     H66130  -0.153   3.046  10.374 -0.8241  1.5327 -1.2701
  490MOL0     H66131  -0.053   3.129  10.257 -0.4227 -0.1577 -0.6030
  490MOL0     H66132   1.037   3.047  10.374  1.4476 -1.2531  0.8334
  490MOL0     H66133   1.219   2.951  10.466  0.0737  0.9915 -2.0035
  490MOL0     H66134   1.571   3.129  10.785  1.6947  1.1574  2.7721
  490MOL0     H66135   1.800   3.153  10.841 -0.8336 -0.8722  0.6148
  490MOL0     H66136   3.664   3.961  10.957  1.7799  0.8832 -1.1583
  490MOL0     H66137   3.898   3.934  11.061 -0.3309  2.0589  0.0751
  490MOL0     H66138   4.191   3.642  11.345  3.0234 -0.0456 -2.3999
  490MOL0     H66139   4.431   3.658  11.385  2.3066  1.8366 -1.6121
  490MOL0     H66140   4.562   3.732  11.605  0.5527 -0.0116  0.8335
  490MOL0     H66141   4.665   3.698  11.460 -3.0376 -2.9333  1.6294
  490MOL0     H66142   4.717   3.850  11.706  1.2549 -0.9443  0.3619
  490MOL0     H66143   4.787   3.907  11.542 -1.5692  0.1047 -0.9375
  490MOL0     H66144   4.950   3.776  11.573  3.9601 -3.4521  2.4775
  490MOL0     H66145   4.857   3.624  11.579 -0.2378 -0.8846  3.6276
  490MOL0     H66146   4.933   3.786  11.815 -0.0389 -0.3917  0.3303
  490MOL0     H66147   5.005   3.631  11.747 -0.4448 -1.2331 -1.0551
  490MOL0     H66148   4.660   3.486  11.939  0.8296 -1.2895  0.2183
  490MOL0     H66149   4.393   4.079  11.457 -1.3317  0.1376  6.0606
  490MOL0     H66150   4.170   4.073  11.370  0.9398  0.5444 -0.2213
  491MOL0     O66151   3.584  10.330   7.287 -0.5932  0.3812  0.2860
  491MOL0     C66152   3.591  10.452   7.283  0.2966  0.2375 -0.1137
  491MOL0     O66153   3.482  10.531   7.270 -0.7647  0.2020  0.0865
  491MOL0     C66154   3.354  10.483   7.297  0.2152 -0.1092  0.3669
  491MOL0     C66155   3.303  10.495   7.429 -0.0576 -0.9377  0.6004
  491MOL0     C66156   3.181  10.443   7.475 -0.0264 -0.5760  0.4364
  491MOL0     C66157   3.104  10.364   7.386 -0.2531 -0.2994 -0.7980
  491MOL0     O66158   2.990  10.293   7.421 -0.6732 -0.7309 -0.2191
  491MOL0     C66159   2.916  10.350   7.535  0.6227  0.0236 -0.0177
  491MOL0     C66160   2.841  10.483   7.506 -0.0021 -0.0091 -0.4541
  491MOL0     C66161   2.755  10.475   7.387  0.7814 -0.3610  1.4011
  491MOL0     C66162   2.657  10.366   7.387 -0.3875 -0.2346  0.6691
  491MOL0     C66163   2.582  10.357   7.249 -0.6137 -0.1581  0.6190
  491MOL0     C66164   2.665  10.282   7.144  0.1762  0.5276  0.8444
  491MOL0     C66165   2.583  10.231   7.021 -0.3586  0.0705 -0.1039
  491MOL0     C66166   2.653  10.186   6.893 -0.3548 -0.8959  0.1356
  491MOL0     N66167   2.559  10.147   6.788  0.0723 -0.4272  0.8037
  491MOL0     C66168   2.566  10.027   6.712  0.2734  0.0418  0.5533
  491MOL0     C66169   2.466  10.037   6.622 -0.0829  0.2881  0.1957
  491MOL0     C66170   2.428   9.942   6.514 -0.5079  0.0899  0.4343
  491MOL0     C66171   2.335   9.826   6.577  0.3293 -0.7320  0.2994
  491MOL0     C66172   2.209   9.873   6.649  0.0186 -0.0043 -0.7183
  491MOL0     C66173   2.107   9.944   6.554 -0.2657  0.9559  0.4502
  491MOL0     O66174   2.002   9.983   6.649  0.0112 -0.6703  0.5268
  491MOL0     C66175   1.884  10.037   6.594 -0.1913 -0.2414 -0.4993
  491MOL0     C66176   1.776  10.058   6.683  0.2200  0.9172  0.1624
  491MOL0     C66177   1.654  10.111   6.638 -0.9569  0.2636  0.1149
  491MOL0     C66178   1.567  10.150   6.755 -0.6113  0.2600  0.1236
  491MOL0     C66179   1.627  10.145   6.507  0.0087  0.7498 -0.1481
  491MOL0     C66180   1.490  10.195   6.457  0.0182  1.1164 -0.2704
  491MOL0     O66181   1.492  10.244   6.327 -1.0732 -0.1707  0.4857
  491MOL0     C66182   1.381  10.290   6.264 -0.0297  0.6063 -0.1378
  491MOL0     C66183   1.386  10.412   6.197  0.2507 -0.6596  0.1415
  491MOL0     C66184   1.276  10.461   6.131  0.2373 -0.0026  0.9864
  491MOL0     C66185   1.156  10.395   6.137 -0.1860  0.1364 -0.3858
  491MOL0     O66186   1.048  10.460   6.076  0.1480 -0.6580 -0.5332
  491MOL0     C66187   0.919  10.403   6.095  0.3772  0.0881 -0.9571
  491MOL0     C66188   0.807  10.495   6.044  0.8631 -0.8353  0.3857
  491MOL0     C66189   0.667  10.433   6.079  0.1490 -0.0722 -0.2630
  491MOL0     C66190   0.557  10.497   5.997  0.1954 -0.1934 -0.3503
  491MOL0     C66191   0.423  10.423   6.014 -0.2558  0.7197  0.7666
  491MOL0     C66192   0.346  10.462   5.892  0.9422 -0.2604  0.4238
  491MOL0     C66193   0.229  10.363   5.867 -0.7457 -0.1832 -0.0682
  491MOL0     C66194   0.133  10.414   5.763  0.6248 -0.2057 -0.2246
  491MOL0    Cl66195  -0.019  10.309   5.747  0.1526  0.2138 -0.1876
  491MOL0     C66196   1.153  10.274   6.216  0.3346 -0.0367  0.3352
  491MOL0     C66197   1.261  10.218   6.272 -0.2240  0.1709  0.6696
  491MOL0     O66198   1.389  10.201   6.535 -0.0281  0.5571 -0.3288
  491MOL0     C66199   1.737  10.123   6.416  0.7629  0.1155  0.0387
  491MOL0     C66200   1.861  10.075   6.456  0.2715  0.2344 -0.3788
  491MOL0     N66201   2.393  10.154   6.644 -0.0911  0.7162 -0.2685
  491MOL0     N66202   2.444  10.212   6.746 -0.1338 -0.1288 -0.6121
  491MOL0     C66203   3.163  10.343   7.255  0.3611 -0.1968 -0.4329
  491MOL0     C66204   3.279  10.407   7.215  0.1905 -0.2452 -0.0271
  491MOL0     C66205   3.720  10.518   7.281  0.7448 -0.7055 -0.2171
  491MOL0     C66206   3.732  10.652   7.313 -0.1292  0.4418  0.2323
  491MOL0     C66207   3.856  10.714   7.320  0.0767 -0.7290  0.6577
  491MOL0     C66208   3.968  10.651   7.275  0.6003  0.0454  0.4885
  491MOL0     O66209   4.095  10.707   7.259  0.3578 -0.1251 -0.3287
  491MOL0     C66210   4.106  10.855   7.264 -0.3461  0.3062 -0.1625
  491MOL0     C66211   4.258  10.881   7.249 -0.5284  0.4088 -0.3547
  491MOL0     C66212   4.294  11.023   7.281  0.1802  0.7606  0.0970
  491MOL0     C66213   4.429  11.065   7.243  0.2920  1.0438  0.4025
  491MOL0     C66214   4.435  11.212   7.265  0.1769  0.3421  0.5059
  491MOL0     C66215   4.421  11.327   7.304 -0.5655  0.1992  0.0707
  491MOL0     C66216   3.955  10.519   7.244  0.3087  0.3915  0.1453
  491MOL0     C66217   3.834  10.453   7.256  0.4252  0.6879 -1.1693
  491MOL0     H66218   3.357  10.556   7.500  0.6592 -0.4068 -0.3859
  491MOL0     H66219   3.154  10.456   7.580 -0.5155 -0.0666  0.2522
  491MOL0     H66220   2.849  10.272   7.571 -0.3792 -0.8095 -3.3693
  491MOL0     H66221   2.980  10.370   7.622  2.1183 -0.6791 -0.9033
  491MOL0     H66222   2.783  10.509   7.595  1.1720  1.5215 -0.0880
  491MOL0     H66223   2.915  10.562   7.489  0.6835 -0.2680  1.1076
  491MOL0     H66224   2.701  10.569   7.369 -1.5298 -1.9078 -0.4138
  491MOL0     H66225   2.806  10.466   7.291 -1.0031 -1.1588  0.4877
  491MOL0     H66226   2.711  10.272   7.404 -0.8417 -0.6752 -0.2863
  491MOL0     H66227   2.594  10.379   7.476 -0.5610 -0.3369  0.5623
  491MOL0     H66228   2.489  10.302   7.267  1.1798 -2.7432  2.8670
  491MOL0     H66229   2.561  10.462   7.228  1.4847  0.1458 -0.2204
  491MOL0     H66230   2.739  10.353   7.107  1.0271 -0.9638 -0.4464
  491MOL0     H66231   2.713  10.197   7.194 -0.5498 -1.0518 -1.0098
  491MOL0     H66232   2.516  10.151   7.052 -1.9124  1.7626  1.1619
  491MOL0     H66233   2.513  10.312   6.997 -0.2419 -0.0321 -0.8083
  491MOL0     H66234   2.730  10.108   6.902 -0.0174 -0.3583  2.8437
  491MOL0     H66235   2.709  10.270   6.852  2.3507 -1.7513  1.7955
  491MOL0     H66236   2.640   9.948   6.707  0.1358 -0.1795  1.8120
  491MOL0     H66237   2.382   9.998   6.433 -0.0593  0.7203  0.6060
  491MOL0     H66238   2.525   9.901   6.484  0.1901 -1.0403  3.7461
  491MOL0     H66239   2.395   9.775   6.653  4.1620 -0.6143 -2.3533
  491MOL0     H66240   2.316   9.759   6.494  2.5652  0.7089 -1.5039
  491MOL0     H66241   2.239   9.942   6.728  1.2084 -0.3009 -0.8900
  491MOL0     H66242   2.168   9.785   6.700  0.1621 -0.3282 -1.1512
  491MOL0     H66243   2.053   9.868   6.496  1.9395 -1.5766  1.4685
  491MOL0     H66244   2.143  10.028   6.495 -1.7435  1.6036  0.4103
  491MOL0     H66245   1.801  10.043   6.788  2.9896  3.4995 -0.0055
  491MOL0     H66246   1.465  10.109   6.748 -0.0550 -1.6754  2.1605
  491MOL0     H66247   1.607  10.113   6.850 -0.9945 -0.0527  0.1668
  491MOL0     H66248   1.548  10.257   6.764 -0.3578  0.5355 -2.0581
  491MOL0     H66249   1.472  10.478   6.192  0.9660 -1.6120 -0.2054
  491MOL0     H66250   1.273  10.551   6.070 -2.1823  0.5290  1.7605
  491MOL0     H66251   0.913  10.309   6.039 -0.0964 -0.3049 -0.2590
  491MOL0     H66252   0.899  10.381   6.200  0.6883  0.3079 -0.8517
  491MOL0     H66253   0.825  10.595   6.083 -1.2154  0.6412 -2.0874
  491MOL0     H66254   0.822  10.512   5.937  0.2585  0.9923  0.5658
  491MOL0     H66255   0.635  10.450   6.183 -1.8570  0.1911 -0.8840
  491MOL0     H66256   0.668  10.325   6.063 -2.5015 -0.2158  0.0748
  491MOL0     H66257   0.544  10.605   6.011 -2.9301 -0.5731  0.3858
  491MOL0     H66258   0.598  10.482   5.897  0.7551 -4.0268  0.2949
  491MOL0     H66259   0.381  10.447   6.112 -0.5666 -0.1968  0.8708
  491MOL0     H66260   0.450  10.319   5.994  0.4262  1.5535 -3.9639
  491MOL0     H66261   0.316  10.567   5.898  2.8379  0.3484  0.0553
  491MOL0     H66262   0.407  10.458   5.801 -0.2899 -0.7312 -0.4095
  491MOL0     H66263   0.190  10.341   5.967 -3.0417  2.3925 -0.2814
  491MOL0     H66264   0.264  10.276   5.811 -0.9143  0.8381 -1.8220
  491MOL0     H66265   0.188  10.418   5.668  3.7479 -3.1069  1.2384
  491MOL0     H66266   0.105  10.515   5.795  0.4721 -0.2058 -0.3553
  491MOL0     H66267   1.064  10.212   6.208  0.1903  0.3033 -0.8808
  491MOL0     H66268   1.249  10.120   6.317  0.6787 -0.3123 -0.1047
  491MOL0     H66269   1.715  10.147   6.312 -2.1541  2.3996  1.0587
  491MOL0     H66270   1.941  10.082   6.383  2.1158  0.6592  1.5741
  491MOL0     H66271   3.131  10.272   7.179  1.1642 -0.7024 -0.3192
  491MOL0     H66272   3.323  10.376   7.121 -1.9708  1.2030 -1.6213
  491MOL0     H66273   3.644  10.715   7.328  1.3093  3.0491 -1.4432
  491MOL0     H66274   3.849  10.818   7.351  1.6068 -0.2676 -0.4321
  491MOL0     H66275   4.042  10.888   7.182  2.1607  1.0585 -1.9400
  491MOL0     H66276   4.078  10.896   7.361 -0.0738  1.0199 -0.3833
  491MOL0     H66277   4.287  10.869   7.145  1.2273  1.7789 -0.0752
  491MOL0     H66278   4.324  10.806   7.295 -0.6680 -1.2980 -2.7906
  491MOL0     H66279   4.274  11.036   7.387  1.0884  3.1159  0.0216
  491MOL0     H66280   4.225  11.091   7.230  0.6063  1.3479  0.2994
  491MOL0     H66281   4.460  11.032   7.143  1.4577 -0.5847  1.2535
  491MOL0     H66282   4.509  11.025   7.306  0.5671 -0.8669 -1.0451
  491MOL0     H66283   4.400  11.425   7.341 -0.6710 -0.1151  0.8635
  491MOL0     H66284   4.039  10.463   7.205 -0.1990 -0.0055 -0.3898
  491MOL0     H66285   3.826  10.346   7.239 -0.6778  0.8730 -1.8603
  492MOL0     O66286   7.285  10.925   2.278 -0.4089 -0.6362  0.1595
  492MOL0     C66287   7.312  10.955   2.399 -0.3225 -0.4567 -0.5532
  492MOL0     O66288   7.234  11.044   2.482  0.0559  0.6055  0.0029
  492MOL0     C66289   7.136  11.114   2.414  0.3145  0.6723 -0.1055
  492MOL0     C66290   7.001  11.072   2.400 -0.2070  0.6454 -0.1062
  492MOL0     C66291   6.911  11.150   2.323 -0.4440 -0.9900  0.0194
  492MOL0     C66292   6.936  11.286   2.291 -0.0210 -0.0528  0.0371
  492MOL0     O66293   6.829  11.359   2.229 -0.1352  0.1361 -0.0399
  492MOL0     C66294   6.864  11.486   2.178  0.7806  0.4435 -0.0861
  492MOL0     C66295   6.728  11.542   2.124 -0.7173  0.6018 -0.9685
  492MOL0     C66296   6.679  11.477   1.999 -0.5020 -0.0643  0.3346
  492MOL0     C66297   6.749  11.529   1.876  0.1143 -0.3605  0.9478
  492MOL0     C66298   6.686  11.465   1.752  0.1302  0.6375  0.0401
  492MOL0     C66299   6.777  11.501   1.626  0.8213 -0.5787  0.5565
  492MOL0     C66300   6.691  11.526   1.496 -0.4304  0.2478  0.0278
  492MOL0     C66301   6.772  11.589   1.380  0.2919  0.6004  0.3326
  492MOL0     N66302   6.686  11.618   1.270  0.3376 -0.2943  0.0582
  492MOL0     C66303   6.691  11.730   1.196  0.2169 -0.1257  0.6601
  492MOL0     C66304   6.569  11.745   1.139  0.9017  1.2095  1.5917
  492MOL0     C66305   6.507  11.861   1.056  0.2215 -0.2728 -0.4118
  492MOL0     C66306   6.359  11.867   1.063  0.1105 -0.1973  0.1003
  492MOL0     C66307   6.290  11.944   0.950  0.2055  0.2174  0.2606
  492MOL0     C66308   6.137  11.952   0.974 -0.0118 -0.4756 -0.0360
  492MOL0     O66309   6.085  12.059   0.893 -0.4900  0.1404  0.2557
  492MOL0     C66310   5.961  12.111   0.921  0.1694  0.6088  0.9098
  492MOL0     C66311   5.903  12.130   1.043 -0.4884 -0.2839  0.3449
  492MOL0     C66312   5.777  12.195   1.051 -0.1942 -0.1236 -0.2622
  492MOL0     C66313   5.738  12.230   1.192 -0.0456 -0.2853 -0.4984
  492MOL0     C66314   5.698  12.227   0.937  0.1360 -0.3485 -0.0549
  492MOL0     C66315   5.567  12.296   0.949 -0.5604 -0.0405 -0.2838
  492MOL0     O66316   5.518  12.362   0.836 -0.1393 -0.0544  0.1207
  492MOL0     C66317   5.403  12.436   0.850 -0.3039 -0.1892  0.0721
  492MOL0     C66318   5.285  12.398   0.780 -0.2855 -0.0949 -0.0035
  492MOL0     C66319   5.165  12.475   0.776  0.3759 -0.1190 -0.4720
  492MOL0     C66320   5.171  12.590   0.857 -0.0734 -0.4854 -0.2613
  492MOL0     O66321   5.067  12.679   0.871 -0.7891 -0.3326 -0.3639
  492MOL0     C66322   4.928  12.634   0.872  0.1584 -0.9380  0.2900
  492MOL0     C66323   4.820  12.738   0.898  0.0695  0.5409 -1.9376
  492MOL0     C66324   4.823  12.834   0.784 -0.1731 -0.7056  0.1782
  492MOL0     C66325   4.704  12.933   0.788  0.6309 -0.9199 -0.7855
  492MOL0     C66326   4.724  13.038   0.683  1.1388 -0.1676 -0.0323
  492MOL0     C66327   4.597  13.109   0.648 -0.0889 -0.7436  0.0462
  492MOL0     C66328   4.493  13.025   0.563  0.2911 -0.1684 -0.3752
  492MOL0     C66329   4.357  13.058   0.637 -0.3395  0.8429  1.1309
  492MOL0    Cl66330   4.353  12.981   0.798 -0.3095 -0.5093 -0.2002
  492MOL0     C66331   5.291  12.630   0.924  1.0266 -0.1399 -0.5653
  492MOL0     C66332   5.406  12.553   0.920  0.7422  0.1183  0.0397
  492MOL0     O66333   5.503  12.290   1.052  0.4964 -0.3795 -0.1487
  492MOL0     C66334   5.755  12.210   0.812 -0.4146  0.6927 -0.0120
  492MOL0     C66335   5.887  12.147   0.802  0.0157 -0.9060  0.0066
  492MOL0     N66336   6.506  11.619   1.148 -0.2819 -0.1247 -0.3143
  492MOL0     N66337   6.572  11.554   1.233 -0.7690 -0.3931 -0.1654
  492MOL0     C66338   7.058  11.335   2.321  0.5855  0.3896  0.4902
  492MOL0     C66339   7.160  11.246   2.366  0.2231 -0.1461  0.5249
  492MOL0     C66340   7.422  10.887   2.463 -0.3535  0.3209 -0.7760
  492MOL0     C66341   7.503  10.793   2.395  1.4399 -0.1592 -0.8896
  492MOL0     C66342   7.605  10.733   2.472 -0.0060  0.8124  0.1071
  492MOL0     C66343   7.639  10.763   2.599 -0.5599 -0.1391 -0.6332
  492MOL0     O66344   7.744  10.698   2.665  0.2063  0.1617  0.5395
  492MOL0     C66345   7.797  10.745   2.790  0.6865  0.3871 -0.6823
  492MOL0     C66346   7.915  10.672   2.824  0.1621 -0.8010 -0.0282
  492MOL0     C66347   8.014  10.650   2.711 -0.7571  0.0028 -0.4719
  492MOL0     C66348   8.115  10.548   2.768 -0.1425 -0.4846  0.4631
  492MOL0     C66349   8.216  10.518   2.660  0.2254  0.5132 -0.4039
  492MOL0     C66350   8.293  10.505   2.571 -0.0627 -0.4811 -0.1353
  492MOL0     C66351   7.554  10.854   2.670 -0.3486 -0.0694  0.4555
  492MOL0     C66352   7.444  10.916   2.601  0.3920 -0.0637 -1.2394
  492MOL0     H66353   6.963  10.976   2.433 -0.7685  0.4014 -1.3884
  492MOL0     H66354   6.814  11.107   2.301  0.5237 -1.7324 -3.3705
  492MOL0     H66355   6.900  11.542   2.265 -0.5224  0.2457  0.5982
  492MOL0     H66356   6.937  11.485   2.096 -1.2678  0.5231 -2.0143
  492MOL0     H66357   6.650  11.535   2.201  0.7616 -0.9466  0.4371
  492MOL0     H66358   6.744  11.649   2.107 -1.0170  1.0015  1.0220
  492MOL0     H66359   6.692  11.368   1.992  0.1852 -0.1218  2.1023
  492MOL0     H66360   6.572  11.499   2.003  0.0837  2.9872  1.7132
  492MOL0     H66361   6.756  11.638   1.863 -2.1197 -0.4260 -1.8939
  492MOL0     H66362   6.854  11.499   1.880  0.8702  1.8407 -0.2223
  492MOL0     H66363   6.668  11.358   1.757  0.8297  0.5292  0.3521
  492MOL0     H66364   6.584  11.502   1.742 -1.2154 -2.8721 -0.6692
  492MOL0     H66365   6.842  11.588   1.639  1.5279 -0.6715 -1.9174
  492MOL0     H66366   6.845  11.418   1.602 -0.0348 -0.8983 -0.8875
  492MOL0     H66367   6.645  11.433   1.462 -1.2352  0.9040 -0.7357
  492MOL0     H66368   6.609  11.598   1.511 -0.4325  0.4885 -1.0324
  492MOL0     H66369   6.846  11.516   1.346 -1.2412  0.7086 -3.8187
  492MOL0     H66370   6.818  11.682   1.415 -1.1461  0.5433  2.6257
  492MOL0     H66371   6.775  11.798   1.194 -0.5114  0.7957 -0.1420
  492MOL0     H66372   6.557  11.957   1.066 -0.3003 -0.2234  2.4307
  492MOL0     H66373   6.532  11.842   0.951  1.3175  0.9389 -0.4041
  492MOL0     H66374   6.336  11.915   1.158 -0.9768 -0.3926 -0.0504
  492MOL0     H66375   6.303  11.773   1.063 -0.9869  0.4329 -0.4602
  492MOL0     H66376   6.309  11.899   0.852 -2.1058  2.1550 -1.2090
  492MOL0     H66377   6.326  12.047   0.948  1.2215 -0.1237 -1.7724
  492MOL0     H66378   6.106  11.967   1.078 -0.3153  2.2802 -0.4743
  492MOL0     H66379   6.101  11.852   0.945 -0.1603 -0.8613  1.3976
  492MOL0     H66380   5.960  12.105   1.132  0.7553  0.7832 -0.1116
  492MOL0     H66381   5.697  12.331   1.202  0.0951 -0.4078  2.2915
  492MOL0     H66382   5.661  12.162   1.231 -0.5707  1.2029  1.1883
  492MOL0     H66383   5.824  12.224   1.259  0.4731 -0.1974 -1.1503
  492MOL0     H66384   5.280  12.298   0.738 -2.3998 -0.2320  0.4882
  492MOL0     H66385   5.073  12.430   0.741 -0.2456 -0.3769  1.4031
  492MOL0     H66386   4.905  12.603   0.770 -2.3008 -0.4000  0.6171
  492MOL0     H66387   4.921  12.546   0.937 -0.2212 -0.9610  0.2201
  492MOL0     H66388   4.724  12.688   0.916  0.7284  0.5788  2.8522
  492MOL0     H66389   4.849  12.791   0.989  1.1351 -0.3232 -1.7575
  492MOL0     H66390   4.802  12.769   0.698 -3.2943 -1.5326  1.4247
  492MOL0     H66391   4.915  12.893   0.782  0.5478 -1.7963 -0.0992
  492MOL0     H66392   4.608  12.884   0.771 -0.0094  0.6848 -2.0978
  492MOL0     H66393   4.689  12.984   0.884  0.7677  0.1400 -1.3090
  492MOL0     H66394   4.761  12.987   0.593 -1.2445  0.4717 -1.4663
  492MOL0     H66395   4.794  13.117   0.710 -0.3620  1.6515 -1.1910
  492MOL0     H66396   4.560  13.153   0.741  2.6538 -1.9267  1.8307
  492MOL0     H66397   4.635  13.193   0.589 -1.4665 -0.9134 -1.1619
  492MOL0     H66398   4.515  12.918   0.569  0.7976 -0.2056 -2.2781
  492MOL0     H66399   4.491  13.062   0.461 -0.1471 -0.1215 -0.3523
  492MOL0     H66400   4.273  13.020   0.578  0.9365  0.8107 -0.7555
  492MOL0     H66401   4.327  13.162   0.645  2.7263  1.8109  1.1150
  492MOL0     H66402   5.294  12.726   0.974  0.2613 -1.3740  2.0061
  492MOL0     H66403   5.498  12.581   0.971 -0.1068  2.7091  0.2745
  492MOL0     H66404   5.701  12.252   0.728 -0.5943  1.0322  0.2692
  492MOL0     H66405   5.930  12.128   0.704  1.4182 -0.1275  0.4313
  492MOL0     H66406   7.085  11.433   2.284  1.5960 -0.3247 -0.7654
  492MOL0     H66407   7.259  11.284   2.389  1.3617 -2.0922 -0.7879
  492MOL0     H66408   7.483  10.763   2.293  0.9602  0.2019 -0.9049
  492MOL0     H66409   7.669  10.663   2.419  3.1111  2.8184  0.9254
  492MOL0     H66410   7.818  10.853   2.791 -2.8079  1.2059 -0.3796
  492MOL0     H66411   7.724  10.717   2.866 -0.9533 -0.1706 -2.3771
  492MOL0     H66412   7.874  10.574   2.849 -2.0349  0.2551  0.7430
  492MOL0     H66413   7.951  10.717   2.917 -0.9284 -3.7665  1.9765
  492MOL0     H66414   8.069  10.739   2.682 -1.2420  0.0415 -1.2841
  492MOL0     H66415   7.962  10.601   2.629  4.0879 -2.1810 -2.6838
  492MOL0     H66416   8.064  10.459   2.806  0.6415 -0.2096  2.2558
  492MOL0     H66417   8.161  10.588   2.859 -1.8470 -0.7806  1.4910
  492MOL0     H66418   8.360  10.488   2.489  0.7022 -0.5659  0.5053
  492MOL0     H66419   7.568  10.871   2.776  0.2218  1.3098  0.1770
  492MOL0     H66420   7.379  10.980   2.660  2.2955  1.0837 -0.3028
  493MOL0     O66421   1.886   9.318   8.815  0.3110  0.2372  0.4805
  493MOL0     C66422   1.908   9.196   8.818 -1.0197 -1.1428  1.3130
  493MOL0     O66423   1.818   9.101   8.801 -0.5169  0.0786 -0.3145
  493MOL0     C66424   1.689   9.129   8.840 -0.5782  0.4436 -0.2659
  493MOL0     C66425   1.654   9.066   8.955  0.2863 -0.8633  0.4167
  493MOL0     C66426   1.529   9.082   9.008  1.0648 -0.2304 -0.0680
  493MOL0     C66427   1.433   9.173   8.960 -0.2332 -0.7437 -0.7317
  493MOL0     O66428   1.321   9.188   9.037  0.0518 -0.0127 -0.5918
  493MOL0     C66429   1.241   9.305   9.023  0.7171 -0.5528 -0.3238
  493MOL0     C66430   1.107   9.262   8.963  0.5190 -0.7725  0.0756
  493MOL0     C66431   1.015   9.224   9.086 -0.5839 -0.5280  0.1780
  493MOL0     C66432   0.873   9.185   9.053  0.5584 -1.0152 -0.4693
  493MOL0     C66433   0.865   9.046   9.008 -0.2550  0.6250  0.0180
  493MOL0     C66434   0.716   9.028   8.970 -0.2877 -0.0517  0.5212
  493MOL0     C66435   0.684   8.878   8.945 -0.0380  0.4533  0.5366
  493MOL0     C66436   0.755   8.820   8.828 -0.2564  0.0447 -0.3133
  493MOL0     N66437   0.759   8.903   8.710  0.0942  0.1205  0.0255
  493MOL0     C66438   0.647   8.951   8.648 -0.2273  0.9092  0.5322
  493MOL0     C66439   0.695   9.045   8.568 -0.2367 -0.2089  0.8342
  493MOL0     C66440   0.614   9.143   8.491 -0.4390  0.1024 -0.1327
  493MOL0     C66441   0.534   9.080   8.379  0.5093  0.4008 -0.2251
  493MOL0     C66442   0.616   9.030   8.261  0.1488 -0.8322 -0.2537
  493MOL0     C66443   0.529   9.008   8.137 -0.0014  0.1245  0.3493
  493MOL0     O66444   0.419   8.927   8.180 -0.5359  0.7290 -0.4116
  493MOL0     C66445   0.318   8.911   8.092 -0.2097 -0.0035  0.2312
  493MOL0     C66446   0.326   8.952   7.961  0.7577  0.4888  0.1746
  493MOL0     C66447   0.216   8.958   7.873 -0.2240 -0.3937 -0.4662
  493MOL0     C66448   0.259   9.006   7.735  0.4215  0.3825 -0.5490
  493MOL0     C66449   0.089   8.920   7.924  0.3680  0.1988  0.2136
  493MOL0     C66450  -0.026   8.908   7.838 -0.5477  0.1694  0.3847
  493MOL0     O66451  -0.042   8.998   7.730 -0.2943  0.9389  0.5121
  493MOL0     C66452  -0.164   8.997   7.663  0.4271  0.9394 -0.2129
  493MOL0     C66453  -0.165   8.963   7.523 -0.2991 -0.2227 -0.3836
  493MOL0     C66454  -0.282   8.976   7.454  0.7264 -0.2639 -0.7907
  493MOL0     C66455  -0.398   9.030   7.515 -0.8082  0.4460 -0.0033
  493MOL0     O66456  -0.523   9.046   7.452  0.3508 -0.1016  0.5029
  493MOL0     C66457  -0.574   8.965   7.351 -0.2111  0.8280 -0.0449
  493MOL0     C66458  -0.601   9.045   7.219  0.6557  0.1413 -0.2629
  493MOL0     C66459  -0.664   9.181   7.263 -0.4496 -0.1890 -0.9614
  493MOL0     C66460  -0.736   9.250   7.150 -0.4846  0.7117  0.1458
  493MOL0     C66461  -0.806   9.378   7.208  1.0843  0.4911 -0.0011
  493MOL0     C66462  -0.885   9.463   7.106 -0.1536 -0.4767  0.4699
  493MOL0     C66463  -1.028   9.400   7.096  0.0229  0.6046 -0.2849
  493MOL0     C66464  -1.098   9.467   6.973 -0.2935 -1.0485 -0.1707
  493MOL0    Cl66465  -1.263   9.390   6.965 -0.0154 -0.0172 -0.2373
  493MOL0     C66466  -0.391   9.063   7.653 -0.1208  0.6757  0.1060
  493MOL0     C66467  -0.284   9.043   7.733  0.4439  0.0944  0.1390
  493MOL0     O66468  -0.113   8.839   7.881 -0.1181 -0.2150  0.1741
  493MOL0     C66469   0.084   8.881   8.056  0.5964 -0.2264 -0.6078
  493MOL0     C66470   0.194   8.885   8.143 -1.1037  0.5117 -0.3876
  493MOL0     N66471   0.833   9.046   8.571 -1.1287 -0.2976 -0.0531
  493MOL0     N66472   0.870   8.958   8.656  0.7040  0.4629 -0.1814
  493MOL0     C66473   1.477   9.239   8.838  1.1308  0.5093 -0.4326
  493MOL0     C66474   1.599   9.211   8.777  0.6295  0.0617 -0.1234
  493MOL0     C66475   2.041   9.147   8.850  0.0841 -0.7370 -0.2689
  493MOL0     C66476   2.089   9.026   8.795  0.6752 -0.4753 -0.7523
  493MOL0     C66477   2.227   8.993   8.811 -0.0971  0.5819  0.1904
  493MOL0     C66478   2.307   9.074   8.901  0.2363 -0.1908 -0.4156
  493MOL0     O66479   2.442   9.059   8.922 -0.1717  0.2200 -0.6639
  493MOL0     C66480   2.492   8.930   8.891 -0.3408  0.9448 -0.4055
  493MOL0     C66481   2.644   8.925   8.915 -0.2698 -0.2170 -0.6132
  493MOL0     C66482   2.676   8.939   9.061  0.6656  0.5296 -0.2833
  493MOL0     C66483   2.821   8.934   9.111  0.1056 -0.3532 -0.0123
  493MOL0     C66484   2.866   8.800   9.126 -0.4224  0.9199  0.1139
  493MOL0     C66485   2.909   8.691   9.146 -0.7767  0.5855 -0.2167
  493MOL0     C66486   2.245   9.184   8.959 -0.1828  0.8749 -0.0465
  493MOL0     C66487   2.119   9.232   8.925 -0.6588  0.4821 -0.2844
  493MOL0     H66488   1.729   8.997   8.994  1.2114  0.7550  1.6065
  493MOL0     H66489   1.508   9.032   9.102 -0.7582  1.4605  0.5217
  493MOL0     H66490   1.231   9.337   9.127 -2.3210  0.8590 -0.9432
  493MOL0     H66491   1.292   9.385   8.969  0.0919 -0.5229 -0.8834
  493MOL0     H66492   1.073   9.336   8.890  0.6391 -0.5784  0.2137
  493MOL0     H66493   1.116   9.175   8.897  2.2542 -1.7499  1.4918
  493MOL0     H66494   1.063   9.146   9.146 -0.3417 -0.0334  0.6355
  493MOL0     H66495   1.022   9.317   9.144 -0.8668  0.4980 -1.3664
  493MOL0     H66496   0.810   9.201   9.141  0.3915  0.0618 -0.7663
  493MOL0     H66497   0.828   9.259   8.986  0.3560 -1.9991 -1.4400
  493MOL0     H66498   0.931   9.040   8.921 -1.5745 -0.3059 -0.9602
  493MOL0     H66499   0.899   8.977   9.086  1.1918  0.7423 -0.4838
  493MOL0     H66500   0.662   9.071   9.055 -0.3082  1.9175 -0.4346
  493MOL0     H66501   0.689   9.094   8.887 -0.6585  0.5298  1.0999
  493MOL0     H66502   0.716   8.830   9.038  1.5424 -1.4834 -0.9197
  493MOL0     H66503   0.575   8.873   8.932  0.0670  0.3004 -0.3390
  493MOL0     H66504   0.703   8.730   8.796 -1.8553  0.9356 -0.3486
  493MOL0     H66505   0.858   8.810   8.863  1.0928  1.7358 -3.4054
  493MOL0     H66506   0.543   8.931   8.674  0.1388  0.4782  1.7347
  493MOL0     H66507   0.551   9.201   8.559  1.8986  1.4304  1.0533
  493MOL0     H66508   0.684   9.214   8.445 -1.9856  0.6283 -1.8165
  493MOL0     H66509   0.466   9.158   8.344  0.8126 -0.2310 -2.3757
  493MOL0     H66510   0.468   8.999   8.412 -0.4469  0.1383 -2.5702
  493MOL0     H66511   0.676   8.942   8.285  0.3786 -0.1395  1.9890
  493MOL0     H66512   0.688   9.109   8.241 -1.3394  1.0107  1.2748
  493MOL0     H66513   0.595   8.958   8.066 -0.3162  0.6504 -0.3224
  493MOL0     H66514   0.484   9.098   8.094  0.7958  0.0838 -0.6028
  493MOL0     H66515   0.423   8.980   7.920 -0.4673  3.6758 -0.7984
  493MOL0     H66516   0.321   8.931   7.684  1.9270  0.2067  1.3870
  493MOL0     H66517   0.168   9.022   7.678 -0.4825  1.8742  1.2028
  493MOL0     H66518   0.321   9.096   7.739 -0.2327  0.8428  3.0757
  493MOL0     H66519  -0.072   8.940   7.473  0.5110  0.1871  0.8827
  493MOL0     H66520  -0.283   8.932   7.355 -0.5828 -2.3054  0.0686
  493MOL0     H66521  -0.513   8.876   7.333 -0.9952  0.4545 -0.9145
  493MOL0     H66522  -0.669   8.928   7.389  1.5793 -2.7580  1.3897
  493MOL0     H66523  -0.511   9.051   7.157  0.4424  0.0399 -0.5817
  493MOL0     H66524  -0.677   8.983   7.170 -0.8173 -0.9381  3.1080
  493MOL0     H66525  -0.587   9.252   7.295  1.4022 -1.8228 -1.6210
  493MOL0     H66526  -0.727   9.159   7.350  2.6871 -1.5593  1.1377
  493MOL0     H66527  -0.671   9.281   7.068 -1.4923 -0.8254 -1.3126
  493MOL0     H66528  -0.812   9.182   7.109  1.5262 -2.2909  1.0715
  493MOL0     H66529  -0.744   9.452   7.259 -0.3683  1.7786 -0.0309
  493MOL0     H66530  -0.878   9.344   7.283  0.8628 -0.5945 -0.6744
  493MOL0     H66531  -0.877   9.567   7.139 -0.0848 -0.4709  0.4378
  493MOL0     H66532  -0.840   9.454   7.006  0.0813  0.1420  0.5168
  493MOL0     H66533  -1.086   9.428   7.184  0.3657  0.9217 -0.1545
  493MOL0     H66534  -1.024   9.292   7.081 -0.2430  0.6594 -0.7559
  493MOL0     H66535  -1.037   9.453   6.883  1.5775  0.4105  0.8039
  493MOL0     H66536  -1.102   9.572   7.002 -0.8668 -1.3774  0.9660
  493MOL0     H66537  -0.476   9.116   7.693 -0.8317  1.5851 -2.3936
  493MOL0     H66538  -0.283   9.060   7.841 -0.3620 -3.4403  0.8102
  493MOL0     H66539  -0.016   8.882   8.099  0.3751 -0.1484 -1.1232
  493MOL0     H66540   0.197   8.871   8.251  0.3576  1.0532 -0.3341
  493MOL0     H66541   1.399   9.301   8.794 -0.9017 -0.8831  1.0550
  493MOL0     H66542   1.625   9.251   8.680 -2.3306  0.8132 -0.7109
  493MOL0     H66543   2.022   8.965   8.735  2.6945 -1.3503 -2.2121
  493MOL0     H66544   2.261   8.913   8.746  0.5412  1.8996 -1.1428
  493MOL0     H66545   2.447   8.852   8.952 -4.5277  1.4059 -2.5022
  493MOL0     H66546   2.471   8.903   8.787 -0.0732 -0.5913 -0.0748
  493MOL0     H66547   2.695   9.004   8.859 -1.8077  0.5339 -1.0085
  493MOL0     H66548   2.688   8.829   8.887  2.4001 -0.2022  2.8918
  493MOL0     H66549   2.614   8.863   9.109 -0.7579  2.0888  0.4703
  493MOL0     H66550   2.639   9.038   9.090  2.4147  0.8861  0.8770
  493MOL0     H66551   2.831   8.981   9.209  2.0317 -3.5300  1.4845
  493MOL0     H66552   2.894   8.990   9.051  0.9873  0.6548  1.9214
  493MOL0     H66553   2.942   8.590   9.160  0.3953  1.1169  1.0141
  493MOL0     H66554   2.310   9.249   9.018  0.2059  1.8932 -1.5317
  493MOL0     H66555   2.074   9.316   8.976  0.0870 -1.2233  3.5408
  494MOL0     O66556   5.337   2.371   5.876  0.1588 -0.2735 -0.1041
  494MOL0     C66557   5.324   2.493   5.850 -0.2240  0.3196 -0.1039
  494MOL0     O66558   5.205   2.553   5.816 -0.1248  0.3995  0.4887
  494MOL0     C66559   5.104   2.468   5.780 -1.2137  0.3770 -1.1284
  494MOL0     C66560   5.071   2.452   5.646 -0.7016  0.7514 -0.0353
  494MOL0     C66561   4.957   2.377   5.609  1.2350 -0.0141 -0.3986
  494MOL0     C66562   4.872   2.320   5.709 -0.2295  0.3546 -0.2716
  494MOL0     O66563   4.748   2.270   5.678 -0.6806  0.1684  0.2704
  494MOL0     C66564   4.665   2.208   5.772  0.1408 -0.3151 -0.4054
  494MOL0     C66565   4.538   2.180   5.687 -0.1651  0.4772  0.6317
  494MOL0     C66566   4.559   2.071   5.579  0.4947 -0.1993 -0.9014
  494MOL0     C66567   4.428   2.022   5.498 -0.5348 -0.1108 -0.1709
  494MOL0     C66568   4.394   2.117   5.385  0.2925 -0.1315  0.1363
  494MOL0     C66569   4.284   2.059   5.294 -0.4315 -0.1371 -0.6146
  494MOL0     C66570   4.242   2.155   5.173  0.1090 -0.3522  0.4304
  494MOL0     C66571   4.132   2.093   5.085  0.2415 -0.4044 -0.0477
  494MOL0     N66572   4.180   1.967   5.017  0.0571 -0.0571 -0.6196
  494MOL0     C66573   4.266   1.956   4.912 -0.1643  0.5909  0.2047
  494MOL0     C66574   4.244   1.829   4.885  0.0617  0.4378  0.2250
  494MOL0     C66575   4.304   1.758   4.765  0.7534 -0.6372 -1.0463
  494MOL0     C66576   4.253   1.613   4.758  0.4759  0.2313 -0.0982
  494MOL0     C66577   4.294   1.544   4.629  0.2589 -0.0956 -0.2521
  494MOL0     C66578   4.244   1.393   4.622 -0.1144 -0.1412 -0.4912
  494MOL0     O66579   4.325   1.319   4.711  0.2673 -0.2554 -0.6541
  494MOL0     C66580   4.380   1.208   4.656 -0.1198 -0.1023  0.9297
  494MOL0     C66581   4.494   1.211   4.571  0.7935 -0.4168  0.1634
  494MOL0     C66582   4.527   1.097   4.489  0.4207 -0.6680  0.3629
  494MOL0     C66583   4.647   1.116   4.397  0.5863  0.6598  0.7790
  494MOL0     C66584   4.454   0.976   4.508 -0.9910 -0.8549  0.7417
  494MOL0     C66585   4.471   0.863   4.422  0.5625 -0.0509  0.1204
  494MOL0     O66586   4.350   0.806   4.389 -0.8683  0.0440  0.4938
  494MOL0     C66587   4.338   0.718   4.284 -0.2789 -0.1853 -0.4348
  494MOL0     C66588   4.217   0.647   4.277 -0.1507  1.1648 -0.3590
  494MOL0     C66589   4.201   0.538   4.194 -0.8417 -0.4055  0.7244
  494MOL0     C66590   4.305   0.514   4.104  0.2642  0.1281  0.3608
  494MOL0     O66591   4.280   0.422   4.006 -0.5297 -0.1849  0.4622
  494MOL0     C66592   4.253   0.466   3.872  0.6083 -0.3332  0.5146
  494MOL0     C66593   4.120   0.539   3.864 -1.4776 -0.2973 -0.2573
  494MOL0     C66594   3.994   0.459   3.899  0.1037 -0.4057  0.4881
  494MOL0     C66595   3.872   0.550   3.924  0.3862  0.0181  0.1730
  494MOL0     C66596   3.741   0.471   3.911  0.1967  0.7122 -0.6643
  494MOL0     C66597   3.611   0.539   3.942  0.1382  0.7063  0.8517
  494MOL0     C66598   3.553   0.632   3.840  0.1464 -0.0775  0.0391
  494MOL0     C66599   3.485   0.573   3.715 -0.6355  0.2730  1.1011
  494MOL0    Cl66600   3.360   0.454   3.767 -0.0588  0.1960  0.5833
  494MOL0     C66601   4.406   0.609   4.088  0.8870  0.3710  0.3180
  494MOL0     C66602   4.428   0.699   4.178 -0.2673 -0.0692 -0.7528
  494MOL0     O66603   4.578   0.825   4.385  0.2823  0.1175 -0.3583
  494MOL0     C66604   4.350   0.970   4.607 -0.7145 -0.7881 -0.2636
  494MOL0     C66605   4.312   1.090   4.671 -0.7878 -0.7519 -0.1304
  494MOL0     N66606   4.161   1.768   4.975  0.4521 -0.3619  0.2322
  494MOL0     N66607   4.120   1.860   5.058  0.0246 -0.1431 -0.1659
  494MOL0     C66608   4.912   2.338   5.843  0.6538  0.0489 -1.2217
  494MOL0     C66609   5.024   2.411   5.877  0.2197 -0.3460 -0.0482
  494MOL0     C66610   5.443   2.580   5.865  0.1966 -0.1040 -1.1665
  494MOL0     C66611   5.435   2.724   5.869 -0.5086 -0.2317  0.3542
  494MOL0     C66612   5.542   2.808   5.887 -0.2227  0.5739 -0.8401
  494MOL0     C66613   5.669   2.757   5.917 -0.1850 -0.1988 -0.1722
  494MOL0     O66614   5.774   2.834   5.971  1.2169 -0.2930  0.5770
  494MOL0     C66615   5.835   2.924   5.878  0.5439 -0.1067 -0.3556
  494MOL0     C66616   5.975   2.864   5.861  0.9398 -0.3908  0.4897
  494MOL0     C66617   6.071   2.960   5.786  0.0090  0.1909  0.1870
  494MOL0     C66618   6.087   3.088   5.858 -0.1503 -0.1232  0.4780
  494MOL0     C66619   6.210   3.154   5.816 -0.7131  0.4449 -0.4128
  494MOL0     C66620   6.318   3.209   5.805  0.2288  0.2136 -0.1907
  494MOL0     C66621   5.688   2.615   5.921  0.3620  0.7388 -0.0284
  494MOL0     C66622   5.572   2.528   5.889 -0.7121  0.4587  0.9336
  494MOL0     H66623   5.129   2.504   5.571 -1.1701 -1.0102 -1.7163
  494MOL0     H66624   4.926   2.353   5.508 -0.2471  0.9707 -0.2091
  494MOL0     H66625   4.706   2.117   5.816 -0.5986 -0.5211 -0.1204
  494MOL0     H66626   4.634   2.279   5.849  1.2149  0.4331 -0.6489
  494MOL0     H66627   4.457   2.155   5.756 -1.9930  0.2672 -1.5009
  494MOL0     H66628   4.492   2.271   5.649 -0.6478  0.1892  0.5172
  494MOL0     H66629   4.639   2.097   5.509  1.5886  0.5208  0.5571
  494MOL0     H66630   4.596   1.980   5.629 -1.5749 -0.5536  0.1112
  494MOL0     H66631   4.440   1.923   5.453  0.5360  0.2864 -0.7856
  494MOL0     H66632   4.352   2.013   5.576 -0.2370 -0.7984  0.0500
  494MOL0     H66633   4.365   2.211   5.433  3.3723  1.5449 -1.0502
  494MOL0     H66634   4.490   2.127   5.334  1.0390 -0.8634  1.3506
  494MOL0     H66635   4.319   1.972   5.239  2.2763  0.8089 -0.5363
  494MOL0     H66636   4.202   2.029   5.360  1.7341  0.3628  2.4852
  494MOL0     H66637   4.197   2.249   5.209  1.0682 -0.0476  0.8679
  494MOL0     H66638   4.333   2.178   5.117 -0.1957 -1.0953 -0.3858
  494MOL0     H66639   4.115   2.169   5.008  2.8380  0.3682  0.0389
  494MOL0     H66640   4.046   2.078   5.151  0.5769  3.3474  1.4617
  494MOL0     H66641   4.328   2.030   4.863 -0.7584  0.7466 -0.3349
  494MOL0     H66642   4.285   1.816   4.673 -1.9229  1.1285  0.4499
  494MOL0     H66643   4.409   1.758   4.792 -0.0605  2.2180  3.0788
  494MOL0     H66644   4.144   1.629   4.757  0.0620 -2.1711 -1.5851
  494MOL0     H66645   4.296   1.558   4.842 -0.8049  0.8467  1.0074
  494MOL0     H66646   4.403   1.540   4.618  0.4189  1.6099  0.4283
  494MOL0     H66647   4.255   1.597   4.542 -0.7911  0.8276  0.7470
  494MOL0     H66648   4.264   1.360   4.519  0.7059  1.7255 -0.9685
  494MOL0     H66649   4.137   1.380   4.642 -0.7324  2.2467 -1.9089
  494MOL0     H66650   4.557   1.299   4.563  1.6388 -1.0675 -0.7174
  494MOL0     H66651   4.687   1.216   4.377  0.8383  0.5184  0.5708
  494MOL0     H66652   4.731   1.065   4.445  0.8875 -0.3397 -0.7478
  494MOL0     H66653   4.628   1.080   4.295  1.9402  2.5673 -0.2342
  494MOL0     H66654   4.137   0.682   4.341 -0.2012 -0.2036  0.3765
  494MOL0     H66655   4.118   0.468   4.205 -1.1494 -0.5263 -1.7248
  494MOL0     H66656   4.334   0.529   3.835  0.5831  1.0018  2.5932
  494MOL0     H66657   4.239   0.383   3.802  0.3330  0.9545 -1.0157
  494MOL0     H66658   4.133   0.635   3.914 -1.6646  1.9507 -4.1040
  494MOL0     H66659   4.116   0.563   3.757  1.7235  1.8102 -0.0512
  494MOL0     H66660   4.011   0.409   3.995  1.4411  2.0564  1.6417
  494MOL0     H66661   3.976   0.384   3.822  2.9718 -1.1682  0.4754
  494MOL0     H66662   3.887   0.605   4.017 -3.1323  4.1254 -1.3004
  494MOL0     H66663   3.874   0.628   3.846 -0.5182  0.1919  0.3119
  494MOL0     H66664   3.750   0.388   3.981  0.3654  1.2664 -0.0109
  494MOL0     H66665   3.744   0.414   3.818 -0.0179 -0.7178  0.1806
  494MOL0     H66666   3.546   0.456   3.970  4.5178 -2.3219  3.4194
  494MOL0     H66667   3.616   0.600   4.032  0.5855 -0.7093  1.8153
  494MOL0     H66668   3.640   0.676   3.790 -0.0897  0.0699 -0.2478
  494MOL0     H66669   3.493   0.712   3.883 -0.0172 -0.0314 -0.2649
  494MOL0     H66670   3.559   0.535   3.644 -0.5199  1.3493  0.6229
  494MOL0     H66671   3.427   0.651   3.665 -1.1382 -0.0563  1.1648
  494MOL0     H66672   4.469   0.593   4.001  0.8467  0.0080  0.3531
  494MOL0     H66673   4.523   0.749   4.162  0.6051 -0.9692  1.2159
  494MOL0     H66674   4.288   0.881   4.616 -1.3664 -0.5767 -2.2524
  494MOL0     H66675   4.230   1.089   4.742 -0.0996  1.7450  0.8170
  494MOL0     H66676   4.857   2.297   5.927  1.9856 -0.4327 -0.5615
  494MOL0     H66677   5.046   2.425   5.982 -1.3378  1.3818  0.1036
  494MOL0     H66678   5.341   2.771   5.843  0.3501  1.1286 -0.3822
  494MOL0     H66679   5.532   2.915   5.882  1.7135  0.8279 -0.2880
  494MOL0     H66680   5.785   2.914   5.781 -0.0259 -2.1583  0.1020
  494MOL0     H66681   5.822   3.030   5.903 -3.0583 -0.2034 -1.2364
  494MOL0     H66682   5.970   2.773   5.800  1.7204  1.5048 -2.6409
  494MOL0     H66683   6.027   2.837   5.953 -0.5628 -1.8742  0.9575
  494MOL0     H66684   6.036   2.991   5.687 -0.0321  2.6133  0.9115
  494MOL0     H66685   6.174   2.924   5.793  1.1663  3.5395  2.5945
  494MOL0     H66686   6.094   3.065   5.965 -0.9136  0.7076  0.7236
  494MOL0     H66687   6.007   3.162   5.847  0.3040  0.2282 -0.5205
  494MOL0     H66688   6.409   3.259   5.780 -0.5476  0.8305 -1.9602
  494MOL0     H66689   5.785   2.572   5.944 -0.9129 -1.1654  2.3832
  494MOL0     H66690   5.594   2.422   5.902  2.1336  1.1879  3.0787
  495MOL0     O66691   1.018   4.089   3.200 -0.4035  0.7516 -0.4271
  495MOL0     C66692   1.060   4.202   3.171  0.1891  0.1704  0.3402
  495MOL0     O66693   0.988   4.313   3.151  0.2874  0.7107  0.3890
  495MOL0     C66694   0.850   4.317   3.179 -0.4603  0.2495 -0.3936
  495MOL0     C66695   0.757   4.224   3.131 -0.7696 -0.2848  0.2718
  495MOL0     C66696   0.623   4.232   3.151  0.1327 -0.2075 -1.1901
  495MOL0     C66697   0.576   4.319   3.244  0.4219 -0.4396 -0.4484
  495MOL0     O66698   0.444   4.329   3.274  0.1678 -0.3605 -0.4052
  495MOL0     C66699   0.348   4.253   3.205 -0.2167  0.1054  0.5588
  495MOL0     C66700   0.208   4.296   3.249 -0.0658  0.1916 -0.0235
  495MOL0     C66701   0.100   4.249   3.139 -0.1714  0.7532 -0.1442
  495MOL0     C66702  -0.032   4.308   3.152  0.6166  0.7896 -0.1277
  495MOL0     C66703  -0.113   4.294   3.022 -1.0525 -0.2959 -0.3780
  495MOL0     C66704  -0.255   4.341   3.047  0.0603  0.0832 -0.1732
  495MOL0     C66705  -0.338   4.312   2.923 -0.0974  0.3202  0.3173
  495MOL0     C66706  -0.478   4.371   2.949  0.8415  0.2165  0.0858
  495MOL0     N66707  -0.578   4.287   2.881 -0.1556 -0.5444  0.1250
  495MOL0     C66708  -0.597   4.286   2.745  0.6171 -0.4328  0.4147
  495MOL0     C66709  -0.714   4.226   2.731  1.4351  0.0916 -0.2227
  495MOL0     C66710  -0.788   4.192   2.610  0.2265  0.1589 -0.4292
  495MOL0     C66711  -0.928   4.263   2.604 -0.5792 -0.0531 -1.6724
  495MOL0     C66712  -1.025   4.215   2.494 -0.5099 -1.1174 -0.3358
  495MOL0     C66713  -1.161   4.284   2.502  0.1297 -1.1422  0.3347
  495MOL0     O66714  -1.247   4.218   2.407  0.1099 -0.3113  0.3968
  495MOL0     C66715  -1.370   4.268   2.384  0.2403 -0.1110 -0.8032
  495MOL0     C66716  -1.458   4.187   2.312  0.4545 -0.1351  0.0259
  495MOL0     C66717  -1.591   4.222   2.279  0.2210  0.4110 -0.4031
  495MOL0     C66718  -1.680   4.126   2.200  0.3614  0.1318 -0.1046
  495MOL0     C66719  -1.632   4.348   2.335 -0.4866 -0.1788 -0.1818
  495MOL0     C66720  -1.771   4.403   2.312 -0.3447  0.4975  0.3460
  495MOL0     O66721  -1.824   4.504   2.390 -0.2351 -0.0435  0.3894
  495MOL0     C66722  -1.944   4.561   2.375 -0.4648 -0.4239 -0.8030
  495MOL0     C66723  -2.062   4.484   2.399 -0.6879  0.0110  0.6377
  495MOL0     C66724  -2.187   4.546   2.397  0.1036 -0.9214 -0.3702
  495MOL0     C66725  -2.188   4.681   2.369 -0.2164 -0.7294  0.0467
  495MOL0     O66726  -2.308   4.744   2.381 -0.5335 -0.0415  0.9243
  495MOL0     C66727  -2.355   4.838   2.279 -1.0791 -1.0129 -0.1414
  495MOL0     C66728  -2.476   4.903   2.341  0.0770  0.4672  0.1581
  495MOL0     C66729  -2.543   4.983   2.229 -0.5868 -0.0995 -0.0496
  495MOL0     C66730  -2.657   5.074   2.278  0.4140 -0.6041  0.6854
  495MOL0     C66731  -2.721   5.165   2.169 -0.2609  0.3186 -0.3814
  495MOL0     C66732  -2.830   5.261   2.225  0.3343  0.5605 -0.2277
  495MOL0     C66733  -2.901   5.325   2.107  0.1225 -0.0096 -0.1525
  495MOL0     C66734  -3.048   5.353   2.124 -1.4748  0.1088 -0.7027
  495MOL0    Cl66735  -3.087   5.447   2.273  0.1761 -0.0920 -0.1006
  495MOL0     C66736  -2.070   4.757   2.334  0.2693  0.1557  0.2016
  495MOL0     C66737  -1.946   4.695   2.334 -0.2851 -0.4467 -1.0767
  495MOL0     O66738  -1.831   4.360   2.210 -0.4401  0.6237 -0.2070
  495MOL0     C66739  -1.550   4.414   2.428  0.0757 -0.8355  0.0507
  495MOL0     C66740  -1.417   4.374   2.452 -0.4417  0.5618 -0.1812
  495MOL0     N66741  -0.751   4.183   2.866  0.3174 -0.5706  0.4258
  495MOL0     N66742  -0.673   4.220   2.947  0.3247 -0.0936 -0.6471
  495MOL0     C66743   0.666   4.403   3.312 -0.3065 -0.0324 -0.2068
  495MOL0     C66744   0.806   4.404   3.278 -0.1900 -0.4704  0.9291
  495MOL0     C66745   1.207   4.214   3.150  0.9391 -0.0507 -0.8024
  495MOL0     C66746   1.292   4.114   3.188  0.2201  0.1976  0.2244
  495MOL0     C66747   1.431   4.128   3.177 -0.7263  0.2918  0.6658
  495MOL0     C66748   1.489   4.247   3.151  0.8336 -0.1058  0.3462
  495MOL0     O66749   1.622   4.256   3.161  0.5001 -0.5635 -0.1901
  495MOL0     C66750   1.700   4.274   3.048 -0.3059 -0.1021 -0.0408
  495MOL0     C66751   1.842   4.294   3.091  0.0745 -0.3385  0.0831
  495MOL0     C66752   1.847   4.422   3.170  0.1898 -0.5492 -0.3080
  495MOL0     C66753   1.985   4.476   3.202 -0.8243 -0.4172  0.5674
  495MOL0     C66754   2.076   4.384   3.266  0.2054 -0.0635  0.5654
  495MOL0     C66755   2.158   4.302   3.316 -0.1134 -0.5164 -0.6627
  495MOL0     C66756   1.409   4.357   3.120 -0.4368 -0.3205 -0.8427
  495MOL0     C66757   1.273   4.342   3.132  0.3777  0.0038  0.4356
  495MOL0     H66758   0.788   4.148   3.060  0.1200 -0.2291  0.5909
  495MOL0     H66759   0.562   4.153   3.109  1.9572 -2.5754  0.3957
  495MOL0     H66760   0.358   4.269   3.097  0.0906 -0.4576  0.5061
  495MOL0     H66761   0.357   4.146   3.221  3.0681  0.4108  1.4992
  495MOL0     H66762   0.185   4.244   3.342 -2.8638  1.8184  0.3249
  495MOL0     H66763   0.188   4.403   3.261 -0.7872 -0.0516  1.1010
  495MOL0     H66764   0.146   4.265   3.041  3.5184  0.3391  1.3236
  495MOL0     H66765   0.089   4.140   3.142 -0.2854  0.7441 -0.8171
  495MOL0     H66766  -0.084   4.260   3.236 -0.4879 -0.7170 -1.6081
  495MOL0     H66767  -0.011   4.413   3.172  1.5290  0.3163  1.6224
  495MOL0     H66768  -0.071   4.367   2.953 -0.8941 -0.9284 -0.9580
  495MOL0     H66769  -0.106   4.193   2.980  4.4802  0.6881 -2.6851
  495MOL0     H66770  -0.290   4.291   3.138  0.0691  2.7188  1.3565
  495MOL0     H66771  -0.256   4.449   3.063  2.2006  0.2202 -0.6380
  495MOL0     H66772  -0.306   4.351   2.826 -1.1144 -0.6803 -0.4403
  495MOL0     H66773  -0.345   4.203   2.920  0.5312  0.2903 -2.2466
  495MOL0     H66774  -0.485   4.471   2.907  0.2498 -0.4128 -1.4081
  495MOL0     H66775  -0.496   4.372   3.057 -1.6462  2.8939 -0.2337
  495MOL0     H66776  -0.541   4.329   2.663 -2.7541 -0.0046 -1.8475
  495MOL0     H66777  -0.725   4.224   2.527  0.3433  1.1770  0.0357
  495MOL0     H66778  -0.794   4.083   2.602  1.5233 -0.2042  2.3846
  495MOL0     H66779  -0.906   4.368   2.586  2.9682 -0.6612 -1.6868
  495MOL0     H66780  -0.974   4.256   2.703  0.0663 -0.2764 -1.3770
  495MOL0     H66781  -1.043   4.107   2.492  1.2750 -1.6139  2.8810
  495MOL0     H66782  -0.978   4.246   2.400  3.5142  2.9817  2.5453
  495MOL0     H66783  -1.140   4.385   2.464 -0.7623 -0.9787  0.2534
  495MOL0     H66784  -1.207   4.285   2.601 -2.4878 -0.5889 -0.7758
  495MOL0     H66785  -1.418   4.095   2.272  1.2783  0.5405 -0.7394
  495MOL0     H66786  -1.716   4.164   2.104 -1.6594  1.5261  1.1207
  495MOL0     H66787  -1.625   4.037   2.169 -1.7564 -0.7249 -1.6449
  495MOL0     H66788  -1.768   4.088   2.252  0.6704 -1.3184 -0.5904
  495MOL0     H66789  -2.053   4.384   2.440  0.4014  0.2053  0.8980
  495MOL0     H66790  -2.267   4.482   2.433  1.3722 -2.8643 -0.8575
  495MOL0     H66791  -2.276   4.912   2.262 -0.7671 -0.2138  3.9109
  495MOL0     H66792  -2.378   4.772   2.194  2.8603 -0.5427 -1.7922
  495MOL0     H66793  -2.551   4.830   2.373  1.4744 -1.4944 -0.8287
  495MOL0     H66794  -2.451   4.964   2.428 -0.5054  0.1113  0.5844
  495MOL0     H66795  -2.592   4.909   2.166 -3.2618  0.1065  1.6528
  495MOL0     H66796  -2.473   5.042   2.169 -1.2418  1.3532  0.5665
  495MOL0     H66797  -2.739   5.016   2.323 -0.9403 -1.8306 -2.9353
  495MOL0     H66798  -2.614   5.125   2.364  1.6263 -1.9208  0.9090
  495MOL0     H66799  -2.759   5.098   2.091  1.1912 -2.3699  1.0594
  495MOL0     H66800  -2.640   5.224   2.125  1.9227 -0.5500  2.1660
  495MOL0     H66801  -2.902   5.208   2.288 -1.5656  0.1644 -2.5964
  495MOL0     H66802  -2.773   5.337   2.280 -0.2671  2.1138 -1.6418
  495MOL0     H66803  -2.887   5.263   2.018 -1.3933 -0.1091 -0.3537
  495MOL0     H66804  -2.846   5.418   2.094  2.0222 -1.0062  0.3766
  495MOL0     H66805  -3.116   5.269   2.115  0.6792 -1.8397  0.1456
  495MOL0     H66806  -3.078   5.419   2.042  0.8981  0.3362 -1.4643
  495MOL0     H66807  -2.084   4.862   2.310  0.1342  0.3994  1.3326
  495MOL0     H66808  -1.858   4.752   2.306  0.4300  0.4737  2.5391
  495MOL0     H66809  -1.580   4.501   2.486  0.6373  0.9527 -2.1968
  495MOL0     H66810  -1.365   4.411   2.540 -0.1117 -1.3939  0.4940
  495MOL0     H66811   0.629   4.477   3.383 -0.0155  0.2682 -0.3659
  495MOL0     H66812   0.885   4.470   3.312  0.4881 -0.9177  0.2541
  495MOL0     H66813   1.243   4.021   3.218 -2.2021  1.2877 -0.0986
  495MOL0     H66814   1.494   4.041   3.192  0.9369  1.5606  1.3318
  495MOL0     H66815   1.703   4.185   2.985  1.9405  1.5079 -2.4255
  495MOL0     H66816   1.656   4.348   2.979 -1.7162 -0.0682  0.8591
  495MOL0     H66817   1.898   4.301   2.997 -1.3045 -0.0984 -0.7437
  495MOL0     H66818   1.878   4.215   3.158 -1.3578 -0.8656  0.2552
  495MOL0     H66819   1.802   4.412   3.269  1.8027  1.5130  0.7199
  495MOL0     H66820   1.795   4.506   3.121  2.4912 -0.5006 -2.9060
  495MOL0     H66821   1.996   4.575   3.248  1.7965 -0.2357 -0.2755
  495MOL0     H66822   2.034   4.480   3.104 -2.4056 -2.2725 -0.3641
  495MOL0     H66823   2.234   4.237   3.354  0.0239  0.7923  1.5033
  495MOL0     H66824   1.455   4.452   3.092 -3.2044  1.1705 -0.6614
  495MOL0     H66825   1.210   4.427   3.111 -1.8745 -0.9350  2.9180
  496MOL0     O66826   1.308   6.181   0.200 -0.3845  0.0451 -0.5032
  496MOL0     C66827   1.367   6.177   0.312  0.0521  0.0956 -0.5990
  496MOL0     O66828   1.317   6.140   0.431 -0.1259  1.1429 -0.1817
  496MOL0     C66829   1.195   6.075   0.437  0.0735  0.2205  0.5043
  496MOL0     C66830   1.080   6.121   0.378  0.4601  0.6671 -0.2433
  496MOL0     C66831   0.953   6.054   0.389 -1.1029  0.3896  0.5087
  496MOL0     C66832   0.946   5.944   0.478 -0.1461 -0.5864  0.1444
  496MOL0     O66833   0.820   5.897   0.488  0.5376  0.4595  0.2159
  496MOL0     C66834   0.781   5.856   0.621  0.1225 -0.1877 -0.0047
  496MOL0     C66835   0.628   5.822   0.638 -0.0578 -0.0138  0.2238
  496MOL0     C66836   0.606   5.716   0.526  0.7457  0.1635  0.5186
  496MOL0     C66837   0.471   5.643   0.556  0.5979 -0.3958 -0.1437
  496MOL0     C66838   0.481   5.540   0.666 -0.2667 -0.0162 -0.5353
  496MOL0     C66839   0.356   5.487   0.732  0.6248 -0.0668 -0.2572
  496MOL0     C66840   0.261   5.426   0.638 -0.1870  0.2742  0.8233
  496MOL0     C66841   0.316   5.295   0.585 -0.2407  0.9767 -0.2042
  496MOL0     N66842   0.369   5.188   0.679  0.2523  0.2392 -0.1939
  496MOL0     C66843   0.316   5.061   0.718  0.6732  0.4345 -0.4069
  496MOL0     C66844   0.411   5.007   0.803  0.5692  0.0336  1.1277
  496MOL0     C66845   0.412   4.869   0.868  1.5009 -0.3258 -0.5032
  496MOL0     C66846   0.478   4.863   1.005  0.0181  0.0491 -0.2819
  496MOL0     C66847   0.419   4.937   1.126 -0.6062  0.6053  0.1710
  496MOL0     C66848   0.392   5.089   1.110  0.6485 -0.5157 -0.7538
  496MOL0     O66849   0.338   5.150   1.234 -0.2550  0.6806 -0.2853
  496MOL0     C66850   0.205   5.149   1.256 -0.2932  0.0116  0.0830
  496MOL0     C66851   0.116   5.078   1.180 -0.2430 -0.2456 -0.6012
  496MOL0     C66852  -0.023   5.069   1.213  0.1095 -0.3108  0.4959
  496MOL0     C66853  -0.104   4.977   1.110 -0.2227 -0.0906  0.1780
  496MOL0     C66854  -0.075   5.152   1.320  0.1954 -0.5975  0.3844
  496MOL0     C66855  -0.216   5.168   1.344  0.3940  0.1816 -0.0740
  496MOL0     O66856  -0.297   5.083   1.280 -0.3386  0.0151  0.0752
  496MOL0     C66857  -0.438   5.097   1.274  0.1510 -0.5319  0.0350
  496MOL0     C66858  -0.520   5.170   1.361 -0.0521 -0.7510 -0.6879
  496MOL0     C66859  -0.662   5.160   1.368 -0.0882  0.1681 -0.1541
  496MOL0     C66860  -0.725   5.077   1.276  0.8257 -0.5224 -0.2448
  496MOL0     O66861  -0.861   5.078   1.284 -0.5198  0.1578  0.3061
  496MOL0     C66862  -0.949   5.013   1.181 -0.3114 -0.6478  0.3122
  496MOL0     C66863  -1.094   5.075   1.184 -0.4624 -0.4821 -0.1151
  496MOL0     C66864  -1.128   5.116   1.033  0.4235  0.2267 -0.9575
  496MOL0     C66865  -1.280   5.150   1.031  0.7582  0.5104  0.3162
  496MOL0     C66866  -1.306   5.211   0.889  0.8022 -0.7606 -0.2529
  496MOL0     C66867  -1.448   5.255   0.881 -0.9056 -0.9699 -0.5050
  496MOL0     C66868  -1.481   5.275   0.735  1.0769  0.1202 -0.9855
  496MOL0     C66869  -1.620   5.330   0.716 -0.4180 -0.1963  0.5997
  496MOL0    Cl66870  -1.680   5.274   0.553 -0.1300  0.1604 -0.0033
  496MOL0     C66871  -0.649   4.997   1.191 -0.1292  0.7480 -0.2685
  496MOL0     C66872  -0.505   5.007   1.192 -0.2348 -0.2431 -0.2742
  496MOL0     O66873  -0.250   5.257   1.420  0.7520 -0.1723  0.9763
  496MOL0     C66874   0.019   5.233   1.389 -0.3507 -0.3058 -0.4774
  496MOL0     C66875   0.160   5.230   1.361 -0.7742 -0.4211  0.2514
  496MOL0     N66876   0.515   5.096   0.806 -0.0392 -0.4453 -0.3136
  496MOL0     N66877   0.496   5.196   0.735  0.0750 -0.6558  0.1230
  496MOL0     C66878   1.062   5.894   0.536  0.0971  0.2998  0.6419
  496MOL0     C66879   1.180   5.961   0.514 -0.9378  0.3845  0.1157
  496MOL0     C66880   1.510   6.227   0.293  0.5930  0.3726 -0.3251
  496MOL0     C66881   1.605   6.191   0.393  0.3627  0.1382  0.2701
  496MOL0     C66882   1.729   6.236   0.382 -0.1755  0.0165 -0.3617
  496MOL0     C66883   1.769   6.317   0.276  0.0362 -0.1422  0.6168
  496MOL0     O66884   1.906   6.340   0.269  0.0534 -0.3567 -0.4441
  496MOL0     C66885   1.959   6.411   0.154 -0.0130 -0.6140  0.3280
  496MOL0     C66886   2.106   6.427   0.166  0.3874 -0.7567 -0.1455
  496MOL0     C66887   2.174   6.488   0.045  0.4078 -0.0283  0.1903
  496MOL0     C66888   2.310   6.518   0.082  0.0490 -0.2479  0.5571
  496MOL0     C66889   2.304   6.653   0.133  0.2863  1.0239  0.3401
  496MOL0     C66890   2.294   6.767   0.185 -0.0444 -1.0697  0.0946
  496MOL0     C66891   1.680   6.353   0.173  1.2070  0.5460 -0.0928
  496MOL0     C66892   1.549   6.304   0.185  0.1485  0.5006  0.1179
  496MOL0     H66893   1.096   6.214   0.325 -0.3738  0.7227 -0.4052
  496MOL0     H66894   0.870   6.087   0.328 -0.5705 -0.3121 -0.6276
  496MOL0     H66895   0.839   5.764   0.639  0.1838 -0.1235  0.1294
  496MOL0     H66896   0.801   5.936   0.694 -0.7483 -0.1664  0.2251
  496MOL0     H66897   0.613   5.775   0.735  1.1270  1.8054  1.3680
  496MOL0     H66898   0.558   5.903   0.618 -0.7362 -0.9641 -1.4124
  496MOL0     H66899   0.596   5.763   0.428 -2.6000  1.5976  1.4058
  496MOL0     H66900   0.687   5.642   0.531 -1.7251 -3.0857 -2.5187
  496MOL0     H66901   0.396   5.718   0.583  0.6746  0.0808 -1.2030
  496MOL0     H66902   0.440   5.588   0.467  0.1093 -0.8977  0.3227
  496MOL0     H66903   0.542   5.460   0.622  1.3948  1.8058 -1.7329
  496MOL0     H66904   0.533   5.587   0.749 -4.3781  2.1756  1.0862
  496MOL0     H66905   0.382   5.419   0.814  0.4174  1.0756  0.7685
  496MOL0     H66906   0.305   5.573   0.776  2.1820  2.5032 -3.0715
  496MOL0     H66907   0.163   5.420   0.686 -0.9124  0.1906 -0.6039
  496MOL0     H66908   0.247   5.499   0.557 -0.0651 -0.2420  0.3298
  496MOL0     H66909   0.401   5.322   0.522 -0.8010  1.6600 -0.6811
  496MOL0     H66910   0.233   5.253   0.528 -0.5164 -1.0984  1.5853
  496MOL0     H66911   0.219   5.022   0.689 -1.2268  2.1246  3.0285
  496MOL0     H66912   0.315   4.818   0.870  1.6994 -0.7075  1.2518
  496MOL0     H66913   0.479   4.814   0.800 -0.0293 -0.6473 -1.8236
  496MOL0     H66914   0.583   4.893   0.994  0.4315 -1.5523 -1.0762
  496MOL0     H66915   0.471   4.759   1.039 -1.0610  0.5647  1.1676
  496MOL0     H66916   0.487   4.926   1.211 -1.1628  2.1073  0.8385
  496MOL0     H66917   0.323   4.892   1.154 -2.3388  2.8433 -1.8283
  496MOL0     H66918   0.327   5.111   1.025 -2.0883 -1.3170  0.9998
  496MOL0     H66919   0.489   5.131   1.084  0.9611  1.7688  3.1966
  496MOL0     H66920   0.166   5.029   1.097  1.1216 -0.7991  0.5060
  496MOL0     H66921  -0.140   4.891   1.167 -3.3168  0.6449 -0.4648
  496MOL0     H66922  -0.194   5.020   1.064 -0.9371 -1.6779  0.0502
  496MOL0     H66923  -0.039   4.946   1.028  1.6354  5.4680 -0.8954
  496MOL0     H66924  -0.474   5.242   1.428 -0.6995  0.2033 -1.2391
  496MOL0     H66925  -0.732   5.205   1.439 -1.2295  1.4165 -1.9900
  496MOL0     H66926  -0.899   5.015   1.084  1.5612  2.2335  1.1890
  496MOL0     H66927  -0.969   4.911   1.214 -1.0194 -0.7494 -0.4051
  496MOL0     H66928  -1.172   5.015   1.232  0.7526 -0.4059  2.0868
  496MOL0     H66929  -1.084   5.166   1.244 -0.4361 -0.0458 -0.7648
  496MOL0     H66930  -1.104   5.040   0.959  0.5500 -0.5202 -0.1637
  496MOL0     H66931  -1.068   5.204   1.008 -0.7582  1.1387 -0.6569
  496MOL0     H66932  -1.338   5.058   1.043  0.7845  0.2355 -1.4108
  496MOL0     H66933  -1.312   5.213   1.114 -0.9332  0.6672 -0.4164
  496MOL0     H66934  -1.288   5.138   0.810  0.9747 -0.2855 -0.6506
  496MOL0     H66935  -1.237   5.294   0.875 -1.4883  0.8550 -2.9607
  496MOL0     H66936  -1.511   5.173   0.917  0.5857 -1.1738  1.8491
  496MOL0     H66937  -1.475   5.341   0.944  0.9084  0.9013 -2.1436
  496MOL0     H66938  -1.480   5.176   0.688  0.5349 -0.3858  0.0248
  496MOL0     H66939  -1.415   5.348   0.687  2.2912  1.9259  2.9832
  496MOL0     H66940  -1.600   5.436   0.703  0.7775 -0.0941  2.8638
  496MOL0     H66941  -1.690   5.298   0.795 -1.6260 -1.7937 -1.0282
  496MOL0     H66942  -0.705   4.924   1.134 -1.0019 -0.2318  1.7290
  496MOL0     H66943  -0.440   4.941   1.136  0.2390 -0.1104  0.1080
  496MOL0     H66944  -0.018   5.300   1.466 -1.1794  0.2011 -1.3079
  496MOL0     H66945   0.239   5.287   1.409 -0.4328  0.2442 -1.0564
  496MOL0     H66946   1.056   5.807   0.600 -0.2188  0.7983  1.3025
  496MOL0     H66947   1.271   5.927   0.564 -2.7992 -2.0485  2.1139
  496MOL0     H66948   1.558   6.129   0.469 -1.2194  0.1948 -0.6233
  496MOL0     H66949   1.794   6.197   0.460  0.1240 -1.0151 -1.1079
  496MOL0     H66950   1.937   6.362   0.059 -0.4582  0.6427 -0.2297
  496MOL0     H66951   1.918   6.511   0.140 -3.4499 -2.1481 -1.6251
  496MOL0     H66952   2.146   6.327   0.183 -3.2253 -2.2598  0.3273
  496MOL0     H66953   2.120   6.492   0.253  1.8975  1.0064 -1.6042
  496MOL0     H66954   2.107   6.571   0.018 -0.5042 -0.2384  1.6669
  496MOL0     H66955   2.168   6.411  -0.033 -1.3690 -0.3317  0.5731
  496MOL0     H66956   2.373   6.507  -0.007 -2.4065  1.5635 -1.5437
  496MOL0     H66957   2.351   6.449   0.156 -0.9462 -0.4939  0.8911
  496MOL0     H66958   2.292   6.865   0.227 -0.0702 -0.6175 -0.9190
  496MOL0     H66959   1.697   6.431   0.100 -1.3074  2.0809  0.8032
  496MOL0     H66960   1.481   6.340   0.109 -0.4950  0.2137  0.5565
  497MOL0     O66961   2.462   7.333   6.717  0.3230 -0.3890 -0.8221
  497MOL0     C66962   2.506   7.223   6.684  0.4629 -0.1624 -0.6834
  497MOL0     O66963   2.434   7.107   6.690 -0.7171 -0.2027 -0.7886
  497MOL0     C66964   2.306   7.121   6.731  0.4012 -0.3462 -0.5211
  497MOL0     C66965   2.264   7.112   6.862  0.3950  0.0654  0.5811
  497MOL0     C66966   2.129   7.131   6.905  0.5604 -0.5183  0.4017
  497MOL0     C66967   2.034   7.166   6.798  0.9321 -0.3943  0.3264
  497MOL0     O66968   1.900   7.206   6.816  0.1869  0.2051 -0.5943
  497MOL0     C66969   1.830   7.144   6.933  0.1823  0.0917  0.1315
  497MOL0     C66970   1.685   7.187   6.919 -0.0933  0.6357 -0.2448
  497MOL0     C66971   1.605   7.155   7.042  0.6295 -0.6577  0.5401
  497MOL0     C66972   1.615   7.264   7.156  0.7940  0.2149  0.6473
  497MOL0     C66973   1.509   7.274   7.260 -0.6088  0.7291 -0.2843
  497MOL0     C66974   1.558   7.345   7.387  0.1829  0.0292  0.6256
  497MOL0     C66975   1.625   7.482   7.366 -0.0436 -0.3324 -0.2231
  497MOL0     C66976   1.689   7.547   7.489  1.0561  0.3948  0.9631
  497MOL0     N66977   1.793   7.462   7.543 -0.4633 -0.2261 -0.8769
  497MOL0     C66978   1.919   7.446   7.500  0.0145 -0.2498  0.5729
  497MOL0     C66979   1.972   7.350   7.582  0.7559  1.0371 -0.2553
  497MOL0     C66980   2.099   7.272   7.559  0.2934 -0.5490  0.3998
  497MOL0     C66981   2.071   7.127   7.526 -0.3950  0.1624 -0.2438
  497MOL0     C66982   1.989   7.111   7.400 -0.8055 -1.0854 -0.3135
  497MOL0     C66983   1.982   6.965   7.355  0.3910 -0.2896 -0.6709
  497MOL0     O66984   1.897   6.894   7.450  0.0164  0.4186 -0.4632
  497MOL0     C66985   1.756   6.874   7.439  0.0555 -0.3553  0.2327
  497MOL0     C66986   1.700   6.790   7.532  0.3954 -0.7908 -0.4260
  497MOL0     C66987   1.569   6.743   7.531 -1.0379  0.8345  0.5923
  497MOL0     C66988   1.521   6.652   7.644 -0.5725 -0.2913 -0.3449
  497MOL0     C66989   1.489   6.776   7.420 -0.3456  0.2663 -0.1820
  497MOL0     C66990   1.350   6.725   7.392  0.2942 -0.2477  0.2086
  497MOL0     O66991   1.310   6.741   7.258  0.3550  0.5876  0.1435
  497MOL0     C66992   1.180   6.733   7.232 -0.0723 -0.2846 -0.6269
  497MOL0     C66993   1.124   6.618   7.180  1.2534  0.4087 -0.1499
  497MOL0     C66994   0.992   6.605   7.147  0.4794  0.7017 -0.3595
  497MOL0     C66995   0.909   6.718   7.156 -0.0974  0.3386  0.7776
  497MOL0     O66996   0.783   6.689   7.118 -0.5980  0.1903 -0.0307
  497MOL0     C66997   0.694   6.800   7.099  0.0086  0.7990 -0.7591
  497MOL0     C66998   0.552   6.740   7.076  0.5224  0.7536  0.0020
  497MOL0     C66999   0.446   6.850   7.074 -0.5888  0.8114 -0.0877
  497MOL0     C67000   0.315   6.811   7.013  0.0294  1.1752  0.0289
  497MOL0     C67001   0.194   6.899   7.041 -0.8879 -0.1598 -0.1466
  497MOL0     C67002   0.074   6.841   6.949 -0.1652  0.0735 -0.2208
  497MOL0     C67003  -0.064   6.905   7.001 -0.2435  0.5410  0.5822
  497MOL0     C67004  -0.167   6.860   6.900 -0.3286  0.0457 -0.7051
  497MOL0    Cl67005  -0.336   6.900   6.968 -0.4169 -0.2553 -0.2654
  497MOL0     C67006   0.966   6.837   7.209  0.9098  0.1921  0.5462
  497MOL0     C67007   1.100   6.848   7.246  0.6970  0.7175  0.0635
  497MOL0     O67008   1.270   6.682   7.481 -0.1904 -0.1870  0.2749
  497MOL0     C67009   1.538   6.877   7.335 -0.5305 -0.0651 -0.3688
  497MOL0     C67010   1.671   6.922   7.341 -0.4668 -0.2069  0.2395
  497MOL0     N67011   1.875   7.314   7.681  0.0942 -0.2299  0.0433
  497MOL0     N67012   1.769   7.391   7.656  0.4336 -0.3512  0.0721
  497MOL0     C67013   2.076   7.164   6.667 -0.1612 -0.6458  0.5108
  497MOL0     C67014   2.210   7.138   6.630  0.5777  0.1290 -0.1592
  497MOL0     C67015   2.654   7.202   6.661 -0.2098  0.1528  0.2891
  497MOL0     C67016   2.744   7.307   6.668 -0.8198 -0.0294  0.7579
  497MOL0     C67017   2.882   7.288   6.653  0.2362 -0.0136  0.2506
  497MOL0     C67018   2.941   7.161   6.635 -0.3518  0.2744  1.1551
  497MOL0     O67019   3.077   7.154   6.629 -0.5708 -0.4685 -0.0898
  497MOL0     C67020   3.145   7.043   6.569 -0.0542 -0.1366  0.6159
  497MOL0     C67021   3.276   7.087   6.499 -0.5679  0.2035 -0.3664
  497MOL0     C67022   3.362   6.961   6.495  0.2378  0.0757  0.4416
  497MOL0     C67023   3.466   6.943   6.377  0.1362  0.8502  0.4383
  497MOL0     C67024   3.548   7.064   6.350  0.3626  0.7081 -0.6359
  497MOL0     C67025   3.613   7.160   6.326 -0.2635 -0.4626 -0.2477
  497MOL0     C67026   2.853   7.048   6.631 -0.1789 -0.0199  0.2274
  497MOL0     C67027   2.714   7.071   6.641 -0.1551  0.3803 -0.3780
  497MOL0     H67028   2.350   7.090   6.925  0.0229  0.9460  1.4264
  497MOL0     H67029   2.107   7.120   7.010 -3.7796 -0.2811 -0.2800
  497MOL0     H67030   1.836   7.035   6.928 -1.5995  0.0015 -0.7107
  497MOL0     H67031   1.865   7.165   7.034 -1.8189 -1.1892  1.1650
  497MOL0     H67032   1.687   7.295   6.904 -0.1480  0.7593  0.5824
  497MOL0     H67033   1.637   7.133   6.837 -1.0896  0.5104  0.4022
  497MOL0     H67034   1.503   7.143   7.005  1.5444 -0.3394 -2.3084
  497MOL0     H67035   1.633   7.059   7.086  0.5845 -0.0677  1.9176
  497MOL0     H67036   1.711   7.253   7.208  0.2536 -2.9602  1.1637
  497MOL0     H67037   1.629   7.363   7.110  2.9702  0.2607  1.2570
  497MOL0     H67038   1.428   7.336   7.219 -1.4547  0.5624  1.0573
  497MOL0     H67039   1.488   7.172   7.291  2.4959  0.3504  0.9001
  497MOL0     H67040   1.472   7.364   7.451  1.5843  0.7640  2.3978
  497MOL0     H67041   1.635   7.290   7.443 -0.0647 -0.5203  0.4313
  497MOL0     H67042   1.710   7.463   7.299  0.3446  1.7073 -0.3727
  497MOL0     H67043   1.551   7.545   7.315  1.7248 -0.8308 -3.7081
  497MOL0     H67044   1.604   7.562   7.556  1.0634  1.1201  0.8199
  497MOL0     H67045   1.731   7.642   7.455  2.9583  0.1606  2.4606
  497MOL0     H67046   1.955   7.484   7.405 -0.5778 -0.2081  0.3659
  497MOL0     H67047   2.158   7.312   7.476 -0.9039 -0.9132 -0.6488
  497MOL0     H67048   2.159   7.285   7.650 -0.1423 -0.1862  0.6405
  497MOL0     H67049   2.010   7.088   7.608 -0.1941  0.8414  0.2392
  497MOL0     H67050   2.162   7.069   7.545 -0.5794  0.7908  3.2571
  497MOL0     H67051   2.036   7.159   7.314 -2.0719 -2.1157 -1.6221
  497MOL0     H67052   1.892   7.156   7.422  0.9724  2.6492  0.8062
  497MOL0     H67053   2.086   6.930   7.353  0.8558  0.8105  1.4149
  497MOL0     H67054   1.938   6.968   7.255 -1.7992  4.0964  0.2111
  497MOL0     H67055   1.761   6.767   7.619 -0.0112 -2.4804 -0.5492
  497MOL0     H67056   1.457   6.568   7.613 -1.6480  0.1978  0.4504
  497MOL0     H67057   1.600   6.609   7.706 -0.9513 -0.4808  0.0117
  497MOL0     H67058   1.440   6.706   7.694 -1.7184  1.1801 -3.4965
  497MOL0     H67059   1.178   6.527   7.157 -3.3150 -2.2195 -2.0542
  497MOL0     H67060   0.954   6.509   7.112  1.3905 -0.4900  1.7180
  497MOL0     H67061   0.696   6.857   7.192  4.0269  3.2096 -2.0797
  497MOL0     H67062   0.721   6.860   7.011  2.0847  0.5429 -0.3508
  497MOL0     H67063   0.564   6.692   6.979 -0.9404 -1.3011  0.7601
  497MOL0     H67064   0.518   6.671   7.154  1.5349  0.4268  0.1786
  497MOL0     H67065   0.482   6.940   7.022 -1.8656  1.5916  0.3379
  497MOL0     H67066   0.422   6.881   7.176 -2.0045 -1.3791  0.3043
  497MOL0     H67067   0.324   6.816   6.904 -0.4054  1.2192 -0.0037
  497MOL0     H67068   0.293   6.707   7.039  1.3667  0.2667 -2.1854
  497MOL0     H67069   0.225   7.003   7.027 -0.8008 -0.1909 -0.1868
  497MOL0     H67070   0.158   6.906   7.145 -0.6665  0.1021 -0.0867
  497MOL0     H67071   0.087   6.850   6.841  0.5053  0.2270 -0.1308
  497MOL0     H67072   0.069   6.735   6.979  1.6443 -0.0389 -0.2435
  497MOL0     H67073  -0.053   7.014   6.997  3.0683  0.3073  0.1512
  497MOL0     H67074  -0.084   6.862   7.100  0.1497 -3.1667 -0.7877
  497MOL0     H67075  -0.150   6.754   6.878  0.8917 -0.1222  0.9070
  497MOL0     H67076  -0.152   6.917   6.808  2.7131 -0.5202 -0.6535
  497MOL0     H67077   0.907   6.928   7.219 -0.9612 -0.6619 -1.8521
  497MOL0     H67078   1.139   6.940   7.287  0.6047  0.4111  0.8503
  497MOL0     H67079   1.470   6.929   7.269  0.7940  0.3848 -1.4364
  497MOL0     H67080   1.707   7.003   7.277  2.0867 -0.7602  0.8726
  497MOL0     H67081   2.010   7.162   6.580  0.0735 -0.2560  0.3215
  497MOL0     H67082   2.250   7.131   6.530 -1.4330 -0.3922 -0.9608
  497MOL0     H67083   2.695   7.397   6.703 -5.2734 -1.9132  0.0478
  497MOL0     H67084   2.952   7.364   6.689 -1.8902  0.1142  4.8153
  497MOL0     H67085   3.156   6.962   6.641 -0.3645  0.0678  0.9016
  497MOL0     H67086   3.072   7.021   6.490  1.6249  4.0849 -2.4759
  497MOL0     H67087   3.329   7.165   6.555  0.2482  0.4780 -1.4897
  497MOL0     H67088   3.255   7.117   6.396 -2.4139  0.8221  0.1503
  497MOL0     H67089   3.293   6.877   6.485  0.6557 -0.6865  3.2030
  497MOL0     H67090   3.406   6.946   6.594  1.7431 -0.0327 -0.2074
  497MOL0     H67091   3.406   6.924   6.288 -0.2692  1.9992  0.4512
  497MOL0     H67092   3.529   6.858   6.404  0.4839  0.2090 -2.1609
  497MOL0     H67093   3.671   7.248   6.304 -0.5014 -0.4384 -0.7965
  497MOL0     H67094   2.878   6.943   6.642 -3.2767 -0.8723  0.0413
  497MOL0     H67095   2.647   6.987   6.625  1.6525 -0.4523 -4.7063
  498MOL0     O67096   5.536   1.811  10.427 -0.0198 -0.3492 -0.3994
  498MOL0     C67097   5.530   1.698  10.469  0.2836  0.2806  0.4011
  498MOL0     O67098   5.413   1.631  10.501  0.0934  0.0331  0.5573
  498MOL0     C67099   5.299   1.689  10.482  0.4585  0.5855  0.2927
  498MOL0     C67100   5.210   1.686  10.589  0.7518 -0.7632 -0.1585
  498MOL0     C67101   5.082   1.738  10.573 -0.0616 -0.0418 -1.0561
  498MOL0     C67102   5.039   1.802  10.454  0.1804  0.3535  0.3298
  498MOL0     O67103   4.908   1.855  10.442  0.0847  0.4054 -0.5705
  498MOL0     C67104   4.818   1.837  10.553  0.1369 -1.0849 -0.1081
  498MOL0     C67105   4.689   1.907  10.510 -0.7644 -0.7988  0.3032
  498MOL0     C67106   4.711   2.053  10.482 -0.6763 -0.2136 -0.0092
  498MOL0     C67107   4.576   2.115  10.479 -0.5749  0.2629 -0.0921
  498MOL0     C67108   4.581   2.264  10.441  0.8116  0.7425  0.4391
  498MOL0     C67109   4.456   2.314  10.369 -0.4045  0.4934 -0.3439
  498MOL0     C67110   4.325   2.290  10.440 -0.7122 -0.2510  0.1346
  498MOL0     C67111   4.299   2.403  10.542  0.1874  0.3862 -0.1233
  498MOL0     N67112   4.165   2.385  10.611  0.2602 -0.6186 -0.3243
  498MOL0     C67113   4.058   2.470  10.578  0.2103 -0.5699 -0.6688
  498MOL0     C67114   3.947   2.417  10.648 -0.2954 -0.0397  0.2562
  498MOL0     C67115   3.804   2.464  10.634  0.2592 -0.0207  0.2587
  498MOL0     C67116   3.701   2.363  10.607  0.9076 -0.2122  0.7453
  498MOL0     C67117   3.563   2.407  10.654 -0.4488  0.0724 -0.0808
  498MOL0     C67118   3.460   2.300  10.621  1.2716  0.0636 -0.5105
  498MOL0     O67119   3.518   2.174  10.645  0.1718  0.9256 -0.3316
  498MOL0     C67120   3.428   2.065  10.651  0.6495 -0.8860  0.4627
  498MOL0     C67121   3.473   1.938  10.697  0.2835 -0.4889  0.0543
  498MOL0     C67122   3.396   1.819  10.710  1.7995  0.5171  0.5639
  498MOL0     C67123   3.449   1.684  10.746 -0.2250 -0.0915 -0.9373
  498MOL0     C67124   3.258   1.836  10.683  0.0397  0.9767  0.6912
  498MOL0     C67125   3.157   1.724  10.676 -0.5210 -0.9197 -0.0374
  498MOL0     O67126   3.035   1.739  10.720 -0.0147  0.0525  0.1153
  498MOL0     C67127   2.945   1.636  10.727 -0.6732  1.0747 -0.2420
  498MOL0     C67128   2.972   1.507  10.788  0.5808 -0.7241  0.0807
  498MOL0     C67129   2.857   1.427  10.813  0.7355  0.1956  0.3041
  498MOL0     C67130   2.724   1.469  10.777 -0.6198  0.2473  0.3539
  498MOL0     O67131   2.625   1.386  10.819 -0.6163  0.6585 -0.1205
  498MOL0     C67132   2.513   1.377  10.738  0.6259  0.0204  0.8873
  498MOL0     C67133   2.385   1.432  10.790 -0.4807  0.3009 -0.1373
  498MOL0     C67134   2.322   1.361  10.915 -0.2383 -0.0891  0.2780
  498MOL0     C67135   2.191   1.431  10.936 -0.4967  0.2967  0.0615
  498MOL0     C67136   2.109   1.392  11.052  0.1185  0.1695  0.5500
  498MOL0     C67137   1.966   1.438  11.054  0.6464 -0.1994 -0.1601
  498MOL0     C67138   1.888   1.371  11.163 -0.0011  0.2930 -0.0705
  498MOL0     C67139   1.758   1.435  11.214 -0.2374  0.1527 -0.9137
  498MOL0    Cl67140   1.687   1.333  11.342 -0.5879 -0.2211  0.4141
  498MOL0     C67141   2.707   1.589  10.700  0.3582 -0.2982 -0.1413
  498MOL0     C67142   2.818   1.670  10.685 -0.5699 -0.3217 -0.4521
  498MOL0     O67143   3.199   1.626  10.628 -0.4467  0.2928  0.2665
  498MOL0     C67144   3.206   1.958  10.638  0.4673 -0.0662  0.2677
  498MOL0     C67145   3.288   2.073  10.624  0.5637  0.1414  0.3767
  498MOL0     N67146   3.982   2.294  10.700  0.1175  0.9420 -0.4989
  498MOL0     N67147   4.107   2.279  10.683 -0.2921 -0.4751 -0.1259
  498MOL0     C67148   5.129   1.794  10.346  0.2262 -0.0469 -0.4723
  498MOL0     C67149   5.253   1.737  10.354  0.2713  0.2928  0.2366
  498MOL0     C67150   5.650   1.623  10.494  0.6458  0.0090 -0.3962
  498MOL0     C67151   5.665   1.513  10.570  0.0888 -0.6051  0.2518
  498MOL0     C67152   5.783   1.458  10.609  0.3172 -0.1229 -0.2341
  498MOL0     C67153   5.902   1.513  10.543  0.8878  0.0641  0.4360
  498MOL0     O67154   6.020   1.465  10.591  0.1465 -0.3505 -0.2948
  498MOL0     C67155   6.147   1.506  10.533  0.2761  0.5500  0.5082
  498MOL0     C67156   6.264   1.447  10.603  0.1157  0.5970 -0.2221
  498MOL0     C67157   6.258   1.477  10.745 -0.8109 -0.4866  0.0014
  498MOL0     C67158   6.213   1.352  10.824  0.2622 -0.3422  0.1069
  498MOL0     C67159   6.171   1.396  10.964 -0.1377  0.5773  0.0420
  498MOL0     C67160   6.135   1.438  11.072  0.2291  0.3112  0.9025
  498MOL0     C67161   5.889   1.610  10.443 -0.1859 -0.2172  0.1553
  498MOL0     C67162   5.767   1.672  10.423 -0.8300  1.0794  0.1927
  498MOL0     H67163   5.237   1.643  10.685 -0.5465 -1.9718 -0.3081
  498MOL0     H67164   5.020   1.729  10.662  0.3309  0.3350 -0.7407
  498MOL0     H67165   4.807   1.730  10.572  0.8617 -0.8498  1.9114
  498MOL0     H67166   4.851   1.882  10.647 -3.4121 -0.7681  1.1529
  498MOL0     H67167   4.663   1.852  10.419 -0.4824 -2.1026  0.9926
  498MOL0     H67168   4.611   1.890  10.585  1.8270 -2.9237  2.7331
  498MOL0     H67169   4.773   2.087  10.566  0.2588 -0.6252 -0.5236
  498MOL0     H67170   4.761   2.056  10.385 -1.0173  0.8568 -0.1658
  498MOL0     H67171   4.516   2.056  10.409  0.3094 -2.2264  1.1582
  498MOL0     H67172   4.523   2.101  10.573 -2.5653  1.0221 -1.0434
  498MOL0     H67173   4.603   2.326  10.528 -1.8519  3.2107 -0.4872
  498MOL0     H67174   4.661   2.273  10.366 -0.0338  0.9028 -0.4610
  498MOL0     H67175   4.475   2.422  10.360 -0.7823  0.8595  2.3958
  498MOL0     H67176   4.450   2.258  10.276  1.2995 -0.4742  0.0769
  498MOL0     H67177   4.246   2.286  10.365  0.2500  0.5834 -0.9587
  498MOL0     H67178   4.320   2.197  10.499  0.2770 -1.7935 -2.0747
  498MOL0     H67179   4.317   2.505  10.505  0.2177  1.6252  2.9835
  498MOL0     H67180   4.373   2.385  10.620 -1.4508 -1.7326  1.0496
  498MOL0     H67181   4.063   2.562  10.521  0.1697 -0.6308 -0.7709
  498MOL0     H67182   3.775   2.512  10.729 -1.0358 -0.2928  0.0199
  498MOL0     H67183   3.797   2.551  10.568 -0.3752 -2.0255 -2.4383
  498MOL0     H67184   3.734   2.271  10.656  1.7644 -1.9953 -2.8252
  498MOL0     H67185   3.706   2.329  10.504  1.5006 -0.8938  0.9931
  498MOL0     H67186   3.540   2.507  10.617  0.2676  0.7466  1.2009
  498MOL0     H67187   3.562   2.409  10.764  0.3739 -2.3838  0.0403
  498MOL0     H67188   3.421   2.300  10.519  1.1804  0.3951 -0.4735
  498MOL0     H67189   3.376   2.309  10.690  2.8811 -0.4744  1.6787
  498MOL0     H67190   3.581   1.934  10.710  0.4670 -1.9483 -1.5526
  498MOL0     H67191   3.401   1.655  10.840 -1.7082  1.7467 -1.0486
  498MOL0     H67192   3.435   1.606  10.672  1.4878 -0.3501 -1.0262
  498MOL0     H67193   3.557   1.686  10.763 -0.5117 -1.6619  1.4823
  498MOL0     H67194   3.074   1.481  10.815  1.6378  1.5574 -1.3669
  498MOL0     H67195   2.861   1.333  10.867 -3.1334 -0.3402 -0.0887
  498MOL0     H67196   2.527   1.431  10.644 -1.4665  2.2612  1.7503
  498MOL0     H67197   2.486   1.275  10.708 -0.8692  1.2756 -2.5793
  498MOL0     H67198   2.408   1.534  10.822  0.2861  0.2908 -0.6284
  498MOL0     H67199   2.314   1.435  10.707 -1.1176  4.5788  0.3205
  498MOL0     H67200   2.387   1.374  11.002 -1.5796 -1.6841  1.5863
  498MOL0     H67201   2.309   1.253  10.899 -0.6661 -0.0842  0.5952
  498MOL0     H67202   2.199   1.540  10.943  1.2953  0.4654 -3.0365
  498MOL0     H67203   2.136   1.416  10.843 -0.5139  2.9342 -0.4177
  498MOL0     H67204   2.167   1.439  11.133 -0.1914  1.7645 -0.1107
  498MOL0     H67205   2.111   1.284  11.069  3.0593  0.0993  0.2297
  498MOL0     H67206   1.969   1.545  11.075 -1.5311 -0.0475 -0.3963
  498MOL0     H67207   1.922   1.415  10.957  0.6695  1.2160 -0.5265
  498MOL0     H67208   1.951   1.367  11.253 -1.9989  3.3990  1.6784
  498MOL0     H67209   1.869   1.269  11.128 -0.8527  0.7661 -1.0282
  498MOL0     H67210   1.690   1.459  11.131  0.2283  3.6965 -0.4075
  498MOL0     H67211   1.792   1.526  11.263  2.7567 -2.2682  2.0296
  498MOL0     H67212   2.611   1.619  10.661 -1.1826 -4.2613  0.0821
  498MOL0     H67213   2.816   1.765  10.634 -0.5714  0.4101  0.8847
  498MOL0     H67214   3.105   1.973  10.601  1.8686  1.2686 -3.4703
  498MOL0     H67215   3.238   2.162  10.587 -0.9457 -0.3802  1.0516
  498MOL0     H67216   5.093   1.829  10.249 -0.0350  0.2973 -0.2525
  498MOL0     H67217   5.317   1.745  10.267  0.4951  0.1964  0.3916
  498MOL0     H67218   5.571   1.487  10.619 -0.2686 -3.3721 -1.7069
  498MOL0     H67219   5.779   1.370  10.673  0.0859 -0.0777 -0.1839
  498MOL0     H67220   6.145   1.471  10.430 -0.8496  2.1735 -0.0553
  498MOL0     H67221   6.156   1.615  10.535 -4.1051  1.0926  0.3027
  498MOL0     H67222   6.349   1.498  10.556  0.5872 -0.1635 -0.2180
  498MOL0     H67223   6.271   1.340  10.581 -2.1495  0.7645 -2.1120
  498MOL0     H67224   6.196   1.567  10.758  3.4951  2.4640  3.5388
  498MOL0     H67225   6.351   1.526  10.777 -1.8884  2.0589 -0.4878
  498MOL0     H67226   6.300   1.286  10.828 -0.0903 -1.2572 -3.6939
  498MOL0     H67227   6.135   1.295  10.773  1.7580 -1.9505 -0.5167
  498MOL0     H67228   6.095   1.463  11.169  0.9050  0.4199  1.1631
  498MOL0     H67229   5.973   1.658  10.393  1.5388  2.2609  4.7829
  498MOL0     H67230   5.768   1.761  10.361 -1.2513  1.2155  0.3738
  499MOL0     O67231   4.666   1.855   1.892 -0.1027  0.2585  0.0481
  499MOL0     C67232   4.696   1.745   1.843 -0.2818  0.3116 -0.5034
  499MOL0     O67233   4.719   1.719   1.709  1.4379  0.9722 -0.2984
  499MOL0     C67234   4.721   1.828   1.625  0.9167  0.1331  0.0626
  499MOL0     C67235   4.603   1.904   1.604  0.2950 -0.2067 -0.5941
  499MOL0     C67236   4.619   2.016   1.524  0.2561 -0.6638  0.1603
  499MOL0     C67237   4.732   2.038   1.442 -0.4901 -0.6957  0.2377
  499MOL0     O67238   4.722   2.147   1.358  0.9355 -0.1215  0.2788
  499MOL0     C67239   4.815   2.164   1.253 -0.4980 -0.3836  0.4441
  499MOL0     C67240   4.790   2.298   1.178  0.5118 -0.1672  0.2677
  499MOL0     C67241   4.662   2.285   1.099  0.8559 -0.1614 -0.1743
  499MOL0     C67242   4.639   2.409   1.012 -0.3094 -0.2706  0.0054
  499MOL0     C67243   4.527   2.373   0.916  0.2382  0.4723 -0.4533
  499MOL0     C67244   4.484   2.491   0.829 -0.2996  0.8548  0.4814
  499MOL0     C67245   4.408   2.434   0.710 -0.1419  0.2664  0.0861
  499MOL0     C67246   4.325   2.530   0.626 -0.5262 -0.1829  0.2738
  499MOL0     N67247   4.228   2.594   0.711 -0.2865  0.1831 -0.2540
  499MOL0     C67248   4.145   2.696   0.674 -0.0209 -0.0774 -0.3117
  499MOL0     C67249   4.066   2.735   0.778 -0.3945  0.8220  0.3148
  499MOL0     C67250   3.965   2.848   0.795  0.1811 -0.3780  0.4357
  499MOL0     C67251   3.956   2.941   0.669  0.5592  0.1031 -0.5135
  499MOL0     C67252   3.840   3.029   0.669  0.1264  0.0814  0.2072
  499MOL0     C67253   3.703   2.956   0.653  0.0655  0.1991  0.1305
  499MOL0     O67254   3.631   3.023   0.539 -0.2483  0.0947  0.2559
  499MOL0     C67255   3.511   3.073   0.567  0.1872 -0.1940 -0.3475
  499MOL0     C67256   3.414   2.996   0.637 -1.1024  0.1709 -0.7912
  499MOL0     C67257   3.285   3.043   0.645 -0.6183 -0.4071  0.8272
  499MOL0     C67258   3.203   2.949   0.727 -0.7301  0.1698 -0.2355
  499MOL0     C67259   3.240   3.164   0.582  0.1261 -0.1787 -0.0043
  499MOL0     C67260   3.102   3.220   0.584  0.5936 -0.1895  0.3833
  499MOL0     O67261   3.080   3.329   0.497  0.1366 -0.6492 -0.1195
  499MOL0     C67262   2.945   3.367   0.493 -0.2959 -0.2398 -0.7032
  499MOL0     C67263   2.870   3.333   0.383 -0.3410  0.4248  0.6746
  499MOL0     C67264   2.739   3.376   0.378  0.2629  0.1208 -0.3307
  499MOL0     C67265   2.672   3.430   0.485 -0.0659  0.1147  0.2073
  499MOL0     O67266   2.530   3.440   0.485  0.0076 -0.2765  0.6116
  499MOL0     C67267   2.469   3.454   0.356 -0.1243  0.8876  0.7038
  499MOL0     C67268   2.334   3.508   0.365  0.5667  0.4902 -0.3955
  499MOL0     C67269   2.287   3.538   0.220 -1.2156  0.4435 -0.8094
  499MOL0     C67270   2.172   3.642   0.216 -0.1163  0.5453  0.3787
  499MOL0     C67271   2.090   3.632   0.089 -0.0219  0.4506  0.6436
  499MOL0     C67272   2.002   3.746   0.093 -0.4622 -0.2873  0.3386
  499MOL0     C67273   1.918   3.775  -0.039 -0.3226 -0.0806  0.1110
  499MOL0     C67274   1.840   3.906  -0.047 -0.2561  0.6180  0.3432
  499MOL0    Cl67275   1.943   4.054  -0.035 -0.1863 -0.0457  0.0017
  499MOL0     C67276   2.749   3.465   0.590 -0.4052 -0.3931 -1.0666
  499MOL0     C67277   2.884   3.434   0.594  0.2530 -0.3550  0.7966
  499MOL0     O67278   3.016   3.176   0.655 -0.0208 -0.3683  0.5867
  499MOL0     C67279   3.337   3.228   0.500  0.0195 -0.4233  0.7198
  499MOL0     C67280   3.470   3.186   0.496  0.2352 -0.1026 -0.5207
  499MOL0     N67281   4.085   2.635   0.869  0.1264  0.0853  0.1375
  499MOL0     N67282   4.179   2.556   0.830 -0.1844 -0.8666 -0.0711
  499MOL0     C67283   4.851   1.958   1.464 -0.1578  0.0512  0.5626
  499MOL0     C67284   4.835   1.853   1.556 -0.6298 -0.1292  0.1776
  499MOL0     C67285   4.696   1.630   1.933 -0.1369 -0.1895 -0.1055
  499MOL0     C67286   4.726   1.501   1.884  0.6113  0.6814  0.4169
  499MOL0     C67287   4.730   1.390   1.972  0.2835  0.3782  1.1619
  499MOL0     C67288   4.704   1.400   2.109  0.1501  0.8100  0.0098
  499MOL0     O67289   4.720   1.294   2.187 -0.5201 -0.1097  0.2659
  499MOL0     C67290   4.757   1.327   2.324 -0.4632 -0.4281 -0.0016
  499MOL0     C67291   4.830   1.202   2.387 -0.0323 -0.7962  0.0614
  499MOL0     C67292   4.957   1.153   2.316  0.5224 -0.0191  0.0048
  499MOL0     C67293   4.952   1.004   2.288 -0.1457 -0.2413 -0.7796
  499MOL0     C67294   5.075   0.950   2.233 -0.8212 -0.1099 -0.4771
  499MOL0     C67295   5.185   0.913   2.196 -0.4616  0.4673  0.6160
  499MOL0     C67296   4.665   1.532   2.155 -0.3225 -0.0124 -1.0131
  499MOL0     C67297   4.663   1.647   2.073  1.2000 -0.3128  0.4870
  499MOL0     H67298   4.508   1.886   1.652  0.1417  0.1843 -0.7440
  499MOL0     H67299   4.531   2.077   1.507 -1.5203 -3.1741 -0.2657
  499MOL0     H67300   4.918   2.167   1.289 -0.0654 -1.0878 -0.6756
  499MOL0     H67301   4.797   2.081   1.185 -6.1648  2.1960 -1.8496
  499MOL0     H67302   4.786   2.378   1.252  0.8788  0.5846 -0.5066
  499MOL0     H67303   4.881   2.319   1.120  0.9102  3.5460  1.9701
  499MOL0     H67304   4.667   2.203   1.027  1.9219  0.9488 -1.4060
  499MOL0     H67305   4.572   2.252   1.152  0.3534  0.4471 -0.6362
  499MOL0     H67306   4.611   2.493   1.077  1.6970 -0.5366  1.2974
  499MOL0     H67307   4.731   2.434   0.957 -0.8067 -1.1275 -1.2617
  499MOL0     H67308   4.568   2.286   0.864  0.7535 -0.6268  1.6649
  499MOL0     H67309   4.444   2.333   0.974  3.3528 -0.8386  3.5934
  499MOL0     H67310   4.421   2.564   0.881  0.0680  5.4260 -4.5424
  499MOL0     H67311   4.578   2.538   0.800  0.0499  2.6808  4.0963
  499MOL0     H67312   4.473   2.399   0.630  0.2656  1.5793 -0.1721
  499MOL0     H67313   4.347   2.361   0.765  1.8939  0.6281  3.0891
  499MOL0     H67314   4.270   2.476   0.548 -1.0244 -0.1354  0.5867
  499MOL0     H67315   4.387   2.612   0.589 -3.5970  2.5339  0.7680
  499MOL0     H67316   4.135   2.747   0.579 -1.6973  0.7845  0.2651
  499MOL0     H67317   3.865   2.804   0.800 -0.3936  0.7313 -0.7104
  499MOL0     H67318   3.985   2.904   0.887  0.7056 -0.3385  0.3010
  499MOL0     H67319   3.956   2.881   0.577 -0.0327 -0.5185 -0.1232
  499MOL0     H67320   4.045   3.003   0.656  0.3587  0.2418 -1.2715
  499MOL0     H67321   3.851   3.100   0.586 -1.2250  1.6709  1.3115
  499MOL0     H67322   3.819   3.083   0.761 -3.2106  2.8047 -1.8839
  499MOL0     H67323   3.660   2.966   0.753  1.5616  1.6826  0.6700
  499MOL0     H67324   3.724   2.851   0.629  0.4590  0.8239 -2.4992
  499MOL0     H67325   3.436   2.896   0.674 -1.1894  0.9583  1.5065
  499MOL0     H67326   3.192   2.855   0.672 -0.8019 -1.4950  2.4487
  499MOL0     H67327   3.247   2.926   0.825  1.9602  0.3715 -1.2957
  499MOL0     H67328   3.102   2.988   0.744 -0.5192  1.9081 -2.4988
  499MOL0     H67329   2.925   3.269   0.314  1.1025  2.0125  0.2894
  499MOL0     H67330   2.680   3.332   0.298 -0.2802  0.8638 -0.3492
  499MOL0     H67331   2.537   3.519   0.300  1.1288 -3.1120 -2.9856
  499MOL0     H67332   2.477   3.353   0.315 -1.8668  1.6208 -1.6854
  499MOL0     H67333   2.274   3.433   0.416 -1.9451  3.7445  1.9005
  499MOL0     H67334   2.333   3.601   0.424 -1.7080  0.5948 -0.5183
  499MOL0     H67335   2.264   3.438   0.183 -0.2248 -1.0761  2.3467
  499MOL0     H67336   2.363   3.577   0.151  0.2818  1.2843  1.2183
  499MOL0     H67337   2.112   3.618   0.304  0.3421 -1.3607  0.2121
  499MOL0     H67338   2.217   3.740   0.233  0.0216  0.1610  2.4100
  499MOL0     H67339   2.033   3.538   0.087 -0.1148  0.5109  0.4604
  499MOL0     H67340   2.143   3.630  -0.007 -1.3175 -4.5816 -0.2646
  499MOL0     H67341   1.927   3.742   0.173 -0.8426 -3.4455 -0.0435
  499MOL0     H67342   2.063   3.837   0.102 -0.8169 -0.2878  4.9690
  499MOL0     H67343   1.838   3.703  -0.057 -1.3695  0.8047  1.0285
  499MOL0     H67344   1.986   3.768  -0.124 -1.8467 -2.1082 -1.0361
  499MOL0     H67345   1.760   3.906   0.026 -0.4867  2.9282  0.1645
  499MOL0     H67346   1.792   3.900  -0.145 -0.9538 -1.2620  0.7534
  499MOL0     H67347   2.708   3.524   0.671  0.0381  1.6910 -2.2874
  499MOL0     H67348   2.940   3.462   0.683 -0.2015  2.0310  0.4159
  499MOL0     H67349   3.318   3.317   0.440  1.6226 -0.2480  0.4306
  499MOL0     H67350   3.551   3.240   0.448  0.3662  0.5352  0.3821
  499MOL0     H67351   4.940   1.985   1.408  1.3097 -2.9318  1.2752
  499MOL0     H67352   4.920   1.795   1.589 -1.2196 -0.2352  1.5766
  499MOL0     H67353   4.754   1.488   1.781 -0.8548 -0.5582  0.1347
  499MOL0     H67354   4.745   1.292   1.927 -3.4031  0.6195 -0.9893
  499MOL0     H67355   4.823   1.414   2.326 -0.9757 -0.0314 -0.0753
  499MOL0     H67356   4.670   1.357   2.384 -0.2412  2.0097 -0.7674
  499MOL0     H67357   4.759   1.119   2.401  0.6766 -1.0832  2.5020
  499MOL0     H67358   4.866   1.232   2.486 -1.3791 -0.2364  0.4045
  499MOL0     H67359   5.040   1.162   2.387 -0.2115  0.4505  0.8382
  499MOL0     H67360   4.989   1.210   2.228  0.6898  2.1218  1.3685
  499MOL0     H67361   4.871   0.980   2.218 -0.7560 -1.2973  0.2661
  499MOL0     H67362   4.939   0.952   2.383  1.5704 -0.2475 -0.5326
  499MOL0     H67363   5.286   0.885   2.173 -0.4155  0.6791  0.5526
  499MOL0     H67364   4.642   1.549   2.259 -0.4839  3.9287 -1.5528
  499MOL0     H67365   4.645   1.740   2.125  1.1576  0.6917 -1.2460
  500MOL0     O67366   4.022   8.238   6.583  0.0568  0.0446 -0.5056
  500MOL0     C67367   3.949   8.270   6.674 -0.0345  0.2122  0.0892
  500MOL0     O67368   3.992   8.295   6.796  0.3505  0.2377 -0.3622
  500MOL0     C67369   4.127   8.286   6.823  0.4551 -0.6544  0.7555
  500MOL0     C67370   4.192   8.162   6.835  0.1376 -0.5041  0.3440
  500MOL0     C67371   4.318   8.161   6.887 -0.8882  0.6606 -0.2707
  500MOL0     C67372   4.392   8.277   6.928 -0.2359  0.0464  0.0970
  500MOL0     O67373   4.523   8.268   6.969  0.4210 -0.5448 -0.1485
  500MOL0     C67374   4.615   8.287   6.860 -0.5267  0.6369 -0.4170
  500MOL0     C67375   4.681   8.157   6.806  0.2654 -0.6543  0.5035
  500MOL0     C67376   4.777   8.089   6.904 -0.2611  0.1721  0.0462
  500MOL0     C67377   4.709   7.983   6.998 -0.6635  0.3745  0.8620
  500MOL0     C67378   4.725   7.835   6.941 -0.2915 -1.0457  0.2834
  500MOL0     C67379   4.617   7.798   6.836 -0.6484  0.0839 -0.1687
  500MOL0     C67380   4.614   7.646   6.807  0.2434  0.0174 -0.1708
  500MOL0     C67381   4.550   7.555   6.914  0.2881  0.1342 -0.7690
  500MOL0     N67382   4.536   7.417   6.872 -0.4783  1.8637  0.2480
  500MOL0     C67383   4.643   7.328   6.863 -0.7918 -0.2093  0.6549
  500MOL0     C67384   4.585   7.207   6.866 -0.3192  0.0549  0.3965
  500MOL0     C67385   4.661   7.080   6.865  0.5874 -0.5067  0.5020
  500MOL0     C67386   4.689   7.018   7.005  0.8995 -0.0027  0.5460
  500MOL0     C67387   4.564   6.964   7.078  0.5581 -0.4590 -0.0300
  500MOL0     C67388   4.477   6.846   7.021  0.1862 -0.4852 -0.0678
  500MOL0     O67389   4.428   6.754   7.120 -0.2931 -0.6172 -0.3265
  500MOL0     C67390   4.300   6.770   7.169  0.0225  0.0765 -0.5860
  500MOL0     C67391   4.256   6.682   7.271 -0.1867 -0.1077 -0.6834
  500MOL0     C67392   4.135   6.687   7.331  0.1565  0.8237  0.0553
  500MOL0     C67393   4.107   6.584   7.445 -0.1031 -0.2361 -0.4042
  500MOL0     C67394   4.041   6.785   7.289  0.3077  0.9184  0.0359
  500MOL0     C67395   3.900   6.800   7.340 -0.3858  0.2476  0.1319
  500MOL0     O67396   3.844   6.922   7.330  0.4212 -0.8739 -0.0565
  500MOL0     C67397   3.721   6.934   7.385  0.4694  0.2380 -0.3023
  500MOL0     C67398   3.719   7.011   7.505 -0.0003  0.4479  0.0834
  500MOL0     C67399   3.605   7.036   7.584 -0.0264  0.0547 -0.3120
  500MOL0     C67400   3.484   6.985   7.532 -0.4252  0.7835 -0.2731
  500MOL0     O67401   3.368   7.010   7.600  0.5108  0.4586  0.3489
  500MOL0     C67402   3.355   7.135   7.669  0.0991  0.2638  0.8301
  500MOL0     C67403   3.210   7.168   7.696  0.3347  0.4176 -0.8988
  500MOL0     C67404   3.123   7.196   7.577 -0.1906  0.0451  0.0018
  500MOL0     C67405   2.984   7.238   7.628 -0.2258  0.5066 -0.9265
  500MOL0     C67406   2.901   7.278   7.505 -0.6261  0.2373 -0.2556
  500MOL0     C67407   2.753   7.300   7.553 -0.8374 -0.4243 -0.7861
  500MOL0     C67408   2.666   7.298   7.430 -0.1953 -0.3417  0.2227
  500MOL0     C67409   2.530   7.353   7.462  0.7704 -0.2280  0.0976
  500MOL0    Cl67410   2.432   7.232   7.550 -0.0068  0.2798 -0.3070
  500MOL0     C67411   3.473   6.903   7.413  0.0448 -0.6267  0.0829
  500MOL0     C67412   3.596   6.881   7.340 -0.4241  0.4546  0.0060
  500MOL0     O67413   3.848   6.700   7.391 -0.0050  0.0729 -0.6538
  500MOL0     C67414   4.081   6.877   7.192 -0.4997  0.2209 -0.0754
  500MOL0     C67415   4.209   6.876   7.138 -0.1629  0.4050 -0.1903
  500MOL0     N67416   4.446   7.232   6.864 -0.8629  0.1738  0.6963
  500MOL0     N67417   4.418   7.354   6.855  0.2606 -0.1738 -0.6782
  500MOL0     C67418   4.325   8.397   6.921 -0.4239  0.1515  1.2174
  500MOL0     C67419   4.190   8.395   6.880  0.0923 -0.4041  0.2512
  500MOL0     C67420   3.806   8.297   6.635  0.4058  0.6491 -0.3121
  500MOL0     C67421   3.708   8.331   6.728  0.2406 -0.3129  0.0065
  500MOL0     C67422   3.571   8.358   6.681  0.0168 -0.5532  0.1306
  500MOL0     C67423   3.529   8.356   6.540  0.0663 -0.8997 -0.7434
  500MOL0     O67424   3.407   8.402   6.515  0.0245  0.5497  0.5437
  500MOL0     C67425   3.346   8.356   6.395  0.2624 -0.3347  0.2575
  500MOL0     C67426   3.208   8.410   6.372 -0.3838 -0.5442  0.6419
  500MOL0     C67427   3.109   8.368   6.479 -0.4162  0.0273 -0.1473
  500MOL0     C67428   2.978   8.440   6.463 -0.1360 -0.6436  0.6276
  500MOL0     C67429   2.914   8.404   6.333  0.4620  0.1446  0.0276
  500MOL0     C67430   2.860   8.377   6.228  0.7326 -0.8620  0.4854
  500MOL0     C67431   3.638   8.325   6.445 -0.3694  0.5736 -0.5211
  500MOL0     C67432   3.769   8.288   6.494 -0.2183  0.4720  0.1161
  500MOL0     H67433   4.135   8.075   6.805 -0.4048  0.0671 -0.3278
  500MOL0     H67434   4.356   8.059   6.890 -1.0570  0.6105  0.2565
  500MOL0     H67435   4.556   8.336   6.781 -0.5115  2.3223  0.5793
  500MOL0     H67436   4.692   8.360   6.885 -1.5428  1.4529  0.3898
  500MOL0     H67437   4.601   8.085   6.781 -1.4586 -0.0427  3.6577
  500MOL0     H67438   4.736   8.194   6.719 -0.6899  2.3584  1.0712
  500MOL0     H67439   4.861   8.044   6.849  0.4420  3.0853 -1.4441
  500MOL0     H67440   4.821   8.162   6.972 -4.5596  1.4859  1.6993
  500MOL0     H67441   4.761   7.985   7.095  2.8587  0.3333 -0.8746
  500MOL0     H67442   4.605   8.009   7.021 -1.1154  0.0615 -0.6836
  500MOL0     H67443   4.826   7.835   6.898  0.0048 -0.5292  0.9572
  500MOL0     H67444   4.731   7.768   7.027  1.2062 -1.8565 -0.4035
  500MOL0     H67445   4.521   7.830   6.878  0.2251  0.1924  1.8653
  500MOL0     H67446   4.624   7.855   6.744 -1.5975  0.3875 -0.0663
  500MOL0     H67447   4.554   7.640   6.716 -0.1762 -2.1723  0.2119
  500MOL0     H67448   4.718   7.620   6.786  0.7627  0.5545  1.5189
  500MOL0     H67449   4.457   7.602   6.948  1.3191  2.5146 -1.0133
  500MOL0     H67450   4.619   7.552   7.000 -0.7766 -3.6309  0.1148
  500MOL0     H67451   4.750   7.346   6.855 -1.0670  0.8436 -1.5113
  500MOL0     H67452   4.612   7.003   6.805 -0.7829 -0.1113  1.0661
  500MOL0     H67453   4.752   7.103   6.810  0.4616  1.3981  1.0159
  500MOL0     H67454   4.745   7.090   7.066  0.6152 -0.9254  1.9564
  500MOL0     H67455   4.761   6.937   6.990 -0.6614 -0.8224 -3.5491
  500MOL0     H67456   4.502   7.054   7.078  2.8149  1.2136 -0.6462
  500MOL0     H67457   4.592   6.947   7.182 -0.2351  1.8095  0.6173
  500MOL0     H67458   4.538   6.776   6.962 -0.8646 -2.6628  1.3140
  500MOL0     H67459   4.408   6.886   6.946 -1.2846  1.0502  1.9744
  500MOL0     H67460   4.337   6.625   7.317  0.5830  2.1945  1.0047
  500MOL0     H67461   4.190   6.514   7.452  0.7175  0.8847  1.9681
  500MOL0     H67462   4.099   6.631   7.543  5.4081  1.1793 -0.3395
  500MOL0     H67463   4.016   6.529   7.418 -0.0702 -0.0264 -0.9657
  500MOL0     H67464   3.810   7.044   7.553  0.1940  2.5526 -1.5793
  500MOL0     H67465   3.609   7.081   7.682  1.0307  0.3612 -0.4758
  500MOL0     H67466   3.417   7.139   7.759  1.3952  0.5942 -0.0510
  500MOL0     H67467   3.396   7.204   7.595  3.6789 -3.7948 -1.3905
  500MOL0     H67468   3.162   7.089   7.755 -0.4629  2.9706  2.1394
  500MOL0     H67469   3.209   7.254   7.764  0.8071 -0.7891  0.6855
  500MOL0     H67470   3.112   7.105   7.517 -0.2747 -0.4071  0.6967
  500MOL0     H67471   3.171   7.268   7.510 -2.4457 -0.0748 -1.9097
  500MOL0     H67472   2.942   7.161   7.694  3.6010  0.5333  1.9193
  500MOL0     H67473   2.989   7.327   7.691 -1.0599  0.7244 -1.1687
  500MOL0     H67474   2.904   7.199   7.430 -1.3891  2.7399 -3.1094
  500MOL0     H67475   2.938   7.371   7.460 -0.8333 -0.5321 -2.0897
  500MOL0     H67476   2.715   7.220   7.617 -0.2679  1.7493  2.5522
  500MOL0     H67477   2.745   7.395   7.607 -0.1777 -0.9926  0.3355
  500MOL0     H67478   2.663   7.192   7.403  1.0865 -0.5446  0.8036
  500MOL0     H67479   2.710   7.357   7.349 -1.0249  0.8779  0.6191
  500MOL0     H67480   2.473   7.376   7.372  1.5604  0.2928 -0.2811
  500MOL0     H67481   2.538   7.449   7.513  0.0180 -1.0595  1.8918
  500MOL0     H67482   3.380   6.861   7.377  0.2456 -1.1486  0.1758
  500MOL0     H67483   3.590   6.821   7.250 -1.0031  0.8158 -0.1990
  500MOL0     H67484   4.015   6.956   7.154  2.6403  3.6789  1.0425
  500MOL0     H67485   4.246   6.954   7.072  3.4610  0.2195  1.3689
  500MOL0     H67486   4.347   8.494   6.964 -0.1133  0.2685  0.8017
  500MOL0     H67487   4.124   8.479   6.899 -0.8589 -1.4786  1.8540
  500MOL0     H67488   3.728   8.320   6.834  1.7097 -2.2310 -0.4314
  500MOL0     H67489   3.494   8.398   6.747 -0.1332  0.2695 -0.5207
  500MOL0     H67490   3.413   8.371   6.310 -1.3011  3.5081 -0.4857
  500MOL0     H67491   3.322   8.251   6.414 -3.4644  0.7332  2.5010
  500MOL0     H67492   3.185   8.380   6.269 -0.3645  0.3325  0.3731
  500MOL0     H67493   3.220   8.518   6.382  3.2001 -0.9028  1.5496
  500MOL0     H67494   3.150   8.384   6.580  3.0543  2.7119 -1.7869
  500MOL0     H67495   3.089   8.261   6.476  1.6684 -0.5200  2.0526
  500MOL0     H67496   2.998   8.548   6.459  0.4893 -0.7265  1.3364
  500MOL0     H67497   2.908   8.400   6.537 -1.2299  0.2730  0.1330
  500MOL0     H67498   2.808   8.351   6.139  2.8919  0.6715 -1.3407
  500MOL0     H67499   3.621   8.317   6.338 -1.5639 -1.0125 -0.2401
  500MOL0     H67500   3.844   8.255   6.423  0.2593 -1.6998  1.5519
  501MOL0     O67501   6.352   6.928   3.117  0.3835  0.1560  0.0934
  501MOL0     C67502   6.442   6.975   3.185 -0.4101 -0.4118  0.4310
  501MOL0     O67503   6.429   7.046   3.298 -0.0865 -0.2019 -0.7292
  501MOL0     C67504   6.299   7.092   3.326  0.1365 -0.0987  0.1307
  501MOL0     C67505   6.229   7.024   3.424 -0.0274 -0.2336  0.2371
  501MOL0     C67506   6.104   7.071   3.462  0.3042  0.3016  0.1587
  501MOL0     C67507   6.045   7.183   3.387  1.0160 -0.2331  0.1603
  501MOL0     O67508   5.919   7.226   3.411  0.0502  0.0077 -0.2964
  501MOL0     C67509   5.823   7.127   3.381  0.1716 -0.1680 -0.4774
  501MOL0     C67510   5.696   7.210   3.357  0.7866 -0.4293 -0.3454
  501MOL0     C67511   5.644   7.285   3.487 -0.4190 -0.0146  0.2087
  501MOL0     C67512   5.511   7.363   3.465  0.9938 -0.3960 -0.1703
  501MOL0     C67513   5.473   7.453   3.585  0.2868 -0.1884  0.1132
  501MOL0     C67514   5.360   7.544   3.530  0.0452 -0.0159  0.0140
  501MOL0     C67515   5.327   7.642   3.631  0.4941 -0.1618 -0.7862
  501MOL0     C67516   5.424   7.742   3.679  0.3045 -0.0082 -0.4778
  501MOL0     N67517   5.354   7.811   3.788 -0.4831 -0.0543 -0.8614
  501MOL0     C67518   5.374   7.943   3.824  0.0397  0.4752  0.3069
  501MOL0     C67519   5.292   7.978   3.927  1.6462 -0.2258 -0.2610
  501MOL0     C67520   5.270   8.120   3.978 -0.0482 -0.5278 -0.4469
  501MOL0     C67521   5.398   8.159   4.063  0.5628  0.4741 -0.0715
  501MOL0     C67522   5.402   8.077   4.196 -0.0945 -0.3428 -0.2538
  501MOL0     C67523   5.300   8.136   4.292 -0.0282  0.0844 -0.7408
  501MOL0     O67524   5.330   8.088   4.423 -0.4910 -0.1558 -0.2379
  501MOL0     C67525   5.250   7.996   4.472  0.5751 -0.5793  0.6044
  501MOL0     C67526   5.221   8.015   4.612 -0.5325  0.0761 -0.1733
  501MOL0     C67527   5.119   7.932   4.667 -0.6693 -0.0894  0.4724
  501MOL0     C67528   5.103   7.952   4.808 -0.0074 -0.3315  0.4134
  501MOL0     C67529   5.047   7.837   4.588 -0.4329 -0.5808 -0.1203
  501MOL0     C67530   4.938   7.755   4.638  0.8155  0.0699 -0.2744
  501MOL0     O67531   4.863   7.695   4.540  0.0100  0.1976 -0.2659
  501MOL0     C67532   4.763   7.605   4.574 -0.4497 -0.3712  1.4396
  501MOL0     C67533   4.652   7.636   4.647 -0.1904  0.1198  0.9352
  501MOL0     C67534   4.558   7.535   4.679 -0.0116  0.5896 -0.0136
  501MOL0     C67535   4.565   7.406   4.635 -0.8982  0.6454  0.3758
  501MOL0     O67536   4.490   7.292   4.668  1.0042  0.1459  0.0529
  501MOL0     C67537   4.348   7.306   4.696  0.3808  0.4494 -0.9700
  501MOL0     C67538   4.289   7.162   4.690  0.0114 -0.9600 -0.0968
  501MOL0     C67539   4.151   7.169   4.736 -0.4167  0.0821 -0.5543
  501MOL0     C67540   4.067   7.035   4.710 -0.1615 -0.5487 -0.9889
  501MOL0     C67541   3.923   7.042   4.746  0.2748 -0.4785  0.2344
  501MOL0     C67542   3.827   7.112   4.654  0.5395  0.0228 -0.1583
  501MOL0     C67543   3.757   6.998   4.571 -0.0180 -0.3868  0.8788
  501MOL0     C67544   3.679   7.062   4.452 -0.1841 -1.1347  0.3364
  501MOL0    Cl67545   3.799   7.103   4.322  0.0690  0.1649 -0.0200
  501MOL0     C67546   4.674   7.381   4.552 -0.0623  0.3681 -0.1717
  501MOL0     C67547   4.779   7.469   4.529 -0.3159  0.2989  0.8572
  501MOL0     O67548   4.902   7.755   4.752  0.1928  0.2425 -0.0072
  501MOL0     C67549   5.091   7.823   4.457  0.5263  0.3969  0.1273
  501MOL0     C67550   5.189   7.897   4.406  0.4015 -0.1861 -0.0269
  501MOL0     N67551   5.224   7.858   3.958  0.7833 -0.7652  0.1365
  501MOL0     N67552   5.260   7.772   3.869  0.5505 -0.2036 -0.4760
  501MOL0     C67553   6.119   7.255   3.290 -0.3537  1.0373 -0.4199
  501MOL0     C67554   6.249   7.207   3.258  0.1410 -0.8227  0.7259
  501MOL0     C67555   6.577   6.943   3.146  0.0850 -0.4694 -0.8021
  501MOL0     C67556   6.621   6.872   3.032 -0.0626 -1.1597 -0.8229
  501MOL0     C67557   6.757   6.852   2.993 -0.4949 -0.6499  0.1139
  501MOL0     C67558   6.856   6.903   3.074  0.1377 -0.7939  0.0207
  501MOL0     O67559   6.991   6.909   3.051  0.6291  0.1710  0.1100
  501MOL0     C67560   7.036   6.880   2.914  0.1170 -0.0820 -0.0968
  501MOL0     C67561   7.063   6.734   2.898 -0.0425 -0.0960  0.0499
  501MOL0     C67562   7.196   6.693   2.972 -0.0100  0.5384 -0.2562
  501MOL0     C67563   7.263   6.564   2.921  0.2578  0.3231  0.7484
  501MOL0     C67564   7.173   6.444   2.937 -0.4849 -0.9049  0.0760
  501MOL0     C67565   7.105   6.343   2.943  0.4914 -0.7770 -0.1708
  501MOL0     C67566   6.816   6.961   3.194 -0.4091 -0.8394 -0.4380
  501MOL0     C67567   6.681   6.981   3.228  0.5252 -0.8398  0.8949
  501MOL0     H67568   6.284   6.945   3.475 -0.3589 -1.1000 -0.7174
  501MOL0     H67569   6.047   7.028   3.544 -1.4121 -0.9996 -1.6210
  501MOL0     H67570   5.857   7.070   3.295  3.1884 -0.5496  0.8235
  501MOL0     H67571   5.798   7.054   3.460 -2.2655 -0.3777 -1.3822
  501MOL0     H67572   5.722   7.293   3.292 -0.8075  1.0631  0.8336
  501MOL0     H67573   5.625   7.137   3.318  1.0707 -1.5284  1.0900
  501MOL0     H67574   5.637   7.219   3.574  0.5580  0.1993  0.4539
  501MOL0     H67575   5.718   7.357   3.521 -0.1023 -0.9558  1.5630
  501MOL0     H67576   5.533   7.424   3.377  0.6324  3.8408  2.4051
  501MOL0     H67577   5.428   7.293   3.453  0.0288 -0.0469  3.3696
  501MOL0     H67578   5.440   7.380   3.659 -0.6178 -2.6330 -2.5620
  501MOL0     H67579   5.562   7.506   3.623 -0.0838  0.9096 -0.5025
  501MOL0     H67580   5.378   7.594   3.435 -3.7804  1.0209 -0.3058
  501MOL0     H67581   5.274   7.481   3.507  0.2002 -1.8982  3.7515
  501MOL0     H67582   5.241   7.689   3.584  3.3237  2.5493 -3.7646
  501MOL0     H67583   5.285   7.592   3.719 -0.1782  1.8133  0.0707
  501MOL0     H67584   5.469   7.812   3.608  0.7395  1.1235  0.8659
  501MOL0     H67585   5.501   7.689   3.736  0.2399  0.5103  0.1030
  501MOL0     H67586   5.419   8.020   3.762 -0.7102 -1.5825 -3.1261
  501MOL0     H67587   5.261   8.192   3.896 -1.5288  0.3548  0.4378
  501MOL0     H67588   5.179   8.127   4.039  0.5521 -1.3959  0.5945
  501MOL0     H67589   5.412   8.266   4.080 -1.4207  0.4435  2.2054
  501MOL0     H67590   5.478   8.128   3.994 -0.8739 -0.2177 -1.4976
  501MOL0     H67591   5.498   8.086   4.247  0.3864 -0.4162 -1.1175
  501MOL0     H67592   5.377   7.972   4.179 -0.7493 -0.2637  0.2103
  501MOL0     H67593   5.199   8.119   4.253  0.1461  1.8505 -2.1010
  501MOL0     H67594   5.305   8.245   4.303  0.1389 -0.0074  0.1964
  501MOL0     H67595   5.274   8.090   4.670 -0.6782 -0.7266  1.0198
  501MOL0     H67596   5.168   8.038   4.829  0.3265 -0.9071  1.8153
  501MOL0     H67597   4.999   7.979   4.826  0.6788  2.3548  0.7958
  501MOL0     H67598   5.138   7.871   4.873  2.2313  1.7569  1.9780
  501MOL0     H67599   4.634   7.737   4.683 -1.3301  0.2103  0.1486
  501MOL0     H67600   4.468   7.564   4.733  0.9965  1.9135  1.0233
  501MOL0     H67601   4.336   7.357   4.792 -2.2398  1.4468 -1.7267
  501MOL0     H67602   4.300   7.371   4.622 -3.6427 -4.5417 -3.3366
  501MOL0     H67603   4.301   7.130   4.586  1.4179  0.5030 -0.4454
  501MOL0     H67604   4.346   7.092   4.752  2.9138 -0.3145 -1.8297
  501MOL0     H67605   4.105   7.252   4.683  0.9523  1.7272  0.7207
  501MOL0     H67606   4.137   7.189   4.843  1.7453  0.4444 -0.2907
  501MOL0     H67607   4.075   7.011   4.604 -1.3400 -1.1369 -0.9608
  501MOL0     H67608   4.113   6.973   4.788 -1.5085  2.8673  2.9004
  501MOL0     H67609   3.924   7.098   4.841 -0.5831 -1.1601  0.6569
  501MOL0     H67610   3.881   6.944   4.769  0.0994 -0.2959  0.7083
  501MOL0     H67611   3.756   7.163   4.720  0.3141 -0.8986  0.3314
  501MOL0     H67612   3.890   7.185   4.601  1.0475  0.0507  0.4749
  501MOL0     H67613   3.692   6.939   4.636  1.5085 -1.1083  1.7960
  501MOL0     H67614   3.839   6.946   4.522 -0.0600  0.7179 -0.4139
  501MOL0     H67615   3.635   7.153   4.494  1.7612 -0.3710  0.8400
  501MOL0     H67616   3.603   6.990   4.422 -1.7398 -0.2103  1.8895
  501MOL0     H67617   4.672   7.278   4.517  3.1883 -0.1820  0.9269
  501MOL0     H67618   4.862   7.440   4.465  0.3162 -3.7380  3.1820
  501MOL0     H67619   5.065   7.746   4.385  0.8817  1.5822 -1.2940
  501MOL0     H67620   5.216   7.869   4.305  2.6871 -0.6761  0.6450
  501MOL0     H67621   6.070   7.340   3.243  0.9942  3.2289  1.8868
  501MOL0     H67622   6.305   7.267   3.187 -0.9720  0.5985  1.0199
  501MOL0     H67623   6.547   6.827   2.967  0.1616 -1.4276 -0.8952
  501MOL0     H67624   6.772   6.800   2.900 -1.7969  1.8223 -1.6034
  501MOL0     H67625   6.960   6.906   2.840 -3.3357 -3.6223  1.8489
  501MOL0     H67626   7.133   6.929   2.908  0.9901 -1.4803  1.5373
  501MOL0     H67627   7.088   6.718   2.792 -1.7508  2.9069 -0.9147
  501MOL0     H67628   6.971   6.680   2.924 -0.1219  0.0974  0.1650
  501MOL0     H67629   7.170   6.679   3.077  2.0976  0.4073  0.3041
  501MOL0     H67630   7.276   6.767   2.957 -1.5324  1.9663 -1.7935
  501MOL0     H67631   7.359   6.551   2.971 -0.0874  1.4716  1.7848
  501MOL0     H67632   7.275   6.563   2.813 -3.3949 -1.3460  0.1927
  501MOL0     H67633   7.049   6.252   2.931  1.9272 -1.8939  1.1348
  501MOL0     H67634   6.889   7.008   3.259 -3.1766 -0.0490  2.3084
  501MOL0     H67635   6.670   7.027   3.325  0.1189 -0.8451  0.8518
  502MOL0     O67636  10.829   1.252   9.253 -0.5950  0.7335  0.2482
  502MOL0     C67637  10.866   1.208   9.361  0.0237  0.0959  0.5394
  502MOL0     O67638  10.782   1.178   9.470 -0.2726 -0.5407 -0.0900
  502MOL0     C67639  10.652   1.213   9.448  0.2488 -0.2324 -0.4845
  502MOL0     C67640  10.597   1.284   9.550 -0.4542  0.1524  0.3707
  502MOL0     C67641  10.462   1.321   9.546 -1.1261 -1.0910 -0.8317
  502MOL0     C67642  10.378   1.297   9.435  0.8166  0.3015 -1.2281
  502MOL0     O67643  10.250   1.338   9.422  0.7024 -0.2186 -0.4667
  502MOL0     C67644  10.180   1.386   9.545 -0.5118  0.9403 -0.1706
  502MOL0     C67645  10.032   1.386   9.513  0.3528 -0.8893  0.2131
  502MOL0     C67646   9.948   1.466   9.611 -0.3713 -0.4567  0.1738
  502MOL0     C67647   9.970   1.416   9.757  0.1826 -0.0351 -0.2245
  502MOL0     C67648   9.964   1.264   9.783 -0.5464  0.6801 -0.1084
  502MOL0     C67649   9.826   1.203   9.760  0.8117  0.1207  0.7441
  502MOL0     C67650   9.724   1.247   9.874  0.1072 -0.5392  0.2758
  502MOL0     C67651   9.586   1.210   9.822 -0.0958  0.9532 -0.1475
  502MOL0     N67652   9.485   1.246   9.921 -0.5394 -0.3418  0.3307
  502MOL0     C67653   9.442   1.162  10.023 -0.4739 -0.1914  0.1882
  502MOL0     C67654   9.376   1.240  10.114 -0.2956  0.2831 -0.2561
  502MOL0     C67655   9.317   1.192  10.245  0.2445 -0.4525  0.5369
  502MOL0     C67656   9.163   1.185  10.226 -0.1548 -0.1892 -0.4570
  502MOL0     C67657   9.119   1.054  10.163 -0.3779  0.3723 -0.5555
  502MOL0     C67658   8.966   1.064  10.150  0.6177 -0.3719  0.8980
  502MOL0     O67659   8.898   0.941  10.116 -0.1490 -0.3137 -0.4085
  502MOL0     C67660   8.759   0.941  10.107  1.0521 -0.3621 -0.4867
  502MOL0     C67661   8.673   1.053  10.109  0.1243  0.3317 -1.6901
  502MOL0     C67662   8.540   1.054  10.100 -0.0699  0.0992  0.6064
  502MOL0     C67663   8.475   1.192  10.123  0.2406 -0.2113 -0.4046
  502MOL0     C67664   8.472   0.931  10.071  0.0766 -0.8831  1.0855
  502MOL0     C67665   8.328   0.953  10.039  1.0109 -0.3468 -0.5387
  502MOL0     O67666   8.256   0.947  10.157 -0.0848 -0.2590  0.5017
  502MOL0     C67667   8.138   1.011  10.148  0.1474  0.2128 -0.2690
  502MOL0     C67668   8.037   0.964  10.073  0.9585  1.1310 -0.4908
  502MOL0     C67669   7.902   1.001  10.091  0.1795 -0.4215 -0.4251
  502MOL0     C67670   7.877   1.098  10.193  0.3595 -0.5725  0.2170
  502MOL0     O67671   7.762   1.169  10.215  0.0517 -0.1586 -0.2741
  502MOL0     C67672   7.635   1.111  10.189 -0.5309  0.4027 -0.0448
  502MOL0     C67673   7.595   0.989  10.272 -0.6785 -0.5446 -0.5155
  502MOL0     C67674   7.452   0.952  10.275  1.0476 -0.2505 -1.0616
  502MOL0     C67675   7.425   0.868  10.393  0.9885  0.8481  0.4425
  502MOL0     C67676   7.264   0.836  10.407  0.0467  0.5117 -1.7826
  502MOL0     C67677   7.245   0.791  10.555  0.1409  0.6930  0.2379
  502MOL0     C67678   7.094   0.761  10.592 -0.2872  0.4277 -0.4807
  502MOL0     C67679   7.019   0.898  10.605 -0.1036 -0.8168 -0.7353
  502MOL0    Cl67680   6.865   0.865  10.695 -0.4875 -0.2135  0.0064
  502MOL0     C67681   7.982   1.153  10.269 -0.4288 -0.4258  0.1899
  502MOL0     C67682   8.111   1.110  10.241  0.0117  0.2331  0.4946
  502MOL0     O67683   8.281   0.946   9.923  0.0355 -1.2547 -0.6984
  502MOL0     C67684   8.551   0.814  10.069  0.1110 -0.4768 -0.1090
  502MOL0     C67685   8.685   0.823  10.094  0.5596  0.3355  0.2522
  502MOL0     N67686   9.360   1.370  10.057 -0.1079  0.4726 -0.2635
  502MOL0     N67687   9.431   1.373   9.943 -0.3035  0.0251 -0.2428
  502MOL0     C67688  10.440   1.238   9.326 -0.4036 -0.1514 -0.1752
  502MOL0     C67689  10.568   1.191   9.333  0.3522 -0.7646  0.3397
  502MOL0     C67690  11.009   1.198   9.378 -0.5496 -0.5506 -0.1196
  502MOL0     C67691  11.100   1.216   9.269 -0.4678  0.4955 -0.0279
  502MOL0     C67692  11.240   1.221   9.296  0.0892 -0.0861  0.4500
  502MOL0     C67693  11.293   1.210   9.425  0.3000  0.3162  0.1861
  502MOL0     O67694  11.429   1.214   9.438 -0.9475  0.5374 -0.0166
  502MOL0     C67695  11.487   1.204   9.571  0.3485 -0.4280  0.6603
  502MOL0     C67696  11.636   1.193   9.571  0.0026  0.1145 -1.0905
  502MOL0     C67697  11.688   1.096   9.468 -0.1079  0.6729 -0.2103
  502MOL0     C67698  11.842   1.092   9.475  0.0423  0.8375  0.0468
  502MOL0     C67699  11.897   0.977   9.409 -0.7985  0.3986  0.5028
  502MOL0     C67700  11.952   0.893   9.341 -0.1100 -0.5149  0.7957
  502MOL0     C67701  11.202   1.183   9.524  1.2619 -0.0177 -0.0735
  502MOL0     C67702  11.066   1.180   9.507 -0.3694 -0.0682 -0.4524
  502MOL0     H67703  10.669   1.292   9.631  0.0382 -1.4441  0.1408
  502MOL0     H67704  10.421   1.371   9.633  1.3970 -0.6630  0.1882
  502MOL0     H67705  10.197   1.325   9.635  1.8634  0.7145 -0.7046
  502MOL0     H67706  10.212   1.488   9.569  3.4958 -0.3508  0.8619
  502MOL0     H67707  10.012   1.429   9.414  2.2523 -0.9994 -0.2505
  502MOL0     H67708   9.991   1.285   9.516 -1.7729 -0.1156 -0.5097
  502MOL0     H67709   9.969   1.573   9.607 -0.7457 -0.4262 -1.1987
  502MOL0     H67710   9.841   1.449   9.596 -0.1960 -1.5522  0.0651
  502MOL0     H67711  10.065   1.449   9.799  1.0261 -2.8794  0.3110
  502MOL0     H67712   9.895   1.457   9.825 -0.0336 -2.6037  1.2162
  502MOL0     H67713  10.025   1.204   9.715 -1.8150 -1.4387  0.5261
  502MOL0     H67714  10.003   1.238   9.882  0.2694 -0.4264 -0.7054
  502MOL0     H67715   9.780   1.225   9.664  2.4445  0.3588 -0.0257
  502MOL0     H67716   9.833   1.094   9.763 -0.9089 -0.0155  0.5719
  502MOL0     H67717   9.750   1.199   9.969 -0.0433 -0.0140  0.5875
  502MOL0     H67718   9.725   1.355   9.891  0.9907 -0.2937 -1.1357
  502MOL0     H67719   9.588   1.101   9.818  1.2153  0.8242  2.2803
  502MOL0     H67720   9.561   1.251   9.724  0.2876 -0.2510 -0.7720
  502MOL0     H67721   9.467   1.057  10.034  0.2590 -0.2564 -1.7129
  502MOL0     H67722   9.350   1.091  10.272 -0.5757 -0.6711  0.7373
  502MOL0     H67723   9.348   1.250  10.332 -1.1753 -1.1204  1.5096
  502MOL0     H67724   9.137   1.275  10.170 -0.3330  0.3819  0.5108
  502MOL0     H67725   9.114   1.199  10.323  0.8525  2.2759 -0.2312
  502MOL0     H67726   9.145   0.974  10.233  1.4700  2.9891  1.9649
  502MOL0     H67727   9.169   1.044  10.066 -0.9530 -1.2013 -0.7241
  502MOL0     H67728   8.938   1.146  10.082  3.4259 -0.4268 -0.4427
  502MOL0     H67729   8.923   1.094  10.246 -1.2413 -1.2476  0.4002
  502MOL0     H67730   8.723   1.146  10.136  0.0830 -0.6779  2.4248
  502MOL0     H67731   8.536   1.259  10.185 -0.6673  0.7765 -0.5439
  502MOL0     H67732   8.460   1.241  10.026 -0.1386  3.5516  1.3597
  502MOL0     H67733   8.378   1.187  10.173  0.3368  0.1661 -0.1722
  502MOL0     H67734   8.065   0.895   9.994  0.5825  1.6812 -1.1192
  502MOL0     H67735   7.818   0.958  10.037  0.5703 -2.2842  0.3595
  502MOL0     H67736   7.564   1.192  10.211 -1.7618 -0.8814  0.9095
  502MOL0     H67737   7.622   1.083  10.084  0.7229 -3.6366  0.7074
  502MOL0     H67738   7.651   0.910  10.220  1.6979 -0.3438  1.5575
  502MOL0     H67739   7.644   1.004  10.368  1.3950 -0.4991 -1.5071
  502MOL0     H67740   7.418   0.892  10.189 -2.4612  0.9818 -0.6933
  502MOL0     H67741   7.393   1.043  10.285 -1.0010 -1.7481  2.2805
  502MOL0     H67742   7.489   0.781  10.376  1.4889  1.4491 -0.8657
  502MOL0     H67743   7.453   0.916  10.487  2.0734 -0.0348  0.6008
  502MOL0     H67744   7.226   0.764  10.335  1.3872 -0.5145 -1.5093
  502MOL0     H67745   7.214   0.932  10.392 -0.8847  0.7206  1.7431
  502MOL0     H67746   7.302   0.697  10.559 -1.1530 -0.2570 -1.6777
  502MOL0     H67747   7.282   0.864  10.627  4.3867  0.1679 -1.1578
  502MOL0     H67748   7.089   0.716  10.691  0.4697 -0.9226 -1.0229
  502MOL0     H67749   7.044   0.705  10.512  0.9058  2.4321 -2.7764
  502MOL0     H67750   6.991   0.936  10.506 -0.0964 -0.5413 -0.6318
  502MOL0     H67751   7.078   0.968  10.664 -3.0380  0.8642  0.4270
  502MOL0     H67752   7.958   1.222  10.349 -1.4229 -0.2541 -0.2388
  502MOL0     H67753   8.185   1.132  10.317  1.3318  2.1702 -1.2337
  502MOL0     H67754   8.495   0.723  10.050  0.3904 -0.4739 -0.9966
  502MOL0     H67755   8.738   0.731  10.072  0.4538  0.7807 -2.2056
  502MOL0     H67756  10.386   1.237   9.232  3.4768 -1.0504 -2.6365
  502MOL0     H67757  10.604   1.159   9.236 -0.0790 -2.6811  0.7763
  502MOL0     H67758  11.058   1.235   9.170 -0.0865  0.4338 -0.2041
  502MOL0     H67759  11.303   1.222   9.208  0.3270  0.0080  0.6201
  502MOL0     H67760  11.457   1.297   9.620  1.3596  0.0241  0.4416
  502MOL0     H67761  11.444   1.123   9.631 -1.8876 -0.2194 -0.5380
  502MOL0     H67762  11.674   1.161   9.668  0.6247  2.5916 -0.4491
  502MOL0     H67763  11.679   1.289   9.541  0.7132 -0.0424 -0.6051
  502MOL0     H67764  11.659   1.129   9.368 -2.4382  0.9316  0.5024
  502MOL0     H67765  11.635   1.001   9.478 -2.0002  1.4003 -2.5037
  502MOL0     H67766  11.869   1.083   9.581 -0.2690 -2.5849 -0.0388
  502MOL0     H67767  11.873   1.187   9.430 -1.6478 -0.1392 -3.4991
  502MOL0     H67768  11.988   0.833   9.260  0.1490  1.2351 -0.4330
  502MOL0     H67769  11.240   1.164   9.624  1.7669  3.7900  0.6138
  502MOL0     H67770  11.007   1.164   9.597  0.1138 -0.4627 -0.2016
  503MOL0     O67771   0.275   3.223   3.344  0.4742 -0.3333 -0.2446
  503MOL0     C67772   0.357   3.315   3.321  0.2144  0.3461  0.9706
  503MOL0     O67773   0.385   3.364   3.201 -0.5666 -0.0326 -0.9702
  503MOL0     C67774   0.309   3.327   3.098 -0.2491  0.5364 -0.6329
  503MOL0     C67775   0.317   3.204   3.037 -0.2266  0.2729  0.2070
  503MOL0     C67776   0.270   3.180   2.912  0.5355 -0.4725 -0.2266
  503MOL0     C67777   0.180   3.266   2.857  0.4855 -0.5329  0.2615
  503MOL0     O67778   0.101   3.230   2.747 -0.7894 -0.5096 -0.0469
  503MOL0     C67779   0.155   3.134   2.657  0.7097  0.3446  0.8145
  503MOL0     C67780   0.083   3.127   2.522 -0.4010  0.4837 -0.5038
  503MOL0     C67781  -0.064   3.092   2.540 -0.7784  0.3593  0.3492
  503MOL0     C67782  -0.149   3.114   2.417 -0.4668 -0.1669  0.2688
  503MOL0     C67783  -0.296   3.117   2.459  0.2432 -0.0446  0.1706
  503MOL0     C67784  -0.384   3.103   2.335 -0.3949 -0.7185  0.1942
  503MOL0     C67785  -0.516   3.032   2.377  0.5581 -0.1146  0.4852
  503MOL0     C67786  -0.635   3.060   2.282  1.1618  0.3571  0.7183
  503MOL0     N67787  -0.751   2.977   2.306  0.5444 -0.3832 -0.4860
  503MOL0     C67788  -0.808   2.887   2.225 -0.4633  0.3756  0.3888
  503MOL0     C67789  -0.925   2.843   2.273 -0.4536 -0.7207 -1.0504
  503MOL0     C67790  -1.025   2.767   2.202 -0.2001 -0.0591 -0.4589
  503MOL0     C67791  -1.135   2.853   2.142  0.0304 -0.0539 -0.1541
  503MOL0     C67792  -1.262   2.782   2.100 -0.1461  0.9378 -0.0754
  503MOL0     C67793  -1.368   2.873   2.036  0.3638  0.4159 -0.2327
  503MOL0     O67794  -1.493   2.796   2.017  0.3965 -0.0583 -1.5101
  503MOL0     C67795  -1.601   2.858   1.972  0.2599  0.5494  0.1853
  503MOL0     C67796  -1.617   2.993   1.937  0.5219  0.7638  0.4831
  503MOL0     C67797  -1.741   3.043   1.894 -0.5246  0.8013 -0.4630
  503MOL0     C67798  -1.738   3.184   1.853 -0.3720 -0.4551  0.0797
  503MOL0     C67799  -1.862   2.961   1.889 -0.5889  0.3227  0.1358
  503MOL0     C67800  -2.002   3.005   1.847  0.4604  0.0277 -0.6500
  503MOL0     O67801  -2.095   2.900   1.831 -0.0048 -0.2802  0.2313
  503MOL0     C67802  -2.229   2.917   1.806 -0.5544  0.0219  0.1103
  503MOL0     C67803  -2.305   3.031   1.832  0.0672 -0.0068 -0.2884
  503MOL0     C67804  -2.435   3.039   1.805  0.8682  0.1377 -0.2453
  503MOL0     C67805  -2.503   2.934   1.746  0.1903 -0.4062  1.4089
  503MOL0     O67806  -2.635   2.951   1.723 -0.3961  0.5657  0.1748
  503MOL0     C67807  -2.665   3.056   1.626  0.7634 -0.3078 -0.0047
  503MOL0     C67808  -2.816   3.060   1.604  0.4522 -0.7956 -0.3247
  503MOL0     C67809  -2.903   3.095   1.731  0.4747  0.1978  0.3491
  503MOL0     C67810  -3.047   3.057   1.714  1.2196  0.1506 -1.2973
  503MOL0     C67811  -3.121   3.075   1.842  0.9246 -0.3909  0.4994
  503MOL0     C67812  -3.271   3.020   1.827  0.3882 -0.6711 -0.6337
  503MOL0     C67813  -3.333   3.005   1.972 -0.7975  0.1555  0.7854
  503MOL0     C67814  -3.478   2.980   1.961  0.3088  0.6234 -0.4092
  503MOL0    Cl67815  -3.515   2.826   1.859  0.3766 -0.1350  0.0115
  503MOL0     C67816  -2.429   2.818   1.716  0.2293  0.0522 -0.1710
  503MOL0     C67817  -2.290   2.808   1.743  0.6325 -0.3151 -0.4116
  503MOL0     O67818  -2.030   3.121   1.834  0.3018  0.4827 -0.1705
  503MOL0     C67819  -1.845   2.823   1.929  0.3187  0.4111 -0.1266
  503MOL0     C67820  -1.717   2.775   1.966  0.4585 -0.1632  0.1196
  503MOL0     N67821  -0.933   2.901   2.398  0.0237  0.0574 -0.4271
  503MOL0     N67822  -0.837   2.984   2.415 -0.2462  0.0787  0.4309
  503MOL0     C67823   0.157   3.383   2.926  0.2868 -0.0090  0.9872
  503MOL0     C67824   0.219   3.420   3.045 -0.9588  0.0220 -0.1329
  503MOL0     C67825   0.441   3.362   3.428 -0.4634  0.2355 -0.7862
  503MOL0     C67826   0.420   3.334   3.569  1.0026  0.2421 -0.2487
  503MOL0     C67827   0.519   3.363   3.666 -0.0868  0.2731 -0.1286
  503MOL0     C67828   0.641   3.416   3.624 -0.1193 -0.2475  0.9891
  503MOL0     O67829   0.754   3.439   3.696 -0.2369 -0.3362  0.3750
  503MOL0     C67830   0.748   3.441   3.841  0.5667 -0.7564  0.3965
  503MOL0     C67831   0.722   3.584   3.898 -0.0544 -0.5551  0.2967
  503MOL0     C67832   0.844   3.687   3.894  0.0281 -0.0504  0.3652
  503MOL0     C67833   0.976   3.636   3.953 -0.4257  0.7791  0.1225
  503MOL0     C67834   0.947   3.555   4.074 -0.0084 -0.1357  0.9304
  503MOL0     C67835   0.917   3.505   4.180  0.2138  0.1519 -0.5214
  503MOL0     C67836   0.656   3.453   3.496  1.1728  0.7082  0.2470
  503MOL0     C67837   0.559   3.428   3.392  0.5675  0.8469  0.4419
  503MOL0     H67838   0.372   3.134   3.100 -0.2848 -1.1160 -1.2353
  503MOL0     H67839   0.291   3.084   2.866  0.5276 -0.1010 -1.0027
  503MOL0     H67840   0.260   3.149   2.631 -0.2224  2.2170 -2.3768
  503MOL0     H67841   0.138   3.035   2.702 -0.7391 -0.1455 -0.6687
  503MOL0     H67842   0.091   3.219   2.464  0.4765 -0.4109 -1.8575
  503MOL0     H67843   0.130   3.050   2.461 -0.6099 -1.4477  1.6464
  503MOL0     H67844  -0.055   2.983   2.552 -0.8792  0.5749  2.7835
  503MOL0     H67845  -0.114   3.139   2.625 -0.7184  1.2400 -0.0996
  503MOL0     H67846  -0.139   3.202   2.353 -1.0152 -0.1778  0.1623
  503MOL0     H67847  -0.132   3.018   2.367 -0.4299 -1.0265  1.8615
  503MOL0     H67848  -0.315   3.039   2.534  0.8070 -0.0271  0.3354
  503MOL0     H67849  -0.323   3.210   2.509 -0.1851 -0.3473  0.5145
  503MOL0     H67850  -0.407   3.201   2.293  1.6142 -0.5135 -0.5463
  503MOL0     H67851  -0.332   3.053   2.253  0.2580  1.2109 -0.6195
  503MOL0     H67852  -0.517   2.923   2.383 -0.3112 -0.0619  1.7097
  503MOL0     H67853  -0.549   3.072   2.473  1.8643  3.8645 -0.5120
  503MOL0     H67854  -0.609   3.051   2.176 -0.5932 -0.6323  0.3326
  503MOL0     H67855  -0.670   3.163   2.295 -2.3831 -0.5045 -0.8649
  503MOL0     H67856  -0.772   2.867   2.124  1.9090  0.0080  1.2534
  503MOL0     H67857  -0.982   2.723   2.111 -3.0007 -2.1832 -0.9262
  503MOL0     H67858  -1.063   2.680   2.256  1.7219 -0.9479 -0.4451
  503MOL0     H67859  -1.093   2.892   2.048  0.7365  1.2911  0.6723
  503MOL0     H67860  -1.158   2.934   2.212 -3.5364  0.8848 -2.1668
  503MOL0     H67861  -1.302   2.720   2.180  2.0928 -0.0271  0.3455
  503MOL0     H67862  -1.245   2.716   2.014 -4.8155  1.3758 -1.6615
  503MOL0     H67863  -1.330   2.908   1.940 -0.1167  0.4237 -0.4245
  503MOL0     H67864  -1.389   2.954   2.107  2.0986  0.6448  0.0601
  503MOL0     H67865  -1.534   3.062   1.932  0.7698  0.4162 -0.7723
  503MOL0     H67866  -1.819   3.234   1.908 -1.8552 -1.1044 -1.4257
  503MOL0     H67867  -1.642   3.237   1.862 -0.7390  0.1474  0.5503
  503MOL0     H67868  -1.761   3.192   1.746  2.0858  1.9346 -0.3885
  503MOL0     H67869  -2.267   3.122   1.877  1.3399 -0.7031  0.0783
  503MOL0     H67870  -2.484   3.131   1.834 -0.1665 -0.5384  0.2168
  503MOL0     H67871  -2.653   3.161   1.653 -3.5580  1.1592 -2.7072
  503MOL0     H67872  -2.609   3.037   1.534  1.4200  0.4561  0.2245
  503MOL0     H67873  -2.860   3.117   1.522 -0.5645 -0.4405  0.4483
  503MOL0     H67874  -2.836   2.955   1.582 -0.4155 -0.5395 -0.8407
  503MOL0     H67875  -2.893   3.201   1.756 -0.6067 -0.2030  2.7097
  503MOL0     H67876  -2.856   3.038   1.812  2.0061 -1.2205 -1.4259
  503MOL0     H67877  -3.084   3.119   1.631 -0.0323 -2.4852 -2.8405
  503MOL0     H67878  -3.061   2.952   1.686 -2.4226  0.5111 -1.2486
  503MOL0     H67879  -3.121   3.181   1.867 -1.2142 -0.2872  0.2584
  503MOL0     H67880  -3.079   3.019   1.926  1.3785 -2.3336 -0.9428
  503MOL0     H67881  -3.333   3.092   1.774 -0.3680 -1.3501 -0.6988
  503MOL0     H67882  -3.273   2.930   1.765 -0.4981 -0.2753 -1.2025
  503MOL0     H67883  -3.325   3.083   2.049 -1.5328 -1.0480  2.1317
  503MOL0     H67884  -3.286   2.918   2.017 -0.9864  0.2019  1.0755
  503MOL0     H67885  -3.520   3.073   1.923 -1.7353  0.2492  0.8128
  503MOL0     H67886  -3.520   2.965   2.061  1.3654 -0.2943 -0.0768
  503MOL0     H67887  -2.484   2.735   1.673 -0.3273  1.5664 -2.6174
  503MOL0     H67888  -2.237   2.714   1.733 -1.2674 -1.8632  2.5212
  503MOL0     H67889  -1.935   2.762   1.935 -0.2353  1.3077  1.0001
  503MOL0     H67890  -1.697   2.670   1.981 -1.1102 -0.6308 -0.9166
  503MOL0     H67891   0.102   3.464   2.878 -0.2276  0.1330  1.8016
  503MOL0     H67892   0.199   3.510   3.101 -0.3374  0.5617 -0.7644
  503MOL0     H67893   0.336   3.274   3.605 -0.9212  1.0513 -3.0250
  503MOL0     H67894   0.499   3.352   3.772 -0.1298  0.7991 -0.0757
  503MOL0     H67895   0.669   3.374   3.876 -0.4480  1.1558  1.9709
  503MOL0     H67896   0.842   3.407   3.885  0.9033  0.5757  0.7424
  503MOL0     H67897   0.693   3.562   4.001  0.0438 -2.1977 -0.0125
  503MOL0     H67898   0.635   3.626   3.847  1.4895  3.4430  0.5626
  503MOL0     H67899   0.815   3.776   3.950  1.1405 -2.3519  5.1033
  503MOL0     H67900   0.856   3.719   3.790  0.2641 -1.2010  0.0291
  503MOL0     H67901   1.041   3.718   3.986 -0.2932  1.6623 -2.1804
  503MOL0     H67902   1.028   3.571   3.882  1.1414 -0.7880  2.5261
  503MOL0     H67903   0.890   3.449   4.268 -0.1603  0.6940 -0.2888
  503MOL0     H67904   0.744   3.508   3.465  2.1909 -1.6097 -1.2671
  503MOL0     H67905   0.571   3.462   3.289 -4.0731 -1.4019 -1.1204
  504MOL0     O67906   0.932  10.121   8.166  0.2105 -0.1863  0.3737
  504MOL0     C67907   0.975  10.222   8.109  0.0907  0.0253 -0.1928
  504MOL0     O67908   0.898  10.312   8.038  0.6654 -0.3926 -0.2689
  504MOL0     C67909   0.757  10.311   8.041 -0.1456  0.1986 -0.4781
  504MOL0     C67910   0.682  10.287   8.158 -0.4444  0.0606  0.3686
  504MOL0     C67911   0.549  10.315   8.162  0.1346  0.4196  0.0013
  504MOL0     C67912   0.473  10.339   8.047 -0.6517  0.4668 -0.3971
  504MOL0     O67913   0.336  10.361   8.073  0.2526  0.6505  0.0095
  504MOL0     C67914   0.255  10.408   7.965 -0.5827  0.8460  0.2144
  504MOL0     C67915   0.112  10.421   8.021 -0.1889  0.2760  0.3461
  504MOL0     C67916   0.103  10.535   8.123 -0.7503  0.3224  1.0175
  504MOL0     C67917   0.076  10.672   8.061 -0.2135  0.1300  0.2232
  504MOL0     C67918   0.120  10.782   8.167  0.4963 -0.4414  0.0630
  504MOL0     C67919   0.046  10.917   8.160  0.1795 -0.0643  0.6424
  504MOL0     C67920   0.087  11.017   8.276  0.2327 -0.0322 -0.9864
  504MOL0     C67921   0.076  10.976   8.423  0.3619 -0.2216 -0.2574
  504MOL0     N67922  -0.062  10.968   8.469  0.2661  0.6966 -0.4943
  504MOL0     C67923  -0.118  11.079   8.529  0.1414  0.4818 -0.5492
  504MOL0     C67924  -0.255  11.057   8.531  0.5336  0.0815 -0.4116
  504MOL0     C67925  -0.348  11.153   8.590  0.5618 -0.0386 -0.3433
  504MOL0     C67926  -0.492  11.126   8.545  0.1793 -0.9082 -0.5476
  504MOL0     C67927  -0.595  11.208   8.628 -0.4895 -0.5638  0.8834
  504MOL0     C67928  -0.734  11.230   8.557  0.4377 -0.2891 -0.0560
  504MOL0     O67929  -0.823  11.121   8.554 -0.2930  0.0961  0.4196
  504MOL0     C67930  -0.952  11.136   8.524  0.4644 -0.8397 -0.6336
  504MOL0     C67931  -1.004  11.252   8.462  0.7018 -0.0801 -0.3773
  504MOL0     C67932  -1.142  11.273   8.447 -0.8304 -0.7800  0.5162
  504MOL0     C67933  -1.191  11.405   8.407  0.5823 -0.0996  0.5672
  504MOL0     C67934  -1.227  11.159   8.469  0.1013 -0.6591 -1.0809
  504MOL0     C67935  -1.376  11.164   8.441 -0.5312 -0.2282 -0.7014
  504MOL0     O67936  -1.419  11.244   8.343  0.1033  0.1066 -0.6917
  504MOL0     C67937  -1.550  11.291   8.358 -0.2654  0.2505 -0.4577
  504MOL0     C67938  -1.641  11.273   8.255  0.3917 -0.0810 -0.2502
  504MOL0     C67939  -1.771  11.328   8.265  1.1018  0.2552  0.4484
  504MOL0     C67940  -1.807  11.413   8.370  0.4901 -0.0630  0.6876
  504MOL0     O67941  -1.938  11.465   8.395 -1.0368 -0.1808  0.7256
  504MOL0     C67942  -2.035  11.439   8.291 -0.0055  0.5064  0.0711
  504MOL0     C67943  -2.162  11.497   8.323  0.2311 -1.1555  0.6088
  504MOL0     C67944  -2.234  11.437   8.438 -0.5830 -0.3952 -0.4697
  504MOL0     C67945  -2.380  11.478   8.444  0.6081  0.5486 -0.5269
  504MOL0     C67946  -2.464  11.383   8.527 -0.3171  0.3820  0.1756
  504MOL0     C67947  -2.604  11.439   8.545  0.2692  0.1611 -0.6512
  504MOL0     C67948  -2.707  11.335   8.503 -1.3552 -0.6865  0.3765
  504MOL0     C67949  -2.844  11.400   8.508  0.6686 -0.3018 -0.2757
  504MOL0    Cl67950  -2.901  11.458   8.673  0.2267 -0.0042  0.4175
  504MOL0     C67951  -1.710  11.441   8.472 -0.9210  0.7762 -0.0102
  504MOL0     C67952  -1.586  11.375   8.466  0.1877 -0.2179  0.7114
  504MOL0     O67953  -1.447  11.102   8.520 -0.1818  0.0115 -0.3699
  504MOL0     C67954  -1.170  11.051   8.539  0.4448  0.4182  0.3238
  504MOL0     C67955  -1.032  11.037   8.569 -0.1923 -0.3085  0.2867
  504MOL0     N67956  -0.274  10.920   8.487 -0.0263 -0.0175 -0.4830
  504MOL0     N67957  -0.158  10.868   8.456  0.4297 -0.2724 -0.1312
  504MOL0     C67958   0.540  10.347   7.925 -0.3076 -0.4459  0.1055
  504MOL0     C67959   0.685  10.334   7.924 -0.4028 -0.0634  0.2143
  504MOL0     C67960   1.125  10.231   8.105  0.7578 -0.4087 -0.5107
  504MOL0     C67961   1.204  10.313   8.019  0.2634  0.1418  0.4036
  504MOL0     C67962   1.345  10.315   8.036  0.5618  0.0544 -0.0467
  504MOL0     C67963   1.410  10.236   8.134 -0.4246 -0.6546  0.3767
  504MOL0     O67964   1.544  10.257   8.147 -0.5322  0.3877 -0.8524
  504MOL0     C67965   1.629  10.178   8.228  1.1551 -0.4788  0.3969
  504MOL0     C67966   1.769  10.238   8.222  0.0260 -0.5669  0.3506
  504MOL0     C67967   1.842  10.169   8.112 -0.4639  0.8818  0.2337
  504MOL0     C67968   1.770  10.128   7.984  0.4712  0.7389 -0.0770
  504MOL0     C67969   1.868  10.086   7.883  0.1235 -0.0332  0.3511
  504MOL0     C67970   1.940  10.052   7.799 -0.6986  0.7368  0.6686
  504MOL0     C67971   1.337  10.144   8.209 -0.3831  0.0842 -0.0685
  504MOL0     C67972   1.196  10.136   8.190  0.6168  0.5234 -0.1799
  504MOL0     H67973   0.732  10.259   8.250 -0.8190  2.9875  1.5633
  504MOL0     H67974   0.493  10.313   8.254 -1.3186 -0.5505 -0.8595
  504MOL0     H67975   0.301  10.494   7.915 -1.5085  0.0157 -2.2094
  504MOL0     H67976   0.248  10.335   7.884 -2.6796  0.6197  0.5690
  504MOL0     H67977   0.040  10.419   7.939  3.3866 -0.6389 -3.1040
  504MOL0     H67978   0.098  10.325   8.071  3.7602 -0.7112 -0.0585
  504MOL0     H67979   0.027  10.510   8.198 -1.2148 -1.5420  0.0065
  504MOL0     H67980   0.195  10.538   8.180  0.9616 -3.0786 -1.2174
  504MOL0     H67981   0.123  10.695   7.965  0.6184  3.3258  1.2668
  504MOL0     H67982  -0.031  10.677   8.039 -0.7104  0.7272  2.4465
  504MOL0     H67983   0.104  10.747   8.269 -1.8797 -1.4037 -0.5703
  504MOL0     H67984   0.226  10.793   8.141  0.6528 -0.8885  0.4970
  504MOL0     H67985   0.080  10.951   8.061  1.8040 -3.7419 -0.2326
  504MOL0     H67986  -0.063  10.912   8.161  0.0469  1.8957  1.0414
  504MOL0     H67987   0.194  11.036   8.258  0.2986  0.0316 -0.5524
  504MOL0     H67988   0.033  11.112   8.270 -0.1244 -0.1873 -0.3500
  504MOL0     H67989   0.137  11.047   8.479 -1.0954 -0.6539  1.9983
  504MOL0     H67990   0.111  10.873   8.432  0.7829 -0.0127  0.5469
  504MOL0     H67991  -0.074  11.174   8.558 -3.0921  1.5762  1.2106
  504MOL0     H67992  -0.339  11.145   8.699  0.5972  0.6306 -0.2953
  504MOL0     H67993  -0.319  11.255   8.565  0.2147  0.5114  1.3560
  504MOL0     H67994  -0.526  11.023   8.560 -0.2940 -0.8825 -1.3853
  504MOL0     H67995  -0.506  11.162   8.442 -2.2902 -0.9108 -0.2698
  504MOL0     H67996  -0.546  11.304   8.651 -0.0772 -0.6326  0.3237
  504MOL0     H67997  -0.610  11.160   8.725  2.5587 -1.4817  1.0029
  504MOL0     H67998  -0.732  11.263   8.452 -0.7428 -0.2596 -0.0793
  504MOL0     H67999  -0.779  11.312   8.613  0.2006 -0.4489 -0.0155
  504MOL0     H68000  -0.930  11.325   8.430 -1.1760  1.6844 -0.8640
  504MOL0     H68001  -1.111  11.478   8.417  1.2023 -0.8504  1.2806
  504MOL0     H68002  -1.224  11.400   8.303  1.1639 -1.0392  0.4114
  504MOL0     H68003  -1.274  11.427   8.475  1.1256 -0.8890  1.5164
  504MOL0     H68004  -1.627  11.206   8.171  0.0037 -1.7043  0.9327
  504MOL0     H68005  -1.841  11.330   8.181 -3.8708 -1.2695  4.0502
  504MOL0     H68006  -1.995  11.458   8.191 -0.1776 -2.2992 -0.6138
  504MOL0     H68007  -2.057  11.333   8.276  2.2164 -0.2279  1.4159
  504MOL0     H68008  -2.152  11.606   8.329 -0.4764 -0.9186 -1.5295
  504MOL0     H68009  -2.224  11.482   8.234  0.8250 -1.3540  0.2152
  504MOL0     H68010  -2.176  11.477   8.522  1.2144 -0.4191 -1.6327
  504MOL0     H68011  -2.222  11.328   8.440  3.4662 -0.0987  0.4210
  504MOL0     H68012  -2.381  11.577   8.489  2.2806 -0.7853  2.7654
  504MOL0     H68013  -2.420  11.484   8.342  0.8227  1.3471 -0.5629
  504MOL0     H68014  -2.409  11.365   8.620  1.0926  0.7892 -0.5664
  504MOL0     H68015  -2.458  11.282   8.486  0.3287  0.5541 -0.1595
  504MOL0     H68016  -2.628  11.453   8.651  4.9618 -0.6189  0.7460
  504MOL0     H68017  -2.627  11.536   8.500 -0.7507  0.5008  0.5301
  504MOL0     H68018  -2.703  11.252   8.574 -2.1959 -0.9464  0.1334
  504MOL0     H68019  -2.713  11.292   8.403 -3.3867  0.8047 -0.2286
  504MOL0     H68020  -2.918  11.331   8.467 -0.5147  0.2980  0.7610
  504MOL0     H68021  -2.844  11.487   8.441 -0.7095  0.9192  1.2198
  504MOL0     H68022  -1.742  11.508   8.551 -3.2345  0.2215 -0.3778
  504MOL0     H68023  -1.503  11.409   8.527  2.9295 -3.3905 -0.9557
  504MOL0     H68024  -1.241  10.972   8.563  1.6946 -0.5460  0.9683
  504MOL0     H68025  -0.990  10.944   8.605  0.9017  0.2732  0.5502
  504MOL0     H68026   0.491  10.371   7.831  0.7938  0.0557 -0.3635
  504MOL0     H68027   0.735  10.334   7.828  1.1412 -2.1784  0.9372
  504MOL0     H68028   1.169  10.374   7.936 -1.5155 -0.1250  0.8958
  504MOL0     H68029   1.390  10.399   7.984  3.7186 -1.2060  0.3793
  504MOL0     H68030   1.592  10.183   8.330 -0.3360 -1.6444 -0.0467
  504MOL0     H68031   1.629  10.070   8.210 -0.7005 -0.2388 -1.3942
  504MOL0     H68032   1.829  10.202   8.306  0.3857 -1.4376 -0.2658
  504MOL0     H68033   1.771  10.347   8.211  1.5648 -0.4981  1.0423
  504MOL0     H68034   1.892  10.081   8.151  1.2226  1.1532 -1.2214
  504MOL0     H68035   1.922  10.240   8.089  0.4958 -0.4824 -0.7318
  504MOL0     H68036   1.712  10.209   7.938 -1.6771 -0.3147  0.6476
  504MOL0     H68037   1.706  10.046   8.016  1.9275  0.4089  2.2553
  504MOL0     H68038   2.005  10.029   7.716 -1.4083 -0.7301  0.4876
  504MOL0     H68039   1.389  10.086   8.284 -1.3033 -0.1914  0.3608
  504MOL0     H68040   1.146  10.060   8.250 -2.2263  1.3671 -1.3270
  505MOL0     O68041   5.499   5.270   7.032  0.0759  0.1836  0.3610
  505MOL0     C68042   5.542   5.337   6.935  0.8557  0.0775 -0.0860
  505MOL0     O68043   5.462   5.389   6.839 -0.3272  0.7439  0.5323
  505MOL0     C68044   5.335   5.348   6.828  0.8065 -0.6421 -0.5875
  505MOL0     C68045   5.240   5.379   6.927  0.4511 -0.2528  0.7642
  505MOL0     C68046   5.110   5.341   6.900 -0.2836 -0.7436 -0.2382
  505MOL0     C68047   5.076   5.281   6.778 -0.4960 -0.0622 -0.2242
  505MOL0     O68048   4.947   5.239   6.742  0.6048  0.0402 -0.0170
  505MOL0     C68049   4.830   5.312   6.786 -0.0755  0.2605  0.3760
  505MOL0     C68050   4.719   5.232   6.716 -0.5582  0.1645  0.6925
  505MOL0     C68051   4.584   5.283   6.750  0.2575 -0.7939  0.5300
  505MOL0     C68052   4.478   5.177   6.718  0.0209  0.4030 -0.4967
  505MOL0     C68053   4.337   5.192   6.780 -0.6093 -0.2031 -0.0107
  505MOL0     C68054   4.226   5.149   6.678  0.4396  0.4129  0.0295
  505MOL0     C68055   4.084   5.155   6.731  0.6842 -1.1422 -0.6507
  505MOL0     C68056   4.054   5.285   6.801 -0.8218 -0.6220  1.1202
  505MOL0     N68057   3.910   5.288   6.838 -0.1678 -0.4968  0.8232
  505MOL0     C68058   3.805   5.318   6.755  0.0821  0.3635 -0.3374
  505MOL0     C68059   3.704   5.304   6.841  0.7156 -0.2753 -0.0844
  505MOL0     C68060   3.559   5.337   6.804 -0.4842  0.0121  0.1879
  505MOL0     C68061   3.548   5.474   6.744 -0.0889  0.4169  0.5071
  505MOL0     C68062   3.405   5.532   6.726  1.0907 -0.0501 -0.1422
  505MOL0     C68063   3.316   5.563   6.852 -0.3891 -0.3954 -0.2207
  505MOL0     O68064   3.187   5.614   6.806  0.2142  0.1917  0.0358
  505MOL0     C68065   3.094   5.655   6.891  0.1241 -0.5555  0.0404
  505MOL0     C68066   3.120   5.664   7.032  0.2942 -0.5632 -0.8327
  505MOL0     C68067   3.016   5.700   7.118 -0.0419  0.3645 -0.1763
  505MOL0     C68068   3.047   5.690   7.270 -0.1855  0.3696 -0.2968
  505MOL0     C68069   2.888   5.726   7.073  0.0422  0.4199 -0.8490
  505MOL0     C68070   2.765   5.736   7.161 -0.1782 -1.0546  0.5668
  505MOL0     O68071   2.667   5.800   7.107  0.2016 -0.8406 -0.0247
  505MOL0     C68072   2.540   5.765   7.139 -0.1319 -0.3471 -0.4276
  505MOL0     C68073   2.493   5.651   7.079 -0.1926  0.1178  0.5339
  505MOL0     C68074   2.357   5.612   7.073 -0.1117  0.1051  0.7205
  505MOL0     C68075   2.263   5.699   7.141 -1.0488 -0.6427  0.0454
  505MOL0     O68076   2.131   5.665   7.161  0.0906  0.1732 -0.2829
  505MOL0     C68077   2.073   5.711   7.292 -0.1212  0.0629  0.6495
  505MOL0     C68078   1.945   5.635   7.329  0.0855 -0.0079  0.7491
  505MOL0     C68079   1.822   5.683   7.250 -0.7627 -0.1127 -0.4984
  505MOL0     C68080   1.696   5.621   7.303 -0.3671 -0.4272  0.9458
  505MOL0     C68081   1.571   5.663   7.228  0.8992  0.4927  0.1308
  505MOL0     C68082   1.451   5.610   7.312  0.0849  0.0413  0.1147
  505MOL0     C68083   1.312   5.631   7.251 -0.0029 -0.6467 -0.1232
  505MOL0     C68084   1.265   5.778   7.265  0.4691 -0.3806  0.7974
  505MOL0    Cl68085   1.113   5.794   7.178  0.0819 -0.8624  0.5485
  505MOL0     C68086   2.313   5.819   7.211 -0.4646 -0.0683  0.2169
  505MOL0     C68087   2.448   5.852   7.208 -0.5309  0.0264 -0.2620
  505MOL0     O68088   2.761   5.668   7.264  0.0094  0.7180 -1.0320
  505MOL0     C68089   2.867   5.724   6.938  0.2265 -0.4805  0.2242
  505MOL0     C68090   2.964   5.684   6.850 -0.8739  0.0569  1.2887
  505MOL0     N68091   3.743   5.258   6.961  0.1701  0.0546  0.0161
  505MOL0     N68092   3.872   5.249   6.961  0.2148 -0.2358  0.9190
  505MOL0     C68093   5.172   5.256   6.681  0.6972 -0.1492  0.1913
  505MOL0     C68094   5.300   5.299   6.701  0.0992 -0.0685 -0.3188
  505MOL0     C68095   5.686   5.355   6.923  0.3782 -0.2374  0.5598
  505MOL0     C68096   5.740   5.417   6.813  0.1920 -0.8292 -1.3445
  505MOL0     C68097   5.885   5.435   6.801 -0.2116 -0.0835  1.4944
  505MOL0     C68098   5.971   5.383   6.894 -0.1814  0.0247  0.3739
  505MOL0     O68099   6.111   5.378   6.876  0.0457 -0.5751  0.0344
  505MOL0     C68100   6.179   5.438   6.777 -0.2730 -0.1666  0.3570
  505MOL0     C68101   6.326   5.419   6.800 -0.1295  0.0086  0.4129
  505MOL0     C68102   6.372   5.270   6.832 -0.1808 -0.2014 -0.4084
  505MOL0     C68103   6.314   5.177   6.730  0.4335 -0.8353 -0.2712
  505MOL0     C68104   6.359   5.206   6.595  0.7901  0.0691  0.8286
  505MOL0     C68105   6.397   5.213   6.477 -1.1460 -0.0489 -1.0210
  505MOL0     C68106   5.918   5.327   7.003  0.8072 -0.2278  0.3604
  505MOL0     C68107   5.777   5.303   7.015 -0.5144 -0.3521  0.5348
  505MOL0     H68108   5.258   5.426   7.023  1.6145 -2.3510  1.6616
  505MOL0     H68109   5.032   5.380   6.964 -0.1696  1.0726 -1.1382
  505MOL0     H68110   4.810   5.308   6.893 -1.7007  0.6663  0.1149
  505MOL0     H68111   4.833   5.418   6.759 -0.1788  0.9921  3.0013
  505MOL0     H68112   4.737   5.226   6.608 -0.1998  0.6331  0.7243
  505MOL0     H68113   4.722   5.127   6.746 -1.8070 -0.1239 -0.1121
  505MOL0     H68114   4.589   5.307   6.856 -4.1511  2.5422  0.2399
  505MOL0     H68115   4.560   5.373   6.694 -1.1051 -1.5889 -0.2123
  505MOL0     H68116   4.475   5.168   6.609 -0.4534  1.4280 -0.5835
  505MOL0     H68117   4.529   5.085   6.746  3.5514  1.9035 -1.4523
  505MOL0     H68118   4.332   5.126   6.867 -1.9298 -0.6828 -0.4361
  505MOL0     H68119   4.331   5.300   6.798 -0.8721 -0.4851  1.7617
  505MOL0     H68120   4.244   5.223   6.599  1.1307  0.3585  0.1266
  505MOL0     H68121   4.254   5.045   6.663 -0.6548  0.0540  0.3799
  505MOL0     H68122   4.003   5.141   6.659 -1.2163 -4.7743  1.8583
  505MOL0     H68123   4.067   5.071   6.799 -3.7138  0.7488  1.0016
  505MOL0     H68124   4.076   5.368   6.733 -3.6492 -2.5455 -2.4778
  505MOL0     H68125   4.122   5.298   6.886  0.1676 -1.1098  0.4234
  505MOL0     H68126   3.797   5.359   6.655 -0.0717  1.4345  0.0988
  505MOL0     H68127   3.512   5.258   6.746  1.5081 -0.1012 -1.3582
  505MOL0     H68128   3.506   5.343   6.899  2.4768  0.4805  1.9539
  505MOL0     H68129   3.588   5.466   6.642  0.1675  0.6644  0.5862
  505MOL0     H68130   3.602   5.557   6.792 -0.0947  0.4355  0.4822
  505MOL0     H68131   3.354   5.472   6.651  1.3399 -0.0409 -0.3202
  505MOL0     H68132   3.425   5.626   6.675  2.0703 -0.2616 -0.1633
  505MOL0     H68133   3.373   5.618   6.928  0.4183 -3.0514  1.2254
  505MOL0     H68134   3.296   5.461   6.887  0.7693 -2.2875 -4.3604
  505MOL0     H68135   3.221   5.644   7.067  0.1795 -4.2014 -2.0874
  505MOL0     H68136   3.156   5.699   7.276 -0.0656  0.5137 -2.0808
  505MOL0     H68137   3.008   5.776   7.325 -2.0814 -0.3187 -0.4601
  505MOL0     H68138   3.003   5.603   7.320  0.6174  1.0179  1.6099
  505MOL0     H68139   2.559   5.590   7.019  0.7686  1.7507 -0.1367
  505MOL0     H68140   2.332   5.518   7.025  1.3562 -0.1803  0.4466
  505MOL0     H68141   2.146   5.691   7.371  1.1784 -0.5560 -0.6621
  505MOL0     H68142   2.044   5.816   7.286 -0.2042 -0.0100 -0.5191
  505MOL0     H68143   1.960   5.529   7.307  1.4581  0.6852 -2.1432
  505MOL0     H68144   1.917   5.639   7.434 -1.2155 -0.5616  0.4428
  505MOL0     H68145   1.839   5.661   7.144 -0.2598  3.5772 -1.3078
  505MOL0     H68146   1.811   5.791   7.262  2.8586  0.4619 -1.0568
  505MOL0     H68147   1.717   5.514   7.305 -0.7255 -0.5425 -0.5991
  505MOL0     H68148   1.685   5.658   7.406 -0.8585  0.5651  0.5511
  505MOL0     H68149   1.566   5.628   7.124  1.0583  1.0103 -0.0525
  505MOL0     H68150   1.564   5.772   7.229  0.7472  0.6156  4.5629
  505MOL0     H68151   1.452   5.501   7.317  0.4702  0.0510  0.2551
  505MOL0     H68152   1.451   5.646   7.415  2.2870 -0.2617  0.2595
  505MOL0     H68153   1.231   5.573   7.296 -0.5936  0.4967  0.3626
  505MOL0     H68154   1.319   5.605   7.145  0.8135 -0.6155 -0.0850
  505MOL0     H68155   1.344   5.848   7.234  0.1495 -0.0924  0.6276
  505MOL0     H68156   1.243   5.788   7.371 -1.4783 -1.2677  0.5209
  505MOL0     H68157   2.248   5.887   7.266  0.3256  1.4003 -0.5919
  505MOL0     H68158   2.492   5.946   7.241  3.3582 -1.4185 -0.8691
  505MOL0     H68159   2.775   5.738   6.882  1.5595 -0.9078 -2.2202
  505MOL0     H68160   2.939   5.688   6.745  1.7391 -1.4947  0.5016
  505MOL0     H68161   5.141   5.199   6.593 -1.9106  0.5715  0.5459
  505MOL0     H68162   5.371   5.292   6.619 -0.5457  0.2675 -0.9082
  505MOL0     H68163   5.673   5.445   6.732 -0.4610  0.9471 -0.2491
  505MOL0     H68164   5.914   5.479   6.707 -0.3953 -1.0637  0.9710
  505MOL0     H68165   6.157   5.407   6.674 -0.6444  2.2119 -0.3466
  505MOL0     H68166   6.170   5.547   6.774  1.3384  0.0201  1.3742
  505MOL0     H68167   6.350   5.476   6.890 -1.8397  0.8063  0.3911
  505MOL0     H68168   6.375   5.455   6.710 -0.1920  1.1039  0.8071
  505MOL0     H68169   6.349   5.239   6.934  2.9967  0.9371  0.8063
  505MOL0     H68170   6.481   5.259   6.829 -0.2127 -0.4897 -0.5110
  505MOL0     H68171   6.205   5.173   6.736  0.2140  1.2545 -1.6247
  505MOL0     H68172   6.341   5.077   6.765  0.2630 -0.0209  2.3428
  505MOL0     H68173   6.424   5.220   6.374  0.0910 -1.4233 -0.8203
  505MOL0     H68174   5.991   5.289   7.074  0.5175 -1.2655  0.1186
  505MOL0     H68175   5.751   5.255   7.108  4.3769 -1.4759  1.5904
  506MOL0     O68176   8.273   7.562   6.803 -0.0544  0.6910  0.0806
  506MOL0     C68177   8.301   7.650   6.882  0.2999 -0.4582 -0.0583
  506MOL0     O68178   8.212   7.751   6.911 -0.1578 -0.4260  0.1254
  506MOL0     C68179   8.083   7.751   6.868  0.2421  1.0917 -0.2590
  506MOL0     C68180   7.994   7.806   6.954  0.1241 -0.1213  0.3296
  506MOL0     C68181   7.860   7.809   6.925 -0.4900 -0.1467 -0.4287
  506MOL0     C68182   7.801   7.752   6.820  0.4821 -0.1730  0.1735
  506MOL0     O68183   7.665   7.753   6.814 -0.1913 -0.6526 -0.4547
  506MOL0     C68184   7.600   7.701   6.698 -0.2582  0.1493 -0.8443
  506MOL0     C68185   7.607   7.799   6.575 -0.1099  0.1696 -0.0010
  506MOL0     C68186   7.481   7.883   6.555 -0.8058  0.3213 -1.1321
  506MOL0     C68187   7.497   8.000   6.455  0.2444  0.0051 -0.1156
  506MOL0     C68188   7.378   8.099   6.424 -0.9375 -0.4950  0.2447
  506MOL0     C68189   7.308   8.157   6.548 -0.1331  0.6960  1.1037
  506MOL0     C68190   7.362   8.283   6.613 -0.2222  0.3031  0.1419
  506MOL0     C68191   7.273   8.327   6.728 -0.5045 -0.5457  0.3264
  506MOL0     N68192   7.142   8.371   6.681 -0.0551 -0.1512  0.1785
  506MOL0     C68193   7.116   8.506   6.654 -0.5147 -0.5810 -0.2533
  506MOL0     C68194   6.981   8.513   6.633 -0.4001 -0.5359  0.1967
  506MOL0     C68195   6.899   8.636   6.596  0.0829 -0.3584  0.5833
  506MOL0     C68196   6.962   8.773   6.611  0.1784  1.1700 -0.1792
  506MOL0     C68197   6.949   8.810   6.759  0.2601  0.8463 -0.0268
  506MOL0     C68198   7.013   8.955   6.788 -0.9180  0.4198 -0.3219
  506MOL0     O68199   7.157   8.951   6.797  0.2927 -0.2158  0.4046
  506MOL0     C68200   7.240   9.060   6.806  0.3273  1.0823 -0.2260
  506MOL0     C68201   7.197   9.191   6.816 -0.6312  0.2925 -0.4541
  506MOL0     C68202   7.292   9.295   6.825  1.3112 -0.2278  0.2982
  506MOL0     C68203   7.251   9.435   6.859 -0.1729 -0.3852  0.0508
  506MOL0     C68204   7.430   9.267   6.807  0.1883  0.6704  0.6721
  506MOL0     C68205   7.537   9.369   6.802 -0.4165  0.4026  0.0642
  506MOL0     O68206   7.636   9.350   6.711  0.8896 -0.2326 -0.2016
  506MOL0     C68207   7.723   9.451   6.664  0.9411 -0.8862  0.3203
  506MOL0     C68208   7.845   9.412   6.595  0.0576 -0.5129 -0.5140
  506MOL0     C68209   7.925   9.510   6.537 -0.4566  0.1195 -0.4779
  506MOL0     C68210   7.897   9.640   6.537  0.2340  0.2287 -0.7295
  506MOL0     O68211   7.974   9.731   6.479 -1.1209  0.1191  0.4935
  506MOL0     C68212   8.118   9.727   6.492 -0.8357 -0.4932  0.2834
  506MOL0     C68213   8.178   9.857   6.429 -1.0406 -0.9309 -0.2611
  506MOL0     C68214   8.327   9.846   6.419  0.1188  0.1706 -0.1111
  506MOL0     C68215   8.386   9.987   6.410 -0.7522 -0.1773  0.6983
  506MOL0     C68216   8.529  10.007   6.462  0.7108  0.3749 -0.1752
  506MOL0     C68217   8.560  10.155   6.450  0.2643 -0.1466 -0.8312
  506MOL0     C68218   8.708  10.189   6.506 -0.0212  0.0018 -0.6376
  506MOL0     C68219   8.754  10.341   6.486  0.5019  0.6486  0.0411
  506MOL0    Cl68220   8.613  10.449   6.526  0.3970  0.1160  0.2144
  506MOL0     C68221   7.783   9.679   6.605  0.9307  0.9409 -0.3996
  506MOL0     C68222   7.693   9.585   6.665  0.0966 -0.7173 -0.6864
  506MOL0     O68223   7.534   9.455   6.891 -0.5530 -0.4769  0.5786
  506MOL0     C68224   7.468   9.130   6.784 -0.5709 -0.5332  0.1321
  506MOL0     C68225   7.371   9.025   6.789 -1.0979 -0.4211  0.4529
  506MOL0     N68226   6.926   8.390   6.638 -0.2498  0.8086  0.0516
  506MOL0     N68227   7.020   8.305   6.669  0.2157  0.6685 -0.6874
  506MOL0     C68228   7.896   7.694   6.727 -0.1457 -0.0923  0.4025
  506MOL0     C68229   8.034   7.704   6.747  0.4493  0.0209  0.2021
  506MOL0     C68230   8.434   7.642   6.948 -0.0289  0.5366  0.1678
  506MOL0     C68231   8.464   7.756   7.030 -0.4215  0.9328  0.2137
  506MOL0     C68232   8.588   7.762   7.097 -0.1902 -1.2536 -0.0117
  506MOL0     C68233   8.681   7.656   7.079 -0.3205  0.4500  0.7329
  506MOL0     O68234   8.804   7.651   7.127  0.1284 -0.4087  0.3961
  506MOL0     C68235   8.857   7.747   7.219  0.1508  0.3896  0.9570
  506MOL0     C68236   8.841   7.705   7.355 -0.3537 -0.4896 -0.2179
  506MOL0     C68237   8.948   7.603   7.378 -0.3136  0.0503  0.0036
  506MOL0     C68238   9.006   7.614   7.527 -0.4781  0.7310  0.3023
  506MOL0     C68239   9.113   7.717   7.537 -0.4421  0.1046  0.1480
  506MOL0     C68240   9.205   7.799   7.539  0.3092 -1.4562 -0.0537
  506MOL0     C68241   8.651   7.553   6.991  0.5946 -0.7868 -0.5054
  506MOL0     C68242   8.533   7.538   6.920 -1.5233 -1.1139  0.6868
  506MOL0     H68243   8.047   7.837   7.043 -1.3884 -2.4323  2.1742
  506MOL0     H68244   7.803   7.869   6.995 -0.8510  0.4261 -1.2060
  506MOL0     H68245   7.647   7.610   6.660 -1.4195 -0.2021 -1.4977
  506MOL0     H68246   7.496   7.680   6.726 -0.9560  3.6497 -0.3993
  506MOL0     H68247   7.692   7.868   6.569 -0.6355  0.9208  0.9215
  506MOL0     H68248   7.625   7.727   6.494  0.1804 -1.9932  1.8764
  506MOL0     H68249   7.396   7.822   6.523 -1.5645 -0.0646  1.4438
  506MOL0     H68250   7.457   7.924   6.653 -0.2499  0.8440 -1.2059
  506MOL0     H68251   7.568   8.060   6.513  0.6658 -0.5999  0.0027
  506MOL0     H68252   7.556   7.984   6.364  0.4677  0.8142 -0.1205
  506MOL0     H68253   7.409   8.181   6.359 -2.7160  0.2881  0.3253
  506MOL0     H68254   7.308   8.035   6.368 -2.9713  0.6097  1.3854
  506MOL0     H68255   7.206   8.168   6.511 -0.0868 -0.2712  0.6640
  506MOL0     H68256   7.311   8.074   6.619  1.9343  1.8000  2.4099
  506MOL0     H68257   7.461   8.256   6.649 -1.1637 -2.0747  1.1491
  506MOL0     H68258   7.369   8.360   6.536 -0.2897 -2.5674 -2.9327
  506MOL0     H68259   7.327   8.401   6.787  3.6233 -2.6546 -0.4119
  506MOL0     H68260   7.263   8.236   6.789  0.8567 -1.6842 -1.0827
  506MOL0     H68261   7.180   8.593   6.661 -0.7602 -0.4053 -0.1970
  506MOL0     H68262   6.882   8.617   6.490 -1.4217 -1.7501  1.0449
  506MOL0     H68263   6.801   8.635   6.645  0.5677 -0.1416  1.5854
  506MOL0     H68264   6.916   8.846   6.543 -1.5557 -2.2053 -2.9540
  506MOL0     H68265   7.067   8.764   6.584  0.0688  2.3503 -1.0632
  506MOL0     H68266   6.994   8.734   6.825 -1.7591 -0.4337 -0.0238
  506MOL0     H68267   6.843   8.816   6.786  0.2657  0.1098  0.1834
  506MOL0     H68268   6.980   8.991   6.886  0.1199  3.1547 -0.8997
  506MOL0     H68269   6.989   9.031   6.714  5.8604  4.7203  1.0248
  506MOL0     H68270   7.091   9.208   6.830 -1.0751 -3.4778  2.6011
  506MOL0     H68271   7.142   9.445   6.867  0.0176  0.5645  2.5248
  506MOL0     H68272   7.290   9.467   6.956 -0.3280 -1.1771  0.3855
  506MOL0     H68273   7.296   9.505   6.788 -0.1550 -1.3245 -0.8862
  506MOL0     H68274   7.871   9.307   6.611  1.6558 -0.0212  0.3815
  506MOL0     H68275   8.014   9.485   6.481  0.6856  2.1690  0.3382
  506MOL0     H68276   8.156   9.709   6.593  0.8921 -3.5990 -0.7757
  506MOL0     H68277   8.160   9.638   6.445 -0.5760 -0.0406 -0.3687
  506MOL0     H68278   8.142   9.854   6.325  1.2344  1.7209 -1.2674
  506MOL0     H68279   8.143   9.943   6.486 -1.3060 -1.8178  0.9347
  506MOL0     H68280   8.347   9.792   6.326  0.4611  3.0156 -1.7808
  506MOL0     H68281   8.363   9.791   6.507 -1.2152  1.3769  1.2350
  506MOL0     H68282   8.379  10.023   6.307  2.8742 -2.2059 -0.4284
  506MOL0     H68283   8.332  10.064   6.465  0.9262  2.3817 -1.0290
  506MOL0     H68284   8.588   9.940   6.399  0.6991  1.6207 -1.5835
  506MOL0     H68285   8.529   9.977   6.567 -3.0920  0.4714 -0.0292
  506MOL0     H68286   8.556  10.194   6.348  0.7484  0.0739 -0.7677
  506MOL0     H68287   8.486  10.209   6.510 -1.5543 -0.9081 -2.3229
  506MOL0     H68288   8.778  10.120   6.459 -0.5225 -0.8809 -0.1287
  506MOL0     H68289   8.713  10.171   6.614  1.0953 -0.8172 -0.8022
  506MOL0     H68290   8.785  10.360   6.383  1.2656  0.9376  0.3155
  506MOL0     H68291   8.837  10.372   6.550 -0.0930  0.8405  0.7396
  506MOL0     H68292   7.751   9.783   6.607 -2.4873  0.0080  1.7414
  506MOL0     H68293   7.605   9.632   6.708  1.8161  1.3613  0.8167
  506MOL0     H68294   7.575   9.117   6.771 -0.4918  0.4199 -0.2137
  506MOL0     H68295   7.401   8.923   6.769  1.2387  0.5968 -1.8420
  506MOL0     H68296   7.873   7.648   6.631  1.7156  1.0032 -0.6233
  506MOL0     H68297   8.106   7.664   6.676  2.8515 -1.4653  3.1997
  506MOL0     H68298   8.394   7.837   7.049 -2.0877 -0.2434 -0.7234
  506MOL0     H68299   8.607   7.843   7.166  2.3427 -1.2778 -0.5669
  506MOL0     H68300   8.961   7.753   7.187 -0.5261  0.9901 -1.3749
  506MOL0     H68301   8.817   7.849   7.208  0.2928  0.2142 -1.9000
  506MOL0     H68302   8.739   7.669   7.374 -0.7333 -0.5896 -2.2451
  506MOL0     H68303   8.858   7.793   7.419  1.6187 -1.4964  0.7274
  506MOL0     H68304   9.025   7.607   7.301  2.4843 -0.5711  2.5699
  506MOL0     H68305   8.897   7.507   7.368 -1.5917  0.8808 -2.1326
  506MOL0     H68306   9.036   7.516   7.567 -0.9105  1.4223  2.4540
  506MOL0     H68307   8.923   7.641   7.593 -2.3974  3.8328 -3.0281
  506MOL0     H68308   9.293   7.859   7.535 -0.4506 -0.3364 -0.6393
  506MOL0     H68309   8.742   7.503   6.959  0.3972 -0.0721 -2.2645
  506MOL0     H68310   8.519   7.460   6.846  2.9641 -0.9649 -0.6268
  507MOL0     O68311   3.403   0.815   4.383 -0.0533  0.1399  0.7867
  507MOL0     C68312   3.386   0.698   4.365  0.3921 -0.6142  0.4919
  507MOL0     O68313   3.274   0.634   4.384 -0.0239 -0.0441 -0.5127
  507MOL0     C68314   3.151   0.682   4.418 -0.3080 -0.3147  0.1286
  507MOL0     C68315   3.068   0.611   4.491 -0.1229  0.1678 -1.0503
  507MOL0     C68316   2.946   0.671   4.539 -0.2515  0.2460  0.1405
  507MOL0     C68317   2.908   0.800   4.504 -0.5326  0.0919 -0.5374
  507MOL0     O68318   2.786   0.841   4.561 -0.0661 -0.5846 -0.4255
  507MOL0     C68319   2.736   0.954   4.497  0.2986 -0.0190  0.1722
  507MOL0     C68320   2.616   1.009   4.562 -0.5456 -0.3191  0.2495
  507MOL0     C68321   2.489   0.966   4.494 -0.1585 -0.1010  0.2921
  507MOL0     C68322   2.372   1.044   4.557  0.4386 -0.3948  0.0818
  507MOL0     C68323   2.228   1.003   4.517  0.6043 -0.3496  0.5096
  507MOL0     C68324   2.121   1.089   4.569 -0.4324 -0.3513 -0.8138
  507MOL0     C68325   1.986   1.078   4.499  1.0865  0.1592  0.5740
  507MOL0     C68326   1.928   0.934   4.510  0.9753 -0.0824 -0.1892
  507MOL0     N68327   1.880   0.906   4.641 -0.1504  0.7943 -0.9424
  507MOL0     C68328   1.810   0.998   4.713 -0.3400  0.0722 -0.6786
  507MOL0     C68329   1.815   0.951   4.839  0.5604  0.3178 -0.0866
  507MOL0     C68330   1.752   1.027   4.949 -0.0264  0.3112  0.1298
  507MOL0     C68331   1.599   1.009   4.966 -0.0060  0.4793  0.5272
  507MOL0     C68332   1.553   1.064   5.101  0.1173 -0.7949 -0.0386
  507MOL0     C68333   1.403   1.055   5.126 -0.2148  0.7467 -0.6922
  507MOL0     O68334   1.331   1.144   5.032  0.1091  0.8953 -0.4202
  507MOL0     C68335   1.198   1.167   5.047 -0.1028  0.3485 -0.2559
  507MOL0     C68336   1.140   1.263   4.963 -0.5383  0.0810  0.8681
  507MOL0     C68337   1.004   1.280   4.952  0.8592 -0.2055  0.1717
  507MOL0     C68338   0.961   1.392   4.867 -0.0120 -0.8123  0.5538
  507MOL0     C68339   0.920   1.201   5.032 -0.2909  0.4695 -0.2498
  507MOL0     C68340   0.771   1.206   5.029  0.0877 -0.0724  0.2263
  507MOL0     O68341   0.695   1.106   5.085 -0.1709  0.2138 -0.5777
  507MOL0     C68342   0.560   1.110   5.107  0.6876  0.5792 -0.6519
  507MOL0     C68343   0.503   0.999   5.170 -0.0133  0.7972  0.2902
  507MOL0     C68344   0.367   0.988   5.186  0.2510 -0.3251 -0.9408
  507MOL0     C68345   0.275   1.081   5.136 -1.0823 -0.3742 -0.7413
  507MOL0     O68346   0.137   1.072   5.139 -0.6916 -0.1097  0.5862
  507MOL0     C68347   0.071   0.978   5.230  0.3305  0.0835 -0.9060
  507MOL0     C68348  -0.085   0.997   5.222  0.9159 -0.3776  0.5331
  507MOL0     C68349  -0.158   0.864   5.245  0.0212 -0.2038  0.2041
  507MOL0     C68350  -0.310   0.873   5.221 -0.0855 -0.4849  0.0598
  507MOL0     C68351  -0.387   0.806   5.335  0.0348 -0.7886 -0.7721
  507MOL0     C68352  -0.460   0.908   5.422  0.6019  0.1691 -0.8348
  507MOL0     C68353  -0.535   0.831   5.529 -0.0659 -0.5507  0.4182
  507MOL0     C68354  -0.614   0.930   5.624  0.2711 -0.9565  0.9619
  507MOL0    Cl68355  -0.696   0.833   5.752 -0.6090 -0.0236 -0.1015
  507MOL0     C68356   0.334   1.189   5.070  0.4775  0.0293 -0.6454
  507MOL0     C68357   0.467   1.211   5.060 -1.3363  0.4397  0.8440
  507MOL0     O68358   0.726   1.315   5.000  0.1827  0.0296  0.2055
  507MOL0     C68359   0.974   1.102   5.120  0.4508 -0.0955 -0.4684
  507MOL0     C68360   1.114   1.096   5.135 -0.3521  0.5092 -0.5212
  507MOL0     N68361   1.872   0.824   4.837  0.5584  1.1181  0.1420
  507MOL0     N68362   1.919   0.794   4.723 -0.0667 -0.3123  0.0100
  507MOL0     C68363   2.995   0.868   4.423 -1.0920 -0.5932 -0.1645
  507MOL0     C68364   3.113   0.807   4.373  0.0430  0.3338 -0.3095
  507MOL0     C68365   3.506   0.615   4.339  0.7742  0.1625  0.0717
  507MOL0     C68366   3.500   0.480   4.301  0.5069 -0.5776  0.8728
  507MOL0     C68367   3.620   0.403   4.283  0.3276 -0.5482 -0.7381
  507MOL0     C68368   3.745   0.458   4.280  0.6821  0.2683 -0.0135
  507MOL0     O68369   3.868   0.399   4.270 -0.0485  0.2519 -0.2359
  507MOL0     C68370   3.884   0.256   4.263 -0.0793 -0.8425 -0.1314
  507MOL0     C68371   3.873   0.206   4.413 -0.4493 -0.3639 -0.1121
  507MOL0     C68372   3.896   0.058   4.421  0.0183  0.2546  0.3803
  507MOL0     C68373   4.033   0.026   4.478 -0.2356 -0.2251 -0.0068
  507MOL0     C68374   4.042   0.053   4.627  0.6565  0.3665  0.5185
  507MOL0     C68375   4.036   0.073   4.748 -0.0702 -0.0955  0.4136
  507MOL0     C68376   3.750   0.600   4.310 -0.1146  0.1373 -0.5519
  507MOL0     C68377   3.637   0.673   4.347 -0.5441 -0.0514  0.2431
  507MOL0     H68378   3.105   0.513   4.522  1.5604  0.7900 -0.9781
  507MOL0     H68379   2.875   0.620   4.604  0.5416  0.9076  1.5718
  507MOL0     H68380   2.820   1.024   4.497 -1.3508  2.1508 -2.3571
  507MOL0     H68381   2.712   0.927   4.394 -2.8937 -1.2529  1.1178
  507MOL0     H68382   2.617   0.973   4.665  0.5363  0.3714  0.4935
  507MOL0     H68383   2.626   1.117   4.553  1.8210 -0.6149 -1.9520
  507MOL0     H68384   2.474   0.998   4.391 -5.0563  2.2066  1.4286
  507MOL0     H68385   2.471   0.859   4.502 -0.8498  0.0573  0.9988
  507MOL0     H68386   2.377   1.022   4.664 -0.0738  0.5669  0.3205
  507MOL0     H68387   2.390   1.151   4.537 -1.3114  0.1476  1.1929
  507MOL0     H68388   2.226   1.008   4.407  1.9891 -0.7152  0.4503
  507MOL0     H68389   2.219   0.899   4.549  3.4421 -0.6236  0.6847
  507MOL0     H68390   2.110   1.074   4.677  0.3677  1.1108 -0.5056
  507MOL0     H68391   2.152   1.193   4.555  0.0125 -0.1898  1.0995
  507MOL0     H68392   1.927   1.163   4.535  0.9455  0.8324 -1.1247
  507MOL0     H68393   1.999   1.088   4.390 -1.9187 -2.5235 -0.1730
  507MOL0     H68394   1.999   0.859   4.475  1.2235  1.3904 -3.1106
  507MOL0     H68395   1.846   0.913   4.441  0.3876  2.6788 -0.4283
  507MOL0     H68396   1.783   1.093   4.670  0.1544 -0.1838 -1.5707
  507MOL0     H68397   1.807   1.004   5.041  3.2552  0.2546 -1.6885
  507MOL0     H68398   1.771   1.134   4.935  0.6943  0.6429  2.9558
  507MOL0     H68399   1.570   0.903   4.967  0.6139  0.3017  0.7754
  507MOL0     H68400   1.551   1.057   4.881  2.8692 -2.1788 -2.8851
  507MOL0     H68401   1.567   1.172   5.110 -1.5674 -0.6744  1.6987
  507MOL0     H68402   1.603   1.015   5.185  0.1208  1.4518  1.3647
  507MOL0     H68403   1.369   1.077   5.227  2.0212  2.3852 -0.2090
  507MOL0     H68404   1.368   0.953   5.107 -0.9321  0.9655 -0.6028
  507MOL0     H68405   1.206   1.318   4.897 -0.1169 -1.2871  0.1057
  507MOL0     H68406   0.905   1.341   4.788  0.2137 -0.2381  0.0175
  507MOL0     H68407   0.901   1.461   4.927  0.0603 -0.1781 -0.0871
  507MOL0     H68408   1.038   1.454   4.820 -0.7074 -0.4211 -0.1039
  507MOL0     H68409   0.570   0.922   5.206  0.3329  1.5538  1.3105
  507MOL0     H68410   0.324   0.897   5.227 -3.2460  0.5440 -2.3183
  507MOL0     H68411   0.099   0.874   5.212  1.0774  0.1270 -0.0388
  507MOL0     H68412   0.096   0.997   5.334  3.6473  3.3541 -2.0875
  507MOL0     H68413  -0.116   1.065   5.302 -0.3035 -0.4870  0.1624
  507MOL0     H68414  -0.114   1.038   5.125 -1.8414  0.5839  1.6751
  507MOL0     H68415  -0.125   0.841   5.347  1.2182  0.5691  0.0126
  507MOL0     H68416  -0.126   0.785   5.177  3.8622  1.1317  0.2084
  507MOL0     H68417  -0.349   0.974   5.205 -0.8589 -0.5988  1.1563
  507MOL0     H68418  -0.330   0.825   5.125  1.4285 -3.3974  1.1069
  507MOL0     H68419  -0.318   0.742   5.391 -0.9419 -2.5836 -1.5268
  507MOL0     H68420  -0.463   0.737   5.299 -0.3571 -1.3808  1.0791
  507MOL0     H68421  -0.383   0.974   5.464 -0.3270  1.3499 -0.9608
  507MOL0     H68422  -0.517   0.974   5.356  3.4395  3.4669 -0.3098
  507MOL0     H68423  -0.459   0.782   5.590 -1.3600 -1.5349  1.2967
  507MOL0     H68424  -0.608   0.759   5.490  0.7838 -0.8187 -0.7231
  507MOL0     H68425  -0.680   1.000   5.572  0.8862  1.2220  2.9556
  507MOL0     H68426  -0.554   0.995   5.688 -1.9235  1.2745  0.9112
  507MOL0     H68427   0.258   1.264   5.053  1.2558  0.6648 -1.3991
  507MOL0     H68428   0.487   1.296   4.995 -0.6096 -0.2593  0.1410
  507MOL0     H68429   0.920   1.035   5.186 -0.6941  1.4131  0.1738
  507MOL0     H68430   1.145   1.009   5.192  0.0225  1.2760  0.4599
  507MOL0     H68431   2.975   0.971   4.395 -0.8517 -0.4294  0.2483
  507MOL0     H68432   3.175   0.871   4.310 -0.3825 -1.2701 -2.4495
  507MOL0     H68433   3.406   0.428   4.288  0.9920 -0.8529 -2.1665
  507MOL0     H68434   3.604   0.301   4.252  1.0412 -0.4871 -1.3481
  507MOL0     H68435   3.807   0.203   4.206 -0.8212  0.8290 -0.7278
  507MOL0     H68436   3.986   0.236   4.228  0.7423  1.1753  0.9759
  507MOL0     H68437   3.772   0.232   4.446 -1.0210  0.8300 -2.5773
  507MOL0     H68438   3.948   0.260   4.471 -0.2985 -1.4847  0.7764
  507MOL0     H68439   3.900   0.018   4.319  1.5643 -0.8944  0.8454
  507MOL0     H68440   3.808   0.018   4.470  0.6228  1.3957  2.5360
  507MOL0     H68441   4.109   0.088   4.429  0.9277 -2.2441 -0.9013
  507MOL0     H68442   4.065  -0.075   4.452  1.1056  0.1026  0.2555
  507MOL0     H68443   4.018   0.089   4.852 -0.1054  0.9606  0.2593
  507MOL0     H68444   3.841   0.656   4.292  0.4859 -1.2555 -2.1673
  507MOL0     H68445   3.627   0.779   4.365 -0.9872  0.3414 -2.0859
  508MOL0     O68446   9.170   2.351   4.098  0.3315 -0.0584  0.3233
  508MOL0     C68447   9.253   2.382   4.184  0.4422 -0.0236 -0.0455
  508MOL0     O68448   9.232   2.374   4.320 -0.5269 -0.0975 -0.0293
  508MOL0     C68449   9.111   2.340   4.361  0.7912  0.0209 -0.6829
  508MOL0     C68450   9.057   2.213   4.330 -0.1519 -0.0102 -0.4888
  508MOL0     C68451   8.933   2.183   4.387  0.4223  0.0108 -0.0769
  508MOL0     C68452   8.861   2.278   4.460  0.7396 -0.4484  0.5089
  508MOL0     O68453   8.737   2.241   4.492 -0.4692 -0.3296 -0.1678
  508MOL0     C68454   8.733   2.183   4.627  0.9236  0.1971 -0.3305
  508MOL0     C68455   8.594   2.136   4.651  0.2399  0.3955 -0.4653
  508MOL0     C68456   8.555   2.071   4.793 -0.4359  0.0964  0.3605
  508MOL0     C68457   8.413   2.072   4.818 -0.1143 -0.4514 -0.9591
  508MOL0     C68458   8.379   2.013   4.957  0.6582  0.0718 -0.0025
  508MOL0     C68459   8.429   2.093   5.067 -0.2429 -0.7451 -0.0224
  508MOL0     C68460   8.324   2.096   5.174  0.4021 -0.9704 -0.1462
  508MOL0     C68461   8.282   1.947   5.225  0.0289  0.5308  0.8988
  508MOL0     N68462   8.376   1.869   5.304 -0.4187  0.0646 -0.0387
  508MOL0     C68463   8.465   1.913   5.396 -0.2730  0.1131  0.5905
  508MOL0     C68464   8.550   1.813   5.406 -1.1260  0.3815 -0.2560
  508MOL0     C68465   8.667   1.811   5.507  0.1988  0.0658 -0.4845
  508MOL0     C68466   8.797   1.790   5.429  0.0199 -1.1980 -0.5228
  508MOL0     C68467   8.916   1.753   5.516 -0.1400 -0.2942  0.3703
  508MOL0     C68468   8.910   1.631   5.611  0.2104  0.0024 -1.0355
  508MOL0     O68469   9.052   1.602   5.641  0.7258  0.2136 -0.2106
  508MOL0     C68470   9.077   1.515   5.739 -1.1721  0.0659 -0.3880
  508MOL0     C68471   9.214   1.507   5.777  0.7618 -0.0544  1.2771
  508MOL0     C68472   9.258   1.454   5.896 -0.0865 -0.2678  0.9839
  508MOL0     C68473   9.404   1.471   5.930 -0.0570 -0.0756 -0.2729
  508MOL0     C68474   9.170   1.378   5.972  0.7027 -0.0421  0.7202
  508MOL0     C68475   9.209   1.289   6.085 -0.1571  0.1917 -0.7942
  508MOL0     O68476   9.149   1.301   6.206 -0.1689  0.0260  0.1481
  508MOL0     C68477   9.198   1.225   6.308 -0.9366 -0.2340  0.3632
  508MOL0     C68478   9.315   1.271   6.379 -1.1214  0.6030 -0.6947
  508MOL0     C68479   9.376   1.186   6.470  0.6432 -0.6047  0.3084
  508MOL0     C68480   9.320   1.066   6.514  0.2947  0.5272  1.2334
  508MOL0     O68481   9.388   0.995   6.613  0.3180 -0.1969  0.1517
  508MOL0     C68482   9.412   0.859   6.583 -0.2717  0.1603  0.4219
  508MOL0     C68483   9.561   0.840   6.558  0.2120 -0.1412  0.1644
  508MOL0     C68484   9.630   0.824   6.691  0.1513 -0.4423 -0.0160
  508MOL0     C68485   9.785   0.794   6.670 -0.1276  0.5453  0.5634
  508MOL0     C68486   9.876   0.910   6.610  0.7902  0.9390  0.0639
  508MOL0     C68487   9.995   0.864   6.521  0.2531  0.9745  0.1403
  508MOL0     C68488  10.030   0.970   6.418 -0.3053 -0.2945 -0.7910
  508MOL0     C68489  10.086   1.105   6.476  0.2026  0.5323  0.4018
  508MOL0    Cl68490  10.216   1.090   6.598  0.3487  0.1921  0.1720
  508MOL0     C68491   9.189   1.027   6.462 -0.0318  0.1161  0.7129
  508MOL0     C68492   9.142   1.105   6.347  0.0457  0.0030  0.7543
  508MOL0     O68493   9.302   1.213   6.066 -0.3437 -0.6983 -0.3610
  508MOL0     C68494   9.027   1.374   5.932  0.2893 -0.2501  0.0626
  508MOL0     C68495   8.979   1.447   5.820  0.7483 -0.1974 -0.9871
  508MOL0     N68496   8.503   1.701   5.338 -0.0523  0.0306  0.6013
  508MOL0     N68497   8.396   1.735   5.275 -0.3745 -0.1264 -1.1083
  508MOL0     C68498   8.910   2.402   4.478 -0.6604  0.4972  0.3593
  508MOL0     C68499   9.028   2.439   4.427 -0.5225 -0.1425  0.5691
  508MOL0     C68500   9.382   2.417   4.126 -0.0804 -0.7223 -0.2134
  508MOL0     C68501   9.463   2.509   4.194  0.1602 -0.0972 -0.2406
  508MOL0     C68502   9.591   2.539   4.147 -0.6102  0.4429  1.6467
  508MOL0     C68503   9.630   2.494   4.016 -0.1465  0.0135 -0.2080
  508MOL0     O68504   9.744   2.536   3.969 -0.6899  0.3617 -0.3894
  508MOL0     C68505   9.763   2.533   3.826 -0.7663 -0.2505  0.1164
  508MOL0     C68506   9.882   2.621   3.786  0.3334 -0.6539 -0.0038
  508MOL0     C68507   9.821   2.765   3.760  0.1383 -0.1066 -0.9275
  508MOL0     C68508   9.916   2.876   3.731  0.3753  0.1299  0.0623
  508MOL0     C68509  10.027   2.897   3.824  0.4381 -0.0489  0.3148
  508MOL0     C68510  10.120   2.918   3.890 -0.7777 -1.1688  0.1376
  508MOL0     C68511   9.543   2.402   3.949  0.7294  0.3042  0.0992
  508MOL0     C68512   9.418   2.360   4.006 -1.0675 -0.1395  0.3221
  508MOL0     H68513   9.116   2.148   4.266  0.6359  0.3051 -0.0940
  508MOL0     H68514   8.888   2.085   4.370  2.9677 -1.2756  0.0403
  508MOL0     H68515   8.806   2.103   4.643 -0.3213 -0.6903  1.2292
  508MOL0     H68516   8.753   2.262   4.699 -0.1654  1.2978 -1.1917
  508MOL0     H68517   8.530   2.224   4.643  1.2086  0.9565 -3.9144
  508MOL0     H68518   8.559   2.064   4.577 -1.9115  1.0900 -0.1822
  508MOL0     H68519   8.599   1.972   4.806  1.2939  0.7793  0.0074
  508MOL0     H68520   8.607   2.130   4.869 -0.9223 -1.5817  2.0658
  508MOL0     H68521   8.380   2.177   4.821  0.0205 -0.4333  0.4331
  508MOL0     H68522   8.365   2.012   4.740 -0.2025 -0.9062 -0.5591
  508MOL0     H68523   8.271   1.998   4.967  0.8375 -0.3220  1.5442
  508MOL0     H68524   8.427   1.915   4.965 -1.4062 -0.8052  3.7939
  508MOL0     H68525   8.523   2.051   5.104  0.5003 -0.0613 -1.0590
  508MOL0     H68526   8.437   2.198   5.037  0.4783 -0.7795  0.0288
  508MOL0     H68527   8.370   2.151   5.258 -0.0930 -0.3457 -0.2736
  508MOL0     H68528   8.234   2.145   5.136  1.1739  0.3959 -0.2867
  508MOL0     H68529   8.252   1.884   5.141  0.1917 -0.7509  1.7748
  508MOL0     H68530   8.187   1.964   5.278 -0.2046  0.5261  0.4864
  508MOL0     H68531   8.464   2.005   5.453  2.3852  1.2323 -0.9983
  508MOL0     H68532   8.682   1.905   5.563  2.1173  0.2145 -1.1518
  508MOL0     H68533   8.655   1.731   5.580  0.0566  1.7638  1.4501
  508MOL0     H68534   8.819   1.890   5.391 -2.2349 -0.0574  0.9421
  508MOL0     H68535   8.773   1.717   5.351 -2.5077 -1.5145  0.4368
  508MOL0     H68536   8.933   1.844   5.574  0.0017 -0.7543  1.0722
  508MOL0     H68537   9.001   1.736   5.449 -0.9654  2.0504 -1.3763
  508MOL0     H68538   8.862   1.549   5.557  0.0575  1.0709 -2.6101
  508MOL0     H68539   8.861   1.663   5.703  0.8775  0.8592 -0.9623
  508MOL0     H68540   9.294   1.554   5.720  1.5817 -2.8802 -0.0485
  508MOL0     H68541   9.460   1.406   5.863  1.4063  0.7794  0.0815
  508MOL0     H68542   9.436   1.574   5.908 -0.0917 -0.4285 -2.1739
  508MOL0     H68543   9.423   1.454   6.036  2.3547  0.9782 -0.4818
  508MOL0     H68544   9.365   1.363   6.351  0.4756  0.1935  0.6193
  508MOL0     H68545   9.460   1.232   6.522  0.1028  1.4267 -0.5133
  508MOL0     H68546   9.379   0.795   6.666  1.0435 -3.0207 -1.3054
  508MOL0     H68547   9.351   0.837   6.494 -2.5253  3.8738  0.8480
  508MOL0     H68548   9.566   0.749   6.498 -4.0034  0.0132 -0.6920
  508MOL0     H68549   9.590   0.926   6.496 -2.9050  1.3202  0.5552
  508MOL0     H68550   9.590   0.737   6.744  1.2590 -0.2985  1.0878
  508MOL0     H68551   9.615   0.916   6.748  1.6673 -0.2462  0.0984
  508MOL0     H68552   9.821   0.746   6.762  0.0731  0.0825  0.2473
  508MOL0     H68553   9.780   0.716   6.593  0.2400  0.7733  0.3061
  508MOL0     H68554   9.900   0.986   6.686 -1.9587  1.1003  0.8842
  508MOL0     H68555   9.815   0.969   6.542  2.1592 -0.0176 -2.0923
  508MOL0     H68556  10.078   0.831   6.585 -0.7822 -0.4589  0.7981
  508MOL0     H68557   9.968   0.779   6.457  0.1882  0.8665  0.3093
  508MOL0     H68558   9.954   1.011   6.350 -0.9410  1.2842  0.7788
  508MOL0     H68559  10.109   0.932   6.353  0.4535  0.4998 -0.3461
  508MOL0     H68560  10.004   1.160   6.523  0.2875  1.1975 -0.2132
  508MOL0     H68561  10.119   1.164   6.389  1.3046 -1.1265 -0.3581
  508MOL0     H68562   9.121   0.947   6.487  0.6703 -0.6196  0.3217
  508MOL0     H68563   9.050   1.074   6.299  1.0608 -0.1898 -1.1203
  508MOL0     H68564   8.973   1.317   6.006  0.8011  1.0928  1.5226
  508MOL0     H68565   8.872   1.448   5.803  0.5164  0.9405  0.3407
  508MOL0     H68566   8.859   2.469   4.547 -0.8978  0.7108 -0.0130
  508MOL0     H68567   9.067   2.540   4.434 -1.3997  0.5764 -3.1143
  508MOL0     H68568   9.416   2.547   4.284 -1.1356 -0.8813 -0.5570
  508MOL0     H68569   9.655   2.606   4.204 -0.3663  0.9930  0.7444
  508MOL0     H68570   9.798   2.432   3.802 -2.5930 -0.5920 -1.3397
  508MOL0     H68571   9.674   2.553   3.766 -0.2247 -0.9441 -0.9528
  508MOL0     H68572   9.939   2.599   3.695  2.4193 -1.9480  1.5377
  508MOL0     H68573   9.958   2.628   3.864  2.8161 -0.3779 -2.2805
  508MOL0     H68574   9.751   2.802   3.835 -1.7363 -3.0204 -1.0563
  508MOL0     H68575   9.766   2.768   3.665  1.4107  0.9022 -1.6575
  508MOL0     H68576   9.857   2.967   3.743 -2.1155 -1.2948 -0.6804
  508MOL0     H68577   9.953   2.873   3.629  0.5029  3.9094 -0.1446
  508MOL0     H68578  10.211   2.944   3.940 -0.7260 -1.3603  0.1431
  508MOL0     H68579   9.579   2.360   3.855  1.9507  0.7082  0.3741
  508MOL0     H68580   9.358   2.288   3.950  0.4581 -0.5263 -0.8805
  509MOL0     O68581   1.336   6.187   1.589 -0.2880 -0.0551  0.1107
  509MOL0     C68582   1.355   6.294   1.535 -0.0053 -0.4541  0.8923
  509MOL0     O68583   1.274   6.355   1.444 -0.0726 -0.4172 -0.0603
  509MOL0     C68584   1.146   6.305   1.420 -0.0501  0.3372 -0.3196
  509MOL0     C68585   1.119   6.191   1.348 -0.4694 -0.3802  0.4891
  509MOL0     C68586   0.987   6.156   1.332 -1.1324  0.1631  0.0835
  509MOL0     C68587   0.880   6.216   1.393  0.4413  0.7936 -0.3521
  509MOL0     O68588   0.750   6.171   1.378 -0.3168 -0.3427 -0.1633
  509MOL0     C68589   0.656   6.230   1.468 -0.6646  0.6931  0.1782
  509MOL0     C68590   0.526   6.151   1.466  1.0536 -0.0762  0.7294
  509MOL0     C68591   0.429   6.178   1.587  0.8469  0.4870  0.0917
  509MOL0     C68592   0.297   6.101   1.553  0.0529  0.3754 -0.0955
  509MOL0     C68593   0.182   6.152   1.649  0.3371 -0.5244  0.2155
  509MOL0     C68594   0.046   6.086   1.612 -0.8580  0.9085  0.4544
  509MOL0     C68595  -0.053   6.102   1.727  0.3992 -0.1950  0.0036
  509MOL0     C68596  -0.154   5.982   1.741 -0.1559  0.3655  0.3098
  509MOL0     N68597  -0.232   5.989   1.625 -0.1981 -0.0939  0.3085
  509MOL0     C68598  -0.308   6.098   1.588 -0.0231 -0.0201  0.2705
  509MOL0     C68599  -0.373   6.053   1.477 -0.2089  0.6228 -0.3420
  509MOL0     C68600  -0.471   6.133   1.404 -0.0652 -0.5874  0.2713
  509MOL0     C68601  -0.616   6.061   1.390 -0.6848  1.1146  0.6709
  509MOL0     C68602  -0.658   6.029   1.243  0.7960 -0.0730  0.2950
  509MOL0     C68603  -0.802   5.967   1.253  0.1684 -0.0137 -0.4162
  509MOL0     O68604  -0.901   6.066   1.239  0.3862 -0.3602  0.1403
  509MOL0     C68605  -1.036   6.029   1.212 -0.3473 -0.3384 -0.2794
  509MOL0     C68606  -1.114   6.111   1.137  0.5318 -0.3297  0.5637
  509MOL0     C68607  -1.242   6.070   1.095 -0.1230  0.8459 -0.1021
  509MOL0     C68608  -1.321   6.169   1.006 -0.0271 -0.6755 -0.0549
  509MOL0     C68609  -1.298   5.945   1.146  0.6235  0.5383  0.2002
  509MOL0     C68610  -1.432   5.895   1.100  0.0233  0.5688 -0.6778
  509MOL0     O68611  -1.462   5.916   0.973 -0.5319 -0.3777 -0.0666
  509MOL0     C68612  -1.583   5.873   0.925  0.1002 -0.0895  0.7805
  509MOL0     C68613  -1.578   5.768   0.827  0.5851  0.0628  1.0012
  509MOL0     C68614  -1.703   5.715   0.789 -0.3743  0.2144  0.1114
  509MOL0     C68615  -1.831   5.777   0.818 -0.2138  0.8484 -0.2586
  509MOL0     O68616  -1.953   5.736   0.763  0.8796  0.0548 -0.0990
  509MOL0     C68617  -1.974   5.636   0.663 -0.0959 -1.1181  0.0327
  509MOL0     C68618  -1.993   5.493   0.707 -0.5262  0.4602  0.5862
  509MOL0     C68619  -2.062   5.400   0.612  1.3258  0.1583  0.3882
  509MOL0     C68620  -2.210   5.447   0.590  0.6461  0.2176  0.2820
  509MOL0     C68621  -2.300   5.344   0.529  0.2789 -0.2208 -0.3045
  509MOL0     C68622  -2.422   5.421   0.465  0.0338  0.4332  0.4188
  509MOL0     C68623  -2.517   5.311   0.406 -0.0119  0.0320 -0.7490
  509MOL0     C68624  -2.626   5.371   0.322  1.0032 -0.7730 -0.3921
  509MOL0    Cl68625  -2.755   5.258   0.291  0.4275  0.2078  0.4470
  509MOL0     C68626  -1.826   5.875   0.920 -0.4129 -0.4407 -0.2803
  509MOL0     C68627  -1.705   5.925   0.976  0.3936 -0.5669  0.0579
  509MOL0     O68628  -1.490   5.831   1.185  0.1291 -0.0801  0.2759
  509MOL0     C68629  -1.218   5.863   1.232 -0.1154 -0.4151 -0.5397
  509MOL0     C68630  -1.084   5.903   1.264  0.9889 -0.6857  0.7542
  509MOL0     N68631  -0.333   5.921   1.445 -0.6296 -0.8422 -0.0963
  509MOL0     N68632  -0.248   5.888   1.535 -0.6185  0.1493  0.6558
  509MOL0     C68633   0.905   6.338   1.455 -0.0275 -0.0958  0.0511
  509MOL0     C68634   1.039   6.377   1.470 -0.7294 -0.3334 -0.2018
  509MOL0     C68635   1.491   6.339   1.569  0.1350  0.2285  1.1482
  509MOL0     C68636   1.510   6.476   1.580  0.1216  1.1012  0.5046
  509MOL0     C68637   1.631   6.526   1.606 -1.0544  0.7461 -0.5816
  509MOL0     C68638   1.733   6.440   1.646  0.0608  0.3123 -0.7784
  509MOL0     O68639   1.861   6.488   1.673  0.4715 -0.1705  0.7959
  509MOL0     C68640   1.881   6.562   1.794  0.0878  0.1175 -0.3975
  509MOL0     C68641   1.885   6.474   1.924  0.2974 -0.1062 -0.0651
  509MOL0     C68642   1.756   6.499   2.009  0.0576 -0.2368  0.6033
  509MOL0     C68643   1.755   6.442   2.141 -0.5927 -0.2000 -1.3436
  509MOL0     C68644   1.617   6.450   2.204 -0.1295 -0.2678 -0.0848
  509MOL0     C68645   1.509   6.451   2.258 -0.4356 -0.3151  0.7023
  509MOL0     C68646   1.713   6.300   1.652 -0.0466 -0.3681  0.5493
  509MOL0     C68647   1.591   6.252   1.620 -1.3034 -0.0121 -0.0354
  509MOL0     H68648   1.203   6.130   1.317  0.7072  1.6495 -0.5503
  509MOL0     H68649   0.981   6.062   1.278  0.6460 -0.3181  0.6402
  509MOL0     H68650   0.705   6.223   1.565 -0.3512 -1.7095 -0.1159
  509MOL0     H68651   0.621   6.331   1.443 -1.9555 -0.1758 -1.8085
  509MOL0     H68652   0.477   6.169   1.370  1.7255 -0.6322  0.2838
  509MOL0     H68653   0.541   6.043   1.467  1.2213 -0.1377 -1.9764
  509MOL0     H68654   0.473   6.150   1.683 -0.0922 -1.1127  0.0919
  509MOL0     H68655   0.403   6.284   1.592 -0.2785  0.1621  1.4893
  509MOL0     H68656   0.262   6.109   1.449  2.4822 -2.2479 -1.2398
  509MOL0     H68657   0.311   5.993   1.563 -0.9686  0.2441  0.0275
  509MOL0     H68658   0.221   6.148   1.752  0.9795 -2.3024 -0.0522
  509MOL0     H68659   0.167   6.258   1.631  0.4452 -0.0428  2.6619
  509MOL0     H68660   0.004   6.128   1.520 -2.1972  3.3267  2.0426
  509MOL0     H68661   0.074   5.984   1.585 -2.2640 -0.1269  2.6579
  509MOL0     H68662   0.003   6.102   1.821 -0.8060 -1.7909  0.7972
  509MOL0     H68663  -0.101   6.200   1.720  0.1206 -0.3276  0.0300
  509MOL0     H68664  -0.213   5.973   1.833 -3.0249 -2.2874 -1.5606
  509MOL0     H68665  -0.082   5.900   1.744  0.5897  0.9976  0.1644
  509MOL0     H68666  -0.315   6.194   1.639  1.0563 -1.0081  2.3998
  509MOL0     H68667  -0.490   6.226   1.458  1.0444  0.1003 -0.4867
  509MOL0     H68668  -0.421   6.153   1.309  0.4841  0.5672  0.7819
  509MOL0     H68669  -0.691   6.125   1.437  2.3905  3.9321  2.1938
  509MOL0     H68670  -0.614   5.965   1.442 -0.3876  0.7284 -0.0336
  509MOL0     H68671  -0.587   5.959   1.196  1.8007 -0.0410  1.6843
  509MOL0     H68672  -0.654   6.115   1.176 -3.4593 -1.1731 -1.7246
  509MOL0     H68673  -0.804   5.910   1.347  2.4051  2.5955  1.3621
  509MOL0     H68674  -0.826   5.897   1.172 -2.6054 -0.1939  0.4580
  509MOL0     H68675  -1.083   6.203   1.089  1.0579  0.8166  2.9599
  509MOL0     H68676  -1.295   6.146   0.903  1.0722 -0.7592  0.2312
  509MOL0     H68677  -1.427   6.148   1.026  0.5258 -3.6394  0.2216
  509MOL0     H68678  -1.294   6.270   1.039 -2.6972 -0.4262  1.6941
  509MOL0     H68679  -1.483   5.740   0.783 -0.8817 -0.5284 -2.0782
  509MOL0     H68680  -1.692   5.636   0.715 -1.3414 -0.2306  0.4347
  509MOL0     H68681  -2.068   5.674   0.623  0.5484  1.8204  1.0643
  509MOL0     H68682  -1.906   5.634   0.577 -0.9375  1.2039 -0.7768
  509MOL0     H68683  -1.900   5.449   0.745  1.1330  2.4698 -0.9110
  509MOL0     H68684  -2.060   5.499   0.794 -1.2621 -3.4683  0.4541
  509MOL0     H68685  -2.062   5.303   0.661  0.2605 -0.2023 -0.2868
  509MOL0     H68686  -2.014   5.384   0.515 -0.0073  0.3859 -0.3454
  509MOL0     H68687  -2.264   5.468   0.682 -1.7176  0.2012 -1.0379
  509MOL0     H68688  -2.210   5.538   0.530 -2.8715  0.8296  1.0398
  509MOL0     H68689  -2.331   5.266   0.599 -0.3727  0.3225  0.0184
  509MOL0     H68690  -2.252   5.284   0.450 -0.4944 -1.8805  0.4446
  509MOL0     H68691  -2.466   5.480   0.546  0.9473 -0.9197  1.9569
  509MOL0     H68692  -2.389   5.494   0.390 -0.0263 -0.0254 -0.0566
  509MOL0     H68693  -2.573   5.267   0.488 -3.8291  2.2158 -1.9343
  509MOL0     H68694  -2.462   5.224   0.368  0.9008 -0.1920  0.9858
  509MOL0     H68695  -2.580   5.405   0.229  0.1765  3.0914  0.4154
  509MOL0     H68696  -2.673   5.460   0.364  1.2012  0.0292 -1.8123
  509MOL0     H68697  -1.926   5.911   0.943 -0.5869 -0.6441 -0.7146
  509MOL0     H68698  -1.706   5.998   1.056 -4.1976  0.1456 -0.4059
  509MOL0     H68699  -1.251   5.766   1.268  0.0460  0.4879  2.2849
  509MOL0     H68700  -1.037   5.831   1.330 -0.9581 -0.4412  2.4979
  509MOL0     H68701   0.838   6.410   1.500  1.2996 -0.0111  1.9874
  509MOL0     H68702   1.068   6.465   1.527 -1.1019  1.5930 -2.7877
  509MOL0     H68703   1.439   6.533   1.521  0.9819 -0.3317 -2.0729
  509MOL0     H68704   1.640   6.632   1.584  2.4710  0.6838  0.0137
  509MOL0     H68705   1.978   6.613   1.793 -0.5759  1.5077  0.7576
  509MOL0     H68706   1.803   6.639   1.808 -0.0865  0.2236 -1.7667
  509MOL0     H68707   1.965   6.516   1.985  0.3749  2.9676 -2.0595
  509MOL0     H68708   1.907   6.370   1.896 -1.9907 -0.6822  0.0862
  509MOL0     H68709   1.678   6.452   1.948  1.5013 -1.8410 -0.0795
  509MOL0     H68710   1.735   6.607   2.015  2.9901  0.3494  2.4989
  509MOL0     H68711   1.828   6.492   2.206 -1.5304 -1.3724  0.6998
  509MOL0     H68712   1.783   6.336   2.143 -0.7520 -0.2531  1.6488
  509MOL0     H68713   1.414   6.456   2.307 -0.5474  2.7116  0.3627
  509MOL0     H68714   1.801   6.250   1.693 -0.0745 -0.6304  0.2913
  509MOL0     H68715   1.574   6.146   1.640  2.9097 -0.8696  0.0330
  510MOL0     O68716   4.330   1.946   6.900 -0.4569 -0.3257  0.2860
  510MOL0     C68717   4.389   1.838   6.885  1.1228 -0.5759 -0.0816
  510MOL0     O68718   4.335   1.715   6.850 -0.0868  0.1206  0.1855
  510MOL0     C68719   4.203   1.717   6.828 -0.3312 -0.1858 -0.5029
  510MOL0     C68720   4.120   1.663   6.932 -0.2052 -0.8445  0.0428
  510MOL0     C68721   3.987   1.659   6.914 -0.3628 -0.0892  0.2837
  510MOL0     C68722   3.926   1.705   6.796  0.4428  0.4718  0.0164
  510MOL0     O68723   3.791   1.716   6.782 -0.1508 -0.9073  0.2261
  510MOL0     C68724   3.708   1.667   6.882  0.3013  0.2060  0.3032
  510MOL0     C68725   3.565   1.678   6.846 -0.3621  0.2130  0.8134
  510MOL0     C68726   3.490   1.614   6.960 -0.0274  0.0399 -0.4999
  510MOL0     C68727   3.342   1.607   6.913  0.3401 -0.2772 -0.1317
  510MOL0     C68728   3.260   1.558   7.035 -0.3299 -0.1968  0.2511
  510MOL0     C68729   3.122   1.516   6.979 -0.7384  0.3523 -0.3479
  510MOL0     C68730   3.027   1.476   7.094  0.7004  0.6797  0.8287
  510MOL0     C68731   2.974   1.594   7.172  0.6523 -0.5937  0.0660
  510MOL0     N68732   2.871   1.671   7.096  0.1158  0.4459  0.6199
  510MOL0     C68733   2.760   1.605   7.045 -0.4093 -1.0878  0.2177
  510MOL0     C68734   2.716   1.692   6.947  0.3466 -0.5858 -0.2382
  510MOL0     C68735   2.601   1.679   6.852 -0.1489 -0.0871  0.0303
  510MOL0     C68736   2.489   1.780   6.887 -0.0974 -0.3406  0.2065
  510MOL0     C68737   2.356   1.759   6.794 -0.4603 -0.7807  0.4106
  510MOL0     C68738   2.272   1.645   6.835 -0.4132  0.1537  0.1609
  510MOL0     O68739   2.244   1.620   6.976  0.1202  0.3798  0.4799
  510MOL0     C68740   2.126   1.665   7.034 -0.1433  0.6181 -0.1242
  510MOL0     C68741   2.119   1.685   7.170  0.2045 -0.4568 -0.1199
  510MOL0     C68742   1.997   1.706   7.235  0.3797  0.2363 -0.1873
  510MOL0     C68743   2.000   1.708   7.396 -0.0075  0.2359  0.2526
  510MOL0     C68744   1.877   1.711   7.156 -0.2619  0.6935 -0.7743
  510MOL0     C68745   1.753   1.757   7.205  0.5743 -1.0258  0.0618
  510MOL0     O68746   1.642   1.748   7.115  0.5167 -0.6942 -0.1375
  510MOL0     C68747   1.511   1.769   7.157 -0.2946 -0.5968  0.5886
  510MOL0     C68748   1.474   1.732   7.288 -0.1568 -0.9032 -0.8122
  510MOL0     C68749   1.343   1.754   7.330  0.2133  0.4275  0.0289
  510MOL0     C68750   1.252   1.823   7.244  0.2728  0.0900  0.4004
  510MOL0     O68751   1.122   1.835   7.283 -0.9897  0.2997  0.1018
  510MOL0     C68752   1.099   1.909   7.409 -0.1718 -0.9991  0.6329
  510MOL0     C68753   0.951   1.908   7.439  0.7938 -0.3709 -0.1942
  510MOL0     C68754   0.858   2.008   7.362 -0.0431  0.4415  0.7251
  510MOL0     C68755   0.712   1.962   7.366 -0.7098  0.5442  0.7396
  510MOL0     C68756   0.617   2.058   7.306  0.0133 -0.6888  0.7953
  510MOL0     C68757   0.480   1.983   7.267 -0.0467  0.6284  0.2762
  510MOL0     C68758   0.373   2.082   7.237  0.7559 -0.8146  0.2151
  510MOL0     C68759   0.316   2.152   7.357 -0.5563  0.0163  0.3578
  510MOL0    Cl68760   0.177   2.261   7.319 -0.0546  0.2050  0.5668
  510MOL0     C68761   1.290   1.859   7.113  0.4490  0.0269  0.1864
  510MOL0     C68762   1.414   1.821   7.068  0.2549  0.5277 -0.9660
  510MOL0     O68763   1.749   1.808   7.317  0.2184 -0.6237 -0.1658
  510MOL0     C68764   1.882   1.697   7.026  0.0907 -0.9858  0.8313
  510MOL0     C68765   2.005   1.666   6.959 -0.3263  0.0931 -0.2516
  510MOL0     N68766   2.803   1.790   6.919 -0.1063 -0.2139  0.5320
  510MOL0     N68767   2.896   1.774   7.007  0.2653 -0.7680 -0.0423
  510MOL0     C68768   4.006   1.762   6.693  0.0309  0.0425 -0.0993
  510MOL0     C68769   4.145   1.753   6.703  0.3961  0.4547 -0.4251
  510MOL0     C68770   4.540   1.825   6.912  0.2043 -0.3855  0.3607
  510MOL0     C68771   4.611   1.706   6.938 -0.0357 -0.0427 -0.3014
  510MOL0     C68772   4.747   1.717   6.969  0.0822  0.2336  0.5979
  510MOL0     C68773   4.820   1.835   6.971  0.3948  0.7461  0.1813
  510MOL0     O68774   4.957   1.823   6.994 -0.3351  0.3915  0.0216
  510MOL0     C68775   5.046   1.945   6.990  0.5459  0.0606 -0.0723
  510MOL0     C68776   5.197   1.919   7.018 -0.2375 -0.0814  0.1413
  510MOL0     C68777   5.269   1.852   6.895  0.7062  0.1772  0.3624
  510MOL0     C68778   5.413   1.866   6.901  0.5850  0.1494  0.2986
  510MOL0     C68779   5.463   1.799   7.020  0.0187 -0.7070  0.0461
  510MOL0     C68780   5.501   1.751   7.128 -0.3523  0.7521  0.0339
  510MOL0     C68781   4.749   1.951   6.954  0.5152  0.2066  0.5622
  510MOL0     C68782   4.615   1.949   6.931  0.4944 -0.2529  1.1123
  510MOL0     H68783   4.167   1.627   7.024  0.3121 -1.6695 -0.5311
  510MOL0     H68784   3.930   1.631   7.001 -1.6863  2.5804  0.3483
  510MOL0     H68785   3.741   1.565   6.904  3.9329  1.3642  1.0041
  510MOL0     H68786   3.729   1.736   6.964  0.5741  1.0259 -0.4309
  510MOL0     H68787   3.528   1.775   6.813 -0.8986 -0.3965 -0.4452
  510MOL0     H68788   3.559   1.611   6.760 -0.7003 -0.2643  1.2002
  510MOL0     H68789   3.537   1.517   6.977 -0.0990 -0.3513 -2.3093
  510MOL0     H68790   3.499   1.672   7.052  1.0143 -1.8638  0.6510
  510MOL0     H68791   3.300   1.699   6.871 -3.1106 -1.3034  0.7424
  510MOL0     H68792   3.334   1.521   6.846  1.9911 -0.6207  0.0661
  510MOL0     H68793   3.307   1.469   7.078 -2.5057 -1.9860 -0.8720
  510MOL0     H68794   3.263   1.635   7.112  3.6575  0.1546 -0.0257
  510MOL0     H68795   3.066   1.593   6.925  0.5785  1.0953 -0.6767
  510MOL0     H68796   3.141   1.442   6.901 -0.9793  1.7476 -1.7863
  510MOL0     H68797   2.943   1.428   7.042  1.5491  1.8949 -1.8586
  510MOL0     H68798   3.080   1.407   7.159  0.9285 -1.0875 -1.1283
  510MOL0     H68799   3.058   1.659   7.198  1.1461  0.2611 -3.2357
  510MOL0     H68800   2.930   1.562   7.266  0.6546  0.7594  0.5593
  510MOL0     H68801   2.728   1.510   7.087 -4.2667 -0.7783 -1.5180
  510MOL0     H68802   2.635   1.690   6.749 -0.4425 -0.9705 -0.1763
  510MOL0     H68803   2.542   1.588   6.869 -3.6965  2.1479  0.4929
  510MOL0     H68804   2.530   1.879   6.867  0.0583 -0.9170 -2.8304
  510MOL0     H68805   2.462   1.773   6.993  0.7020  1.2395  0.5403
  510MOL0     H68806   2.384   1.763   6.688 -1.2982 -4.1459 -0.0382
  510MOL0     H68807   2.293   1.844   6.820 -1.7318 -1.3273 -0.8043
  510MOL0     H68808   2.331   1.561   6.798  0.6099  1.1450 -0.5339
  510MOL0     H68809   2.181   1.658   6.775 -0.1189 -2.5834 -1.0113
  510MOL0     H68810   2.210   1.681   7.229 -0.2804 -3.4587  0.6158
  510MOL0     H68811   2.090   1.649   7.418 -0.9928 -1.9523 -1.2303
  510MOL0     H68812   2.010   1.811   7.432 -2.3318  0.2936  0.8791
  510MOL0     H68813   1.912   1.664   7.444  1.9188 -0.8609  3.0432
  510MOL0     H68814   1.546   1.701   7.363  1.1088  1.8992 -0.7140
  510MOL0     H68815   1.311   1.716   7.426 -0.2470 -2.7525 -1.2546
  510MOL0     H68816   1.153   1.858   7.490  2.6148 -0.4726 -0.7806
  510MOL0     H68817   1.141   2.008   7.390 -0.5608 -1.1278 -1.0745
  510MOL0     H68818   0.916   1.806   7.420 -0.8864  0.1846 -0.2006
  510MOL0     H68819   0.962   1.934   7.544  0.9236 -2.4058  0.3411
  510MOL0     H68820   0.885   1.982   7.259  1.6662  0.9049  1.0236
  510MOL0     H68821   0.879   2.112   7.386  2.9356 -0.3099  1.7941
  510MOL0     H68822   0.719   1.870   7.306 -0.3986  1.8323 -1.2761
  510MOL0     H68823   0.669   1.938   7.464 -0.8900  1.2335  0.8331
  510MOL0     H68824   0.665   2.102   7.218 -1.4730  1.6125  1.0509
  510MOL0     H68825   0.592   2.136   7.378 -0.9937  0.1623 -0.4397
  510MOL0     H68826   0.501   1.924   7.177 -0.3318  0.8077  0.0910
  510MOL0     H68827   0.454   1.908   7.342 -0.2665  0.5839  0.1562
  510MOL0     H68828   0.295   2.030   7.180  1.3581 -0.5516 -0.8807
  510MOL0     H68829   0.399   2.161   7.167 -1.6291  0.1813  0.3764
  510MOL0     H68830   0.389   2.206   7.418 -0.7838 -0.9954  1.5826
  510MOL0     H68831   0.292   2.073   7.429  3.8114 -1.7065  0.1880
  510MOL0     H68832   1.221   1.917   7.052 -0.5981 -2.1427 -0.7932
  510MOL0     H68833   1.445   1.847   6.967 -0.5926  3.4393 -0.5914
  510MOL0     H68834   1.799   1.714   6.957 -0.2479  1.1290  1.6805
  510MOL0     H68835   2.005   1.634   6.855 -1.1529 -0.5696 -0.0572
  510MOL0     H68836   3.955   1.811   6.611 -1.5085 -2.1665 -0.5569
  510MOL0     H68837   4.216   1.795   6.632  2.6952 -0.5714  1.1531
  510MOL0     H68838   4.563   1.609   6.935  2.2245 -1.4336  2.8156
  510MOL0     H68839   4.789   1.617   6.979 -1.9105 -0.6638  0.4196
  510MOL0     H68840   5.034   2.004   6.899 -0.4305 -0.6112 -0.3933
  510MOL0     H68841   5.026   2.017   7.070  0.7049  0.2770 -0.2261
  510MOL0     H68842   5.198   1.850   7.103  0.2441 -0.5486 -0.2381
  510MOL0     H68843   5.250   2.012   7.041 -2.7768  1.4737  0.0466
  510MOL0     H68844   5.237   1.907   6.806 -0.7952 -3.3275 -1.5135
  510MOL0     H68845   5.245   1.746   6.878  2.1476 -0.0619 -0.3610
  510MOL0     H68846   5.436   1.973   6.904  1.0783  0.0709 -0.4006
  510MOL0     H68847   5.455   1.825   6.809  1.5030 -2.6129  1.8191
  510MOL0     H68848   5.542   1.731   7.224 -0.5814 -2.1007 -0.3878
  510MOL0     H68849   4.801   2.045   6.946  0.4783  0.0811 -1.6306
  510MOL0     H68850   4.565   2.041   6.901  0.7717 -1.3935 -3.6731
  511MOL0     O68851   8.435   9.258   4.312  0.2171  0.0210  0.3464
  511MOL0     C68852   8.449   9.267   4.432 -0.2253  0.6121 -0.3175
  511MOL0     O68853   8.377   9.351   4.513 -0.4256 -0.8008 -0.0944
  511MOL0     C68854   8.296   9.449   4.460 -0.4663  0.1708 -0.4952
  511MOL0     C68855   8.311   9.593   4.476  0.4596  0.0465  0.0040
  511MOL0     C68856   8.213   9.683   4.427  0.4472 -0.7626  0.2118
  511MOL0     C68857   8.103   9.641   4.348  0.2326  0.5434 -0.3078
  511MOL0     O68858   8.020   9.737   4.295 -0.1246  0.8704 -0.9475
  511MOL0     C68859   7.924   9.711   4.206 -0.1435 -0.3910  1.3985
  511MOL0     C68860   7.800   9.685   4.287  0.1756 -0.9892 -0.5614
  511MOL0     C68861   7.671   9.708   4.204 -0.1873  0.9707 -1.0864
  511MOL0     C68862   7.558   9.672   4.298  0.5010 -0.2672  0.2492
  511MOL0     C68863   7.412   9.662   4.241  0.6114 -0.5592 -0.2744
  511MOL0     C68864   7.304   9.666   4.350  0.3121  0.1605  1.3527
  511MOL0     C68865   7.165   9.642   4.276 -0.3337  0.3349  0.3947
  511MOL0     C68866   7.062   9.651   4.388  0.2365  0.7074  0.1176
  511MOL0     N68867   7.039   9.792   4.433  0.1998  0.9010  0.3484
  511MOL0     C68868   6.959   9.877   4.363  0.5997  0.7512 -0.5174
  511MOL0     C68869   6.954   9.983   4.445 -1.0895  0.5710  1.4324
  511MOL0     C68870   6.901  10.109   4.391  0.0069 -0.0147 -0.8830
  511MOL0     C68871   6.748  10.103   4.399 -0.3347 -0.1633 -0.4169
  511MOL0     C68872   6.691  10.233   4.365  0.7720 -0.1213  0.1787
  511MOL0     C68873   6.538  10.225   4.379 -0.1957 -0.0857  0.4309
  511MOL0     O68874   6.478  10.356   4.361 -0.1058  0.6586 -0.5451
  511MOL0     C68875   6.338  10.357   4.371 -0.8305  0.2960  0.0268
  511MOL0     C68876   6.297  10.483   4.352  0.2807  0.2727  0.1078
  511MOL0     C68877   6.160  10.516   4.342  0.2744  0.1051  0.1456
  511MOL0     C68878   6.131  10.661   4.302 -0.1683  0.4848  0.8978
  511MOL0     C68879   6.063  10.416   4.356 -0.4601  0.6391  0.0425
  511MOL0     C68880   5.920  10.437   4.335  0.4207 -0.3115 -0.1284
  511MOL0     O68881   5.872  10.560   4.359 -0.0543 -0.2614 -0.0737
  511MOL0     C68882   5.750  10.595   4.308  0.6166  0.1011 -0.5150
  511MOL0     C68883   5.716  10.622   4.175 -0.2531 -0.5318 -0.4914
  511MOL0     C68884   5.577  10.654   4.146  0.1981 -0.0246 -0.0658
  511MOL0     C68885   5.475  10.649   4.251 -1.2264 -0.6221 -0.3160
  511MOL0     O68886   5.345  10.677   4.209 -0.5635  0.5905 -0.7403
  511MOL0     C68887   5.235  10.685   4.297 -0.7088  0.0970 -0.7871
  511MOL0     C68888   5.114  10.722   4.213 -0.5102  0.3657  0.4647
  511MOL0     C68889   4.980  10.713   4.281 -0.0083  0.1964 -0.0522
  511MOL0     C68890   4.859  10.764   4.191  0.3533  0.2019 -0.9892
  511MOL0     C68891   4.726  10.742   4.251 -0.0422  0.6237 -0.0860
  511MOL0     C68892   4.611  10.780   4.154  0.7072 -0.3582  0.5661
  511MOL0     C68893   4.482  10.718   4.209  0.4120  0.9054  0.0233
  511MOL0     C68894   4.358  10.741   4.119  0.4523 -0.4186 -0.4485
  511MOL0    Cl68895   4.344  10.915   4.066  0.4704 -0.1283 -0.6147
  511MOL0     C68896   5.515  10.611   4.377  0.8515  0.6273  0.4359
  511MOL0     C68897   5.649  10.587   4.408 -0.5438  0.0825 -0.6809
  511MOL0     O68898   5.864  10.346   4.271  0.6883  0.1868 -0.1808
  511MOL0     C68899   6.109  10.286   4.386  0.7301  0.3968  0.2550
  511MOL0     C68900   6.244  10.258   4.387  0.3245  0.4581 -0.3533
  511MOL0     N68901   7.038   9.965   4.551  0.6572  0.4894  0.0606
  511MOL0     N68902   7.094   9.845   4.542  0.0584 -0.3192  0.0163
  511MOL0     C68903   8.101   9.502   4.316  0.1521 -0.6694 -0.2140
  511MOL0     C68904   8.184   9.406   4.387  1.4801 -0.6780  0.6485
  511MOL0     C68905   8.567   9.200   4.495  0.0876 -0.5566 -0.3811
  511MOL0     C68906   8.624   9.095   4.419 -0.3338  0.3675  0.0165
  511MOL0     C68907   8.727   9.013   4.476 -0.2255 -0.4732 -0.0962
  511MOL0     C68908   8.767   9.038   4.608  0.2921 -0.7363 -0.2673
  511MOL0     O68909   8.859   8.972   4.675 -0.6750  0.3818 -0.5781
  511MOL0     C68910   8.927   8.869   4.598 -0.0425  0.0987  0.1140
  511MOL0     C68911   9.038   8.822   4.694  0.0099  0.1388  0.0259
  511MOL0     C68912   9.110   8.697   4.636  0.8085  0.3328 -0.1608
  511MOL0     C68913   9.226   8.662   4.723 -0.6368  1.3746  0.0489
  511MOL0     C68914   9.193   8.607   4.855 -0.6901 -0.1701  0.4240
  511MOL0     C68915   9.157   8.593   4.967  0.3409  0.0817 -0.6783
  511MOL0     C68916   8.720   9.155   4.666 -0.5595 -0.6391  0.5181
  511MOL0     C68917   8.615   9.233   4.626  0.3464  0.5162  0.3324
  511MOL0     H68918   8.399   9.637   4.522 -0.7892  3.8825 -0.9115
  511MOL0     H68919   8.217   9.789   4.452  3.5940 -0.4898 -0.9939
  511MOL0     H68920   7.913   9.795   4.137  0.2007 -1.3286  0.1566
  511MOL0     H68921   7.946   9.628   4.138 -1.2968 -0.2933  0.8888
  511MOL0     H68922   7.807   9.586   4.332  1.8626 -0.1793  1.0627
  511MOL0     H68923   7.804   9.761   4.365  0.9302  0.7676 -2.2251
  511MOL0     H68924   7.656   9.813   4.177  1.7199  1.8236  0.8052
  511MOL0     H68925   7.662   9.647   4.113  0.1268 -0.0391 -0.4599
  511MOL0     H68926   7.574   9.569   4.333 -1.6654 -0.4069  1.0115
  511MOL0     H68927   7.566   9.729   4.391  1.9499 -1.1237  0.6762
  511MOL0     H68928   7.404   9.754   4.182 -0.0950 -1.5889 -1.8397
  511MOL0     H68929   7.399   9.576   4.175  0.9892  0.1703 -1.3317
  511MOL0     H68930   7.326   9.589   4.424 -0.1416 -3.2438 -1.7848
  511MOL0     H68931   7.315   9.764   4.399  1.1223  0.8179 -0.0684
  511MOL0     H68932   7.161   9.716   4.195 -2.0249 -0.2542 -0.0919
  511MOL0     H68933   7.159   9.541   4.235 -2.8141  1.6167 -2.7916
  511MOL0     H68934   7.091   9.585   4.471  0.0657  0.3423 -0.1120
  511MOL0     H68935   6.964   9.622   4.348  0.0741 -1.4238  1.8334
  511MOL0     H68936   6.911   9.876   4.266 -1.8033  1.6670  0.5837
  511MOL0     H68937   6.925  10.177   4.473  3.0510 -2.8897  0.8746
  511MOL0     H68938   6.951  10.136   4.298 -0.6581 -1.5494 -1.7315
  511MOL0     H68939   6.716  10.081   4.501 -2.9786  1.1165 -0.8830
  511MOL0     H68940   6.707  10.024   4.334 -1.4268  1.2793 -1.5463
  511MOL0     H68941   6.710  10.252   4.259  0.9218 -2.5387 -0.2927
  511MOL0     H68942   6.734  10.310   4.430 -0.8331  0.6658  0.3449
  511MOL0     H68943   6.522  10.193   4.482  2.4135 -2.8577  0.1237
  511MOL0     H68944   6.494  10.152   4.310 -0.1312 -0.3853  0.7053
  511MOL0     H68945   6.367  10.566   4.346 -0.2023  0.7206  0.5911
  511MOL0     H68946   6.039  10.655   4.243  1.6236  1.7847 -2.3041
  511MOL0     H68947   6.125  10.728   4.388 -0.4572  0.8343  0.6084
  511MOL0     H68948   6.203  10.692   4.225  0.0491 -3.3069 -0.6598
  511MOL0     H68949   5.786  10.623   4.091 -0.1732 -0.0589 -0.4195
  511MOL0     H68950   5.550  10.682   4.045 -0.8056 -0.5245  0.0475
  511MOL0     H68951   5.221  10.589   4.347 -1.9809  0.8110  0.2999
  511MOL0     H68952   5.261  10.767   4.365 -0.2800  0.2010 -1.0712
  511MOL0     H68953   5.121  10.815   4.157  1.6491  0.0988  0.2024
  511MOL0     H68954   5.108  10.650   4.131  0.9033  2.7027 -1.8334
  511MOL0     H68955   4.982  10.768   4.375  0.4229 -0.1698  0.1606
  511MOL0     H68956   4.948  10.610   4.302 -0.7506  0.7310  1.6344
  511MOL0     H68957   4.878  10.871   4.175  1.0458  0.0741 -1.0616
  511MOL0     H68958   4.851  10.719   4.092  1.0081  0.7418 -1.2970
  511MOL0     H68959   4.722  10.795   4.347 -2.3627 -1.9051  1.3631
  511MOL0     H68960   4.714  10.635   4.266 -0.8843  1.0799  3.4935
  511MOL0     H68961   4.597  10.889   4.157  0.1154 -0.3782 -0.6327
  511MOL0     H68962   4.618  10.739   4.052 -2.6004 -1.0620  0.5114
  511MOL0     H68963   4.455  10.755   4.308 -3.3420  1.1078 -0.9435
  511MOL0     H68964   4.498  10.611   4.220  1.2806  1.1880  1.7419
  511MOL0     H68965   4.271  10.703   4.173 -2.6691  0.6571 -4.2886
  511MOL0     H68966   4.369  10.690   4.023 -1.4181  1.7966 -1.9222
  511MOL0     H68967   5.447  10.608   4.462  0.7600  0.2727  0.3495
  511MOL0     H68968   5.659  10.555   4.511  2.4295  1.1191 -0.5527
  511MOL0     H68969   6.035  10.208   4.399  0.8694 -0.1666 -2.0442
  511MOL0     H68970   6.287  10.159   4.401  4.0662  2.0441  0.7702
  511MOL0     H68971   8.028   9.451   4.254  1.1233 -3.4121  0.7217
  511MOL0     H68972   8.160   9.303   4.362 -2.4971  0.2149  0.0851
  511MOL0     H68973   8.602   9.075   4.315  1.1037  0.8970 -0.4162
  511MOL0     H68974   8.752   8.927   4.415 -0.8126 -0.5187 -0.2825
  511MOL0     H68975   8.863   8.788   4.562  1.2126 -2.1576  2.6590
  511MOL0     H68976   8.969   8.914   4.507  1.4435 -0.6517  0.4078
  511MOL0     H68977   8.998   8.800   4.793 -1.3089 -0.6927 -0.6665
  511MOL0     H68978   9.107   8.907   4.699 -1.4287  1.4105 -0.6616
  511MOL0     H68979   9.152   8.717   4.537 -0.9685  2.6188 -0.5481
  511MOL0     H68980   9.039   8.615   4.625 -0.4402  1.0405  1.9237
  511MOL0     H68981   9.292   8.748   4.738 -0.5277  0.8749  2.9925
  511MOL0     H68982   9.280   8.586   4.665 -2.2595  0.5478 -0.4410
  511MOL0     H68983   9.146   8.583   5.073 -1.6321 -2.6889 -1.0349
  511MOL0     H68984   8.746   9.192   4.765  1.2889  1.8545 -0.7944
  511MOL0     H68985   8.578   9.315   4.687  1.5928 -0.6752  2.8396
  512MOL0     O68986   4.344   4.181   4.438 -0.0625 -0.0618  0.4973
  512MOL0     C68987   4.246   4.108   4.428 -0.0499  0.1201  0.0898
  512MOL0     O68988   4.120   4.145   4.384  0.6065 -0.6224  0.1873
  512MOL0     C68989   4.097   4.277   4.355  0.3399  0.5212  0.6230
  512MOL0     C68990   3.986   4.340   4.406 -0.4929  0.2769  0.8473
  512MOL0     C68991   3.959   4.475   4.375 -0.6418 -1.0415 -0.2643
  512MOL0     C68992   4.042   4.547   4.290  1.3041  0.2674 -0.4335
  512MOL0     O68993   4.003   4.679   4.265 -0.1430  1.0464 -0.3105
  512MOL0     C68994   4.110   4.776   4.267  0.4479 -0.2702 -0.4943
  512MOL0     C68995   4.069   4.925   4.272  0.1091  0.1623 -0.6177
  512MOL0     C68996   3.981   4.950   4.395 -0.8735  0.2012  0.3589
  512MOL0     C68997   3.938   5.093   4.408  0.1531  0.2413 -0.4410
  512MOL0     C68998   3.851   5.110   4.526 -0.5656  0.2256 -0.3252
  512MOL0     C68999   3.718   5.054   4.496 -0.3809 -0.3794  0.6904
  512MOL0     C69000   3.614   5.104   4.599 -0.7800 -0.0817 -0.2201
  512MOL0     C69001   3.511   4.998   4.608  0.5223 -0.2828 -1.1793
  512MOL0     N69002   3.402   5.038   4.697 -0.7281 -0.1485  0.1473
  512MOL0     C69003   3.303   5.127   4.668 -0.3166 -0.0427 -0.4463
  512MOL0     C69004   3.222   5.123   4.777 -0.0217 -0.2965  0.1576
  512MOL0     C69005   3.112   5.216   4.791 -0.5751  0.8328  0.3900
  512MOL0     C69006   3.029   5.192   4.915 -0.6495  0.6128 -0.2864
  512MOL0     C69007   2.880   5.251   4.898 -0.6077  0.6858  0.1015
  512MOL0     C69008   2.794   5.158   4.813 -0.4325 -1.0789 -0.3818
  512MOL0     O69009   2.658   5.196   4.817 -0.3870  1.2402 -0.1289
  512MOL0     C69010   2.570   5.131   4.734 -0.4384  0.6738 -0.2078
  512MOL0     C69011   2.605   5.023   4.650 -0.6386  0.0204  0.0842
  512MOL0     C69012   2.512   4.956   4.568 -0.4780 -0.4076  0.5060
  512MOL0     C69013   2.573   4.824   4.500 -0.1991 -0.8230 -0.2926
  512MOL0     C69014   2.382   5.010   4.545 -0.6459 -0.0106 -0.2277
  512MOL0     C69015   2.285   4.947   4.455  0.1474 -0.2453  0.3417
  512MOL0     O69016   2.159   4.988   4.470  0.4205  0.1220 -0.3440
  512MOL0     C69017   2.055   4.955   4.388 -0.1058  0.2619 -0.5022
  512MOL0     C69018   1.951   4.874   4.432 -0.1030  1.2245  0.5035
  512MOL0     C69019   1.844   4.845   4.352  1.0014 -0.3881  0.0708
  512MOL0     C69020   1.824   4.897   4.220  0.3358  0.4148 -0.0786
  512MOL0     O69021   1.716   4.847   4.155  0.1487  0.0386 -0.3913
  512MOL0     C69022   1.728   4.807   4.016 -0.1447 -0.2437  0.8340
  512MOL0     C69023   1.596   4.733   3.969  0.2748  0.7077  0.7675
  512MOL0     C69024   1.582   4.581   4.019  0.8119  0.6796  0.2720
  512MOL0     C69025   1.472   4.499   3.955 -0.0105 -0.4633  0.2676
  512MOL0     C69026   1.465   4.351   3.986 -0.1570  0.0045 -0.1242
  512MOL0     C69027   1.449   4.305   4.133  0.2139 -1.0959  0.3726
  512MOL0     C69028   1.450   4.146   4.126 -0.5862  0.2055 -0.7409
  512MOL0     C69029   1.470   4.077   4.264 -0.2381  0.5535 -0.2108
  512MOL0    Cl69030   1.634   4.101   4.313  0.5391 -0.0852 -0.2759
  512MOL0     C69031   1.931   4.978   4.170 -0.2193 -0.4126 -0.2439
  512MOL0     C69032   2.048   4.990   4.251  0.3841  0.0944  0.4215
  512MOL0     O69033   2.329   4.885   4.361  0.5005 -0.1309 -0.1067
  512MOL0     C69034   2.348   5.130   4.619  0.0088 -0.3702  0.3964
  512MOL0     C69035   2.447   5.185   4.711  0.8732  0.3940 -0.0080
  512MOL0     N69036   3.270   5.032   4.865  0.3395  0.9308  0.0564
  512MOL0     N69037   3.366   4.972   4.813 -0.0430  0.0219 -0.4000
  512MOL0     C69038   4.162   4.487   4.252  0.0631  0.0173 -0.1649
  512MOL0     C69039   4.182   4.348   4.273 -0.6303 -0.0099  0.6095
  512MOL0     C69040   4.264   3.971   4.486 -0.2892  0.6534  0.4087
  512MOL0     C69041   4.392   3.918   4.533 -0.3151  0.5023  0.2810
  512MOL0     C69042   4.399   3.783   4.579 -0.5335 -0.2786  0.0691
  512MOL0     C69043   4.284   3.710   4.599 -0.0799 -0.8175  0.6028
  512MOL0     O69044   4.308   3.583   4.642 -0.5620  0.9511  0.3814
  512MOL0     C69045   4.211   3.476   4.608 -0.3058 -0.0283 -0.0005
  512MOL0     C69046   4.221   3.447   4.457  0.1131  0.1530  0.2304
  512MOL0     C69047   4.104   3.367   4.408  0.9799  0.9448  0.1653
  512MOL0     C69048   4.108   3.215   4.448  0.2423 -0.0787 -1.5575
  512MOL0     C69049   4.028   3.187   4.568  0.1201  0.3768  0.7302
  512MOL0     C69050   3.977   3.168   4.672  0.5262  0.4049 -0.7778
  512MOL0     C69051   4.160   3.775   4.564 -0.1685  0.7694 -0.3712
  512MOL0     C69052   4.149   3.902   4.514  0.5392 -0.4930  0.7891
  512MOL0     H69053   3.917   4.277   4.463 -3.0890  1.1021 -1.1609
  512MOL0     H69054   3.881   4.523   4.433  0.6395  1.4477 -0.4586
  512MOL0     H69055   4.185   4.769   4.346  0.9044  2.6255 -0.5533
  512MOL0     H69056   4.170   4.772   4.175  0.9605  0.7021 -0.2213
  512MOL0     H69057   4.165   4.977   4.271  1.2492 -1.8265  0.3398
  512MOL0     H69058   4.006   4.946   4.184  2.2465 -0.2260 -2.3239
  512MOL0     H69059   3.895   4.887   4.374  0.3870 -0.7827 -2.2199
  512MOL0     H69060   4.032   4.909   4.483 -2.2551 -2.0862  0.1693
  512MOL0     H69061   4.030   5.148   4.428 -0.0774 -0.7234  4.8667
  512MOL0     H69062   3.901   5.131   4.312  2.6867 -0.6919 -1.8758
  512MOL0     H69063   3.894   5.056   4.611  0.8008 -0.3767 -1.3571
  512MOL0     H69064   3.848   5.213   4.562 -0.6484 -0.3445  1.4117
  512MOL0     H69065   3.701   5.082   4.391  0.0648 -3.4855 -0.3249
  512MOL0     H69066   3.723   4.944   4.494  3.0275 -0.3419 -1.4830
  512MOL0     H69067   3.665   5.106   4.696 -0.5484 -0.3957 -0.3349
  512MOL0     H69068   3.573   5.202   4.572  0.9528  0.5121 -0.8426
  512MOL0     H69069   3.546   4.910   4.663 -2.1516 -1.1339 -0.7060
  512MOL0     H69070   3.474   4.961   4.512  1.9032 -2.2235 -1.0259
  512MOL0     H69071   3.295   5.193   4.583  0.9722  0.6159 -0.1000
  512MOL0     H69072   3.153   5.318   4.794  0.5458  0.3941  0.5410
  512MOL0     H69073   3.045   5.207   4.705 -0.4756 -1.3442  0.4892
  512MOL0     H69074   3.085   5.229   5.001  1.1394 -1.5406 -0.4307
  512MOL0     H69075   3.015   5.084   4.929 -1.5579  0.8127  0.4569
  512MOL0     H69076   2.889   5.341   4.836  2.9229  0.0192 -0.5265
  512MOL0     H69077   2.835   5.278   4.994  0.0011  1.5936  0.1408
  512MOL0     H69078   2.814   5.055   4.842  3.7030 -0.1534  0.7875
  512MOL0     H69079   2.830   5.161   4.710  1.2519  0.5903  0.1762
  512MOL0     H69080   2.707   4.985   4.656 -0.4116  0.8066  4.7095
  512MOL0     H69081   2.668   4.802   4.551  0.5400  0.5921 -1.0066
  512MOL0     H69082   2.506   4.737   4.499 -1.7022  0.2055  2.1913
  512MOL0     H69083   2.604   4.849   4.399 -0.4425 -0.5466 -0.2984
  512MOL0     H69084   1.962   4.835   4.533  1.2423  1.5274  0.4984
  512MOL0     H69085   1.774   4.771   4.388  0.3204 -1.4810 -3.1497
  512MOL0     H69086   1.743   4.897   3.956  2.8987 -0.9837  0.2840
  512MOL0     H69087   1.809   4.735   4.002 -1.6679 -1.6773 -1.2926
  512MOL0     H69088   1.508   4.788   4.007 -0.0962  0.8585 -0.2794
  512MOL0     H69089   1.589   4.733   3.860  0.2076  1.5884  0.7642
  512MOL0     H69090   1.577   4.583   4.128  0.4368  0.8865  0.2546
  512MOL0     H69091   1.677   4.529   4.003  1.0210  1.2580 -0.4428
  512MOL0     H69092   1.375   4.544   3.979  0.4338  0.4919  0.3325
  512MOL0     H69093   1.489   4.508   3.848 -0.3954  0.4192  0.2654
  512MOL0     H69094   1.546   4.292   3.942 -0.9248  0.7777 -2.7984
  512MOL0     H69095   1.376   4.316   3.932 -2.1565  0.4640  2.6493
  512MOL0     H69096   1.530   4.346   4.194 -0.1640 -0.8067  0.6858
  512MOL0     H69097   1.357   4.342   4.181  0.7349  0.5427  0.1633
  512MOL0     H69098   1.532   4.102   4.069 -2.1309 -1.5788 -1.6914
  512MOL0     H69099   1.356   4.119   4.076 -0.9445  3.5464 -2.1345
  512MOL0     H69100   1.446   3.971   4.258 -2.5919  0.8718  2.0159
  512MOL0     H69101   1.397   4.118   4.335 -1.3458  2.6229 -2.3770
  512MOL0     H69102   1.924   5.012   4.067  2.0097 -0.5912 -0.4917
  512MOL0     H69103   2.133   5.038   4.204 -1.0694  0.7518 -1.7165
  512MOL0     H69104   2.249   5.174   4.611 -0.9132 -2.0710  1.7520
  512MOL0     H69105   2.408   5.269   4.768 -0.2766 -1.3597  1.9321
  512MOL0     H69106   4.227   4.538   4.182 -2.4611  1.2436 -1.7658
  512MOL0     H69107   4.282   4.315   4.247 -0.0226  0.8006  1.8235
  512MOL0     H69108   4.483   3.970   4.506  0.3143 -1.3557 -1.5079
  512MOL0     H69109   4.485   3.733   4.623 -2.1632 -2.1672  1.2883
  512MOL0     H69110   4.236   3.384   4.661 -1.5642 -1.0210 -1.0646
  512MOL0     H69111   4.114   3.511   4.645  0.1927  2.8434 -1.1363
  512MOL0     H69112   4.317   3.397   4.440 -0.8252 -1.9168  0.7303
  512MOL0     H69113   4.217   3.549   4.417 -3.9157  0.6877  1.5515
  512MOL0     H69114   4.086   3.383   4.301 -2.4290 -0.0449  0.4515
  512MOL0     H69115   4.014   3.408   4.455  1.3228  1.4458  0.3832
  512MOL0     H69116   4.215   3.202   4.468 -0.2709  0.8187  2.8330
  512MOL0     H69117   4.073   3.157   4.363 -0.1428 -0.5209 -1.1030
  512MOL0     H69118   3.939   3.159   4.771  2.4836  1.7654  0.1676
  512MOL0     H69119   4.069   3.718   4.575  0.4489 -0.6447 -2.0563
  512MOL0     H69120   4.051   3.938   4.487  1.4193  1.4699  0.0146
  513MOL0     O69121   2.606   6.851   1.788  0.7492  0.2104  0.4168
  513MOL0     C69122   2.617   6.912   1.683 -1.0023  0.2048  0.7294
  513MOL0     O69123   2.525   6.991   1.623  0.0416 -0.2404 -0.3611
  513MOL0     C69124   2.393   6.977   1.657  0.7428  0.0532 -0.9524
  513MOL0     C69125   2.335   6.842   1.664  0.4530  0.0173 -0.4769
  513MOL0     C69126   2.195   6.826   1.686 -0.4500 -0.3585  0.5470
  513MOL0     C69127   2.126   6.946   1.712  0.6157  1.3970 -0.2417
  513MOL0     O69128   1.990   6.926   1.718 -0.5237  0.3953  0.4289
  513MOL0     C69129   1.904   7.036   1.722 -0.7589 -0.0667 -0.3736
  513MOL0     C69130   1.767   6.987   1.698  0.6300  0.0559  0.3209
  513MOL0     C69131   1.675   7.103   1.652  0.4479 -0.8746  0.3151
  513MOL0     C69132   1.703   7.139   1.505  1.0740  0.5492  0.7089
  513MOL0     C69133   1.606   7.241   1.454 -0.3930  0.6118 -0.1334
  513MOL0     C69134   1.469   7.182   1.421 -0.6804  0.3414  0.0256
  513MOL0     C69135   1.456   7.076   1.320 -0.0232 -0.4457  0.1697
  513MOL0     C69136   1.311   7.081   1.270  0.2302  0.0946  0.1441
  513MOL0     N69137   1.268   6.966   1.185 -0.6361 -0.1049 -0.8063
  513MOL0     C69138   1.252   6.838   1.234 -0.0524  0.5441 -0.1365
  513MOL0     C69139   1.220   6.771   1.123 -0.0493  0.0397 -0.6703
  513MOL0     C69140   1.204   6.627   1.115 -0.3927  0.5609  0.1534
  513MOL0     C69141   1.064   6.592   1.079  1.0097  0.0396  0.1709
  513MOL0     C69142   0.978   6.616   1.203 -0.3246  0.4784  0.7935
  513MOL0     C69143   0.836   6.581   1.175  0.0381  0.1574 -0.5445
  513MOL0     O69144   0.746   6.634   1.275  0.5019 -0.6762  0.3421
  513MOL0     C69145   0.621   6.577   1.297  0.4172 -0.2285  0.5667
  513MOL0     C69146   0.547   6.623   1.405  0.3097  0.3619  0.4600
  513MOL0     C69147   0.410   6.590   1.410 -0.0540 -0.5400  0.2722
  513MOL0     C69148   0.327   6.660   1.520 -0.0478  0.6906 -0.5752
  513MOL0     C69149   0.342   6.498   1.327  0.8920 -0.1257  0.0080
  513MOL0     C69150   0.197   6.475   1.322 -1.0811  0.1384 -0.4199
  513MOL0     O69151   0.124   6.431   1.430  0.4751  0.1974 -0.0802
  513MOL0     C69152  -0.016   6.475   1.435 -0.5124 -0.7930  0.9905
  513MOL0     C69153  -0.049   6.598   1.491 -0.6236 -0.9642 -0.0544
  513MOL0     C69154  -0.178   6.655   1.498 -1.1362 -0.5112  0.0538
  513MOL0     C69155  -0.286   6.565   1.476 -0.2180  0.2301  0.8148
  513MOL0     O69156  -0.423   6.597   1.497 -0.1550  0.0145  0.3227
  513MOL0     C69157  -0.454   6.733   1.473  0.6860  0.0021  0.6421
  513MOL0     C69158  -0.597   6.736   1.415  0.2732 -0.0312  0.1088
  513MOL0     C69159  -0.703   6.678   1.512 -0.5067 -0.5937  0.8121
  513MOL0     C69160  -0.847   6.726   1.486  0.2017 -0.3407 -0.4780
  513MOL0     C69161  -0.934   6.660   1.604  0.4533  0.5125  0.3552
  513MOL0     C69162  -1.078   6.716   1.589  0.4617 -0.4331 -0.3973
  513MOL0     C69163  -1.176   6.629   1.679 -1.3450  0.6529  0.8835
  513MOL0     C69164  -1.316   6.656   1.639  0.4925 -0.7599  0.6388
  513MOL0    Cl69165  -1.438   6.575   1.754 -0.0024 -0.2812 -0.3924
  513MOL0     C69166  -0.260   6.433   1.434 -0.1895 -0.5545  0.5588
  513MOL0     C69167  -0.127   6.393   1.404  0.1060  0.3061 -0.1500
  513MOL0     O69168   0.150   6.491   1.211  0.2018 -0.0059  0.0445
  513MOL0     C69169   0.419   6.450   1.228 -0.6377  0.6448  0.5706
  513MOL0     C69170   0.552   6.490   1.209 -0.3165 -1.0159  0.6752
  513MOL0     N69171   1.231   6.853   1.009 -0.3289  0.1549 -0.2467
  513MOL0     N69172   1.244   6.977   1.052  0.1245  0.5828 -0.0716
  513MOL0     C69173   2.190   7.070   1.715  0.2943  0.2758 -1.0603
  513MOL0     C69174   2.322   7.091   1.682 -0.5927  0.1987 -0.2644
  513MOL0     C69175   2.751   6.915   1.622  0.4943  0.1482 -0.3780
  513MOL0     C69176   2.827   6.793   1.619  0.0135 -0.7114 -0.2099
  513MOL0     C69177   2.953   6.791   1.567  0.4509  0.3486  0.3918
  513MOL0     C69178   3.008   6.914   1.517  0.0144  0.1636 -0.1010
  513MOL0     O69179   3.137   6.932   1.479  0.2599  0.0169  0.5305
  513MOL0     C69180   3.240   6.844   1.543  0.9193  0.7586  0.1274
  513MOL0     C69181   3.384   6.891   1.530  0.2164  0.5507  1.0543
  513MOL0     C69182   3.427   6.891   1.374 -0.1253 -0.2180  1.4222
  513MOL0     C69183   3.556   6.970   1.347  0.4805  0.2735  0.1941
  513MOL0     C69184   3.667   6.958   1.445 -1.0346  0.0036  1.4010
  513MOL0     C69185   3.772   6.944   1.502 -0.1626 -0.0838 -0.0070
  513MOL0     C69186   2.937   7.032   1.528  0.7318 -0.8315  0.2455
  513MOL0     C69187   2.807   7.036   1.585 -0.0402  0.3435 -0.4346
  513MOL0     H69188   2.400   6.756   1.654  1.4575  0.9484 -2.5088
  513MOL0     H69189   2.136   6.735   1.688 -1.5606  0.2972 -0.6207
  513MOL0     H69190   1.912   7.085   1.820  0.1486 -1.1792  0.1347
  513MOL0     H69191   1.936   7.109   1.647  1.8096 -0.4153  0.2719
  513MOL0     H69192   1.762   6.911   1.619  1.6437 -0.3852  0.6647
  513MOL0     H69193   1.729   6.930   1.784 -1.0466 -3.2031 -2.3734
  513MOL0     H69194   1.570   7.079   1.674  0.1793 -2.4196 -2.2666
  513MOL0     H69195   1.694   7.193   1.712 -1.2279 -0.0698 -0.2917
  513MOL0     H69196   1.808   7.168   1.494  0.8027  0.9897 -0.9088
  513MOL0     H69197   1.690   7.054   1.438  2.5095  0.7294  0.1669
  513MOL0     H69198   1.595   7.325   1.522 -2.3294  1.2482 -1.1584
  513MOL0     H69199   1.646   7.283   1.361  2.5441  1.3745  1.3525
  513MOL0     H69200   1.426   7.146   1.515  1.9140 -2.7460  0.2218
  513MOL0     H69201   1.406   7.266   1.391  2.4066  2.8733  0.1090
  513MOL0     H69202   1.522   7.099   1.236  0.3219  0.9029  0.7885
  513MOL0     H69203   1.478   6.976   1.359  0.7915  0.1830  1.3772
  513MOL0     H69204   1.282   7.175   1.223 -3.7158 -0.7468  0.5167
  513MOL0     H69205   1.251   7.062   1.359  0.8460  0.3890  0.6291
  513MOL0     H69206   1.254   6.806   1.338 -1.5798 -1.4318 -0.6484
  513MOL0     H69207   1.267   6.585   1.036  0.5679  2.3308 -0.0819
  513MOL0     H69208   1.242   6.576   1.204  0.7790 -2.0024 -1.7006
  513MOL0     H69209   1.055   6.485   1.057  0.3216 -0.3877  2.3089
  513MOL0     H69210   1.022   6.658   1.003  0.0489 -0.8861 -0.1321
  513MOL0     H69211   0.989   6.720   1.236  0.7994  0.7974 -0.5233
  513MOL0     H69212   1.007   6.548   1.283  0.0654  0.4041  0.5910
  513MOL0     H69213   0.834   6.472   1.184  2.4041  0.1751  1.2710
  513MOL0     H69214   0.806   6.611   1.074  0.8033  0.2220 -0.7590
  513MOL0     H69215   0.593   6.709   1.453  1.3053  0.0299  0.1298
  513MOL0     H69216   0.235   6.693   1.471  0.5257  3.0048 -0.1651
  513MOL0     H69217   0.307   6.578   1.590 -0.8076  1.7575  0.4867
  513MOL0     H69218   0.379   6.742   1.568  0.5152  0.0861 -0.1327
  513MOL0     H69219   0.035   6.651   1.533 -2.6111  1.3487  1.2321
  513MOL0     H69220  -0.193   6.759   1.526  0.6213  0.1360 -1.2391
  513MOL0     H69221  -0.462   6.785   1.569 -0.6123  2.0706 -0.4956
  513MOL0     H69222  -0.390   6.778   1.397  0.0864  0.5400  0.4428
  513MOL0     H69223  -0.620   6.842   1.401 -2.1505 -0.4222  0.6165
  513MOL0     H69224  -0.603   6.691   1.315 -2.2452  3.1409 -1.3878
  513MOL0     H69225  -0.678   6.713   1.613  0.3717 -1.2247  0.8351
  513MOL0     H69226  -0.696   6.569   1.516 -2.0493 -0.7770 -0.4564
  513MOL0     H69227  -0.862   6.834   1.494 -3.6831 -0.7038 -1.0358
  513MOL0     H69228  -0.880   6.705   1.384 -2.6516  2.8828 -0.4132
  513MOL0     H69229  -0.889   6.668   1.703  2.4831  3.4138 -0.6631
  513MOL0     H69230  -0.929   6.555   1.572  2.3650  1.6912 -3.9290
  513MOL0     H69231  -1.074   6.823   1.614 -0.9518 -0.1420 -1.2947
  513MOL0     H69232  -1.099   6.709   1.482  0.9638  1.4606 -0.6699
  513MOL0     H69233  -1.146   6.647   1.783  0.8841 -1.1467  0.6153
  513MOL0     H69234  -1.165   6.523   1.656  0.5145  1.0553 -0.3038
  513MOL0     H69235  -1.318   6.622   1.535  1.9970 -0.7901  0.5966
  513MOL0     H69236  -1.331   6.764   1.643  1.0512 -0.6400 -0.1589
  513MOL0     H69237  -0.332   6.354   1.419 -0.9740  0.0865  0.8672
  513MOL0     H69238  -0.105   6.291   1.374  1.9544 -0.3079  2.8455
  513MOL0     H69239   0.358   6.381   1.171 -0.7954 -1.6972  3.3309
  513MOL0     H69240   0.604   6.468   1.117 -2.0694 -1.9272 -0.1514
  513MOL0     H69241   2.130   7.158   1.735 -0.6603 -0.7456  0.7592
  513MOL0     H69242   2.380   7.183   1.678 -0.8983  0.3780 -0.6284
  513MOL0     H69243   2.793   6.706   1.675  0.0479  0.1196  1.1519
  513MOL0     H69244   3.000   6.695   1.582 -0.9276 -0.6851 -1.5376
  513MOL0     H69245   3.212   6.842   1.649  0.3145 -0.2574 -0.0414
  513MOL0     H69246   3.231   6.746   1.496  1.0494 -0.5456  2.6268
  513MOL0     H69247   3.447   6.822   1.587 -0.9192 -0.3635  1.2413
  513MOL0     H69248   3.384   6.990   1.576 -0.2924  0.0538  2.1602
  513MOL0     H69249   3.357   6.933   1.301 -0.8522  1.5771  3.0566
  513MOL0     H69250   3.424   6.789   1.334 -0.6172  0.7966 -1.3769
  513MOL0     H69251   3.535   7.077   1.356 -1.6486 -0.2697  3.3518
  513MOL0     H69252   3.587   6.943   1.245  0.4673 -1.7619  0.6762
  513MOL0     H69253   3.863   6.920   1.554 -0.9566 -1.1738  0.9467
  513MOL0     H69254   2.988   7.126   1.512  1.4177 -0.8640  2.0920
  513MOL0     H69255   2.755   7.131   1.594 -2.1259 -0.7358 -0.3422
  514MOL0     O69256   5.582   3.024   9.637  0.3805  0.0624 -0.8476
  514MOL0     C69257   5.655   3.032   9.738 -0.1795 -0.1863  0.0467
  514MOL0     O69258   5.598   3.077   9.861 -0.5106  0.2244  0.6449
  514MOL0     C69259   5.474   3.136   9.868 -0.2762  0.6570 -0.7674
  514MOL0     C69260   5.435   3.155   9.993  0.0534 -0.6161  1.0027
  514MOL0     C69261   5.313   3.225  10.020 -0.5117  0.2953  0.7070
  514MOL0     C69262   5.242   3.284   9.914  0.2040  0.3000 -0.0727
  514MOL0     O69263   5.121   3.365   9.933  0.3063  0.5408 -0.9618
  514MOL0     C69264   5.041   3.369  10.056  0.1302 -0.5708  0.1271
  514MOL0     C69265   4.929   3.475  10.040 -0.4626  0.0615 -0.3937
  514MOL0     C69266   4.814   3.416   9.945  0.0079 -0.2373  0.7739
  514MOL0     C69267   4.734   3.306  10.016 -0.3353  0.1367  0.6630
  514MOL0     C69268   4.634   3.249   9.921 -0.5980  0.8713  0.2498
  514MOL0     C69269   4.518   3.341   9.898  0.2460 -0.1673  0.1167
  514MOL0     C69270   4.387   3.281   9.828 -0.3257 -0.0037  1.1170
  514MOL0     C69271   4.415   3.243   9.676 -0.3702  0.0817  0.8838
  514MOL0     N69272   4.285   3.195   9.617  0.1941 -0.0243 -0.0976
  514MOL0     C69273   4.258   3.196   9.483 -0.9777  0.1885 -0.1570
  514MOL0     C69274   4.135   3.149   9.467 -0.4731  0.3172 -0.1069
  514MOL0     C69275   4.056   3.126   9.336  0.5456  0.4031  0.0392
  514MOL0     C69276   3.908   3.140   9.373  0.3067 -0.8109  0.6802
  514MOL0     C69277   3.833   3.111   9.240  0.0696 -0.0906  0.0891
  514MOL0     C69278   3.681   3.136   9.253  0.8445  0.4118  0.5006
  514MOL0     O69279   3.660   3.280   9.272 -0.8129  0.6147 -0.3922
  514MOL0     C69280   3.531   3.320   9.253 -0.0718 -0.5609 -0.2281
  514MOL0     C69281   3.414   3.251   9.279  0.7111  0.4567  0.0348
  514MOL0     C69282   3.289   3.307   9.238 -0.3373 -0.5976  0.4167
  514MOL0     C69283   3.169   3.217   9.239 -0.3629 -0.4026  0.0496
  514MOL0     C69284   3.284   3.438   9.193 -0.1878 -0.1759  1.0002
  514MOL0     C69285   3.161   3.517   9.163 -0.1848  0.4626 -0.4465
  514MOL0     O69286   3.173   3.654   9.162 -0.0710 -0.6977  0.1118
  514MOL0     C69287   3.056   3.723   9.142  0.8127  0.1313 -0.3745
  514MOL0     C69288   3.053   3.837   9.063 -0.0771 -1.1483  0.5132
  514MOL0     C69289   2.947   3.923   9.057  0.1397 -0.1130 -0.1826
  514MOL0     C69290   2.826   3.893   9.132  0.4699 -0.1755  0.5201
  514MOL0     O69291   2.713   3.977   9.142  0.0296  0.4758  0.0415
  514MOL0     C69292   2.713   4.117   9.113  0.4402 -0.8176  0.4431
  514MOL0     C69293   2.675   4.161   8.971  0.4513  1.1880  0.8628
  514MOL0     C69294   2.672   4.310   8.957  0.0285  0.1099 -0.0212
  514MOL0     C69295   2.627   4.345   8.812 -0.3924  0.6238 -0.5867
  514MOL0     C69296   2.673   4.482   8.776  0.2022 -0.5957 -0.3224
  514MOL0     C69297   2.670   4.513   8.630  0.1162 -0.0939  0.2174
  514MOL0     C69298   2.533   4.480   8.563  0.0213 -0.2064  0.0345
  514MOL0     C69299   2.531   4.544   8.427  0.0190 -0.5229  0.9529
  514MOL0    Cl69300   2.636   4.434   8.333 -0.1024  0.1414  0.0758
  514MOL0     C69301   2.825   3.769   9.207  0.9379  0.3493  0.1692
  514MOL0     C69302   2.939   3.690   9.212  0.2845  0.5436 -0.0896
  514MOL0     O69303   3.063   3.457   9.120 -0.0375  0.1935  0.1776
  514MOL0     C69304   3.405   3.511   9.182  0.9760  0.2952 -1.1103
  514MOL0     C69305   3.530   3.451   9.205  0.5881  0.0310 -0.7778
  514MOL0     N69306   4.091   3.110   9.594 -0.3381 -0.5633  0.5660
  514MOL0     N69307   4.182   3.137   9.685  0.4733 -0.3227 -0.4080
  514MOL0     C69308   5.282   3.275   9.782  0.1225 -0.2247 -0.9210
  514MOL0     C69309   5.397   3.205   9.763 -1.1856 -0.6046 -0.4794
  514MOL0     C69310   5.800   3.010   9.720 -0.6736  1.1132 -0.1130
  514MOL0     C69311   5.890   2.988   9.832  0.8642 -0.6807 -0.0011
  514MOL0     C69312   6.020   2.944   9.813 -0.1713  0.1688  0.3684
  514MOL0     C69313   6.074   2.948   9.688 -0.8988 -0.5866  0.4706
  514MOL0     O69314   6.190   2.875   9.680 -0.1651  0.6634 -0.1675
  514MOL0     C69315   6.237   2.841   9.549  0.4262 -1.0179 -0.5705
  514MOL0     C69316   6.377   2.787   9.569  0.1986  0.9025 -0.3255
  514MOL0     C69317   6.377   2.657   9.656 -0.1923 -1.1230  0.2220
  514MOL0     C69318   6.521   2.607   9.678  0.4080 -0.1573 -0.3538
  514MOL0     C69319   6.543   2.531   9.804  1.0921 -0.3941  0.5997
  514MOL0     C69320   6.581   2.467   9.900  0.0732  0.2225  0.0995
  514MOL0     C69321   5.999   2.995   9.579  0.3175  0.1134  0.4790
  514MOL0     C69322   5.864   3.024   9.598 -0.4425  0.4323 -0.0175
  514MOL0     H69323   5.469   3.104  10.083 -1.4224  0.9324  2.5046
  514MOL0     H69324   5.275   3.230  10.122  0.1942 -1.7189  1.1079
  514MOL0     H69325   5.000   3.272  10.083 -0.0152 -0.7489 -0.7095
  514MOL0     H69326   5.102   3.412  10.137 -1.2055  0.2564  0.7441
  514MOL0     H69327   4.888   3.506  10.136  1.2841 -0.9341  0.7309
  514MOL0     H69328   4.981   3.563  10.001  0.3320  0.0230  0.5477
  514MOL0     H69329   4.749   3.503   9.928 -0.1237 -0.7799 -2.0014
  514MOL0     H69330   4.854   3.388   9.848 -0.7574  0.6878  0.1671
  514MOL0     H69331   4.796   3.219  10.039 -1.4963 -1.0230 -0.4212
  514MOL0     H69332   4.682   3.345  10.103 -1.6605  0.0408 -0.0522
  514MOL0     H69333   4.682   3.219   9.827  0.1701  2.3705  0.1331
  514MOL0     H69334   4.596   3.158   9.968  1.1914  0.6644  1.3959
  514MOL0     H69335   4.483   3.383   9.993 -3.4176 -1.0936 -0.6348
  514MOL0     H69336   4.551   3.432   9.847  0.6537  0.5599  1.6437
  514MOL0     H69337   4.334   3.203   9.884 -2.3450  0.8515  0.5033
  514MOL0     H69338   4.312   3.360   9.828 -2.4537 -1.9120  0.7001
  514MOL0     H69339   4.484   3.158   9.669 -2.1786 -1.4453  1.0094
  514MOL0     H69340   4.463   3.325   9.623 -0.0586 -1.0639 -0.6757
  514MOL0     H69341   4.329   3.233   9.410  1.9755 -0.9570  1.9315
  514MOL0     H69342   4.069   3.209   9.266  2.2245 -1.0095 -1.4210
  514MOL0     H69343   4.087   3.040   9.276  0.5525  0.1250  0.4396
  514MOL0     H69344   3.885   3.244   9.398 -0.5588 -1.2206  1.6864
  514MOL0     H69345   3.873   3.070   9.450  1.6629 -2.0434  0.2270
  514MOL0     H69346   3.836   3.005   9.212 -1.9669 -0.1199 -0.2258
  514MOL0     H69347   3.869   3.170   9.155 -0.0606  1.8654  1.3267
  514MOL0     H69348   3.639   3.080   9.337 -0.0383 -2.2265 -1.5736
  514MOL0     H69349   3.637   3.100   9.159  1.8873 -2.2308  0.9344
  514MOL0     H69350   3.415   3.148   9.314 -2.0339  0.7466  1.2288
  514MOL0     H69351   3.140   3.198   9.135 -0.2538  0.2457 -0.1058
  514MOL0     H69352   3.191   3.117   9.276 -0.0098 -1.4277 -2.6671
  514MOL0     H69353   3.087   3.267   9.292 -0.1657 -0.2333  0.1972
  514MOL0     H69354   3.144   3.859   9.009 -1.4001  0.4883 -1.1494
  514MOL0     H69355   2.961   4.020   9.011 -2.4614  0.5388  0.2630
  514MOL0     H69356   2.636   4.163   9.176  0.3613 -0.6113  0.1970
  514MOL0     H69357   2.811   4.158   9.139 -0.0692  1.2562 -0.6562
  514MOL0     H69358   2.755   4.119   8.909 -1.2692 -0.0847 -0.6204
  514MOL0     H69359   2.580   4.122   8.931  0.9248  1.6927 -0.8418
  514MOL0     H69360   2.773   4.348   8.974 -0.4034  2.1952 -1.6300
  514MOL0     H69361   2.602   4.351   9.031  0.4648  0.0280  0.4391
  514MOL0     H69362   2.669   4.266   8.749  0.0932  1.1935 -0.9834
  514MOL0     H69363   2.517   4.343   8.812 -0.5139  2.9389  1.2715
  514MOL0     H69364   2.776   4.491   8.813 -0.1543 -2.8280  1.3906
  514MOL0     H69365   2.617   4.561   8.826  0.5361 -1.3635  1.3064
  514MOL0     H69366   2.689   4.620   8.623 -3.0933  0.6280  1.1191
  514MOL0     H69367   2.749   4.461   8.575 -0.8353  2.2632 -3.7579
  514MOL0     H69368   2.451   4.522   8.622  1.0839 -0.7365  2.0157
  514MOL0     H69369   2.530   4.372   8.546  0.6069 -0.3831  0.9596
  514MOL0     H69370   2.563   4.649   8.421 -0.2117 -0.5319 -1.1603
  514MOL0     H69371   2.425   4.547   8.399 -0.0006  1.8726  1.0691
  514MOL0     H69372   2.735   3.754   9.266  0.5277  2.1657  0.0450
  514MOL0     H69373   2.946   3.611   9.286  0.6595  2.8570  2.5090
  514MOL0     H69374   3.400   3.612   9.142  1.0907  1.4625  1.6222
  514MOL0     H69375   3.619   3.512   9.202 -0.6924  1.9370 -1.9057
  514MOL0     H69376   5.221   3.313   9.701  1.5331 -0.5038 -2.1505
  514MOL0     H69377   5.445   3.223   9.668  1.2983  4.1752  1.3493
  514MOL0     H69378   5.847   3.001   9.931 -0.3321  1.2859 -0.7206
  514MOL0     H69379   6.083   2.918   9.897  0.6176  2.6846  0.6406
  514MOL0     H69380   6.173   2.771   9.494 -0.4477 -0.4761 -0.2598
  514MOL0     H69381   6.242   2.935   9.493 -1.3375 -1.5036 -1.6274
  514MOL0     H69382   6.447   2.851   9.624 -0.6730  2.4901 -1.0260
  514MOL0     H69383   6.415   2.765   9.469  0.4104  1.8960 -0.4721
  514MOL0     H69384   6.314   2.583   9.606  0.5227  0.0384 -2.5723
  514MOL0     H69385   6.332   2.679   9.753 -0.5002  2.1920 -0.5782
  514MOL0     H69386   6.591   2.690   9.690  0.0210  0.4514 -1.9924
  514MOL0     H69387   6.544   2.540   9.594 -0.7436  0.2139 -0.9850
  514MOL0     H69388   6.624   2.431   9.992  3.7809  2.2444 -0.6377
  514MOL0     H69389   6.034   3.025   9.481 -2.1576  1.0649 -0.2032
  514MOL0     H69390   5.818   3.061   9.507  2.3726  1.2314 -1.2255
  515MOL0     O69391   0.921   4.611   6.805 -0.6419 -1.2293  0.5007
  515MOL0     C69392   0.980   4.721   6.803  0.1950  1.1364  0.2862
  515MOL0     O69393   0.925   4.843   6.832 -0.3958  0.5061 -0.0869
  515MOL0     C69394   0.794   4.832   6.873 -0.2034 -0.3827 -0.1591
  515MOL0     C69395   0.747   4.768   6.994 -0.4165  0.4966 -0.4718
  515MOL0     C69396   0.617   4.779   7.040 -0.2638 -0.3868 -0.4468
  515MOL0     C69397   0.515   4.860   6.973  0.1329 -0.8782 -0.1645
  515MOL0     O69398   0.391   4.894   7.021 -0.0065  0.0499 -0.4628
  515MOL0     C69399   0.315   4.792   7.084  0.4530 -0.0864  0.3302
  515MOL0     C69400   0.165   4.817   7.125  1.3385 -0.0665  0.1298
  515MOL0     C69401   0.137   4.893   7.251  0.3374 -0.8749 -0.0108
  515MOL0     C69402  -0.002   4.968   7.255  1.0302  0.4600 -0.4333
  515MOL0     C69403  -0.032   5.043   7.383  0.3309  0.2436 -0.6267
  515MOL0     C69404  -0.048   4.968   7.511  0.0181 -0.0867  0.9046
  515MOL0     C69405  -0.160   4.868   7.495  0.8054 -0.4227 -0.0468
  515MOL0     C69406  -0.276   4.908   7.579 -0.0544 -0.3408 -0.7126
  515MOL0     N69407  -0.345   5.027   7.531 -0.3867 -0.0375 -0.1942
  515MOL0     C69408  -0.353   5.133   7.609  1.4320  0.4394 -0.1838
  515MOL0     C69409  -0.457   5.201   7.554  0.9288 -1.0391  0.6719
  515MOL0     C69410  -0.526   5.323   7.606 -0.3680 -0.3173  0.8266
  515MOL0     C69411  -0.629   5.288   7.718  0.3346 -0.4098 -0.1074
  515MOL0     C69412  -0.755   5.217   7.668  0.6706  0.2618 -0.6823
  515MOL0     C69413  -0.852   5.168   7.784  0.2661 -0.2760  0.1065
  515MOL0     O69414  -0.965   5.092   7.727  0.0991  0.9142 -0.0143
  515MOL0     C69415  -1.048   5.030   7.814 -0.6505 -0.6155  0.0766
  515MOL0     C69416  -1.036   5.029   7.954 -0.5984  0.0965  0.5408
  515MOL0     C69417  -1.139   4.987   8.039  0.5392  0.5269  0.3967
  515MOL0     C69418  -1.102   4.978   8.187  0.0685  0.0446  0.7527
  515MOL0     C69419  -1.261   4.949   7.994  0.8767  0.2629  0.3933
  515MOL0     C69420  -1.373   4.899   8.086  0.8938 -0.3025  0.3759
  515MOL0     O69421  -1.508   4.901   8.037  0.3342  0.1030  1.4880
  515MOL0     C69422  -1.613   4.870   8.116 -0.8912 -0.0881 -0.4161
  515MOL0     C69423  -1.628   4.925   8.249 -0.2883  0.4188  0.0111
  515MOL0     C69424  -1.744   4.890   8.318 -0.1587 -0.3316 -0.6837
  515MOL0     C69425  -1.843   4.804   8.264  0.0640  0.1056 -0.3518
  515MOL0     O69426  -1.952   4.761   8.336  0.8777  0.1960 -0.6596
  515MOL0     C69427  -1.915   4.708   8.461  0.8437 -0.5121  0.2838
  515MOL0     C69428  -2.031   4.638   8.532 -0.1341  0.5287 -0.1961
  515MOL0     C69429  -2.163   4.721   8.518 -0.5317 -0.1865 -0.7823
  515MOL0     C69430  -2.282   4.646   8.588  0.2474 -0.8632  0.7013
  515MOL0     C69431  -2.428   4.723   8.582  0.5683  0.2740 -1.1343
  515MOL0     C69432  -2.489   4.743   8.448 -1.3101  0.7122  0.7075
  515MOL0     C69433  -2.625   4.804   8.443  0.6803 -0.4105  0.5711
  515MOL0     C69434  -2.737   4.711   8.507 -0.0139 -0.6409  0.0215
  515MOL0    Cl69435  -2.897   4.743   8.456  0.1359 -0.2022 -0.0895
  515MOL0     C69436  -1.831   4.752   8.135  0.2787  0.5622 -0.4633
  515MOL0     C69437  -1.712   4.787   8.062  0.4980  0.3462  0.3781
  515MOL0     O69438  -1.347   4.870   8.199  0.8608 -0.3632 -0.4394
  515MOL0     C69439  -1.279   4.947   7.850  0.7284  0.6153 -0.0836
  515MOL0     C69440  -1.176   4.995   7.763  0.7029  0.0435  0.3555
  515MOL0     N69441  -0.491   5.148   7.433 -0.0755 -0.0290 -0.6637
  515MOL0     N69442  -0.427   5.036   7.421  0.2859  0.2785 -0.3660
  515MOL0     C69443   0.562   4.921   6.857 -0.4152  0.3118 -0.6988
  515MOL0     C69444   0.692   4.911   6.804  0.8139  0.2005 -0.1986
  515MOL0     C69445   1.130   4.721   6.801  0.6913  0.5508  0.2644
  515MOL0     C69446   1.200   4.831   6.843 -1.3794  0.1599 -0.2521
  515MOL0     C69447   1.342   4.832   6.848 -0.5504  0.0300 -0.2591
  515MOL0     C69448   1.420   4.720   6.810 -0.0268 -1.1327  0.0895
  515MOL0     O69449   1.554   4.738   6.794  0.1162 -0.0859  0.5484
  515MOL0     C69450   1.643   4.620   6.811  0.6552  0.4273 -0.2510
  515MOL0     C69451   1.764   4.659   6.890 -0.9912 -0.2937  0.9747
  515MOL0     C69452   1.712   4.685   7.033 -0.3436  0.0195 -0.3849
  515MOL0     C69453   1.812   4.678   7.152  0.0671  0.6016 -0.2003
  515MOL0     C69454   1.939   4.741   7.103  0.1065 -0.1910 -0.0042
  515MOL0     C69455   2.039   4.790   7.061 -1.0792  0.5752 -0.0367
  515MOL0     C69456   1.347   4.601   6.774  0.0002  0.0160 -0.6600
  515MOL0     C69457   1.204   4.610   6.759 -0.1941  0.2243 -0.2045
  515MOL0     H69458   0.820   4.707   7.046 -1.7192 -0.7717 -0.0794
  515MOL0     H69459   0.584   4.725   7.128 -3.8996  2.3711  0.1405
  515MOL0     H69460   0.305   4.710   7.012 -2.4282  0.4357 -0.0176
  515MOL0     H69461   0.371   4.773   7.176  1.9149 -1.9401 -0.8697
  515MOL0     H69462   0.104   4.866   7.048  0.8516  0.0344  0.5712
  515MOL0     H69463   0.128   4.714   7.137  0.5269  0.1314 -0.5339
  515MOL0     H69464   0.149   4.836   7.343  1.2273  1.3916  1.3702
  515MOL0     H69465   0.217   4.968   7.254 -2.7526  2.9051 -2.3199
  515MOL0     H69466  -0.001   5.047   7.179  1.3705  0.9964  0.1227
  515MOL0     H69467  -0.081   4.894   7.236 -0.9139  1.5334  2.7870
  515MOL0     H69468   0.053   5.112   7.390  0.2634  0.6491 -2.8632
  515MOL0     H69469  -0.117   5.108   7.363  1.1154  0.8069 -2.3528
  515MOL0     H69470   0.048   4.923   7.536 -0.0526 -0.3325  0.7309
  515MOL0     H69471  -0.062   5.047   7.586  1.9326  1.7536 -0.5678
  515MOL0     H69472  -0.198   4.855   7.394  1.7613 -1.1935 -0.3293
  515MOL0     H69473  -0.127   4.768   7.524 -0.8254 -1.1717 -0.6592
  515MOL0     H69474  -0.244   4.930   7.681 -0.4751 -1.0571 -0.4205
  515MOL0     H69475  -0.348   4.826   7.590  0.7715 -0.9535  0.2122
  515MOL0     H69476  -0.304   5.158   7.703  0.7177 -0.8443  0.5610
  515MOL0     H69477  -0.441   5.377   7.647  1.3305 -1.6615 -0.7761
  515MOL0     H69478  -0.581   5.373   7.525  1.1623  0.7103  0.3799
  515MOL0     H69479  -0.644   5.380   7.776 -1.5086 -1.0595  0.4991
  515MOL0     H69480  -0.582   5.218   7.788  1.7997  0.9030  0.2920
  515MOL0     H69481  -0.729   5.129   7.608 -1.9287 -1.0144 -0.0771
  515MOL0     H69482  -0.812   5.291   7.611 -2.8677 -1.3565  0.5137
  515MOL0     H69483  -0.893   5.247   7.847 -0.7661 -0.8925  0.2235
  515MOL0     H69484  -0.798   5.099   7.849  3.1532  1.2340 -0.4662
  515MOL0     H69485  -0.940   5.053   7.997 -0.3317 -0.9320  0.5366
  515MOL0     H69486  -1.009   5.033   8.203 -0.5976  1.5234 -0.2306
  515MOL0     H69487  -1.177   5.022   8.253  0.2834  1.9379 -0.2040
  515MOL0     H69488  -1.090   4.871   8.210  1.0524  0.0552  0.3485
  515MOL0     H69489  -1.548   4.990   8.282 -0.0324  1.4842 -2.4271
  515MOL0     H69490  -1.774   4.935   8.412  2.7404  1.1647 -0.3598
  515MOL0     H69491  -1.838   4.630   8.458 -1.1628 -2.6285  0.8530
  515MOL0     H69492  -1.876   4.791   8.522  0.8183  0.9288 -1.5715
  515MOL0     H69493  -2.042   4.541   8.483 -2.7057  1.3994 -1.5246
  515MOL0     H69494  -2.000   4.629   8.636 -0.5749  3.7854  0.3510
  515MOL0     H69495  -2.190   4.737   8.413 -2.5309  1.1805 -0.1042
  515MOL0     H69496  -2.157   4.821   8.561  0.1983 -0.1871 -0.8680
  515MOL0     H69497  -2.300   4.547   8.546  0.6964 -0.0384 -1.5456
  515MOL0     H69498  -2.242   4.634   8.690  0.0168 -0.1826  0.8774
  515MOL0     H69499  -2.414   4.820   8.629  0.9019  0.9301 -2.5277
  515MOL0     H69500  -2.500   4.670   8.645  0.0886  1.7250 -0.4220
  515MOL0     H69501  -2.419   4.809   8.394  1.7828  0.0324  3.5127
  515MOL0     H69502  -2.493   4.647   8.396  1.2921  0.8245  0.1650
  515MOL0     H69503  -2.648   4.825   8.338 -0.8801  2.8129  1.4055
  515MOL0     H69504  -2.631   4.904   8.487  1.4947 -1.3413  2.9583
  515MOL0     H69505  -2.733   4.721   8.616 -1.0073 -2.0350  0.2065
  515MOL0     H69506  -2.712   4.608   8.482 -0.8238 -0.6801 -0.6830
  515MOL0     H69507  -1.907   4.698   8.080  2.1757 -1.2435 -1.4484
  515MOL0     H69508  -1.698   4.759   7.959  1.5022  1.0997  0.2924
  515MOL0     H69509  -1.377   4.919   7.812 -1.6233  3.8553  3.0319
  515MOL0     H69510  -1.189   5.019   7.658 -0.5801  1.4341  0.7986
  515MOL0     H69511   0.489   4.978   6.800 -0.0497  2.7757  1.1409
  515MOL0     H69512   0.723   4.960   6.712 -0.1400  4.8379  1.6603
  515MOL0     H69513   1.156   4.929   6.861 -2.3069 -0.2166 -0.3834
  515MOL0     H69514   1.409   4.914   6.870  0.5123 -0.8279 -0.1970
  515MOL0     H69515   1.607   4.531   6.863  1.3048  1.2736  1.7579
  515MOL0     H69516   1.670   4.595   6.708 -0.8594 -2.0911 -0.1092
  515MOL0     H69517   1.812   4.748   6.847 -2.9585  0.1482 -0.4332
  515MOL0     H69518   1.832   4.574   6.885 -0.6741 -0.0236  0.5713
  515MOL0     H69519   1.630   4.616   7.056 -0.3185  0.3396  0.6999
  515MOL0     H69520   1.671   4.787   7.034 -0.0710  0.1294 -0.3011
  515MOL0     H69521   1.828   4.572   7.174  1.3140  0.3074 -2.2401
  515MOL0     H69522   1.776   4.722   7.245 -2.2442 -0.2834 -0.6061
  515MOL0     H69523   2.120   4.820   6.997 -2.0588 -0.3901 -1.8049
  515MOL0     H69524   1.405   4.514   6.747 -0.7776 -0.4014 -1.0239
  515MOL0     H69525   1.152   4.523   6.721  2.4234 -2.1485  1.3003
  516MOL0     O69526   6.142   4.196   3.149  0.0135 -0.7532  0.4907
  516MOL0     C69527   6.154   4.119   3.239 -0.3392  0.4318 -0.4666
  516MOL0     O69528   6.069   4.015   3.270 -0.3989 -0.2011 -0.3179
  516MOL0     C69529   5.947   4.008   3.210 -0.2811 -0.2923 -0.5157
  516MOL0     C69530   5.834   3.973   3.285  0.1501 -0.2086 -0.3316
  516MOL0     C69531   5.708   3.947   3.233 -1.3297 -0.7193 -0.6938
  516MOL0     C69532   5.696   3.944   3.092 -0.3090 -0.2711  0.7761
  516MOL0     O69533   5.575   3.920   3.035 -0.0422 -0.1038 -0.6008
  516MOL0     C69534   5.504   4.029   2.976 -0.5110  0.0920  0.4311
  516MOL0     C69535   5.361   4.001   3.012  0.4299  1.5759 -1.3407
  516MOL0     C69536   5.305   4.086   3.134 -0.0447 -0.1127 -0.4066
  516MOL0     C69537   5.269   4.230   3.104 -0.8066  0.4208  0.3769
  516MOL0     C69538   5.226   4.300   3.230  0.7863  0.5711  0.6343
  516MOL0     C69539   5.329   4.309   3.343 -0.1692  0.5421 -0.0950
  516MOL0     C69540   5.468   4.371   3.290 -0.2196  0.9810  0.0799
  516MOL0     C69541   5.573   4.396   3.405 -0.0978 -0.3749  0.2485
  516MOL0     N69542   5.532   4.490   3.506  0.2127 -0.1181  0.4479
  516MOL0     C69543   5.439   4.594   3.491 -0.0185  0.8507  0.0391
  516MOL0     C69544   5.443   4.674   3.600  0.1949 -0.0614 -0.7467
  516MOL0     C69545   5.362   4.793   3.633 -0.2647  0.5214 -0.0046
  516MOL0     C69546   5.211   4.776   3.612  0.6354  0.7970 -0.9789
  516MOL0     C69547   5.155   4.673   3.718 -0.1551 -0.3691 -0.3051
  516MOL0     C69548   5.006   4.673   3.713 -0.0746  0.1814  1.2939
  516MOL0     O69549   4.956   4.781   3.791 -0.0253  0.2258  0.1457
  516MOL0     C69550   4.816   4.781   3.811 -0.5177  0.0048 -0.1484
  516MOL0     C69551   4.724   4.698   3.751  0.5805 -0.3229  0.5693
  516MOL0     C69552   4.581   4.716   3.771 -0.5866 -0.2659  0.3994
  516MOL0     C69553   4.489   4.604   3.711  0.4313 -0.0133  0.0057
  516MOL0     C69554   4.530   4.812   3.864 -0.2281 -0.0336 -0.0281
  516MOL0     C69555   4.391   4.818   3.920  0.6080  0.4425 -0.1241
  516MOL0     O69556   4.287   4.769   3.834 -0.4873  0.1852 -0.4814
  516MOL0     C69557   4.158   4.804   3.875  0.0216  0.2434  0.3218
  516MOL0     C69558   4.115   4.931   3.858 -0.0961  0.7257  0.1411
  516MOL0     C69559   3.974   4.955   3.879 -0.3378 -0.6420  0.3679
  516MOL0     C69560   3.886   4.858   3.934 -0.7911 -0.8725  0.6992
  516MOL0     O69561   3.757   4.894   3.966 -0.0160 -0.1048 -0.0167
  516MOL0     C69562   3.680   4.821   4.058  0.5923  0.5139  0.7463
  516MOL0     C69563   3.556   4.896   4.103  0.0975 -0.3437  0.4850
  516MOL0     C69564   3.483   4.817   4.205 -0.1713  0.3426  0.1991
  516MOL0     C69565   3.342   4.872   4.207  0.7333  0.1933 -0.7331
  516MOL0     C69566   3.258   4.776   4.283  0.4670  0.1610  0.6952
  516MOL0     C69567   3.110   4.819   4.277 -0.1054 -0.3913 -0.3853
  516MOL0     C69568   3.072   4.934   4.372  0.1528  0.1262  0.2893
  516MOL0     C69569   3.106   4.904   4.523  0.1711  0.4126 -0.4630
  516MOL0    Cl69570   3.032   4.753   4.574  0.2077  0.0061 -0.0385
  516MOL0     C69571   3.941   4.733   3.959 -0.1983  0.2164  0.2143
  516MOL0     C69572   4.077   4.706   3.927  0.2428 -0.8247  0.5545
  516MOL0     O69573   4.378   4.879   4.021  1.0159 -0.8758 -0.0019
  516MOL0     C69574   4.631   4.889   3.930  0.0513 -0.2149  0.1055
  516MOL0     C69575   4.767   4.879   3.899 -0.3271  0.3225  0.3538
  516MOL0     N69576   5.537   4.616   3.681 -0.2334  0.2604  0.1282
  516MOL0     N69577   5.598   4.507   3.623  1.1837 -0.4216  0.2619
  516MOL0     C69578   5.801   3.977   3.014 -1.0642  0.2959  0.0907
  516MOL0     C69579   5.925   4.005   3.071  0.4015  0.6702  0.0340
  516MOL0     C69580   6.279   4.102   3.314  0.2010  0.2160  0.7041
  516MOL0     C69581   6.297   3.981   3.395  1.0330 -0.4847  0.0051
  516MOL0     C69582   6.410   3.967   3.472  0.8937 -0.3931 -0.8943
  516MOL0     C69583   6.514   4.058   3.465 -0.2043 -0.3995  0.4493
  516MOL0     O69584   6.628   4.037   3.538 -0.0114  0.6288  0.3660
  516MOL0     C69585   6.627   4.128   3.645 -0.1967  0.1222  0.0119
  516MOL0     C69586   6.680   4.066   3.776  0.3540 -0.7258 -0.8063
  516MOL0     C69587   6.825   4.031   3.763  0.1278 -0.4635  0.3957
  516MOL0     C69588   6.841   3.893   3.696  0.3366 -0.3305  0.2507
  516MOL0     C69589   6.976   3.835   3.726 -0.2304  1.0067 -0.6915
  516MOL0     C69590   7.085   3.795   3.763  0.8691 -0.4074 -0.4054
  516MOL0     C69591   6.498   4.167   3.378 -0.5157  0.1916 -0.0009
  516MOL0     C69592   6.382   4.196   3.310 -0.0563 -0.3369  0.3069
  516MOL0     H69593   5.853   3.967   3.392 -0.5053 -0.2607 -0.2138
  516MOL0     H69594   5.623   3.920   3.295  0.1922 -1.0295  1.3644
  516MOL0     H69595   5.543   4.124   3.013  0.3657 -0.2036  0.2717
  516MOL0     H69596   5.518   4.014   2.868 -0.9488 -3.5477  0.7438
  516MOL0     H69597   5.296   4.011   2.925  1.0352 -0.5679 -2.0913
  516MOL0     H69598   5.357   3.897   3.046 -2.1735  1.9691 -0.2188
  516MOL0     H69599   5.218   4.031   3.172  1.6253 -0.8389  2.6924
  516MOL0     H69600   5.372   4.091   3.220 -1.9108 -1.4297  1.2108
  516MOL0     H69601   5.351   4.289   3.062 -0.4175 -0.5374 -0.2626
  516MOL0     H69602   5.189   4.215   3.030 -1.6739  1.0819  1.1539
  516MOL0     H69603   5.186   4.400   3.213 -1.7549 -0.7191 -1.8478
  516MOL0     H69604   5.144   4.243   3.276 -1.0514  1.0852 -1.7941
  516MOL0     H69605   5.279   4.369   3.419 -2.0419 -0.9396 -0.1076
  516MOL0     H69606   5.361   4.211   3.379  1.9487  0.5540 -1.7441
  516MOL0     H69607   5.508   4.303   3.215  1.8788  0.8687  1.2286
  516MOL0     H69608   5.469   4.465   3.234  2.0691  1.2639  0.4793
  516MOL0     H69609   5.663   4.431   3.354  0.2880  0.4401  1.4461
  516MOL0     H69610   5.600   4.300   3.450  0.2851 -0.4234 -0.0820
  516MOL0     H69611   5.370   4.605   3.408  0.1320 -1.0865 -0.3936
  516MOL0     H69612   5.382   4.819   3.738 -3.0891  2.8740  0.0951
  516MOL0     H69613   5.392   4.875   3.568 -0.1978 -1.5083 -2.6698
  516MOL0     H69614   5.192   4.735   3.512  1.6279 -0.3905 -0.6982
  516MOL0     H69615   5.155   4.869   3.624 -3.6110 -1.5522 -0.2159
  516MOL0     H69616   5.184   4.711   3.816 -1.4169  1.0703 -0.4422
  516MOL0     H69617   5.200   4.573   3.712 -0.7634 -0.7073  0.5355
  516MOL0     H69618   4.969   4.574   3.742 -1.6829  0.8026  1.4602
  516MOL0     H69619   4.978   4.681   3.608  4.3552  0.3380 -0.0900
  516MOL0     H69620   4.752   4.616   3.686 -0.0948 -1.3888  1.5938
  516MOL0     H69621   4.416   4.643   3.640  0.9161 -2.9600 -2.2963
  516MOL0     H69622   4.539   4.524   3.655 -0.7268  0.2394 -1.4402
  516MOL0     H69623   4.434   4.555   3.791  0.6323 -0.9249 -0.3970
  516MOL0     H69624   4.166   5.007   3.800 -2.9810  2.1902 -0.7207
  516MOL0     H69625   3.931   5.048   3.844  0.5643  0.4318  2.0007
  516MOL0     H69626   3.646   4.733   4.002 -1.2148  1.7991 -0.2860
  516MOL0     H69627   3.742   4.796   4.144  1.1120  0.2070  0.2896
  516MOL0     H69628   3.578   4.993   4.148 -0.5469  0.3439 -0.6415
  516MOL0     H69629   3.494   4.925   4.018  2.9564  0.8254 -1.3507
  516MOL0     H69630   3.541   4.835   4.296  0.5065  1.1257 -0.3689
  516MOL0     H69631   3.470   4.712   4.176 -4.0676  0.8718 -0.4368
  516MOL0     H69632   3.336   4.965   4.264 -1.4281 -0.4477  0.1719
  516MOL0     H69633   3.295   4.897   4.111  1.5288  2.5464 -0.5607
  516MOL0     H69634   3.296   4.772   4.386 -0.1530 -0.4497  0.9078
  516MOL0     H69635   3.267   4.670   4.257 -0.6994 -0.1822  1.5691
  516MOL0     H69636   3.082   4.836   4.172  3.0405 -0.1086 -1.2971
  516MOL0     H69637   3.047   4.737   4.313 -1.6900  0.6321 -0.7193
  516MOL0     H69638   2.966   4.958   4.369  0.0547 -0.4166 -1.2839
  516MOL0     H69639   3.109   5.029   4.334 -1.2482  0.8558  0.7030
  516MOL0     H69640   3.071   4.980   4.593  1.0728  0.2093  0.2231
  516MOL0     H69641   3.209   4.888   4.554  0.1767 -3.2857 -1.9789
  516MOL0     H69642   3.876   4.657   4.000 -2.0075  1.2784 -0.5705
  516MOL0     H69643   4.130   4.612   3.935 -0.4244 -1.3919 -1.2003
  516MOL0     H69644   4.597   4.964   4.000  2.0820  1.0499 -0.1749
  516MOL0     H69645   4.835   4.947   3.950 -0.8720  0.3472  1.0709
  516MOL0     H69646   5.801   3.992   2.907 -1.3887  2.8050  0.3861
  516MOL0     H69647   6.010   4.023   3.006 -0.4598  0.2854 -1.2311
  516MOL0     H69648   6.227   3.899   3.386  0.1978  0.1823  0.2904
  516MOL0     H69649   6.418   3.879   3.535 -0.5526  1.1707  1.6609
  516MOL0     H69650   6.699   4.209   3.630 -0.2009  0.6181  2.2573
  516MOL0     H69651   6.529   4.164   3.676 -0.3849 -1.9209  2.0576
  516MOL0     H69652   6.614   3.980   3.797 -0.5564 -0.5465 -2.7163
  516MOL0     H69653   6.682   4.144   3.852 -1.1050  1.0041 -2.4648
  516MOL0     H69654   6.875   4.033   3.861 -1.1822  0.2247  1.0671
  516MOL0     H69655   6.870   4.108   3.700 -4.1924  0.6210 -1.6832
  516MOL0     H69656   6.816   3.879   3.590 -2.1840 -1.8608  0.9868
  516MOL0     H69657   6.773   3.828   3.751 -1.3171  0.7151 -0.4909
  516MOL0     H69658   7.188   3.770   3.781  1.1334  0.8398 -0.0661
  516MOL0     H69659   6.589   4.223   3.362  0.0542 -0.5955  0.4041
  516MOL0     H69660   6.357   4.279   3.245 -1.3042 -0.2027  0.9293
  517MOL0     O69661   6.465   8.636   7.568  0.9171  0.2889  0.2280
  517MOL0     C69662   6.469   8.531   7.500  0.1571  0.6672  0.3293
  517MOL0     O69663   6.364   8.476   7.426  0.2796 -0.7179 -0.1107
  517MOL0     C69664   6.246   8.543   7.430  0.2297 -0.3887  0.3764
  517MOL0     C69665   6.172   8.556   7.540  0.3324 -0.1105 -0.2715
  517MOL0     C69666   6.043   8.603   7.526 -0.1098 -0.0933  0.1336
  517MOL0     C69667   5.986   8.638   7.403  0.0834 -0.0883 -0.4890
  517MOL0     O69668   5.856   8.682   7.382 -0.0874  0.6262  0.2109
  517MOL0     C69669   5.781   8.732   7.492 -0.3147  0.0514 -0.2087
  517MOL0     C69670   5.628   8.720   7.457  0.4108 -0.0184 -0.8631
  517MOL0     C69671   5.571   8.586   7.397 -0.0717  0.0320 -1.0231
  517MOL0     C69672   5.418   8.609   7.362 -0.1957  0.0349  0.2457
  517MOL0     C69673   5.377   8.479   7.292  0.5246 -0.4670  0.2797
  517MOL0     C69674   5.233   8.468   7.259 -0.0235 -0.4453  0.8067
  517MOL0     C69675   5.197   8.346   7.180 -0.1896  0.5795 -0.3936
  517MOL0     C69676   5.186   8.222   7.282  0.0625 -0.0893 -0.2075
  517MOL0     N69677   5.182   8.103   7.197  0.0626  0.1797 -0.9518
  517MOL0     C69678   5.292   8.032   7.159  0.4046  0.7207  1.2266
  517MOL0     C69679   5.245   7.935   7.080  0.1117 -0.8591  0.4619
  517MOL0     C69680   5.333   7.835   7.012  1.1854  0.0879  0.7773
  517MOL0     C69681   5.257   7.700   6.998 -0.3016  0.3079  1.1253
  517MOL0     C69682   5.247   7.624   7.129 -0.1461 -0.2529 -0.3979
  517MOL0     C69683   5.225   7.475   7.090 -0.5218  0.1857  0.2724
  517MOL0     O69684   5.244   7.399   7.214 -0.8704 -0.7821  0.1160
  517MOL0     C69685   5.374   7.368   7.263  0.5528 -0.1151 -0.5237
  517MOL0     C69686   5.496   7.391   7.197  0.0961 -0.1779  0.8068
  517MOL0     C69687   5.619   7.362   7.255 -0.1360  0.0917  0.3506
  517MOL0     C69688   5.737   7.360   7.164 -0.1560 -0.3119 -0.3955
  517MOL0     C69689   5.628   7.325   7.390 -0.4863 -0.0508  0.0219
  517MOL0     C69690   5.754   7.289   7.465  0.5695  0.0741  0.4024
  517MOL0     O69691   5.871   7.285   7.401 -0.3056  0.5089  0.2837
  517MOL0     C69692   5.987   7.262   7.468  0.4365 -0.2897 -0.3447
  517MOL0     C69693   6.077   7.165   7.410 -0.1273 -0.7454 -0.2217
  517MOL0     C69694   6.206   7.152   7.463 -0.1632 -0.4393 -0.4121
  517MOL0     C69695   6.252   7.220   7.579  1.1709 -1.0903 -0.0324
  517MOL0     O69696   6.379   7.223   7.619 -0.0108  0.5051  0.0559
  517MOL0     C69697   6.432   7.097   7.659  0.5210  0.0491  0.5985
  517MOL0     C69698   6.584   7.114   7.673 -0.3223 -0.5671  0.5087
  517MOL0     C69699   6.660   7.111   7.536 -0.0812  0.2869  0.8861
  517MOL0     C69700   6.658   7.249   7.457  0.0593  0.5155 -0.2703
  517MOL0     C69701   6.764   7.246   7.344  0.1371  0.5335 -0.2788
  517MOL0     C69702   6.732   7.337   7.230 -0.4116 -1.0459  0.3300
  517MOL0     C69703   6.820   7.310   7.099  0.0622 -0.3762 -0.3447
  517MOL0     C69704   6.756   7.377   6.981 -0.3385  0.9795 -0.1537
  517MOL0    Cl69705   6.605   7.296   6.946  0.2304  0.0948  0.3280
  517MOL0     C69706   6.157   7.307   7.645 -0.6247  0.0166  0.8077
  517MOL0     C69707   6.026   7.331   7.588  0.2441  0.2966  0.4741
  517MOL0     O69708   5.747   7.272   7.589  0.3953  0.8185 -0.2762
  517MOL0     C69709   5.505   7.314   7.460  0.5132  0.0397 -0.0991
  517MOL0     C69710   5.382   7.319   7.396 -0.0892  0.1036 -0.3590
  517MOL0     N69711   5.104   7.945   7.082 -0.1634 -0.4039 -0.0785
  517MOL0     N69712   5.071   8.038   7.161 -0.2663 -0.6096 -0.3504
  517MOL0     C69713   6.063   8.615   7.288 -0.7585  0.5091 -0.5520
  517MOL0     C69714   6.197   8.560   7.302 -0.2477 -0.1437 -0.2724
  517MOL0     C69715   6.580   8.435   7.515 -0.0623 -0.7278 -0.2089
  517MOL0     C69716   6.671   8.444   7.616 -1.2097 -0.9517 -0.0483
  517MOL0     C69717   6.769   8.341   7.635  0.3138  0.2057  0.9308
  517MOL0     C69718   6.778   8.235   7.544  0.0147  1.0282 -0.4260
  517MOL0     O69719   6.875   8.140   7.568  0.3852  0.4877  0.5192
  517MOL0     C69720   6.918   8.057   7.456  0.5933 -0.5244  0.0332
  517MOL0     C69721   7.064   8.007   7.495  0.2644  0.2322 -0.2262
  517MOL0     C69722   7.071   7.908   7.603 -0.7659 -0.5988 -0.1924
  517MOL0     C69723   7.226   7.873   7.614 -0.2705  0.5680 -0.1618
  517MOL0     C69724   7.311   7.982   7.660  0.5082  0.6971 -0.2102
  517MOL0     C69725   7.378   8.078   7.692  0.1395  0.1222  0.8064
  517MOL0     C69726   6.692   8.225   7.432  1.0538 -0.8414 -0.3757
  517MOL0     C69727   6.591   8.322   7.425  0.1296 -0.0095  0.1492
  517MOL0     H69728   6.211   8.537   7.640  1.5635  0.7440 -0.5649
  517MOL0     H69729   5.984   8.590   7.616  0.6466  0.6758  0.7500
  517MOL0     H69730   5.802   8.692   7.592  0.8234 -1.5709 -1.0418
  517MOL0     H69731   5.800   8.840   7.498 -2.8532  0.4606  2.3508
  517MOL0     H69732   5.560   8.741   7.540 -0.4969 -2.0759 -1.0332
  517MOL0     H69733   5.606   8.794   7.380 -2.7626  0.7607  0.6484
  517MOL0     H69734   5.623   8.549   7.309  1.4128  1.8896 -0.9844
  517MOL0     H69735   5.572   8.503   7.468  1.1669 -0.4092 -1.5404
  517MOL0     H69736   5.364   8.631   7.454 -0.3728 -1.8158  0.6241
  517MOL0     H69737   5.394   8.690   7.292  0.2724 -1.8173 -2.1939
  517MOL0     H69738   5.442   8.474   7.205  1.5181  1.9113  0.8084
  517MOL0     H69739   5.392   8.399   7.365  0.0364 -1.1531 -0.3614
  517MOL0     H69740   5.175   8.482   7.350 -0.0844  2.0153  0.4571
  517MOL0     H69741   5.194   8.544   7.192 -0.8967 -2.5266 -1.1696
  517MOL0     H69742   5.097   8.362   7.138 -0.6158 -0.0626  0.3394
  517MOL0     H69743   5.269   8.319   7.102 -1.1788  0.4925 -1.3118
  517MOL0     H69744   5.090   8.244   7.330 -0.5206  0.6871 -1.6802
  517MOL0     H69745   5.268   8.212   7.354 -1.1858 -1.1302  1.1330
  517MOL0     H69746   5.397   8.054   7.169  0.7007 -0.4804  0.8446
  517MOL0     H69747   5.359   7.878   6.915 -1.1348  1.9439  0.8983
  517MOL0     H69748   5.432   7.823   7.058  3.3648 -0.1167 -3.4429
  517MOL0     H69749   5.305   7.634   6.924 -1.3902  0.6745  0.0537
  517MOL0     H69750   5.163   7.717   6.945 -0.1619 -0.5057  0.6098
  517MOL0     H69751   5.160   7.656   7.187 -0.8626 -2.9013  0.1187
  517MOL0     H69752   5.337   7.626   7.190  0.5131 -3.6413 -1.0688
  517MOL0     H69753   5.304   7.442   7.022 -0.1997  0.6965  0.3901
  517MOL0     H69754   5.130   7.458   7.038 -1.0561 -0.9582  1.5516
  517MOL0     H69755   5.490   7.415   7.091  0.8018 -0.6107  0.6623
  517MOL0     H69756   5.772   7.257   7.156  0.1778 -0.1199 -1.7713
  517MOL0     H69757   5.708   7.409   7.070 -1.2480 -0.5684 -0.2081
  517MOL0     H69758   5.823   7.419   7.197 -0.7189 -0.6861  1.9145
  517MOL0     H69759   6.059   7.102   7.324 -2.5030 -0.7464  0.2050
  517MOL0     H69760   6.282   7.098   7.408  0.1742  0.4938 -0.8815
  517MOL0     H69761   6.390   7.068   7.756 -2.3053  1.3703 -0.1103
  517MOL0     H69762   6.415   7.013   7.592 -3.6890 -0.2069  1.6616
  517MOL0     H69763   6.608   7.209   7.722  1.8675 -0.6164 -0.3623
  517MOL0     H69764   6.619   7.029   7.732 -0.3469 -1.8895 -1.3127
  517MOL0     H69765   6.610   7.039   7.471  0.0384  0.9093  0.0893
  517MOL0     H69766   6.765   7.092   7.557 -0.4294 -3.5856 -0.0534
  517MOL0     H69767   6.559   7.258   7.411 -0.0509  1.1227  0.0842
  517MOL0     H69768   6.668   7.333   7.525 -2.1657  1.5283 -1.1075
  517MOL0     H69769   6.759   7.141   7.314  1.7505  0.4766 -0.4208
  517MOL0     H69770   6.853   7.276   7.399 -1.2971  0.5217  2.2021
  517MOL0     H69771   6.626   7.329   7.203 -0.8574  4.5983 -0.8666
  517MOL0     H69772   6.753   7.439   7.262  0.4645 -0.0773 -2.9289
  517MOL0     H69773   6.810   7.204   7.074 -1.8705  0.4420 -3.6143
  517MOL0     H69774   6.925   7.336   7.121 -0.7453  2.9932  0.1190
  517MOL0     H69775   6.823   7.382   6.895  1.4520  0.1633  1.1281
  517MOL0     H69776   6.735   7.482   7.001  0.2945  1.3653 -1.4250
  517MOL0     H69777   6.178   7.352   7.742  0.3588  0.0374  0.5872
  517MOL0     H69778   5.957   7.407   7.623  0.0788  0.4244 -0.1199
  517MOL0     H69779   5.508   7.296   7.567  0.4588  0.4748 -0.0210
  517MOL0     H69780   5.285   7.318   7.445 -1.2714  0.3982 -2.5908
  517MOL0     H69781   6.033   8.624   7.184 -2.5109 -4.1998 -0.7315
  517MOL0     H69782   6.257   8.534   7.216  0.8607 -1.3038  0.8118
  517MOL0     H69783   6.665   8.527   7.686 -0.0993 -2.3341  1.7984
  517MOL0     H69784   6.848   8.334   7.709  1.2882 -1.9071 -0.2171
  517MOL0     H69785   6.847   7.974   7.449 -0.9829  0.5954  1.9810
  517MOL0     H69786   6.920   8.112   7.361  0.0136 -0.4286  0.0741
  517MOL0     H69787   7.133   8.091   7.511  1.2990 -0.6011 -0.1661
  517MOL0     H69788   7.094   7.960   7.401  1.8212 -0.9720  0.8055
  517MOL0     H69789   7.009   7.818   7.599 -1.2107 -0.2681 -1.2160
  517MOL0     H69790   7.039   7.955   7.696  1.4412 -1.5373  1.1237
  517MOL0     H69791   7.268   7.828   7.524  1.9997 -1.3723  1.7050
  517MOL0     H69792   7.237   7.793   7.689  0.3220 -0.1300 -0.9806
  517MOL0     H69793   7.454   8.151   7.710 -0.2040  0.4422  0.9568
  517MOL0     H69794   6.692   8.134   7.372 -4.1669 -0.9265 -0.7205
  517MOL0     H69795   6.516   8.297   7.350 -1.4287 -3.0894  2.5079
  518MOL0     O69796   9.167   5.549   6.867  0.5563  0.0001  0.1195
  518MOL0     C69797   9.168   5.483   6.966  0.2780 -0.0365 -0.4237
  518MOL0     O69798   9.161   5.343   6.977  0.7589 -0.4816 -0.1697
  518MOL0     C69799   9.118   5.275   6.863  0.1484  0.1212  0.0345
  518MOL0     C69800   9.058   5.327   6.748  0.1472  0.6159  0.1182
  518MOL0     C69801   9.032   5.245   6.643  0.1525 -0.1137  0.6414
  518MOL0     C69802   9.070   5.108   6.649  0.0518  0.2694  0.5862
  518MOL0     O69803   9.058   5.017   6.541 -0.6764  0.3441 -0.4384
  518MOL0     C69804   9.015   5.073   6.415  0.1250 -0.0343 -0.6233
  518MOL0     C69805   9.028   4.951   6.315  0.7909 -0.8355  0.0256
  518MOL0     C69806   8.928   4.963   6.209  0.2568  0.0670  0.2350
  518MOL0     C69807   8.900   4.824   6.142 -0.0252 -0.3878  0.6317
  518MOL0     C69808   8.797   4.818   6.037  0.0615  0.1684  0.1069
  518MOL0     C69809   8.812   4.940   5.935 -0.0645  0.3029 -0.7565
  518MOL0     C69810   8.719   4.931   5.816 -0.5948 -0.5429  0.2970
  518MOL0     C69811   8.578   4.970   5.853 -0.2434  0.2686  0.0943
  518MOL0     N69812   8.572   5.111   5.906  0.4861 -0.2220 -0.4914
  518MOL0     C69813   8.574   5.162   6.035  0.0196  0.7662  1.0963
  518MOL0     C69814   8.558   5.293   6.011  0.2327 -0.2961  0.3529
  518MOL0     C69815   8.533   5.405   6.114 -0.5184  0.1696  0.5224
  518MOL0     C69816   8.651   5.433   6.203 -0.7758 -0.9253  0.0622
  518MOL0     C69817   8.749   5.545   6.166  0.6405  0.5618  0.1947
  518MOL0     C69818   8.902   5.508   6.181 -0.1989  0.5780 -0.6986
  518MOL0     O69819   8.921   5.443   6.315 -0.0551  0.1411  0.0387
  518MOL0     C69820   8.983   5.535   6.395 -0.7679 -0.1484 -0.4731
  518MOL0     C69821   8.898   5.625   6.462  0.3491 -0.3506 -0.7793
  518MOL0     C69822   8.949   5.731   6.544 -0.2833 -0.9455  0.8532
  518MOL0     C69823   8.853   5.829   6.601  0.0752  0.3989 -0.4113
  518MOL0     C69824   9.092   5.737   6.572 -0.0791  0.3855  1.9010
  518MOL0     C69825   9.155   5.829   6.676 -0.5421 -0.2962  0.5515
  518MOL0     O69826   9.300   5.821   6.673  0.1501 -0.3345  0.0377
  518MOL0     C69827   9.382   5.912   6.745 -0.1786  0.3555  0.1062
  518MOL0     C69828   9.507   5.863   6.762  0.0349 -0.0574  0.0002
  518MOL0     C69829   9.606   5.922   6.851 -0.2981  0.3056  0.3405
  518MOL0     C69830   9.583   6.049   6.911 -0.2842 -0.6585 -0.4517
  518MOL0     O69831   9.676   6.122   6.984  0.6598  0.6847 -0.1557
  518MOL0     C69832   9.803   6.130   6.918 -0.1964 -0.2459 -0.1788
  518MOL0     C69833   9.906   6.220   6.989 -0.2171 -0.0977  0.0526
  518MOL0     C69834   9.954   6.143   7.108 -0.4318 -0.4063  0.4947
  518MOL0     C69835  10.091   6.186   7.152 -0.3123 -0.1972 -0.8264
  518MOL0     C69836  10.123   6.117   7.288 -0.5257 -0.0155 -0.4475
  518MOL0     C69837  10.038   6.155   7.411 -1.1263  0.1413 -0.2914
  518MOL0     C69838  10.088   6.065   7.528  0.6976 -0.0352  0.1923
  518MOL0     C69839   9.987   6.076   7.641  0.5657  0.3050 -0.1556
  518MOL0    Cl69840  10.023   5.945   7.751  0.0725 -0.2147 -0.0908
  518MOL0     C69841   9.457   6.103   6.886 -0.5635  0.0509 -0.1134
  518MOL0     C69842   9.356   6.033   6.812 -0.0236 -0.1381 -0.0132
  518MOL0     O69843   9.085   5.902   6.746 -0.0009  0.4101 -0.6363
  518MOL0     C69844   9.169   5.642   6.511  0.1471  0.6225 -0.7163
  518MOL0     C69845   9.121   5.543   6.424  0.1892 -0.0561 -0.7837
  518MOL0     N69846   8.555   5.324   5.876  0.6016 -0.0638 -0.0899
  518MOL0     N69847   8.578   5.207   5.818  0.3395 -1.9026  0.5919
  518MOL0     C69848   9.121   5.053   6.766 -0.9254  0.3227 -0.8317
  518MOL0     C69849   9.151   5.140   6.879 -0.8710 -0.0347  0.7641
  518MOL0     C69850   9.221   5.553   7.087  0.1131  0.3787  0.0577
  518MOL0     C69851   9.260   5.490   7.202  0.0918 -0.3592 -1.1875
  518MOL0     C69852   9.314   5.552   7.316 -0.2543  0.0034  0.0052
  518MOL0     C69853   9.318   5.690   7.321  0.6192  1.0892 -0.6738
  518MOL0     O69854   9.349   5.757   7.440  0.6544  0.3747  0.1243
  518MOL0     C69855   9.455   5.690   7.515 -0.6085 -0.8350 -0.1628
  518MOL0     C69856   9.402   5.648   7.650 -0.4339 -0.5611 -1.1049
  518MOL0     C69857   9.521   5.646   7.760 -0.0022  0.2255  0.1538
  518MOL0     C69858   9.464   5.613   7.898 -0.2923 -0.6285 -0.5529
  518MOL0     C69859   9.566   5.625   7.998  0.1335  0.1195  0.1723
  518MOL0     C69860   9.662   5.624   8.078  0.3633 -0.3449  0.5652
  518MOL0     C69861   9.285   5.765   7.213 -0.1906 -0.1327  0.6090
  518MOL0     C69862   9.245   5.696   7.092  0.6890  0.5453 -0.7835
  518MOL0     H69863   9.026   5.429   6.730  1.3856  1.5384  2.5969
  518MOL0     H69864   9.004   5.294   6.550 -0.4280 -1.1717  0.2419
  518MOL0     H69865   8.910   5.094   6.438  0.0783  0.5834 -1.3687
  518MOL0     H69866   9.065   5.163   6.378  0.9441  0.3545  1.3083
  518MOL0     H69867   9.129   4.950   6.275  1.3278 -2.3059  1.3085
  518MOL0     H69868   9.005   4.862   6.375 -0.8009  0.1277  0.9202
  518MOL0     H69869   8.831   5.005   6.238 -0.4303 -1.2311 -0.1069
  518MOL0     H69870   8.965   5.025   6.126 -5.1670  2.0667 -1.1363
  518MOL0     H69871   8.990   4.783   6.096 -1.3959 -0.5922 -2.0782
  518MOL0     H69872   8.866   4.756   6.220 -1.0491 -0.7208 -0.0798
  518MOL0     H69873   8.802   4.718   5.994  3.5641 -0.1563  0.9196
  518MOL0     H69874   8.704   4.829   6.094 -0.6349 -1.8810 -0.5503
  518MOL0     H69875   8.797   5.033   5.990  3.0849 -0.1132  1.0191
  518MOL0     H69876   8.915   4.955   5.901 -0.3513  3.1045 -0.6124
  518MOL0     H69877   8.749   5.004   5.739  0.9114 -1.1717  0.2467
  518MOL0     H69878   8.731   4.829   5.778 -0.2262 -0.1561 -0.6709
  518MOL0     H69879   8.555   4.898   5.932  1.2715 -0.3991 -0.0440
  518MOL0     H69880   8.514   4.952   5.766  0.1022  1.8627 -0.5268
  518MOL0     H69881   8.580   5.115   6.133  0.7416 -1.2721  0.1461
  518MOL0     H69882   8.504   5.498   6.065  1.1117  0.7243  0.5435
  518MOL0     H69883   8.444   5.379   6.171 -0.0953 -1.4329  0.5112
  518MOL0     H69884   8.707   5.339   6.208  1.5148  0.1655 -2.5025
  518MOL0     H69885   8.613   5.467   6.300  2.8328 -0.7532  1.5891
  518MOL0     H69886   8.724   5.628   6.232 -1.5912  0.2906 -0.2383
  518MOL0     H69887   8.725   5.580   6.065 -0.4351  1.1314  0.6304
  518MOL0     H69888   8.966   5.595   6.163 -1.3342  1.6302  0.1942
  518MOL0     H69889   8.943   5.431   6.115  3.1020  0.1386  1.5769
  518MOL0     H69890   8.790   5.614   6.468  0.1737  1.6476  0.5398
  518MOL0     H69891   8.834   5.815   6.708  0.8018 -0.5891 -0.3931
  518MOL0     H69892   8.886   5.930   6.574 -1.0008  1.3479  1.6239
  518MOL0     H69893   8.756   5.811   6.555 -0.8616  2.5342  0.5895
  518MOL0     H69894   9.519   5.768   6.710 -1.3352  0.7140 -1.8186
  518MOL0     H69895   9.704   5.880   6.872 -0.7957 -0.3820  1.3842
  518MOL0     H69896   9.845   6.031   6.897 -0.4362 -0.6779  1.2811
  518MOL0     H69897   9.789   6.184   6.824 -1.3681  2.3482  1.3813
  518MOL0     H69898   9.982   6.236   6.911 -2.4922  2.5501 -1.8131
  518MOL0     H69899   9.878   6.323   7.014 -0.9181 -0.3917  0.4997
  518MOL0     H69900   9.971   6.040   7.077  2.1398 -0.0945  0.6044
  518MOL0     H69901   9.878   6.158   7.185 -3.0813  1.2435 -2.2604
  518MOL0     H69902  10.172   6.163   7.083 -0.3109 -0.6278 -0.6816
  518MOL0     H69903  10.098   6.294   7.167 -0.6025 -0.3234  0.3771
  518MOL0     H69904  10.225   6.150   7.308 -0.6495  0.2247 -0.2075
  518MOL0     H69905  10.112   6.009   7.275 -1.0090  0.2211 -2.2901
  518MOL0     H69906  10.065   6.258   7.433  1.5027 -0.1925 -1.5806
  518MOL0     H69907   9.934   6.144   7.380 -1.0910  1.1234 -0.8150
  518MOL0     H69908  10.186   6.100   7.560  2.2263 -0.4462 -3.5374
  518MOL0     H69909  10.089   5.959   7.500 -0.7558 -0.2294  0.7583
  518MOL0     H69910   9.884   6.068   7.607  1.5504  1.3174 -3.9526
  518MOL0     H69911   9.998   6.172   7.691 -0.1054 -0.0058  0.5891
  518MOL0     H69912   9.440   6.204   6.921 -0.8276  0.1800 -0.6057
  518MOL0     H69913   9.252   6.064   6.818 -0.2771 -1.1515  4.5125
  518MOL0     H69914   9.272   5.624   6.541 -0.3069 -0.2328  0.3907
  518MOL0     H69915   9.187   5.467   6.383 -1.8044 -2.2421 -0.1760
  518MOL0     H69916   9.145   4.947   6.770 -1.7561  0.1407 -0.2992
  518MOL0     H69917   9.191   5.098   6.970 -0.6118  1.0692  1.1737
  518MOL0     H69918   9.248   5.382   7.204 -1.2821 -0.2203 -0.8134
  518MOL0     H69919   9.324   5.491   7.405 -2.1773 -0.7582 -0.2531
  518MOL0     H69920   9.504   5.601   7.476 -0.3735  0.5299 -3.2853
  518MOL0     H69921   9.530   5.768   7.533  0.3239 -1.5916 -0.7222
  518MOL0     H69922   9.343   5.558   7.633 -1.6103  0.2110 -1.2295
  518MOL0     H69923   9.329   5.722   7.684 -1.3152 -0.3190 -3.3538
  518MOL0     H69924   9.577   5.740   7.764 -0.8820  0.7254  1.9392
  518MOL0     H69925   9.588   5.566   7.729 -3.0480 -2.0683 -0.9934
  518MOL0     H69926   9.427   5.510   7.908 -0.5521 -0.3681  1.7990
  518MOL0     H69927   9.372   5.669   7.915 -0.0210 -0.8468  2.1146
  518MOL0     H69928   9.753   5.645   8.129 -1.0738  3.0244  2.0424
  518MOL0     H69929   9.300   5.872   7.224  3.5542 -0.7261  2.8651
  518MOL0     H69930   9.205   5.758   7.012  0.2718  0.6216 -0.5159
  519MOL0     O69931   4.131   6.989   1.924 -0.0754 -0.1258  0.7819
  519MOL0     C69932   4.159   7.101   1.874 -0.4170  0.2099 -0.4664
  519MOL0     O69933   4.068   7.198   1.846 -0.5768  0.4269  0.0506
  519MOL0     C69934   3.933   7.179   1.881 -0.4945 -1.2117 -0.0380
  519MOL0     C69935   3.885   7.233   1.997 -0.1216  1.5497  0.5747
  519MOL0     C69936   3.756   7.199   2.042 -0.0016 -0.1459 -0.2558
  519MOL0     C69937   3.675   7.122   1.953 -0.2436  0.2318 -0.1281
  519MOL0     O69938   3.548   7.107   2.002 -0.3810 -0.4422  0.4798
  519MOL0     C69939   3.446   7.059   1.909 -0.2612 -0.4384 -0.7762
  519MOL0     C69940   3.315   7.127   1.965 -0.1983 -0.8380  0.3204
  519MOL0     C69941   3.225   7.026   2.038 -0.3457 -0.3513 -0.6267
  519MOL0     C69942   3.147   6.933   1.943  0.1097  0.3556  0.7876
  519MOL0     C69943   3.057   6.822   2.015  0.8791  0.0852 -1.0239
  519MOL0     C69944   2.958   6.877   2.117 -0.1891 -0.9186 -0.6293
  519MOL0     C69945   2.838   6.775   2.128 -0.1078 -0.3534  0.4512
  519MOL0     C69946   2.727   6.847   2.206 -0.0603 -0.6057  0.4676
  519MOL0     N69947   2.610   6.771   2.221 -1.5598 -0.3819 -0.2257
  519MOL0     C69948   2.500   6.782   2.150 -0.0345  0.4609 -0.0317
  519MOL0     C69949   2.426   6.680   2.194  0.1850 -0.3329  0.0166
  519MOL0     C69950   2.286   6.641   2.144 -0.6407 -0.5079  0.2064
  519MOL0     C69951   2.181   6.756   2.135 -1.0005  0.4653 -0.2871
  519MOL0     C69952   2.185   6.843   2.262  0.3094  0.3518  1.3276
  519MOL0     C69953   2.069   6.940   2.272 -0.7570  0.1293  0.9916
  519MOL0     O69954   1.951   6.859   2.289  0.3522 -0.3691  0.3907
  519MOL0     C69955   1.831   6.922   2.332  0.0708 -0.2459 -0.1312
  519MOL0     C69956   1.718   6.844   2.337 -0.6918 -0.4588  0.2361
  519MOL0     C69957   1.596   6.903   2.375 -0.3417  0.4700  0.0942
  519MOL0     C69958   1.477   6.807   2.365  1.5088  0.2274 -0.0860
  519MOL0     C69959   1.596   7.029   2.432 -0.2720  0.7946  0.4322
  519MOL0     C69960   1.475   7.074   2.500 -0.3054  0.5131 -0.3773
  519MOL0     O69961   1.465   7.212   2.483  0.1005 -0.3881  0.3982
  519MOL0     C69962   1.349   7.269   2.529  0.3131  0.7178  0.3776
  519MOL0     C69963   1.218   7.258   2.473 -0.9503 -0.1686  0.2785
  519MOL0     C69964   1.108   7.315   2.531 -0.6080  0.5045 -0.1113
  519MOL0     C69965   1.121   7.382   2.659  0.0891 -0.5665  0.1118
  519MOL0     O69966   1.007   7.445   2.719  0.0643  0.0024 -0.3552
  519MOL0     C69967   0.999   7.421   2.860 -0.6761 -0.7184 -0.0334
  519MOL0     C69968   0.853   7.469   2.898 -0.3845  0.2416 -0.1079
  519MOL0     C69969   0.801   7.430   3.040 -0.4150 -0.7841 -0.1240
  519MOL0     C69970   0.662   7.496   3.060  0.2363  0.4329  0.3741
  519MOL0     C69971   0.615   7.472   3.205 -0.1678 -0.1180 -0.2495
  519MOL0     C69972   0.466   7.437   3.213 -1.0385 -0.2969 -0.4924
  519MOL0     C69973   0.385   7.557   3.159  0.2723  0.3689  0.3020
  519MOL0     C69974   0.326   7.658   3.268  0.0293  0.0122  0.9760
  519MOL0    Cl69975   0.192   7.597   3.369 -0.3166  0.4609  0.3397
  519MOL0     C69976   1.248   7.400   2.709 -0.2440 -0.6719 -0.7513
  519MOL0     C69977   1.366   7.355   2.644  0.5699 -0.1284 -0.4930
  519MOL0     O69978   1.402   7.004   2.564 -0.3886  0.1668  0.3486
  519MOL0     C69979   1.719   7.097   2.448  0.6880 -0.2839  0.8411
  519MOL0     C69980   1.830   7.049   2.387 -0.3028 -0.7111  1.6246
  519MOL0     N69981   2.492   6.616   2.298 -0.3678 -0.5299  0.0482
  519MOL0     N69982   2.605   6.668   2.311 -0.5816  0.3028  0.2915
  519MOL0     C69983   3.728   7.069   1.838  0.6774  0.8824 -0.0984
  519MOL0     C69984   3.857   7.095   1.802  0.0805 -0.7751 -0.6940
  519MOL0     C69985   4.299   7.124   1.852 -0.0592  0.9250 -0.1153
  519MOL0     C69986   4.406   7.033   1.865 -0.5736  0.4096 -0.8058
  519MOL0     C69987   4.537   7.067   1.828 -0.2220  0.3812 -0.8185
  519MOL0     C69988   4.566   7.189   1.767 -1.1171  0.6853  0.0249
  519MOL0     O69989   4.700   7.207   1.748  0.4574  0.2330  0.7318
  519MOL0     C69990   4.736   7.295   1.641  0.1421 -0.5105  0.7815
  519MOL0     C69991   4.878   7.259   1.595  0.1446  0.1979 -0.2703
  519MOL0     C69992   4.917   7.115   1.559  0.2073 -0.3244 -0.2961
  519MOL0     C69993   4.794   7.050   1.484 -0.1018 -0.5394  0.7468
  519MOL0     C69994   4.822   6.922   1.421  0.9859 -0.0561 -0.6058
  519MOL0     C69995   4.837   6.808   1.375  0.2483 -0.4542  0.7520
  519MOL0     C69996   4.463   7.280   1.750 -0.7119 -0.5530  0.0417
  519MOL0     C69997   4.338   7.240   1.787  0.0176  0.2544 -0.1464
  519MOL0     H69998   3.953   7.304   2.042  1.8456 -1.0725  2.0067
  519MOL0     H69999   3.718   7.244   2.133  0.9697  0.1999 -0.0035
  519MOL0     H70000   3.463   7.114   1.816  0.8586  0.4371 -0.0794
  519MOL0     H70001   3.434   6.951   1.896  1.4173 -0.8185  0.4523
  519MOL0     H70002   3.343   7.210   2.030  1.8591 -2.3794  1.5585
  519MOL0     H70003   3.259   7.172   1.883  0.3657  0.6678  0.7428
  519MOL0     H70004   3.278   6.970   2.116 -1.3288 -1.2612 -0.5941
  519MOL0     H70005   3.157   7.083   2.103  1.1275 -0.3782  0.9994
  519MOL0     H70006   3.098   6.983   1.859  2.0724 -0.7182 -1.1251
  519MOL0     H70007   3.225   6.880   1.887  1.9827  2.6785  1.0618
  519MOL0     H70008   3.003   6.770   1.936  0.3871 -1.0970  0.0648
  519MOL0     H70009   3.119   6.750   2.069 -0.2612 -1.1084 -1.2673
  519MOL0     H70010   3.019   6.889   2.207 -1.9087  0.3463  0.4343
  519MOL0     H70011   2.924   6.970   2.070  1.9864  0.0428 -0.4011
  519MOL0     H70012   2.802   6.758   2.026 -2.0250  1.5819  0.7333
  519MOL0     H70013   2.881   6.683   2.168 -0.2526 -0.1781  1.0196
  519MOL0     H70014   2.700   6.937   2.151 -2.5919  0.2412  2.8193
  519MOL0     H70015   2.763   6.873   2.306  0.2115  0.9823 -0.0242
  519MOL0     H70016   2.495   6.850   2.065  0.0572  2.2368  1.3147
  519MOL0     H70017   2.295   6.594   2.046 -2.1470  1.2019 -0.8207
  519MOL0     H70018   2.243   6.573   2.218 -0.9484  0.1307  0.6239
  519MOL0     H70019   2.083   6.715   2.110 -1.7810  1.3113  1.3065
  519MOL0     H70020   2.210   6.831   2.060  0.0126 -1.1623 -1.6154
  519MOL0     H70021   2.282   6.891   2.274  1.5304 -2.1694  2.4068
  519MOL0     H70022   2.179   6.769   2.343 -0.9753  0.0205  0.9537
  519MOL0     H70023   2.060   6.994   2.177  1.9571 -1.0452 -0.0528
  519MOL0     H70024   2.090   7.013   2.350  1.8179  0.1400  0.3857
  519MOL0     H70025   1.730   6.742   2.302  1.0799 -1.2715  2.8783
  519MOL0     H70026   1.495   6.726   2.294 -0.6467  0.4548 -0.9681
  519MOL0     H70027   1.464   6.769   2.467  0.0745 -0.5685 -0.5464
  519MOL0     H70028   1.384   6.857   2.337 -0.3520 -1.6460  2.2702
  519MOL0     H70029   1.214   7.203   2.379  1.6986 -0.2345  0.1446
  519MOL0     H70030   1.009   7.297   2.490 -0.6590 -1.3999  0.7123
  519MOL0     H70031   1.010   7.317   2.894  0.4754 -0.6046 -0.0276
  519MOL0     H70032   1.079   7.480   2.905 -0.7334  0.8200 -1.8458
  519MOL0     H70033   0.853   7.578   2.885  4.0607  0.4268 -0.1310
  519MOL0     H70034   0.782   7.429   2.826 -1.4501 -0.7666  1.4343
  519MOL0     H70035   0.879   7.453   3.112 -2.3162 -0.2557  1.8686
  519MOL0     H70036   0.783   7.322   3.033 -0.6405 -0.6960 -1.2128
  519MOL0     H70037   0.672   7.604   3.046  0.1099  0.2344 -1.6213
  519MOL0     H70038   0.588   7.465   2.985  2.6683 -1.2519 -1.4860
  519MOL0     H70039   0.634   7.556   3.273  0.1477  0.7098 -1.3252
  519MOL0     H70040   0.670   7.394   3.258 -0.9638 -1.4274 -1.2954
  519MOL0     H70041   0.445   7.347   3.154  0.4865 -1.5633  0.7922
  519MOL0     H70042   0.423   7.419   3.312 -2.5517  2.6645 -0.5139
  519MOL0     H70043   0.294   7.524   3.108 -0.4740  2.3147  0.2996
  519MOL0     H70044   0.436   7.610   3.079 -3.7613  1.8644 -1.5480
  519MOL0     H70045   0.296   7.749   3.216 -2.3675  0.5630  3.1023
  519MOL0     H70046   0.410   7.698   3.326 -0.3293  1.0854  0.7725
  519MOL0     H70047   1.275   7.450   2.801  3.5823  1.5319 -2.7873
  519MOL0     H70048   1.464   7.354   2.690  0.5341  0.3400 -0.4027
  519MOL0     H70049   1.718   7.194   2.497 -1.3428  0.7023 -0.9544
  519MOL0     H70050   1.918   7.113   2.391 -1.0886  0.5074  0.3791
  519MOL0     H70051   3.672   7.003   1.772 -0.5184  0.0102  1.6993
  519MOL0     H70052   3.901   7.050   1.713 -0.0130 -0.6051 -0.8253
  519MOL0     H70053   4.387   6.933   1.900  1.6745 -0.8617 -2.8968
  519MOL0     H70054   4.620   7.000   1.849  0.9229  2.4410  1.7853
  519MOL0     H70055   4.663   7.305   1.561  1.2777 -1.1992 -0.3868
  519MOL0     H70056   4.746   7.396   1.682 -0.9213 -0.5086  1.0557
  519MOL0     H70057   4.943   7.290   1.677  0.1095  2.6974 -1.1239
  519MOL0     H70058   4.892   7.327   1.511 -0.5673  1.2487  0.4504
  519MOL0     H70059   4.941   7.056   1.648  0.5783  0.0844 -0.1232
  519MOL0     H70060   5.004   7.125   1.494  0.9753  0.1326  0.7687
  519MOL0     H70061   4.742   7.113   1.411 -0.5770 -0.6778  0.9626
  519MOL0     H70062   4.711   7.037   1.554 -2.5628  1.1945 -1.6123
  519MOL0     H70063   4.845   6.706   1.344  1.8416 -0.2617  0.4349
  519MOL0     H70064   4.490   7.377   1.711 -0.1104 -0.9765 -0.6344
  519MOL0     H70065   4.259   7.312   1.766 -1.0445 -0.7162  0.4049
  520MOL0     O70066  10.269   3.086   4.661  0.3799 -0.2196 -0.0832
  520MOL0     C70067  10.272   3.201   4.627  1.0556  1.0844  0.6184
  520MOL0     O70068  10.165   3.290   4.628 -1.0134  0.3045  0.0287
  520MOL0     C70069  10.051   3.245   4.561  0.1248 -0.4367  0.4095
  520MOL0     C70070   9.931   3.234   4.624  0.2298  0.0207  0.1136
  520MOL0     C70071   9.809   3.213   4.555 -0.1107  0.4688 -0.3873
  520MOL0     C70072   9.814   3.183   4.416 -0.6890 -0.2604  0.1468
  520MOL0     O70073   9.702   3.167   4.338  0.0105  0.1562 -0.8549
  520MOL0     C70074   9.718   3.059   4.235  0.0713  0.7332 -0.1695
  520MOL0     C70075   9.581   2.995   4.218 -0.1002  0.0606  0.7294
  520MOL0     C70076   9.576   2.918   4.089 -0.9940  0.0427 -0.0188
  520MOL0     C70077   9.444   2.856   4.079  0.0359 -0.0703  0.7412
  520MOL0     C70078   9.437   2.800   3.938 -0.0925  0.0200  0.1760
  520MOL0     C70079   9.303   2.718   3.917  0.1460  1.1227  0.6006
  520MOL0     C70080   9.314   2.652   3.775  0.2616  0.1464  0.1325
  520MOL0     C70081   9.201   2.547   3.762  0.2137  0.1146  0.1077
  520MOL0     N70082   9.069   2.610   3.792  0.4226  0.5719  0.3163
  520MOL0     C70083   9.004   2.593   3.905  0.2323 -0.5720 -0.0618
  520MOL0     C70084   8.879   2.647   3.881  0.6537  0.5160 -0.1582
  520MOL0     C70085   8.754   2.627   3.970  0.6338  0.0259  0.8837
  520MOL0     C70086   8.714   2.475   3.981  0.3583 -0.0812 -0.1669
  520MOL0     C70087   8.700   2.402   3.838 -0.5573 -0.3510 -0.9891
  520MOL0     C70088   8.592   2.457   3.761  0.4173 -0.5331 -0.1069
  520MOL0     O70089   8.469   2.483   3.822 -0.2849  0.2696 -0.1007
  520MOL0     C70090   8.366   2.387   3.842  0.2189 -1.0691  0.7689
  520MOL0     C70091   8.355   2.274   3.759 -0.4105  1.0158  0.5952
  520MOL0     C70092   8.245   2.191   3.764 -0.1799  0.8203 -0.5815
  520MOL0     C70093   8.236   2.069   3.676  0.1685  0.5675 -0.1546
  520MOL0     C70094   8.144   2.219   3.862 -0.1284  0.0429  0.6219
  520MOL0     C70095   8.014   2.142   3.868 -0.3825 -0.5379  0.4218
  520MOL0     O70096   7.953   2.144   3.986 -0.1418 -0.2036 -0.6862
  520MOL0     C70097   7.832   2.083   4.000 -0.2316  0.5074 -0.4130
  520MOL0     C70098   7.731   2.151   4.071 -0.3620  0.1165 -0.0858
  520MOL0     C70099   7.618   2.076   4.111 -0.6576  0.1657 -0.5949
  520MOL0     C70100   7.592   1.944   4.073 -0.0610 -0.2913  0.2025
  520MOL0     O70101   7.488   1.882   4.127 -0.6431  0.4265 -0.0494
  520MOL0     C70102   7.457   1.747   4.074  0.6499  0.2750  0.1894
  520MOL0     C70103   7.307   1.729   4.116  0.6992 -0.4135  0.3562
  520MOL0     C70104   7.207   1.784   4.019 -0.5322 -0.0422  0.0247
  520MOL0     C70105   7.059   1.767   4.066  0.0201  0.4961 -1.2997
  520MOL0     C70106   6.950   1.827   3.974 -0.7105 -0.4090  0.6907
  520MOL0     C70107   6.804   1.807   4.036 -0.8185 -0.0168 -0.0422
  520MOL0     C70108   6.692   1.842   3.940 -0.4459  0.2920  0.8948
  520MOL0     C70109   6.566   1.774   3.971 -0.2190  0.1440  1.1113
  520MOL0    Cl70110   6.478   1.862   4.100 -0.1287  0.6042  0.1497
  520MOL0     C70111   7.681   1.883   3.981 -0.0376  0.2969 -0.6209
  520MOL0     C70112   7.801   1.950   3.952  0.0339 -0.2075  0.0198
  520MOL0     O70113   7.963   2.097   3.766 -0.3936 -0.2322  0.3063
  520MOL0     C70114   8.158   2.332   3.951  0.1766 -0.3131  1.0209
  520MOL0     C70115   8.270   2.419   3.931  0.6487 -0.0219 -0.5897
  520MOL0     N70116   8.867   2.685   3.750  0.2793 -0.3529  0.9124
  520MOL0     N70117   8.985   2.670   3.696 -0.8106  0.8035 -1.1920
  520MOL0     C70118   9.943   3.177   4.355 -0.1567  0.4862  0.1624
  520MOL0     C70119  10.061   3.212   4.423  0.0582 -0.8591 -0.3287
  520MOL0     C70120  10.409   3.253   4.608 -0.8407 -0.0967  0.1336
  520MOL0     C70121  10.522   3.189   4.662  0.1633 -0.9171  0.2589
  520MOL0     C70122  10.644   3.242   4.639 -0.1270  0.1359  0.6919
  520MOL0     C70123  10.664   3.350   4.547  0.7134 -0.5147  0.5145
  520MOL0     O70124  10.770   3.407   4.498 -1.1588  0.3434 -0.0895
  520MOL0     C70125  10.893   3.362   4.562  0.6797  0.1524 -0.5637
  520MOL0     C70126  11.006   3.461   4.529 -0.7178 -0.3130 -0.1513
  520MOL0     C70127  11.140   3.405   4.597  0.1293  0.3157 -0.0179
  520MOL0     C70128  11.259   3.466   4.533 -0.8102 -0.5217 -0.5799
  520MOL0     C70129  11.375   3.403   4.597  0.2119  0.3038  0.6041
  520MOL0     C70130  11.472   3.364   4.660 -0.0731 -0.2086  0.8490
  520MOL0     C70131  10.548   3.425   4.506  0.4350  0.3618 -0.3964
  520MOL0     C70132  10.426   3.380   4.549 -0.0407  0.0888  0.3609
  520MOL0     H70133   9.916   3.251   4.730 -2.6859 -4.7699  0.8006
  520MOL0     H70134   9.710   3.201   4.599 -0.3428  3.4440  0.0811
  520MOL0     H70135   9.753   3.093   4.137  1.8869 -0.7148 -0.0859
  520MOL0     H70136   9.788   2.981   4.267  0.9306  1.2681 -0.6992
  520MOL0     H70137   9.569   2.931   4.305  1.5122  1.0417  1.7365
  520MOL0     H70138   9.505   3.074   4.219  0.2715  0.4238  0.7411
  520MOL0     H70139   9.587   2.990   4.007  0.2512 -0.8808 -0.7056
  520MOL0     H70140   9.658   2.846   4.091 -0.6878  0.3950  0.2196
  520MOL0     H70141   9.440   2.775   4.153 -0.8493 -0.3106  0.4436
  520MOL0     H70142   9.370   2.935   4.096  1.7321  1.4869  1.2378
  520MOL0     H70143   9.457   2.872   3.859  4.4462  0.0721  1.0945
  520MOL0     H70144   9.517   2.727   3.928  1.7951  2.0617 -0.5350
  520MOL0     H70145   9.299   2.630   3.982  0.3353 -1.9465 -3.1424
  520MOL0     H70146   9.219   2.784   3.939 -0.6673  0.0723  0.7253
  520MOL0     H70147   9.308   2.728   3.698  1.0722 -0.2994 -0.3849
  520MOL0     H70148   9.410   2.603   3.759  0.4859 -0.1318  2.0366
  520MOL0     H70149   9.222   2.472   3.839  3.6766  1.3638  0.5584
  520MOL0     H70150   9.197   2.496   3.666  0.7125  1.1330 -0.4759
  520MOL0     H70151   9.039   2.538   3.991  0.7138 -0.1270  0.0334
  520MOL0     H70152   8.758   2.669   4.071  0.1083  1.7896  0.1917
  520MOL0     H70153   8.673   2.682   3.923 -0.3939 -0.4234  2.0610
  520MOL0     H70154   8.622   2.454   4.037  1.4511 -1.0533  1.3670
  520MOL0     H70155   8.792   2.420   4.035  0.8285  0.0123 -0.7398
  520MOL0     H70156   8.674   2.296   3.844  3.4158 -1.4552  0.6898
  520MOL0     H70157   8.794   2.404   3.782  0.6116 -2.3391  0.7442
  520MOL0     H70158   8.577   2.405   3.666 -0.4733  1.2182 -0.9744
  520MOL0     H70159   8.627   2.553   3.724 -0.9580  0.2631  0.5816
  520MOL0     H70160   8.420   2.240   3.678 -0.4858  0.9453  0.5634
  520MOL0     H70161   8.202   1.985   3.738 -0.2587  1.9591  1.5633
  520MOL0     H70162   8.162   2.090   3.599 -0.7894 -0.4092  0.4576
  520MOL0     H70163   8.329   2.040   3.626  1.5501  2.1855  1.3387
  520MOL0     H70164   7.743   2.245   4.123  1.7200 -1.1543  1.9471
  520MOL0     H70165   7.559   2.127   4.187  2.1990  0.9228  1.2715
  520MOL0     H70166   7.448   1.753   3.965 -1.6718  0.8782  0.3610
  520MOL0     H70167   7.506   1.656   4.111 -0.9177 -0.4680  0.5426
  520MOL0     H70168   7.287   1.622   4.125 -0.6156 -0.2032  0.0468
  520MOL0     H70169   7.284   1.768   4.215  0.8707 -0.6745  0.5021
  520MOL0     H70170   7.213   1.721   3.930  0.6927 -0.3000  0.2675
  520MOL0     H70171   7.230   1.887   3.988 -0.1760 -0.4868 -1.2508
  520MOL0     H70172   7.040   1.660   4.074 -2.1113  0.9230  0.7648
  520MOL0     H70173   7.061   1.807   4.168  2.3829  1.0565 -1.5189
  520MOL0     H70174   6.949   1.774   3.878  1.6789 -2.0352  1.4581
  520MOL0     H70175   6.960   1.932   3.945 -0.7719 -1.0738 -2.0109
  520MOL0     H70176   6.788   1.703   4.067 -1.0056  0.3619  1.1703
  520MOL0     H70177   6.793   1.878   4.118 -1.6266 -1.0190  0.7548
  520MOL0     H70178   6.719   1.820   3.836 -4.2717  0.5860 -0.3116
  520MOL0     H70179   6.668   1.949   3.939 -2.3619 -0.1085  0.6967
  520MOL0     H70180   6.582   1.667   3.984 -1.1206 -0.0946  0.3546
  520MOL0     H70181   6.511   1.781   3.877  2.7326  0.8795 -0.6948
  520MOL0     H70182   7.667   1.778   3.958  2.2611 -0.5640  1.4551
  520MOL0     H70183   7.879   1.897   3.898 -1.3727  0.1828 -2.5300
  520MOL0     H70184   8.079   2.368   4.015 -1.1080  0.8173 -1.0734
  520MOL0     H70185   8.268   2.511   3.989 -1.7808  0.0953 -0.7507
  520MOL0     H70186   9.960   3.138   4.255  1.1540 -2.8937  1.5530
  520MOL0     H70187  10.144   3.198   4.354  0.5721  0.5837 -0.0407
  520MOL0     H70188  10.512   3.089   4.703  1.6090 -0.8613  0.7839
  520MOL0     H70189  10.732   3.201   4.688 -1.6975  2.8129  6.6291
  520MOL0     H70190  10.881   3.348   4.670 -0.0790 -1.4473 -0.8243
  520MOL0     H70191  10.921   3.262   4.528 -0.8699 -0.4578 -0.1436
  520MOL0     H70192  10.974   3.556   4.573 -3.8692 -1.3866  0.1179
  520MOL0     H70193  11.016   3.469   4.420 -0.4664 -1.2899 -0.2059
  520MOL0     H70194  11.139   3.296   4.587  0.5059  0.2745  0.3526
  520MOL0     H70195  11.140   3.422   4.705  1.3998  1.0124 -0.1130
  520MOL0     H70196  11.257   3.570   4.564  1.1589 -1.8970  5.4417
  520MOL0     H70197  11.253   3.445   4.425  0.0881  0.7047 -0.8839
  520MOL0     H70198  11.568   3.344   4.703  1.0510  2.0518 -0.4177
  520MOL0     H70199  10.566   3.508   4.439 -1.2390  1.5083  0.5016
  520MOL0     H70200  10.342   3.442   4.519 -0.5177 -0.5617  0.3176
  521MOL0     O70201   7.577   1.357   3.036 -0.5607 -0.1058  0.3059
  521MOL0     C70202   7.675   1.282   3.049 -0.1939  0.3674  0.7580
  521MOL0     O70203   7.693   1.165   2.993 -0.2655  0.4347  0.9104
  521MOL0     C70204   7.592   1.118   2.921  0.5485  0.2973  0.6257
  521MOL0     C70205   7.597   1.101   2.780 -0.0486  0.8470 -0.0660
  521MOL0     C70206   7.478   1.067   2.703 -0.0191 -0.5904 -0.9519
  521MOL0     C70207   7.357   1.050   2.773 -0.5454 -0.2942  0.3739
  521MOL0     O70208   7.247   1.019   2.694 -0.1264 -0.4880 -0.4074
  521MOL0     C70209   7.135   0.974   2.759 -0.0864  0.4767 -0.6810
  521MOL0     C70210   7.043   0.941   2.644  0.0935  0.0202  0.3863
  521MOL0     C70211   6.920   0.880   2.700  0.5446 -0.6073 -0.0089
  521MOL0     C70212   6.820   0.846   2.595 -0.3277 -0.3331 -0.8415
  521MOL0     C70213   6.691   0.788   2.651  0.0673 -0.2916 -0.0879
  521MOL0     C70214   6.583   0.764   2.545 -0.0427 -1.1352  1.1017
  521MOL0     C70215   6.453   0.713   2.604 -0.2869  0.7289 -0.2597
  521MOL0     C70216   6.386   0.797   2.712 -0.4684  0.2206  0.8021
  521MOL0     N70217   6.238   0.786   2.737 -0.4429  0.2030 -0.5139
  521MOL0     C70218   6.172   0.663   2.772  0.0383 -0.7788 -0.2734
  521MOL0     C70219   6.050   0.700   2.818  0.6422 -0.1897 -0.4344
  521MOL0     C70220   5.942   0.618   2.877 -0.2850  0.5358  0.8272
  521MOL0     C70221   5.809   0.672   2.824  0.2818  0.1513  0.5462
  521MOL0     C70222   5.685   0.614   2.884 -0.1172  0.1746  0.1428
  521MOL0     C70223   5.561   0.623   2.796  0.1615 -0.0335 -0.2345
  521MOL0     O70224   5.449   0.571   2.880  0.0780 -0.7807  0.2600
  521MOL0     C70225   5.318   0.578   2.818  0.3946 -0.2475 -0.0957
  521MOL0     C70226   5.300   0.599   2.680  0.7368  0.3997 -0.2464
  521MOL0     C70227   5.176   0.618   2.616  0.0640  1.1054  0.7222
  521MOL0     C70228   5.173   0.619   2.471  0.1625  0.0498 -0.4186
  521MOL0     C70229   5.063   0.603   2.697  0.3831 -0.2201  0.5474
  521MOL0     C70230   4.920   0.618   2.642 -0.0446 -0.7043 -0.7511
  521MOL0     O70231   4.819   0.563   2.722 -0.0251  0.1307  0.1590
  521MOL0     C70232   4.691   0.590   2.691  0.5866  0.2356 -0.2245
  521MOL0     C70233   4.620   0.566   2.575 -0.6339 -0.1197  0.2950
  521MOL0     C70234   4.498   0.627   2.548  0.5213 -0.1521 -0.2187
  521MOL0     C70235   4.428   0.697   2.654 -0.6112 -0.6160  0.0749
  521MOL0     O70236   4.314   0.762   2.621  0.0887 -0.0143  0.1592
  521MOL0     C70237   4.194   0.719   2.696 -0.1688 -0.2525 -0.7374
  521MOL0     C70238   4.066   0.703   2.600 -0.6245 -0.1631 -0.8889
  521MOL0     C70239   3.927   0.690   2.660 -0.6840 -0.2956  0.0264
  521MOL0     C70240   3.817   0.654   2.566  0.1719 -0.3921 -1.1886
  521MOL0     C70241   3.691   0.609   2.642 -0.7135 -0.2019 -0.3929
  521MOL0     C70242   3.620   0.729   2.695  0.1130  0.0825 -0.2180
  521MOL0     C70243   3.467   0.702   2.687  0.1493  0.3022  0.1112
  521MOL0     C70244   3.376   0.809   2.754  0.2337  0.2102 -0.0277
  521MOL0    Cl70245   3.201   0.806   2.705  0.4833  0.5249  0.0758
  521MOL0     C70246   4.491   0.716   2.772 -0.3688 -1.1046 -0.1560
  521MOL0     C70247   4.620   0.666   2.791 -0.2161  0.1263 -0.0612
  521MOL0     O70248   4.906   0.695   2.550  1.1169 -0.2909  0.4715
  521MOL0     C70249   5.082   0.580   2.839  0.0735  0.9161 -0.1354
  521MOL0     C70250   5.209   0.568   2.900  0.4253 -0.3354 -0.2865
  521MOL0     N70251   6.041   0.841   2.816  0.0377  0.4224  0.9301
  521MOL0     N70252   6.152   0.885   2.774  0.7725  0.0335  0.4015
  521MOL0     C70253   7.354   1.056   2.914 -0.0422 -0.2230  0.3689
  521MOL0     C70254   7.470   1.093   2.981  0.0460 -0.0599 -0.1076
  521MOL0     C70255   7.795   1.351   3.111  0.2638  0.2312 -0.4784
  521MOL0     C70256   7.789   1.491   3.126 -0.1794 -0.2310 -0.6950
  521MOL0     C70257   7.889   1.552   3.200  0.8618 -0.9395 -0.0473
  521MOL0     C70258   7.994   1.483   3.257  0.0471 -0.5834  0.5020
  521MOL0     O70259   8.099   1.552   3.321  0.6653  0.7591 -0.7747
  521MOL0     C70260   8.226   1.494   3.319  0.2043  1.1258  0.8458
  521MOL0     C70261   8.343   1.587   3.341  0.0549  0.2110  0.3763
  521MOL0     C70262   8.352   1.641   3.477  0.0683  0.0406 -0.1394
  521MOL0     C70263   8.429   1.775   3.497  0.1360 -0.7478  0.0557
  521MOL0     C70264   8.570   1.752   3.473  0.4676  0.2056 -0.1252
  521MOL0     C70265   8.681   1.709   3.448 -0.1708  0.2600 -0.2911
  521MOL0     C70266   7.994   1.342   3.251  0.4363  0.0743 -0.5644
  521MOL0     C70267   7.899   1.278   3.166 -0.0529 -0.6231 -0.1915
  521MOL0     H70268   7.691   1.121   2.729  1.2834  0.5346  2.1183
  521MOL0     H70269   7.459   1.075   2.596 -0.7303 -1.1465 -0.8747
  521MOL0     H70270   7.151   0.886   2.823 -0.3109  0.5451 -0.5264
  521MOL0     H70271   7.090   1.050   2.824  0.3719  0.1350  0.0571
  521MOL0     H70272   7.014   1.029   2.586  0.4570  0.3340  0.6745
  521MOL0     H70273   7.090   0.882   2.565  1.7992  1.7396  0.0557
  521MOL0     H70274   6.953   0.790   2.754 -1.3015 -1.2941  0.0349
  521MOL0     H70275   6.874   0.947   2.772 -1.5915 -2.1027  0.1022
  521MOL0     H70276   6.789   0.934   2.537  2.4602  1.9004  0.7743
  521MOL0     H70277   6.867   0.783   2.519 -1.2276  0.3572 -2.0110
  521MOL0     H70278   6.710   0.689   2.694 -1.3430 -0.3574  0.4374
  521MOL0     H70279   6.644   0.863   2.716 -0.9999 -0.9834 -0.0399
  521MOL0     H70280   6.556   0.853   2.487  2.1712 -0.9806  0.2244
  521MOL0     H70281   6.625   0.696   2.470  0.5181  1.5304 -1.1404
  521MOL0     H70282   6.379   0.720   2.525 -0.7935  2.4993  0.3113
  521MOL0     H70283   6.467   0.611   2.640  3.3398 -0.0226 -3.1513
  521MOL0     H70284   6.407   0.901   2.685 -1.0889 -0.2834 -1.8630
  521MOL0     H70285   6.438   0.771   2.805 -1.0092 -0.7741  0.8450
  521MOL0     H70286   6.227   0.570   2.764  2.6809  0.6328  0.1946
  521MOL0     H70287   5.954   0.514   2.845  0.3658  0.7451  0.3628
  521MOL0     H70288   5.944   0.634   2.985  1.4494  2.2523  0.5978
  521MOL0     H70289   5.799   0.647   2.718 -2.1075 -2.4482  1.2586
  521MOL0     H70290   5.795   0.780   2.836 -1.1153 -0.1197  1.7030
  521MOL0     H70291   5.672   0.681   2.970  5.3684  3.9126 -1.3617
  521MOL0     H70292   5.708   0.510   2.910  0.9553  0.4649  0.4277
  521MOL0     H70293   5.567   0.562   2.705 -2.3849 -0.4342 -0.2093
  521MOL0     H70294   5.531   0.725   2.770 -4.1940 -0.9823  0.2304
  521MOL0     H70295   5.386   0.625   2.620  0.3461  0.4902 -0.7695
  521MOL0     H70296   5.269   0.596   2.425 -0.4252  0.1395 -1.7349
  521MOL0     H70297   5.111   0.533   2.440 -2.0965  1.7850 -0.9908
  521MOL0     H70298   5.135   0.713   2.432 -2.9315 -1.6552 -1.9390
  521MOL0     H70299   4.688   0.534   2.497 -2.5078  1.0042 -1.9042
  521MOL0     H70300   4.447   0.626   2.453 -2.5117 -2.0195  1.2793
  521MOL0     H70301   4.216   0.624   2.745 -0.1646 -0.8878 -1.9310
  521MOL0     H70302   4.181   0.799   2.769 -0.3039 -1.0327  0.1078
  521MOL0     H70303   4.080   0.776   2.519  1.7087 -0.5635 -0.9111
  521MOL0     H70304   4.084   0.606   2.553 -1.5472 -3.9965  5.4839
  521MOL0     H70305   3.909   0.779   2.721  1.4913  0.7362 -0.7105
  521MOL0     H70306   3.940   0.608   2.732 -2.1230 -0.6618 -0.1105
  521MOL0     H70307   3.805   0.740   2.499 -1.4057  0.1710 -0.2421
  521MOL0     H70308   3.853   0.574   2.501 -1.2811 -1.4856 -0.6964
  521MOL0     H70309   3.713   0.537   2.721  1.5310  0.1583 -0.6104
  521MOL0     H70310   3.624   0.568   2.565 -0.6500 -0.3574 -0.3658
  521MOL0     H70311   3.634   0.742   2.803 -3.3192 -0.2292  0.3779
  521MOL0     H70312   3.643   0.816   2.634  0.4554 -0.3975 -0.7879
  521MOL0     H70313   3.449   0.603   2.730  1.0208  0.0017 -0.2067
  521MOL0     H70314   3.436   0.701   2.582 -2.3021  2.6778  0.6864
  521MOL0     H70315   3.419   0.909   2.741 -0.5172  0.6640  0.8383
  521MOL0     H70316   3.391   0.796   2.862  0.0107  0.4366  0.0316
  521MOL0     H70317   4.439   0.778   2.844 -2.3898 -0.1530 -2.2680
  521MOL0     H70318   4.668   0.683   2.887  0.0442  3.2614 -0.6380
  521MOL0     H70319   4.991   0.580   2.899 -1.9134  0.5985 -2.9302
  521MOL0     H70320   5.223   0.552   3.006 -1.8126  1.1463  0.2910
  521MOL0     H70321   7.264   1.038   2.973 -0.1127  1.0403  0.6807
  521MOL0     H70322   7.459   1.090   3.089 -0.5646  1.6465 -0.0917
  521MOL0     H70323   7.712   1.559   3.092 -0.5435  0.4428  1.3951
  521MOL0     H70324   7.889   1.658   3.223  0.5904 -0.8141 -0.6055
  521MOL0     H70325   8.242   1.428   3.404  1.6243  1.3674  0.7842
  521MOL0     H70326   8.241   1.443   3.223  1.4032 -0.7435  1.9608
  521MOL0     H70327   8.330   1.665   3.265  1.0050  0.2102  0.1996
  521MOL0     H70328   8.438   1.537   3.320 -0.6350 -0.7621 -0.5510
  521MOL0     H70329   8.399   1.559   3.532  1.3816 -0.4199 -1.8637
  521MOL0     H70330   8.250   1.658   3.514  0.2221 -0.1096  0.3640
  521MOL0     H70331   8.430   1.809   3.601  1.2576 -1.3704  0.2635
  521MOL0     H70332   8.394   1.850   3.426  0.1410  1.5983  2.4026
  521MOL0     H70333   8.779   1.678   3.418 -0.2107 -0.2994  0.1339
  521MOL0     H70334   8.063   1.274   3.300 -2.7045 -2.0709  1.1699
  521MOL0     H70335   7.918   1.172   3.152  0.7547 -0.2853 -1.9197
  522MOL0     O70336   7.183   6.482  10.381 -0.1096  0.3279 -0.3203
  522MOL0     C70337   7.175   6.509  10.502  0.1023 -0.7002 -0.6241
  522MOL0     O70338   7.160   6.418  10.607  0.5616 -0.4325  0.3637
  522MOL0     C70339   7.168   6.283  10.589 -0.2932  1.0099  0.1050
  522MOL0     C70340   7.091   6.210  10.680  0.0895  0.5206 -0.2549
  522MOL0     C70341   7.105   6.066  10.681 -0.2142  0.6789  0.6410
  522MOL0     C70342   7.180   6.001  10.580  0.2614 -0.2646 -0.8703
  522MOL0     O70343   7.178   5.864  10.574  0.3394 -0.5037 -1.2247
  522MOL0     C70344   7.283   5.787  10.517  0.5702  0.1667 -0.4321
  522MOL0     C70345   7.249   5.754  10.369  0.5293  0.3906 -0.5759
  522MOL0     C70346   7.133   5.653  10.367 -0.6311 -0.1440  0.3876
  522MOL0     C70347   7.089   5.603  10.229 -0.1113 -0.5125  0.2678
  522MOL0     C70348   6.965   5.511  10.246 -0.8048  0.1614 -0.3899
  522MOL0     C70349   6.902   5.481  10.109 -0.1892  0.4452  0.0650
  522MOL0     C70350   6.771   5.396  10.126  0.4668 -0.5944  0.3592
  522MOL0     C70351   6.797   5.261  10.179 -0.3568 -0.0782  0.1162
  522MOL0     N70352   6.692   5.163  10.168  0.5759 -0.4391  0.9996
  522MOL0     C70353   6.596   5.141  10.066 -0.9397  0.9515 -0.8358
  522MOL0     C70354   6.520   5.038  10.112  0.5562 -0.2134 -0.3142
  522MOL0     C70355   6.430   4.942  10.033  0.5616  0.1939 -0.7648
  522MOL0     C70356   6.507   4.837   9.954 -0.3239  0.2895  0.1268
  522MOL0     C70357   6.573   4.889   9.829  0.8104 -0.2746  0.1677
  522MOL0     C70358   6.475   4.924   9.721 -0.2294 -0.2161  0.2192
  522MOL0     O70359   6.384   4.816   9.692  0.1668 -0.9110 -0.1557
  522MOL0     C70360   6.264   4.854   9.638 -0.8671 -0.4549 -0.6858
  522MOL0     C70361   6.153   4.807   9.698  0.1483  0.4091 -0.1717
  522MOL0     C70362   6.028   4.838   9.656  0.6353 -0.4039  0.0424
  522MOL0     C70363   5.917   4.797   9.749  0.0415  0.4401 -0.6771
  522MOL0     C70364   6.006   4.913   9.532 -0.5109 -0.0131  0.4511
  522MOL0     C70365   5.875   4.947   9.474  0.7759  0.2739  0.4512
  522MOL0     O70366   5.875   5.042   9.371  0.6225  0.0917 -0.0148
  522MOL0     C70367   5.768   5.092   9.299  0.9383  0.0598  0.3056
  522MOL0     C70368   5.796   5.154   9.172  0.4896 -0.6949 -0.7007
  522MOL0     C70369   5.698   5.215   9.095 -0.1576 -0.0247  0.3292
  522MOL0     C70370   5.556   5.193   9.131 -0.6881 -0.4918 -0.2621
  522MOL0     O70371   5.466   5.243   9.045 -0.5331 -0.3183  0.5213
  522MOL0     C70372   5.385   5.338   9.112 -0.5920 -0.7502  0.3541
  522MOL0     C70373   5.251   5.382   9.035 -0.7469  0.4530  0.0598
  522MOL0     C70374   5.285   5.424   8.887  0.1345  0.7269  0.5784
  522MOL0     C70375   5.326   5.573   8.878  0.1591 -0.8710  0.2128
  522MOL0     C70376   5.320   5.641   8.740 -0.5739  0.4022  0.5417
  522MOL0     C70377   5.428   5.572   8.655  0.5317  0.3278 -0.6092
  522MOL0     C70378   5.442   5.636   8.520  0.0346 -0.3992 -0.4718
  522MOL0     C70379   5.555   5.553   8.446 -0.1704  0.5463 -0.8907
  522MOL0    Cl70380   5.592   5.603   8.274  0.2273  0.3717  0.1942
  522MOL0     C70381   5.525   5.128   9.251  0.1088 -0.0370 -0.1605
  522MOL0     C70382   5.630   5.082   9.337  0.4319  0.0527  0.0777
  522MOL0     O70383   5.774   4.877   9.506  0.3735  0.2254  0.1430
  522MOL0     C70384   6.126   4.965   9.465 -0.7950  0.5383 -0.8548
  522MOL0     C70385   6.253   4.942   9.530 -0.0974  0.7845  0.1626
  522MOL0     N70386   6.566   4.999  10.233 -0.8492  0.4118 -0.2119
  522MOL0     N70387   6.654   5.086  10.273  0.1098 -0.1625 -0.6574
  522MOL0     C70388   7.256   6.075  10.495 -0.5897 -0.1764  0.2613
  522MOL0     C70389   7.248   6.215  10.501 -0.4030 -0.0119 -0.6044
  522MOL0     C70390   7.176   6.649  10.545  0.0908 -0.4630 -0.8696
  522MOL0     C70391   7.221   6.743  10.461 -0.0219 -0.4583 -0.0251
  522MOL0     C70392   7.223   6.881  10.499  0.0241  0.3841  0.3014
  522MOL0     C70393   7.180   6.922  10.623  0.6937 -0.1912 -0.4323
  522MOL0     O70394   7.183   7.050  10.680  0.2086  0.7826  0.1159
  522MOL0     C70395   7.219   7.163  10.595 -0.1858  0.5479 -0.3275
  522MOL0     C70396   7.320   7.233  10.685 -0.9360 -0.3455 -0.1355
  522MOL0     C70397   7.338   7.382  10.633 -0.3440  0.7003  0.4397
  522MOL0     C70398   7.432   7.474  10.719  0.4699 -0.2484  0.0545
  522MOL0     C70399   7.377   7.607  10.736 -0.2959 -0.0072 -0.7537
  522MOL0     C70400   7.337   7.717  10.737  0.9013 -0.4513 -0.6031
  522MOL0     C70401   7.148   6.822  10.716 -0.1697 -0.2329 -0.1771
  522MOL0     C70402   7.145   6.692  10.674  0.4683  0.8295  0.5173
  522MOL0     H70403   7.040   6.259  10.762 -0.0879 -2.5037  1.5898
  522MOL0     H70404   7.051   6.010  10.756 -2.0374  1.4278 -0.0679
  522MOL0     H70405   7.380   5.836  10.529  1.4732 -1.6256 -0.0213
  522MOL0     H70406   7.275   5.696  10.578  0.8939  2.2768  2.9617
  522MOL0     H70407   7.210   5.838  10.311  0.1670 -0.3251 -1.3990
  522MOL0     H70408   7.339   5.711  10.324  0.8734 -0.5141  0.9239
  522MOL0     H70409   7.158   5.566  10.429 -0.5993 -1.8248 -1.8769
  522MOL0     H70410   7.042   5.698  10.409 -1.3794 -2.3419  1.2604
  522MOL0     H70411   7.068   5.691  10.168  0.4362  0.0204  0.8213
  522MOL0     H70412   7.170   5.543  10.185 -2.2194 -1.0762 -3.1641
  522MOL0     H70413   6.989   5.417  10.297 -1.6652  0.8229  1.3020
  522MOL0     H70414   6.892   5.568  10.305 -0.5567  0.6921 -0.5887
  522MOL0     H70415   6.885   5.573  10.052  0.7004  0.8456  0.4128
  522MOL0     H70416   6.971   5.427  10.044 -2.2755 -1.7039 -0.4759
  522MOL0     H70417   6.696   5.449  10.186  2.1233  2.9010 -0.3810
  522MOL0     H70418   6.719   5.389  10.030 -1.8597 -0.4525  1.5247
  522MOL0     H70419   6.802   5.281  10.286 -0.2406  1.1108 -0.0949
  522MOL0     H70420   6.878   5.221  10.117 -1.3234 -0.3410 -1.0116
  522MOL0     H70421   6.574   5.171   9.964 -2.5291 -1.4982 -1.3195
  522MOL0     H70422   6.371   4.890  10.109 -2.1462  0.1451 -2.7477
  522MOL0     H70423   6.355   4.985   9.966 -0.6643 -0.7471 -0.0297
  522MOL0     H70424   6.434   4.756   9.945  2.8558 -2.9956  1.4528
  522MOL0     H70425   6.586   4.801  10.021 -2.2245 -0.0051  2.3607
  522MOL0     H70426   6.635   4.806   9.795  2.4652 -0.2854  2.9446
  522MOL0     H70427   6.645   4.967   9.857 -0.2278  0.9317 -0.4449
  522MOL0     H70428   6.535   4.940   9.631 -0.3688  0.7883  0.2881
  522MOL0     H70429   6.424   5.018   9.744  1.9034  1.2567 -0.7094
  522MOL0     H70430   6.180   4.754   9.789  1.2219  2.4774  0.7909
  522MOL0     H70431   5.871   4.704   9.713 -0.3573  1.1292 -2.0280
  522MOL0     H70432   5.950   4.770   9.849 -0.6097 -1.2456 -0.8846
  522MOL0     H70433   5.835   4.868   9.765  0.5336  1.3656 -2.0507
  522MOL0     H70434   5.895   5.165   9.128  0.4749 -1.1143 -0.8434
  522MOL0     H70435   5.728   5.277   9.012  0.4379 -2.5133 -1.4324
  522MOL0     H70436   5.343   5.289   9.201  0.0697  1.5777  2.0519
  522MOL0     H70437   5.435   5.435   9.125 -2.1979  0.3486 -1.1883
  522MOL0     H70438   5.180   5.299   9.033  0.6930 -0.8251 -1.7733
  522MOL0     H70439   5.197   5.462   9.086 -2.4636  0.2968 -1.4055
  522MOL0     H70440   5.200   5.400   8.823  1.0968 -0.8467 -0.1596
  522MOL0     H70441   5.367   5.360   8.853  1.2083  2.8350 -1.0714
  522MOL0     H70442   5.274   5.642   8.945  0.9851  0.1333 -0.1599
  522MOL0     H70443   5.429   5.576   8.912  0.3196  0.8399 -0.3023
  522MOL0     H70444   5.339   5.749   8.750  2.7088  0.1680 -1.5727
  522MOL0     H70445   5.223   5.616   8.695  1.7361 -0.1709 -4.8461
  522MOL0     H70446   5.527   5.564   8.700 -0.0539 -0.4992  0.5892
  522MOL0     H70447   5.395   5.468   8.650  1.3867 -0.1394  2.0417
  522MOL0     H70448   5.471   5.742   8.520 -1.0930 -0.0187 -3.1309
  522MOL0     H70449   5.348   5.640   8.465 -0.6692 -1.1105  0.6524
  522MOL0     H70450   5.528   5.449   8.432  1.1264  0.4554 -3.1938
  522MOL0     H70451   5.642   5.562   8.513  0.2489  0.4364 -1.4172
  522MOL0     H70452   5.420   5.115   9.275 -0.4328 -1.9237 -3.1195
  522MOL0     H70453   5.599   5.020   9.421 -0.3691  1.0994  0.5922
  522MOL0     H70454   6.124   5.039   9.385 -0.2648  1.0057 -0.4474
  522MOL0     H70455   6.338   4.995   9.489  0.0859  0.5149  0.1871
  522MOL0     H70456   7.322   6.021  10.428 -0.8986 -1.2132  0.7664
  522MOL0     H70457   7.305   6.272  10.428  2.6283  0.3559  1.8039
  522MOL0     H70458   7.253   6.721  10.360 -1.3672  1.6807 -0.9868
  522MOL0     H70459   7.266   6.951  10.428  0.0059  0.0931 -0.0004
  522MOL0     H70460   7.273   7.133  10.505 -1.9751 -2.0902 -0.6130
  522MOL0     H70461   7.133   7.225  10.571 -2.0900 -0.7009  2.6697
  522MOL0     H70462   7.415   7.178  10.689  0.1247  1.3665 -0.6716
  522MOL0     H70463   7.281   7.245  10.787 -2.0226  0.3268 -0.6233
  522MOL0     H70464   7.240   7.431  10.632  0.5541  2.6007 -0.2455
  522MOL0     H70465   7.384   7.381  10.534 -2.1319  0.5188 -0.4143
  522MOL0     H70466   7.534   7.479  10.681  0.1406  1.1420 -0.7421
  522MOL0     H70467   7.448   7.422  10.814 -0.3392 -1.2973 -0.3669
  522MOL0     H70468   7.318   7.822  10.748 -2.0508 -1.1583  2.6972
  522MOL0     H70469   7.115   6.840  10.817 -2.9708  0.6670 -1.1446
  522MOL0     H70470   7.115   6.617  10.746 -0.3748 -0.2605 -0.9429
  523MOL0     O70471   7.784   0.243   5.571  0.6402 -0.5006 -0.0774
  523MOL0     C70472   7.889   0.225   5.630 -0.2677 -0.2968 -0.0586
  523MOL0     O70473   7.903   0.194   5.762 -0.0739  0.0508 -0.4858
  523MOL0     C70474   7.791   0.173   5.839 -0.2927 -0.4127  0.7857
  523MOL0     C70475   7.710   0.280   5.878  1.5309 -0.5160 -1.4776
  523MOL0     C70476   7.587   0.248   5.947 -1.3085  0.5471  0.1118
  523MOL0     C70477   7.542   0.114   5.972  0.4215  0.4396  0.1900
  523MOL0     O70478   7.419   0.085   6.022  0.0851 -0.4618  0.4287
  523MOL0     C70479   7.359  -0.030   5.962 -0.0108  0.5484 -0.5336
  523MOL0     C70480   7.202  -0.029   5.965 -0.4827 -0.2240  0.4039
  523MOL0     C70481   7.150   0.090   5.886 -0.7476 -0.4945 -0.1916
  523MOL0     C70482   7.017   0.060   5.815 -0.5111  0.6334 -0.1927
  523MOL0     C70483   6.908  -0.017   5.902  1.0589 -0.2882  0.1240
  523MOL0     C70484   6.786  -0.036   5.816 -0.1323  0.0394 -0.0427
  523MOL0     C70485   6.663  -0.078   5.908  0.5477  0.3850 -0.8952
  523MOL0     C70486   6.539  -0.090   5.817 -0.1890  1.0840 -1.0727
  523MOL0     N70487   6.416  -0.121   5.897 -0.6492  0.1830 -0.0811
  523MOL0     C70488   6.320  -0.041   5.924 -0.1982 -0.7564 -0.4220
  523MOL0     C70489   6.264  -0.091   6.033 -0.1272 -0.3042  0.1471
  523MOL0     C70490   6.171  -0.007   6.117  0.0773  0.0042  0.6631
  523MOL0     C70491   6.085  -0.093   6.214  0.6829  0.2496  0.4649
  523MOL0     C70492   5.979  -0.009   6.287 -0.5035  0.3459  0.3273
  523MOL0     C70493   5.888  -0.087   6.384  0.4222  0.0954 -0.2573
  523MOL0     O70494   5.801  -0.015   6.473 -0.4214  1.1288  1.0255
  523MOL0     C70495   5.671   0.016   6.448  0.1585 -0.1855  0.6888
  523MOL0     C70496   5.592  -0.007   6.338  0.1321 -1.0964 -0.2054
  523MOL0     C70497   5.457   0.030   6.326 -0.4475 -0.0813 -0.5087
  523MOL0     C70498   5.408  -0.014   6.194  0.9611  0.5313 -0.7457
  523MOL0     C70499   5.389   0.073   6.447 -0.3979  0.6537 -0.5091
  523MOL0     C70500   5.245   0.113   6.442 -0.9057 -0.1812 -1.2042
  523MOL0     O70501   5.192   0.126   6.569  0.3975  0.3057 -0.7559
  523MOL0     C70502   5.058   0.134   6.590  0.1159 -0.4087 -0.0996
  523MOL0     C70503   5.008   0.069   6.702 -0.4550 -0.0407  0.3483
  523MOL0     C70504   4.871   0.078   6.731  0.1050  0.0961 -0.0738
  523MOL0     C70505   4.780   0.147   6.654  0.2242  0.2775  0.0038
  523MOL0     O70506   4.647   0.143   6.704 -0.2379 -0.5940 -0.1693
  523MOL0     C70507   4.555   0.239   6.645 -0.2667 -0.6329  1.0722
  523MOL0     C70508   4.444   0.265   6.748 -1.0728 -0.1439  0.1451
  523MOL0     C70509   4.315   0.174   6.742  0.2420  0.3768 -0.4034
  523MOL0     C70510   4.272   0.127   6.606  0.3592 -0.3681 -0.8021
  523MOL0     C70511   4.148   0.042   6.605  0.6411  0.4193 -0.4618
  523MOL0     C70512   4.119   0.006   6.458  0.2634 -0.2650  0.1106
  523MOL0     C70513   4.053   0.131   6.386 -1.0554 -0.1373 -0.6905
  523MOL0     C70514   3.952   0.078   6.283  0.5360  0.6768  0.7276
  523MOL0    Cl70515   3.868   0.210   6.197 -0.1251  0.5356 -0.1256
  523MOL0     C70516   4.829   0.217   6.543 -0.6008 -0.4171 -0.0744
  523MOL0     C70517   4.964   0.201   6.507 -0.8095  0.3069 -1.4450
  523MOL0     O70518   5.183   0.135   6.337  0.2955  0.0596  0.2740
  523MOL0     C70519   5.470   0.095   6.561  0.2431  0.2790 -0.0041
  523MOL0     C70520   5.604   0.068   6.563  0.6959 -0.2693  0.6093
  523MOL0     N70521   6.311  -0.215   6.055 -0.6424  0.2029  0.5386
  523MOL0     N70522   6.412  -0.227   5.972  0.2372  0.4471 -0.7077
  523MOL0     C70523   7.631   0.013   5.939 -0.2480  0.0367 -0.3474
  523MOL0     C70524   7.760   0.045   5.891 -0.6318  0.6981 -0.3945
  523MOL0     C70525   8.023   0.243   5.570 -0.6368  0.0340 -0.0062
  523MOL0     C70526   8.033   0.302   5.439 -0.4741 -0.3608 -0.0158
  523MOL0     C70527   8.154   0.305   5.370  0.5420  0.1627  0.3378
  523MOL0     C70528   8.267   0.255   5.429 -0.3928 -0.0115 -0.1491
  523MOL0     O70529   8.380   0.281   5.356 -0.0650 -0.0598  0.7552
  523MOL0     C70530   8.509   0.288   5.415  0.0171 -0.4718  0.9376
  523MOL0     C70531   8.527   0.376   5.536 -0.2709  0.0090  0.1052
  523MOL0     C70532   8.543   0.534   5.510 -0.3525 -0.3516  0.0863
  523MOL0     C70533   8.443   0.613   5.591  0.4275 -0.1966  0.7781
  523MOL0     C70534   8.304   0.622   5.553 -0.3988  0.0743 -0.0888
  523MOL0     C70535   8.189   0.622   5.515 -0.3036 -0.7273  0.6433
  523MOL0     C70536   8.259   0.197   5.554  0.4776 -1.0276 -0.0017
  523MOL0     C70537   8.143   0.183   5.623  0.1638 -0.5774  0.3711
  523MOL0     H70538   7.735   0.383   5.854  0.3142  0.2764  0.4363
  523MOL0     H70539   7.522   0.326   5.987  2.2147  2.9384  1.6435
  523MOL0     H70540   7.397  -0.046   5.860  2.5803  1.2658  0.2527
  523MOL0     H70541   7.405  -0.113   6.015 -0.3707  0.5121 -0.2777
  523MOL0     H70542   7.171  -0.123   5.918 -1.1247  0.5031 -0.6433
  523MOL0     H70543   7.152  -0.020   6.062  0.8994  1.5173  1.0059
  523MOL0     H70544   7.133   0.182   5.943  1.0904  0.3663 -0.9423
  523MOL0     H70545   7.216   0.106   5.800  0.2655  1.8450  0.9338
  523MOL0     H70546   6.976   0.158   5.785 -1.1811  0.9896  1.7239
  523MOL0     H70547   7.028  -0.010   5.732 -3.6896 -0.1952 -0.0688
  523MOL0     H70548   6.934  -0.106   5.960  0.2397 -0.9492 -0.4791
  523MOL0     H70549   6.875   0.055   5.977  3.2265  0.0869  0.7778
  523MOL0     H70550   6.766   0.062   5.771 -4.2914  0.8236  2.9607
  523MOL0     H70551   6.795  -0.120   5.746  0.6810 -2.0159  2.3697
  523MOL0     H70552   6.674  -0.172   5.961 -0.4931  0.7028 -0.0770
  523MOL0     H70553   6.643  -0.001   5.983 -0.3647  0.4647 -1.2100
  523MOL0     H70554   6.563  -0.170   5.746 -1.5267  0.7317 -1.1403
  523MOL0     H70555   6.516  -0.003   5.756  0.2580  0.4314 -2.1938
  523MOL0     H70556   6.304   0.059   5.884  0.9345  0.1161  1.2059
  523MOL0     H70557   6.225   0.072   6.170  0.3318 -0.1981  0.7086
  523MOL0     H70558   6.099   0.040   6.050  0.4163 -2.4222 -1.5547
  523MOL0     H70559   6.154  -0.149   6.279  0.3779 -1.6819 -0.8091
  523MOL0     H70560   6.039  -0.170   6.151  0.3584 -0.4251  1.4939
  523MOL0     H70561   5.925   0.058   6.219  1.6793  1.3110 -0.5721
  523MOL0     H70562   6.029   0.061   6.355 -1.4862  0.0932  1.3349
  523MOL0     H70563   5.956  -0.146   6.446  0.7055 -0.1001 -0.7408
  523MOL0     H70564   5.822  -0.151   6.325 -1.1556 -0.0222  1.5536
  523MOL0     H70565   5.634  -0.047   6.246  3.2175 -2.6989  1.7252
  523MOL0     H70566   5.468   0.033   6.115  0.8803  0.2588 -0.9704
  523MOL0     H70567   5.417  -0.123   6.188  1.0024  0.6086 -2.5549
  523MOL0     H70568   5.300   0.003   6.184  0.6804 -0.8684 -0.2651
  523MOL0     H70569   5.075   0.028   6.778 -0.8988  2.1934  2.0679
  523MOL0     H70570   4.828   0.052   6.827 -2.2143  2.9902 -0.1806
  523MOL0     H70571   4.592   0.341   6.631 -1.7867 -0.3588 -1.4816
  523MOL0     H70572   4.524   0.211   6.544  1.1634 -0.2496  0.4978
  523MOL0     H70573   4.493   0.263   6.845  1.6060  1.9486 -1.0075
  523MOL0     H70574   4.423   0.372   6.752  3.1325  1.0222 -2.2522
  523MOL0     H70575   4.229   0.222   6.790  0.7367  0.9176 -0.0434
  523MOL0     H70576   4.342   0.086   6.801 -1.4021  1.4285  2.1151
  523MOL0     H70577   4.263   0.211   6.537 -0.3747 -0.4013 -0.7539
  523MOL0     H70578   4.355   0.064   6.574 -0.0861 -0.9670 -0.7968
  523MOL0     H70579   4.061   0.093   6.647  1.1853 -0.9243  2.5314
  523MOL0     H70580   4.161  -0.051   6.660 -0.2800  1.4015  1.5082
  523MOL0     H70581   4.203  -0.039   6.406 -0.7769 -1.5616 -0.5081
  523MOL0     H70582   4.043  -0.073   6.457  0.8590 -0.9276  2.0561
  523MOL0     H70583   4.131   0.195   6.343 -1.8476  0.0732 -1.8737
  523MOL0     H70584   3.995   0.194   6.454 -2.9279 -0.7473 -1.6552
  523MOL0     H70585   3.873   0.021   6.332 -1.2652  1.5389 -1.0538
  523MOL0     H70586   3.999   0.006   6.215  0.6250 -0.5521  2.0401
  523MOL0     H70587   4.762   0.277   6.482 -1.6658  0.5792  1.9678
  523MOL0     H70588   5.001   0.248   6.417  3.1552 -2.1454 -1.3218
  523MOL0     H70589   5.420   0.140   6.646 -1.4361 -3.7594  1.3848
  523MOL0     H70590   5.656   0.089   6.656 -0.2666  2.7690  0.5722
  523MOL0     H70591   7.597  -0.086   5.967  0.4477 -0.2340 -0.4225
  523MOL0     H70592   7.822  -0.040   5.860  0.2192  0.9062  0.6878
  523MOL0     H70593   7.937   0.334   5.399  1.6899  2.9951 -3.1780
  523MOL0     H70594   8.159   0.341   5.267 -1.3915 -0.6181 -0.0839
  523MOL0     H70595   8.528   0.187   5.452 -1.0560 -2.5175 -3.4466
  523MOL0     H70596   8.578   0.312   5.335 -0.5090  1.2260  0.9500
  523MOL0     H70597   8.615   0.339   5.589  0.3118  1.0366 -0.1120
  523MOL0     H70598   8.434   0.361   5.591 -0.5781 -2.4593 -0.9681
  523MOL0     H70599   8.531   0.551   5.403 -0.3710 -0.4810  0.0665
  523MOL0     H70600   8.642   0.569   5.540 -0.5218 -0.2917  0.5815
  523MOL0     H70601   8.476   0.716   5.610 -0.8254  0.1997  0.8860
  523MOL0     H70602   8.447   0.576   5.694  1.9198 -0.5043  0.6388
  523MOL0     H70603   8.088   0.622   5.481 -0.5190  0.0424  1.2628
  523MOL0     H70604   8.350   0.157   5.598  1.9248  2.5477  0.5782
  523MOL0     H70605   8.134   0.132   5.718  1.6318 -0.3964  0.6306
  524MOL0     O70606   5.837   4.553  10.045 -0.5185  0.1064 -0.6939
  524MOL0     C70607   5.934   4.585  10.122  0.0718  0.2656  0.1513
  524MOL0     O70608   5.922   4.635  10.251 -0.4801 -0.2237 -0.0864
  524MOL0     C70609   5.804   4.622  10.313 -0.2821  0.0774  0.3195
  524MOL0     C70610   5.707   4.725  10.300  0.4123  0.3643  0.3360
  524MOL0     C70611   5.585   4.717  10.368  0.4895 -0.0998 -0.1134
  524MOL0     C70612   5.563   4.612  10.468 -0.3136 -0.3997  0.5633
  524MOL0     O70613   5.450   4.615  10.545  0.3444 -0.5394  0.3280
  524MOL0     C70614   5.325   4.614  10.477 -0.7214  0.1561 -0.6324
  524MOL0     C70615   5.261   4.506  10.549  0.1085  0.2455 -0.0600
  524MOL0     C70616   5.122   4.478  10.494  0.3551  0.4806 -0.3128
  524MOL0     C70617   5.119   4.387  10.374  0.0101 -0.0160  0.5650
  524MOL0     C70618   4.974   4.361  10.332  0.0215 -0.0419  0.0998
  524MOL0     C70619   4.910   4.496  10.284  0.4724  0.2831 -0.0744
  524MOL0     C70620   4.783   4.458  10.191  0.2562  0.2334 -0.1341
  524MOL0     C70621   4.683   4.569  10.151  0.5802 -0.4840  0.3014
  524MOL0     N70622   4.599   4.515  10.033  0.4192 -0.3081 -0.9737
  524MOL0     C70623   4.493   4.425  10.039  1.4132 -0.6738  0.7848
  524MOL0     C70624   4.458   4.424   9.908 -0.9985  0.4755 -0.2414
  524MOL0     C70625   4.366   4.326   9.852 -0.1858  0.2618 -0.2685
  524MOL0     C70626   4.221   4.353   9.903  0.0096  0.0672 -0.6939
  524MOL0     C70627   4.140   4.235   9.866  0.4277  0.6417  0.9402
  524MOL0     C70628   3.989   4.250   9.910  0.4118 -0.1322 -0.0050
  524MOL0     O70629   3.984   4.252  10.055 -0.0740 -0.2683  0.6451
  524MOL0     C70630   3.854   4.276  10.106 -0.3067  0.7771  0.1251
  524MOL0     C70631   3.851   4.272  10.246  0.4600 -0.9598  0.2539
  524MOL0     C70632   3.722   4.291  10.306 -0.3938  0.2604 -0.6089
  524MOL0     C70633   3.718   4.293  10.459  0.3166 -0.0224  0.3556
  524MOL0     C70634   3.605   4.291  10.228 -0.1847  0.1904 -0.2295
  524MOL0     C70635   3.474   4.280  10.290  0.9373 -0.5799 -0.5249
  524MOL0     O70636   3.366   4.362  10.254 -0.2479  0.0897 -0.0716
  524MOL0     C70637   3.260   4.374  10.338 -0.6785  0.2845 -0.5258
  524MOL0     C70638   3.228   4.499  10.399 -0.1158 -0.1581  0.1489
  524MOL0     C70639   3.109   4.507  10.475  0.6115 -0.3036  0.4498
  524MOL0     C70640   3.032   4.395  10.501 -1.1467  0.1982 -0.0561
  524MOL0     O70641   2.939   4.403  10.602 -0.9432 -1.0468  0.2824
  524MOL0     C70642   2.907   4.295  10.683 -0.2045 -0.1994  0.6556
  524MOL0     C70643   2.785   4.325  10.760 -0.7845 -0.1147 -0.2166
  524MOL0     C70644   2.757   4.207  10.856  0.0509 -1.4712 -0.5627
  524MOL0     C70645   2.634   4.238  10.953 -0.6992  0.4003  0.1689
  524MOL0     C70646   2.657   4.348  11.062  0.6545  0.5485  0.0604
  524MOL0     C70647   2.769   4.312  11.162 -0.3559 -0.4929  0.3494
  524MOL0     C70648   2.777   4.435  11.258 -0.2464  1.3737 -0.3955
  524MOL0     C70649   2.861   4.408  11.377 -0.3383 -1.0617  0.2639
  524MOL0    Cl70650   3.034   4.401  11.317  0.8081 -0.5356 -0.3431
  524MOL0     C70651   3.063   4.281  10.429  0.1823  0.4970 -0.2638
  524MOL0     C70652   3.167   4.270  10.340 -0.3443 -0.0118  0.2601
  524MOL0     O70653   3.462   4.184  10.361  0.2294  0.2062  0.0089
  524MOL0     C70654   3.609   4.295  10.089 -1.0956 -0.3509  0.0792
  524MOL0     C70655   3.736   4.287  10.030  1.0158  0.1660  0.5035
  524MOL0     N70656   4.535   4.506   9.826 -0.7369 -0.6446  0.2110
  524MOL0     N70657   4.625   4.556   9.906  0.2786 -0.0476  0.6850
  524MOL0     C70658   5.663   4.509  10.470  0.2228 -0.2644 -0.4346
  524MOL0     C70659   5.783   4.513  10.397  0.0830  0.2981 -0.3778
  524MOL0     C70660   6.073   4.567  10.069 -0.1715  0.2319  0.1961
  524MOL0     C70661   6.181   4.573  10.158 -0.1522  0.0620 -0.1381
  524MOL0     C70662   6.312   4.549  10.113 -0.4562 -0.0502 -0.8604
  524MOL0     C70663   6.332   4.487   9.988  0.2417 -0.6613  0.0305
  524MOL0     O70664   6.449   4.448   9.934 -0.4450 -0.1410 -0.3388
  524MOL0     C70665   6.544   4.380  10.022  0.3681  0.3576 -0.0711
  524MOL0     C70666   6.691   4.391   9.977  0.2113 -0.5927  0.8874
  524MOL0     C70667   6.739   4.532   9.931  0.8530  0.9243  0.5894
  524MOL0     C70668   6.865   4.517   9.856 -0.7216 -0.5382  0.0282
  524MOL0     C70669   6.980   4.508   9.938 -0.6359  0.5169 -0.5931
  524MOL0     C70670   7.078   4.489  10.006 -0.1649  0.1928 -0.9536
  524MOL0     C70671   6.217   4.483   9.905 -0.3107  0.0823  0.5938
  524MOL0     C70672   6.095   4.533   9.933 -0.4772 -0.2546 -0.9039
  524MOL0     H70673   5.734   4.802  10.229  1.3526 -0.3836 -0.1352
  524MOL0     H70674   5.522   4.805  10.361  0.9503  0.5220  2.5016
  524MOL0     H70675   5.281   4.714  10.489 -0.1516  0.4807 -1.1688
  524MOL0     H70676   5.325   4.597  10.369 -1.6260 -0.4495 -0.5511
  524MOL0     H70677   5.325   4.418  10.553 -0.7131 -0.3521  0.2194
  524MOL0     H70678   5.249   4.540  10.653 -0.8163  0.8147 -0.3454
  524MOL0     H70679   5.054   4.441  10.571 -1.2255 -0.7559 -2.1966
  524MOL0     H70680   5.074   4.572  10.464 -1.7949 -0.2370  0.6557
  524MOL0     H70681   5.171   4.435  10.290 -0.1731 -1.3877 -0.3564
  524MOL0     H70682   5.158   4.285  10.383 -1.8383 -0.9052 -0.9808
  524MOL0     H70683   4.982   4.312  10.235 -1.7953 -0.3017  0.0591
  524MOL0     H70684   4.915   4.314  10.411 -0.7798  3.5342  1.8473
  524MOL0     H70685   4.884   4.562  10.367  0.5707  1.1126 -0.6909
  524MOL0     H70686   4.984   4.545  10.219 -0.2258 -0.1477 -1.2319
  524MOL0     H70687   4.820   4.405  10.103  1.0140 -1.5187  1.1895
  524MOL0     H70688   4.721   4.384  10.243  2.1864  0.7949  3.2166
  524MOL0     H70689   4.732   4.662  10.118  1.3887 -0.6988  0.8653
  524MOL0     H70690   4.617   4.582  10.237  0.2454  0.5146 -0.0873
  524MOL0     H70691   4.465   4.358  10.119  2.4412 -2.4032 -0.2363
  524MOL0     H70692   4.367   4.351   9.745  1.5135  1.4366 -0.0145
  524MOL0     H70693   4.400   4.222   9.864 -2.3324 -0.6177 -1.3559
  524MOL0     H70694   4.184   4.450   9.869  1.2104  0.5918 -0.5650
  524MOL0     H70695   4.211   4.374  10.010  3.0034  1.3418 -0.5569
  524MOL0     H70696   4.179   4.151   9.925 -2.0222  0.0244  1.8379
  524MOL0     H70697   4.148   4.219   9.759 -1.9915  0.5360  0.7085
  524MOL0     H70698   3.934   4.159   9.886  0.2555 -0.2337  0.6988
  524MOL0     H70699   3.954   4.340   9.859 -0.1058 -1.0988 -1.3860
  524MOL0     H70700   3.947   4.272  10.296  0.1839  1.9761  0.9941
  524MOL0     H70701   3.654   4.377  10.488 -0.2457 -0.1739 -0.4288
  524MOL0     H70702   3.669   4.207  10.506  1.2448 -0.2900  0.8672
  524MOL0     H70703   3.817   4.311  10.502 -1.0047 -0.5226  3.9435
  524MOL0     H70704   3.302   4.578  10.391  0.5203 -0.7792 -0.1995
  524MOL0     H70705   3.095   4.603  10.524  0.6031  1.0317 -2.0307
  524MOL0     H70706   2.898   4.204  10.623 -1.5258  1.3866 -1.7120
  524MOL0     H70707   2.991   4.263  10.745 -0.6843  0.5084  1.7003
  524MOL0     H70708   2.807   4.417  10.815  1.2919  0.9641 -2.6842
  524MOL0     H70709   2.696   4.349  10.701  0.7798  3.0391 -1.5257
  524MOL0     H70710   2.840   4.189  10.925 -1.1513  1.9897  2.1152
  524MOL0     H70711   2.730   4.113  10.806  0.2660 -1.9109  0.1279
  524MOL0     H70712   2.552   4.264  10.885  0.1191 -1.6912 -1.7713
  524MOL0     H70713   2.610   4.148  11.009  1.8505  0.3799  1.3832
  524MOL0     H70714   2.560   4.350  11.113 -0.0254 -0.7983 -1.1119
  524MOL0     H70715   2.675   4.446  11.016 -0.1848  0.2186 -1.0185
  524MOL0     H70716   2.742   4.221  11.216 -0.8105  0.7799  2.3989
  524MOL0     H70717   2.863   4.296  11.108 -0.1771  1.9607 -0.1874
  524MOL0     H70718   2.675   4.438  11.298  0.3754 -3.7256  2.3929
  524MOL0     H70719   2.806   4.530  11.211 -0.5074  0.5479 -2.3068
  524MOL0     H70720   2.842   4.310  11.422 -3.5716 -1.7351 -2.2063
  524MOL0     H70721   2.838   4.482  11.455 -0.8354  0.5164 -1.3211
  524MOL0     H70722   2.999   4.194  10.421  2.3031 -1.0265 -1.6105
  524MOL0     H70723   3.175   4.184  10.274  2.5492  0.8010 -0.5933
  524MOL0     H70724   3.523   4.325  10.030 -0.8387 -2.4121 -1.4396
  524MOL0     H70725   3.734   4.290   9.921 -0.0481  0.7117  0.5185
  524MOL0     H70726   5.640   4.434  10.545 -0.7159  1.2332  0.8031
  524MOL0     H70727   5.860   4.436  10.406  0.7946  1.1252  0.8412
  524MOL0     H70728   6.167   4.611  10.259  2.9975 -0.3960  0.5915
  524MOL0     H70729   6.395   4.575  10.178 -0.9871  1.9383 -0.9033
  524MOL0     H70730   6.542   4.422  10.123  0.4070  3.5550 -1.3095
  524MOL0     H70731   6.517   4.274  10.022  0.6080  0.2919  0.6646
  524MOL0     H70732   6.710   4.316   9.900  1.3075 -0.3325  0.8924
  524MOL0     H70733   6.750   4.359  10.063  1.8618 -1.7441 -0.6014
  524MOL0     H70734   6.753   4.596  10.019  0.7745  1.1258  0.4540
  524MOL0     H70735   6.659   4.558   9.861  1.9046 -2.2115 -1.9883
  524MOL0     H70736   6.888   4.600   9.788 -0.9898 -0.3594  0.1509
  524MOL0     H70737   6.872   4.434   9.786  3.0382 -2.0269  1.8857
  524MOL0     H70738   7.172   4.466  10.052 -1.7072  0.4436  2.6259
  524MOL0     H70739   6.239   4.429   9.813  3.4167  2.2331  0.0382
  524MOL0     H70740   6.012   4.522   9.865  0.4674 -2.5924 -1.7789
  525MOL0     O70741   3.515   5.601   4.596  0.3414 -0.4834  0.0322
  525MOL0     C70742   3.593   5.700   4.569  0.5773  0.4505 -0.4183
  525MOL0     O70743   3.547   5.829   4.542 -0.3328 -0.1148  0.0697
  525MOL0     C70744   3.417   5.858   4.566 -0.7454 -0.3365  0.8010
  525MOL0     C70745   3.371   5.930   4.678  0.3561  0.6611  0.4445
  525MOL0     C70746   3.239   5.968   4.684  0.3614 -0.0641 -0.4529
  525MOL0     C70747   3.144   5.956   4.584 -1.0118  0.2613  0.3051
  525MOL0     O70748   3.014   5.983   4.604 -0.6264 -0.4235  0.4718
  525MOL0     C70749   2.980   6.116   4.626  0.7714  0.4717 -1.4642
  525MOL0     C70750   2.857   6.143   4.721  0.7431  0.4369 -0.1756
  525MOL0     C70751   2.732   6.080   4.663 -0.7547 -0.3218 -0.7173
  525MOL0     C70752   2.603   6.159   4.697 -0.3154  0.0568  0.3403
  525MOL0     C70753   2.489   6.080   4.631  0.1718  0.2658  0.3816
  525MOL0     C70754   2.357   6.157   4.646 -0.3483 -0.8094 -0.1213
  525MOL0     C70755   2.232   6.089   4.583  0.1071  1.2890 -0.7871
  525MOL0     C70756   2.101   6.153   4.639  0.5109 -0.5189 -0.2869
  525MOL0     N70757   2.078   6.289   4.586 -0.2436  0.0874 -0.4194
  525MOL0     C70758   2.087   6.320   4.453  0.7088 -0.2776  0.3237
  525MOL0     C70759   2.026   6.439   4.433 -0.0870  0.0889 -0.3045
  525MOL0     C70760   2.021   6.528   4.303  0.0821  0.5764  0.0710
  525MOL0     C70761   1.892   6.602   4.285 -0.4403 -0.2754  0.2492
  525MOL0     C70762   1.879   6.677   4.157  0.1496  0.0916  0.8964
  525MOL0     C70763   1.733   6.733   4.149 -1.6026 -0.0697 -0.1849
  525MOL0     O70764   1.633   6.632   4.122 -0.5636  0.0692 -0.5667
  525MOL0     C70765   1.562   6.621   4.006  0.4610 -0.7819 -0.4908
  525MOL0     C70766   1.440   6.702   4.002 -0.1553 -0.5664 -0.2126
  525MOL0     C70767   1.351   6.687   3.897  0.1037 -1.1768 -0.3069
  525MOL0     C70768   1.221   6.757   3.918  0.0386 -0.2045  0.4326
  525MOL0     C70769   1.381   6.604   3.792 -0.4601 -0.5857  1.0707
  525MOL0     C70770   1.293   6.582   3.675  1.1011 -0.4742  0.7081
  525MOL0     O70771   1.159   6.616   3.679  0.7317 -0.0470 -0.1601
  525MOL0     C70772   1.085   6.620   3.566 -0.8240 -0.6579 -0.1956
  525MOL0     C70773   1.096   6.731   3.476  0.8239  0.5262 -0.1666
  525MOL0     C70774   1.008   6.749   3.370 -0.2091  0.0319  0.0404
  525MOL0     C70775   0.922   6.644   3.345 -0.1794 -0.1778  0.2525
  525MOL0     O70776   0.826   6.638   3.243 -0.3092  0.3036 -0.5361
  525MOL0     C70777   0.832   6.729   3.133  0.9857 -0.1054 -0.7579
  525MOL0     C70778   0.760   6.689   3.000  0.5928  0.5422  0.6621
  525MOL0     C70779   0.680   6.562   3.011  0.0585 -0.4791  1.8771
  525MOL0     C70780   0.605   6.541   2.872  0.6616  0.7210 -0.3793
  525MOL0     C70781   0.504   6.426   2.878 -0.5264 -0.0430  0.4911
  525MOL0     C70782   0.433   6.422   2.743 -0.3677 -0.3038 -0.5087
  525MOL0     C70783   0.328   6.313   2.736  0.4694  0.3108  0.2795
  525MOL0     C70784   0.250   6.301   2.601 -0.7109  0.3371 -0.0816
  525MOL0    Cl70785   0.166   6.450   2.552 -0.0267 -0.0754 -0.0989
  525MOL0     C70786   0.915   6.530   3.426 -1.1449  0.3386 -0.1715
  525MOL0     C70787   0.990   6.527   3.542 -0.6490 -0.9362  0.0804
  525MOL0     O70788   1.348   6.545   3.566  0.3347  0.5573 -0.7506
  525MOL0     C70789   1.495   6.527   3.799 -0.2738  0.5019 -0.4088
  525MOL0     C70790   1.578   6.531   3.911 -0.3198  0.6174  0.6052
  525MOL0     N70791   1.987   6.481   4.559 -0.6570 -0.3472 -0.3455
  525MOL0     N70792   2.019   6.395   4.653  0.1604 -0.3652 -0.2678
  525MOL0     C70793   3.190   5.891   4.468 -0.0163  0.4127  0.4145
  525MOL0     C70794   3.323   5.840   4.459  0.5477  1.3265 -0.3474
  525MOL0     C70795   3.728   5.669   4.563 -0.1779 -0.1548  0.3680
  525MOL0     C70796   3.783   5.542   4.570  0.6014  0.7440 -0.2195
  525MOL0     C70797   3.924   5.528   4.560 -0.3531  0.0822  0.8362
  525MOL0     C70798   4.014   5.635   4.564 -0.3246 -0.2749 -0.6996
  525MOL0     O70799   4.155   5.614   4.586 -0.4167 -0.3961 -0.4173
  525MOL0     C70800   4.250   5.718   4.602  0.5439 -0.1728 -0.5083
  525MOL0     C70801   4.393   5.670   4.612 -0.0700  0.9893 -0.2945
  525MOL0     C70802   4.392   5.566   4.730  0.0224 -0.3352  0.0380
  525MOL0     C70803   4.528   5.494   4.736 -0.5362  0.1049 -0.7373
  525MOL0     C70804   4.647   5.581   4.749  0.4971 -0.2533 -0.1033
  525MOL0     C70805   4.734   5.664   4.777  0.2633  0.4431  0.0048
  525MOL0     C70806   3.957   5.767   4.568  0.0284 -0.1975  0.5051
  525MOL0     C70807   3.817   5.777   4.560 -0.5836  0.3682 -0.3779
  525MOL0     H70808   3.436   5.946   4.763 -0.7448  3.3671  0.8654
  525MOL0     H70809   3.212   6.014   4.778  0.0718 -2.1137  0.5274
  525MOL0     H70810   3.060   6.173   4.674 -0.9475  1.3716  0.4821
  525MOL0     H70811   2.961   6.157   4.526 -2.2392 -4.0420 -3.0397
  525MOL0     H70812   2.873   6.102   4.821 -1.4039  0.3021  0.1451
  525MOL0     H70813   2.849   6.251   4.736 -1.4844  0.1212  1.4290
  525MOL0     H70814   2.746   6.075   4.555  2.4516  0.4440 -0.4226
  525MOL0     H70815   2.733   5.975   4.694  0.4137 -0.2776 -0.5762
  525MOL0     H70816   2.570   6.155   4.801 -1.8080  1.1081 -0.0462
  525MOL0     H70817   2.605   6.261   4.656  0.8682  0.9304  2.4402
  525MOL0     H70818   2.503   6.059   4.525  2.5359 -0.0627  0.7206
  525MOL0     H70819   2.471   5.983   4.679  1.7683 -0.7759 -1.0246
  525MOL0     H70820   2.349   6.168   4.755 -0.0028  0.7698 -0.2293
  525MOL0     H70821   2.378   6.253   4.599  3.8061 -0.6298  1.6159
  525MOL0     H70822   2.248   6.071   4.477  0.7515  0.3293 -0.5428
  525MOL0     H70823   2.229   5.989   4.628 -0.3684  1.4383 -0.4732
  525MOL0     H70824   2.103   6.163   4.748  1.6255 -0.3688 -0.3076
  525MOL0     H70825   2.012   6.093   4.618 -1.0658  0.8268  2.1989
  525MOL0     H70826   2.129   6.257   4.375  0.0406  0.8579 -1.0051
  525MOL0     H70827   2.103   6.597   4.320  1.7847 -1.7226  1.8965
  525MOL0     H70828   2.044   6.470   4.214  3.8180  3.7972 -1.3249
  525MOL0     H70829   1.890   6.679   4.363  1.7993  1.4507 -1.2626
  525MOL0     H70830   1.809   6.533   4.301  1.4648 -1.8753  5.2915
  525MOL0     H70831   1.892   6.611   4.070 -0.0107  2.5367 -1.1157
  525MOL0     H70832   1.956   6.754   4.155  1.7903 -1.4859  0.9297
  525MOL0     H70833   1.723   6.808   4.070  0.6418 -0.4615 -0.9180
  525MOL0     H70834   1.707   6.782   4.244 -0.8070  2.7801 -1.3131
  525MOL0     H70835   1.428   6.784   4.072  1.5942 -0.8533  0.4694
  525MOL0     H70836   1.144   6.682   3.900  2.0363 -2.1203 -0.5742
  525MOL0     H70837   1.201   6.809   4.013 -0.2914 -0.4621  0.5048
  525MOL0     H70838   1.216   6.843   3.850  2.2428 -0.7217 -0.4511
  525MOL0     H70839   1.165   6.812   3.493  0.7171  0.3977  0.9055
  525MOL0     H70840   1.032   6.832   3.305 -2.7685  0.8629  0.0190
  525MOL0     H70841   0.785   6.822   3.165  0.5231  0.3857 -2.7382
  525MOL0     H70842   0.934   6.762   3.111  0.4036  2.9949  0.6289
  525MOL0     H70843   0.706   6.772   2.952 -1.5636 -1.0435  0.2275
  525MOL0     H70844   0.852   6.677   2.941 -0.7031 -1.4829 -1.0941
  525MOL0     H70845   0.610   6.558   3.096 -0.0241 -1.2128  1.7845
  525MOL0     H70846   0.742   6.473   3.022  1.4609 -0.2051 -2.2545
  525MOL0     H70847   0.566   6.639   2.842  1.4308  1.4603  0.9113
  525MOL0     H70848   0.680   6.523   2.794  1.5589  3.0571 -0.1582
  525MOL0     H70849   0.429   6.438   2.957  1.1008  1.3626  1.9148
  525MOL0     H70850   0.555   6.331   2.895 -2.7646 -1.1652  1.2642
  525MOL0     H70851   0.383   6.518   2.723  1.1082  1.0864  1.9547
  525MOL0     H70852   0.506   6.410   2.663 -0.8963  1.0495 -1.2374
  525MOL0     H70853   0.248   6.330   2.809 -1.2391  3.4716 -2.0135
  525MOL0     H70854   0.379   6.217   2.746 -0.8861 -1.1049 -3.9903
  525MOL0     H70855   0.182   6.216   2.609  0.3565 -0.5317  0.0968
  525MOL0     H70856   0.316   6.269   2.519 -2.5136 -1.6225 -0.8658
  525MOL0     H70857   0.850   6.446   3.404 -2.6915  0.7695  2.2924
  525MOL0     H70858   0.974   6.440   3.605  1.1822 -1.7421 -0.5027
  525MOL0     H70859   1.518   6.465   3.713 -1.2883  2.4155 -2.1524
  525MOL0     H70860   1.664   6.465   3.908 -0.1303  0.8910 -2.1551
  525MOL0     H70861   3.124   5.856   4.390  1.7725  0.5294 -1.2054
  525MOL0     H70862   3.358   5.776   4.379  2.2276 -0.2955  1.5564
  525MOL0     H70863   3.722   5.453   4.574  1.7774 -0.1524 -1.2683
  525MOL0     H70864   3.982   5.436   4.566  1.8714  1.3598  0.3103
  525MOL0     H70865   4.231   5.775   4.510  0.0163  0.4764 -0.0081
  525MOL0     H70866   4.237   5.784   4.688  0.6071  1.8592 -1.9872
  525MOL0     H70867   4.460   5.751   4.639  1.2413  0.5220 -1.9812
  525MOL0     H70868   4.422   5.622   4.518 -0.5338 -1.3505  0.6826
  525MOL0     H70869   4.316   5.489   4.716  2.3403 -2.8491  0.3988
  525MOL0     H70870   4.376   5.619   4.825  0.5596  3.0748 -1.6244
  525MOL0     H70871   4.536   5.440   4.641 -1.3456  0.7990 -1.2134
  525MOL0     H70872   4.527   5.429   4.824  1.4690 -0.3670 -1.0034
  525MOL0     H70873   4.789   5.753   4.802  0.5713 -0.0140  1.0118
  525MOL0     H70874   4.008   5.862   4.579 -0.4581 -0.0955  2.1959
  525MOL0     H70875   3.777   5.878   4.566 -1.9460 -0.2042  0.9942
  526MOL0     O70876   8.817   4.724   3.019 -0.4488 -0.3328  0.4549
  526MOL0     C70877   8.910   4.773   3.080  0.8891  0.0254  0.9384
  526MOL0     O70878   8.916   4.899   3.133  0.4323 -0.4521 -0.6242
  526MOL0     C70879   8.809   4.986   3.127  0.2222  0.1567  0.3080
  526MOL0     C70880   8.838   5.119   3.093  0.7526  0.3119  0.2379
  526MOL0     C70881   8.746   5.223   3.116  0.4558  0.4037  0.0846
  526MOL0     C70882   8.612   5.191   3.150  0.3930 -0.4544 -0.6633
  526MOL0     O70883   8.517   5.280   3.182 -1.0116  0.0276  0.8120
  526MOL0     C70884   8.541   5.423   3.199 -0.6049  0.7532  1.2851
  526MOL0     C70885   8.402   5.488   3.225  0.2133 -0.5685  0.0951
  526MOL0     C70886   8.298   5.428   3.129  0.9430  0.3913  0.7913
  526MOL0     C70887   8.165   5.504   3.129 -0.3014 -0.5759  0.3000
  526MOL0     C70888   8.076   5.463   3.019 -0.2259  0.6123  1.0616
  526MOL0     C70889   7.943   5.541   3.022  0.3151  0.2425 -0.4931
  526MOL0     C70890   7.839   5.498   3.133  0.0602  0.4903  0.0240
  526MOL0     C70891   7.694   5.481   3.077 -0.0930  0.1039 -0.3319
  526MOL0     N70892   7.599   5.443   3.188 -0.6288  0.0561  0.0063
  526MOL0     C70893   7.589   5.504   3.315  1.2588  0.4445  0.4070
  526MOL0     C70894   7.489   5.437   3.375  0.2413  0.1058  0.2686
  526MOL0     C70895   7.436   5.439   3.513  0.9078 -0.6377 -0.1344
  526MOL0     C70896   7.284   5.478   3.516 -0.8275  0.3221 -0.0540
  526MOL0     C70897   7.254   5.598   3.422 -0.2173 -0.1492 -0.1453
  526MOL0     C70898   7.106   5.626   3.431  0.2149 -0.1621  0.3241
  526MOL0     O70899   7.069   5.665   3.565  0.7746  0.9887  0.7757
  526MOL0     C70900   6.936   5.685   3.602 -0.3300 -0.6659  0.1488
  526MOL0     C70901   6.906   5.713   3.735  0.0077 -0.1533  0.0322
  526MOL0     C70902   6.776   5.740   3.782 -0.3038  0.3638  0.0577
  526MOL0     C70903   6.766   5.742   3.928  0.4432 -0.2493 -0.3617
  526MOL0     C70904   6.661   5.730   3.690  0.1009  0.3294 -1.4609
  526MOL0     C70905   6.519   5.747   3.728 -0.5028 -0.1798 -0.4599
  526MOL0     O70906   6.481   5.756   3.863  0.4086 -0.1246  0.3800
  526MOL0     C70907   6.346   5.781   3.897 -0.5966 -0.0101 -0.5056
  526MOL0     C70908   6.271   5.694   3.968 -1.0439 -0.1920 -0.1832
  526MOL0     C70909   6.137   5.726   3.996 -0.1904  0.0426  0.3406
  526MOL0     C70910   6.082   5.851   3.957 -0.1735  0.4942 -1.0112
  526MOL0     O70911   5.959   5.875   4.007  0.5528 -0.1211 -0.7523
  526MOL0     C70912   5.896   6.004   4.024 -0.5645 -0.1330 -0.0436
  526MOL0     C70913   5.814   6.035   3.899 -0.4789 -0.2030 -0.7779
  526MOL0     C70914   5.671   5.975   3.921 -0.9985 -0.6478 -0.0934
  526MOL0     C70915   5.583   6.061   4.021 -0.2910  0.3666 -0.1045
  526MOL0     C70916   5.434   6.020   4.009  0.4986  0.3179 -0.3427
  526MOL0     C70917   5.410   5.888   4.093 -0.2106  0.0334  0.4484
  526MOL0     C70918   5.256   5.880   4.120 -0.1052  0.8897 -0.0574
  526MOL0     C70919   5.234   5.766   4.203 -0.2239  0.2370  0.1169
  526MOL0    Cl70920   5.258   5.615   4.118  0.4688 -0.0169 -0.3101
  526MOL0     C70921   6.163   5.938   3.892  0.5524  0.3177  0.0439
  526MOL0     C70922   6.295   5.912   3.867  0.3072  0.5606 -0.6773
  526MOL0     O70923   6.440   5.746   3.636  0.5089 -0.3736  0.4877
  526MOL0     C70924   6.695   5.706   3.561 -0.2740  0.4743 -0.3506
  526MOL0     C70925   6.826   5.686   3.515 -0.0280 -0.3282  0.4530
  526MOL0     N70926   7.430   5.353   3.286 -0.2037 -0.0193 -0.4983
  526MOL0     N70927   7.495   5.357   3.174  0.3885  0.6255 -0.1189
  526MOL0     C70928   8.588   5.057   3.171  0.7600  0.4102  0.1094
  526MOL0     C70929   8.678   4.952   3.154 -0.3980  0.9910  0.2668
  526MOL0     C70930   9.031   4.690   3.092 -0.0444  0.5685 -0.2854
  526MOL0     C70931   9.048   4.573   3.011 -1.0598  1.0314  0.5402
  526MOL0     C70932   9.167   4.492   3.029  0.1033  0.3522 -0.4722
  526MOL0     C70933   9.265   4.529   3.122 -0.4438  0.0975 -0.2411
  526MOL0     O70934   9.368   4.445   3.149  0.4793  0.2049 -0.4415
  526MOL0     C70935   9.380   4.414   3.288 -0.2858 -0.2070  0.2551
  526MOL0     C70936   9.408   4.265   3.299  0.4297  0.4124  0.3728
  526MOL0     C70937   9.532   4.231   3.215 -0.1915 -0.8422 -0.7215
  526MOL0     C70938   9.577   4.088   3.233  0.8816 -0.3590  0.2228
  526MOL0     C70939   9.710   4.064   3.188  0.3682  0.2427 -0.1711
  526MOL0     C70940   9.819   4.064   3.135 -0.2872 -0.5205 -0.3811
  526MOL0     C70941   9.245   4.643   3.192 -0.9124 -0.8282 -0.7579
  526MOL0     C70942   9.136   4.724   3.180  0.5851 -0.1154  0.3373
  526MOL0     H70943   8.942   5.133   3.065  1.7449 -2.2557  2.2000
  526MOL0     H70944   8.781   5.326   3.107 -0.2662  0.4995 -2.0875
  526MOL0     H70945   8.621   5.449   3.268 -0.7228  2.0610  0.9588
  526MOL0     H70946   8.570   5.454   3.098  1.7524  0.4047  1.7952
  526MOL0     H70947   8.366   5.462   3.325  2.1977 -3.0678  0.2548
  526MOL0     H70948   8.412   5.596   3.207  1.2588 -0.5794  0.5467
  526MOL0     H70949   8.340   5.432   3.028  0.9216 -1.6827  0.6535
  526MOL0     H70950   8.281   5.322   3.152  0.0541  0.3486  0.0008
  526MOL0     H70951   8.117   5.503   3.227  1.7115  0.9480  1.3651
  526MOL0     H70952   8.175   5.612   3.123  0.0437 -0.4591  2.2143
  526MOL0     H70953   8.139   5.488   2.933  0.3487  0.7765  1.5218
  526MOL0     H70954   8.060   5.355   3.019  1.7470  0.2129 -1.9171
  526MOL0     H70955   7.966   5.646   3.045 -0.0975 -0.0191  1.2687
  526MOL0     H70956   7.898   5.533   2.922  2.5332  0.6013 -1.5778
  526MOL0     H70957   7.864   5.398   3.169 -1.0751 -0.7073 -2.2855
  526MOL0     H70958   7.835   5.572   3.213 -0.4614  0.9183 -0.3922
  526MOL0     H70959   7.689   5.406   2.997 -1.3394  0.0797 -0.2542
  526MOL0     H70960   7.654   5.572   3.032 -0.3270 -0.0827 -0.5041
  526MOL0     H70961   7.633   5.591   3.362 -0.5782 -0.1560  3.4840
  526MOL0     H70962   7.451   5.349   3.572 -0.4835 -0.7252  0.1171
  526MOL0     H70963   7.488   5.525   3.556  2.5336 -2.3972  1.5958
  526MOL0     H70964   7.253   5.495   3.620 -1.9213 -5.2395  0.8285
  526MOL0     H70965   7.222   5.390   3.497 -0.1688 -0.5245  1.5376
  526MOL0     H70966   7.279   5.576   3.318 -1.0744  1.1585 -0.6529
  526MOL0     H70967   7.319   5.684   3.444  0.7422 -0.9984  0.4311
  526MOL0     H70968   7.044   5.540   3.403  0.3279 -0.4010  0.7916
  526MOL0     H70969   7.074   5.710   3.369 -1.2342  0.5953  2.0176
  526MOL0     H70970   6.986   5.706   3.808  0.5182 -0.9990 -0.5850
  526MOL0     H70971   6.866   5.742   3.971  1.4730  0.5115 -2.5878
  526MOL0     H70972   6.698   5.812   3.976 -1.3073 -1.3434 -1.1423
  526MOL0     H70973   6.713   5.648   3.949 -0.6599 -0.2351 -2.7512
  526MOL0     H70974   6.319   5.605   4.006 -1.0924 -1.6882 -3.3359
  526MOL0     H70975   6.074   5.662   4.057  1.5494 -1.8521  0.2831
  526MOL0     H70976   5.829   5.994   4.110  0.0410 -1.2891  0.3057
  526MOL0     H70977   5.976   6.078   4.042 -0.6081 -0.3888  1.2949
  526MOL0     H70978   5.798   6.142   3.890 -0.3525 -0.2934 -2.2890
  526MOL0     H70979   5.861   5.988   3.812 -0.0648 -2.7681  0.7265
  526MOL0     H70980   5.680   5.867   3.936  0.0012 -0.5870 -0.2022
  526MOL0     H70981   5.620   5.995   3.827 -0.0373  1.6342 -0.1818
  526MOL0     H70982   5.618   6.052   4.125  0.5553  2.2359 -0.1912
  526MOL0     H70983   5.585   6.166   3.991 -0.2349  0.4302  0.1201
  526MOL0     H70984   5.388   6.011   3.910 -1.2041 -0.8978  0.5175
  526MOL0     H70985   5.366   6.090   4.057 -0.0969 -1.2071  1.1062
  526MOL0     H70986   5.433   5.809   4.020 -1.1509  0.7592 -0.6609
  526MOL0     H70987   5.477   5.878   4.179  0.4741  0.8507  0.0275
  526MOL0     H70988   5.199   5.865   4.027 -1.7972  2.1779  0.7190
  526MOL0     H70989   5.220   5.970   4.171  0.3198  2.1181 -1.7913
  526MOL0     H70990   5.132   5.764   4.244 -0.3224 -0.3460 -0.1364
  526MOL0     H70991   5.301   5.777   4.288 -1.2383  1.0848  0.8338
  526MOL0     H70992   6.129   6.040   3.876 -0.9392  0.1005  1.5515
  526MOL0     H70993   6.357   5.978   3.808  0.5143  0.5020 -0.5257
  526MOL0     H70994   6.623   5.698   3.480 -0.6502  1.0681 -0.0796
  526MOL0     H70995   6.854   5.651   3.416  2.4533  1.9229  0.2378
  526MOL0     H70996   8.489   5.037   3.213  0.6397  2.1734  0.7693
  526MOL0     H70997   8.651   4.851   3.184 -2.5211  1.4735  0.1579
  526MOL0     H70998   8.981   4.545   2.930  0.8797 -0.4569 -0.6435
  526MOL0     H70999   9.174   4.395   2.979  0.6380 -0.6832  1.4874
  526MOL0     H71000   9.463   4.472   3.329  0.1634  0.8866 -2.0286
  526MOL0     H71001   9.288   4.443   3.339  0.2828  0.8224  0.7182
  526MOL0     H71002   9.321   4.216   3.253 -0.8509  0.6061  2.4406
  526MOL0     H71003   9.418   4.232   3.403 -0.5666  3.4493  1.5458
  526MOL0     H71004   9.607   4.307   3.238  1.1436 -1.7817 -1.7856
  526MOL0     H71005   9.512   4.250   3.109  1.9903  1.7562 -0.7766
  526MOL0     H71006   9.508   4.020   3.184  0.7695 -1.1683  1.4584
  526MOL0     H71007   9.571   4.073   3.341 -3.3298 -1.4766  0.0085
  526MOL0     H71008   9.915   4.053   3.090 -0.3403  1.5649 -1.1105
  526MOL0     H71009   9.325   4.664   3.263 -0.0848 -1.6890 -1.4148
  526MOL0     H71010   9.142   4.820   3.229  0.7969  0.0994 -0.1031
  527MOL0     O71011   6.740  10.565   6.864 -0.1963 -0.4232 -0.3738
  527MOL0     C71012   6.731  10.579   6.742  0.3559 -0.6649 -0.3412
  527MOL0     O71013   6.615  10.556   6.669 -0.3526  0.1439 -0.0333
  527MOL0     C71014   6.500  10.512   6.741  0.1264 -0.5327 -0.5086
  527MOL0     C71015   6.399  10.603   6.779  0.1161  0.6604 -0.0942
  527MOL0     C71016   6.296  10.564   6.868  1.3018 -0.2216  0.2829
  527MOL0     C71017   6.286  10.432   6.905  0.4942  0.2095  0.2465
  527MOL0     O71018   6.180  10.404   6.992  0.0482  0.0220 -0.8603
  527MOL0     C71019   6.186  10.272   7.047  0.7250 -0.5051 -0.1350
  527MOL0     C71020   6.077  10.256   7.151  0.3191  0.1241  0.0593
  527MOL0     C71021   5.946  10.290   7.081  0.0827  0.4030 -0.2215
  527MOL0     C71022   5.827  10.238   7.171  0.1138 -0.2977  0.3989
  527MOL0     C71023   5.700  10.314   7.123  0.2478 -0.1244 -1.0329
  527MOL0     C71024   5.575  10.259   7.186  0.1674 -0.5125  0.0433
  527MOL0     C71025   5.454  10.284   7.090 -1.1359  0.7336 -1.0480
  527MOL0     C71026   5.319  10.248   7.155 -0.4828  0.4183 -0.3424
  527MOL0     N71027   5.283  10.104   7.153 -0.0138  0.1368  0.5158
  527MOL0     C71028   5.199  10.047   7.056  0.5362  0.0492  0.4422
  527MOL0     C71029   5.197   9.917   7.083  0.6571 -0.1360 -0.1926
  527MOL0     C71030   5.115   9.815   7.005  0.4119 -0.1343  0.0367
  527MOL0     C71031   4.967   9.824   7.033  0.3019 -0.0648  0.1670
  527MOL0     C71032   4.895   9.701   6.976 -0.5587  0.5220 -0.5390
  527MOL0     C71033   4.739   9.693   6.990  0.6848 -0.2936 -0.4038
  527MOL0     O71034   4.694   9.793   6.896 -0.0346  0.3774 -0.6263
  527MOL0     C71035   4.562   9.815   6.875 -0.7674 -0.1999 -1.1818
  527MOL0     C71036   4.538   9.906   6.772 -0.6939 -0.5316 -0.1191
  527MOL0     C71037   4.415   9.918   6.714  0.3510 -0.7211 -0.0801
  527MOL0     C71038   4.413  10.000   6.580 -0.1561 -0.2411  0.1421
  527MOL0     C71039   4.306   9.844   6.760  0.9828  0.8882 -0.8818
  527MOL0     C71040   4.167   9.859   6.710 -0.2647  0.6146 -0.6129
  527MOL0     O71041   4.145   9.924   6.596 -0.4344  0.1787  0.4944
  527MOL0     C71042   4.022   9.914   6.531 -0.7440 -0.3174 -0.2426
  527MOL0     C71043   4.013   9.874   6.398  0.2255 -1.7391 -0.0146
  527MOL0     C71044   3.883   9.861   6.335 -0.0447  0.7283  0.7565
  527MOL0     C71045   3.766   9.894   6.398  0.0224 -0.3318 -0.9270
  527MOL0     O71046   3.650   9.885   6.318  0.8323 -0.8347 -0.2688
  527MOL0     C71047   3.528   9.933   6.379  0.4696 -0.6080 -0.1723
  527MOL0     C71048   3.412   9.880   6.291 -0.0276  0.2668  0.1996
  527MOL0     C71049   3.268   9.936   6.326  0.3476  0.8520 -0.8080
  527MOL0     C71050   3.164   9.877   6.225 -0.4428 -0.0301  0.2592
  527MOL0     C71051   3.025   9.936   6.238  0.4218  0.4095 -0.2200
  527MOL0     C71052   2.935   9.909   6.120 -0.5624  0.7430 -0.2710
  527MOL0     C71053   2.795   9.949   6.148  0.8968 -0.1445  0.3774
  527MOL0     C71054   2.742  10.058   6.042 -0.2837 -0.4149  0.6565
  527MOL0    Cl71055   2.720  10.000   5.869  0.3169 -0.0804 -0.2796
  527MOL0     C71056   3.779   9.951   6.528 -0.2677  1.0496  1.3919
  527MOL0     C71057   3.902   9.946   6.593  0.2540  0.2259 -0.4809
  527MOL0     O71058   4.080   9.808   6.785  1.1929  0.3560  0.4457
  527MOL0     C71059   4.329   9.741   6.859  0.5446  0.3612  0.3356
  527MOL0     C71060   4.460   9.731   6.917  0.0705  0.2032 -0.2048
  527MOL0     N71061   5.269   9.883   7.197  0.2479 -0.5688  0.4771
  527MOL0     N71062   5.310  10.002   7.239 -0.0880  0.6829  0.6347
  527MOL0     C71063   6.381  10.340   6.856  0.4910  0.2006  0.8007
  527MOL0     C71064   6.487  10.383   6.779  0.0494 -0.7125 -0.2466
  527MOL0     C71065   6.840  10.639   6.659 -0.2843  0.4311 -0.0190
  527MOL0     C71066   6.946  10.700   6.717  0.3606 -0.6744  0.2385
  527MOL0     C71067   7.053  10.748   6.633  0.1326 -0.5215 -0.5289
  527MOL0     C71068   7.041  10.730   6.494  0.6609 -1.4897 -0.0087
  527MOL0     O71069   7.136  10.764   6.397 -0.5619  0.1705 -1.0330
  527MOL0     C71070   7.260  10.846   6.428 -0.5804  0.6871 -0.1601
  527MOL0     C71071   7.357  10.742   6.496 -0.4387 -0.4015  0.8576
  527MOL0     C71072   7.489  10.814   6.508 -0.4466  0.2576  0.3205
  527MOL0     C71073   7.602  10.733   6.577 -1.0174 -0.2322 -0.2918
  527MOL0     C71074   7.644  10.616   6.495  0.1054 -0.0845  0.3525
  527MOL0     C71075   7.692  10.527   6.434  0.7040 -0.0852  0.3766
  527MOL0     C71076   6.926  10.679   6.438  0.1312  0.3478 -0.5464
  527MOL0     C71077   6.821  10.639   6.519  0.4943  0.6574 -0.1092
  527MOL0     H71078   6.408  10.698   6.728  2.2341  0.5040 -0.1137
  527MOL0     H71079   6.227  10.637   6.910 -1.2845 -3.6940  2.6994
  527MOL0     H71080   6.157  10.205   6.965  0.0037  1.7827 -1.8372
  527MOL0     H71081   6.282  10.242   7.091  0.6324 -3.6045 -1.7587
  527MOL0     H71082   6.068  10.151   7.180  0.4405 -0.0334 -0.4524
  527MOL0     H71083   6.092  10.326   7.234  3.0525 -1.4722  1.0495
  527MOL0     H71084   5.934  10.396   7.057  0.0427  0.5132  0.2800
  527MOL0     H71085   5.934  10.239   6.985  0.8635 -3.8761  1.7250
  527MOL0     H71086   5.817  10.129   7.173  0.2846 -0.3962  4.4485
  527MOL0     H71087   5.844  10.269   7.275 -3.7171 -1.1275  1.4396
  527MOL0     H71088   5.713  10.418   7.156 -2.3109 -0.0731  0.0412
  527MOL0     H71089   5.692  10.313   7.014 -2.2982  0.1885 -0.8973
  527MOL0     H71090   5.577  10.152   7.210 -2.9703 -0.7389 -0.2738
  527MOL0     H71091   5.546  10.317   7.274 -1.9052  0.7270 -1.3514
  527MOL0     H71092   5.458  10.392   7.073 -0.1068  0.6330 -1.5089
  527MOL0     H71093   5.462  10.225   6.998 -3.0808 -1.1127 -0.1241
  527MOL0     H71094   5.254  10.307   7.091 -0.7375 -0.0949 -0.5595
  527MOL0     H71095   5.311  10.289   7.256  3.4417  1.9636 -0.4673
  527MOL0     H71096   5.144  10.096   6.976  1.6928  0.0674 -0.3610
  527MOL0     H71097   5.127   9.841   6.899  0.5290  0.2993  0.1576
  527MOL0     H71098   5.166   9.720   7.024  3.4671  1.9859  3.6143
  527MOL0     H71099   4.921   9.910   6.983  0.7498  0.5389  0.7691
  527MOL0     H71100   4.953   9.838   7.140 -0.1443  1.7002 -0.0907
  527MOL0     H71101   4.926   9.609   7.026  1.9294  1.3874 -0.3675
  527MOL0     H71102   4.924   9.704   6.871  1.8131  3.3985  0.0752
  527MOL0     H71103   4.706   9.714   7.092 -3.2627  1.9953 -1.9275
  527MOL0     H71104   4.707   9.593   6.961  1.0777 -1.6984  3.4507
  527MOL0     H71105   4.616   9.971   6.736 -0.2106  0.7050  2.8836
  527MOL0     H71106   4.514  10.016   6.542 -0.2913 -1.1567 -0.6457
  527MOL0     H71107   4.370   9.931   6.507  2.7238 -0.3153 -1.6029
  527MOL0     H71108   4.366  10.099   6.582  0.1039 -0.1189  1.3889
  527MOL0     H71109   4.102   9.853   6.340  0.5760 -4.3960  1.3058
  527MOL0     H71110   3.887   9.820   6.234 -0.6299  2.5598 -0.0634
  527MOL0     H71111   3.519   9.888   6.478  0.5916  2.0018  1.1332
  527MOL0     H71112   3.525  10.042   6.395 -1.2354 -0.9604  2.4585
  527MOL0     H71113   3.440   9.905   6.188 -2.9286  0.5335 -0.6120
  527MOL0     H71114   3.406   9.772   6.305  0.1229  0.3643  1.0760
  527MOL0     H71115   3.261  10.045   6.323  1.4781  0.9573 -0.1217
  527MOL0     H71116   3.256   9.895   6.427  3.8575  1.9066  0.1696
  527MOL0     H71117   3.200   9.892   6.123  0.5713 -3.0622  0.0916
  527MOL0     H71118   3.159   9.769   6.234  3.6355 -0.2992  1.0940
  527MOL0     H71119   3.038  10.044   6.249  0.9204  0.6139 -2.3936
  527MOL0     H71120   2.977   9.891   6.325  1.6589  0.0880  0.3208
  527MOL0     H71121   2.966   9.954   6.025  1.1278 -2.4507 -1.3658
  527MOL0     H71122   2.938   9.801   6.103  1.7834  0.6457  0.3594
  527MOL0     H71123   2.796  10.000   6.245  1.1185  3.2685 -1.2878
  527MOL0     H71124   2.726   9.864   6.137  0.4150  0.0369  1.7613
  527MOL0     H71125   2.812  10.141   6.050 -0.8117  0.3569 -1.9217
  527MOL0     H71126   2.643  10.098   6.065 -0.9546 -0.9133 -1.2101
  527MOL0     H71127   3.689   9.970   6.584 -1.3435  1.0979 -0.2638
  527MOL0     H71128   3.896   9.978   6.696 -2.6366  2.7258 -1.2557
  527MOL0     H71129   4.256   9.666   6.888  0.9720  0.1828  0.9909
  527MOL0     H71130   4.478   9.648   6.984 -1.1209 -0.8240 -1.0978
  527MOL0     H71131   6.368  10.235   6.884  0.1663  0.6315  2.3668
  527MOL0     H71132   6.558  10.306   6.752  0.0698 -0.8596  0.2163
  527MOL0     H71133   6.952  10.709   6.825  0.8374  3.3593  0.0243
  527MOL0     H71134   7.142  10.790   6.680 -1.4867  2.9032 -0.2112
  527MOL0     H71135   7.302  10.885   6.335  0.6614 -0.6535 -0.2012
  527MOL0     H71136   7.232  10.938   6.482 -0.2118  0.9693 -0.4454
  527MOL0     H71137   7.365  10.646   6.444 -0.2280 -0.0252  0.1787
  527MOL0     H71138   7.316  10.716   6.594 -1.5223 -0.2394  0.4689
  527MOL0     H71139   7.462  10.900   6.571 -0.1466  0.4143  0.2380
  527MOL0     H71140   7.521  10.850   6.410 -2.1160 -1.4304 -0.9222
  527MOL0     H71141   7.566  10.706   6.676  1.3118 -0.4137  0.5646
  527MOL0     H71142   7.689  10.799   6.585  0.5089 -1.8872 -2.2915
  527MOL0     H71143   7.754  10.460   6.378  0.4378 -0.5018  0.5699
  527MOL0     H71144   6.910  10.683   6.331 -0.3312  0.0959 -0.4877
  527MOL0     H71145   6.723  10.623   6.477 -0.9167  2.5857  2.1809
  528MOL0     O71146   9.286   8.037   4.564  0.1073  0.2455  1.1435
  528MOL0     C71147   9.372   8.124   4.549  0.0361 -0.4613 -0.3951
  528MOL0     O71148   9.361   8.236   4.467 -0.1179  0.2657 -0.6778
  528MOL0     C71149   9.235   8.265   4.414 -0.0257 -0.5596 -0.1537
  528MOL0     C71150   9.160   8.176   4.339 -0.6725 -0.4036  0.0696
  528MOL0     C71151   9.043   8.205   4.278 -0.5081  0.5928  0.2800
  528MOL0     C71152   8.985   8.329   4.294  0.0445 -0.2350  0.2795
  528MOL0     O71153   8.865   8.338   4.230  0.0366 -0.2083  0.0966
  528MOL0     C71154   8.787   8.449   4.270  0.2161 -0.3047 -0.3806
  528MOL0     C71155   8.663   8.477   4.181 -0.2666  0.3170 -0.2059
  528MOL0     C71156   8.564   8.359   4.176  0.0904 -1.1255 -0.1054
  528MOL0     C71157   8.451   8.371   4.066 -0.3462  0.3065 -0.7137
  528MOL0     C71158   8.344   8.459   4.116  0.7038 -0.5972  0.0706
  528MOL0     C71159   8.219   8.447   4.027  0.2188  0.4566  0.1942
  528MOL0     C71160   8.105   8.529   4.076 -0.6773  0.8162  0.0484
  528MOL0     C71161   7.982   8.507   3.988 -0.4497  0.7014 -0.3513
  528MOL0     N71162   7.876   8.599   4.011  0.1208 -0.4440  0.7207
  528MOL0     C71163   7.766   8.576   4.083  0.1992 -0.6522 -0.2270
  528MOL0     C71164   7.684   8.682   4.061  0.0467 -0.0012 -0.2311
  528MOL0     C71165   7.549   8.711   4.125 -0.4675  0.4794  0.1906
  528MOL0     C71166   7.434   8.649   4.039 -0.4478 -0.1773  0.5214
  528MOL0     C71167   7.302   8.701   4.082 -0.4021  0.9064 -0.4752
  528MOL0     C71168   7.193   8.629   4.022 -0.3619  0.8634 -0.6402
  528MOL0     O71169   7.168   8.673   3.882  0.6632 -0.3281 -0.1901
  528MOL0     C71170   7.059   8.760   3.851 -0.1680  1.2091 -0.3113
  528MOL0     C71171   7.024   8.765   3.713 -0.0616 -0.1777 -0.9703
  528MOL0     C71172   6.920   8.859   3.674 -0.0266 -0.3533 -0.6799
  528MOL0     C71173   6.891   8.875   3.528  0.2018 -0.6767  0.2116
  528MOL0     C71174   6.841   8.928   3.768  0.5013  0.7508  1.0661
  528MOL0     C71175   6.722   9.015   3.750  0.5414  0.2846  0.5993
  528MOL0     O71176   6.625   9.030   3.843  0.4936  0.9779  0.0633
  528MOL0     C71177   6.545   9.136   3.824 -0.9874 -0.4844 -0.4642
  528MOL0     C71178   6.570   9.248   3.909  0.0498  0.3144 -0.3569
  528MOL0     C71179   6.496   9.356   3.886  0.4823 -1.5833 -0.0397
  528MOL0     C71180   6.404   9.374   3.781 -0.3384  0.3608  0.7332
  528MOL0     O71181   6.339   9.488   3.771  0.8745  0.5911 -0.5911
  528MOL0     C71182   6.379   9.581   3.676  0.3296 -0.5671 -0.2515
  528MOL0     C71183   6.386   9.723   3.722  0.0173  0.2310 -0.0272
  528MOL0     C71184   6.252   9.787   3.740 -0.8878  0.3479  0.0329
  528MOL0     C71185   6.176   9.749   3.872 -0.2718  0.4641  0.6220
  528MOL0     C71186   6.058   9.841   3.866  0.3727  0.3037 -0.3559
  528MOL0     C71187   5.960   9.822   3.737 -0.3949  0.2882 -0.4930
  528MOL0     C71188   5.821   9.895   3.746 -0.1768 -0.4178 -0.5527
  528MOL0     C71189   5.827  10.043   3.754  0.1724 -0.8069  0.3417
  528MOL0    Cl71190   5.944  10.124   3.640 -0.0039  0.3212  0.3178
  528MOL0     C71191   6.373   9.267   3.696 -0.0612 -0.7031 -0.9891
  528MOL0     C71192   6.451   9.151   3.718  0.4724 -0.2273  0.3040
  528MOL0     O71193   6.733   9.086   3.645 -0.0723 -0.0765 -0.3718
  528MOL0     C71194   6.876   8.911   3.905 -0.3880  0.5464  0.4544
  528MOL0     C71195   6.984   8.827   3.951 -0.1642  0.3486 -0.5064
  528MOL0     N71196   7.745   8.762   3.961  0.0533 -0.5789 -0.2924
  528MOL0     N71197   7.860   8.712   3.937 -0.2757 -1.1931 -0.2299
  528MOL0     C71198   9.047   8.422   4.373  0.5432 -0.2023  0.3349
  528MOL0     C71199   9.168   8.395   4.430 -0.2387  0.0585 -0.4623
  528MOL0     C71200   9.501   8.099   4.625  0.3133  0.0082 -1.0643
  528MOL0     C71201   9.536   7.974   4.674 -0.3811  0.1043 -0.1861
  528MOL0     C71202   9.657   7.957   4.740 -0.4202 -0.4387 -0.7219
  528MOL0     C71203   9.753   8.058   4.766  0.7508  0.7471 -0.2225
  528MOL0     O71204   9.868   8.044   4.839  0.6795  0.5912  0.5926
  528MOL0     C71205   9.947   7.929   4.793  0.1809  0.3157 -0.2942
  528MOL0     C71206  10.087   7.959   4.835 -0.2112 -0.0083 -0.2748
  528MOL0     C71207  10.119   7.933   4.978  0.4404 -0.1539  0.4679
  528MOL0     C71208  10.255   7.985   5.026 -0.3441 -0.1992 -0.4328
  528MOL0     C71209  10.357   7.881   5.018 -0.1096 -0.2735 -0.1689
  528MOL0     C71210  10.443   7.795   5.012 -1.1074 -0.0366 -0.6919
  528MOL0     C71211   9.721   8.174   4.713 -0.4509 -0.0540 -0.8558
  528MOL0     C71212   9.599   8.201   4.646  0.4492 -0.3514 -0.1348
  528MOL0     H71213   9.211   8.084   4.309  1.6739  1.1962 -1.1583
  528MOL0     H71214   8.997   8.125   4.222 -0.1176  0.6826 -0.1862
  528MOL0     H71215   8.753   8.427   4.372 -2.0688  0.1218 -0.9954
  528MOL0     H71216   8.847   8.540   4.266  1.2449 -0.7985  1.8955
  528MOL0     H71217   8.615   8.561   4.231 -1.7366 -0.0801 -0.8880
  528MOL0     H71218   8.692   8.501   4.078 -0.3914  1.8011  0.0832
  528MOL0     H71219   8.613   8.263   4.156  0.4565 -1.8073  3.4657
  528MOL0     H71220   8.517   8.351   4.274 -1.0555 -3.0494 -0.7487
  528MOL0     H71221   8.486   8.411   3.970 -3.3243  3.1140 -0.7989
  528MOL0     H71222   8.411   8.270   4.054 -0.8601  0.2304  1.2892
  528MOL0     H71223   8.319   8.442   4.222 -4.3029  4.3985  0.1868
  528MOL0     H71224   8.377   8.563   4.107 -2.4482  0.7206  1.7639
  528MOL0     H71225   8.254   8.472   3.927  1.1356  0.3621  0.4799
  528MOL0     H71226   8.186   8.343   4.021  0.2208  0.5322 -1.2814
  528MOL0     H71227   8.089   8.487   4.176  0.4885 -1.1960 -0.5674
  528MOL0     H71228   8.128   8.635   4.083  1.1239  0.3992  1.0624
  528MOL0     H71229   7.946   8.405   3.999 -0.8099  1.0265  1.8882
  528MOL0     H71230   8.016   8.523   3.885 -0.2477 -0.4103 -0.4657
  528MOL0     H71231   7.744   8.493   4.149 -0.9211 -0.0230  0.2332
  528MOL0     H71232   7.552   8.673   4.228 -0.4997  0.9512  0.3663
  528MOL0     H71233   7.548   8.820   4.131  4.0155  0.7532 -0.3027
  528MOL0     H71234   7.432   8.541   4.049 -1.1399 -0.1679  0.5458
  528MOL0     H71235   7.454   8.661   3.932 -0.1661 -1.1848  0.4506
  528MOL0     H71236   7.283   8.807   4.061  1.0985  1.2153 -0.3998
  528MOL0     H71237   7.298   8.676   4.188 -0.4043 -4.0714 -1.4467
  528MOL0     H71238   7.102   8.634   4.082 -0.1420  2.4862 -0.4003
  528MOL0     H71239   7.210   8.521   4.016  0.5527  0.6933  3.0035
  528MOL0     H71240   7.080   8.711   3.638  2.1309 -1.0744  1.1901
  528MOL0     H71241   6.890   8.981   3.499 -0.2137 -0.4742  0.9382
  528MOL0     H71242   6.959   8.813   3.469 -1.5978  0.0430 -2.8658
  528MOL0     H71243   6.787   8.842   3.518 -0.1938 -0.4594  2.9510
  528MOL0     H71244   6.646   9.251   3.987  0.4658 -1.7441 -0.6387
  528MOL0     H71245   6.519   9.448   3.939 -3.1669  0.0450 -0.9960
  528MOL0     H71246   6.482   9.557   3.649  0.6445  2.4972 -2.1591
  528MOL0     H71247   6.310   9.564   3.593 -2.2720  0.8190  1.4929
  528MOL0     H71248   6.443   9.734   3.815 -0.3634 -0.7215  0.3405
  528MOL0     H71249   6.434   9.779   3.642  0.5614 -1.5605 -1.0184
  528MOL0     H71250   6.193   9.767   3.650  0.5622  1.9203 -1.3248
  528MOL0     H71251   6.270   9.894   3.749 -0.6237  0.3925 -0.9566
  528MOL0     H71252   6.147   9.644   3.863 -1.4653  0.9706 -3.7031
  528MOL0     H71253   6.228   9.772   3.965 -0.0402  1.3525  0.2808
  528MOL0     H71254   6.084   9.947   3.866 -0.0380  0.4373 -2.0731
  528MOL0     H71255   5.991   9.809   3.946  1.4399  0.3238  0.5583
  528MOL0     H71256   6.011   9.864   3.650  3.0404  1.5574  1.9380
  528MOL0     H71257   5.957   9.715   3.719  1.0188  0.3478 -1.1898
  528MOL0     H71258   5.777   9.854   3.837  1.5002  0.0382  0.5188
  528MOL0     H71259   5.781   9.861   3.650  1.6152 -0.3796 -1.3478
  528MOL0     H71260   5.852  10.089   3.850 -2.5626  3.1609 -0.5790
  528MOL0     H71261   5.730  10.090   3.736  1.3536  1.3542 -0.7079
  528MOL0     H71262   6.313   9.284   3.607  0.2285  1.7559 -0.7713
  528MOL0     H71263   6.439   9.062   3.657 -0.0488 -0.3065  0.5196
  528MOL0     H71264   6.826   8.962   3.986 -1.5900  0.1459 -0.0075
  528MOL0     H71265   7.007   8.836   4.056 -1.8031  0.0810 -0.1020
  528MOL0     H71266   9.002   8.520   4.382 -0.8320 -0.5232 -2.2585
  528MOL0     H71267   9.225   8.468   4.487  0.4423  0.3571 -1.4809
  528MOL0     H71268   9.467   7.890   4.672 -0.6503  0.2696  1.2070
  528MOL0     H71269   9.673   7.854   4.769  0.6159  0.3644  1.8139
  528MOL0     H71270   9.912   7.832   4.828 -1.3035  0.9955  0.1712
  528MOL0     H71271   9.942   7.928   4.684  0.1505  1.0178 -0.3059
  528MOL0     H71272  10.100   8.063   4.803  3.4908 -0.2856 -0.1347
  528MOL0     H71273  10.157   7.902   4.772 -0.4020 -1.1097  0.4795
  528MOL0     H71274  10.112   7.824   4.980 -1.4379 -0.0658  0.1042
  528MOL0     H71275  10.037   7.966   5.041  0.2083 -2.7255  1.6591
  528MOL0     H71276  10.232   8.013   5.130 -0.8340  0.6062 -0.7494
  528MOL0     H71277  10.276   8.078   4.972 -0.6525 -0.6574 -1.3604
  528MOL0     H71278  10.514   7.722   4.978 -1.1466  0.6963 -2.4724
  528MOL0     H71279   9.794   8.254   4.728  0.8024 -1.0326 -1.5314
  528MOL0     H71280   9.588   8.303   4.610  0.1477  0.0260  1.0021
  529MOL0     O71281   0.143   7.094   2.437  1.1700  0.8685 -0.4883
  529MOL0     C71282   0.156   7.162   2.336 -0.1898  0.1985  0.8995
  529MOL0     O71283   0.066   7.244   2.279 -0.1285  0.5952 -0.2109
  529MOL0     C71284  -0.067   7.241   2.301 -0.2092  0.6652 -0.3734
  529MOL0     C71285  -0.148   7.331   2.239  0.8230 -0.2892  0.7170
  529MOL0     C71286  -0.292   7.331   2.249 -0.8126  0.8653 -0.1465
  529MOL0     C71287  -0.354   7.242   2.332  0.2992 -0.2008  0.4617
  529MOL0     O71288  -0.493   7.258   2.347 -0.1845 -0.1041  0.4046
  529MOL0     C71289  -0.567   7.151   2.392  0.7581  0.4850 -0.1316
  529MOL0     C71290  -0.713   7.192   2.389  0.3061 -0.6340  0.5999
  529MOL0     C71291  -0.806   7.088   2.458 -0.0130  0.2995  0.0009
  529MOL0     C71292  -0.812   6.942   2.397  0.8146  0.0971  0.1057
  529MOL0     C71293  -0.922   6.853   2.468  0.0507  0.6100  0.4953
  529MOL0     C71294  -0.898   6.834   2.619 -0.0812  0.2580 -0.1147
  529MOL0     C71295  -0.973   6.707   2.675 -0.5186 -0.3087 -0.0126
  529MOL0     C71296  -0.988   6.719   2.832 -1.0049  0.6507 -0.5419
  529MOL0     N71297  -1.036   6.590   2.894  0.2164  0.2592 -0.9194
  529MOL0     C71298  -1.163   6.567   2.950 -0.9906  0.6460  0.0862
  529MOL0     C71299  -1.167   6.436   2.981  0.3479  0.4676  0.6404
  529MOL0     C71300  -1.275   6.353   3.041 -0.4520  0.5462 -0.7307
  529MOL0     C71301  -1.413   6.416   3.043  0.3674  0.4052  0.2695
  529MOL0     C71302  -1.498   6.398   2.926 -0.2056  0.7009 -0.3936
  529MOL0     C71303  -1.651   6.435   2.959 -0.5612  0.1471  0.3950
  529MOL0     O71304  -1.671   6.579   2.957  0.0599  0.1841  0.1331
  529MOL0     C71305  -1.786   6.635   2.925  1.0428 -0.8634  0.3127
  529MOL0     C71306  -1.779   6.772   2.932 -0.4241  0.7944 -0.2137
  529MOL0     C71307  -1.890   6.857   2.902 -0.5458 -0.4799  0.0566
  529MOL0     C71308  -1.842   7.004   2.890  0.1279 -0.6164 -0.7135
  529MOL0     C71309  -2.018   6.808   2.896  0.1117  0.8882  0.7894
  529MOL0     C71310  -2.146   6.889   2.897  1.1568 -0.1725  0.8471
  529MOL0     O71311  -2.260   6.821   2.896  0.0507 -0.4905 -0.0515
  529MOL0     C71312  -2.383   6.873   2.865 -0.6048  0.0149 -0.1634
  529MOL0     C71313  -2.438   6.990   2.926 -0.6901  0.7041  0.1486
  529MOL0     C71314  -2.564   7.037   2.887  0.0738 -0.1651  0.2496
  529MOL0     C71315  -2.637   6.966   2.791 -0.0971 -0.5710  0.8964
  529MOL0     O71316  -2.767   6.990   2.752  0.5663 -0.3148 -0.7750
  529MOL0     C71317  -2.856   7.008   2.864  0.2500 -0.6102  0.0005
  529MOL0     C71318  -2.994   7.005   2.814  0.2058  0.4426 -0.5030
  529MOL0     C71319  -3.080   7.037   2.938 -0.0875 -0.0578  0.0021
  529MOL0     C71320  -3.223   6.979   2.914 -0.4776 -0.2998  0.0466
  529MOL0     C71321  -3.303   7.041   2.794  0.0551  0.2623  0.1719
  529MOL0     C71322  -3.338   7.194   2.822 -0.1707 -0.3998 -0.7570
  529MOL0     C71323  -3.447   7.217   2.929 -0.1681  0.7944  0.3041
  529MOL0     C71324  -3.483   7.354   2.963 -0.1267 -1.2016 -1.8043
  529MOL0    Cl71325  -3.606   7.418   2.848  0.3639 -0.0187  0.4272
  529MOL0     C71326  -2.581   6.868   2.731 -0.2330  1.3408  0.2751
  529MOL0     C71327  -2.453   6.814   2.765 -0.6797 -0.6958  1.1462
  529MOL0     O71328  -2.133   7.010   2.897  0.5905 -0.1654  0.0497
  529MOL0     C71329  -2.026   6.664   2.908  0.7782  0.7965 -0.1655
  529MOL0     C71330  -1.916   6.586   2.916  0.6935  0.3650  1.0300
  529MOL0     N71331  -1.048   6.375   2.940 -0.2885 -0.1405 -0.1801
  529MOL0     N71332  -0.975   6.467   2.887  0.1561  0.8912 -0.2596
  529MOL0     C71333  -0.276   7.151   2.408 -1.2902 -0.6581 -0.2202
  529MOL0     C71334  -0.134   7.153   2.387 -0.1911 -0.2060  0.1706
  529MOL0     C71335   0.293   7.155   2.285  0.0375 -0.2861  0.5855
  529MOL0     C71336   0.329   7.199   2.159 -0.0583  0.8028  0.0522
  529MOL0     C71337   0.469   7.191   2.114  0.7841 -0.1831 -0.2319
  529MOL0     C71338   0.574   7.143   2.198  0.3290 -0.2812 -0.0610
  529MOL0     O71339   0.699   7.150   2.155 -0.0162  0.1735  0.6540
  529MOL0     C71340   0.815   7.130   2.248  1.1819 -0.4223 -0.1749
  529MOL0     C71341   0.854   6.985   2.236  0.1828 -0.3962 -0.9921
  529MOL0     C71342   0.956   6.945   2.339  0.6707  0.0034  0.1751
  529MOL0     C71343   1.009   6.806   2.284  0.1507 -1.7195  0.2496
  529MOL0     C71344   1.060   6.727   2.396 -1.0536 -0.2064  0.3808
  529MOL0     C71345   1.094   6.657   2.488 -0.2586 -0.8312 -0.0032
  529MOL0     C71346   0.531   7.104   2.326 -0.7594 -0.2565 -0.0876
  529MOL0     C71347   0.399   7.108   2.356 -0.3118  0.3838  0.3007
  529MOL0     H71348  -0.101   7.402   2.172 -0.8702 -1.4956 -1.9089
  529MOL0     H71349  -0.349   7.404   2.191 -0.4356  1.9671  0.8209
  529MOL0     H71350  -0.558   7.066   2.323 -2.2975 -0.0566 -0.0034
  529MOL0     H71351  -0.533   7.114   2.489  0.5552 -1.5702 -0.8014
  529MOL0     H71352  -0.716   7.294   2.429  3.6576 -0.7858  1.5667
  529MOL0     H71353  -0.742   7.188   2.284  1.6897 -1.1840  0.2165
  529MOL0     H71354  -0.780   7.095   2.564 -0.1923  0.2776  0.0469
  529MOL0     H71355  -0.911   7.121   2.458 -0.1213  0.0754  1.8581
  529MOL0     H71356  -0.834   6.952   2.291  0.4505 -0.7153  0.1018
  529MOL0     H71357  -0.714   6.896   2.413  1.2622  0.4671 -1.4550
  529MOL0     H71358  -1.023   6.891   2.450 -1.1395 -2.8591 -1.1233
  529MOL0     H71359  -0.910   6.752   2.427  0.6251  0.6917  0.4625
  529MOL0     H71360  -0.791   6.821   2.637 -0.1703  2.2260  2.3712
  529MOL0     H71361  -0.939   6.916   2.679 -1.0161  1.7498 -2.6120
  529MOL0     H71362  -1.076   6.701   2.640 -1.1520 -2.6049  1.9798
  529MOL0     H71363  -0.916   6.617   2.650 -0.4205 -1.0699  2.6905
  529MOL0     H71364  -1.060   6.799   2.854 -0.5498  0.4212  2.0917
  529MOL0     H71365  -0.886   6.737   2.866 -1.2294 -1.7847  1.7386
  529MOL0     H71366  -1.246   6.635   2.965 -0.8590  1.3927 -2.2408
  529MOL0     H71367  -1.279   6.249   3.006 -0.1811 -0.2661  1.5080
  529MOL0     H71368  -1.255   6.346   3.148 -0.0871 -0.2674 -0.8407
  529MOL0     H71369  -1.405   6.524   3.064  1.7165  0.5847 -1.0465
  529MOL0     H71370  -1.456   6.379   3.137  2.2529  2.1034  1.8932
  529MOL0     H71371  -1.489   6.302   2.875 -0.3178  0.4106  0.1244
  529MOL0     H71372  -1.468   6.468   2.849  1.6306  1.4785  0.9482
  529MOL0     H71373  -1.678   6.400   3.059 -1.9840  1.5044  0.5356
  529MOL0     H71374  -1.715   6.388   2.884  1.0516  0.1821 -1.0647
  529MOL0     H71375  -1.685   6.817   2.963 -0.5505  1.5566 -0.8930
  529MOL0     H71376  -1.742   7.018   2.847  0.4510  0.5091  0.3467
  529MOL0     H71377  -1.917   7.051   2.827  0.0853  0.2271 -0.0423
  529MOL0     H71378  -1.854   7.064   2.980 -2.6670 -1.6078 -0.3363
  529MOL0     H71379  -2.380   7.039   3.003  1.3207 -0.6987 -0.3870
  529MOL0     H71380  -2.607   7.120   2.941 -0.5344  1.1630 -2.1283
  529MOL0     H71381  -2.847   6.937   2.947 -3.6183 -0.0125  1.0962
  529MOL0     H71382  -2.835   7.101   2.918  1.3352 -0.2425 -0.9993
  529MOL0     H71383  -3.008   7.079   2.735  0.5143  0.8564 -0.1729
  529MOL0     H71384  -3.009   6.900   2.787  0.2904 -0.6347  3.1172
  529MOL0     H71385  -3.071   7.146   2.945  1.6727 -0.2324  1.3497
  529MOL0     H71386  -3.058   6.990   3.035 -2.9669 -1.1158  0.2562
  529MOL0     H71387  -3.222   6.871   2.897 -2.1826 -0.1473 -1.3259
  529MOL0     H71388  -3.278   6.994   3.007 -0.0242 -0.3193  0.3217
  529MOL0     H71389  -3.395   6.982   2.782  1.0912 -1.8967  2.1679
  529MOL0     H71390  -3.244   7.018   2.705 -0.4683  1.4287 -0.4962
  529MOL0     H71391  -3.242   7.241   2.846  0.6917 -2.6913  0.6199
  529MOL0     H71392  -3.373   7.251   2.735  3.0438  0.0303 -1.8910
  529MOL0     H71393  -3.417   7.168   3.022 -1.7006  0.5272  0.6766
  529MOL0     H71394  -3.538   7.173   2.888  0.8940  1.7391 -3.4105
  529MOL0     H71395  -3.398   7.422   2.950 -0.8702 -0.0422 -0.8986
  529MOL0     H71396  -3.515   7.363   3.067  0.7364  2.6229 -1.7290
  529MOL0     H71397  -2.632   6.821   2.647 -3.0919 -1.7874  3.4537
  529MOL0     H71398  -2.404   6.729   2.718  0.9321  1.1819 -0.7343
  529MOL0     H71399  -2.126   6.623   2.900  0.8640  0.8533 -2.1703
  529MOL0     H71400  -1.947   6.482   2.918 -2.0845  1.0368 -1.0316
  529MOL0     H71401  -0.331   7.085   2.474 -0.0468 -3.0332 -1.3912
  529MOL0     H71402  -0.075   7.076   2.436  1.0118  1.4970  1.4875
  529MOL0     H71403   0.251   7.242   2.098 -1.8410  0.6411  2.0965
  529MOL0     H71404   0.478   7.211   2.008 -0.8300 -0.2453 -0.4021
  529MOL0     H71405   0.900   7.193   2.221  2.1759 -2.0358 -0.9895
  529MOL0     H71406   0.793   7.162   2.350  4.4917  1.2812  0.1360
  529MOL0     H71407   0.910   6.985   2.141  4.5159 -0.2187  1.2955
  529MOL0     H71408   0.767   6.919   2.234 -0.3406  0.1511  1.4626
  529MOL0     H71409   0.911   6.927   2.438  0.5057 -4.7304 -0.5152
  529MOL0     H71410   1.033   7.023   2.338  0.9291 -0.2352  0.7869
  529MOL0     H71411   1.094   6.828   2.218  1.0432  0.6688  2.0715
  529MOL0     H71412   0.926   6.765   2.224 -0.2211  2.6492 -2.6493
  529MOL0     H71413   1.120   6.582   2.561 -1.7288 -1.0457  0.3443
  529MOL0     H71414   0.598   7.075   2.406  0.6771 -1.0616 -1.5280
  529MOL0     H71415   0.389   7.076   2.459  2.0933  0.7375  0.6802
  530MOL0     O71416   4.937   6.009   4.888 -0.3857  0.4574  0.6091
  530MOL0     C71417   4.914   6.099   4.802 -0.3807  0.2746  0.5282
  530MOL0     O71418   4.809   6.188   4.795 -0.1305  0.1756  0.4095
  530MOL0     C71419   4.713   6.183   4.899  0.4800 -0.2836  0.8962
  530MOL0     C71420   4.632   6.081   4.943 -0.7997 -0.1057  1.2571
  530MOL0     C71421   4.528   6.104   5.029 -0.2095  0.6449 -0.3909
  530MOL0     C71422   4.496   6.231   5.078 -0.5886 -0.0970 -0.0904
  530MOL0     O71423   4.404   6.237   5.173 -0.4588  0.0520  0.1992
  530MOL0     C71424   4.291   6.322   5.143  0.4914  0.1137 -0.5410
  530MOL0     C71425   4.183   6.306   5.257 -0.2990 -0.2668  0.3772
  530MOL0     C71426   4.230   6.362   5.393 -0.4366  0.6632  0.6137
  530MOL0     C71427   4.138   6.300   5.503 -1.1521 -0.1254 -0.2058
  530MOL0     C71428   4.001   6.341   5.498 -0.4531 -0.1047 -0.1515
  530MOL0     C71429   3.981   6.496   5.495  0.6066  0.5592 -0.5064
  530MOL0     C71430   3.835   6.532   5.517  0.1273 -0.4016 -0.3432
  530MOL0     C71431   3.817   6.690   5.494  0.6032  0.7353  0.3552
  530MOL0     N71432   3.668   6.708   5.507 -1.0846 -0.6842  0.8013
  530MOL0     C71433   3.594   6.722   5.629  0.1669 -0.2270 -0.3236
  530MOL0     C71434   3.463   6.747   5.579  0.2661 -0.3524 -0.1575
  530MOL0     C71435   3.342   6.776   5.663  0.0861 -0.0856  0.2456
  530MOL0     C71436   3.222   6.825   5.576 -0.6322 -0.5141 -0.3627
  530MOL0     C71437   3.255   6.961   5.518 -0.6570  0.3190 -0.6488
  530MOL0     C71438   3.223   6.971   5.373  0.4048 -0.2251  0.6790
  530MOL0     O71439   3.194   7.105   5.340 -0.3683  0.7341  0.1476
  530MOL0     C71440   3.195   7.147   5.210 -0.2416 -1.1046 -0.6549
  530MOL0     C71441   3.177   7.067   5.101  0.8550 -1.0664 -0.4907
  530MOL0     C71442   3.187   7.116   4.968  0.1544  0.4478  0.4749
  530MOL0     C71443   3.172   7.028   4.844  0.1342  1.3626 -0.2713
  530MOL0     C71444   3.218   7.258   4.949  0.8541 -0.2802 -0.1235
  530MOL0     C71445   3.238   7.331   4.818  0.2174  0.6553  0.3462
  530MOL0     O71446   3.312   7.263   4.725 -0.6305  0.1450  0.0400
  530MOL0     C71447   3.370   7.329   4.616 -0.2192 -0.5550 -0.2548
  530MOL0     C71448   3.508   7.347   4.614 -0.2415 -0.0911  0.6371
  530MOL0     C71449   3.577   7.409   4.501 -0.4900  0.4737  0.0709
  530MOL0     C71450   3.500   7.455   4.393 -1.4958 -0.3166 -0.6869
  530MOL0     O71451   3.545   7.516   4.282  0.0903 -0.0432  0.4308
  530MOL0     C71452   3.689   7.516   4.271  0.7031 -0.1675  0.5171
  530MOL0     C71453   3.735   7.561   4.127 -0.7557 -0.0344 -0.4270
  530MOL0     C71454   3.887   7.562   4.108 -0.1792  0.1310  0.5268
  530MOL0     C71455   3.952   7.682   4.167  0.4775 -1.0718 -0.1174
  530MOL0     C71456   4.108   7.669   4.166 -0.6215  0.1477  0.3144
  530MOL0     C71457   4.134   7.555   4.266 -0.6180 -0.6152  0.3200
  530MOL0     C71458   4.181   7.430   4.187 -0.5782  0.5704 -0.9352
  530MOL0     C71459   4.242   7.330   4.293 -0.8962  0.0583 -0.4173
  530MOL0    Cl71460   4.113   7.258   4.385 -0.1192  0.1166  0.2661
  530MOL0     C71461   3.363   7.430   4.394 -0.4130  0.7288  1.0475
  530MOL0     C71462   3.298   7.370   4.503 -0.9873  0.6783 -0.1189
  530MOL0     O71463   3.202   7.449   4.810 -0.3323  0.0095 -0.3564
  530MOL0     C71464   3.228   7.337   5.065 -0.6684  0.5132  0.7238
  530MOL0     C71465   3.208   7.285   5.192  0.2197  0.8215  0.5305
  530MOL0     N71466   3.467   6.723   5.445  0.7344  0.8325  1.1096
  530MOL0     N71467   3.584   6.694   5.398 -0.5349  0.1959 -0.3808
  530MOL0     C71468   4.573   6.341   5.036  0.1425  0.8157 -0.4470
  530MOL0     C71469   4.688   6.314   4.952  0.4677  0.0792 -0.1040
  530MOL0     C71470   5.026   6.118   4.703  0.2243  0.2122 -0.2992
  530MOL0     C71471   5.124   6.019   4.674 -0.3611  0.2415 -0.0405
  530MOL0     C71472   5.217   6.033   4.578 -0.0731 -0.2524  0.2733
  530MOL0     C71473   5.221   6.147   4.507 -0.2768 -0.0402  0.0487
  530MOL0     O71474   5.331   6.159   4.425 -0.2642  0.1658  0.0415
  530MOL0     C71475   5.364   6.277   4.369  0.3726 -0.3066  1.0507
  530MOL0     C71476   5.447   6.367   4.455  0.2481  0.2035  0.4762
  530MOL0     C71477   5.573   6.311   4.502 -0.3743  0.7988  0.0967
  530MOL0     C71478   5.554   6.254   4.649  0.3443  0.7936  1.4063
  530MOL0     C71479   5.670   6.183   4.676 -0.2267 -0.3313  0.8660
  530MOL0     C71480   5.780   6.135   4.677 -0.7299  0.1316 -0.5111
  530MOL0     C71481   5.129   6.254   4.532 -0.2371 -0.1652 -0.1657
  530MOL0     C71482   5.038   6.235   4.633 -0.0536 -0.2372 -0.4104
  530MOL0     H71483   4.654   5.980   4.909  1.2204  0.8510 -0.5836
  530MOL0     H71484   4.478   6.015   5.065  2.1647 -1.4599 -2.0432
  530MOL0     H71485   4.322   6.427   5.143  0.7595  0.0365  0.2225
  530MOL0     H71486   4.246   6.310   5.044 -0.4050  1.6401 -0.3519
  530MOL0     H71487   4.096   6.369   5.237  0.4727  1.2395  1.5802
  530MOL0     H71488   4.164   6.199   5.249 -1.1862 -0.0116 -1.4524
  530MOL0     H71489   4.332   6.325   5.400 -1.8481 -3.7174  1.1502
  530MOL0     H71490   4.222   6.471   5.389 -0.6375  0.6143 -0.7261
  530MOL0     H71491   4.143   6.191   5.496 -1.8829 -0.4986  3.3557
  530MOL0     H71492   4.180   6.332   5.598  2.8919  3.3591 -2.7752
  530MOL0     H71493   3.947   6.293   5.415 -0.2167  0.0082 -0.3693
  530MOL0     H71494   3.942   6.305   5.583 -1.0211  2.4824  0.6296
  530MOL0     H71495   4.039   6.525   5.583  2.3441  0.3040 -1.5024
  530MOL0     H71496   4.026   6.548   5.409  0.8458  0.8704 -0.1968
  530MOL0     H71497   3.770   6.498   5.436 -0.9627  2.2436 -0.6661
  530MOL0     H71498   3.803   6.490   5.613  0.1852 -0.6577 -0.4346
  530MOL0     H71499   3.831   6.731   5.394 -3.4981  1.4742 -0.0908
  530MOL0     H71500   3.879   6.744   5.566  2.6362 -2.6455  1.3435
  530MOL0     H71501   3.627   6.732   5.732 -1.1989 -1.9705  0.3334
  530MOL0     H71502   3.306   6.688   5.719  0.0859 -1.4451 -1.7920
  530MOL0     H71503   3.372   6.860   5.726  2.4491 -0.9286  0.3478
  530MOL0     H71504   3.132   6.828   5.638 -1.8279  0.3016 -2.0802
  530MOL0     H71505   3.208   6.749   5.499  0.6409 -1.8812  0.6870
  530MOL0     H71506   3.357   6.987   5.549 -1.1796 -0.1628  1.6670
  530MOL0     H71507   3.184   7.030   5.565  2.4066  3.7459 -0.5996
  530MOL0     H71508   3.127   6.921   5.358  0.2929 -0.2423  1.4342
  530MOL0     H71509   3.292   6.913   5.310  0.5211  1.2809 -0.6310
  530MOL0     H71510   3.159   6.961   5.115  0.5055 -1.0689 -0.9233
  530MOL0     H71511   3.159   7.079   4.749  0.1175 -1.0064 -1.6170
  530MOL0     H71512   3.261   6.964   4.834  0.3865  1.7626 -0.6045
  530MOL0     H71513   3.091   6.956   4.854  1.5025 -0.3720 -1.1099
  530MOL0     H71514   3.566   7.308   4.697  0.7953 -1.3736 -0.6226
  530MOL0     H71515   3.683   7.424   4.487 -0.7439  0.8561 -1.8156
  530MOL0     H71516   3.729   7.583   4.348  1.5777 -0.0802  0.0015
  530MOL0     H71517   3.730   7.418   4.294  2.3309  0.7580  1.7300
  530MOL0     H71518   3.684   7.499   4.052 -2.1055 -0.2528  0.6079
  530MOL0     H71519   3.680   7.653   4.104  0.2911  0.6305 -0.3141
  530MOL0     H71520   3.911   7.565   4.001  0.2822  1.9446  0.6516
  530MOL0     H71521   3.916   7.466   4.153 -1.0920 -0.0802  0.6684
  530MOL0     H71522   3.919   7.764   4.104 -1.5740  1.3836  3.7680
  530MOL0     H71523   3.912   7.708   4.266  2.1543 -0.1491  0.3546
  530MOL0     H71524   4.156   7.762   4.199  0.4645 -1.5119  3.8590
  530MOL0     H71525   4.147   7.658   4.064  0.7012 -0.9602  0.9110
  530MOL0     H71526   4.225   7.589   4.316 -1.6141  1.0084  1.0856
  530MOL0     H71527   4.052   7.530   4.333  0.1134 -1.4918  0.9223
  530MOL0     H71528   4.269   7.448   4.125  0.8308  0.7200  1.0321
  530MOL0     H71529   4.108   7.380   4.122  1.4596  0.4635 -3.2774
  530MOL0     H71530   4.317   7.379   4.354  0.0341 -0.9345 -0.7225
  530MOL0     H71531   4.305   7.257   4.241 -1.3549  0.4254 -1.5180
  530MOL0     H71532   3.310   7.461   4.305 -0.7829 -0.1319  0.9616
  530MOL0     H71533   3.192   7.350   4.514 -0.9359  1.0617  1.3961
  530MOL0     H71534   3.260   7.441   5.061 -1.1031  0.6735  1.2272
  530MOL0     H71535   3.223   7.349   5.278  1.7223  2.7973 -1.1080
  530MOL0     H71536   4.553   6.443   5.066 -0.3509  0.6603 -0.2386
  530MOL0     H71537   4.755   6.394   4.921  1.4138  0.0129  1.6683
  530MOL0     H71538   5.127   5.924   4.727  0.7359 -1.2703 -2.6131
  530MOL0     H71539   5.296   5.958   4.572 -1.6114 -1.9776  0.4565
  530MOL0     H71540   5.423   6.256   4.279 -0.9873 -1.3695  0.3766
  530MOL0     H71541   5.277   6.336   4.337  2.6352  1.4080 -2.6397
  530MOL0     H71542   5.379   6.390   4.537  0.3157 -0.6140  0.7720
  530MOL0     H71543   5.473   6.458   4.398 -0.7961  0.2925  0.1244
  530MOL0     H71544   5.653   6.385   4.511  2.5404 -2.1585  0.2340
  530MOL0     H71545   5.610   6.230   4.438 -1.0555  1.0308 -0.6100
  530MOL0     H71546   5.463   6.196   4.661 -0.1453  1.4699  1.0611
  530MOL0     H71547   5.545   6.328   4.730 -3.2882 -0.0755  1.9483
  530MOL0     H71548   5.876   6.089   4.691  0.0665  2.0331  0.7166
  530MOL0     H71549   5.139   6.341   4.468  0.9088 -2.3657 -3.1822
  530MOL0     H71550   4.958   6.306   4.653 -2.3605 -2.5308 -0.9845
  531MOL0     O71551   0.760  10.220   6.356  0.6005 -0.2348  0.0042
  531MOL0     C71552   0.739  10.126   6.431 -0.0963 -0.1463  1.0495
  531MOL0     O71553   0.614  10.075   6.451  0.1527  0.0997 -0.0370
  531MOL0     C71554   0.505  10.119   6.378  0.4818  0.6223  1.0799
  531MOL0     C71555   0.418  10.016   6.335  0.5225  0.0442  0.3781
  531MOL0     C71556   0.303  10.050   6.276  0.3673 -0.0207 -0.4805
  531MOL0     C71557   0.253  10.184   6.262  0.5411 -0.3491  0.1644
  531MOL0     O71558   0.131  10.222   6.210 -0.1872  0.3100  0.0144
  531MOL0     C71559   0.070  10.125   6.137  0.0398 -0.7218 -0.3111
  531MOL0     C71560  -0.062  10.186   6.099  0.7306 -0.3951  0.0981
  531MOL0     C71561  -0.144  10.082   6.023 -0.0714 -0.0053  0.2969
  531MOL0     C71562  -0.275  10.140   5.971  0.2736  0.2433  1.0016
  531MOL0     C71563  -0.385  10.035   5.961  1.1405  0.1962 -0.0553
  531MOL0     C71564  -0.524  10.081   5.905  0.1175 -0.2019  0.9308
  531MOL0     C71565  -0.604   9.946   5.892 -0.4892 -0.4244 -0.6125
  531MOL0     C71566  -0.736   9.986   5.819 -0.1124 -0.5426  0.0534
  531MOL0     N71567  -0.823   9.875   5.790 -0.6596 -0.1327  0.7842
  531MOL0     C71568  -0.962   9.896   5.791  0.4424 -0.7865 -0.9274
  531MOL0     C71569  -1.016   9.778   5.751  0.0200  0.3075 -0.6638
  531MOL0     C71570  -1.156   9.760   5.737  0.6241 -0.0827 -0.0042
  531MOL0     C71571  -1.237   9.756   5.864  0.5694  0.3814  0.0082
  531MOL0     C71572  -1.389   9.742   5.833  0.2515 -0.0865  0.7349
  531MOL0     C71573  -1.470   9.857   5.891 -0.2579  0.4847 -0.1438
  531MOL0     O71574  -1.578   9.882   5.796  0.0192 -0.3921  0.4582
  531MOL0     C71575  -1.694   9.942   5.828 -0.0761 -0.3635 -0.5404
  531MOL0     C71576  -1.782   9.966   5.724 -0.0292  0.2310  0.4143
  531MOL0     C71577  -1.907  10.038   5.731  0.7729  0.4365  0.7545
  531MOL0     C71578  -1.982  10.041   5.601  0.1313 -0.1982 -1.0293
  531MOL0     C71579  -1.960  10.070   5.862 -0.0781  0.0159  1.0071
  531MOL0     C71580  -2.086  10.134   5.881 -0.4012 -0.6314  0.1721
  531MOL0     O71581  -2.111  10.170   6.018  0.3856  0.6136  0.5825
  531MOL0     C71582  -2.224  10.237   6.045 -0.8091 -0.8543  0.1877
  531MOL0     C71583  -2.230  10.380   6.028  0.1783 -0.0031 -0.2880
  531MOL0     C71584  -2.352  10.441   6.035  0.6551 -0.8075  0.0622
  531MOL0     C71585  -2.465  10.365   6.069 -0.7027 -0.7530 -0.2892
  531MOL0     O71586  -2.587  10.418   6.056  0.1556 -0.0791 -0.0016
  531MOL0     C71587  -2.618  10.506   5.948 -0.6423 -0.0120  0.1812
  531MOL0     C71588  -2.631  10.653   5.997 -1.4737 -0.0235 -0.3993
  531MOL0     C71589  -2.770  10.679   6.052 -0.5525  0.0567  0.1763
  531MOL0     C71590  -2.876  10.720   5.950  0.5144 -0.1721 -0.6895
  531MOL0     C71591  -3.024  10.748   6.002 -0.0447  0.2834 -0.4709
  531MOL0     C71592  -3.033  10.817   6.141 -1.1147 -0.0648  0.4505
  531MOL0     C71593  -3.170  10.884   6.179 -0.3593 -0.1450  0.2926
  531MOL0     C71594  -3.270  10.773   6.227 -0.7460 -0.6734 -0.1587
  531MOL0    Cl71595  -3.433  10.851   6.272  0.2096 -0.0377  0.4289
  531MOL0     C71596  -2.444  10.233   6.115 -0.0722 -0.2371  1.0813
  531MOL0     C71597  -2.322  10.173   6.114 -0.3259 -0.1544 -0.0662
  531MOL0     O71598  -2.155  10.169   5.782  0.5792 -0.0771 -0.0686
  531MOL0     C71599  -1.867  10.051   5.974  0.5037 -0.2250  0.2351
  531MOL0     C71600  -1.742   9.981   5.955 -0.0982  0.0182  0.3990
  531MOL0     N71601  -0.907   9.691   5.725 -0.3462 -0.4543  0.5293
  531MOL0     N71602  -0.796   9.752   5.747  0.3578 -0.3012 -0.4714
  531MOL0     C71603   0.328  10.286   6.328  0.3425  0.1394 -0.0746
  531MOL0     C71604   0.461  10.255   6.371 -0.1979  0.0023  0.4632
  531MOL0     C71605   0.850  10.060   6.504 -0.5900  0.1482 -0.3348
  531MOL0     C71606   0.855   9.928   6.526 -0.5095  0.7421  0.4874
  531MOL0     C71607   0.964   9.855   6.572  0.1027 -0.5235  0.2463
  531MOL0     C71608   1.084   9.915   6.599  0.3759 -1.1736 -0.2190
  531MOL0     O71609   1.183   9.834   6.651 -0.5302 -0.0573  0.7889
  531MOL0     C71610   1.305   9.898   6.700  0.0390 -0.1314  1.3524
  531MOL0     C71611   1.397   9.804   6.760  0.6006  0.3121 -0.2183
  531MOL0     C71612   1.484   9.737   6.663  0.3965 -0.2971  0.5861
  531MOL0     C71613   1.516   9.599   6.707 -0.1343  0.0153 -0.4532
  531MOL0     C71614   1.414   9.504   6.673  0.1620  0.0961  0.2527
  531MOL0     C71615   1.325   9.423   6.652 -0.0768 -0.6341 -0.5306
  531MOL0     C71616   1.089  10.051   6.568  0.6768  0.3245 -0.2075
  531MOL0     C71617   0.977  10.122   6.514  0.3026  1.1736  0.1605
  531MOL0     H71618   0.451   9.913   6.339  0.7385  0.0099 -1.4688
  531MOL0     H71619   0.246   9.967   6.236 -3.3324 -0.2906  4.3525
  531MOL0     H71620   0.121  10.094   6.045 -0.8161 -1.7869 -0.4483
  531MOL0     H71621   0.051  10.040   6.203 -0.7841 -1.1958 -1.1310
  531MOL0     H71622  -0.112  10.216   6.191  0.6360  0.8448 -0.3434
  531MOL0     H71623  -0.060  10.266   6.025 -0.0721 -0.6738 -0.2376
  531MOL0     H71624  -0.085  10.032   5.945  1.7066 -0.6123  1.9665
  531MOL0     H71625  -0.170  10.001   6.091  1.3620 -3.4407 -2.9158
  531MOL0     H71626  -0.318  10.218   6.036  0.1546 -2.6009  4.6820
  531MOL0     H71627  -0.256  10.189   5.875  3.3620  1.0875  1.9228
  531MOL0     H71628  -0.343   9.958   5.897  2.3851  0.0959  0.8398
  531MOL0     H71629  -0.400  10.003   6.065  0.2537 -0.1241 -0.2725
  531MOL0     H71630  -0.580  10.151   5.967 -1.1768  1.5904 -2.0453
  531MOL0     H71631  -0.507  10.107   5.800  0.2463 -0.0432  0.9900
  531MOL0     H71632  -0.545   9.879   5.828 -0.0981  0.6956 -1.4672
  531MOL0     H71633  -0.637   9.908   5.989  2.5201 -0.4188  0.5082
  531MOL0     H71634  -0.710  10.035   5.724 -0.4047  2.6818  1.5129
  531MOL0     H71635  -0.797  10.055   5.877 -0.7351 -1.1976  0.1927
  531MOL0     H71636  -1.010   9.988   5.821  1.0406 -0.2026 -1.7119
  531MOL0     H71637  -1.190   9.846   5.678  0.5949  0.3251  0.5965
  531MOL0     H71638  -1.174   9.667   5.682 -1.0541  0.7179 -0.8716
  531MOL0     H71639  -1.222   9.834   5.940 -1.9790 -0.5578  1.6073
  531MOL0     H71640  -1.211   9.666   5.921 -0.2845  0.4946  0.6029
  531MOL0     H71641  -1.424   9.654   5.888  0.7611  0.0264  1.2550
  531MOL0     H71642  -1.415   9.740   5.727 -1.7579 -0.0786  1.1944
  531MOL0     H71643  -1.414   9.951   5.893 -1.4035  1.1922 -0.4799
  531MOL0     H71644  -1.511   9.823   5.987 -0.0607  1.0197  0.1358
  531MOL0     H71645  -1.745   9.936   5.627 -2.1350 -0.8112 -0.1253
  531MOL0     H71646  -1.946   9.983   5.515 -1.4597 -3.8492  0.5253
  531MOL0     H71647  -2.087  10.015   5.617 -0.4385  2.9949  1.1404
  531MOL0     H71648  -1.991  10.148   5.582 -1.1640  0.0506  0.7442
  531MOL0     H71649  -2.145  10.437   5.992 -0.5793  0.5559 -1.2519
  531MOL0     H71650  -2.355  10.540   5.993 -1.8001 -0.6177  0.5533
  531MOL0     H71651  -2.550  10.506   5.863  0.2201 -0.3100  0.8538
  531MOL0     H71652  -2.718  10.475   5.915 -0.7450  1.4570 -1.0356
  531MOL0     H71653  -2.554  10.683   6.069 -1.2940 -2.5053  0.5666
  531MOL0     H71654  -2.621  10.711   5.906 -1.9480  2.9336  1.3202
  531MOL0     H71655  -2.766  10.768   6.115 -1.8687  2.2181 -2.6012
  531MOL0     H71656  -2.800  10.590   6.109 -0.9451 -0.3987 -0.7317
  531MOL0     H71657  -2.841  10.817   5.915  0.0508  0.9805  1.8005
  531MOL0     H71658  -2.879  10.645   5.870  0.0351 -0.7974 -0.1012
  531MOL0     H71659  -3.067  10.647   6.005  1.8937 -0.6801 -2.3557
  531MOL0     H71660  -3.067  10.810   5.923  0.7022 -0.6536 -1.6517
  531MOL0     H71661  -3.006  10.761   6.231 -2.9761 -0.9318  0.5117
  531MOL0     H71662  -2.970  10.905   6.124 -0.2009 -0.8641 -0.4567
  531MOL0     H71663  -3.218  10.929   6.092  1.6412 -1.9987 -1.9017
  531MOL0     H71664  -3.151  10.952   6.263 -0.5856  0.3185 -0.0338
  531MOL0     H71665  -3.225  10.711   6.306  0.9464 -0.1784 -0.6971
  531MOL0     H71666  -3.285  10.707   6.142 -1.5090  0.9349 -1.3220
  531MOL0     H71667  -2.533  10.177   6.141 -1.1894  1.4895  1.1308
  531MOL0     H71668  -2.313  10.068   6.141 -1.2639 -0.2774 -0.1973
  531MOL0     H71669  -1.903  10.065   6.075  1.9899  0.2923  0.7190
  531MOL0     H71670  -1.676   9.968   6.041  2.2658  1.6647 -1.0472
  531MOL0     H71671   0.280  10.384   6.327  1.1817  0.5720  0.1971
  531MOL0     H71672   0.528  10.327   6.417 -0.2502 -1.3060  2.7277
  531MOL0     H71673   0.768   9.868   6.502  0.3024 -1.2235  2.1524
  531MOL0     H71674   0.938   9.756   6.610 -1.8525  0.6893  2.3040
  531MOL0     H71675   1.357   9.953   6.621  1.8073 -1.0874  1.7975
  531MOL0     H71676   1.267   9.974   6.769 -1.8095  1.1439 -0.9064
  531MOL0     H71677   1.342   9.725   6.811 -2.7563 -0.5405 -4.5853
  531MOL0     H71678   1.464   9.853   6.832  3.1186 -3.0221 -0.0226
  531MOL0     H71679   1.568   9.801   6.637 -0.8634  0.6998 -1.2343
  531MOL0     H71680   1.432   9.722   6.568  0.5442  1.6133  0.1752
  531MOL0     H71681   1.526   9.606   6.816  0.9863 -0.3695 -0.5229
  531MOL0     H71682   1.605   9.555   6.662 -1.8574 -1.5938 -2.4822
  531MOL0     H71683   1.272   9.333   6.629 -1.3442 -0.3407  1.0471
  531MOL0     H71684   1.174  10.118   6.574  0.7756  0.2686 -0.9042
  531MOL0     H71685   0.991  10.227   6.492  0.6436  1.8109  2.9941
  532MOL0     O71686   5.186  10.550   2.910 -0.5645  0.1577 -0.2698
  532MOL0     C71687   5.230  10.470   2.990 -0.5075  0.4579 -0.2299
  532MOL0     O71688   5.154  10.409   3.097 -0.1681 -0.2259  0.5024
  532MOL0     C71689   5.022  10.447   3.119  0.6850 -0.5454  0.1290
  532MOL0     C71690   4.921  10.440   3.014 -0.4040 -0.1867  0.1672
  532MOL0     C71691   4.786  10.469   3.044 -0.9054 -0.2324  0.0205
  532MOL0     C71692   4.737  10.470   3.171 -0.0319 -0.7028  0.0791
  532MOL0     O71693   4.608  10.491   3.190 -0.0568 -0.4649  0.0341
  532MOL0     C71694   4.586  10.615   3.253 -0.7528  0.4680 -0.1606
  532MOL0     C71695   4.440  10.643   3.236 -0.0075  0.2539  0.5991
  532MOL0     C71696   4.344  10.545   3.306 -0.0642 -0.0833  0.5266
  532MOL0     C71697   4.199  10.561   3.271 -0.5017 -0.6397 -0.0213
  532MOL0     C71698   4.113  10.457   3.353  0.2807  0.4093  0.9949
  532MOL0     C71699   3.965  10.478   3.338 -0.4084 -0.5661  0.1776
  532MOL0     C71700   3.876  10.390   3.428 -0.5674  0.1739  0.0480
  532MOL0     C71701   3.942  10.351   3.558  1.4217  0.5490 -0.6805
  532MOL0     N71702   3.847  10.288   3.652  0.1448  0.3357 -0.1921
  532MOL0     C71703   3.733  10.338   3.710  0.0976 -0.4740 -0.1275
  532MOL0     C71704   3.671  10.235   3.779  0.6421 -0.5625  0.5413
  532MOL0     C71705   3.542  10.230   3.859 -0.1341 -0.0530  0.9745
  532MOL0     C71706   3.484  10.087   3.853 -0.1595 -0.2324  0.3924
  532MOL0     C71707   3.374  10.046   3.956 -0.4594  1.2707  0.5935
  532MOL0     C71708   3.257  10.145   3.943  0.5287  0.5586  0.1197
  532MOL0     O71709   3.172  10.106   3.840 -0.1657  0.3327 -0.2341
  532MOL0     C71710   3.060  10.193   3.833 -0.3064 -0.3904  0.2779
  532MOL0     C71711   3.022  10.210   3.703  0.1170  0.4519  0.3001
  532MOL0     C71712   2.916  10.297   3.662  0.4674 -0.3630 -0.0024
  532MOL0     C71713   2.892  10.297   3.514 -0.4122 -0.2647 -0.1137
  532MOL0     C71714   2.855  10.369   3.764 -0.7871  0.3037 -0.9275
  532MOL0     C71715   2.741  10.458   3.737  0.1931 -0.1568  1.6088
  532MOL0     O71716   2.718  10.502   3.607  0.1072  0.1839  0.4752
  532MOL0     C71717   2.600  10.560   3.569 -0.3909 -0.9166  0.5632
  532MOL0     C71718   2.602  10.691   3.511 -0.0568 -0.5068 -0.1214
  532MOL0     C71719   2.484  10.764   3.475  0.6255 -0.3138  1.4153
  532MOL0     C71720   2.350  10.701   3.484 -0.7133 -0.2141  0.3675
  532MOL0     O71721   2.237  10.764   3.441  0.0455 -0.0100  0.1468
  532MOL0     C71722   2.240  10.902   3.407  0.1049  0.2748 -0.3186
  532MOL0     C71723   2.106  10.957   3.375  1.1389  0.3690  0.7871
  532MOL0     C71724   2.118  11.109   3.372  0.9341 -0.1197  0.2066
  532MOL0     C71725   1.993  11.181   3.339 -0.8821 -0.4584 -0.6665
  532MOL0     C71726   1.877  11.163   3.431  0.4982  0.0721 -0.4276
  532MOL0     C71727   1.746  11.233   3.382  0.0740 -0.8564 -0.0657
  532MOL0     C71728   1.681  11.185   3.251  0.5574 -0.3281  0.1629
  532MOL0     C71729   1.707  11.045   3.204  0.3720 -0.4112 -0.1922
  532MOL0    Cl71730   1.583  10.996   3.085 -0.1318  0.0297  0.1905
  532MOL0     C71731   2.355  10.571   3.530  0.6318 -0.0746 -0.3682
  532MOL0     C71732   2.473  10.507   3.581  0.6156  0.4830  0.5268
  532MOL0     O71733   2.675  10.497   3.831  0.4221  0.9548 -0.1767
  532MOL0     C71734   2.897  10.345   3.895 -0.4835 -0.1784 -0.7980
  532MOL0     C71735   2.997  10.265   3.930 -0.5299  0.1131 -0.1994
  532MOL0     N71736   3.745  10.119   3.751  0.3870 -0.8155 -0.7516
  532MOL0     N71737   3.845  10.151   3.677  0.4928  0.1368 -0.2976
  532MOL0     C71738   4.839  10.474   3.275  0.7587  0.0059 -0.1894
  532MOL0     C71739   4.977  10.463   3.249 -0.0172  0.1636 -0.3160
  532MOL0     C71740   5.380  10.441   2.975  1.6042 -0.6496 -0.2171
  532MOL0     C71741   5.464  10.523   2.903 -0.5541 -0.4113 -0.0325
  532MOL0     C71742   5.598  10.492   2.896 -0.2068  0.6848  0.7262
  532MOL0     C71743   5.651  10.374   2.943  0.7676 -0.3594  0.0652
  532MOL0     O71744   5.788  10.350   2.933  0.1302 -0.2661  0.4194
  532MOL0     C71745   5.832  10.233   3.004 -0.0598 -1.1657  0.4759
  532MOL0     C71746   5.984  10.233   2.971  0.2033 -1.0447  0.8552
  532MOL0     C71747   6.062  10.341   3.056  0.3563 -0.0780 -0.2889
  532MOL0     C71748   6.056  10.319   3.198  0.5201 -0.0814  0.1658
  532MOL0     C71749   6.144  10.404   3.277  0.5623 -0.0901 -0.5540
  532MOL0     C71750   6.224  10.475   3.329  0.1009 -0.6999  0.0694
  532MOL0     C71751   5.553  10.286   3.009  0.6047  0.4548 -0.7770
  532MOL0     C71752   5.424  10.317   3.023  0.3179 -0.3573 -0.4967
  532MOL0     H71753   4.955  10.420   2.913  0.9956  1.4803  0.2451
  532MOL0     H71754   4.707  10.455   2.970 -0.0824 -1.6118 -0.6311
  532MOL0     H71755   4.614  10.620   3.359  1.5543 -1.3701 -0.6131
  532MOL0     H71756   4.647  10.694   3.207  0.8175 -0.6879 -0.1632
  532MOL0     H71757   4.441  10.743   3.279  1.6676 -0.0181  1.2770
  532MOL0     H71758   4.421  10.646   3.129  0.0633 -3.1590  0.3816
  532MOL0     H71759   4.374  10.439   3.304 -2.5529 -0.8486 -0.0632
  532MOL0     H71760   4.354  10.573   3.411  2.3617 -1.3920  0.7342
  532MOL0     H71761   4.170  10.660   3.308  0.1751 -1.3236  2.5310
  532MOL0     H71762   4.180  10.561   3.163 -0.2238 -1.0778 -0.0707
  532MOL0     H71763   4.137  10.357   3.315  0.0428  1.2350 -1.5029
  532MOL0     H71764   4.141  10.467   3.458 -0.5524  1.1349  1.1545
  532MOL0     H71765   3.945  10.582   3.366 -0.9231 -1.2481  2.5973
  532MOL0     H71766   3.943  10.465   3.232 -1.1202 -0.4768  0.3077
  532MOL0     H71767   3.784  10.444   3.450  1.3746  2.4043  3.4721
  532MOL0     H71768   3.853  10.301   3.368  0.7276  1.0150 -1.8081
  532MOL0     H71769   3.976  10.443   3.606  1.7806 -0.1373  0.4127
  532MOL0     H71770   4.027  10.290   3.525  0.7886  0.3163 -1.9482
  532MOL0     H71771   3.710  10.442   3.727  2.8124  0.1434  0.1641
  532MOL0     H71772   3.555  10.265   3.962  0.9170 -1.1367  1.2397
  532MOL0     H71773   3.468  10.291   3.807  0.8223 -0.6742 -1.2528
  532MOL0     H71774   3.558  10.008   3.868 -1.9375 -2.0683 -0.1629
  532MOL0     H71775   3.437  10.081   3.754 -2.1297 -0.6746  1.3317
  532MOL0     H71776   3.414  10.039   4.057  4.4915 -0.6562 -1.2087
  532MOL0     H71777   3.341   9.943   3.939  1.7054  0.4169  1.3021
  532MOL0     H71778   3.288  10.250   3.945 -1.2070  1.3919 -4.3909
  532MOL0     H71779   3.205  10.120   4.037  1.5290 -0.0583  0.5273
  532MOL0     H71780   3.078  10.154   3.629 -1.7711  1.9583 -2.4489
  532MOL0     H71781   2.956  10.230   3.455 -3.4423 -1.6829 -2.0443
  532MOL0     H71782   2.788  10.277   3.487 -0.5428  1.3812 -0.9252
  532MOL0     H71783   2.930  10.393   3.478 -0.8971 -0.4199 -1.0673
  532MOL0     H71784   2.692  10.750   3.497 -1.0027  0.5084 -2.2832
  532MOL0     H71785   2.493  10.871   3.457 -1.3353 -0.2364  0.6015
  532MOL0     H71786   2.273  10.955   3.497 -1.7184  0.3737  0.3141
  532MOL0     H71787   2.309  10.934   3.328 -0.9062 -0.7099 -1.6465
  532MOL0     H71788   2.071  10.919   3.278 -0.5252 -0.7857  1.7831
  532MOL0     H71789   2.030  10.920   3.444 -0.0456 -1.8081 -1.5155
  532MOL0     H71790   2.197  11.139   3.302  0.1283 -0.3909 -0.8400
  532MOL0     H71791   2.145  11.136   3.475  0.9390  0.4304  0.0665
  532MOL0     H71792   2.006  11.289   3.326 -0.5486 -0.4634 -0.3971
  532MOL0     H71793   1.969  11.147   3.238  1.8352 -0.8610 -1.2487
  532MOL0     H71794   1.906  11.208   3.527 -2.9613  2.0943 -0.1704
  532MOL0     H71795   1.861  11.054   3.433  2.2149 -0.2033 -0.3772
  532MOL0     H71796   1.673  11.227   3.462  2.6097 -0.3065  2.4569
  532MOL0     H71797   1.774  11.339   3.375  1.4537 -1.2831 -2.1932
  532MOL0     H71798   1.708  11.260   3.176  1.8457  1.9319  2.7475
  532MOL0     H71799   1.572  11.197   3.252  0.6482  0.6247 -0.2053
  532MOL0     H71800   1.708  10.972   3.285  1.9223  1.6559  1.7790
  532MOL0     H71801   1.809  11.033   3.167  0.1794  3.8561 -2.8028
  532MOL0     H71802   2.256  10.528   3.522  0.9714 -0.6097 -2.1356
  532MOL0     H71803   2.456  10.403   3.609  1.2789  0.5418  1.1883
  532MOL0     H71804   2.846  10.400   3.975  2.8104 -0.0031  1.3702
  532MOL0     H71805   3.036  10.258   4.031  1.5993 -1.5817 -1.0737
  532MOL0     H71806   4.803  10.477   3.378 -2.3778 -2.2901 -1.0940
  532MOL0     H71807   5.043  10.441   3.333  0.2494 -2.7332 -1.1473
  532MOL0     H71808   5.433  10.620   2.866  2.6265  0.9835  0.6799
  532MOL0     H71809   5.669  10.563   2.854 -0.5760  2.2232  2.5908
  532MOL0     H71810   5.817  10.240   3.112 -0.6458 -0.7620  0.3682
  532MOL0     H71811   5.779  10.147   2.962 -0.2726 -0.8903  0.1819
  532MOL0     H71812   6.005  10.243   2.864  0.3512 -0.0265  0.9707
  532MOL0     H71813   6.019  10.131   2.990 -0.9114 -1.7804 -0.7634
  532MOL0     H71814   6.017  10.438   3.034 -2.6592 -1.1070  0.8629
  532MOL0     H71815   6.165  10.334   3.020  0.5805  1.4244 -0.0152
  532MOL0     H71816   6.081  10.215   3.217 -1.0096 -0.5148 -0.0657
  532MOL0     H71817   5.952  10.328   3.232 -0.3403  0.2717 -2.3146
  532MOL0     H71818   6.299  10.543   3.366 -1.1858 -0.3375  2.1935
  532MOL0     H71819   5.572  10.189   3.054 -0.3646  0.6948  0.1961
  532MOL0     H71820   5.364  10.245   3.077  0.8003  0.2865  0.9504
  533MOL0     O71821   7.139   2.556   3.463  0.2129  1.0732  0.5493
  533MOL0     C71822   7.159   2.434   3.449 -0.0327  0.3612 -0.2742
  533MOL0     O71823   7.067   2.331   3.444 -0.9295 -0.5663  0.7542
  533MOL0     C71824   6.937   2.362   3.485  0.6004 -0.6601 -0.4441
  533MOL0     C71825   6.898   2.445   3.591  0.1046  0.4138 -0.8120
  533MOL0     C71826   6.766   2.452   3.635  0.2860 -0.4465  0.2091
  533MOL0     C71827   6.659   2.404   3.565 -0.8564 -0.3426  0.2432
  533MOL0     O71828   6.538   2.443   3.609 -0.1165  0.1768  0.8309
  533MOL0     C71829   6.421   2.366   3.579 -0.2464 -0.1459 -0.2879
  533MOL0     C71830   6.414   2.238   3.649  0.4584  0.2130 -0.2796
  533MOL0     C71831   6.396   2.235   3.799  0.0804 -0.2689  0.4536
  533MOL0     C71832   6.407   2.090   3.853 -0.1644 -0.1550  0.0799
  533MOL0     C71833   6.303   1.994   3.801 -0.2174  0.7762 -0.2311
  533MOL0     C71834   6.168   2.018   3.861  0.9713  1.3267  0.4844
  533MOL0     C71835   6.082   1.901   3.817 -0.2605  0.0744 -0.4084
  533MOL0     C71836   5.954   1.888   3.908 -0.0386  0.2222 -0.5999
  533MOL0     N71837   5.868   1.781   3.855  0.3835  0.1186  0.3313
  533MOL0     C71838   5.778   1.807   3.756  0.1111 -1.1211  0.0691
  533MOL0     C71839   5.716   1.693   3.739  0.3375 -0.5384  0.4777
  533MOL0     C71840   5.599   1.671   3.636  0.5491 -0.1751 -0.2808
  533MOL0     C71841   5.594   1.527   3.596 -0.1759  0.3604 -0.0908
  533MOL0     C71842   5.497   1.501   3.480 -0.4279 -0.2954 -1.4887
  533MOL0     C71843   5.350   1.496   3.508  0.3360 -0.4690  0.8427
  533MOL0     O71844   5.301   1.630   3.510 -0.4946  0.2913 -0.0078
  533MOL0     C71845   5.170   1.639   3.559  0.0774 -0.1952  0.3663
  533MOL0     C71846   5.124   1.767   3.593 -1.3940 -0.6507 -0.3772
  533MOL0     C71847   4.993   1.794   3.625 -0.6422 -0.8658 -0.4061
  533MOL0     C71848   4.954   1.940   3.654  0.3631 -0.4286 -0.1457
  533MOL0     C71849   4.903   1.690   3.629 -0.5864 -0.6051  0.1934
  533MOL0     C71850   4.756   1.695   3.670 -0.1764 -0.6962  0.0926
  533MOL0     O71851   4.675   1.586   3.654 -0.4754  0.2869  0.8323
  533MOL0     C71852   4.539   1.585   3.698 -0.0588 -0.6652  1.2243
  533MOL0     C71853   4.494   1.643   3.818 -0.4351  0.2430  0.0158
  533MOL0     C71854   4.354   1.647   3.843  0.6862 -0.6160  0.9387
  533MOL0     C71855   4.251   1.588   3.765 -0.7006 -0.1873  0.0860
  533MOL0     O71856   4.119   1.620   3.799  0.1550 -0.4157 -0.9200
  533MOL0     C71857   4.030   1.514   3.769 -0.7641  0.1346  0.0179
  533MOL0     C71858   3.909   1.530   3.860 -0.9480 -0.0912  0.2253
  533MOL0     C71859   3.785   1.445   3.816  0.0650  0.3660  0.6666
  533MOL0     C71860   3.680   1.457   3.917 -0.1966  0.6106  0.2954
  533MOL0     C71861   3.562   1.380   3.866 -0.6853  0.0534 -0.1177
  533MOL0     C71862   3.472   1.457   3.775  0.2828  0.8068 -0.7486
  533MOL0     C71863   3.341   1.372   3.740 -0.1606 -0.0907 -0.4683
  533MOL0     C71864   3.248   1.457   3.657  0.2842  0.1567  0.7179
  533MOL0    Cl71865   3.195   1.608   3.736  0.3619  0.1968  0.0664
  533MOL0     C71866   4.294   1.527   3.645  0.0771 -0.4755 -0.0907
  533MOL0     C71867   4.437   1.534   3.617  0.3700  0.6495 -0.1553
  533MOL0     O71868   4.723   1.797   3.727  0.8416  0.2309  0.4370
  533MOL0     C71869   4.949   1.556   3.599  0.1591 -0.8115 -0.8659
  533MOL0     C71870   5.080   1.535   3.567  0.3030  0.5474  0.1027
  533MOL0     N71871   5.777   1.595   3.819  0.0371 -0.3653  0.5234
  533MOL0     N71872   5.870   1.651   3.889  0.4804  1.1600  0.2691
  533MOL0     C71873   6.687   2.313   3.469 -0.7971  1.0373  1.1802
  533MOL0     C71874   6.825   2.288   3.433  0.4542 -0.2290 -0.9833
  533MOL0     C71875   7.297   2.383   3.441 -0.2159  0.7886  0.9244
  533MOL0     C71876   7.332   2.243   3.430 -0.2282 -0.1465  0.5382
  533MOL0     C71877   7.471   2.211   3.424  0.5656  0.4217 -0.4366
  533MOL0     C71878   7.571   2.303   3.424  0.9847 -0.7918 -0.6036
  533MOL0     O71879   7.706   2.282   3.421 -0.0261  0.2276 -0.0171
  533MOL0     C71880   7.748   2.167   3.338 -0.0744 -0.0611  0.2332
  533MOL0     C71881   7.901   2.149   3.345 -0.1917 -0.7518  0.4090
  533MOL0     C71882   7.939   2.029   3.258 -0.1112  0.7456  0.2303
  533MOL0     C71883   8.074   1.974   3.309  0.2299  0.5303  0.3518
  533MOL0     C71884   8.185   2.065   3.285 -1.3885 -0.0288  0.1167
  533MOL0     C71885   8.264   2.149   3.245 -0.7124  0.6682 -0.4324
  533MOL0     C71886   7.529   2.430   3.451 -0.0272 -0.4578  0.4291
  533MOL0     C71887   7.403   2.475   3.460 -0.1406  0.6928 -0.1747
  533MOL0     H71888   6.975   2.499   3.645  0.9643 -2.0908  0.5975
  533MOL0     H71889   6.748   2.520   3.717  1.5779  0.2877 -0.0826
  533MOL0     H71890   6.334   2.428   3.606  0.5696  1.0374 -0.3003
  533MOL0     H71891   6.418   2.358   3.470  1.5995 -0.3017 -0.3505
  533MOL0     H71892   6.324   2.194   3.606 -1.0979 -0.0995  2.9737
  533MOL0     H71893   6.493   2.169   3.617 -0.2412 -0.6599 -0.1821
  533MOL0     H71894   6.475   2.294   3.845 -0.5044  2.4451 -1.7300
  533MOL0     H71895   6.296   2.276   3.819 -0.1826 -0.9719  0.6155
  533MOL0     H71896   6.502   2.042   3.826 -1.1246 -2.9281  1.2753
  533MOL0     H71897   6.409   2.083   3.962  0.0303 -1.3795  0.0151
  533MOL0     H71898   6.289   1.999   3.693 -0.6324  2.8159 -0.1192
  533MOL0     H71899   6.338   1.895   3.832 -0.9372 -0.2437 -2.4287
  533MOL0     H71900   6.183   2.012   3.969  4.2746  0.5949  0.1070
  533MOL0     H71901   6.117   2.112   3.838  0.5251  1.0878  0.4856
  533MOL0     H71902   6.064   1.923   3.711  1.4533  0.1029 -0.7079
  533MOL0     H71903   6.132   1.805   3.828 -1.5567 -0.8379 -2.0035
  533MOL0     H71904   5.890   1.977   3.908 -0.7429 -0.2714 -0.5441
  533MOL0     H71905   5.992   1.868   4.009  0.5181  2.9977 -0.1905
  533MOL0     H71906   5.756   1.904   3.713 -1.1887 -2.0398 -1.4666
  533MOL0     H71907   5.500   1.696   3.676 -0.0452 -1.1653 -1.0749
  533MOL0     H71908   5.632   1.729   3.550  1.0755 -0.4530 -0.2688
  533MOL0     H71909   5.568   1.476   3.690  1.3227 -1.7805 -0.7720
  533MOL0     H71910   5.694   1.503   3.559 -0.2816 -0.9478  0.4389
  533MOL0     H71911   5.523   1.403   3.439 -1.0848 -0.6045 -1.1712
  533MOL0     H71912   5.524   1.563   3.394 -0.0883 -0.7841 -1.7440
  533MOL0     H71913   5.336   1.439   3.601  2.6212 -0.5364  1.2080
  533MOL0     H71914   5.311   1.443   3.421  1.5724 -1.3735  0.8155
  533MOL0     H71915   5.193   1.850   3.588 -0.7207 -1.2460 -1.6984
  533MOL0     H71916   4.937   1.963   3.760  1.4650  0.5879 -0.1653
  533MOL0     H71917   5.035   2.011   3.636  0.6891 -0.7263  0.1190
  533MOL0     H71918   4.872   1.969   3.588  0.6960  3.9757  1.0064
  533MOL0     H71919   4.558   1.703   3.881  2.1614  0.1833 -2.3397
  533MOL0     H71920   4.329   1.700   3.935 -1.1065 -0.1905  0.2414
  533MOL0     H71921   3.998   1.527   3.665 -0.5161  4.6120  0.2975
  533MOL0     H71922   4.072   1.414   3.784  0.2982  0.5562 -0.0415
  533MOL0     H71923   3.929   1.492   3.961 -1.8049  2.3712  1.4075
  533MOL0     H71924   3.889   1.636   3.879 -0.2260  0.3512 -1.3684
  533MOL0     H71925   3.816   1.340   3.803  0.2641  0.2565  1.9432
  533MOL0     H71926   3.755   1.475   3.715  0.3207  0.2170  0.5424
  533MOL0     H71927   3.717   1.407   4.006  1.2714 -2.0410 -1.6565
  533MOL0     H71928   3.654   1.562   3.931 -1.9563  0.4562 -1.3742
  533MOL0     H71929   3.505   1.338   3.949  0.9112 -0.0078  0.9825
  533MOL0     H71930   3.601   1.290   3.816  0.8184  0.0847  0.9263
  533MOL0     H71931   3.452   1.551   3.828  2.6060  0.4431  0.8965
  533MOL0     H71932   3.527   1.478   3.682  1.3424  0.7091 -0.1627
  533MOL0     H71933   3.293   1.353   3.837 -1.3431  3.8184 -0.0831
  533MOL0     H71934   3.371   1.280   3.689  1.7245  2.2105 -3.9497
  533MOL0     H71935   3.163   1.396   3.625  1.9891 -0.7818 -2.5238
  533MOL0     H71936   3.297   1.484   3.563  0.6265  2.4135  1.4779
  533MOL0     H71937   4.214   1.494   3.580 -0.1008 -0.7983  0.2874
  533MOL0     H71938   4.479   1.501   3.522  1.2877 -3.0859  1.3594
  533MOL0     H71939   4.892   1.465   3.618  0.4398 -0.9132 -0.5048
  533MOL0     H71940   5.112   1.432   3.556  0.6316  0.3553  2.3705
  533MOL0     H71941   6.602   2.282   3.408 -0.2455  0.9600  0.4422
  533MOL0     H71942   6.838   2.220   3.349  0.4390 -1.2160 -0.2091
  533MOL0     H71943   7.251   2.170   3.426  0.8110 -1.5030  2.3817
  533MOL0     H71944   7.495   2.106   3.406  1.6054  0.6937 -0.7132
  533MOL0     H71945   7.694   2.077   3.367  2.2932 -2.0204 -1.0586
  533MOL0     H71946   7.722   2.191   3.235  0.3455 -0.7297 -0.0332
  533MOL0     H71947   7.931   2.122   3.447 -0.5645 -1.2854  0.3833
  533MOL0     H71948   7.955   2.238   3.311  2.0172 -2.2079 -0.0556
  533MOL0     H71949   7.941   2.050   3.151  2.6578  2.1971  0.4788
  533MOL0     H71950   7.867   1.951   3.283  0.2155 -0.2173 -1.7122
  533MOL0     H71951   8.092   1.884   3.249 -0.8631 -0.6955  1.7802
  533MOL0     H71952   8.063   1.947   3.414 -2.9813  0.2009  0.0484
  533MOL0     H71953   8.332   2.222   3.205  0.6595 -0.8430 -0.9843
  533MOL0     H71954   7.607   2.503   3.470  0.2998 -0.9717  1.1231
  533MOL0     H71955   7.389   2.583   3.469 -1.1588  0.4225  1.9891
  534MOL0     O71956   8.262   4.341   6.160  0.0322 -0.1260  0.8859
  534MOL0     C71957   8.358   4.395   6.104  0.4592 -0.8719 -0.3018
  534MOL0     O71958   8.484   4.380   6.142  0.0863 -0.5676  0.3844
  534MOL0     C71959   8.517   4.316   6.260 -0.7278 -0.5396  0.0484
  534MOL0     C71960   8.444   4.338   6.383  0.4590 -0.2963  0.3370
  534MOL0     C71961   8.499   4.274   6.498 -0.5475  0.5920  0.7419
  534MOL0     C71962   8.608   4.184   6.488  0.4324  0.5047 -0.0995
  534MOL0     O71963   8.674   4.124   6.589  0.1010 -0.0407  0.1352
  534MOL0     C71964   8.612   4.104   6.716 -0.1944 -0.4736  0.5903
  534MOL0     C71965   8.679   3.989   6.793 -0.2528  0.2001 -0.1928
  534MOL0     C71966   8.657   4.014   6.946  0.1950  0.6388  0.3751
  534MOL0     C71967   8.701   3.894   7.031  0.9285 -0.4732  0.3909
  534MOL0     C71968   8.707   3.923   7.179 -0.5797  0.2384 -0.5041
  534MOL0     C71969   8.566   3.954   7.233 -0.0283  0.4236 -0.1577
  534MOL0     C71970   8.564   3.979   7.381 -0.3998  0.1975 -0.3447
  534MOL0     C71971   8.417   4.000   7.420 -0.5191 -0.1033  0.3888
  534MOL0     N71972   8.412   4.005   7.562 -0.3090 -0.0836  0.2419
  534MOL0     C71973   8.367   4.106   7.639 -0.5035  0.9995 -0.6513
  534MOL0     C71974   8.353   4.050   7.764  0.6151  0.7659  0.4691
  534MOL0     C71975   8.293   4.106   7.882  0.0350 -0.3239  0.6716
  534MOL0     C71976   8.141   4.062   7.889  0.1039  0.1415 -0.3240
  534MOL0     C71977   8.085   4.100   8.031  0.6724 -0.1521  0.0368
  534MOL0     C71978   7.933   4.081   8.028 -0.3858  0.1223 -1.1885
  534MOL0     O71979   7.870   4.190   7.963  0.1231  0.6226 -0.8274
  534MOL0     C71980   7.736   4.177   7.933  0.3702 -0.8664  0.5634
  534MOL0     C71981   7.647   4.087   7.986 -0.3915 -0.4301 -0.3150
  534MOL0     C71982   7.507   4.093   7.965  0.1723  0.5845  0.9684
  534MOL0     C71983   7.419   3.980   8.023 -0.3866  0.1497  0.3726
  534MOL0     C71984   7.464   4.203   7.888  0.4177  0.1638 -0.5449
  534MOL0     C71985   7.319   4.247   7.874 -0.3327  0.1683 -0.1566
  534MOL0     O71986   7.233   4.210   7.968  0.0962 -0.0166 -0.5744
  534MOL0     C71987   7.129   4.293   7.995 -0.1217  0.7168  0.4030
  534MOL0     C71988   7.002   4.241   7.964  0.0787 -0.3896 -1.4171
  534MOL0     C71989   6.889   4.322   7.999  0.5144 -0.2446  0.5228
  534MOL0     C71990   6.898   4.450   8.064 -1.1876 -0.1134  0.3671
  534MOL0     O71991   6.785   4.514   8.092  1.2481  0.4704 -0.2981
  534MOL0     C71992   6.784   4.647   8.145  0.6901 -0.2505  0.3166
  534MOL0     C71993   6.796   4.758   8.040  0.2473 -0.1974  0.1438
  534MOL0     C71994   6.674   4.775   7.943  0.5152  0.2995 -0.1498
  534MOL0     C71995   6.554   4.834   8.016  0.2078  0.2928 -0.0601
  534MOL0     C71996   6.461   4.905   7.919 -0.8756  0.1973  0.4025
  534MOL0     C71997   6.358   4.990   7.989 -0.4861  0.1597 -0.2459
  534MOL0     C71998   6.282   5.087   7.891 -0.4519 -0.1179  0.8202
  534MOL0     C71999   6.160   5.153   7.963 -0.3449 -0.1973  1.5793
  534MOL0    Cl72000   6.219   5.269   8.087  0.2475 -0.0382  0.4226
  534MOL0     C72001   7.027   4.502   8.081 -1.0795 -0.6583 -0.4607
  534MOL0     C72002   7.140   4.418   8.058  0.3296  0.7598 -0.4203
  534MOL0     O72003   7.306   4.344   7.807 -0.1001  0.3527 -1.1874
  534MOL0     C72004   7.562   4.292   7.828  0.4911 -0.3674  0.9250
  534MOL0     C72005   7.695   4.268   7.846 -1.0802 -0.0336 -0.0257
  534MOL0     N72006   8.419   3.927   7.753  0.0503  0.6346 -0.0819
  534MOL0     N72007   8.449   3.898   7.638 -0.0712  0.0966 -0.2344
  534MOL0     C72008   8.667   4.165   6.366  0.4006  0.4841 -0.1321
  534MOL0     C72009   8.618   4.226   6.256  0.1138  0.2027  0.2423
  534MOL0     C72010   8.343   4.481   5.979  0.6476 -0.1777  0.8834
  534MOL0     C72011   8.464   4.545   5.924  0.6671  0.6192  0.6188
  534MOL0     C72012   8.455   4.631   5.818 -0.1116  0.5267  0.3078
  534MOL0     C72013   8.335   4.666   5.762 -0.6800  0.3868  0.5200
  534MOL0     O72014   8.338   4.735   5.648 -0.3777  0.0061  0.0740
  534MOL0     C72015   8.254   4.849   5.642  0.1047  0.5857 -0.0219
  534MOL0     C72016   8.295   4.942   5.535  0.1977  0.3259  0.4381
  534MOL0     C72017   8.178   5.024   5.482 -0.2994 -0.6289 -0.4177
  534MOL0     C72018   8.216   5.147   5.396 -0.4303 -0.2014  0.3122
  534MOL0     C72019   8.296   5.248   5.469  0.4030 -0.2675  0.4461
  534MOL0     C72020   8.374   5.320   5.535 -0.5174 -0.5821  0.2739
  534MOL0     C72021   8.221   4.606   5.813  0.8295 -0.6020 -0.4301
  534MOL0     C72022   8.221   4.514   5.912 -0.1128 -0.1501 -1.7541
  534MOL0     H72023   8.360   4.407   6.385  0.9045  0.2577  0.1688
  534MOL0     H72024   8.457   4.288   6.596  0.5500  1.9646  1.0398
  534MOL0     H72025   8.635   4.187   6.784 -1.2033 -2.4736  3.6108
  534MOL0     H72026   8.505   4.081   6.714 -0.2859 -0.8515  3.7748
  534MOL0     H72027   8.637   3.894   6.760  1.1620 -0.7824  0.7075
  534MOL0     H72028   8.786   3.974   6.774 -0.7837 -2.8881 -1.3697
  534MOL0     H72029   8.718   4.099   6.980 -2.2581  2.2283  1.0736
  534MOL0     H72030   8.554   4.034   6.976  0.2941 -0.9765  1.9185
  534MOL0     H72031   8.640   3.805   7.015  1.7280 -0.9032 -0.3956
  534MOL0     H72032   8.802   3.863   7.003  0.5380 -0.8781 -0.6139
  534MOL0     H72033   8.738   3.831   7.228 -0.3117  1.1802  1.2017
  534MOL0     H72034   8.785   3.999   7.195  0.7000 -0.0585 -4.3655
  534MOL0     H72035   8.521   4.032   7.172  0.5435  2.0091  1.3524
  534MOL0     H72036   8.505   3.864   7.221  0.2428  0.0592  1.0951
  534MOL0     H72037   8.618   3.892   7.420  0.0200 -0.1490 -1.6574
  534MOL0     H72038   8.627   4.066   7.400  0.7888 -1.2584  3.4426
  534MOL0     H72039   8.349   3.919   7.390 -0.7570  0.9631 -2.2418
  534MOL0     H72040   8.382   4.087   7.364 -1.4676 -2.1413 -2.4550
  534MOL0     H72041   8.336   4.207   7.612 -0.9597  1.6185  1.9230
  534MOL0     H72042   8.343   4.052   7.964  2.9324 -2.2847 -2.1477
  534MOL0     H72043   8.298   4.216   7.885 -1.2489 -0.1944 -0.7315
  534MOL0     H72044   8.121   3.957   7.866 -1.8502  0.0652  1.3664
  534MOL0     H72045   8.087   4.135   7.828  3.1008  5.5934  2.7773
  534MOL0     H72046   8.110   4.204   8.055  2.2206 -0.4368 -0.2432
  534MOL0     H72047   8.124   4.030   8.106  0.1246 -0.6969 -0.1779
  534MOL0     H72048   7.879   4.067   8.122  1.2936  1.1826 -0.0208
  534MOL0     H72049   7.918   3.986   7.976  0.4124 -0.8956  0.3649
  534MOL0     H72050   7.687   4.015   8.058 -0.6848 -0.4435 -0.1650
  534MOL0     H72051   7.327   3.962   7.967 -0.6179 -1.4041  1.2173
  534MOL0     H72052   7.473   3.886   8.016 -0.0042  0.2551  1.6541
  534MOL0     H72053   7.409   3.984   8.131  2.2961 -2.3767  0.8109
  534MOL0     H72054   6.998   4.138   7.928 -1.8158 -0.7903 -0.2065
  534MOL0     H72055   6.792   4.283   7.971  0.1266  2.3752 -2.2111
  534MOL0     H72056   6.699   4.653   8.214  1.6815  1.4337  1.4470
  534MOL0     H72057   6.872   4.660   8.208  1.3399  1.3171 -0.8462
  534MOL0     H72058   6.812   4.851   8.093  0.5709 -0.5150  0.6080
  534MOL0     H72059   6.888   4.734   7.985 -0.0856  0.6782 -0.8149
  534MOL0     H72060   6.638   4.681   7.902  1.4190  0.1285 -0.5802
  534MOL0     H72061   6.709   4.837   7.859 -0.0707 -0.9170 -1.3322
  534MOL0     H72062   6.495   4.751   8.057 -2.2824  2.2447  0.5637
  534MOL0     H72063   6.576   4.896   8.103 -2.8618 -1.1588  1.9560
  534MOL0     H72064   6.407   4.839   7.851  0.9975  0.3063 -1.2983
  534MOL0     H72065   6.514   4.962   7.842 -0.9176 -0.1315  0.1281
  534MOL0     H72066   6.285   4.937   8.051 -1.1207  2.7158  1.3327
  534MOL0     H72067   6.422   5.054   8.051  1.4005 -0.9499 -0.9693
  534MOL0     H72068   6.251   5.023   7.808  2.0584 -3.4838  2.2399
  534MOL0     H72069   6.345   5.161   7.842  1.1299 -2.6225 -1.2414
  534MOL0     H72070   6.103   5.071   8.007 -1.8451  0.1926  0.4426
  534MOL0     H72071   6.089   5.205   7.898  1.4176  0.2337 -0.0845
  534MOL0     H72072   7.043   4.599   8.126 -1.9850 -0.9473  0.5035
  534MOL0     H72073   7.241   4.456   8.071  0.0527  1.0968  0.9380
  534MOL0     H72074   7.531   4.371   7.761  0.1419 -2.2865 -1.3354
  534MOL0     H72075   7.773   4.334   7.810  0.3712  0.5057  3.6497
  534MOL0     H72076   8.753   4.101   6.348 -0.7673 -0.7019 -1.8550
  534MOL0     H72077   8.666   4.206   6.160 -0.2646  1.8181 -0.3212
  534MOL0     H72078   8.562   4.531   5.968  1.9102 -0.8972 -2.3813
  534MOL0     H72079   8.546   4.675   5.778 -0.6807 -0.3297 -2.0852
  534MOL0     H72080   8.153   4.812   5.621 -0.5708  1.0131  2.2624
  534MOL0     H72081   8.260   4.904   5.736  1.4614 -1.5558  1.2483
  534MOL0     H72082   8.348   4.895   5.451 -1.7950  1.3402 -1.4852
  534MOL0     H72083   8.361   5.014   5.585  1.2168  0.8953 -1.6060
  534MOL0     H72084   8.113   5.062   5.562  2.0582 -3.0102  2.8657
  534MOL0     H72085   8.118   4.954   5.423 -0.1482  0.7793 -2.3297
  534MOL0     H72086   8.120   5.194   5.373  1.1995  3.4140  0.2403
  534MOL0     H72087   8.272   5.106   5.311  0.4113 -3.6717  2.3265
  534MOL0     H72088   8.441   5.373   5.600  1.4250 -2.0732 -0.4402
  534MOL0     H72089   8.125   4.627   5.768  0.9059  1.5894  0.3220
  534MOL0     H72090   8.134   4.471   5.961  1.6858  0.1077  1.9540
  535MOL0     O72091   0.761   9.343   6.629 -0.7024  0.8520 -0.2408
  535MOL0     C72092   0.753   9.275   6.731 -0.2903  0.5062  0.8356
  535MOL0     O72093   0.637   9.259   6.811  0.4121 -0.2965 -0.0389
  535MOL0     C72094   0.511   9.311   6.777  0.4792 -0.0374 -0.3608
  535MOL0     C72095   0.426   9.344   6.884  0.2439  0.8798  0.1600
  535MOL0     C72096   0.309   9.407   6.863 -0.2194 -0.3370 -0.3708
  535MOL0     C72097   0.264   9.442   6.738 -0.1407  0.5011 -0.1287
  535MOL0     O72098   0.143   9.498   6.717  0.7220  0.0595  0.4598
  535MOL0     C72099   0.050   9.405   6.656 -0.1871  0.0745  0.3166
  535MOL0     C72100  -0.070   9.487   6.600 -0.3958  0.6039 -0.1257
  535MOL0     C72101  -0.200   9.428   6.649 -0.5912  0.3252  0.5582
  535MOL0     C72102  -0.306   9.521   6.595  0.6757  0.2047 -0.1275
  535MOL0     C72103  -0.433   9.436   6.603  0.3653 -0.3545  0.2620
  535MOL0     C72104  -0.557   9.520   6.569  0.0948 -0.1555 -0.0610
  535MOL0     C72105  -0.678   9.435   6.593  0.4665 -0.4489  0.2053
  535MOL0     C72106  -0.703   9.408   6.743  0.3025  0.2986 -1.3704
  535MOL0     N72107  -0.767   9.275   6.756  0.2907 -0.2419 -0.5181
  535MOL0     C72108  -0.692   9.161   6.774 -0.2867  0.3359 -0.6584
  535MOL0     C72109  -0.786   9.063   6.772 -0.2724  0.5215 -0.6046
  535MOL0     C72110  -0.754   8.923   6.815  0.3398  0.0078 -0.7467
  535MOL0     C72111  -0.880   8.841   6.808 -0.8783  0.3233  0.2232
  535MOL0     C72112  -0.959   8.853   6.938  0.2495 -0.7059 -0.8969
  535MOL0     C72113  -1.106   8.835   6.903  0.0419  0.8982 -0.3625
  535MOL0     O72114  -1.127   8.719   6.820  0.4190 -0.3085  0.2914
  535MOL0     C72115  -1.251   8.696   6.765 -0.7178  0.2071  0.0011
  535MOL0     C72116  -1.269   8.650   6.633 -0.1157  0.3892 -0.1313
  535MOL0     C72117  -1.389   8.625   6.563  0.5620 -0.5256 -0.4218
  535MOL0     C72118  -1.373   8.586   6.421 -0.1645  0.1880 -0.1327
  535MOL0     C72119  -1.506   8.630   6.642  1.0000 -0.5486 -0.0222
  535MOL0     C72120  -1.646   8.599   6.584 -0.4130  0.9553  0.0939
  535MOL0     O72121  -1.656   8.539   6.461  0.5330  0.4413  0.2514
  535MOL0     C72122  -1.777   8.553   6.404  0.8065 -0.1094  0.4765
  535MOL0     C72123  -1.866   8.443   6.394  0.2231  0.3202  0.4732
  535MOL0     C72124  -1.988   8.449   6.327  0.2723  0.7014 -0.8052
  535MOL0     C72125  -2.024   8.559   6.261  0.0905 -0.7136  0.2587
  535MOL0     O72126  -2.147   8.555   6.194  0.8228  0.2058 -0.2343
  535MOL0     C72127  -2.190   8.668   6.122 -0.2789  0.3526  0.0067
  535MOL0     C72128  -2.301   8.632   6.031  0.5680 -0.2046  0.0370
  535MOL0     C72129  -2.403   8.536   6.098  0.2271  0.5914  0.6041
  535MOL0     C72130  -2.522   8.525   6.004  1.1525  0.4700  0.0927
  535MOL0     C72131  -2.633   8.448   6.085 -0.5809  0.0882 -0.3936
  535MOL0     C72132  -2.773   8.478   6.032 -0.1055 -0.2231  0.6106
  535MOL0     C72133  -2.881   8.378   6.084  0.3047 -0.6550  0.0778
  535MOL0     C72134  -3.016   8.439   6.041 -0.1551  0.7006 -0.3526
  535MOL0    Cl72135  -3.159   8.368   6.111 -0.2269 -0.1534  0.4089
  535MOL0     C72136  -1.944   8.675   6.284 -0.0182 -0.5720 -0.4557
  535MOL0     C72137  -1.817   8.668   6.348 -0.5144  0.2474 -0.0382
  535MOL0     O72138  -1.736   8.659   6.639  1.0882  1.1058 -0.7898
  535MOL0     C72139  -1.499   8.689   6.774  0.0445  0.7603 -0.4991
  535MOL0     C72140  -1.372   8.716   6.829 -0.5192 -0.7624  1.0119
  535MOL0     N72141  -0.914   9.118   6.747  0.2794  0.6321 -0.0396
  535MOL0     N72142  -0.900   9.246   6.742 -0.2785  0.0381  0.1348
  535MOL0     C72143   0.344   9.400   6.629 -0.4618 -0.4515 -0.2524
  535MOL0     C72144   0.467   9.330   6.649 -0.2216  0.0451  0.1736
  535MOL0     C72145   0.875   9.202   6.762  0.3614  0.3962 -0.1164
  535MOL0     C72146   0.883   9.145   6.893 -0.2038 -0.4305 -0.1511
  535MOL0     C72147   1.000   9.070   6.934  1.2803 -0.2128 -0.0862
  535MOL0     C72148   1.103   9.047   6.842 -0.0353 -0.3597  0.9203
  535MOL0     O72149   1.222   8.997   6.866 -0.4072 -0.5651 -0.2546
  535MOL0     C72150   1.230   8.916   6.990 -0.3617 -0.5340  0.7060
  535MOL0     C72151   1.354   8.820   7.004 -0.2430  0.5178 -1.1055
  535MOL0     C72152   1.489   8.885   7.017 -0.4988  0.0486 -0.5007
  535MOL0     C72153   1.594   8.779   7.055 -0.4250 -0.3718  0.4198
  535MOL0     C72154   1.600   8.774   7.203 -0.1904 -1.0446  0.0197
  535MOL0     C72155   1.600   8.764   7.325  0.3307 -0.2404 -0.2019
  535MOL0     C72156   1.092   9.095   6.710  0.6046 -0.1732  0.5479
  535MOL0     C72157   0.978   9.171   6.668  0.6400 -0.2031  0.0616
  535MOL0     H72158   0.459   9.329   6.986  1.6073  0.6894 -0.2928
  535MOL0     H72159   0.259   9.442   6.953  0.4175 -1.3408  0.4011
  535MOL0     H72160   0.087   9.354   6.567  1.2622  0.7932  0.4741
  535MOL0     H72161   0.015   9.321   6.716 -1.6306 -0.8552 -1.7230
  535MOL0     H72162  -0.060   9.592   6.630  2.1142  0.0478  1.2143
  535MOL0     H72163  -0.077   9.472   6.492 -1.0021 -0.9240  0.1081
  535MOL0     H72164  -0.201   9.331   6.598 -1.6774 -0.3208  1.7610
  535MOL0     H72165  -0.193   9.429   6.758  1.0861 -0.1276  0.4960
  535MOL0     H72166  -0.312   9.619   6.643  1.8242  1.4016 -2.2767
  535MOL0     H72167  -0.286   9.544   6.490 -0.2500  0.8983 -0.1646
  535MOL0     H72168  -0.449   9.357   6.530 -1.1805  1.6428 -1.7083
  535MOL0     H72169  -0.443   9.396   6.704 -0.1444 -1.0764 -0.0680
  535MOL0     H72170  -0.551   9.603   6.640  0.2626 -0.0903 -0.1512
  535MOL0     H72171  -0.561   9.550   6.464  1.8731 -1.4257 -0.5353
  535MOL0     H72172  -0.774   9.470   6.556  1.2360 -0.0145 -1.4739
  535MOL0     H72173  -0.663   9.336   6.549  0.9294 -0.0261 -0.6123
  535MOL0     H72174  -0.775   9.481   6.781  0.2627  0.4399 -1.7145
  535MOL0     H72175  -0.616   9.404   6.809 -0.2893 -0.5173 -0.6229
  535MOL0     H72176  -0.589   9.139   6.802  0.4257 -2.8586 -4.8489
  535MOL0     H72177  -0.685   8.882   6.740 -2.3778 -1.5324 -2.5711
  535MOL0     H72178  -0.704   8.939   6.911  0.6342  0.7456 -1.0172
  535MOL0     H72179  -0.852   8.735   6.802  0.3866  0.7147 -1.8268
  535MOL0     H72180  -0.937   8.859   6.716  1.4763 -2.7643 -2.0845
  535MOL0     H72181  -0.943   8.953   6.980  1.9815 -1.0366 -0.6853
  535MOL0     H72182  -0.922   8.784   7.014 -0.3882  0.2666  0.3383
  535MOL0     H72183  -1.138   8.930   6.857 -1.7784 -0.5744 -2.3703
  535MOL0     H72184  -1.157   8.818   6.998  4.8517 -0.0714  2.3742
  535MOL0     H72185  -1.173   8.642   6.584 -0.1481  0.1618 -0.1559
  535MOL0     H72186  -1.444   8.646   6.364 -1.1945  1.4766  2.3334
  535MOL0     H72187  -1.270   8.604   6.389  0.4515  0.9287  2.0905
  535MOL0     H72188  -1.405   8.481   6.415 -1.8457  0.5568  1.4224
  535MOL0     H72189  -1.838   8.348   6.437  3.6101  0.6548 -0.6963
  535MOL0     H72190  -2.044   8.356   6.322  1.9033 -0.5948  2.0946
  535MOL0     H72191  -2.225   8.734   6.201 -1.3231 -1.8405  1.4822
  535MOL0     H72192  -2.106   8.720   6.075  1.7036 -1.3791  1.4423
  535MOL0     H72193  -2.358   8.719   5.997 -1.4035 -2.0855 -1.7003
  535MOL0     H72194  -2.262   8.582   5.942 -0.0940  2.0160 -1.5775
  535MOL0     H72195  -2.440   8.579   6.192  0.4753  0.3443  0.8159
  535MOL0     H72196  -2.363   8.435   6.104  3.3620  1.7184  0.4709
  535MOL0     H72197  -2.562   8.623   5.977 -2.3165 -0.1425  2.3787
  535MOL0     H72198  -2.501   8.467   5.913 -3.4755  0.1190 -1.0407
  535MOL0     H72199  -2.623   8.456   6.194 -1.2808 -1.6832 -0.1721
  535MOL0     H72200  -2.616   8.341   6.069 -0.4018 -0.3359  2.2064
  535MOL0     H72201  -2.797   8.578   6.071 -0.0997  0.9036 -2.0901
  535MOL0     H72202  -2.772   8.484   5.923 -0.2171  1.2049  0.6680
  535MOL0     H72203  -2.883   8.371   6.193 -0.0612 -2.2959 -0.0129
  535MOL0     H72204  -2.860   8.275   6.054  2.7319  0.1764 -1.3363
  535MOL0     H72205  -3.020   8.418   5.934  0.7465  0.3401 -0.3230
  535MOL0     H72206  -3.023   8.548   6.051 -1.3521  0.5049  1.2651
  535MOL0     H72207  -1.965   8.773   6.241 -1.1407 -1.0139 -0.9497
  535MOL0     H72208  -1.750   8.753   6.359  0.4223 -0.4989  0.1530
  535MOL0     H72209  -1.584   8.709   6.839 -0.0641  0.9263 -0.6911
  535MOL0     H72210  -1.378   8.771   6.922 -2.6579  3.2276 -1.2356
  535MOL0     H72211   0.313   9.410   6.525 -1.9456  4.7182  0.4450
  535MOL0     H72212   0.531   9.298   6.567 -0.5307 -1.6974  0.5734
  535MOL0     H72213   0.791   9.159   6.949 -1.8472 -0.2003 -2.7277
  535MOL0     H72214   1.002   9.038   7.038  0.7601 -0.2750 -0.0918
  535MOL0     H72215   1.228   8.980   7.079 -0.3379 -1.6862  1.5735
  535MOL0     H72216   1.146   8.847   6.992  1.0304 -2.3179  0.7053
  535MOL0     H72217   1.354   8.750   6.920  2.3513  2.4781 -2.8862
  535MOL0     H72218   1.351   8.752   7.090  1.2871  0.0888 -1.3589
  535MOL0     H72219   1.475   8.970   7.084  0.5972  1.5462 -2.0635
  535MOL0     H72220   1.506   8.918   6.914 -1.6373 -2.5690 -1.6259
  535MOL0     H72221   1.699   8.800   7.030  0.7987 -0.6184  4.5991
  535MOL0     H72222   1.569   8.685   7.005 -0.4309  0.4560 -1.2261
  535MOL0     H72223   1.607   8.738   7.429 -0.8782 -0.6861 -0.2151
  535MOL0     H72224   1.173   9.079   6.640 -1.1148 -1.9494 -1.1234
  535MOL0     H72225   0.982   9.217   6.570 -1.4909  0.7256  0.3559
  536MOL0     O72226   4.229   6.358  10.245 -0.0193 -0.0768 -0.5048
  536MOL0     C72227   4.299   6.459  10.220  1.2188 -0.5313  0.1961
  536MOL0     O72228   4.245   6.586  10.224  0.3861  0.1432 -0.0305
  536MOL0     C72229   4.108   6.608  10.230  0.1089  0.2360 -0.6052
  536MOL0     C72230   3.997   6.524  10.257  0.0212  0.3219 -0.1133
  536MOL0     C72231   3.868   6.576  10.263  0.1509  0.0115  1.0397
  536MOL0     C72232   3.848   6.711  10.231  1.2548 -0.2386 -0.0884
  536MOL0     O72233   3.712   6.747  10.218 -0.5614  0.4991 -0.4969
  536MOL0     C72234   3.689   6.880  10.179  0.6703  0.4745 -0.0221
  536MOL0     C72235   3.535   6.913  10.145 -0.6019  0.4382  0.2825
  536MOL0     C72236   3.439   6.869  10.250  0.5355 -0.8684 -0.7482
  536MOL0     C72237   3.295   6.869  10.203  0.8726 -0.2857 -0.7864
  536MOL0     C72238   3.192   6.862  10.314  0.2592  0.8074  0.9180
  536MOL0     C72239   3.054   6.841  10.252 -0.7073 -0.1034 -0.2012
  536MOL0     C72240   2.947   6.869  10.360 -0.4002  0.7737 -0.4296
  536MOL0     C72241   2.807   6.899  10.316 -0.0408 -0.0979  0.5912
  536MOL0     N72242   2.793   7.022  10.227  0.2469  0.1291  0.1835
  536MOL0     C72243   2.756   7.147  10.261 -0.1688  0.7831  0.0160
  536MOL0     C72244   2.711   7.200  10.143  0.9621  0.1997  0.0683
  536MOL0     C72245   2.641   7.330  10.122 -0.3252  0.3221  0.1374
  536MOL0     C72246   2.506   7.329  10.201 -0.0547  0.3716 -0.1457
  536MOL0     C72247   2.426   7.459  10.163 -0.1983 -0.1849 -0.9498
  536MOL0     C72248   2.297   7.475  10.252 -0.4103 -0.8693  0.5091
  536MOL0     O72249   2.212   7.367  10.214  0.4827 -0.0986  0.0508
  536MOL0     C72250   2.079   7.378  10.217 -0.5478 -0.1818  0.2838
  536MOL0     C72251   2.007   7.273  10.161  0.0156  0.0947 -0.0001
  536MOL0     C72252   1.865   7.265  10.157  0.0587 -0.8175  0.9334
  536MOL0     C72253   1.794   7.142  10.099  1.1635  0.1105 -0.7785
  536MOL0     C72254   1.792   7.375  10.207 -0.1252 -0.0741 -0.6225
  536MOL0     C72255   1.649   7.389  10.199  0.1362  0.5078 -0.9893
  536MOL0     O72256   1.606   7.511  10.170  0.6782  0.6209  0.0710
  536MOL0     C72257   1.477   7.553  10.161  0.0858 -0.1550 -0.0509
  536MOL0     C72258   1.462   7.670  10.084 -0.1123  0.6246 -1.0369
  536MOL0     C72259   1.340   7.732  10.088 -0.3215 -0.0521 -0.9164
  536MOL0     C72260   1.222   7.687  10.150  0.4118 -0.8731 -0.3026
  536MOL0     O72261   1.104   7.764  10.136  0.1612  1.4585  0.3630
  536MOL0     C72262   0.985   7.715  10.194 -0.2937 -0.2049 -0.9488
  536MOL0     C72263   0.867   7.801  10.147  0.7258 -0.0489 -0.6626
  536MOL0     C72264   0.731   7.795  10.224  0.7240  0.5224  0.0087
  536MOL0     C72265   0.738   7.818  10.382  0.2525 -0.4241  0.3043
  536MOL0     C72266   0.608   7.799  10.452 -0.5026 -0.1533 -0.4041
  536MOL0     C72267   0.494   7.883  10.395  1.3536 -0.0324  0.4418
  536MOL0     C72268   0.370   7.861  10.468  0.5612 -0.1514  0.1942
  536MOL0     C72269   0.277   7.979  10.441  0.2573 -0.3835  0.0722
  536MOL0    Cl72270   0.292   8.025  10.263 -0.0195  0.2839 -0.2970
  536MOL0     C72271   1.237   7.567  10.222 -0.5192  0.9094  0.9978
  536MOL0     C72272   1.364   7.505  10.227  0.1620 -0.7817 -0.1531
  536MOL0     O72273   1.584   7.295  10.239  0.7437 -0.9975  0.2668
  536MOL0     C72274   1.870   7.482  10.255 -0.8859  0.4648 -0.1386
  536MOL0     C72275   2.004   7.481  10.267 -0.2058 -0.0514  0.7485
  536MOL0     N72276   2.732   7.107  10.046  0.6175  0.0311  0.0560
  536MOL0     N72277   2.778   7.004  10.095 -0.1251  0.2838 -0.0813
  536MOL0     C72278   3.957   6.800  10.213  0.5154  0.3148  1.0240
  536MOL0     C72279   4.085   6.745  10.214 -0.4734 -0.0124  0.1270
  536MOL0     C72280   4.437   6.428  10.182 -0.3389  0.2794  0.5660
  536MOL0     C72281   4.472   6.300  10.131  0.4400  0.4720  0.9813
  536MOL0     C72282   4.598   6.269  10.078 -0.3567 -0.2818  0.2248
  536MOL0     C72283   4.692   6.374  10.053 -0.5136  0.5134 -0.6862
  536MOL0     O72284   4.813   6.363   9.984 -0.6236 -0.1875  0.1014
  536MOL0     C72285   4.867   6.239   9.976  0.0368  0.5535 -0.8265
  536MOL0     C72286   5.003   6.254   9.915 -0.6372 -0.5987  0.9256
  536MOL0     C72287   5.074   6.116   9.898 -0.5431 -0.4795  0.1333
  536MOL0     C72288   5.175   6.134   9.786  0.0582  0.8281  0.2002
  536MOL0     C72289   5.224   5.999   9.739  0.5193 -0.4240 -0.1947
  536MOL0     C72290   5.274   5.894   9.720  0.3362 -0.0102  0.5380
  536MOL0     C72291   4.658   6.502  10.104 -0.5431  0.0472  0.4793
  536MOL0     C72292   4.540   6.521  10.169 -0.1536  0.0939 -0.1694
  536MOL0     H72293   4.002   6.415  10.265 -1.4740  0.1682 -0.7868
  536MOL0     H72294   3.788   6.503  10.273  1.0265 -1.6681 -2.5508
  536MOL0     H72295   3.725   6.951  10.254  0.2954  1.7618 -1.0368
  536MOL0     H72296   3.748   6.902  10.090  2.2566 -0.3934  0.7699
  536MOL0     H72297   3.524   7.018  10.115 -0.7273  0.2193 -0.4513
  536MOL0     H72298   3.504   6.851  10.060 -2.9313  1.2532  0.4577
  536MOL0     H72299   3.469   6.770  10.287 -0.9626 -0.8383  0.6350
  536MOL0     H72300   3.453   6.940  10.332  3.6062 -0.7148 -1.2652
  536MOL0     H72301   3.266   6.965  10.160 -1.2468  0.4951  2.1039
  536MOL0     H72302   3.275   6.790  10.130 -3.0195  0.8723 -1.2055
  536MOL0     H72303   3.229   6.779  10.375  1.9406  0.0144 -1.0518
  536MOL0     H72304   3.188   6.951  10.377 -2.2179 -0.9841  3.5721
  536MOL0     H72305   3.038   6.908  10.166  0.7815 -0.3366 -0.6865
  536MOL0     H72306   3.039   6.744  10.203  0.5868 -1.1641  1.4244
  536MOL0     H72307   2.941   6.776  10.416 -0.5975  0.2264 -1.3283
  536MOL0     H72308   2.981   6.944  10.432 -0.5142  2.8872 -2.4538
  536MOL0     H72309   2.742   6.905  10.404 -2.3134 -3.2924 -0.6533
  536MOL0     H72310   2.782   6.808  10.261  0.8597 -0.6760  1.1206
  536MOL0     H72311   2.745   7.188  10.361  2.7218  0.7321  0.4408
  536MOL0     H72312   2.706   7.405  10.168  1.1121 -0.3037 -0.8116
  536MOL0     H72313   2.627   7.360  10.018 -2.5053 -3.1877 -0.7590
  536MOL0     H72314   2.532   7.329  10.307 -0.1556 -1.6359 -0.0788
  536MOL0     H72315   2.445   7.242  10.173 -0.4609  1.2856 -2.3289
  536MOL0     H72316   2.404   7.480  10.058  0.4939  0.9545 -0.8879
  536MOL0     H72317   2.494   7.537  10.200  1.6368 -0.8276 -2.7842
  536MOL0     H72318   2.247   7.570  10.229  1.0619  0.0827  1.1019
  536MOL0     H72319   2.322   7.487  10.358  1.0740 -2.1245  0.3472
  536MOL0     H72320   2.063   7.195  10.111  1.6858  1.8902 -1.0952
  536MOL0     H72321   1.752   7.082  10.181  0.9471  0.9138 -0.2894
  536MOL0     H72322   1.715   7.173  10.030 -0.5205 -0.9931  0.5649
  536MOL0     H72323   1.862   7.083  10.037  1.3962  0.9418 -1.3277
  536MOL0     H72324   1.546   7.718  10.036  1.2066 -1.4081 -0.8940
  536MOL0     H72325   1.354   7.827  10.038 -0.8724  0.4468 -0.1401
  536MOL0     H72326   0.962   7.612  10.164 -0.6776  0.1899 -2.0940
  536MOL0     H72327   1.005   7.716  10.301  1.5909  1.7031 -1.2563
  536MOL0     H72328   0.888   7.908  10.143 -1.1118  0.4888  1.6843
  536MOL0     H72329   0.837   7.779  10.043  0.0234 -1.8966 -0.1150
  536MOL0     H72330   0.681   7.700  10.203  1.0043  0.5918 -1.0153
  536MOL0     H72331   0.672   7.882  10.195  0.3981  0.9041  1.7279
  536MOL0     H72332   0.818   7.758  10.425 -1.0132 -1.0268  1.9193
  536MOL0     H72333   0.777   7.920  10.386  2.8417 -1.3960  2.0340
  536MOL0     H72334   0.617   7.816  10.560 -0.7707  0.5469 -0.4865
  536MOL0     H72335   0.573   7.696  10.444  1.5572 -1.0026  0.7506
  536MOL0     H72336   0.528   7.986  10.412  4.5047 -0.7188 -1.1274
  536MOL0     H72337   0.481   7.850  10.292  0.5378 -0.3090  0.6247
  536MOL0     H72338   0.374   7.869  10.577 -0.0560 -2.5256  0.4553
  536MOL0     H72339   0.311   7.771  10.447 -0.1429 -0.2016  2.1953
  536MOL0     H72340   0.306   8.056  10.513  3.3658 -0.6587 -0.7414
  536MOL0     H72341   0.173   7.953  10.463 -0.0183 -0.0891 -0.8417
  536MOL0     H72342   1.150   7.521  10.269  2.1555 -3.5605  2.1415
  536MOL0     H72343   1.384   7.419  10.291 -2.3001 -1.6847 -0.4745
  536MOL0     H72344   1.836   7.575  10.301  1.3669  0.6836  1.2523
  536MOL0     H72345   2.051   7.571  10.306  0.2210  0.4150 -0.7545
  536MOL0     H72346   3.939   6.903  10.184 -0.2592  0.0838  0.6599
  536MOL0     H72347   4.166   6.816  10.200 -0.4991  0.4340  2.0167
  536MOL0     H72348   4.398   6.221  10.126  2.8108 -1.8372 -3.2519
  536MOL0     H72349   4.631   6.170  10.049 -2.4146 -0.6956 -0.8868
  536MOL0     H72350   4.867   6.191  10.074 -2.2813 -0.7701 -1.4012
  536MOL0     H72351   4.805   6.173   9.914 -2.2353 -0.4902  2.3064
  536MOL0     H72352   5.064   6.318   9.980 -0.3497  0.9557 -0.7685
  536MOL0     H72353   4.987   6.313   9.824  2.0683 -1.6871 -0.3851
  536MOL0     H72354   5.006   6.037   9.866  0.9034 -1.6097 -0.2820
  536MOL0     H72355   5.128   6.096   9.992  2.4481  0.5348 -1.2351
  536MOL0     H72356   5.256   6.199   9.820 -0.3010  2.0962 -1.2639
  536MOL0     H72357   5.132   6.183   9.698 -0.5574  0.7032  0.4306
  536MOL0     H72358   5.323   5.800   9.706  0.2542  0.0195  0.0401
  536MOL0     H72359   4.731   6.579  10.082 -0.0681 -0.1429  1.3389
  536MOL0     H72360   4.530   6.627  10.193  0.6918  0.9045 -2.9323
  537MOL0     O72361   2.574   3.605   3.664 -0.2494 -0.1687 -0.1797
  537MOL0     C72362   2.627   3.713   3.689 -0.3609 -0.2690 -0.6520
  537MOL0     O72363   2.566   3.839   3.685  0.4701 -0.2541 -0.0761
  537MOL0     C72364   2.423   3.856   3.664  0.3336 -0.2944  0.2468
  537MOL0     C72365   2.328   3.751   3.679  0.0027 -0.3080  0.0945
  537MOL0     C72366   2.187   3.782   3.645  0.1974  0.9319 -0.9220
  537MOL0     C72367   2.147   3.910   3.603 -0.2072  0.5007  0.5065
  537MOL0     O72368   2.025   3.947   3.572  0.2213  0.3195 -0.9696
  537MOL0     C72369   1.989   3.915   3.443 -0.0075  0.2694  0.1325
  537MOL0     C72370   1.841   3.962   3.422  0.3913 -0.8172 -0.5757
  537MOL0     C72371   1.817   4.117   3.464  0.2669  0.0762  0.2989
  537MOL0     C72372   1.672   4.129   3.505 -0.7655 -0.6743  0.8592
  537MOL0     C72373   1.636   4.273   3.533 -0.0617 -0.8529 -0.3560
  537MOL0     C72374   1.493   4.282   3.579  0.4338 -0.0054 -0.0638
  537MOL0     C72375   1.405   4.401   3.528 -0.0438  0.0747  0.3900
  537MOL0     C72376   1.291   4.433   3.624 -0.0664  0.0682 -0.8905
  537MOL0     N72377   1.206   4.310   3.642  0.1884 -0.2125 -0.3435
  537MOL0     C72378   1.121   4.253   3.551 -0.1303 -0.8550 -0.3724
  537MOL0     C72379   1.074   4.147   3.620 -0.6139 -0.3510  0.8461
  537MOL0     C72380   0.971   4.050   3.570  0.1161 -0.0895 -0.2861
  537MOL0     C72381   0.826   4.108   3.548 -0.0846 -0.9871 -1.3774
  537MOL0     C72382   0.721   3.998   3.558  0.2297  0.0727 -0.3076
  537MOL0     C72383   0.580   4.032   3.537  0.0750 -0.2140 -0.1386
  537MOL0     O72384   0.509   3.911   3.528  0.2729 -0.7626 -0.0766
  537MOL0     C72385   0.376   3.905   3.495 -0.1529 -0.3079 -0.2513
  537MOL0     C72386   0.329   3.780   3.454  0.0575 -0.5167 -0.3116
  537MOL0     C72387   0.191   3.762   3.427  0.2912  0.4986 -0.3575
  537MOL0     C72388   0.148   3.623   3.399 -0.4114 -0.2542 -0.4506
  537MOL0     C72389   0.100   3.870   3.437 -0.4786  0.3443  0.4666
  537MOL0     C72390  -0.046   3.856   3.422  0.0126 -0.0904  0.7879
  537MOL0     O72391  -0.110   3.947   3.338 -0.1264 -0.4199 -0.1446
  537MOL0     C72392  -0.245   3.962   3.319 -0.0505 -0.6493  0.4941
  537MOL0     C72393  -0.282   4.007   3.198  0.0408 -0.2846 -0.1010
  537MOL0     C72394  -0.414   4.041   3.169 -0.2467  0.0549 -0.4762
  537MOL0     C72395  -0.514   4.015   3.267 -0.1349 -0.0869 -0.1719
  537MOL0     O72396  -0.644   4.031   3.238  0.1046  0.7530 -0.2450
  537MOL0     C72397  -0.711   4.122   3.329  0.6622  1.0006 -0.0071
  537MOL0     C72398  -0.850   4.133   3.256 -0.5905  0.5160 -0.1462
  537MOL0     C72399  -0.962   4.172   3.352 -0.2237  0.6196 -0.9261
  537MOL0     C72400  -1.073   4.251   3.277 -0.3846  0.4967  0.3217
  537MOL0     C72401  -1.186   4.285   3.361  0.4234  1.6841 -0.9537
  537MOL0     C72402  -1.245   4.164   3.426 -0.1717 -0.5302 -0.5543
  537MOL0     C72403  -1.391   4.187   3.465  0.3454 -0.0946 -0.5347
  537MOL0     C72404  -1.448   4.069   3.538  0.2825 -0.3635 -0.4507
  537MOL0    Cl72405  -1.625   4.073   3.556  0.2796  0.2140 -0.2158
  537MOL0     C72406  -0.480   3.954   3.389 -0.2759 -0.2601 -0.0002
  537MOL0     C72407  -0.344   3.933   3.420 -0.1309 -0.2982  0.2349
  537MOL0     O72408  -0.099   3.763   3.480 -0.4958 -0.8202  0.5477
  537MOL0     C72409   0.156   3.998   3.464 -0.8171  0.7495  0.6777
  537MOL0     C72410   0.288   4.014   3.501 -0.7880 -0.8389  0.1320
  537MOL0     N72411   1.145   4.131   3.743 -0.1778 -0.5537  1.2877
  537MOL0     N72412   1.217   4.232   3.753 -0.0882  0.2141 -0.3169
  537MOL0     C72413   2.239   4.013   3.612 -0.5824  0.5317  0.1370
  537MOL0     C72414   2.377   3.985   3.634 -0.0109  0.9604 -0.0244
  537MOL0     C72415   2.772   3.726   3.711  0.5115  0.0814  0.0008
  537MOL0     C72416   2.835   3.843   3.765  0.1200  0.7284  0.3265
  537MOL0     C72417   2.974   3.848   3.765 -0.6295 -0.5522  0.1800
  537MOL0     C72418   3.056   3.745   3.727  0.0816 -0.2994 -0.0880
  537MOL0     O72419   3.194   3.748   3.721  0.1450 -0.3583  0.0088
  537MOL0     C72420   3.255   3.882   3.723 -0.4670  0.6509  0.0006
  537MOL0     C72421   3.395   3.886   3.641  0.3065 -0.3464 -0.9765
  537MOL0     C72422   3.486   3.762   3.682 -0.1415  0.1211 -0.2249
  537MOL0     C72423   3.616   3.753   3.600  0.5707  0.0591  1.0946
  537MOL0     C72424   3.701   3.874   3.610  0.0894 -0.4109 -0.3560
  537MOL0     C72425   3.787   3.957   3.644 -0.1751  0.6588  1.0495
  537MOL0     C72426   2.995   3.633   3.674 -0.1762 -0.4204  0.1433
  537MOL0     C72427   2.856   3.620   3.670  0.6260  0.1359 -0.4993
  537MOL0     H72428   2.351   3.648   3.706  1.1918  0.2919  1.4793
  537MOL0     H72429   2.116   3.702   3.661  0.6754  0.7570  0.5363
  537MOL0     H72430   2.054   3.968   3.373 -0.6202  0.5642 -0.2157
  537MOL0     H72431   2.002   3.807   3.430  1.3136 -0.3835  4.7878
  537MOL0     H72432   1.813   3.959   3.316  0.2789 -1.2314 -0.5378
  537MOL0     H72433   1.777   3.890   3.473 -0.0379  0.9349  1.4871
  537MOL0     H72434   1.880   4.152   3.546  0.8856 -0.0280 -0.1243
  537MOL0     H72435   1.830   4.178   3.374 -0.5546 -0.2082 -0.0252
  537MOL0     H72436   1.605   4.081   3.432  0.8757 -0.6865 -0.6925
  537MOL0     H72437   1.665   4.080   3.603 -0.1627  1.1268  1.8476
  537MOL0     H72438   1.694   4.320   3.613 -1.5337 -0.4363  0.4929
  537MOL0     H72439   1.661   4.340   3.450  0.4386 -0.9217 -0.2638
  537MOL0     H72440   1.438   4.194   3.544  0.0250 -0.4085  1.5099
  537MOL0     H72441   1.504   4.289   3.688  5.0488 -2.7653 -0.0962
  537MOL0     H72442   1.464   4.491   3.510  0.0491 -0.3928 -2.0536
  537MOL0     H72443   1.370   4.370   3.428  0.7858  0.1799  0.0575
  537MOL0     H72444   1.227   4.511   3.581 -0.5528  0.5503  0.6540
  537MOL0     H72445   1.335   4.468   3.718  0.0104 -2.3209  0.0319
  537MOL0     H72446   1.102   4.292   3.452  1.4069  1.8470  0.3067
  537MOL0     H72447   1.017   4.000   3.484  0.9539  0.4322 -0.1535
  537MOL0     H72448   0.964   3.974   3.648  1.5519 -1.1697 -1.1679
  537MOL0     H72449   0.830   4.168   3.457  3.1564  0.3529 -0.4717
  537MOL0     H72450   0.809   4.181   3.627 -2.8823 -0.7148 -2.1211
  537MOL0     H72451   0.737   3.946   3.653  1.1508  1.2254  0.1836
  537MOL0     H72452   0.740   3.938   3.468  1.5302  1.9556 -1.3559
  537MOL0     H72453   0.564   4.091   3.446 -0.7358 -0.3653 -0.1030
  537MOL0     H72454   0.555   4.098   3.619  0.9543  1.2686 -1.0112
  537MOL0     H72455   0.394   3.696   3.431  2.1830  0.9019  0.2950
  537MOL0     H72456   0.059   3.619   3.335  0.7297 -2.4278 -2.0294
  537MOL0     H72457   0.222   3.587   3.327  1.5687 -1.2207  1.9309
  537MOL0     H72458   0.156   3.553   3.483  2.5907 -0.3552 -0.7157
  537MOL0     H72459  -0.211   4.024   3.118 -1.7150  0.6016 -1.5418
  537MOL0     H72460  -0.437   4.079   3.071  0.5756 -0.6587 -0.9601
  537MOL0     H72461  -0.716   4.069   3.424 -0.8695 -2.8389 -2.0025
  537MOL0     H72462  -0.665   4.221   3.339  2.1176  0.1251  3.6776
  537MOL0     H72463  -0.842   4.201   3.171 -1.4769  3.1634  1.7348
  537MOL0     H72464  -0.865   4.034   3.212  1.2094 -0.6811  1.7025
  537MOL0     H72465  -0.922   4.225   3.438  1.9428 -0.2422 -1.3405
  537MOL0     H72466  -0.993   4.073   3.389 -2.0043  0.3676 -2.9013
  537MOL0     H72467  -1.018   4.340   3.245  1.9538 -0.6275  0.9909
  537MOL0     H72468  -1.104   4.196   3.187  1.2077 -1.2719  0.7908
  537MOL0     H72469  -1.265   4.334   3.302 -0.9479  0.6164 -0.0682
  537MOL0     H72470  -1.138   4.351   3.434  1.0815 -2.0974  2.3709
  537MOL0     H72471  -1.242   4.080   3.356 -2.3567 -1.8567  0.8011
  537MOL0     H72472  -1.185   4.140   3.515 -0.2741  2.6493  0.5059
  537MOL0     H72473  -1.445   4.212   3.373 -0.9371  1.7669  0.6704
  537MOL0     H72474  -1.404   4.273   3.531 -0.0361 -0.3553 -0.2648
  537MOL0     H72475  -1.401   4.071   3.637 -2.6021 -0.9568  1.0354
  537MOL0     H72476  -1.426   3.971   3.495 -0.8281 -0.2047 -1.4292
  537MOL0     H72477  -0.556   3.936   3.465 -1.0093  3.4106  0.3308
  537MOL0     H72478  -0.323   3.898   3.521 -2.4779  0.7956  1.1827
  537MOL0     H72479   0.091   4.084   3.456 -2.7911 -0.7676 -0.3623
  537MOL0     H72480   0.318   4.114   3.531 -0.2366 -0.7841 -0.5733
  537MOL0     H72481   2.209   4.110   3.575  0.3315 -0.2520 -2.9542
  537MOL0     H72482   2.452   4.062   3.623 -3.9706  5.2189  0.0013
  537MOL0     H72483   2.770   3.919   3.805 -1.0939  1.0313 -2.0009
  537MOL0     H72484   3.019   3.938   3.804  0.4320 -1.5092  1.2292
  537MOL0     H72485   3.189   3.955   3.677 -0.5429  0.8961  0.4925
  537MOL0     H72486   3.284   3.916   3.823  0.6940  2.4786 -0.9064
  537MOL0     H72487   3.451   3.978   3.660  1.3263 -1.0040 -0.6841
  537MOL0     H72488   3.374   3.880   3.534 -3.0056 -0.1608 -0.4310
  537MOL0     H72489   3.432   3.675   3.643  0.5912  0.3073 -1.7368
  537MOL0     H72490   3.501   3.744   3.789 -1.7076 -0.1597 -0.0330
  537MOL0     H72491   3.593   3.753   3.493  0.3582  0.7907  1.1347
  537MOL0     H72492   3.676   3.668   3.635  0.8750  0.3272  1.2225
  537MOL0     H72493   3.856   4.032   3.676  1.2998 -0.1282 -0.1290
  537MOL0     H72494   3.059   3.560   3.626 -2.1407 -2.4690  0.4660
  537MOL0     H72495   2.811   3.531   3.627 -1.6937  1.2258 -0.4762
  538MOL0     O72496   4.802   6.103  10.984  0.5467 -0.0757 -0.2764
  538MOL0     C72497   4.857   6.213  10.969  0.2190  0.8936  0.0666
  538MOL0     O72498   4.793   6.334  10.995  0.4014  0.2917  0.3509
  538MOL0     C72499   4.654   6.345  11.016 -0.5109  0.8609  0.5936
  538MOL0     C72500   4.557   6.240  11.029 -0.2159  0.4176  1.0846
  538MOL0     C72501   4.420   6.264  11.037 -0.1401 -0.0872 -0.1373
  538MOL0     C72502   4.374   6.401  11.035  0.1830 -0.3412  0.5246
  538MOL0     O72503   4.241   6.418  11.070  0.2619  0.2058 -0.0521
  538MOL0     C72504   4.179   6.544  11.040  0.2567  0.0368 -0.4448
  538MOL0     C72505   4.030   6.520  11.082 -0.5687 -0.5387  0.1976
  538MOL0     C72506   3.953   6.652  11.102  0.2157  0.1190  0.9353
  538MOL0     C72507   3.806   6.642  11.099 -0.3527  0.4473  0.4718
  538MOL0     C72508   3.727   6.772  11.082 -0.2541 -0.2940 -0.0176
  538MOL0     C72509   3.585   6.758  11.127 -0.4776  0.4379 -0.0017
  538MOL0     C72510   3.493   6.681  11.018  0.1048  0.3049  0.1168
  538MOL0     C72511   3.363   6.635  11.085 -0.4004 -0.0930 -0.4839
  538MOL0     N72512   3.284   6.737  11.151 -1.3755  0.0400 -0.5416
  538MOL0     C72513   3.237   6.851  11.087  0.2311 -0.1555  0.3022
  538MOL0     C72514   3.163   6.915  11.172  0.0321 -0.0660  1.3023
  538MOL0     C72515   3.107   7.052  11.148 -0.0133  0.2438 -0.7131
  538MOL0     C72516   2.967   7.044  11.091 -0.1099  0.1447 -0.0229
  538MOL0     C72517   2.924   7.189  11.061  1.6902 -0.1098 -0.2259
  538MOL0     C72518   2.778   7.194  11.012 -0.6828 -0.0149 -0.2493
  538MOL0     O72519   2.688   7.143  11.109  0.9371  0.6939 -0.4875
  538MOL0     C72520   2.556   7.132  11.079 -0.5513 -0.2499 -0.0640
  538MOL0     C72521   2.500   7.092  10.963 -0.5894 -0.3416 -0.0105
  538MOL0     C72522   2.367   7.059  10.956  0.4722  0.5077 -0.7509
  538MOL0     C72523   2.313   6.997  10.837 -0.2553 -0.0139  1.2578
  538MOL0     C72524   2.282   7.066  11.068  1.1803 -0.1870 -0.1662
  538MOL0     C72525   2.134   7.035  11.078 -0.4468 -0.0585  1.0462
  538MOL0     O72526   2.066   7.076  10.966 -0.9406 -0.5250 -0.2349
  538MOL0     C72527   1.926   7.073  10.988 -0.4338  0.1873  2.0578
  538MOL0     C72528   1.862   6.948  10.961 -0.2565 -1.1002  0.0591
  538MOL0     C72529   1.717   6.935  10.965 -0.4030 -1.0824 -0.1824
  538MOL0     C72530   1.642   7.036  11.021 -0.2858 -0.1546  0.0286
  538MOL0     O72531   1.509   7.022  11.041  0.0232 -0.7532 -0.2748
  538MOL0     C72532   1.441   6.901  10.993 -0.2109 -0.0996 -0.1466
  538MOL0     C72533   1.306   6.884  11.064  0.3154 -0.2373 -0.1554
  538MOL0     C72534   1.187   6.958  10.994 -0.1405  0.2603 -0.4689
  538MOL0     C72535   1.057   6.884  11.032 -0.3002 -0.2240 -1.1285
  538MOL0     C72536   0.968   6.974  11.125 -0.8131  0.3087  0.1754
  538MOL0     C72537   0.859   6.899  11.182 -0.0620 -0.4642 -0.5054
  538MOL0     C72538   0.785   6.999  11.265  0.9746 -0.7525  0.6197
  538MOL0     C72539   0.694   6.920  11.355  0.1739 -0.1074  0.8321
  538MOL0    Cl72540   0.643   7.037  11.487  0.0079  0.1486  0.1221
  538MOL0     C72541   1.706   7.159  11.044 -0.1891 -1.1380 -0.0808
  538MOL0     C72542   1.849   7.183  11.023 -0.5511  0.7135 -0.4092
  538MOL0     O72543   2.094   6.988  11.175 -0.2606  0.2213 -0.4241
  538MOL0     C72544   2.335   7.117  11.193  0.2620 -0.2074 -0.2187
  538MOL0     C72545   2.470   7.145  11.190 -0.6331 -0.2707  0.5592
  538MOL0     N72546   3.166   6.848  11.294  0.2159  0.1095 -0.6932
  538MOL0     N72547   3.245   6.746  11.278  0.2142 -0.1770  0.4636
  538MOL0     C72548   4.470   6.505  11.036 -0.4660 -1.7916  0.8646
  538MOL0     C72549   4.610   6.483  11.016 -0.5362  0.1543  0.3954
  538MOL0     C72550   4.989   6.219  10.922  0.1011  0.2781 -0.3516
  538MOL0     C72551   5.032   6.115  10.837 -0.5925  1.2220 -0.2125
  538MOL0     C72552   5.152   6.116  10.783 -0.3169  0.6471 -0.6972
  538MOL0     C72553   5.240   6.220  10.813 -0.7139  0.1869 -0.2185
  538MOL0     O72554   5.365   6.204  10.755  0.7688  0.4194  0.6255
  538MOL0     C72555   5.473   6.189  10.849 -0.3088 -0.0079  0.1340
  538MOL0     C72556   5.592   6.094  10.810 -0.1529  0.0108  0.5268
  538MOL0     C72557   5.537   5.947  10.785  0.2284  0.1751  0.4065
  538MOL0     C72558   5.628   5.855  10.703 -0.1522  0.8849  0.4879
  538MOL0     C72559   5.690   5.919  10.587 -0.0509  0.0711 -0.1255
  538MOL0     C72560   5.745   5.975  10.495 -0.1483  0.3445  1.4814
  538MOL0     C72561   5.210   6.311  10.903 -0.0514 -0.3922 -0.2360
  538MOL0     C72562   5.080   6.321  10.962 -0.1756 -0.2680  0.5089
  538MOL0     H72563   4.585   6.136  11.044 -0.1429  0.5451  1.8836
  538MOL0     H72564   4.342   6.188  11.044 -0.8482  0.6833  0.6671
  538MOL0     H72565   4.224   6.622  11.102  1.6216 -1.1562  0.1018
  538MOL0     H72566   4.194   6.567  10.934 -0.1060 -0.1379 -0.5367
  538MOL0     H72567   3.975   6.457  11.011  1.6344  1.0305 -3.1688
  538MOL0     H72568   4.032   6.472  11.180 -2.7003 -0.7011  0.2069
  538MOL0     H72569   3.974   6.679  11.206  0.2559  1.6232  0.5706
  538MOL0     H72570   3.983   6.728  11.029 -1.0905 -1.6650 -1.5753
  538MOL0     H72571   3.777   6.583  11.012  2.9011  1.2995 -1.3789
  538MOL0     H72572   3.769   6.592  11.189 -0.4879 -0.3089  0.0014
  538MOL0     H72573   3.784   6.850  11.134 -0.0331 -1.2318  1.2098
  538MOL0     H72574   3.726   6.801  10.976 -0.5666  2.1110  0.5715
  538MOL0     H72575   3.583   6.706  11.223 -1.2763  0.3557 -0.0539
  538MOL0     H72576   3.558   6.864  11.141 -5.6049 -0.5612 -0.2265
  538MOL0     H72577   3.483   6.758  10.941  1.3253  3.2845  2.7109
  538MOL0     H72578   3.534   6.596  10.962 -1.2920 -0.5807  0.4090
  538MOL0     H72579   3.391   6.551  11.149 -0.6526 -0.2023 -0.5144
  538MOL0     H72580   3.305   6.583  11.008  0.3073  0.7783 -1.6444
  538MOL0     H72581   3.256   6.880  10.984 -4.0078 -1.4358 -1.0549
  538MOL0     H72582   3.110   7.109  11.241  0.8602 -0.7144 -0.1290
  538MOL0     H72583   3.179   7.107  11.086  1.0704  1.4892  1.5260
  538MOL0     H72584   2.901   6.987  11.157  0.9973 -3.4046 -1.7325
  538MOL0     H72585   2.968   6.984  11.000  0.1394  1.2435 -0.7663
  538MOL0     H72586   2.990   7.246  10.995  0.9819 -0.8788 -1.6439
  538MOL0     H72587   2.933   7.241  11.156  0.3563  0.7393 -0.5443
  538MOL0     H72588   2.788   7.144  10.916 -0.0453  2.6868 -1.7012
  538MOL0     H72589   2.758   7.297  10.979  0.5513  0.3135 -0.0034
  538MOL0     H72590   2.564   7.063  10.880  1.7586  3.1843  0.3320
  538MOL0     H72591   2.376   6.995  10.748 -1.7404  0.7556  0.1399
  538MOL0     H72592   2.279   6.894  10.854 -0.6533  0.2264  1.9330
  538MOL0     H72593   2.232   7.067  10.815 -1.8127 -1.1179  3.1948
  538MOL0     H72594   1.917   6.858  10.936 -0.3172 -1.2903  0.5993
  538MOL0     H72595   1.676   6.844  10.924 -1.8840 -0.8518  0.7111
  538MOL0     H72596   1.417   6.902  10.887 -3.2497 -0.8057  0.4232
  538MOL0     H72597   1.496   6.808  11.007 -1.0733 -0.6780 -0.5179
  538MOL0     H72598   1.284   6.777  11.068  0.9688 -0.3455  3.7604
  538MOL0     H72599   1.320   6.920  11.166  3.2402 -1.4769 -0.0313
  538MOL0     H72600   1.185   6.956  10.885  0.5359  4.0006 -0.6660
  538MOL0     H72601   1.186   7.060  11.033 -1.5095  0.2250 -0.3531
  538MOL0     H72602   1.001   6.861  10.941 -0.5859  1.0374 -1.2867
  538MOL0     H72603   1.071   6.786  11.079  2.3055 -0.6371 -2.5784
  538MOL0     H72604   0.923   7.050  11.060 -0.1408 -1.0905 -2.0105
  538MOL0     H72605   1.033   7.005  11.206  1.6532  1.2774 -2.0401
  538MOL0     H72606   0.795   6.860  11.103 -1.5161  0.5853  0.1086
  538MOL0     H72607   0.900   6.814  11.239 -3.1443 -0.7474  1.5235
  538MOL0     H72608   0.730   7.065  11.197  3.1492 -0.2064 -0.7175
  538MOL0     H72609   0.850   7.063  11.326 -0.7507 -0.7146  2.5135
  538MOL0     H72610   0.757   6.842  11.397  1.6588  1.7646  2.2778
  538MOL0     H72611   0.604   6.877  11.309  0.0829  1.3999 -0.4891
  538MOL0     H72612   1.648   7.241  11.084  0.2682 -0.8208 -0.0660
  538MOL0     H72613   1.891   7.282  11.040 -0.9745  0.6361  1.2865
  538MOL0     H72614   2.279   7.140  11.283  0.1210  1.3146 -0.6740
  538MOL0     H72615   2.513   7.173  11.286  0.5298  1.3664 -0.3870
  538MOL0     H72616   4.441   6.610  11.043 -2.6871 -2.4162  2.2568
  538MOL0     H72617   4.682   6.563  11.012 -0.2834 -0.0521  0.6910
  538MOL0     H72618   4.957   6.040  10.815  1.4199 -0.8398 -0.4090
  538MOL0     H72619   5.175   6.037  10.712 -1.0346  1.0129 -1.3576
  538MOL0     H72620   5.509   6.291  10.861 -2.2644  0.6046  1.2600
  538MOL0     H72621   5.448   6.156  10.951  0.1574  1.6984  0.8270
  538MOL0     H72622   5.665   6.093  10.891  0.1088  4.2164  0.5474
  538MOL0     H72623   5.654   6.136  10.731  0.3924 -0.3328  0.7662
  538MOL0     H72624   5.434   5.948  10.746 -0.0663  2.3503  1.1308
  538MOL0     H72625   5.515   5.906  10.884 -3.3200 -1.4943 -0.8977
  538MOL0     H72626   5.565   5.772  10.672  0.4095  1.0996 -1.3771
  538MOL0     H72627   5.724   5.826  10.746 -0.2008 -0.4021 -0.2136
  538MOL0     H72628   5.799   6.013  10.411 -2.8521 -0.2371 -0.6626
  538MOL0     H72629   5.279   6.381  10.949 -0.6325  0.5663 -0.7687
  538MOL0     H72630   5.060   6.394  11.040  0.7272 -2.8900  3.4486
  539MOL0     O72631   2.781  10.679   6.457  0.4534  0.4275 -0.5999
  539MOL0     C72632   2.787  10.648   6.580  0.1826  0.2344  0.1223
  539MOL0     O72633   2.687  10.653   6.664  0.4679  0.4287 -0.4469
  539MOL0     C72634   2.570  10.703   6.615 -0.4113  0.6633 -0.0215
  539MOL0     C72635   2.501  10.648   6.508 -0.2660  0.6560 -0.4015
  539MOL0     C72636   2.379  10.694   6.475  0.9093 -0.0783  0.5976
  539MOL0     C72637   2.311  10.804   6.543 -0.4451  0.3846  0.6256
  539MOL0     O72638   2.190  10.844   6.502 -0.1780  0.0842 -0.1910
  539MOL0     C72639   2.109  10.933   6.580 -0.1508 -0.1717  0.3704
  539MOL0     C72640   1.976  10.976   6.520 -0.1137 -0.0461  0.5501
  539MOL0     C72641   1.878  11.070   6.596 -0.2214  0.0767 -0.2061
  539MOL0     C72642   1.782  11.130   6.487 -0.0551  0.2540  0.1622
  539MOL0     C72643   1.696  11.242   6.547  0.6413 -0.4011 -0.3613
  539MOL0     C72644   1.571  11.180   6.619 -0.7746  0.2034 -0.3535
  539MOL0     C72645   1.468  11.287   6.664  0.0400 -1.2033  0.9781
  539MOL0     C72646   1.511  11.373   6.783 -0.1792 -0.7067 -0.3490
  539MOL0     N72647   1.424  11.480   6.818 -0.2647 -0.9059 -0.2955
  539MOL0     C72648   1.302  11.458   6.865  0.2466  0.0897 -0.5505
  539MOL0     C72649   1.244  11.578   6.879 -0.6858 -0.3963 -0.0073
  539MOL0     C72650   1.109  11.606   6.918  0.2029  0.0981  0.6534
  539MOL0     C72651   1.043  11.737   6.863 -0.2251  0.3252 -0.2265
  539MOL0     C72652   1.050  11.735   6.713 -0.3297 -0.1348 -0.8059
  539MOL0     C72653   0.983  11.861   6.650  0.2784 -0.1053 -0.4006
  539MOL0     O72654   0.863  11.910   6.716 -0.0744  0.1596  0.5088
  539MOL0     C72655   0.735  11.860   6.684  0.0374  0.2959  0.2689
  539MOL0     C72656   0.722  11.723   6.669 -0.0524  0.0837  0.7687
  539MOL0     C72657   0.602  11.664   6.620  0.2573  0.2096  0.2683
  539MOL0     C72658   0.579  11.522   6.602 -0.7276  0.5845  0.5661
  539MOL0     C72659   0.492  11.749   6.610  0.7055 -0.5526  0.1754
  539MOL0     C72660   0.356  11.707   6.571  0.2268  0.5850 -0.2528
  539MOL0     O72661   0.298  11.611   6.658 -0.5787 -0.4089 -0.2600
  539MOL0     C72662   0.174  11.554   6.622 -0.0738 -0.6586  1.5069
  539MOL0     C72663   0.167  11.430   6.564 -0.0906  0.2716 -0.7649
  539MOL0     C72664   0.040  11.364   6.537 -0.5231  0.0031  0.9968
  539MOL0     C72665  -0.077  11.428   6.574  0.3933  0.5301  0.1303
  539MOL0     O72666  -0.201  11.368   6.558 -0.6319 -0.1289 -0.7035
  539MOL0     C72667  -0.214  11.251   6.474  0.6092  0.6230 -0.3644
  539MOL0     C72668  -0.210  11.276   6.321 -0.5042 -0.4920 -0.2449
  539MOL0     C72669  -0.156  11.155   6.248 -0.3784 -0.4063  0.0663
  539MOL0     C72670  -0.135  11.158   6.096  0.3868 -0.4673 -0.4789
  539MOL0     C72671  -0.126  11.018   6.037  0.6794  1.1873 -0.7829
  539MOL0     C72672  -0.089  11.031   5.889  0.7912 -0.0698  0.4475
  539MOL0     C72673  -0.206  11.019   5.792  0.4263 -0.3867 -0.6043
  539MOL0     C72674  -0.325  11.112   5.814 -0.5283  0.8609 -0.5415
  539MOL0    Cl72675  -0.446  11.092   5.687 -0.2850 -0.0273  0.0270
  539MOL0     C72676  -0.074  11.559   6.626  0.3775 -0.3516 -0.4023
  539MOL0     C72677   0.050  11.618   6.657 -0.3869  0.0535  0.2702
  539MOL0     O72678   0.301  11.765   6.481  0.0424 -0.4239 -0.5285
  539MOL0     C72679   0.501  11.886   6.636 -0.1806  1.5933 -0.8028
  539MOL0     C72680   0.625  11.944   6.667 -0.2935  0.5883  0.0783
  539MOL0     N72681   1.338  11.676   6.831  0.3266 -0.1679  0.4499
  539MOL0     N72682   1.443  11.610   6.789  0.0785 -0.0036  0.3882
  539MOL0     C72683   2.379  10.860   6.655 -0.7752  0.1098 -0.0407
  539MOL0     C72684   2.503  10.801   6.690  0.3766 -0.2194  0.8258
  539MOL0     C72685   2.919  10.614   6.638 -0.1233 -0.1228 -0.2264
  539MOL0     C72686   2.935  10.569   6.768  0.1870 -0.2141 -0.4388
  539MOL0     C72687   3.061  10.551   6.838  0.6373 -0.2263  0.1342
  539MOL0     C72688   3.179  10.556   6.768 -0.0159 -0.4199  0.4181
  539MOL0     O72689   3.294  10.514   6.840 -0.8779 -1.6832  0.4412
  539MOL0     C72690   3.414  10.497   6.765  0.0795  0.0413  0.0644
  539MOL0     C72691   3.494  10.404   6.854 -0.2953  0.2049  0.0262
  539MOL0     C72692   3.629  10.345   6.795 -0.2305  0.4421  0.4857
  539MOL0     C72693   3.719  10.297   6.905  0.1731  0.5255  0.7932
  539MOL0     C72694   3.841  10.238   6.850 -0.2226 -0.6392 -0.3853
  539MOL0     C72695   3.948  10.206   6.799 -0.3084 -0.1073  0.4281
  539MOL0     C72696   3.165  10.600   6.628 -0.2821 -0.7735  0.9312
  539MOL0     C72697   3.041  10.630   6.565 -0.5378 -0.1481  0.3293
  539MOL0     H72698   2.539  10.568   6.446 -0.7475  0.6559 -0.6959
  539MOL0     H72699   2.344  10.659   6.379  0.4968  2.4984 -0.2812
  539MOL0     H72700   2.095  10.889   6.679 -2.0695  0.1491  0.2706
  539MOL0     H72701   2.154  11.032   6.590 -0.3391 -0.0821  0.3333
  539MOL0     H72702   1.981  11.018   6.419 -1.9991  1.1325  0.8954
  539MOL0     H72703   1.921  10.881   6.512  0.7773 -0.9218  3.4519
  539MOL0     H72704   1.824  10.998   6.658  2.9207 -1.2642  1.1658
  539MOL0     H72705   1.927  11.145   6.659 -0.7063 -2.7402  3.8855
  539MOL0     H72706   1.839  11.178   6.407 -1.0118 -1.8133 -1.8735
  539MOL0     H72707   1.721  11.052   6.441 -1.9068  0.6480  1.7850
  539MOL0     H72708   1.764  11.296   6.614 -0.4598  0.6175 -0.0388
  539MOL0     H72709   1.656  11.299   6.462 -1.4955 -1.0992  0.1220
  539MOL0     H72710   1.516  11.108   6.557 -1.0250 -0.4174  0.5705
  539MOL0     H72711   1.593  11.116   6.705 -0.2741  1.3165  0.3625
  539MOL0     H72712   1.448  11.353   6.579  2.0045 -0.8435  0.7327
  539MOL0     H72713   1.378  11.232   6.688 -2.7076  2.6299  0.4339
  539MOL0     H72714   1.603  11.428   6.761  0.3889 -0.5457  2.1149
  539MOL0     H72715   1.519  11.316   6.876 -0.6363 -3.1154 -1.6975
  539MOL0     H72716   1.255  11.363   6.890 -0.9137  1.1427  1.6633
  539MOL0     H72717   1.049  11.514   6.912 -0.7382  0.8210 -2.1204
  539MOL0     H72718   1.113  11.629   7.025 -3.1309 -1.0585  1.1721
  539MOL0     H72719   1.090  11.828   6.902  0.6837 -0.2397  0.0232
  539MOL0     H72720   0.937  11.730   6.891 -0.8753  1.3570 -2.2303
  539MOL0     H72721   0.997  11.643   6.689  0.4958 -2.4348  4.6189
  539MOL0     H72722   1.155  11.719   6.685 -0.4565 -0.3139 -1.1759
  539MOL0     H72723   0.959  11.833   6.547 -0.8476 -1.3123  0.1603
  539MOL0     H72724   1.056  11.943   6.648  0.1807  0.0845  1.3914
  539MOL0     H72725   0.805  11.654   6.674 -1.7807 -2.0759  1.4973
  539MOL0     H72726   0.513  11.500   6.518 -0.5338 -0.9362  0.7864
  539MOL0     H72727   0.675  11.473   6.583 -1.1906 -0.8543  1.7643
  539MOL0     H72728   0.537  11.478   6.693 -2.3555 -1.8746 -1.2454
  539MOL0     H72729   0.264  11.382   6.560 -0.9171 -1.8332  1.4335
  539MOL0     H72730   0.037  11.265   6.492  1.2858 -0.4735  1.8373
  539MOL0     H72731  -0.138  11.182   6.513 -0.0349  1.0971  1.8689
  539MOL0     H72732  -0.310  11.214   6.512  0.8341 -0.1427 -0.5188
  539MOL0     H72733  -0.310  11.312   6.293 -0.1430  0.3024 -0.5347
  539MOL0     H72734  -0.148  11.360   6.290 -1.5064 -0.0097 -1.0288
  539MOL0     H72735  -0.220  11.068   6.262  2.1137 -2.4360 -0.3178
  539MOL0     H72736  -0.055  11.133   6.283  0.1784  1.2300 -0.3961
  539MOL0     H72737  -0.224  11.212   6.062 -1.9266 -3.3619  0.4529
  539MOL0     H72738  -0.040  11.207   6.078 -0.6912  1.4953 -1.1453
  539MOL0     H72739  -0.213  10.959   6.066  1.7586  0.7608  1.9565
  539MOL0     H72740  -0.042  10.977   6.094 -0.1992  2.8570  1.9132
  539MOL0     H72741  -0.035  11.124   5.872  3.3506 -1.4896  0.2702
  539MOL0     H72742  -0.025  10.945   5.865  0.8797  0.5386 -1.6878
  539MOL0     H72743  -0.255  10.921   5.796 -5.1780  2.0434  0.0361
  539MOL0     H72744  -0.174  11.042   5.690 -1.0067  0.1273 -0.9628
  539MOL0     H72745  -0.284  11.213   5.823 -1.7645  1.2272  1.8282
  539MOL0     H72746  -0.363  11.092   5.915  1.8449  1.2671  0.4949
  539MOL0     H72747  -0.167  11.613   6.643  0.5808 -0.1515  0.0991
  539MOL0     H72748   0.052  11.711   6.712  0.7177  0.8482 -1.0287
  539MOL0     H72749   0.404  11.935   6.639 -1.1372 -0.0608 -2.1527
  539MOL0     H72750   0.617  12.052   6.678 -2.2223  0.6186 -1.1464
  539MOL0     H72751   2.339  10.939   6.718 -1.9958 -1.4309  1.2216
  539MOL0     H72752   2.537  10.841   6.785 -0.6075  1.3591  0.5580
  539MOL0     H72753   2.857  10.568   6.843  0.0321  4.5578 -0.2437
  539MOL0     H72754   3.065  10.530   6.945 -3.4471  1.1301  0.7540
  539MOL0     H72755   3.396  10.442   6.672 -1.8871 -1.5394  1.2835
  539MOL0     H72756   3.469  10.590   6.752 -0.0626 -0.0197 -1.0649
  539MOL0     H72757   3.425  10.323   6.883  0.1936  0.4512  2.0209
  539MOL0     H72758   3.518  10.454   6.948 -0.2783  0.3535 -0.0566
  539MOL0     H72759   3.683  10.425   6.744 -2.2940  0.6723 -1.5181
  539MOL0     H72760   3.601  10.273   6.717 -1.6409  0.4531  0.9610
  539MOL0     H72761   3.663  10.224   6.963  1.2825  0.4460  1.7966
  539MOL0     H72762   3.749  10.383   6.966 -2.1448  2.3269 -0.4404
  539MOL0     H72763   4.038  10.187   6.745 -0.8287  0.1771 -0.5668
  539MOL0     H72764   3.249  10.603   6.560 -0.4067 -2.1808  0.7002
  539MOL0     H72765   3.040  10.664   6.461 -0.0100 -0.2850  0.2790
  540MOL0     O72766   1.184   4.691   5.967 -0.8054  0.2316  0.2336
  540MOL0     C72767   1.170   4.572   5.931 -0.1703 -0.0258 -0.0599
  540MOL0     O72768   1.048   4.512   5.913 -0.1112 -0.2274  0.9957
  540MOL0     C72769   0.935   4.579   5.949 -0.6370 -0.3904 -0.2061
  540MOL0     C72770   0.905   4.611   6.080 -0.0995 -0.6030 -0.2872
  540MOL0     C72771   0.779   4.670   6.120  0.4574 -0.5465  0.3162
  540MOL0     C72772   0.702   4.732   6.021  0.6567  0.3810 -0.3479
  540MOL0     O72773   0.589   4.799   6.075 -0.9116  0.0469  0.7083
  540MOL0     C72774   0.487   4.864   6.001  0.1681  0.4290  0.3181
  540MOL0     C72775   0.376   4.766   5.953  0.0112 -0.2655 -0.4436
  540MOL0     C72776   0.251   4.830   5.900 -0.4563 -0.0584  0.3878
  540MOL0     C72777   0.267   4.962   5.803 -0.1573 -0.4644  0.1224
  540MOL0     C72778   0.162   4.972   5.694  0.2092 -0.2115 -0.5197
  540MOL0     C72779   0.179   4.875   5.577 -1.0985  0.2427  0.7228
  540MOL0     C72780   0.304   4.892   5.491 -0.1489 -0.0662  0.2029
  540MOL0     C72781   0.393   4.761   5.504 -0.6441 -0.0233 -0.0470
  540MOL0     N72782   0.532   4.772   5.459 -0.3702 -0.4678 -1.0880
  540MOL0     C72783   0.570   4.858   5.357 -1.0136  0.3450  0.0867
  540MOL0     C72784   0.704   4.888   5.373 -0.1132  0.3627 -0.6698
  540MOL0     C72785   0.789   4.971   5.292  0.5071  0.7095 -0.2893
  540MOL0     C72786   0.850   5.100   5.371  0.1137  0.4838  0.1773
  540MOL0     C72787   0.735   5.186   5.443  0.3545 -0.0029  0.4313
  540MOL0     C72788   0.676   5.270   5.339  0.2934  0.5620  0.2024
  540MOL0     O72789   0.577   5.205   5.248 -0.0471 -0.3912  0.1749
  540MOL0     C72790   0.444   5.181   5.287  0.3050 -0.3933 -0.9754
  540MOL0     C72791   0.354   5.143   5.192 -0.2571 -0.4877 -0.5978
  540MOL0     C72792   0.213   5.141   5.217  0.7807 -0.6481 -0.2726
  540MOL0     C72793   0.130   5.127   5.090  0.3726  0.0683  0.9132
  540MOL0     C72794   0.172   5.184   5.347  0.0329 -0.1452 -0.6202
  540MOL0     C72795   0.027   5.213   5.383 -0.2902  0.1342  0.0825
  540MOL0     O72796  -0.075   5.189   5.287  0.0553  0.1061  0.1428
  540MOL0     C72797  -0.201   5.240   5.316  0.8312  0.3877  0.8006
  540MOL0     C72798  -0.303   5.147   5.338 -0.6419 -0.3575 -0.4915
  540MOL0     C72799  -0.428   5.190   5.362  0.0140  0.1888  0.7877
  540MOL0     C72800  -0.459   5.321   5.384 -0.4194 -0.6521  0.0385
  540MOL0     O72801  -0.589   5.354   5.420  0.5932 -0.2849 -0.0507
  540MOL0     C72802  -0.602   5.459   5.517 -0.2272  0.1910 -0.4754
  540MOL0     C72803  -0.724   5.445   5.607  0.4507 -0.1176 -0.5321
  540MOL0     C72804  -0.717   5.317   5.692 -0.8284 -0.4602 -1.2520
  540MOL0     C72805  -0.845   5.267   5.760  0.2534  0.2219  0.5046
  540MOL0     C72806  -0.834   5.186   5.893  0.5596  0.1709  1.4329
  540MOL0     C72807  -0.762   5.056   5.857  0.1915  0.3763  0.6189
  540MOL0     C72808  -0.777   4.943   5.958  0.5182 -0.5577 -0.2808
  540MOL0     C72809  -0.748   4.976   6.094 -0.4199 -0.3231  0.2354
  540MOL0    Cl72810  -0.659   4.855   6.187  0.0190 -0.1417 -0.0413
  540MOL0     C72811  -0.360   5.415   5.369 -0.1788 -0.1100  0.2567
  540MOL0     C72812  -0.228   5.376   5.335 -0.1552 -0.5692  0.0160
  540MOL0     O72813   0.008   5.270   5.493  0.1307  0.2000  0.1082
  540MOL0     C72814   0.269   5.206   5.450  0.0924 -0.0426 -0.6925
  540MOL0     C72815   0.401   5.219   5.415 -1.2112 -0.6745  0.5084
  540MOL0     N72816   0.745   4.827   5.491  0.9639  0.3517 -0.7254
  540MOL0     N72817   0.643   4.766   5.542 -0.6685  0.3871  0.2964
  540MOL0     C72818   0.733   4.704   5.887 -0.8429 -1.3402 -0.0936
  540MOL0     C72819   0.852   4.627   5.850  0.6646  0.0030 -0.3288
  540MOL0     C72820   1.300   4.499   5.907  0.1718 -0.8537  0.5615
  540MOL0     C72821   1.429   4.558   5.927 -0.5702 -0.6953 -0.1305
  540MOL0     C72822   1.548   4.474   5.919  0.0193 -1.3006  0.3917
  540MOL0     C72823   1.534   4.340   5.887  0.6266  0.1313  0.1901
  540MOL0     O72824   1.638   4.246   5.888  0.3321  0.5796  0.3226
  540MOL0     C72825   1.760   4.275   5.958  0.1933 -0.7827  0.0294
  540MOL0     C72826   1.855   4.164   5.953 -0.3356  0.1262  0.7304
  540MOL0     C72827   1.799   4.029   6.010 -0.8144  0.0850 -0.1427
  540MOL0     C72828   1.916   3.923   6.004 -0.4238 -0.9040 -1.0206
  540MOL0     C72829   1.967   3.900   6.143 -0.0102 -0.3936  0.2781
  540MOL0     C72830   2.013   3.868   6.243 -0.7158  0.2652 -0.5430
  540MOL0     C72831   1.411   4.290   5.856  0.0012  0.2815  0.0561
  540MOL0     C72832   1.301   4.366   5.861  0.0715  0.6143 -0.4421
  540MOL0     H72833   0.970   4.580   6.161 -1.5907 -0.6591  0.9311
  540MOL0     H72834   0.754   4.685   6.224 -0.3979  0.6289 -0.0325
  540MOL0     H72835   0.442   4.936   6.071 -0.5658 -1.9515  2.4472
  540MOL0     H72836   0.525   4.918   5.914 -1.6299 -1.2807 -1.6266
  540MOL0     H72837   0.415   4.700   5.874  1.0833  0.6725 -0.7180
  540MOL0     H72838   0.347   4.707   6.040  0.1572 -0.1365 -0.3085
  540MOL0     H72839   0.207   4.751   5.838  1.9890 -0.9880 -0.2651
  540MOL0     H72840   0.188   4.855   5.986 -0.1223 -0.7190  0.8269
  540MOL0     H72841   0.265   5.056   5.860  0.6748  0.2567 -0.9888
  540MOL0     H72842   0.371   4.959   5.768  0.2390 -5.9001  0.9815
  540MOL0     H72843   0.064   4.955   5.740 -0.2272  2.2215 -0.4441
  540MOL0     H72844   0.145   5.073   5.655 -2.3772 -0.0772  0.7532
  540MOL0     H72845   0.164   4.773   5.614 -0.5162 -0.0901  0.0453
  540MOL0     H72846   0.094   4.880   5.508  0.5620 -0.2318 -1.4509
  540MOL0     H72847   0.280   4.909   5.385 -2.3401  0.0939  0.6711
  540MOL0     H72848   0.365   4.974   5.529  2.1214 -3.0377  3.5555
  540MOL0     H72849   0.350   4.679   5.446 -0.7343 -1.4704  2.0016
  540MOL0     H72850   0.389   4.742   5.611 -1.0416  2.2880  0.4004
  540MOL0     H72851   0.505   4.881   5.273  0.2292 -1.0694 -1.3254
  540MOL0     H72852   0.869   4.913   5.245  1.3021  0.9274  0.7488
  540MOL0     H72853   0.730   5.011   5.209 -1.5172  0.2191  0.8468
  540MOL0     H72854   0.915   5.159   5.305 -0.7591  2.9042  1.3578
  540MOL0     H72855   0.917   5.065   5.450  1.5018  1.1534 -0.6683
  540MOL0     H72856   0.789   5.247   5.517 -0.9011  1.2607  0.3515
  540MOL0     H72857   0.666   5.113   5.484 -0.0689 -0.2824 -0.7393
  540MOL0     H72858   0.742   5.309   5.262 -0.1310 -3.0093 -2.2220
  540MOL0     H72859   0.636   5.358   5.390  0.7343  0.8957 -0.0220
  540MOL0     H72860   0.389   5.101   5.098  0.7440 -0.0058 -0.4416
  540MOL0     H72861   0.196   5.126   5.002  0.3785  1.6689  0.8814
  540MOL0     H72862   0.084   5.028   5.086  1.2031 -0.2973 -0.1599
  540MOL0     H72863   0.048   5.198   5.077 -0.6853 -1.5053 -1.9069
  540MOL0     H72864  -0.276   5.042   5.335  1.1278 -0.0293  1.4849
  540MOL0     H72865  -0.503   5.112   5.373  0.2165 -0.0935  0.1876
  540MOL0     H72866  -0.514   5.443   5.581  0.7350 -6.6777 -2.6282
  540MOL0     H72867  -0.603   5.558   5.470 -0.2635 -1.2885 -3.8786
  540MOL0     H72868  -0.719   5.535   5.670  0.8948  0.1799 -0.9846
  540MOL0     H72869  -0.820   5.445   5.555  0.0615  2.8880 -0.0269
  540MOL0     H72870  -0.647   5.331   5.776 -0.9962 -1.5717 -0.9089
  540MOL0     H72871  -0.681   5.232   5.633  1.7425 -0.7632  0.5602
  540MOL0     H72872  -0.913   5.352   5.773 -0.7776 -0.6921  1.2656
  540MOL0     H72873  -0.893   5.199   5.690  1.1127 -0.5560  0.6454
  540MOL0     H72874  -0.933   5.162   5.933  0.8982 -3.9285  0.1921
  540MOL0     H72875  -0.781   5.248   5.966 -0.3034  3.9743 -0.8481
  540MOL0     H72876  -0.801   5.021   5.761  3.0133 -0.2666 -0.3744
  540MOL0     H72877  -0.657   5.085   5.849  0.5867 -0.8762  0.9921
  540MOL0     H72878  -0.698   4.872   5.934  1.9939  1.0709 -0.3965
  540MOL0     H72879  -0.875   4.894   5.955 -0.0756  0.6121 -0.8012
  540MOL0     H72880  -0.849   4.981   6.138  0.0307 -3.1453  1.8635
  540MOL0     H72881  -0.696   5.070   6.111  0.6406 -0.8426 -0.0814
  540MOL0     H72882  -0.374   5.519   5.397  1.1771 -0.6514  3.3353
  540MOL0     H72883  -0.146   5.447   5.334  1.2027 -2.0032  2.1309
  540MOL0     H72884   0.245   5.232   5.553  0.8891 -0.1511 -0.4717
  540MOL0     H72885   0.462   5.245   5.501 -3.5329  0.3024  1.9393
  540MOL0     H72886   0.670   4.738   5.805  1.8803  1.3377 -1.2696
  540MOL0     H72887   0.850   4.612   5.742 -0.7513 -0.8160 -0.2202
  540MOL0     H72888   1.437   4.662   5.957 -1.1730 -0.5984 -0.2824
  540MOL0     H72889   1.643   4.525   5.932 -0.6210  0.0127  0.1731
  540MOL0     H72890   1.811   4.363   5.919  1.3576 -2.0924 -1.5370
  540MOL0     H72891   1.743   4.282   6.066 -2.6588 -0.8170 -0.3458
  540MOL0     H72892   1.951   4.185   6.001  0.8691 -4.7178  0.9896
  540MOL0     H72893   1.875   4.148   5.846 -0.7451 -1.9405  0.9074
  540MOL0     H72894   1.709   4.000   5.955 -0.2040 -2.1818 -0.0260
  540MOL0     H72895   1.778   4.042   6.116  1.8994  0.3612  0.4354
  540MOL0     H72896   2.001   3.964   5.948 -1.2674  0.1368 -1.5905
  540MOL0     H72897   1.874   3.840   5.946 -3.3612 -0.3690  0.1460
  540MOL0     H72898   2.038   3.835   6.341  1.9806 -0.4208 -1.3734
  540MOL0     H72899   1.413   4.187   5.824  2.1030  0.5357 -0.7491
  540MOL0     H72900   1.209   4.311   5.841  0.6587 -0.9392  0.9203
  541MOL0     O72901   7.090   4.883   9.420  0.1726 -0.5205  0.3578
  541MOL0     C72902   7.131   4.844   9.528 -0.1377 -0.1575  0.2747
  541MOL0     O72903   7.065   4.756   9.609 -0.7120 -0.2448  0.2409
  541MOL0     C72904   6.950   4.699   9.556  1.2991 -0.4419 -0.0704
  541MOL0     C72905   6.957   4.574   9.492  0.1296 -0.1806  0.4324
  541MOL0     C72906   6.841   4.514   9.424 -0.9067 -0.8159  0.1063
  541MOL0     C72907   6.719   4.583   9.415 -0.6938 -0.7392 -0.5942
  541MOL0     O72908   6.614   4.533   9.340  0.5512  0.3122  0.1136
  541MOL0     C72909   6.490   4.598   9.360 -0.0208 -0.9202 -0.3877
  541MOL0     C72910   6.397   4.503   9.279 -0.3557 -0.2502  0.3760
  541MOL0     C72911   6.247   4.531   9.291 -0.1405  1.1348 -0.2613
  541MOL0     C72912   6.224   4.657   9.209 -0.2891 -0.1100  0.2034
  541MOL0     C72913   6.071   4.667   9.189  0.5157 -0.7121  0.4615
  541MOL0     C72914   6.039   4.798   9.113 -0.6358 -0.0162  0.3649
  541MOL0     C72915   5.894   4.814   9.098  0.0843  0.0646  0.4021
  541MOL0     C72916   5.832   4.733   8.977  0.4987  0.4530 -0.8806
  541MOL0     N72917   5.678   4.727   8.983 -0.4864 -0.4731  0.6503
  541MOL0     C72918   5.595   4.827   9.026  0.1280  0.3143 -0.9416
  541MOL0     C72919   5.468   4.780   8.982 -0.3941 -0.8775 -0.8850
  541MOL0     C72920   5.343   4.851   9.011 -0.1409 -0.2622 -0.1371
  541MOL0     C72921   5.303   4.945   8.900 -0.1708  0.4525  0.2410
  541MOL0     C72922   5.190   5.040   8.932 -0.8451  0.8858  0.4110
  541MOL0     C72923   5.050   4.990   8.922 -0.0606 -0.3639 -1.1222
  541MOL0     O72924   4.966   5.106   8.907  0.8946  0.3191 -0.1506
  541MOL0     C72925   4.827   5.080   8.914 -0.2874 -0.3760 -0.9217
  541MOL0     C72926   4.766   4.956   8.915 -0.2206  0.8000 -1.1284
  541MOL0     C72927   4.626   4.943   8.942  0.6157  0.0471  0.3403
  541MOL0     C72928   4.564   4.807   8.953  0.0158 -0.4346  0.7657
  541MOL0     C72929   4.555   5.064   8.968 -0.8252  0.4158  0.3819
  541MOL0     C72930   4.402   5.068   8.989 -0.0391 -0.6611  0.0062
  541MOL0     O72931   4.352   5.189   9.042 -0.1986  0.3280  0.0731
  541MOL0     C72932   4.222   5.218   9.020 -0.2200  0.7224 -0.8098
  541MOL0     C72933   4.168   5.280   8.910  0.6237  0.7153 -0.6866
  541MOL0     C72934   4.029   5.300   8.915  0.3207  0.0721 -0.0328
  541MOL0     C72935   3.948   5.255   9.024 -0.2181 -0.0063 -0.6535
  541MOL0     O72936   3.811   5.263   9.029 -0.2602 -1.1515  0.5129
  541MOL0     C72937   3.753   5.217   8.904 -0.2785  0.1607 -0.1322
  541MOL0     C72938   3.619   5.160   8.955 -0.4411  0.1710  0.2642
  541MOL0     C72939   3.525   5.267   9.001  0.1465  0.1713  0.2413
  541MOL0     C72940   3.376   5.232   8.992  0.5012 -0.3919 -0.0170
  541MOL0     C72941   3.295   5.294   9.102 -0.9798  0.2573 -0.3556
  541MOL0     C72942   3.146   5.256   9.119 -0.4480  0.3833 -0.5472
  541MOL0     C72943   3.074   5.347   9.207  0.9142  0.4484 -0.2719
  541MOL0     C72944   2.918   5.301   9.206  1.1886 -0.1847 -0.3454
  541MOL0    Cl72945   2.801   5.424   9.264 -0.0855  0.3818  0.0420
  541MOL0     C72946   4.009   5.176   9.126 -0.3243 -0.4155 -0.3069
  541MOL0     C72947   4.145   5.167   9.129 -0.5679 -0.7614  0.3140
  541MOL0     O72948   4.339   4.977   8.949  0.3030  0.1774 -0.0105
  541MOL0     C72949   4.621   5.185   8.961  0.3126  0.2885 -0.5826
  541MOL0     C72950   4.760   5.197   8.934 -0.1167 -0.0722  0.1485
  541MOL0     N72951   5.483   4.660   8.919  0.4459 -0.2448 -0.2292
  541MOL0     N72952   5.606   4.640   8.915 -0.6454  0.1545 -0.3105
  541MOL0     C72953   6.708   4.707   9.482 -0.1502  0.3025 -0.4828
  541MOL0     C72954   6.827   4.768   9.548 -0.0458  1.3103 -0.6250
  541MOL0     C72955   7.246   4.910   9.577 -0.3906 -0.9719  0.6181
  541MOL0     C72956   7.304   5.011   9.504  0.1867  0.4511 -0.4225
  541MOL0     C72957   7.435   5.070   9.540 -0.0339 -0.5012  0.0161
  541MOL0     C72958   7.504   5.018   9.648 -0.4290  0.8034  0.6796
  541MOL0     O72959   7.631   5.031   9.684  0.3942 -0.2129 -0.4682
  541MOL0     C72960   7.720   5.130   9.639  0.0589  0.2145 -0.2823
  541MOL0     C72961   7.863   5.082   9.667  0.3503  0.8364 -0.4036
  541MOL0     C72962   7.903   4.951   9.594  0.2877  0.1734 -0.1703
  541MOL0     C72963   8.055   4.924   9.625 -1.0846 -0.4783  0.2671
  541MOL0     C72964   8.145   5.021   9.542  0.1109  0.7231 -0.2741
  541MOL0     C72965   8.212   5.110   9.486 -0.5700  0.3650 -1.0670
  541MOL0     C72966   7.436   4.917   9.725  0.4474  0.4232 -0.1746
  541MOL0     C72967   7.309   4.864   9.692 -0.0922  0.1762 -0.5047
  541MOL0     H72968   7.056   4.530   9.483  0.1476  0.2054 -1.9501
  541MOL0     H72969   6.841   4.413   9.386 -2.7472 -1.0457  0.5820
  541MOL0     H72970   6.461   4.599   9.466 -1.4237  0.2091 -0.7487
  541MOL0     H72971   6.497   4.696   9.313 -1.0033 -0.3108  0.6919
  541MOL0     H72972   6.424   4.513   9.173 -1.0815 -0.6264  0.1514
  541MOL0     H72973   6.418   4.400   9.310  2.5981  0.6821  1.9881
  541MOL0     H72974   6.195   4.445   9.247 -0.3306 -0.7251  3.2403
  541MOL0     H72975   6.216   4.541   9.395  0.5992  1.5293 -0.0727
  541MOL0     H72976   6.269   4.749   9.248  0.3693 -0.2628 -0.1634
  541MOL0     H72977   6.259   4.645   9.106  0.4732  3.1194 -0.0073
  541MOL0     H72978   6.042   4.579   9.130 -0.1373 -0.7262  0.8018
  541MOL0     H72979   6.024   4.678   9.287  1.7088  0.8921  0.8851
  541MOL0     H72980   6.082   4.884   9.167 -0.2925 -1.1521  1.9591
  541MOL0     H72981   6.088   4.788   9.016  1.2498  0.6600  1.1855
  541MOL0     H72982   5.829   4.787   9.182 -2.3838  0.2137 -1.3381
  541MOL0     H72983   5.880   4.920   9.073  0.3590 -0.9072 -5.1684
  541MOL0     H72984   5.863   4.628   8.983 -0.7333  0.0605  5.3878
  541MOL0     H72985   5.864   4.778   8.883 -1.0948 -1.8676 -2.6425
  541MOL0     H72986   5.604   4.925   9.073 -1.5958  0.5585 -1.0689
  541MOL0     H72987   5.274   4.770   9.031  1.0041 -1.8429 -2.2511
  541MOL0     H72988   5.350   4.908   9.105 -0.9878 -1.2992  0.5746
  541MOL0     H72989   5.272   4.881   8.817 -2.1217  0.8801  0.5870
  541MOL0     H72990   5.388   5.013   8.885 -1.3749  1.6940 -1.4053
  541MOL0     H72991   5.202   5.124   8.863  1.0972  2.2690  2.2927
  541MOL0     H72992   5.201   5.081   9.033 -1.1600 -0.9183  1.2263
  541MOL0     H72993   5.033   4.937   9.016 -1.7349 -0.5519 -1.4871
  541MOL0     H72994   5.029   4.914   8.846 -4.0295 -3.3171  2.4301
  541MOL0     H72995   4.826   4.867   8.901 -0.9578 -0.3318  2.0582
  541MOL0     H72996   4.506   4.791   9.045  0.3906 -2.0065  0.7599
  541MOL0     H72997   4.489   4.783   8.877  1.3396  1.2496 -1.1797
  541MOL0     H72998   4.643   4.732   8.955  1.7488  1.1059 -2.4066
  541MOL0     H72999   4.240   5.307   8.833  0.3437 -0.4812 -1.3864
  541MOL0     H73000   3.989   5.358   8.832  0.1340  2.1408  1.4301
  541MOL0     H73001   3.737   5.304   8.839  2.3073  1.1261  0.3665
  541MOL0     H73002   3.812   5.143   8.849 -0.5670 -1.3915  1.5877
  541MOL0     H73003   3.568   5.107   8.874 -1.1889 -1.6107  1.8362
  541MOL0     H73004   3.629   5.091   9.039 -3.2782  1.9087  2.2283
  541MOL0     H73005   3.539   5.348   8.930  0.0636 -0.0057  0.0239
  541MOL0     H73006   3.532   5.296   9.106 -3.4208 -1.1232  0.9735
  541MOL0     H73007   3.337   5.277   8.900  0.7620  1.1106  0.5684
  541MOL0     H73008   3.362   5.124   8.998 -0.2164 -0.2609  1.1943
  541MOL0     H73009   3.300   5.403   9.100 -0.7073  0.2909  0.9134
  541MOL0     H73010   3.338   5.262   9.198 -2.2281  0.8252  0.4267
  541MOL0     H73011   3.098   5.253   9.021 -0.4713  1.8003 -0.5949
  541MOL0     H73012   3.151   5.158   9.167 -0.4948  0.1871 -0.9361
  541MOL0     H73013   3.082   5.449   9.168 -1.9231  1.8946  2.4826
  541MOL0     H73014   3.114   5.343   9.308  0.9653 -1.0897 -0.3324
  541MOL0     H73015   2.904   5.212   9.268 -4.6113  2.4485  2.8677
  541MOL0     H73016   2.893   5.287   9.100 -1.5356  0.1814  0.1881
  541MOL0     H73017   3.948   5.134   9.205 -1.6368 -2.0403 -2.0646
  541MOL0     H73018   4.204   5.118   9.205 -1.8995 -2.6155  0.2287
  541MOL0     H73019   4.567   5.279   8.970 -0.9160 -0.4038 -0.5262
  541MOL0     H73020   4.806   5.294   8.923 -2.5954  1.0088 -1.5403
  541MOL0     H73021   6.621   4.771   9.478 -1.9418 -1.9460  0.3802
  541MOL0     H73022   6.816   4.865   9.595 -1.7119  0.7243  0.2990
  541MOL0     H73023   7.249   5.058   9.423 -2.6873 -2.2390 -0.2293
  541MOL0     H73024   7.483   5.150   9.484  0.9717 -0.0529  1.4715
  541MOL0     H73025   7.713   5.163   9.535 -2.0282  0.3933 -0.1209
  541MOL0     H73026   7.695   5.220   9.697 -1.2141 -0.1967 -0.1647
  541MOL0     H73027   7.874   5.060   9.774  0.6795 -2.4842 -0.9996
  541MOL0     H73028   7.941   5.153   9.639  2.3549 -1.1136 -0.0285
  541MOL0     H73029   7.896   4.968   9.486 -1.2533 -2.1402 -0.5170
  541MOL0     H73030   7.844   4.861   9.617  0.2794  0.8886  3.0154
  541MOL0     H73031   8.083   4.822   9.597  1.2847  1.0285 -3.7639
  541MOL0     H73032   8.082   4.940   9.730  1.9246  0.1778 -0.4940
  541MOL0     H73033   8.273   5.192   9.452  1.0550 -0.1880  0.3396
  541MOL0     H73034   7.495   4.885   9.811  0.5493  0.4850 -0.2214
  541MOL0     H73035   7.262   4.786   9.751  1.9305 -0.3865  0.4108
  542MOL0     O73036   6.822   9.565   3.823 -0.3597 -0.3339 -0.0452
  542MOL0     C73037   6.901   9.538   3.915 -0.8316 -0.4171 -0.5241
  542MOL0     O73038   6.916   9.603   4.034  0.2216 -0.2899  0.3623
  542MOL0     C73039   6.828   9.715   4.049  0.1847 -0.5663 -0.9716
  542MOL0     C73040   6.876   9.847   4.012  0.2471  0.1438 -0.5357
  542MOL0     C73041   6.798   9.957   4.033  0.9671 -0.6608 -0.6753
  542MOL0     C73042   6.665   9.939   4.086  0.1683  0.4952  0.4729
  542MOL0     O73043   6.576  10.045   4.098  0.2405  0.1337  0.4005
  542MOL0     C73044   6.477  10.061   3.992 -0.0227 -0.5864  0.3897
  542MOL0     C73045   6.370  10.131   4.059  0.7306 -0.4081 -0.1705
  542MOL0     C73046   6.277  10.214   3.964 -0.9239 -0.8012  0.2125
  542MOL0     C73047   6.144  10.235   4.038  0.2686  0.1541 -1.0203
  542MOL0     C73048   6.078  10.364   3.989 -0.9621  0.0287 -1.0400
  542MOL0     C73049   6.019  10.354   3.854 -0.9042 -0.7123 -0.2506
  542MOL0     C73050   5.966  10.489   3.814  0.2369  0.1479  0.2987
  542MOL0     C73051   5.923  10.496   3.669  0.0906  0.2785  0.4468
  542MOL0     N73052   5.859  10.624   3.645 -0.0479 -0.1156  0.6901
  542MOL0     C73053   5.727  10.654   3.656  0.2333  0.1663  0.6993
  542MOL0     C73054   5.716  10.788   3.630 -0.5347 -0.1136  0.1607
  542MOL0     C73055   5.594  10.869   3.625  0.0080  0.1692 -0.9450
  542MOL0     C73056   5.544  10.873   3.772  0.5181 -0.2751 -0.4676
  542MOL0     C73057   5.397  10.905   3.786 -0.1063  0.3661 -0.4798
  542MOL0     C73058   5.347  10.935   3.933  0.6758 -0.0962  0.7360
  542MOL0     O73059   5.206  10.910   3.957  0.2799 -0.0929  0.4373
  542MOL0     C73060   5.112  10.990   3.897  0.4398  0.1973  0.6292
  542MOL0     C73061   4.978  10.948   3.906  0.3804 -0.1370  0.4097
  542MOL0     C73062   4.865  11.023   3.865  0.3320 -0.1090 -0.4276
  542MOL0     C73063   4.731  10.965   3.861  0.3242 -0.6089  0.2156
  542MOL0     C73064   4.890  11.157   3.816 -0.2059  0.1755  0.1152
  542MOL0     C73065   4.783  11.255   3.790 -0.3546 -1.6041  0.6367
  542MOL0     O73066   4.785  11.322   3.677 -0.6445  0.0606  0.6403
  542MOL0     C73067   4.679  11.398   3.640  0.2661 -0.2048 -0.0108
  542MOL0     C73068   4.571  11.366   3.559  0.0436  0.0129 -0.1376
  542MOL0     C73069   4.472  11.459   3.521 -0.6802  0.1475 -0.4891
  542MOL0     C73070   4.479  11.588   3.573  0.3610  0.4816 -0.4347
  542MOL0     O73071   4.401  11.696   3.540  0.6051 -0.3837 -0.0224
  542MOL0     C73072   4.272  11.671   3.482  0.4417 -0.0641 -1.4390
  542MOL0     C73073   4.203  11.802   3.445  0.5309  0.3968 -0.7872
  542MOL0     C73074   4.054  11.785   3.428 -0.3131 -0.3678 -0.2565
  542MOL0     C73075   3.986  11.908   3.373 -0.0339 -0.0397 -0.3775
  542MOL0     C73076   3.858  11.925   3.456  0.8381 -0.7467  0.2688
  542MOL0     C73077   3.748  12.017   3.381  1.1464  0.3002 -0.3936
  542MOL0     C73078   3.787  12.155   3.345  0.2016  0.0435  0.2313
  542MOL0     C73079   3.693  12.258   3.415  0.6717  0.0583  0.5381
  542MOL0    Cl73080   3.745  12.268   3.581 -0.2025  0.0674  0.4043
  542MOL0     C73081   4.589  11.620   3.650 -0.1759 -0.1883  0.6926
  542MOL0     C73082   4.686  11.524   3.691  0.1634 -0.0135 -0.2904
  542MOL0     O73083   4.700  11.279   3.877  0.1150  0.4704 -0.2867
  542MOL0     C73084   5.024  11.196   3.806 -0.1330  0.1470  0.1241
  542MOL0     C73085   5.133  11.115   3.838 -0.2954  0.2296  0.4895
  542MOL0     N73086   5.846  10.835   3.605  1.0981 -1.2789 -0.4705
  542MOL0     N73087   5.929  10.736   3.609  0.4691  0.1916  0.0670
  542MOL0     C73088   6.623   9.811   4.130  0.2549  0.2654  0.0359
  542MOL0     C73089   6.706   9.703   4.103  0.0573 -0.0844 -0.0288
  542MOL0     C73090   7.000   9.432   3.885 -0.6469 -0.9029 -0.5988
  542MOL0     C73091   7.128   9.455   3.928  0.0056  0.1382  0.0295
  542MOL0     C73092   7.219   9.357   3.915 -0.7767  1.0549  0.6384
  542MOL0     C73093   7.202   9.245   3.838  0.5964  0.0476  0.0344
  542MOL0     O73094   7.311   9.163   3.834 -0.8435 -0.1763  0.8182
  542MOL0     C73095   7.296   9.040   3.761 -0.2237 -0.0851 -0.5977
  542MOL0     C73096   7.427   8.969   3.730 -0.3801  0.1940 -0.1181
  542MOL0     C73097   7.537   9.061   3.678 -0.0341 -0.0950 -0.7333
  542MOL0     C73098   7.673   8.997   3.670 -0.1800  0.5468  0.0670
  542MOL0     C73099   7.669   8.851   3.633 -0.0563  0.2927  0.8589
  542MOL0     C73100   7.657   8.734   3.616  0.1858  0.3565  1.2079
  542MOL0     C73101   7.075   9.231   3.783  0.9650 -0.5829 -0.2142
  542MOL0     C73102   6.974   9.331   3.800 -1.2340  0.6292  0.9950
  542MOL0     H73103   6.980   9.856   3.981  0.2999 -0.5913 -0.5806
  542MOL0     H73104   6.842  10.055   4.015  0.1878 -0.5991 -2.4840
  542MOL0     H73105   6.524  10.126   3.918  0.7380 -0.3639  1.0501
  542MOL0     H73106   6.455   9.958   3.961  2.0813 -1.5422  1.7857
  542MOL0     H73107   6.299  10.063   4.106 -2.6716  3.1959  0.4333
  542MOL0     H73108   6.409  10.206   4.128  2.2236  0.2829 -1.6838
  542MOL0     H73109   6.318  10.313   3.945 -2.8264 -0.4394 -2.5441
  542MOL0     H73110   6.256  10.166   3.868  0.6217 -0.3452 -0.3726
  542MOL0     H73111   6.072  10.154   4.022  1.1419 -0.6244 -1.0726
  542MOL0     H73112   6.176  10.242   4.142  1.3946  1.3474 -1.4120
  542MOL0     H73113   6.013  10.399   4.070 -0.4996 -0.1561 -0.5847
  542MOL0     H73114   6.155  10.442   3.982  0.3598 -0.7550  2.5594
  542MOL0     H73115   6.101  10.342   3.782 -1.8622  1.5937 -1.8419
  542MOL0     H73116   5.949  10.271   3.839  0.3378 -2.4667  2.8390
  542MOL0     H73117   5.879  10.514   3.876  0.4729  0.7737  0.3906
  542MOL0     H73118   6.047  10.560   3.835  1.2235 -1.0997  0.9032
  542MOL0     H73119   5.845  10.422   3.648  0.7972 -0.3310 -0.0853
  542MOL0     H73120   6.002  10.458   3.603 -0.7765 -1.8633  0.5460
  542MOL0     H73121   5.665  10.568   3.679  0.0577 -0.5901 -2.1948
  542MOL0     H73122   5.629  10.971   3.607 -0.6038  0.9979  1.9807
  542MOL0     H73123   5.521  10.824   3.558  0.3254  0.2620 -1.3522
  542MOL0     H73124   5.615  10.935   3.829  1.5629 -2.1234  0.3136
  542MOL0     H73125   5.552  10.773   3.815 -1.5932 -0.5070 -0.5085
  542MOL0     H73126   5.335  10.822   3.752  3.1877 -2.1113 -0.9599
  542MOL0     H73127   5.373  10.990   3.721  3.5801 -1.6989 -5.1494
  542MOL0     H73128   5.370  11.037   3.965 -1.6397  0.3383  1.2009
  542MOL0     H73129   5.395  10.868   4.005 -2.0428 -2.2643  0.7388
  542MOL0     H73130   4.956  10.850   3.947  0.3099 -1.5939 -2.7994
  542MOL0     H73131   4.663  11.000   3.939  0.0521 -0.4573 -0.0835
  542MOL0     H73132   4.684  10.990   3.765  2.3955 -0.8171 -0.9097
  542MOL0     H73133   4.733  10.856   3.865 -1.4524 -0.6941 -0.4133
  542MOL0     H73134   4.570  11.261   3.533  1.6631  0.0985 -0.6584
  542MOL0     H73135   4.394  11.420   3.457  1.1887 -0.3232 -2.5994
  542MOL0     H73136   4.275  11.588   3.411  3.6905 -0.5207 -0.9171
  542MOL0     H73137   4.226  11.623   3.568  1.3438 -0.8315 -1.3718
  542MOL0     H73138   4.223  11.870   3.528  1.4155 -1.0730  0.2370
  542MOL0     H73139   4.262  11.834   3.358  1.6623 -1.1575 -0.6368
  542MOL0     H73140   4.011  11.757   3.524  1.0471 -0.6347  0.2963
  542MOL0     H73141   4.035  11.705   3.355  1.2569  0.0140 -1.1218
  542MOL0     H73142   4.040  12.003   3.380 -1.5247  0.7079  3.2200
  542MOL0     H73143   3.974  11.891   3.266 -0.2435  2.4208 -0.8067
  542MOL0     H73144   3.871  11.980   3.550  0.9236  1.8266 -1.1292
  542MOL0     H73145   3.812  11.827   3.468 -2.6819  0.8768  1.4667
  542MOL0     H73146   3.709  11.963   3.294  0.9843 -0.5189  0.1676
  542MOL0     H73147   3.658  12.020   3.443 -0.8149 -1.1579 -2.9757
  542MOL0     H73148   3.778  12.165   3.236  0.2634 -2.7816 -0.0897
  542MOL0     H73149   3.890  12.183   3.370  0.8733 -2.5898  0.7113
  542MOL0     H73150   3.590  12.222   3.409  0.6809  0.1009  0.0130
  542MOL0     H73151   3.703  12.354   3.363  0.4803 -0.2042  0.0012
  542MOL0     H73152   4.607  11.724   3.675  1.9479 -0.7131  1.6206
  542MOL0     H73153   4.768  11.552   3.757 -1.0781 -0.7649  1.6582
  542MOL0     H73154   5.062  11.296   3.787  0.4490 -0.2936 -1.1358
  542MOL0     H73155   5.233  11.155   3.820  0.1191 -1.1196 -0.3640
  542MOL0     H73156   6.531   9.796   4.185  1.5224 -0.8509  1.9412
  542MOL0     H73157   6.672   9.605   4.133 -1.7884 -0.1558 -2.1471
  542MOL0     H73158   7.147   9.551   3.976 -0.3452 -0.1463  0.7540
  542MOL0     H73159   7.312   9.383   3.965 -0.2536  0.8405 -0.2133
  542MOL0     H73160   7.231   8.975   3.821 -2.2234  0.8313 -1.6550
  542MOL0     H73161   7.244   9.057   3.666 -2.9358  1.1282  0.9810
  542MOL0     H73162   7.404   8.887   3.661  1.1632 -0.4217  0.0681
  542MOL0     H73163   7.454   8.909   3.817 -1.7767 -0.7809 -0.3152
  542MOL0     H73164   7.550   9.139   3.753  1.3122 -2.7604  2.0715
  542MOL0     H73165   7.516   9.096   3.577  0.8224  1.3542 -0.4367
  542MOL0     H73166   7.720   9.014   3.767 -1.6714 -0.9377  1.1091
  542MOL0     H73167   7.730   9.047   3.590 -1.2307  0.8369 -0.5209
  542MOL0     H73168   7.667   8.638   3.569  1.7982  1.2579 -0.4119
  542MOL0     H73169   7.042   9.150   3.718  0.2407 -0.4801  0.0211
  542MOL0     H73170   6.875   9.325   3.755 -0.8828 -3.7407  0.3211
  543MOL0     O73171  10.450   6.380   8.903  0.5059 -0.1918  0.4795
  543MOL0     C73172  10.554   6.440   8.879 -0.4322 -0.0353  0.2030
  543MOL0     O73173  10.567   6.568   8.847 -0.2704 -0.8870 -0.0387
  543MOL0     C73174  10.455   6.642   8.832  0.3653 -0.1764  0.1052
  543MOL0     C73175  10.346   6.654   8.923 -1.1198  0.3958 -0.2782
  543MOL0     C73176  10.234   6.731   8.890  0.0379 -0.5141  0.1451
  543MOL0     C73177  10.213   6.789   8.762 -0.9854 -0.0542  0.1300
  543MOL0     O73178  10.118   6.866   8.719 -0.2688  0.2635 -0.0444
  543MOL0     C73179  10.014   6.905   8.801 -0.3187 -0.4415  0.0317
  543MOL0     C73180   9.906   6.798   8.813  0.3057  0.2464  0.2544
  543MOL0     C73181   9.766   6.852   8.847  0.0041 -0.0346  0.3229
  543MOL0     C73182   9.677   6.862   8.718  0.0855  0.0139 -0.6453
  543MOL0     C73183   9.534   6.905   8.750 -0.7428 -0.1734  0.1270
  543MOL0     C73184   9.466   6.953   8.627  0.1440 -0.2329  0.1456
  543MOL0     C73185   9.318   6.973   8.666  0.0305 -0.3759 -0.5322
  543MOL0     C73186   9.247   7.078   8.576 -0.2273  0.7240 -0.5220
  543MOL0     N73187   9.210   7.017   8.451  0.1630 -0.1820 -0.1417
  543MOL0     C73188   9.291   6.996   8.336  0.4930  0.2329 -0.4696
  543MOL0     C73189   9.208   6.944   8.250  0.3351 -0.1941  0.4991
  543MOL0     C73190   9.254   6.930   8.105  0.8027  0.4739  0.4791
  543MOL0     C73191   9.157   6.852   8.017 -0.5983 -0.5665  0.0628
  543MOL0     C73192   9.136   6.714   8.071  0.9028 -0.6220 -0.1188
  543MOL0     C73193   9.027   6.647   7.993  0.3438 -0.6982 -0.0309
  543MOL0     O73194   8.992   6.521   8.042  0.2410  0.0730 -0.1308
  543MOL0     C73195   8.905   6.437   7.982 -0.2264 -0.5923 -0.2199
  543MOL0     C73196   8.874   6.314   8.043 -0.4807 -0.8406  0.1600
  543MOL0     C73197   8.777   6.221   7.998 -0.2417 -0.5745  0.3005
  543MOL0     C73198   8.751   6.109   8.098  0.6518  0.5379 -0.3314
  543MOL0     C73199   8.706   6.255   7.878  0.3189  0.5371  0.5068
  543MOL0     C73200   8.603   6.175   7.815  0.0017  0.2557  0.5151
  543MOL0     O73201   8.574   6.211   7.683 -0.0552 -0.1124 -0.4892
  543MOL0     C73202   8.475   6.156   7.605  0.6933 -0.5586 -1.0325
  543MOL0     C73203   8.497   6.141   7.471  0.4140 -0.0665 -0.2038
  543MOL0     C73204   8.391   6.130   7.378 -1.3768 -0.2313  0.2727
  543MOL0     C73205   8.259   6.131   7.423  0.4982  0.6451  0.0726
  543MOL0     O73206   8.150   6.099   7.340 -0.3084 -0.7128  0.7813
  543MOL0     C73207   8.175   6.072   7.196 -0.0170 -0.5346  0.4135
  543MOL0     C73208   8.043   6.031   7.137  0.4123 -0.0883  0.4549
  543MOL0     C73209   7.979   5.904   7.201 -0.4120  0.0533 -0.0862
  543MOL0     C73210   7.826   5.881   7.185 -0.6416 -0.3735 -0.2921
  543MOL0     C73211   7.784   5.740   7.255 -0.2574  0.5715  0.8666
  543MOL0     C73212   7.635   5.710   7.244 -0.7505 -0.1302 -0.5835
  543MOL0     C73213   7.608   5.559   7.248 -0.1268 -0.2630  0.0311
  543MOL0     C73214   7.461   5.527   7.251 -0.5404 -0.5381 -0.4115
  543MOL0    Cl73215   7.392   5.594   7.090 -0.4730  0.0255 -0.5069
  543MOL0     C73216   8.232   6.148   7.564 -0.7075 -0.3721  0.9030
  543MOL0     C73217   8.341   6.161   7.653  0.4325 -0.0588 -0.2987
  543MOL0     O73218   8.533   6.106   7.882 -0.3607  0.0564  0.1971
  543MOL0     C73219   8.749   6.376   7.809  0.0300  0.2936  1.1613
  543MOL0     C73220   8.842   6.462   7.863  0.0832  0.0605  0.3773
  543MOL0     N73221   9.078   6.935   8.297 -0.0387  0.3260  0.1352
  543MOL0     N73222   9.081   6.975   8.421  0.4503 -0.2307  0.2645
  543MOL0     C73223  10.318   6.780   8.682  0.4192 -0.5933  0.1833
  543MOL0     C73224  10.432   6.713   8.714 -0.0677  0.5630 -0.2073
  543MOL0     C73225  10.673   6.367   8.910 -0.2051  0.1587 -0.1423
  543MOL0     C73226  10.801   6.409   8.869  0.2121 -0.3802 -0.2648
  543MOL0     C73227  10.914   6.335   8.893  0.3485 -0.5353 -0.7855
  543MOL0     C73228  10.898   6.208   8.956 -0.4592  0.3676  0.5336
  543MOL0     O73229  11.014   6.137   8.964 -0.0087  0.5541  0.0542
  543MOL0     C73230  11.053   6.096   9.094 -0.4740  0.0032  0.2646
  543MOL0     C73231  11.200   6.148   9.126  0.0933  0.0168  0.2381
  543MOL0     C73232  11.217   6.306   9.150 -0.1000 -0.0390 -0.2018
  543MOL0     C73233  11.099   6.374   9.232 -0.7748  0.2952  0.0115
  543MOL0     C73234  11.071   6.290   9.353 -0.2982  0.7577 -0.0960
  543MOL0     C73235  11.038   6.214   9.449  0.9496 -0.7158 -0.1864
  543MOL0     C73236  10.773   6.160   8.993  1.1155  0.0334  0.7862
  543MOL0     C73237  10.660   6.236   8.964 -0.5629 -0.0917 -0.5640
  543MOL0     H73238  10.358   6.597   9.015  3.5237  0.4365 -0.6412
  543MOL0     H73239  10.150   6.720   8.957 -0.4496 -0.1529 -0.4025
  543MOL0     H73240  10.057   6.936   8.897  1.1091 -1.1055 -0.3561
  543MOL0     H73241   9.971   6.991   8.749 -0.2611 -0.4381 -0.0105
  543MOL0     H73242   9.902   6.731   8.727 -3.8652  0.0622  0.3871
  543MOL0     H73243   9.935   6.730   8.894 -2.3354 -1.6480 -0.2681
  543MOL0     H73244   9.721   6.793   8.928  1.5502  0.3024  1.4944
  543MOL0     H73245   9.778   6.956   8.879  1.5993  0.3264 -1.3086
  543MOL0     H73246   9.721   6.940   8.655  2.0209  2.7176  3.5624
  543MOL0     H73247   9.673   6.764   8.670 -2.5142  1.1463 -2.9857
  543MOL0     H73248   9.476   6.826   8.799  0.2748 -1.3673 -0.5376
  543MOL0     H73249   9.542   6.984   8.825  2.9053  2.0326 -2.2609
  543MOL0     H73250   9.516   7.049   8.607  2.3828 -0.7388  2.6623
  543MOL0     H73251   9.465   6.892   8.537  1.4014 -0.7708  0.4841
  543MOL0     H73252   9.267   6.876   8.659 -0.1061 -0.2569 -1.2509
  543MOL0     H73253   9.334   7.012   8.766  5.4870 -2.1796 -0.3898
  543MOL0     H73254   9.310   7.166   8.562  0.5237  0.4640  0.9907
  543MOL0     H73255   9.156   7.113   8.625  0.3244  1.8513 -0.2637
  543MOL0     H73256   9.393   7.026   8.312 -0.1651  2.3593 -0.8823
  543MOL0     H73257   9.247   7.033   8.069  2.7173  1.4224  2.5909
  543MOL0     H73258   9.356   6.891   8.096  1.0505  0.9174  1.3139
  543MOL0     H73259   9.202   6.850   7.917  0.0714 -2.3956  0.3573
  543MOL0     H73260   9.063   6.907   8.017  0.4155  1.3542 -2.1994
  543MOL0     H73261   9.108   6.710   8.177  0.0773  2.0449 -0.1677
  543MOL0     H73262   9.229   6.657   8.065  0.6273 -1.1573  0.4908
  543MOL0     H73263   9.061   6.627   7.891  1.9995 -1.3825  0.6120
  543MOL0     H73264   8.940   6.713   7.999  1.2214  0.5020 -0.1547
  543MOL0     H73265   8.933   6.289   8.131  0.1672  0.6903  0.1892
  543MOL0     H73266   8.836   6.087   8.163 -1.2699 -0.6854  1.9082
  543MOL0     H73267   8.667   6.144   8.158  0.2676 -0.7526 -0.0999
  543MOL0     H73268   8.705   6.022   8.050  0.3831  0.3756  0.2152
  543MOL0     H73269   8.595   6.153   7.427  0.3291 -2.2260 -1.0953
  543MOL0     H73270   8.406   6.124   7.271 -2.5595 -0.7423  0.1193
  543MOL0     H73271   8.207   6.165   7.148 -0.0322 -1.3719 -1.2723
  543MOL0     H73272   8.243   5.987   7.188  2.7952  1.7073 -1.6082
  543MOL0     H73273   7.971   6.112   7.152  1.9105  0.8379  3.3121
  543MOL0     H73274   8.057   6.016   7.029  2.6444 -2.3011  0.9580
  543MOL0     H73275   7.991   5.909   7.309  0.3669  1.3774 -0.2227
  543MOL0     H73276   8.029   5.816   7.159  1.0482 -1.0159  3.5783
  543MOL0     H73277   7.773   5.968   7.223  0.4075  0.0002  0.3468
  543MOL0     H73278   7.810   5.875   7.077 -1.9246 -2.1377 -0.0453
  543MOL0     H73279   7.811   5.739   7.361  2.3114 -1.1832  0.3037
  543MOL0     H73280   7.839   5.659   7.207  0.8726  0.1897  2.6962
  543MOL0     H73281   7.577   5.769   7.316  0.3322  0.9750 -0.5814
  543MOL0     H73282   7.609   5.745   7.144 -1.9741  0.5504 -0.0516
  543MOL0     H73283   7.650   5.523   7.343 -0.2067  2.2574  1.1118
  543MOL0     H73284   7.654   5.511   7.161  3.7832  1.4833  0.9213
  543MOL0     H73285   7.420   5.567   7.344 -2.3438 -2.2381 -0.4074
  543MOL0     H73286   7.457   5.418   7.247  3.6611 -0.9132  0.7675
  543MOL0     H73287   8.129   6.154   7.597 -0.2941  1.3911  2.0533
  543MOL0     H73288   8.320   6.198   7.753  3.1589 -1.4100  0.8820
  543MOL0     H73289   8.709   6.412   7.715 -1.2161  0.6674  1.7974
  543MOL0     H73290   8.864   6.557   7.814 -0.9665  1.2975  2.2195
  543MOL0     H73291  10.328   6.820   8.581  1.1965  1.3072  0.9649
  543MOL0     H73292  10.506   6.704   8.635  0.5498  1.3672  0.2641
  543MOL0     H73293  10.813   6.505   8.821 -1.9394  0.5569  0.9300
  543MOL0     H73294  11.011   6.373   8.863 -1.0058  1.9451 -2.3225
  543MOL0     H73295  10.975   6.132   9.161 -1.4556  2.1669 -1.9122
  543MOL0     H73296  11.054   5.987   9.087  0.5162  0.0054  0.2457
  543MOL0     H73297  11.267   6.120   9.044 -2.7796 -2.0538 -1.6100
  543MOL0     H73298  11.220   6.099   9.221 -0.8729 -0.0489  0.4185
  543MOL0     H73299  11.219   6.365   9.058  2.6405 -0.3278 -0.4093
  543MOL0     H73300  11.318   6.321   9.190  1.0447  2.3505 -3.5315
  543MOL0     H73301  11.012   6.395   9.168  0.3272  1.6702 -1.1108
  543MOL0     H73302  11.131   6.476   9.257  0.9833  0.2539 -1.7841
  543MOL0     H73303  11.001   6.153   9.529  1.5664 -0.0747  0.6168
  543MOL0     H73304  10.762   6.063   9.039  1.2154  0.0453  0.8335
  543MOL0     H73305  10.561   6.208   8.998 -0.4401  1.5691  1.3611
  544MOL0     O73306   1.379   6.276   8.059  0.3273 -0.1386  0.8027
  544MOL0     C73307   1.469   6.208   8.014  0.1051 -0.4051 -0.8443
  544MOL0     O73308   1.471   6.072   8.023  1.3338 -0.3391  0.1343
  544MOL0     C73309   1.359   6.008   8.064 -0.2423 -0.1038 -0.5184
  544MOL0     C73310   1.353   5.941   8.185  0.5250  0.4619  0.2559
  544MOL0     C73311   1.236   5.875   8.216  0.4846 -0.4368 -0.2892
  544MOL0     C73312   1.115   5.891   8.140 -0.5296  0.0057  0.6237
  544MOL0     O73313   1.002   5.819   8.179  0.5645 -0.5383 -0.3142
  544MOL0     C73314   0.897   5.915   8.201  0.1916  0.1069  0.5227
  544MOL0     C73315   0.763   5.856   8.225 -0.1074 -0.1913  0.1688
  544MOL0     C73316   0.763   5.715   8.284  0.5463  0.0195  0.0647
  544MOL0     C73317   0.624   5.685   8.337 -0.8545  0.2549 -0.8508
  544MOL0     C73318   0.589   5.769   8.457 -0.0194 -0.3348 -0.0219
  544MOL0     C73319   0.493   5.697   8.546  0.5946 -0.2284  0.0107
  544MOL0     C73320   0.452   5.775   8.674  0.3677  0.6847  1.3597
  544MOL0     C73321   0.296   5.771   8.673  0.6493  0.3718 -0.4528
  544MOL0     N73322   0.240   5.814   8.804  0.1632  0.1609  0.4398
  544MOL0     C73323   0.280   5.784   8.929  0.3622  0.3937 -1.2538
  544MOL0     C73324   0.186   5.849   9.007 -0.3604 -0.0957  0.8759
  544MOL0     C73325   0.180   5.853   9.151 -0.1064 -0.8178  0.2392
  544MOL0     C73326   0.214   5.998   9.195 -0.4758 -0.7780 -0.6946
  544MOL0     C73327   0.252   6.008   9.352  0.8131 -0.3733  0.3272
  544MOL0     C73328   0.113   5.989   9.430  0.0608 -0.5664  0.9809
  544MOL0     O73329   0.127   6.009   9.564 -0.0298 -0.0206 -0.4618
  544MOL0     C73330   0.017   6.016   9.643  0.3393 -0.8911  0.0126
  544MOL0     C73331  -0.076   5.910   9.669 -0.6455 -0.4439 -0.0708
  544MOL0     C73332  -0.175   5.913   9.772 -0.6606  0.7940  0.2445
  544MOL0     C73333  -0.258   5.785   9.792  0.2808 -0.2016 -0.1426
  544MOL0     C73334  -0.196   6.030   9.843 -0.1987 -0.6168 -0.4503
  544MOL0     C73335  -0.321   6.064   9.919  0.2593  0.5122 -0.8434
  544MOL0     O73336  -0.335   6.190   9.964 -0.1693  0.0534  0.0243
  544MOL0     C73337  -0.454   6.243  10.003 -0.9959 -0.0891 -0.2482
  544MOL0     C73338  -0.477   6.312  10.123  0.0698  0.6872 -0.0496
  544MOL0     C73339  -0.606   6.332  10.157  0.1192 -0.1135 -0.5458
  544MOL0     C73340  -0.712   6.306  10.073  0.1063 -0.3620  0.4723
  544MOL0     O73341  -0.846   6.337  10.098 -0.2008  0.3820 -0.6640
  544MOL0     C73342  -0.878   6.452  10.173 -0.1473 -0.5702 -0.5506
  544MOL0     C73343  -1.020   6.502  10.169 -0.5858  0.7545 -0.3924
  544MOL0     C73344  -1.049   6.574  10.038  0.0653 -0.2706  0.3953
  544MOL0     C73345  -1.197   6.583  10.006  0.4875 -0.6692  0.6971
  544MOL0     C73346  -1.212   6.664   9.874  0.4983 -0.4391 -1.0644
  544MOL0     C73347  -1.363   6.673   9.842 -0.0850 -0.6868 -0.4801
  544MOL0     C73348  -1.388   6.802   9.760 -0.4673  0.7894 -0.8194
  544MOL0     C73349  -1.536   6.824   9.729 -0.3186 -0.8306 -0.4893
  544MOL0    Cl73350  -1.579   6.768   9.564 -0.0622  0.4395 -0.4035
  544MOL0     C73351  -0.687   6.241   9.948  0.2616 -0.8285 -0.2012
  544MOL0     C73352  -0.556   6.209   9.913 -0.1504 -0.2192 -0.4283
  544MOL0     O73353  -0.405   5.979   9.930  0.0197  0.2706 -0.8455
  544MOL0     C73354  -0.101   6.139   9.821 -0.4368 -1.0975 -0.5499
  544MOL0     C73355   0.002   6.125   9.724  0.3058 -0.8178 -0.4935
  544MOL0     N73356   0.093   5.918   8.928 -0.6420  0.0583  0.1044
  544MOL0     N73357   0.137   5.893   8.810 -0.2301 -0.1705 -0.2950
  544MOL0     C73358   1.128   5.962   8.017  0.4870 -0.8287  0.4724
  544MOL0     C73359   1.246   6.012   7.978 -0.7275 -0.0930  0.4853
  544MOL0     C73360   1.589   6.281   7.981  0.2678 -0.6461 -0.2914
  544MOL0     C73361   1.604   6.421   8.017  0.2443  0.6142  0.3995
  544MOL0     C73362   1.712   6.486   7.974 -0.9690 -0.0136  0.2561
  544MOL0     C73363   1.810   6.426   7.888  1.1953  0.0332  0.5135
  544MOL0     O73364   1.916   6.489   7.823 -0.4304 -0.5122  0.2960
  544MOL0     C73365   1.931   6.624   7.845  0.0110 -0.0556  0.4009
  544MOL0     C73366   2.058   6.682   7.780 -0.6171  0.2111 -0.9209
  544MOL0     C73367   2.060   6.837   7.790 -0.3772  0.2341 -0.2591
  544MOL0     C73368   2.102   6.890   7.930  0.7967  0.4878 -0.3005
  544MOL0     C73369   2.099   7.037   7.939 -0.6871 -0.5509 -0.5513
  544MOL0     C73370   2.110   7.156   7.954  0.6333 -0.4225 -0.0059
  544MOL0     C73371   1.809   6.291   7.861  0.5742  0.1340 -0.3545
  544MOL0     C73372   1.693   6.214   7.908 -0.4748 -0.6086  0.0290
  544MOL0     H73373   1.445   5.921   8.238  0.4953 -1.1150 -0.2221
  544MOL0     H73374   1.228   5.802   8.296 -0.0540 -1.3776 -1.1846
  544MOL0     H73375   0.930   5.986   8.278 -0.5193 -0.1273  1.0550
  544MOL0     H73376   0.883   5.988   8.120 -2.0055  2.6528  2.9655
  544MOL0     H73377   0.709   5.933   8.280  0.9862 -0.1607  1.2341
  544MOL0     H73378   0.713   5.849   8.128 -0.8573 -1.4598  0.6209
  544MOL0     H73379   0.800   5.636   8.218  3.7878  0.5494  1.0772
  544MOL0     H73380   0.843   5.718   8.358  1.0624 -2.6228 -0.2703
  544MOL0     H73381   0.554   5.693   8.253 -1.5350 -2.6549 -0.6584
  544MOL0     H73382   0.628   5.576   8.350  1.0327  0.3570 -0.2690
  544MOL0     H73383   0.679   5.792   8.515  0.0602  1.3381 -0.7330
  544MOL0     H73384   0.545   5.863   8.421 -3.1445 -1.4312  0.5961
  544MOL0     H73385   0.414   5.669   8.476  1.7527 -2.4185 -0.4898
  544MOL0     H73386   0.529   5.603   8.588  2.7733  0.5338 -0.0091
  544MOL0     H73387   0.493   5.727   8.763 -4.9142  0.0232  3.8517
  544MOL0     H73388   0.477   5.881   8.672 -1.3308  1.1130  1.0249
  544MOL0     H73389   0.248   5.674   8.663 -0.4754  0.9757 -1.0640
  544MOL0     H73390   0.259   5.824   8.584  3.0052  0.6749 -1.3449
  544MOL0     H73391   0.364   5.729   8.969 -1.5270 -0.4253  1.9112
  544MOL0     H73392   0.084   5.818   9.189 -1.9356  0.0862 -3.1495
  544MOL0     H73393   0.250   5.782   9.196 -1.8346 -1.5296  1.9301
  544MOL0     H73394   0.140   6.074   9.169 -0.8924 -0.7742  0.4233
  544MOL0     H73395   0.305   6.023   9.140 -1.8118  2.1142 -1.8042
  544MOL0     H73396   0.290   6.104   9.387  1.2525 -1.5400  3.3150
  544MOL0     H73397   0.324   5.930   9.380  0.3131 -1.2942 -0.8083
  544MOL0     H73398   0.072   5.891   9.402  1.7619 -0.5972 -1.7946
  544MOL0     H73399   0.045   6.066   9.392 -0.8961 -2.1542 -0.7100
  544MOL0     H73400  -0.066   5.825   9.602  0.7386  0.5876 -1.2565
  544MOL0     H73401  -0.348   5.807   9.734  2.1797 -0.6965 -3.5105
  544MOL0     H73402  -0.210   5.697   9.749  1.9884  1.8584 -2.7710
  544MOL0     H73403  -0.280   5.779   9.899 -0.6078  1.9576 -0.1612
  544MOL0     H73404  -0.403   6.354  10.190  0.5865  0.6227 -0.5700
  544MOL0     H73405  -0.613   6.379  10.255  1.7527  1.5321 -1.1613
  544MOL0     H73406  -0.867   6.423  10.278 -2.3264 -1.6260 -0.5494
  544MOL0     H73407  -0.803   6.531  10.161 -0.6142 -0.0581 -0.1826
  544MOL0     H73408  -1.089   6.421  10.196 -1.2834  1.4008 -0.2162
  544MOL0     H73409  -1.042   6.569  10.253 -2.4864  1.4703 -1.4174
  544MOL0     H73410  -0.999   6.530   9.951  0.4575 -0.8444  0.8981
  544MOL0     H73411  -1.003   6.673  10.043  2.3122 -1.1662 -0.8056
  544MOL0     H73412  -1.237   6.483   9.990  1.2116 -0.6041 -2.1246
  544MOL0     H73413  -1.244   6.641  10.086  4.5232  0.4510  2.5027
  544MOL0     H73414  -1.152   6.619   9.795  1.6386  2.1052 -1.7719
  544MOL0     H73415  -1.176   6.766   9.893 -3.2161  0.8077  0.0329
  544MOL0     H73416  -1.392   6.582   9.788  2.5964 -1.6340 -0.4990
  544MOL0     H73417  -1.428   6.681   9.929 -0.9707  1.8642 -1.2990
  544MOL0     H73418  -1.333   6.803   9.666  0.0519 -0.4152 -0.5482
  544MOL0     H73419  -1.360   6.889   9.820  0.0976  0.9390 -1.2940
  544MOL0     H73420  -1.574   6.927   9.733  0.1013 -0.5702 -2.3749
  544MOL0     H73421  -1.602   6.763   9.791 -0.4557  0.5622  0.7880
  544MOL0     H73422  -0.776   6.218   9.889  0.5862 -2.9873  0.0600
  544MOL0     H73423  -0.533   6.160   9.819  0.8299  0.8113 -0.7590
  544MOL0     H73424  -0.110   6.229   9.880  0.3765 -0.2020 -1.7632
  544MOL0     H73425   0.074   6.206   9.714  3.1770 -3.2548 -1.2676
  544MOL0     H73426   1.048   5.969   7.944  1.1572 -2.8351 -0.5282
  544MOL0     H73427   1.261   6.049   7.877  1.1005 -1.3686  0.2400
  544MOL0     H73428   1.529   6.461   8.084 -0.1656  0.0458  0.2912
  544MOL0     H73429   1.736   6.587   8.007 -0.3460 -0.3195  0.7496
  544MOL0     H73430   1.849   6.677   7.796  1.8785  1.8839 -0.7733
  544MOL0     H73431   1.932   6.647   7.952 -0.4760 -0.1766  0.4330
  544MOL0     H73432   2.077   6.648   7.678  1.0442 -0.2287 -0.4987
  544MOL0     H73433   2.147   6.644   7.832 -1.1054 -0.8871 -0.8687
  544MOL0     H73434   1.965   6.890   7.779  1.5297  4.0618  0.1329
  544MOL0     H73435   2.140   6.874   7.725  0.7102 -1.7405 -0.1126
  544MOL0     H73436   2.206   6.871   7.957  1.1300  2.9086  0.3294
  544MOL0     H73437   2.042   6.842   8.009 -1.9451  1.3553 -1.7157
  544MOL0     H73438   2.111   7.263   7.967  0.5976 -0.2123 -1.5419
  544MOL0     H73439   1.874   6.248   7.786 -1.6369 -0.2221 -2.1540
  544MOL0     H73440   1.686   6.113   7.868  0.8588  0.2604 -2.5862
  545MOL0     O73441   3.228   6.573  10.072 -0.4375  0.4364 -0.0306
  545MOL0     C73442   3.239   6.506   9.967 -0.0740  0.0336 -0.1722
  545MOL0     O73443   3.132   6.471   9.887 -1.0110  0.2308 -0.4387
  545MOL0     C73444   3.006   6.507   9.920  0.0516  0.5306 -0.0045
  545MOL0     C73445   2.912   6.419   9.872  0.3819  0.4271 -0.3523
  545MOL0     C73446   2.774   6.443   9.901  0.1276  0.2893 -0.1699
  545MOL0     C73447   2.733   6.571   9.937 -0.8544 -0.4156 -0.2456
  545MOL0     O73448   2.602   6.608   9.945  0.4763  0.3913  1.3638
  545MOL0     C73449   2.494   6.511   9.945  0.1918  0.0472  0.9238
  545MOL0     C73450   2.391   6.579   9.845 -0.1939  0.3039  0.0577
  545MOL0     C73451   2.316   6.688   9.918  0.0645  0.6553 -0.0694
  545MOL0     C73452   2.209   6.749   9.828  0.2851  0.0835 -0.3009
  545MOL0     C73453   2.156   6.886   9.885  0.5925 -0.5293 -0.6324
  545MOL0     C73454   2.033   6.945   9.814  1.0782 -1.1723 -0.4658
  545MOL0     C73455   2.008   6.935   9.666 -0.5224  0.3075  0.5277
  545MOL0     C73456   1.924   7.058   9.621  0.1657  1.1717 -0.5007
  545MOL0     N73457   1.788   7.064   9.680  0.6771 -0.4767 -0.5027
  545MOL0     C73458   1.702   6.954   9.688  0.0391  0.1543 -0.4967
  545MOL0     C73459   1.590   7.000   9.748  0.7838  0.7834  0.1997
  545MOL0     C73460   1.470   6.914   9.764  0.6899  0.1644  0.5983
  545MOL0     C73461   1.353   6.949   9.663 -0.4925 -0.5937 -0.5472
  545MOL0     C73462   1.394   6.953   9.516  0.6137  0.7599 -0.1212
  545MOL0     C73463   1.275   6.942   9.420  0.1807 -0.4010 -0.1847
  545MOL0     O73464   1.180   7.037   9.455 -0.3042 -0.3070  0.5866
  545MOL0     C73465   1.055   7.028   9.404 -0.0941  0.2443 -0.0284
  545MOL0     C73466   0.949   7.065   9.478  0.4831  0.1052  0.0668
  545MOL0     C73467   0.818   7.050   9.424  0.2170 -0.1788 -0.3676
  545MOL0     C73468   0.717   7.107   9.518 -0.6336  0.5776 -0.8539
  545MOL0     C73469   0.796   7.003   9.294 -0.1293 -1.1489  0.6159
  545MOL0     C73470   0.655   7.002   9.234 -0.0623 -1.2517 -0.5531
  545MOL0     O73471   0.546   7.009   9.314  0.3882 -0.0424  0.4309
  545MOL0     C73472   0.421   7.000   9.253 -0.2389 -0.5915  0.8733
  545MOL0     C73473   0.321   7.088   9.300 -0.1171 -0.1622 -0.5651
  545MOL0     C73474   0.197   7.111   9.242 -0.6929 -0.3285 -0.2400
  545MOL0     C73475   0.184   7.045   9.120 -0.3474  0.0496  0.5919
  545MOL0     O73476   0.071   7.071   9.048  0.3526 -0.4656  0.0045
  545MOL0     C73477   0.068   7.039   8.906 -0.4406  0.8670  0.0906
  545MOL0     C73478  -0.060   7.081   8.843 -0.6990  0.8815 -0.0789
  545MOL0     C73479  -0.080   7.031   8.701 -0.7197 -0.2775  0.3190
  545MOL0     C73480  -0.207   7.071   8.634 -0.2071  0.9412 -0.3605
  545MOL0     C73481  -0.252   7.220   8.646 -0.7138  0.6705  0.2045
  545MOL0     C73482  -0.356   7.264   8.544  0.3576 -0.0396  0.0485
  545MOL0     C73483  -0.414   7.410   8.557 -0.1873 -0.3950  0.2757
  545MOL0     C73484  -0.498   7.458   8.432 -0.8966 -0.4810 -0.2219
  545MOL0    Cl73485  -0.626   7.338   8.404 -0.3177 -0.4615 -0.2627
  545MOL0     C73486   0.273   6.948   9.070  0.7772  0.1501 -0.2110
  545MOL0     C73487   0.392   6.925   9.134 -0.7294  0.0428 -0.1897
  545MOL0     O73488   0.657   7.023   9.108  0.5325  0.2466  0.4833
  545MOL0     C73489   0.909   6.974   9.219 -0.5138 -0.6383  0.4941
  545MOL0     C73490   1.035   6.979   9.278 -0.3070 -0.5667 -0.2350
  545MOL0     N73491   1.606   7.135   9.767  0.3727 -0.4876 -0.4628
  545MOL0     N73492   1.727   7.174   9.738 -0.2060  0.0848  0.7599
  545MOL0     C73493   2.828   6.667   9.966  1.2636 -0.8445 -0.2649
  545MOL0     C73494   2.962   6.630   9.971  0.0180  0.3465  0.2198
  545MOL0     C73495   3.372   6.470   9.922  0.3558  0.1341 -0.8659
  545MOL0     C73496   3.396   6.378   9.810 -0.4773 -0.6098 -0.1591
  545MOL0     C73497   3.522   6.348   9.765 -0.7005  0.2198  0.1310
  545MOL0     C73498   3.629   6.401   9.820 -0.0794  0.2891 -1.1692
  545MOL0     O73499   3.749   6.348   9.792 -0.6216  0.0397 -0.2197
  545MOL0     C73500   3.788   6.224   9.860 -0.7155  0.1812 -0.6489
  545MOL0     C73501   3.895   6.253   9.972  0.0570 -0.8981 -0.3563
  545MOL0     C73502   4.027   6.305   9.901  0.8774 -0.2986  0.0049
  545MOL0     C73503   4.106   6.181   9.841 -0.1602 -0.2641 -0.5477
  545MOL0     C73504   4.229   6.230   9.782 -0.5037  0.0099 -0.2259
  545MOL0     C73505   4.337   6.280   9.744 -0.1204  0.2383  0.3214
  545MOL0     C73506   3.608   6.484   9.928  0.1626 -0.5806  0.0885
  545MOL0     C73507   3.489   6.524   9.986  0.4726 -0.2413 -0.9612
  545MOL0     H73508   2.941   6.326   9.825  2.2542  1.0992 -0.6260
  545MOL0     H73509   2.709   6.367   9.858  0.2488  0.4506 -0.6402
  545MOL0     H73510   2.525   6.411   9.913 -2.9297 -0.9003  0.5683
  545MOL0     H73511   2.462   6.499  10.049 -1.1108 -0.0577  0.5259
  545MOL0     H73512   2.446   6.630   9.766  0.3004 -1.5866 -0.8858
  545MOL0     H73513   2.324   6.506   9.796  2.1309 -2.5016  0.7886
  545MOL0     H73514   2.272   6.640  10.006 -1.8639 -0.8048 -1.7228
  545MOL0     H73515   2.382   6.768   9.953 -0.6150  0.6360  1.3406
  545MOL0     H73516   2.252   6.762   9.728 -0.6054 -3.2517 -1.2551
  545MOL0     H73517   2.133   6.670   9.831  0.0167  0.3579  2.0936
  545MOL0     H73518   2.133   6.869   9.990 -1.5379  0.8258 -0.7999
  545MOL0     H73519   2.235   6.961   9.877  0.0325 -0.0902 -3.1064
  545MOL0     H73520   1.949   6.896   9.863 -0.5635  2.0936  0.2992
  545MOL0     H73521   2.017   7.049   9.843  1.1515 -0.3998 -2.9618
  545MOL0     H73522   2.104   6.934   9.613 -1.2281  0.0715 -0.7801
  545MOL0     H73523   1.958   6.842   9.637 -1.8103  1.4510 -1.0857
  545MOL0     H73524   1.911   7.053   9.513 -1.7714  2.5008 -0.3763
  545MOL0     H73525   1.985   7.146   9.644  2.2439  0.2075 -2.0040
  545MOL0     H73526   1.723   6.852   9.659  2.6023  0.4161  0.1238
  545MOL0     H73527   1.493   6.810   9.737 -0.4292  0.0742 -0.1071
  545MOL0     H73528   1.436   6.920   9.867 -1.3112  2.8568 -0.1302
  545MOL0     H73529   1.321   7.051   9.685 -1.7883 -0.5494 -2.4666
  545MOL0     H73530   1.269   6.883   9.684 -2.5170  1.8095 -0.6848
  545MOL0     H73531   1.459   6.869   9.490 -1.8797 -0.8377 -1.6626
  545MOL0     H73532   1.451   7.042   9.487  0.6990  0.6458 -0.3026
  545MOL0     H73533   1.243   6.840   9.441 -2.0548  0.7258  2.5109
  545MOL0     H73534   1.300   6.966   9.316  0.3328  1.5598  0.2624
  545MOL0     H73535   0.971   7.109   9.575 -0.0995  2.3973 -0.7711
  545MOL0     H73536   0.762   7.165   9.599 -0.4562 -3.0025  1.8467
  545MOL0     H73537   0.667   7.191   9.470 -1.3160  1.6030  1.5059
  545MOL0     H73538   0.659   7.035   9.578  1.4313  1.3468  2.2957
  545MOL0     H73539   0.333   7.144   9.392 -1.9613 -2.0789  0.9145
  545MOL0     H73540   0.129   7.183   9.286  1.1041  3.0713 -2.6078
  545MOL0     H73541   0.161   7.074   8.859  0.3020 -1.8793 -0.6738
  545MOL0     H73542   0.073   6.930   8.908  0.4729  0.9097  0.8893
  545MOL0     H73543  -0.135   7.038   8.910  1.6521  0.7964  2.6912
  545MOL0     H73544  -0.075   7.188   8.860  1.0834  0.8547  2.1181
  545MOL0     H73545  -0.084   6.922   8.688 -1.3592 -0.1310 -0.8013
  545MOL0     H73546   0.007   7.060   8.642  0.0774 -1.0587  1.0575
  545MOL0     H73547  -0.192   7.042   8.529 -0.5161 -1.3844  0.1686
  545MOL0     H73548  -0.286   7.004   8.670  0.7296 -0.9186 -1.5613
  545MOL0     H73549  -0.162   7.278   8.624 -0.2284 -0.6409 -1.5405
  545MOL0     H73550  -0.276   7.243   8.750  1.4801  1.0346  0.6798
  545MOL0     H73551  -0.317   7.248   8.443  1.4546 -1.5675  0.6759
  545MOL0     H73552  -0.441   7.196   8.558 -0.8868  1.6803  1.2414
  545MOL0     H73553  -0.329   7.479   8.562  0.5246 -1.2110 -0.3107
  545MOL0     H73554  -0.478   7.424   8.644 -0.2224 -0.5582  0.2744
  545MOL0     H73555  -0.440   7.462   8.339 -1.9385 -0.4473 -0.8824
  545MOL0     H73556  -0.533   7.559   8.454  0.2493 -0.0572 -0.2721
  545MOL0     H73557   0.260   6.894   8.977 -0.5721  5.0348 -3.2103
  545MOL0     H73558   0.444   6.841   9.090 -1.3408  0.0016 -0.8453
  545MOL0     H73559   0.900   6.949   9.114 -1.7222 -0.5134  0.5551
  545MOL0     H73560   1.115   6.963   9.207 -0.7108  0.3020 -0.9073
  545MOL0     H73561   2.786   6.763   9.994  0.7176 -1.3990  0.8685
  545MOL0     H73562   3.040   6.702   9.992  0.5225 -0.5088  1.4104
  545MOL0     H73563   3.311   6.321   9.775 -0.0568  0.0169 -2.3662
  545MOL0     H73564   3.549   6.275   9.690 -1.8907  1.4732 -1.6235
  545MOL0     H73565   3.708   6.178   9.919  1.7239 -1.2148  1.7766
  545MOL0     H73566   3.822   6.156   9.782  0.9379  1.5369 -1.1677
  545MOL0     H73567   3.919   6.161  10.026  0.7558 -2.2716 -2.8245
  545MOL0     H73568   3.846   6.325  10.038 -2.0575 -1.0223 -1.6644
  545MOL0     H73569   4.093   6.350   9.976  1.5794  1.7371 -1.7324
  545MOL0     H73570   4.000   6.381   9.827 -3.0782 -1.6247 -0.1278
  545MOL0     H73571   4.039   6.132   9.771 -3.7281 -0.5622  2.7554
  545MOL0     H73572   4.140   6.113   9.919  0.5304  0.5694 -0.0927
  545MOL0     H73573   4.433   6.313   9.710 -0.0688 -0.0364  0.1927
  545MOL0     H73574   3.697   6.523   9.977  0.9405 -0.6588 -1.2125
  545MOL0     H73575   3.498   6.575  10.081  2.5967 -3.0337  0.4910
  546MOL0     O73576  10.014   8.280   5.313  0.1786 -0.1269  0.9119
  546MOL0     C73577   9.997   8.210   5.419 -0.5625  0.7003  0.8994
  546MOL0     O73578   9.882   8.150   5.447 -0.2377  0.3316  0.2138
  546MOL0     C73579   9.759   8.161   5.386  0.3795 -0.5853  0.4835
  546MOL0     C73580   9.639   8.124   5.448  0.9720 -0.1951 -0.2607
  546MOL0     C73581   9.517   8.145   5.385 -0.2048  0.0532 -0.6020
  546MOL0     C73582   9.505   8.196   5.254 -0.3056 -0.6913  0.3654
  546MOL0     O73583   9.378   8.229   5.207 -0.4858 -0.6795 -0.3011
  546MOL0     C73584   9.353   8.249   5.071  0.8828  0.4200  0.3774
  546MOL0     C73585   9.195   8.230   5.034 -0.2389 -0.7733 -0.3548
  546MOL0     C73586   9.160   8.236   4.881 -0.0140 -0.8679  0.1661
  546MOL0     C73587   9.009   8.255   4.854 -0.2232 -0.9719 -0.0172
  546MOL0     C73588   8.981   8.323   4.715  0.1482 -0.3913  0.5644
  546MOL0     C73589   8.832   8.377   4.714 -0.4814 -0.4759 -0.1163
  546MOL0     C73590   8.724   8.272   4.735  0.2468 -0.1946 -0.1475
  546MOL0     C73591   8.584   8.324   4.769  0.6624 -0.9637 -0.6487
  546MOL0     N73592   8.540   8.441   4.690 -0.3832  0.0411  0.0495
  546MOL0     C73593   8.577   8.578   4.711  0.7162 -0.5876  0.0868
  546MOL0     C73594   8.522   8.642   4.606 -0.0663  0.0827  0.4134
  546MOL0     C73595   8.531   8.789   4.589  0.3959  1.0929  0.0995
  546MOL0     C73596   8.393   8.856   4.595  0.2489  0.3657 -0.5078
  546MOL0     C73597   8.323   8.836   4.732 -0.3885 -0.2635  1.2145
  546MOL0     C73598   8.184   8.897   4.735  1.2058 -0.7615  0.4696
  546MOL0     O73599   8.183   9.041   4.710  0.5704 -0.3574  0.1136
  546MOL0     C73600   8.067   9.105   4.681  0.5864 -0.4874  0.1145
  546MOL0     C73601   8.074   9.246   4.679 -0.2255  0.1880  0.8206
  546MOL0     C73602   7.965   9.330   4.667  0.0719 -0.1854  0.5098
  546MOL0     C73603   7.995   9.475   4.674 -0.0511 -0.2047 -0.0179
  546MOL0     C73604   7.834   9.277   4.660 -0.5862 -0.8643  0.0363
  546MOL0     C73605   7.709   9.361   4.650 -0.4638 -0.3168 -0.0205
  546MOL0     O73606   7.716   9.498   4.645  0.1891  0.6443  0.6555
  546MOL0     C73607   7.618   9.586   4.659  0.0172  0.2691  0.1992
  546MOL0     C73608   7.477   9.555   4.665 -0.4635 -1.4098  0.0478
  546MOL0     C73609   7.389   9.668   4.689 -0.3527 -0.1095 -0.0697
  546MOL0     C73610   7.431   9.800   4.720  0.4499  0.1489 -0.2993
  546MOL0     O73611   7.336   9.899   4.745 -0.1496 -0.3234 -0.5620
  546MOL0     C73612   7.375  10.017   4.820 -0.0868  1.1963 -0.0387
  546MOL0     C73613   7.234  10.081   4.853 -0.2500  0.7032 -0.2076
  546MOL0     C73614   7.164  10.005   4.971 -0.8393 -1.4410 -0.7649
  546MOL0     C73615   7.011  10.036   4.963 -0.0556  0.0698 -0.2071
  546MOL0     C73616   6.932   9.975   5.068 -0.0568  0.5165 -0.2067
  546MOL0     C73617   6.932   9.821   5.052 -0.2198 -0.0679  0.3809
  546MOL0     C73618   6.981   9.756   5.187  0.1067  0.1027  0.3020
  546MOL0     C73619   7.018   9.609   5.164 -0.2979  0.9297 -0.8551
  546MOL0    Cl73620   7.075   9.549   5.327  0.3303  0.2807  0.2644
  546MOL0     C73621   7.569   9.826   4.718  0.1018  0.1341 -0.0476
  546MOL0     C73622   7.653   9.717   4.682 -0.9528 -0.7907 -0.4744
  546MOL0     O73623   7.605   9.301   4.643 -0.1710  0.2407  0.4299
  546MOL0     C73624   7.830   9.137   4.662 -0.2173  0.3699 -0.2178
  546MOL0     C73625   7.937   9.048   4.682  0.8360 -0.6993  0.0615
  546MOL0     N73626   8.445   8.556   4.534 -0.2166 -0.3520  0.2763
  546MOL0     N73627   8.461   8.440   4.583  0.5298  0.0688  0.1815
  546MOL0     C73628   9.623   8.207   5.176 -0.4190  0.0099  0.1280
  546MOL0     C73629   9.751   8.186   5.242 -0.8968 -0.4412 -0.8388
  546MOL0     C73630  10.104   8.213   5.522 -0.0361  0.0258  0.5516
  546MOL0     C73631  10.227   8.284   5.490 -0.3890  0.0315 -1.1925
  546MOL0     C73632  10.324   8.296   5.586 -0.0750 -0.3794  0.8869
  546MOL0     C73633  10.323   8.244   5.715  0.0206 -0.0536  0.0551
  546MOL0     O73634  10.417   8.256   5.813 -0.4103  0.4043  0.6227
  546MOL0     C73635  10.533   8.330   5.793 -0.2003  0.2831  0.6769
  546MOL0     C73636  10.577   8.337   5.941 -0.4533  0.5533 -0.1203
  546MOL0     C73637  10.721   8.397   5.954  0.2948  0.4571  0.4003
  546MOL0     C73638  10.797   8.307   6.056  0.1105 -1.2806 -0.0457
  546MOL0     C73639  10.918   8.373   6.109  0.1692  0.5746  0.9321
  546MOL0     C73640  11.019   8.425   6.145 -0.4525 -0.0827  0.7309
  546MOL0     C73641  10.200   8.176   5.747 -1.5531 -0.2037 -0.4143
  546MOL0     C73642  10.092   8.158   5.658  0.2445  0.0769 -0.0894
  546MOL0     H73643   9.640   8.100   5.554 -2.0669 -0.1482 -0.1344
  546MOL0     H73644   9.428   8.130   5.446 -0.0883  0.7098 -0.2666
  546MOL0     H73645   9.377   8.353   5.048 -0.0861  0.3104 -1.3335
  546MOL0     H73646   9.411   8.192   4.998  2.7940  0.4068  1.8342
  546MOL0     H73647   9.162   8.136   5.078 -2.9761 -0.4389 -1.4660
  546MOL0     H73648   9.142   8.308   5.090  2.2627 -1.0733  2.7058
  546MOL0     H73649   9.218   8.313   4.829  0.9361 -1.8744 -0.2908
  546MOL0     H73650   9.189   8.148   4.823  1.8966  0.2714 -0.7096
  546MOL0     H73651   8.958   8.159   4.862  1.0573 -1.5308  4.2148
  546MOL0     H73652   8.975   8.324   4.931 -2.3369 -0.7656 -1.0587
  546MOL0     H73653   9.053   8.405   4.706  1.2290 -0.8027  4.0107
  546MOL0     H73654   9.005   8.258   4.631 -0.7273 -0.3623  0.2787
  546MOL0     H73655   8.828   8.450   4.796 -3.0989  1.4818 -1.8089
  546MOL0     H73656   8.823   8.434   4.621  0.9711  0.9803  0.5813
  546MOL0     H73657   8.720   8.220   4.639  2.4151  1.3571 -1.1798
  546MOL0     H73658   8.754   8.201   4.813  1.0070  1.9359  1.6151
  546MOL0     H73659   8.578   8.353   4.874  3.7591  0.4780 -0.7473
  546MOL0     H73660   8.511   8.246   4.744 -0.1467 -0.2997 -0.3909
  546MOL0     H73661   8.639   8.618   4.791  0.6818 -2.2070  0.9506
  546MOL0     H73662   8.586   8.834   4.671  2.8371 -0.5054 -0.5552
  546MOL0     H73663   8.578   8.806   4.492 -2.6441 -1.4383 -2.0357
  546MOL0     H73664   8.331   8.838   4.507 -0.5852  3.6944 -0.7157
  546MOL0     H73665   8.402   8.964   4.582 -0.9553  0.5359 -0.1230
  546MOL0     H73666   8.385   8.870   4.815  1.2743  0.7776 -0.3767
  546MOL0     H73667   8.304   8.731   4.755 -2.1830 -0.6455 -1.4851
  546MOL0     H73668   8.130   8.883   4.828 -1.8138 -0.4548 -1.1025
  546MOL0     H73669   8.132   8.842   4.656  1.7355 -0.0659 -0.3823
  546MOL0     H73670   8.175   9.284   4.678  0.6217 -1.8467  1.6420
  546MOL0     H73671   8.104   9.491   4.675 -0.0951  0.0845  0.1385
  546MOL0     H73672   7.959   9.520   4.581  0.2548 -1.6599 -0.8816
  546MOL0     H73673   7.945   9.519   4.760 -2.6143  0.7277 -1.8752
  546MOL0     H73674   7.429   9.458   4.653  0.0745 -1.5812 -0.7878
  546MOL0     H73675   7.282   9.650   4.693 -0.7192  1.8893  0.2475
  546MOL0     H73676   7.430   9.979   4.906  0.5344 -1.0605 -1.3561
  546MOL0     H73677   7.441  10.087   4.768 -1.0540  0.6401 -2.1179
  546MOL0     H73678   7.239  10.187   4.879 -3.6358  0.8091  0.5099
  546MOL0     H73679   7.169  10.079   4.765 -1.3613 -0.1088  0.5951
  546MOL0     H73680   7.199  10.042   5.067 -2.2554 -1.7603 -0.1032
  546MOL0     H73681   7.179   9.896   4.974 -0.2541 -1.3548 -0.3312
  546MOL0     H73682   6.991  10.144   4.958 -0.3180 -0.0396 -2.0836
  546MOL0     H73683   6.971   9.994   4.871 -1.0858 -1.5378  0.9209
  546MOL0     H73684   6.830  10.008   5.047 -0.7234 -2.6104 -2.7501
  546MOL0     H73685   6.978   9.996   5.165 -0.2883  1.4582 -0.2976
  546MOL0     H73686   6.829   9.799   5.023 -0.0491  1.4305 -1.6786
  546MOL0     H73687   6.997   9.802   4.965  0.5985  0.8426  0.7677
  546MOL0     H73688   6.893   9.746   5.251  0.5286 -1.7124  0.6463
  546MOL0     H73689   7.065   9.811   5.231 -0.5429  0.1557  1.5128
  546MOL0     H73690   7.100   9.597   5.093  1.7604  1.2974  1.3166
  546MOL0     H73691   6.936   9.545   5.131  0.7791 -0.8103 -0.3115
  546MOL0     H73692   7.605   9.928   4.723  1.9760 -0.4261 -1.1618
  546MOL0     H73693   7.759   9.740   4.685 -1.0320 -0.4843  0.0773
  546MOL0     H73694   7.734   9.087   4.668  0.1858 -0.3192  0.6442
  546MOL0     H73695   7.903   8.945   4.689 -2.2625  0.2697  1.1884
  546MOL0     H73696   9.623   8.237   5.072  1.7471  1.9918  0.6110
  546MOL0     H73697   9.840   8.199   5.182  2.4527 -3.5350  2.8410
  546MOL0     H73698  10.244   8.334   5.395  1.9233  0.3424 -0.6789
  546MOL0     H73699  10.408   8.354   5.549 -1.0665  1.8567  1.9261
  546MOL0     H73700  10.609   8.279   5.732 -0.5711  0.5380  0.0054
  546MOL0     H73701  10.512   8.422   5.740  1.8865 -1.4261 -3.5732
  546MOL0     H73702  10.570   8.239   5.988 -0.4623  0.1214 -0.9903
  546MOL0     H73703  10.503   8.399   5.991  1.0900  1.2576  1.3705
  546MOL0     H73704  10.729   8.503   5.980  0.9399 -0.0850  2.6207
  546MOL0     H73705  10.773   8.383   5.858 -2.0389 -3.2334 -0.5358
  546MOL0     H73706  10.820   8.212   6.008 -0.9455  0.7871 -5.2797
  546MOL0     H73707  10.738   8.291   6.147 -2.9767  0.8479 -1.4808
  546MOL0     H73708  11.117   8.459   6.174 -0.4422  0.5116  0.0242
  546MOL0     H73709  10.201   8.126   5.843 -0.4493 -2.2155 -1.4196
  546MOL0     H73710  10.000   8.122   5.702 -0.9415  2.1657 -0.7205
  547MOL0     O73711   6.083   2.621   2.647  0.3463  0.1234  0.2980
  547MOL0     C73712   6.156   2.591   2.552 -0.3166  0.2599 -0.4692
  547MOL0     O73713   6.111   2.602   2.429 -0.1442 -0.7468  0.4584
  547MOL0     C73714   6.001   2.672   2.407  0.0435 -0.1854  0.0608
  547MOL0     C73715   5.885   2.611   2.358 -0.7636 -0.2068  0.7895
  547MOL0     C73716   5.766   2.688   2.322 -0.2360  0.1218  0.0258
  547MOL0     C73717   5.774   2.830   2.336 -0.6735 -0.4588 -0.4371
  547MOL0     O73718   5.674   2.915   2.285 -0.7402  0.7093 -0.6664
  547MOL0     C73719   5.575   2.861   2.201  0.4650  0.3935  0.1257
  547MOL0     C73720   5.467   2.967   2.171 -0.1325  1.0564 -0.3562
  547MOL0     C73721   5.398   2.943   2.037  0.6774  0.5557 -0.7579
  547MOL0     C73722   5.336   2.806   2.022  0.2383  0.4141  0.0096
  547MOL0     C73723   5.218   2.795   1.914 -0.7131  0.2133 -0.4880
  547MOL0     C73724   5.078   2.802   1.969 -0.0954 -0.2215  0.1290
  547MOL0     C73725   4.984   2.817   1.857  0.8096 -0.1472 -0.2959
  547MOL0     C73726   4.849   2.883   1.901  0.1807  0.0813 -0.8123
  547MOL0     N73727   4.734   2.880   1.815 -0.9335 -0.0804  0.3375
  547MOL0     C73728   4.617   2.944   1.844  0.2134  0.4111  0.2667
  547MOL0     C73729   4.531   2.903   1.745 -0.7385 -0.3898  0.4658
  547MOL0     C73730   4.388   2.941   1.716  0.2129 -0.4931  0.2853
  547MOL0     C73731   4.288   2.824   1.678 -0.0799 -0.2566  0.2530
  547MOL0     C73732   4.176   2.895   1.601 -0.5300 -0.1954  0.8433
  547MOL0     C73733   4.069   2.793   1.550  0.6618  0.1536  0.2439
  547MOL0     O73734   4.000   2.744   1.669  0.1500  0.0560 -0.4310
  547MOL0     C73735   3.911   2.813   1.736 -0.7151 -0.7206  0.1437
  547MOL0     C73736   3.865   2.939   1.685 -0.4734  0.3828  0.1600
  547MOL0     C73737   3.756   3.015   1.736 -0.5955  1.0556 -0.0187
  547MOL0     C73738   3.706   3.124   1.648 -0.5328  0.6894  0.1585
  547MOL0     C73739   3.689   2.962   1.849  0.3454 -0.1918 -0.2641
  547MOL0     C73740   3.570   3.027   1.908 -0.2407  0.0647 -0.1107
  547MOL0     O73741   3.506   2.948   2.003  0.4285  0.5583  0.5069
  547MOL0     C73742   3.401   3.007   2.057 -0.3111  0.2547  0.4075
  547MOL0     C73743   3.417   3.067   2.186  0.1199  0.7279  0.2569
  547MOL0     C73744   3.303   3.111   2.254  0.0479 -0.1054  0.1614
  547MOL0     C73745   3.171   3.115   2.198 -0.1560  1.0617  0.4313
  547MOL0     O73746   3.055   3.132   2.266  0.3230  0.2692 -0.5243
  547MOL0     C73747   3.070   3.188   2.391  0.4808  0.1481  0.8144
  547MOL0     C73748   2.932   3.209   2.450 -0.3093 -0.5468 -0.3677
  547MOL0     C73749   2.944   3.293   2.582  0.8827  0.6945  0.4274
  547MOL0     C73750   2.813   3.281   2.652 -0.9247 -0.5049 -0.2778
  547MOL0     C73751   2.823   3.342   2.788 -0.3988 -0.2649  0.3318
  547MOL0     C73752   2.690   3.392   2.841 -0.4853 -0.2638  0.8043
  547MOL0     C73753   2.606   3.296   2.913  0.2516 -0.4273  1.0280
  547MOL0     C73754   2.656   3.255   3.044 -0.3960 -0.5718  0.4053
  547MOL0    Cl73755   2.525   3.135   3.090  0.1404  0.1893 -0.5126
  547MOL0     C73756   3.167   3.079   2.061  0.7148  0.7427 -0.6898
  547MOL0     C73757   3.281   3.030   1.997  0.1080  0.3198  0.5051
  547MOL0     O73758   3.542   3.145   1.884  0.3432 -0.6062  0.2745
  547MOL0     C73759   3.735   2.839   1.898 -0.5464  0.1600 -0.3131
  547MOL0     C73760   3.842   2.766   1.842 -0.1013  0.0653 -0.0161
  547MOL0     N73761   4.600   2.835   1.651  0.0122  0.0455 -0.1389
  547MOL0     N73762   4.717   2.807   1.693  0.0112 -0.7465  0.0969
  547MOL0     C73763   5.891   2.889   2.388 -0.2546 -0.2233 -0.6476
  547MOL0     C73764   6.006   2.816   2.408  0.6435  0.1626 -0.6969
  547MOL0     C73765   6.279   2.521   2.579 -0.0683 -0.5353 -0.2396
  547MOL0     C73766   6.317   2.491   2.710 -0.2580  0.9713  0.3086
  547MOL0     C73767   6.433   2.412   2.731  0.0434  0.1775  0.5365
  547MOL0     C73768   6.514   2.373   2.629 -0.1935 -0.1440  0.9201
  547MOL0     O73769   6.618   2.291   2.659 -0.1660  0.2619 -0.3234
  547MOL0     C73770   6.691   2.212   2.553 -1.0065 -0.3599 -0.1261
  547MOL0     C73771   6.795   2.293   2.458 -0.5229  0.1074  0.6168
  547MOL0     C73772   6.916   2.355   2.530 -0.3403  0.5139  0.3295
  547MOL0     C73773   7.049   2.372   2.442  0.8180 -0.2997  0.6388
  547MOL0     C73774   7.046   2.491   2.356  0.1455  0.2306  0.7137
  547MOL0     C73775   7.061   2.575   2.269 -0.5460 -0.6543  0.7114
  547MOL0     C73776   6.479   2.413   2.497  0.7651 -0.2875  0.4451
  547MOL0     C73777   6.356   2.479   2.469  0.3473  1.6339  0.4236
  547MOL0     H73778   5.881   2.503   2.346 -1.2442 -0.2336  1.1541
  547MOL0     H73779   5.670   2.643   2.300 -1.3906  1.9954  0.9768
  547MOL0     H73780   5.617   2.832   2.105 -0.8535 -3.0016  0.4362
  547MOL0     H73781   5.520   2.783   2.256  0.4713  0.6019  0.4327
  547MOL0     H73782   5.402   2.974   2.259 -0.3484  2.8568 -0.6195
  547MOL0     H73783   5.513   3.066   2.167  0.4092  0.7937 -0.7222
  547MOL0     H73784   5.323   3.023   2.030 -0.7497 -0.6557 -0.0080
  547MOL0     H73785   5.473   2.957   1.959  2.3595 -1.8092  0.3505
  547MOL0     H73786   5.413   2.731   2.002 -1.3837 -2.2305  2.8042
  547MOL0     H73787   5.290   2.773   2.116  3.7762 -3.3872  0.6800
  547MOL0     H73788   5.233   2.877   1.843 -3.2112  2.6415  1.5713
  547MOL0     H73789   5.229   2.697   1.868  0.6581 -0.9638  2.1304
  547MOL0     H73790   5.055   2.709   2.022 -1.3833  0.4483  0.8027
  547MOL0     H73791   5.063   2.887   2.036 -0.6528 -0.5239  0.3957
  547MOL0     H73792   5.028   2.869   1.771 -0.9474  0.8909 -0.6037
  547MOL0     H73793   4.964   2.716   1.821  0.5871 -0.2611  0.1452
  547MOL0     H73794   4.877   2.988   1.910 -0.4226  0.1207  0.8795
  547MOL0     H73795   4.811   2.842   1.995 -0.1699  0.4139 -0.8080
  547MOL0     H73796   4.595   3.012   1.926 -0.1608 -0.9590  1.3427
  547MOL0     H73797   4.354   3.003   1.799  3.7052  4.1590 -1.3064
  547MOL0     H73798   4.396   3.020   1.641 -1.0637  0.3610  1.0231
  547MOL0     H73799   4.251   2.774   1.767 -0.0320 -1.0697 -0.1773
  547MOL0     H73800   4.324   2.748   1.608  0.5798  0.5570 -0.3217
  547MOL0     H73801   4.221   2.937   1.511 -1.1242  0.2610  0.7521
  547MOL0     H73802   4.135   2.982   1.653 -1.1748 -1.2504  2.1635
  547MOL0     H73803   4.125   2.722   1.488 -1.6422  1.0768 -3.1934
  547MOL0     H73804   4.002   2.845   1.480  1.6908  0.4465 -0.5495
  547MOL0     H73805   3.913   2.984   1.599 -2.3600 -0.0237 -1.1619
  547MOL0     H73806   3.762   3.135   1.554 -1.1769 -2.4865 -0.7183
  547MOL0     H73807   3.607   3.090   1.615  0.1093 -1.0013 -0.1026
  547MOL0     H73808   3.691   3.216   1.704 -1.0908 -1.0461  3.0593
  547MOL0     H73809   3.512   3.066   2.239  1.8242  2.2003 -2.5229
  547MOL0     H73810   3.323   3.125   2.360  3.2760 -1.3503 -0.1542
  547MOL0     H73811   3.131   3.117   2.448  1.1015 -0.0173 -0.0308
  547MOL0     H73812   3.120   3.285   2.378 -2.3866  1.6721  0.2097
  547MOL0     H73813   2.867   3.263   2.381 -0.0972 -0.7102 -0.6958
  547MOL0     H73814   2.885   3.113   2.474  1.4981 -1.2180  0.7001
  547MOL0     H73815   2.968   3.396   2.555 -0.3746  0.7260 -0.6449
  547MOL0     H73816   3.031   3.254   2.637  0.8339 -0.4807 -0.2964
  547MOL0     H73817   2.748   3.344   2.591  0.4085  0.5855 -0.6123
  547MOL0     H73818   2.785   3.175   2.653  3.5786 -1.9053  1.7816
  547MOL0     H73819   2.898   3.422   2.790 -1.4037  0.6849  1.7263
  547MOL0     H73820   2.864   3.263   2.851 -1.4773 -0.1161  1.2485
  547MOL0     H73821   2.707   3.473   2.914  2.6135 -2.5320  2.8652
  547MOL0     H73822   2.645   3.439   2.753  0.7608 -0.9269 -0.2209
  547MOL0     H73823   2.594   3.208   2.849  1.2524 -0.5896  1.0447
  547MOL0     H73824   2.503   3.333   2.924  0.0629 -0.7099  0.2524
  547MOL0     H73825   2.675   3.337   3.115 -3.5391  3.3489 -2.7955
  547MOL0     H73826   2.749   3.197   3.043  0.4630  0.7632 -0.5524
  547MOL0     H73827   3.079   3.085   1.998 -0.3973  1.6483  0.8776
  547MOL0     H73828   3.282   3.002   1.893  2.2973 -0.2354  0.6175
  547MOL0     H73829   3.703   2.817   2.000  2.0521  3.5051  1.4430
  547MOL0     H73830   3.869   2.674   1.891 -1.0619  0.5182  1.4158
  547MOL0     H73831   5.898   2.997   2.398 -1.7675 -0.2589  1.5739
  547MOL0     H73832   6.102   2.867   2.421  0.7482 -0.3794  0.9246
  547MOL0     H73833   6.251   2.509   2.794  0.3121 -0.1054  1.0154
  547MOL0     H73834   6.464   2.389   2.832  4.3607 -1.7250 -0.9716
  547MOL0     H73835   6.740   2.127   2.601  1.0940  0.1451 -1.2608
  547MOL0     H73836   6.610   2.179   2.487 -0.5520  1.9080 -1.9386
  547MOL0     H73837   6.750   2.375   2.402 -1.4377 -0.7969 -0.0138
  547MOL0     H73838   6.838   2.221   2.388 -2.2135 -2.3617  1.9872
  547MOL0     H73839   6.951   2.290   2.611  0.7837 -0.6731 -1.0554
  547MOL0     H73840   6.880   2.449   2.574  0.8435  1.7505 -1.2040
  547MOL0     H73841   7.064   2.278   2.389 -2.1967 -0.2212 -0.5792
  547MOL0     H73842   7.136   2.386   2.507  1.8644 -0.5619 -0.6420
  547MOL0     H73843   7.071   2.648   2.192 -0.0471 -1.0256  0.4151
  547MOL0     H73844   6.545   2.384   2.416  1.0320  0.7185  0.2850
  547MOL0     H73845   6.314   2.485   2.369 -1.1617 -5.2409  0.1056
  548MOL0     O73846   1.626  10.269   0.059 -0.0736 -0.2598 -0.3525
  548MOL0     C73847   1.642  10.369  -0.007 -0.0363 -0.3269  0.1162
  548MOL0     O73848   1.542  10.462  -0.034 -0.0038 -0.1671  0.6764
  548MOL0     C73849   1.425  10.457   0.036 -0.6106 -0.8496 -0.8553
  548MOL0     C73850   1.421  10.501   0.177  1.5212  0.4498  0.8266
  548MOL0     C73851   1.301  10.505   0.243  0.5111  0.3741 -0.1503
  548MOL0     C73852   1.178  10.463   0.189 -1.1845 -0.0271 -0.9329
  548MOL0     O73853   1.058  10.470   0.258 -0.3846  0.2987  0.7111
  548MOL0     C73854   1.045  10.595   0.343  0.2705  0.8703  0.0661
  548MOL0     C73855   0.904  10.592   0.393 -0.0732 -0.5478  0.8606
  548MOL0     C73856   0.860  10.737   0.437 -0.2474  0.5748  0.5805
  548MOL0     C73857   0.864  10.773   0.581 -0.1775 -0.6429  0.5171
  548MOL0     C73858   0.867  10.928   0.603 -0.5565  0.4581  1.1714
  548MOL0     C73859   0.854  10.970   0.743  0.4270  0.2547  0.1376
  548MOL0     C73860   0.824  11.121   0.753 -0.4068  0.9398  0.5108
  548MOL0     C73861   0.676  11.140   0.767  0.4715  0.2884  0.6144
  548MOL0     N73862   0.639  11.277   0.805 -0.1652 -0.3006  0.0276
  548MOL0     C73863   0.642  11.385   0.720  0.4490 -0.1852  0.3044
  548MOL0     C73864   0.568  11.480   0.775 -0.1834  0.1837  0.1229
  548MOL0     C73865   0.540  11.611   0.704 -0.1180 -0.2663 -1.0392
  548MOL0     C73866   0.394  11.628   0.661  0.1554  0.2481  0.0535
  548MOL0     C73867   0.382  11.528   0.547  0.4524 -0.0795 -0.0159
  548MOL0     C73868   0.245  11.554   0.479  0.3222  0.0008  0.5180
  548MOL0     O73869   0.228  11.684   0.424 -0.6245 -0.1292 -0.5760
  548MOL0     C73870   0.113  11.713   0.356 -0.3770 -0.0756  0.1046
  548MOL0     C73871   0.113  11.844   0.312 -0.0712  0.1647 -0.4745
  548MOL0     C73872   0.005  11.886   0.240  0.0112 -0.6689 -0.6401
  548MOL0     C73873   0.012  12.020   0.172  0.4439 -0.5034 -0.2998
  548MOL0     C73874  -0.093  11.801   0.193 -0.5301 -0.2013 -0.1544
  548MOL0     C73875  -0.203  11.852   0.109  0.0211 -0.6383  0.3263
  548MOL0     O73876  -0.201  11.820  -0.022 -0.1614  0.7569  0.0359
  548MOL0     C73877  -0.319  11.835  -0.085  1.1658 -0.1180 -0.6108
  548MOL0     C73878  -0.414  11.733  -0.070 -1.1728  0.7250 -0.1848
  548MOL0     C73879  -0.528  11.723  -0.150 -0.4132 -0.4577  0.4977
  548MOL0     C73880  -0.562  11.837  -0.231 -0.4811 -0.7114 -0.2929
  548MOL0     O73881  -0.669  11.836  -0.309  0.4978 -0.1043  0.2411
  548MOL0     C73882  -0.753  11.960  -0.303 -0.0238  0.0718  0.3378
  548MOL0     C73883  -0.897  11.923  -0.340 -0.0573  0.6279 -0.8951
  548MOL0     C73884  -0.966  11.851  -0.227  0.3816 -0.7095  0.1256
  548MOL0     C73885  -1.117  11.867  -0.241 -0.0119 -0.0632 -0.2174
  548MOL0     C73886  -1.202  11.805  -0.127 -0.2784  0.5400  0.1630
  548MOL0     C73887  -1.352  11.825  -0.144  0.7913 -0.3896 -0.2217
  548MOL0     C73888  -1.419  11.774  -0.018  0.7948 -0.0498 -0.2557
  548MOL0     C73889  -1.576  11.791  -0.022 -0.8458  0.9455  0.4411
  548MOL0    Cl73890  -1.645  11.670   0.079  0.0032  0.4414  0.5022
  548MOL0     C73891  -0.472  11.951  -0.238  0.1045 -0.2412 -0.4154
  548MOL0     C73892  -0.350  11.951  -0.162  0.4285  0.4938  0.3064
  548MOL0     O73893  -0.283  11.931   0.167 -0.2089 -0.0763  0.7130
  548MOL0     C73894  -0.088  11.671   0.233  0.1718 -0.0325  0.3982
  548MOL0     C73895   0.007  11.626   0.314 -0.2208 -0.3199 -0.0202
  548MOL0     N73896   0.505  11.432   0.892 -0.5611 -0.5976  0.3485
  548MOL0     N73897   0.549  11.309   0.901  0.8276 -0.3782 -0.1360
  548MOL0     C73898   1.187  10.427   0.050 -0.0419  0.2635 -0.5072
  548MOL0     C73899   1.303  10.435  -0.027 -1.4219  0.0024 -0.1609
  548MOL0     C73900   1.775  10.387  -0.070 -0.6034 -0.2282  0.2318
  548MOL0     C73901   1.865  10.281  -0.071 -0.3353  0.7271 -0.4298
  548MOL0     C73902   1.984  10.282  -0.138  0.9451 -0.4095 -0.3115
  548MOL0     C73903   2.019  10.400  -0.207  0.0402  0.1665 -0.2103
  548MOL0     O73904   2.140  10.425  -0.268  0.1303 -0.1744 -0.2145
  548MOL0     C73905   2.235  10.319  -0.251  0.0161  0.3056  0.3855
  548MOL0     C73906   2.352  10.348  -0.352 -0.2660  0.2567  0.2433
  548MOL0     C73907   2.401  10.486  -0.349 -0.2545 -0.4681  0.4762
  548MOL0     C73908   2.428  10.543  -0.201  0.3072  0.2273  0.1576
  548MOL0     C73909   2.455  10.686  -0.225  1.3488 -0.0010 -0.3007
  548MOL0     C73910   2.477  10.802  -0.260 -0.9533  0.4059 -0.1079
  548MOL0     C73911   1.923  10.505  -0.214 -0.7673  0.9532  0.1080
  548MOL0     C73912   1.800  10.498  -0.156  0.7521  0.0398 -0.9585
  548MOL0     H73913   1.508  10.538   0.230  1.4601  2.2485 -0.2635
  548MOL0     H73914   1.315  10.536   0.347  0.9864  2.2116 -0.7217
  548MOL0     H73915   1.107  10.602   0.433 -0.1999 -0.0990  0.4813
  548MOL0     H73916   1.056  10.684   0.280  2.6277 -0.0851 -0.9823
  548MOL0     H73917   0.826  10.550   0.330 -1.1722 -1.9579  3.0460
  548MOL0     H73918   0.905  10.525   0.480  0.3350  2.1338  3.0449
  548MOL0     H73919   0.927  10.806   0.386 -1.5537  3.9036  2.9933
  548MOL0     H73920   0.768  10.768   0.387  0.0986 -1.2958 -1.3231
  548MOL0     H73921   0.773  10.739   0.632 -0.3788  1.9975  2.0612
  548MOL0     H73922   0.948  10.720   0.626  1.1201  0.9926  0.1068
  548MOL0     H73923   0.952  10.979   0.556 -0.0228 -1.5148 -0.1424
  548MOL0     H73924   0.781  10.964   0.545  1.0245  1.4885 -0.6581
  548MOL0     H73925   0.774  10.920   0.798 -0.9031  3.0507  0.9466
  548MOL0     H73926   0.948  10.959   0.798 -0.5200 -0.6420  1.6647
  548MOL0     H73927   0.858  11.158   0.850 -1.5504 -1.2269  1.8340
  548MOL0     H73928   0.871  11.178   0.672 -0.6489 -0.0056 -0.3142
  548MOL0     H73929   0.638  11.072   0.844  2.1649 -2.3605 -0.7382
  548MOL0     H73930   0.615  11.116   0.680  0.9299  3.4987 -0.7406
  548MOL0     H73931   0.700  11.385   0.628  0.3579  0.1120  0.2478
  548MOL0     H73932   0.558  11.687   0.781 -0.9813 -2.8202  1.9041
  548MOL0     H73933   0.609  11.620   0.620  0.4819  0.7669 -0.4646
  548MOL0     H73934   0.382  11.732   0.630  0.1472  0.2781  0.1561
  548MOL0     H73935   0.326  11.607   0.744  3.1142 -0.3673  2.5060
  548MOL0     H73936   0.381  11.422   0.572 -0.8318 -0.3906 -1.2300
  548MOL0     H73937   0.458  11.548   0.472 -0.2522  1.0147 -0.4691
  548MOL0     H73938   0.170  11.551   0.559 -0.3181  1.0295 -0.0162
  548MOL0     H73939   0.223  11.477   0.404 -0.6881  0.5910  0.1787
  548MOL0     H73940   0.198  11.908   0.331 -0.4595  0.1296  1.6099
  548MOL0     H73941   0.035  12.002   0.067  0.7279 -0.4754 -0.2442
  548MOL0     H73942  -0.079  12.078   0.187  0.5550 -0.6508  1.1416
  548MOL0     H73943   0.095  12.082   0.208 -1.1987  1.1328  0.9053
  548MOL0     H73944  -0.398  11.658   0.007 -1.0261  2.7855  1.8851
  548MOL0     H73945  -0.574  11.625  -0.156  3.6961 -2.6101  0.9037
  548MOL0     H73946  -0.739  12.014  -0.208  1.6916  0.4770 -0.1040
  548MOL0     H73947  -0.715  12.042  -0.365 -2.6314  2.4987  1.7249
  548MOL0     H73948  -0.950  12.016  -0.361 -0.9445 -0.1218 -2.1057
  548MOL0     H73949  -0.898  11.857  -0.427 -1.3672 -2.3024  1.1711
  548MOL0     H73950  -0.939  11.904  -0.135  2.2021 -0.8004 -0.3194
  548MOL0     H73951  -0.943  11.744  -0.224 -0.4589 -0.8901  2.7761
  548MOL0     H73952  -1.145  11.973  -0.247 -2.0584 -0.5527 -0.1201
  548MOL0     H73953  -1.153  11.832  -0.338  0.5585  0.4317 -0.6161
  548MOL0     H73954  -1.168  11.854  -0.035 -0.2639  0.8483 -0.0060
  548MOL0     H73955  -1.174  11.699  -0.121  0.6831  0.7943  0.2951
  548MOL0     H73956  -1.379  11.928  -0.169  1.7300 -0.2186 -0.5717
  548MOL0     H73957  -1.385  11.765  -0.230  3.1944  0.9563 -2.2288
  548MOL0     H73958  -1.389  11.843   0.061 -0.3646  4.4725 -3.3579
  548MOL0     H73959  -1.379  11.673  -0.003  3.0040  0.6519 -0.9996
  548MOL0     H73960  -1.612  11.787  -0.126 -0.7969  2.0153  0.3697
  548MOL0     H73961  -1.612  11.884   0.022  1.5295  2.1111  0.0902
  548MOL0     H73962  -0.481  12.036  -0.305 -0.2140  0.7663  0.8634
  548MOL0     H73963  -0.277  12.031  -0.166  1.3754 -0.2789  1.5911
  548MOL0     H73964  -0.159  11.600   0.192 -0.2927  0.1541  0.8594
  548MOL0     H73965   0.009  11.521   0.341  1.5727 -0.3064 -0.0239
  548MOL0     H73966   1.096  10.395  -0.000  0.5072  1.7914 -2.6406
  548MOL0     H73967   1.294  10.408  -0.132 -3.0099 -0.3600  0.0488
  548MOL0     H73968   1.841  10.195  -0.009 -1.3582 -0.1379 -1.9722
  548MOL0     H73969   2.049  10.196  -0.126  1.7029 -0.0332 -1.6160
  548MOL0     H73970   2.256  10.317  -0.144 -3.1607 -0.0866  1.1091
  548MOL0     H73971   2.196  10.219  -0.272  2.5175 -0.5924 -0.4260
  548MOL0     H73972   2.322  10.320  -0.454  2.4003  1.6891 -1.0488
  548MOL0     H73973   2.436  10.286  -0.321  1.2514  2.4388  0.7467
  548MOL0     H73974   2.326  10.552  -0.393  0.2517  0.0616  0.3814
  548MOL0     H73975   2.490  10.501  -0.411 -2.1953 -1.5483 -2.7694
  548MOL0     H73976   2.519  10.495  -0.163 -0.1077  0.7835  1.9438
  548MOL0     H73977   2.339  10.528  -0.139  2.0068 -1.2366  2.3981
  548MOL0     H73978   2.508  10.897  -0.299 -1.0498  0.4525 -0.0698
  548MOL0     H73979   1.942  10.600  -0.263  0.1644  1.0861  0.7022
  548MOL0     H73980   1.733  10.583  -0.162  0.8591  0.5709  2.8882
  549MOL0     O73981  11.003   4.924  10.821  0.5300  0.5098 -0.7627
  549MOL0     C73982  11.071   4.892  10.727 -0.3037 -0.2745  0.4123
  549MOL0     O73983  11.025   4.856  10.602  0.2400  0.4020  0.4402
  549MOL0     C73984  10.898   4.881  10.556 -0.1858  0.0425  0.2141
  549MOL0     C73985  10.794   4.787  10.574  0.2118 -0.9940  0.5197
  549MOL0     C73986  10.666   4.818  10.529 -0.7430  0.3560  0.2689
  549MOL0     C73987  10.639   4.939  10.466 -0.4091  0.2559 -0.9118
  549MOL0     O73988  10.517   4.960  10.409  0.8698 -0.1101  0.2876
  549MOL0     C73989  10.413   5.031  10.476  0.0301  0.4879  0.0264
  549MOL0     C73990  10.421   5.177  10.440  0.4289 -0.4203  0.1942
  549MOL0     C73991  10.406   5.210  10.287  0.0274  0.4706  0.3547
  549MOL0     C73992  10.475   5.349  10.257  1.0980 -0.3440  0.7369
  549MOL0     C73993  10.452   5.392  10.110  0.0581 -0.4029 -0.5711
  549MOL0     C73994  10.302   5.401  10.085 -0.1710 -0.4948  0.3140
  549MOL0     C73995  10.274   5.472   9.948  0.5244 -0.2543  0.2778
  549MOL0     C73996  10.122   5.483   9.917  0.2234 -0.0653  0.6742
  549MOL0     N73997  10.057   5.354   9.933 -0.1600 -0.4484 -0.2173
  549MOL0     C73998  10.081   5.236   9.864 -0.2940  0.5839 -1.1338
  549MOL0     C73999  10.006   5.148   9.931  0.0093  0.4026 -1.2474
  549MOL0     C74000   9.995   5.004   9.901  0.8075 -0.8813  0.7547
  549MOL0     C74001   9.961   4.927  10.029  0.4907  0.3094 -0.0477
  549MOL0     C74002   9.952   4.777   9.999 -0.6923 -0.2414 -0.4523
  549MOL0     C74003   9.881   4.701  10.113  0.3845  0.4478 -0.0692
  549MOL0     O74004   9.940   4.738  10.240 -0.5583  0.1035 -0.7037
  549MOL0     C74005  10.048   4.665  10.293  0.0159  0.0253 -0.3143
  549MOL0     C74006  10.056   4.526  10.310 -0.1941  0.0010  0.0209
  549MOL0     C74007  10.165   4.455  10.359  0.4297  0.4091 -0.4294
  549MOL0     C74008  10.151   4.301  10.377 -0.5354 -0.0736  0.0699
  549MOL0     C74009  10.275   4.535  10.392  0.4602  0.6292 -0.1350
  549MOL0     C74010  10.398   4.470  10.448 -0.1721  0.1788 -0.1373
  549MOL0     O74011  10.432   4.363  10.373 -0.8927  0.7933  0.3485
  549MOL0     C74012  10.542   4.296  10.424 -0.6418  0.8007 -1.0276
  549MOL0     C74013  10.522   4.182  10.501  0.0533  0.0058  0.0516
  549MOL0     C74014  10.621   4.115  10.571  0.3206 -0.3350  0.0316
  549MOL0     C74015  10.750   4.173  10.571  1.0079  0.2579 -0.2358
  549MOL0     O74016  10.851   4.116  10.630  0.5162  0.0147  0.3425
  549MOL0     C74017  10.834   4.037  10.748 -1.1277  0.0497  0.3413
  549MOL0     C74018  10.967   4.056  10.836  0.5268  0.4197 -0.7092
  549MOL0     C74019  11.094   4.086  10.765  0.0149  1.3169  0.2715
  549MOL0     C74020  11.214   4.037  10.847  0.4497 -0.5042 -0.2796
  549MOL0     C74021  11.340   4.059  10.768 -0.3893  0.5125  0.0501
  549MOL0     C74022  11.462   3.998  10.838  1.0583 -0.1919 -0.4636
  549MOL0     C74023  11.580   3.995  10.739  0.0945 -0.5343  0.9539
  549MOL0     C74024  11.692   3.893  10.767  0.3326 -0.6509  0.5870
  549MOL0    Cl74025  11.783   3.914  10.921 -0.2798  0.3787 -0.2185
  549MOL0     C74026  10.776   4.284  10.483 -0.2526  0.5661 -0.2656
  549MOL0     C74027  10.674   4.347  10.408  0.4219 -0.5378 -0.5116
  549MOL0     O74028  10.451   4.509  10.550 -0.5968 -0.2090  0.0454
  549MOL0     C74029  10.269   4.678  10.392 -1.1809  0.3193  0.1685
  549MOL0     C74030  10.154   4.738  10.352  0.1907  0.4156 -0.3790
  549MOL0     N74031   9.938   5.208  10.035  0.4046 -0.6028 -0.4733
  549MOL0     N74032   9.973   5.328  10.038 -0.2101 -0.3014 -0.2753
  549MOL0     C74033  10.745   5.032  10.446  0.8042 -0.6785 -0.8106
  549MOL0     C74034  10.877   5.001  10.496  0.4099 -0.1368  0.2360
  549MOL0     C74035  11.215   4.870  10.754 -0.0034 -0.1726 -0.8337
  549MOL0     C74036  11.302   4.859  10.640  0.6377 -0.4176 -0.6025
  549MOL0     C74037  11.446   4.850  10.666  0.3851  0.0166 -0.4274
  549MOL0     C74038  11.494   4.834  10.805  0.2408  0.0948  0.3915
  549MOL0     O74039  11.622   4.802  10.829 -0.3775  0.3243 -0.5437
  549MOL0     C74040  11.728   4.834  10.734  0.1182  0.2932 -0.7825
  549MOL0     C74041  11.856   4.769  10.797  0.3416  0.0518  0.1244
  549MOL0     C74042  11.896   4.842  10.920 -0.3343 -0.6767 -0.2628
  549MOL0     C74043  12.043   4.814  10.959  0.1106 -0.1826 -0.7272
  549MOL0     C74044  12.074   4.676  11.017  0.2167 -0.7847 -0.1195
  549MOL0     C74045  12.102   4.565  11.062 -0.4868  0.2407  0.5388
  549MOL0     C74046  11.410   4.854  10.910  0.4702  0.0067 -0.3161
  549MOL0     C74047  11.275   4.869  10.886 -0.4980  0.4736 -0.1378
  549MOL0     H74048  10.814   4.688  10.615  3.3049 -0.6895  0.0131
  549MOL0     H74049  10.592   4.739  10.532  1.6912 -2.0743  0.3372
  549MOL0     H74050  10.318   4.992  10.437 -0.0942 -2.3702  2.7519
  549MOL0     H74051  10.412   5.005  10.582 -0.3346  1.8533  0.3722
  549MOL0     H74052  10.347   5.234  10.497  0.5206  0.0942 -0.1852
  549MOL0     H74053  10.518   5.214  10.471 -0.5891  1.3560  1.4335
  549MOL0     H74054  10.457   5.139  10.221 -1.9738 -0.3147 -0.4328
  549MOL0     H74055  10.302   5.207  10.255  0.8329  1.3265 -2.5979
  549MOL0     H74056  10.434   5.422  10.328  1.0334  0.5960 -0.2454
  549MOL0     H74057  10.582   5.350  10.278  1.2991  1.0279 -0.2154
  549MOL0     H74058  10.496   5.491  10.096  0.2117 -0.5825 -1.3951
  549MOL0     H74059  10.506   5.318  10.050  1.7790  0.8380 -0.6183
  549MOL0     H74060  10.253   5.303  10.079 -1.8939  0.3803 -4.3496
  549MOL0     H74061  10.248   5.465  10.155  0.9381  0.8514 -0.0201
  549MOL0     H74062  10.330   5.563   9.923 -1.0569  0.9297  0.8992
  549MOL0     H74063  10.306   5.399   9.873 -1.5173 -1.6585  0.6957
  549MOL0     H74064  10.108   5.501   9.810  0.1234 -1.0213  0.5215
  549MOL0     H74065  10.073   5.561   9.976 -0.6303 -0.0432 -0.0468
  549MOL0     H74066  10.152   5.216   9.784  0.6707 -0.4957 -0.0451
  549MOL0     H74067   9.919   4.994   9.823  0.6829 -2.4432  1.0385
  549MOL0     H74068  10.091   4.970   9.861  0.5192  0.1694 -0.9141
  549MOL0     H74069   9.865   4.964  10.064  0.0665 -2.1249  1.6172
  549MOL0     H74070  10.040   4.939  10.103 -0.2573 -0.4530  0.9016
  549MOL0     H74071  10.053   4.734   9.995 -0.9170 -0.9976  1.3132
  549MOL0     H74072   9.900   4.761   9.904 -1.8919  0.0271  0.1397
  549MOL0     H74073   9.872   4.593  10.097 -0.0637  0.6517 -1.2480
  549MOL0     H74074   9.776   4.728  10.123 -0.0091 -1.5116  2.0185
  549MOL0     H74075   9.963   4.478  10.280 -0.9792  0.9799  0.7856
  549MOL0     H74076  10.206   4.245  10.302 -1.0163 -1.7829  0.9316
  549MOL0     H74077  10.190   4.279  10.477 -0.8286  1.1298  0.4613
  549MOL0     H74078  10.047   4.268  10.369 -0.2690 -0.9386  0.0771
  549MOL0     H74079  10.421   4.142  10.505  0.2470 -0.4412  0.6817
  549MOL0     H74080  10.601   4.022  10.623  0.9061 -0.7883 -0.5352
  549MOL0     H74081  10.751   4.074  10.809  0.7803  2.7445  1.5185
  549MOL0     H74082  10.812   3.930  10.736 -1.2266  0.0723  0.3191
  549MOL0     H74083  10.939   4.134  10.908 -0.0283 -1.7240  1.5014
  549MOL0     H74084  10.973   3.967  10.898 -1.3729  0.3016 -0.6379
  549MOL0     H74085  11.107   4.193  10.745  4.5889  0.8647 -0.1250
  549MOL0     H74086  11.097   4.026  10.674 -0.2952  1.1971  0.3395
  549MOL0     H74087  11.211   4.098  10.938 -1.5955 -1.3011  0.2328
  549MOL0     H74088  11.191   3.931  10.864 -0.6233 -0.0628  1.1863
  549MOL0     H74089  11.365   4.163  10.745  1.8180 -0.3991 -2.0778
  549MOL0     H74090  11.317   4.015  10.671  1.7986  1.5659 -1.0104
  549MOL0     H74091  11.488   4.056  10.927  0.7914  0.0370 -0.5345
  549MOL0     H74092  11.433   3.897  10.870 -1.5123  0.8252  0.6639
  549MOL0     H74093  11.629   4.091  10.722  2.0124 -1.4883  0.9353
  549MOL0     H74094  11.537   3.971  10.641 -2.3313  1.0671  1.5121
  549MOL0     H74095  11.759   3.900  10.682 -0.6427  1.2576 -0.0918
  549MOL0     H74096  11.647   3.793  10.764 -0.1982 -0.4153 -2.5756
  549MOL0     H74097  10.880   4.311  10.465  0.0417  1.8482  2.8478
  549MOL0     H74098  10.705   4.426  10.341 -0.1757  0.0181 -0.1438
  549MOL0     H74099  10.352   4.744  10.415 -0.6781 -0.8241  1.8047
  549MOL0     H74100  10.166   4.845  10.357  2.1455  0.2037  4.3161
  549MOL0     H74101  10.733   5.127  10.394  0.8133 -0.5001 -0.4912
  549MOL0     H74102  10.958   5.071  10.480  0.4032 -0.0477  0.5892
  549MOL0     H74103  11.267   4.850  10.538  0.0299  1.7545 -0.6449
  549MOL0     H74104  11.517   4.833  10.585  1.0072  3.1150 -0.6667
  549MOL0     H74105  11.709   4.798  10.632 -2.5900  1.3006 -0.7137
  549MOL0     H74106  11.733   4.943  10.732 -0.3664  0.5932  3.8957
  549MOL0     H74107  11.939   4.788  10.727 -0.2482 -3.4270 -1.7979
  549MOL0     H74108  11.854   4.659  10.799  2.9779 -0.0893 -0.3295
  549MOL0     H74109  11.825   4.839  11.004  0.0782  1.9511  0.2446
  549MOL0     H74110  11.903   4.945  10.884  1.2694 -0.8232 -0.4503
  549MOL0     H74111  12.064   4.884  11.040 -1.0848  0.4810 -0.9697
  549MOL0     H74112  12.109   4.839  10.875  0.7262 -0.1738 -0.2522
  549MOL0     H74113  12.125   4.465  11.093 -1.7768 -0.7183 -1.3497
  549MOL0     H74114  11.436   4.844  11.015 -0.9595 -0.1733  0.0449
  549MOL0     H74115  11.204   4.885  10.966  0.3216  1.2853  0.4452
  550MOL0     O74116   4.864   3.976   8.638 -0.9916 -1.2348 -0.3917
  550MOL0     C74117   4.943   4.006   8.725  0.0665 -0.0907  0.3257
  550MOL0     O74118   4.922   4.094   8.823  0.1000 -0.2366  0.4316
  550MOL0     C74119   4.796   4.135   8.858 -0.4525 -0.5696 -0.3790
  550MOL0     C74120   4.675   4.063   8.876 -0.5494  0.0255 -0.1352
  550MOL0     C74121   4.557   4.124   8.910 -0.4168  0.9562 -0.0159
  550MOL0     C74122   4.550   4.260   8.946 -0.1120 -0.0953 -1.0178
  550MOL0     O74123   4.433   4.318   8.980  0.0481 -0.2751  0.0625
  550MOL0     C74124   4.325   4.308   8.885  1.3648  0.2007 -0.1212
  550MOL0     C74125   4.189   4.347   8.955 -0.1831  0.4832 -0.0377
  550MOL0     C74126   4.154   4.239   9.048  0.4791  0.5985 -0.2641
  550MOL0     C74127   4.044   4.281   9.150  1.0257  0.9117  0.4670
  550MOL0     C74128   3.911   4.340   9.080 -0.5482  0.5283  0.1947
  550MOL0     C74129   3.836   4.223   9.017 -0.0578  0.3170  1.3629
  550MOL0     C74130   3.689   4.253   8.991 -0.0547 -0.8265  0.3190
  550MOL0     C74131   3.656   4.354   8.883 -0.3080  0.5367  0.0853
  550MOL0     N74132   3.658   4.489   8.933  0.1335 -0.3180  0.6190
  550MOL0     C74133   3.561   4.530   9.027 -0.1180 -0.1218  0.4400
  550MOL0     C74134   3.602   4.659   9.050  0.6865  0.3289  0.0644
  550MOL0     C74135   3.537   4.760   9.143 -0.1840  0.4317  0.6694
  550MOL0     C74136   3.413   4.833   9.075 -0.0551 -0.7198 -0.4595
  550MOL0     C74137   3.289   4.734   9.067 -0.0005  0.4239 -0.1582
  550MOL0     C74138   3.202   4.740   9.189 -0.4414 -0.3325 -0.0581
  550MOL0     O74139   3.141   4.874   9.216  0.2270 -0.3203  0.0898
  550MOL0     C74140   3.045   4.875   9.315  0.0363  0.7989  0.2404
  550MOL0     C74141   3.082   4.875   9.453  0.2262  0.5461 -0.8979
  550MOL0     C74142   2.979   4.863   9.545  0.3111  0.0844  0.0862
  550MOL0     C74143   3.025   4.839   9.687 -0.3199 -0.5874 -0.2540
  550MOL0     C74144   2.837   4.869   9.501 -0.5909  0.2340  0.0413
  550MOL0     C74145   2.720   4.859   9.592 -0.9929 -0.5698  0.5791
  550MOL0     O74146   2.590   4.898   9.543 -0.1770 -0.1689  0.7214
  550MOL0     C74147   2.483   4.882   9.616  0.3237  0.6501 -1.3834
  550MOL0     C74148   2.430   4.750   9.662 -1.1986  1.4687  0.2949
  550MOL0     C74149   2.323   4.740   9.743  0.1637 -0.5579 -0.3525
  550MOL0     C74150   2.261   4.853   9.801 -0.6644  0.1866 -0.6737
  550MOL0     O74151   2.156   4.831   9.890 -0.0434  0.1555  1.2206
  550MOL0     C74152   2.092   4.940   9.950  0.0864  0.0842  0.4339
  550MOL0     C74153   2.002   4.891  10.062  0.2794 -0.4776 -0.0116
  550MOL0     C74154   1.865   4.837  10.008  1.3890  0.3964  0.0102
  550MOL0     C74155   1.759   4.783  10.116 -0.4859 -0.2522 -0.1220
  550MOL0     C74156   1.748   4.635  10.139 -0.8271  0.4224 -0.4266
  550MOL0     C74157   1.883   4.564  10.181 -0.0629 -0.2256  0.1401
  550MOL0     C74158   1.926   4.616  10.314 -0.3340  0.2165  0.3861
  550MOL0     C74159   2.059   4.550  10.353 -0.2322  0.1055 -0.2354
  550MOL0    Cl74160   2.185   4.617  10.259 -0.0643 -0.0976  0.3804
  550MOL0     C74161   2.306   4.977   9.756  0.1275  0.0719  0.2508
  550MOL0     C74162   2.414   4.990   9.670  0.3366  0.2008 -0.8919
  550MOL0     O74163   2.738   4.804   9.699 -0.0742 -0.2519 -0.3625
  550MOL0     C74164   2.812   4.898   9.365  0.4316  0.9280 -0.6438
  550MOL0     C74165   2.912   4.897   9.271 -0.3076 -0.7886  0.3731
  550MOL0     N74166   3.710   4.696   8.970  0.2890  0.4386  0.5364
  550MOL0     N74167   3.743   4.594   8.899 -0.6505 -0.1105 -0.2049
  550MOL0     C74168   4.673   4.331   8.948  0.3032  0.0307 -0.5955
  550MOL0     C74169   4.792   4.268   8.910  0.2827 -0.0479 -0.1727
  550MOL0     C74170   5.083   3.961   8.707  0.5066  0.9371 -0.2984
  550MOL0     C74171   5.176   3.953   8.812  0.3016 -0.1672 -0.2965
  550MOL0     C74172   5.308   3.907   8.798  0.7042 -1.3437 -0.0794
  550MOL0     C74173   5.356   3.868   8.678 -0.7375 -0.1070  0.5165
  550MOL0     O74174   5.490   3.825   8.657  0.2536  0.1614 -0.1325
  550MOL0     C74175   5.490   3.683   8.649 -0.1936 -0.0862 -0.6260
  550MOL0     C74176   5.582   3.633   8.762 -0.3335  0.0623  0.5091
  550MOL0     C74177   5.729   3.643   8.715  0.0268  0.2210  0.8028
  550MOL0     C74178   5.828   3.614   8.822  0.1840  0.1570 -0.6367
  550MOL0     C74179   5.833   3.725   8.918  0.7426  0.4221 -0.7242
  550MOL0     C74180   5.847   3.803   9.017 -0.2163 -0.2837  0.0286
  550MOL0     C74181   5.267   3.868   8.571 -0.6466  0.4156 -0.4944
  550MOL0     C74182   5.131   3.908   8.579  0.6420 -0.2889 -0.2448
  550MOL0     H74183   4.680   3.955   8.863  0.9914 -0.1733  1.6276
  550MOL0     H74184   4.467   4.063   8.917  0.0371  0.5000  2.6493
  550MOL0     H74185   4.336   4.380   8.804 -1.0210 -0.8174 -1.4542
  550MOL0     H74186   4.324   4.206   8.844  0.1758  1.1722 -2.7198
  550MOL0     H74187   4.197   4.442   9.008  2.3771 -0.6971  1.8628
  550MOL0     H74188   4.113   4.364   8.878  0.9512  0.6200 -1.1587
  550MOL0     H74189   4.126   4.142   9.007  1.0539 -0.7862  2.4319
  550MOL0     H74190   4.244   4.230   9.109 -0.3349  2.8268  1.4035
  550MOL0     H74191   4.026   4.198   9.219  3.9700  0.1146  0.3741
  550MOL0     H74192   4.081   4.368   9.205  0.0786  1.5297  0.1557
  550MOL0     H74193   3.844   4.384   9.155 -1.4753 -0.3454 -0.0909
  550MOL0     H74194   3.929   4.423   9.012  0.4934 -0.7902 -1.2192
  550MOL0     H74195   3.889   4.178   8.933 -2.5623 -1.5545  0.6431
  550MOL0     H74196   3.819   4.141   9.088 -0.6705 -1.4206 -0.7012
  550MOL0     H74197   3.637   4.163   8.955 -2.1043 -0.5052  2.2311
  550MOL0     H74198   3.637   4.287   9.081  0.5130  1.3998 -0.1535
  550MOL0     H74199   3.561   4.327   8.835  1.1780 -1.4512 -1.9896
  550MOL0     H74200   3.728   4.343   8.802  0.0134 -1.9174  0.6348
  550MOL0     H74201   3.486   4.474   9.081 -1.8430  1.3711 -0.3112
  550MOL0     H74202   3.522   4.704   9.235 -1.4195  2.2131  1.6114
  550MOL0     H74203   3.606   4.844   9.154 -2.1250  2.0133  1.2429
  550MOL0     H74204   3.426   4.863   8.971  1.8155  0.4139  0.0452
  550MOL0     H74205   3.389   4.927   9.125  2.2107 -0.0825 -0.4362
  550MOL0     H74206   3.321   4.631   9.048 -0.0013  0.2310  0.8047
  550MOL0     H74207   3.228   4.764   8.982  0.4389 -1.1758 -1.0836
  550MOL0     H74208   3.274   4.733   9.271  0.0665  0.2026 -0.4559
  550MOL0     H74209   3.121   4.666   9.192 -0.7662  0.0238  1.9421
  550MOL0     H74210   3.186   4.864   9.484 -0.5918 -3.3602  1.0728
  550MOL0     H74211   3.110   4.903   9.714 -1.8202 -0.0132  3.8651
  550MOL0     H74212   2.943   4.872   9.753  0.6140  2.2005 -0.3442
  550MOL0     H74213   3.050   4.735   9.707  4.1558 -0.1486 -2.4626
  550MOL0     H74214   2.477   4.659   9.626 -3.6872  0.2950 -0.2165
  550MOL0     H74215   2.293   4.638   9.768  0.9349 -1.7385 -3.6694
  550MOL0     H74216   2.168   5.009   9.990  0.6699  0.4612 -1.2447
  550MOL0     H74217   2.040   4.997   9.873  0.6758  0.9091  0.6264
  550MOL0     H74218   2.042   4.813  10.127  0.5843  0.1833  0.6052
  550MOL0     H74219   1.984   4.975  10.129 -1.9274 -0.3158 -0.7331
  550MOL0     H74220   1.894   4.762   9.934 -1.4847  2.2641 -3.3156
  550MOL0     H74221   1.819   4.914   9.945 -0.1501 -1.6960 -1.5778
  550MOL0     H74222   1.781   4.841  10.206  0.9056  0.8022 -1.0965
  550MOL0     H74223   1.660   4.813  10.081 -0.6581 -1.4818 -0.7466
  550MOL0     H74224   1.711   4.591  10.046  1.5211  0.7798 -1.6040
  550MOL0     H74225   1.681   4.622  10.224 -0.7657  0.5746 -0.3551
  550MOL0     H74226   1.847   4.461  10.188  0.3233 -0.4972 -1.5268
  550MOL0     H74227   1.963   4.560  10.106 -0.1842 -3.4328  0.0393
  550MOL0     H74228   1.849   4.576  10.381  0.9577 -1.0428  1.1646
  550MOL0     H74229   1.958   4.719  10.327  1.2840 -0.1447 -0.4685
  550MOL0     H74230   2.070   4.442  10.339  0.4891 -0.3105  2.6977
  550MOL0     H74231   2.088   4.576  10.455  2.4197  0.2236 -0.9605
  550MOL0     H74232   2.250   5.068   9.779  0.4456  0.6417 -1.1014
  550MOL0     H74233   2.446   5.091   9.647  0.4737  0.0196 -1.5096
  550MOL0     H74234   2.705   4.895   9.348  0.1997 -0.5987  0.7686
  550MOL0     H74235   2.875   4.905   9.169  1.9931 -4.4876 -0.9348
  550MOL0     H74236   4.673   4.431   8.991  2.0975  0.0400 -0.5421
  550MOL0     H74237   4.885   4.320   8.927 -0.8479  1.4828  1.8893
  550MOL0     H74238   5.147   3.991   8.910  1.8113 -1.9923  0.9407
  550MOL0     H74239   5.372   3.907   8.885  0.9123 -1.2078 -0.2308
  550MOL0     H74240   5.393   3.636   8.668 -1.3227  1.6837 -1.7437
  550MOL0     H74241   5.519   3.650   8.549  0.8085 -0.9779 -0.0630
  550MOL0     H74242   5.563   3.526   8.776 -4.1644  0.8165  2.2029
  550MOL0     H74243   5.562   3.686   8.856 -1.1412 -0.1428  0.4537
  550MOL0     H74244   5.747   3.746   8.683 -1.6813  0.0612 -0.8556
  550MOL0     H74245   5.753   3.581   8.628 -0.6628  0.9997  0.0351
  550MOL0     H74246   5.933   3.596   8.794  0.7854 -1.2872  2.2093
  550MOL0     H74247   5.793   3.521   8.867  0.3688 -1.1624 -3.0238
  550MOL0     H74248   5.858   3.857   9.110  1.3635  1.5165 -1.1229
  550MOL0     H74249   5.301   3.830   8.475 -2.1216  0.1368 -0.9425
  550MOL0     H74250   5.057   3.918   8.500  1.2391  2.3039 -0.5612
  551MOL0     O74251   6.371   2.854   2.487  0.6485  0.4056 -0.0340
  551MOL0     C74252   6.447   2.954   2.477 -0.1825 -0.0701  0.4207
  551MOL0     O74253   6.403   3.074   2.448  0.1770  0.3803 -0.8902
  551MOL0     C74254   6.272   3.116   2.470  1.2778 -0.0616  0.0731
  551MOL0     C74255   6.189   3.094   2.576 -0.0770  0.8464  0.0199
  551MOL0     C74256   6.063   3.158   2.583  0.1597 -0.7154 -1.1147
  551MOL0     C74257   6.024   3.260   2.492 -0.5476 -0.1964  0.6298
  551MOL0     O74258   5.908   3.324   2.521 -0.2973 -0.0095  0.0094
  551MOL0     C74259   5.800   3.319   2.431  0.2631 -0.1857  0.1587
  551MOL0     C74260   5.682   3.234   2.474 -0.2988  0.2915 -0.3770
  551MOL0     C74261   5.547   3.279   2.406 -0.4534  0.7482  0.9550
  551MOL0     C74262   5.433   3.193   2.467 -0.1826  0.2892 -0.1021
  551MOL0     C74263   5.297   3.256   2.448  0.5815 -0.2644 -0.1535
  551MOL0     C74264   5.243   3.251   2.305 -0.7110  0.0953  0.1842
  551MOL0     C74265   5.091   3.289   2.284 -0.1960  0.4796 -0.4554
  551MOL0     C74266   4.992   3.174   2.331  0.0645  0.2772  0.3893
  551MOL0     N74267   4.873   3.169   2.245  0.4016  0.0357 -0.3913
  551MOL0     C74268   4.802   3.276   2.209 -0.3925 -1.2761  0.6132
  551MOL0     C74269   4.702   3.231   2.139  0.0498  0.7604  1.2814
  551MOL0     C74270   4.586   3.303   2.080 -0.1389 -0.5400 -0.0050
  551MOL0     C74271   4.622   3.397   1.963 -0.3598  0.3270 -1.4007
  551MOL0     C74272   4.503   3.428   1.879  0.2825 -0.3158 -0.1194
  551MOL0     C74273   4.563   3.509   1.763  0.4850 -0.9142 -0.1925
  551MOL0     O74274   4.453   3.542   1.676 -0.0446  0.4227  0.5948
  551MOL0     C74275   4.395   3.668   1.680  0.1313  0.9863  0.1246
  551MOL0     C74276   4.301   3.701   1.574 -0.2908  0.2477 -1.1724
  551MOL0     C74277   4.243   3.820   1.557 -0.2734  0.3150 -0.4886
  551MOL0     C74278   4.161   3.850   1.433  0.4135  0.3689 -0.5888
  551MOL0     C74279   4.277   3.921   1.650 -0.8059  0.0922  0.2092
  551MOL0     C74280   4.229   4.055   1.648  0.8017  0.6961  0.6376
  551MOL0     O74281   4.098   4.077   1.626 -0.1443 -0.0502  0.0381
  551MOL0     C74282   4.051   4.203   1.604 -0.6685 -0.8144 -0.4642
  551MOL0     C74283   3.913   4.223   1.617 -0.6357  0.5007  0.5255
  551MOL0     C74284   3.851   4.350   1.592 -0.1893 -0.1094  0.4080
  551MOL0     C74285   3.935   4.457   1.552 -0.0396 -0.1460 -1.2397
  551MOL0     O74286   3.875   4.587   1.542 -0.6048 -0.0766 -0.1470
  551MOL0     C74287   3.961   4.697   1.576  1.0243 -0.6024  0.0516
  551MOL0     C74288   3.880   4.815   1.638 -0.0067 -0.5959 -0.4619
  551MOL0     C74289   3.959   4.939   1.647 -0.3109 -0.3434  1.1487
  551MOL0     C74290   3.961   5.022   1.516 -0.1647  0.5824  0.2439
  551MOL0     C74291   4.052   5.143   1.533  0.6025 -0.5034 -0.7141
  551MOL0     C74292   4.072   5.235   1.408 -0.1132 -0.0764 -0.3925
  551MOL0     C74293   3.967   5.348   1.395  0.5324  0.6074 -0.0966
  551MOL0     C74294   4.011   5.481   1.460  0.2220  0.1105 -0.3909
  551MOL0    Cl74295   4.036   5.476   1.637 -0.0533  0.3245 -0.4894
  551MOL0     C74296   4.073   4.435   1.535 -0.3344  0.3094  0.1272
  551MOL0     C74297   4.128   4.307   1.558  0.5023  0.7349 -0.2521
  551MOL0     O74298   4.316   4.136   1.672 -0.6639 -0.5330 -0.5870
  551MOL0     C74299   4.354   3.886   1.763 -0.0067  0.8153 -0.0629
  551MOL0     C74300   4.415   3.759   1.777 -0.4145 -0.4413 -0.0256
  551MOL0     N74301   4.707   3.087   2.149  0.1824 -0.6888  0.7442
  551MOL0     N74302   4.818   3.052   2.200 -0.3810 -0.4398 -0.1715
  551MOL0     C74303   6.101   3.288   2.382 -0.4752 -0.7734 -0.1845
  551MOL0     C74304   6.229   3.216   2.373  0.8524 -0.1875 -0.5173
  551MOL0     C74305   6.589   2.920   2.494 -0.3278 -0.7601 -0.4619
  551MOL0     C74306   6.677   3.015   2.433  0.3289  0.3332  0.2313
  551MOL0     C74307   6.809   2.998   2.447  0.3059 -0.0883 -0.5845
  551MOL0     C74308   6.854   2.890   2.520  0.2352  0.2300  0.0853
  551MOL0     O74309   6.989   2.876   2.554 -0.4587  0.1520  0.2031
  551MOL0     C74310   7.086   2.925   2.457 -1.4490  0.8097 -0.6119
  551MOL0     C74311   7.226   2.890   2.511  0.1362 -1.1459  0.2850
  551MOL0     C74312   7.246   2.741   2.557 -0.2491  0.6872 -0.0132
  551MOL0     C74313   7.400   2.707   2.551  0.5570  0.1732 -0.1984
  551MOL0     C74314   7.420   2.573   2.612 -0.7558  0.1892  0.1441
  551MOL0     C74315   7.444   2.461   2.650 -0.0749 -0.9025  0.7177
  551MOL0     C74316   6.776   2.793   2.579  0.3690 -0.7741  0.3757
  551MOL0     C74317   6.637   2.809   2.567  0.4117 -0.2572  0.7046
  551MOL0     H74318   6.214   3.011   2.641 -1.0744  2.4775  2.6553
  551MOL0     H74319   5.988   3.125   2.654  0.8529 -0.6014 -0.3150
  551MOL0     H74320   5.758   3.420   2.423 -0.7286 -0.7012 -1.8470
  551MOL0     H74321   5.826   3.278   2.333  2.4605 -3.0954  1.8160
  551MOL0     H74322   5.704   3.133   2.438 -0.9391  1.0505 -3.1757
  551MOL0     H74323   5.681   3.224   2.583  3.4639  1.8194 -0.0510
  551MOL0     H74324   5.531   3.388   2.406 -1.5246  0.6089  0.2166
  551MOL0     H74325   5.564   3.250   2.302 -2.6937 -2.2716  1.2814
  551MOL0     H74326   5.433   3.093   2.423  1.4361  1.0723 -2.0348
  551MOL0     H74327   5.454   3.177   2.574  1.6599  2.0398 -0.1291
  551MOL0     H74328   5.221   3.198   2.502 -0.3760 -2.9322 -4.0007
  551MOL0     H74329   5.312   3.359   2.482  1.5646 -0.6711  0.7173
  551MOL0     H74330   5.305   3.328   2.257  0.1886 -0.8867 -0.2625
  551MOL0     H74331   5.257   3.155   2.255 -1.7042  1.6710 -3.5309
  551MOL0     H74332   5.067   3.390   2.319 -3.7318  0.1848 -1.6716
  551MOL0     H74333   5.072   3.282   2.177 -0.4320 -1.4716 -0.3364
  551MOL0     H74334   4.969   3.214   2.430  2.3244  1.8425  0.3791
  551MOL0     H74335   5.046   3.079   2.340 -1.0377 -0.3264  0.8244
  551MOL0     H74336   4.832   3.379   2.229 -3.1507 -0.7651  2.7872
  551MOL0     H74337   4.517   3.227   2.040  0.0393 -0.0911 -1.1982
  551MOL0     H74338   4.536   3.366   2.154  1.0151  0.1765  0.1791
  551MOL0     H74339   4.707   3.349   1.912  2.6626  2.4284  1.2677
  551MOL0     H74340   4.660   3.486   2.014  1.3748 -0.6751 -0.8676
  551MOL0     H74341   4.435   3.483   1.944 -0.2417 -0.9368 -0.1292
  551MOL0     H74342   4.451   3.337   1.846  1.0787 -0.6096 -0.6161
  551MOL0     H74343   4.635   3.442   1.714 -0.0097 -1.9973  0.5341
  551MOL0     H74344   4.624   3.596   1.791  2.4368 -2.0970 -0.5812
  551MOL0     H74345   4.267   3.623   1.506 -1.9613 -2.9839  2.9141
  551MOL0     H74346   4.166   3.955   1.404 -1.2931  0.6064 -0.1498
  551MOL0     H74347   4.191   3.784   1.351 -0.8477 -1.7665  0.5847
  551MOL0     H74348   4.056   3.830   1.453 -0.2190  0.8493 -3.1276
  551MOL0     H74349   3.851   4.139   1.645  0.5231 -0.0819  1.4466
  551MOL0     H74350   3.744   4.363   1.604 -0.9141 -0.1599 -4.2111
  551MOL0     H74351   4.040   4.671   1.647  1.3870 -0.9376 -0.4708
  551MOL0     H74352   4.009   4.730   1.483  4.0600 -3.0253  0.5689
  551MOL0     H74353   3.809   4.835   1.557  1.1790  1.8364 -1.0059
  551MOL0     H74354   3.834   4.771   1.727  1.2660 -0.2405  0.3925
  551MOL0     H74355   4.064   4.919   1.672  0.0937 -0.4509 -0.4798
  551MOL0     H74356   3.929   5.006   1.727  0.3918  2.4842 -0.8070
  551MOL0     H74357   3.992   4.961   1.431  0.9495 -0.1792  1.1540
  551MOL0     H74358   3.858   5.051   1.490  0.5370  1.7408 -1.3828
  551MOL0     H74359   4.155   5.116   1.558  0.8411  0.8435 -0.1371
  551MOL0     H74360   4.020   5.207   1.616  0.8552  1.3562 -1.9989
  551MOL0     H74361   4.172   5.277   1.425 -1.0615  1.9578  0.4926
  551MOL0     H74362   4.069   5.173   1.318 -2.3542  0.1997 -0.5650
  551MOL0     H74363   3.871   5.322   1.441 -0.6817  3.0741 -1.0816
  551MOL0     H74364   3.948   5.356   1.288 -0.1656  1.0076  0.0505
  551MOL0     H74365   3.932   5.555   1.442 -1.4887 -1.2634  1.1247
  551MOL0     H74366   4.107   5.507   1.415  1.4986 -0.7690  1.6776
  551MOL0     H74367   4.133   4.520   1.504 -2.3716  1.3177 -1.3097
  551MOL0     H74368   4.235   4.304   1.537  0.8283 -4.1245  0.9455
  551MOL0     H74369   4.397   3.971   1.817  0.7218 -1.2859  2.9520
  551MOL0     H74370   4.482   3.739   1.860 -0.8730  0.6157  0.6122
  551MOL0     H74371   6.095   3.373   2.314 -0.7714  0.0146  0.7936
  551MOL0     H74372   6.292   3.243   2.289 -0.1655 -0.3927 -1.3603
  551MOL0     H74373   6.639   3.095   2.371  0.0325  0.9349  1.1533
  551MOL0     H74374   6.884   3.060   2.398 -0.2688  0.4688 -0.7691
  551MOL0     H74375   7.068   2.873   2.363 -3.0389 -0.1838  0.1835
  551MOL0     H74376   7.083   3.033   2.443  0.4365  1.2565  1.7129
  551MOL0     H74377   7.241   2.954   2.599 -1.0124 -0.6273  0.1244
  551MOL0     H74378   7.303   2.924   2.442  1.7639  0.5730  2.7643
  551MOL0     H74379   7.183   2.679   2.492 -1.2942  3.8046 -2.1855
  551MOL0     H74380   7.207   2.732   2.659 -2.4766  2.3806 -0.6157
  551MOL0     H74381   7.447   2.783   2.613 -1.1731  0.0211  1.3934
  551MOL0     H74382   7.446   2.715   2.452 -1.1837  0.5334 -1.0287
  551MOL0     H74383   7.484   2.368   2.686  0.0419 -1.6421 -1.1872
  551MOL0     H74384   6.820   2.719   2.645  0.6819 -1.4809 -0.5945
  551MOL0     H74385   6.561   2.739   2.602 -0.0896 -0.9490 -1.5621
  552MOL0     O74386  11.018   4.143   3.894  0.0146  0.0491  0.1558
  552MOL0     C74387  11.087   4.171   3.993  0.4873  0.2774 -0.3947
  552MOL0     O74388  11.046   4.251   4.098  0.6769  0.7656 -0.7979
  552MOL0     C74389  10.916   4.299   4.098 -1.1922  0.0104 -0.5150
  552MOL0     C74390  10.894   4.431   4.083 -0.9016  0.2212  0.2258
  552MOL0     C74391  10.764   4.480   4.087  0.3267 -0.3425  0.4428
  552MOL0     C74392  10.652   4.401   4.103  0.8195  0.2335 -0.1808
  552MOL0     O74393  10.519   4.455   4.116 -0.0385 -0.3302 -0.8974
  552MOL0     C74394  10.411   4.376   4.163 -0.5399  0.1281  0.0155
  552MOL0     C74395  10.288   4.457   4.197 -0.4958 -0.4665 -0.3163
  552MOL0     C74396  10.164   4.365   4.212 -0.0397  0.0774 -0.3450
  552MOL0     C74397  10.038   4.452   4.226 -0.1712  0.1983  0.2364
  552MOL0     C74398   9.909   4.376   4.259 -0.0800 -0.5181 -0.3695
  552MOL0     C74399   9.789   4.476   4.270 -0.7502  0.0340 -0.5617
  552MOL0     C74400   9.653   4.413   4.313  0.3979  0.4980  0.4715
  552MOL0     C74401   9.573   4.371   4.191 -0.2728  0.7100  0.6881
  552MOL0     N74402   9.510   4.477   4.123  0.7765  0.3608 -0.0659
  552MOL0     C74403   9.546   4.535   4.010  0.6353 -0.7235  0.7882
  552MOL0     C74404   9.484   4.655   4.019 -0.0365 -0.3043  0.3626
  552MOL0     C74405   9.503   4.768   3.917 -0.4433 -0.2205 -0.8645
  552MOL0     C74406   9.411   4.778   3.801 -1.1407  0.0482 -0.0700
  552MOL0     C74407   9.277   4.803   3.857  0.7540  0.5631  0.0423
  552MOL0     C74408   9.166   4.801   3.750 -0.6289  0.0631  0.8494
  552MOL0     O74409   9.187   4.696   3.650 -0.4841  0.3139 -0.1162
  552MOL0     C74410   9.093   4.675   3.558 -0.6373 -0.5449 -0.4259
  552MOL0     C74411   9.096   4.549   3.502 -0.2918 -0.5252  0.7689
  552MOL0     C74412   9.003   4.509   3.410  0.0786  0.4875  0.1846
  552MOL0     C74413   9.026   4.370   3.356 -0.0977 -0.7863  0.0449
  552MOL0     C74414   8.889   4.588   3.388  0.0946 -0.2682 -0.9973
  552MOL0     C74415   8.766   4.540   3.322  0.3745  0.4959 -0.3227
  552MOL0     O74416   8.678   4.637   3.311  1.0328  0.2776  0.2137
  552MOL0     C74417   8.559   4.621   3.233  0.3277  1.3402 -0.4059
  552MOL0     C74418   8.447   4.686   3.280 -0.1537 -0.2016  0.6222
  552MOL0     C74419   8.328   4.689   3.204  0.0779  0.5805 -0.5277
  552MOL0     C74420   8.323   4.611   3.082 -0.3848  0.5823  0.2069
  552MOL0     O74421   8.204   4.619   3.010 -1.2087 -0.6198  0.3364
  552MOL0     C74422   8.188   4.532   2.896 -0.6982  0.8058 -0.5293
  552MOL0     C74423   8.048   4.555   2.837  0.5344  0.3632  0.3326
  552MOL0     C74424   7.928   4.511   2.914  0.4411 -0.3909  0.0707
  552MOL0     C74425   7.809   4.545   2.831  0.5429  0.8941  0.8053
  552MOL0     C74426   7.677   4.554   2.914  0.2645  0.6734  0.5227
  552MOL0     C74427   7.557   4.585   2.817  0.0338  0.5226  0.1567
  552MOL0     C74428   7.430   4.560   2.898 -0.4175  0.2855  1.1611
  552MOL0     C74429   7.307   4.603   2.810  0.6080  0.4606 -0.9017
  552MOL0    Cl74430   7.159   4.551   2.898 -0.0795  0.4514 -0.3050
  552MOL0     C74431   8.432   4.525   3.048 -0.1429  0.6046  1.0257
  552MOL0     C74432   8.547   4.535   3.121 -0.8597 -0.7584  0.6798
  552MOL0     O74433   8.757   4.419   3.287 -0.5514  0.1043  0.2518
  552MOL0     C74434   8.887   4.722   3.447  0.6339 -0.5700 -0.7942
  552MOL0     C74435   8.986   4.761   3.537  0.7027 -0.0219 -0.6034
  552MOL0     N74436   9.408   4.664   4.132  0.4939 -0.7136 -0.6643
  552MOL0     N74437   9.421   4.554   4.193 -0.8897  0.7337 -0.2766
  552MOL0     C74438  10.684   4.267   4.122 -0.6775 -0.4189  0.8488
  552MOL0     C74439  10.815   4.210   4.129  0.4111  0.3635 -0.4015
  552MOL0     C74440  11.226   4.114   3.993  0.2733 -0.1028  0.1898
  552MOL0     C74441  11.292   4.079   3.878 -0.1735  0.8771  0.7996
  552MOL0     C74442  11.434   4.045   3.882  0.2818 -0.2200  0.0600
  552MOL0     C74443  11.498   4.022   4.006  0.3322  0.1013 -0.4064
  552MOL0     O74444  11.622   3.970   4.018  0.5819  0.0892  0.4939
  552MOL0     C74445  11.698   3.926   3.906 -0.3897 -0.3642  0.1113
  552MOL0     C74446  11.651   3.791   3.839 -0.1449 -0.1899 -0.0882
  552MOL0     C74447  11.655   3.688   3.955  0.2158 -0.2750  0.1981
  552MOL0     C74448  11.627   3.549   3.903 -0.4575  0.4902 -0.3675
  552MOL0     C74449  11.652   3.453   4.007  0.9971  0.7850 -0.1025
  552MOL0     C74450  11.650   3.353   4.078  0.3069 -0.7031  0.1771
  552MOL0     C74451  11.427   4.045   4.121 -0.7075 -1.1345 -0.3039
  552MOL0     C74452  11.288   4.092   4.112 -1.3872 -0.2310 -0.3131
  552MOL0     H74453  10.982   4.494   4.085  0.2233 -1.2385 -1.1042
  552MOL0     H74454  10.757   4.589   4.088 -1.5775 -0.4313  1.7545
  552MOL0     H74455  10.390   4.306   4.082 -2.1304  0.4097  0.1493
  552MOL0     H74456  10.439   4.328   4.258  0.7272  0.9381  0.0757
  552MOL0     H74457  10.297   4.524   4.283 -2.4996  0.9428 -1.1247
  552MOL0     H74458  10.264   4.529   4.118  0.1394  1.0323  0.8049
  552MOL0     H74459  10.167   4.289   4.133  1.7825 -1.6791  1.2923
  552MOL0     H74460  10.170   4.304   4.303 -1.2861  0.8762  0.2938
  552MOL0     H74461  10.054   4.520   4.310  0.2725  0.5101 -0.0996
  552MOL0     H74462  10.030   4.503   4.129  0.5110  0.5795  0.3742
  552MOL0     H74463   9.890   4.307   4.176 -0.8049 -0.8919  0.0949
  552MOL0     H74464   9.912   4.314   4.348 -1.1412  1.4818  1.1461
  552MOL0     H74465   9.817   4.551   4.345  0.6999  0.0700 -1.1113
  552MOL0     H74466   9.774   4.536   4.180 -1.3039  0.9177  0.1040
  552MOL0     H74467   9.680   4.333   4.382  0.4827 -1.3786 -1.6435
  552MOL0     H74468   9.600   4.478   4.383 -1.2302 -1.3048  0.9734
  552MOL0     H74469   9.491   4.306   4.223  1.1454 -1.1609  0.7302
  552MOL0     H74470   9.632   4.316   4.116 -0.4250 -2.3828  2.6729
  552MOL0     H74471   9.610   4.494   3.933 -2.7047  0.1645 -2.8113
  552MOL0     H74472   9.500   4.860   3.977 -1.2945 -0.8042  0.0042
  552MOL0     H74473   9.606   4.750   3.885  0.2875 -1.0159  1.6833
  552MOL0     H74474   9.398   4.681   3.752 -3.0376 -0.2006  0.8411
  552MOL0     H74475   9.451   4.854   3.732 -2.9619  0.6474 -0.5143
  552MOL0     H74476   9.262   4.892   3.919  1.4969  0.6574  0.1031
  552MOL0     H74477   9.245   4.720   3.920  0.3594  0.4088 -0.3622
  552MOL0     H74478   9.167   4.896   3.695  0.4664  0.9626  2.3115
  552MOL0     H74479   9.071   4.790   3.803 -1.0587  1.7043  0.4703
  552MOL0     H74480   9.189   4.499   3.525  0.1335  0.6914  1.8055
  552MOL0     H74481   9.023   4.389   3.249 -0.1466  0.0187  0.1837
  552MOL0     H74482   9.114   4.316   3.395  0.7330  0.5762  0.1127
  552MOL0     H74483   8.950   4.300   3.393 -1.9383  2.2728  2.5481
  552MOL0     H74484   8.461   4.740   3.374 -1.5724 -1.3849  1.5613
  552MOL0     H74485   8.248   4.746   3.250  0.7354 -0.1576  1.6242
  552MOL0     H74486   8.260   4.552   2.816 -2.7889  1.9114 -2.2393
  552MOL0     H74487   8.211   4.430   2.928 -1.9180  0.6918  0.0111
  552MOL0     H74488   8.037   4.662   2.818 -1.7700  0.3109  1.1234
  552MOL0     H74489   8.042   4.506   2.739  1.5282  0.4263  0.2273
  552MOL0     H74490   7.925   4.575   3.003  2.2792  1.6301 -1.2071
  552MOL0     H74491   7.940   4.406   2.943  1.8857 -0.3148 -0.1726
  552MOL0     H74492   7.831   4.628   2.763  1.2905  1.0343  1.2048
  552MOL0     H74493   7.793   4.460   2.765  1.7848 -0.2879  1.9639
  552MOL0     H74494   7.680   4.617   3.003  0.4263  0.9596  0.3169
  552MOL0     H74495   7.654   4.451   2.944 -1.6324  1.0547  0.5030
  552MOL0     H74496   7.556   4.688   2.780 -0.7058  0.1856 -0.7836
  552MOL0     H74497   7.575   4.525   2.728  2.4262  0.6758  0.4696
  552MOL0     H74498   7.431   4.622   2.988 -2.7821 -1.1142  2.2466
  552MOL0     H74499   7.420   4.453   2.914  1.4069 -0.4745 -1.9372
  552MOL0     H74500   7.302   4.565   2.707 -2.0763  1.9637 -1.4241
  552MOL0     H74501   7.315   4.712   2.821 -0.0566  0.3647  0.7149
  552MOL0     H74502   8.424   4.448   2.972 -1.6885 -0.3690  2.1346
  552MOL0     H74503   8.631   4.478   3.082  0.0070  1.5997 -1.1822
  552MOL0     H74504   8.812   4.794   3.417  2.7858  2.2204  0.1015
  552MOL0     H74505   8.965   4.860   3.578  1.1532  0.7053 -2.0705
  552MOL0     H74506  10.599   4.201   4.131 -0.5390 -1.1057 -1.9161
  552MOL0     H74507  10.838   4.106   4.146 -0.2110 -0.3246 -3.2784
  552MOL0     H74508  11.233   4.077   3.787  1.3778  3.0361 -0.3620
  552MOL0     H74509  11.484   4.022   3.789  1.1506  1.2970  0.1109
  552MOL0     H74510  11.700   4.009   3.835  0.6664  0.6877  1.3458
  552MOL0     H74511  11.798   3.913   3.947 -1.3158  0.2433  2.7775
  552MOL0     H74512  11.718   3.752   3.762 -0.5250  0.4084 -0.7411
  552MOL0     H74513  11.554   3.816   3.794  0.0994  0.2765 -0.3752
  552MOL0     H74514  11.577   3.700   4.031  0.2873 -0.4637  0.2995
  552MOL0     H74515  11.758   3.696   3.992  1.1052  1.0112 -2.2519
  552MOL0     H74516  11.687   3.529   3.814 -3.5297  0.3069 -2.5328
  552MOL0     H74517  11.521   3.545   3.876 -0.3376 -3.4825 -0.6972
  552MOL0     H74518  11.653   3.278   4.155  0.2353  1.1712  2.1022
  552MOL0     H74519  11.470   4.032   4.220 -1.0078 -0.9292 -0.1456
  552MOL0     H74520  11.234   4.113   4.204 -0.7817 -1.4154  0.3392
  553MOL0     O74521   5.518   5.019   6.554 -0.5625 -0.3033  1.0191
  553MOL0     C74522   5.554   5.083   6.454  0.2743  0.3646  0.1801
  553MOL0     O74523   5.477   5.092   6.339  0.2434  0.1642  1.0641
  553MOL0     C74524   5.341   5.052   6.330 -0.1519  0.0128 -0.0361
  553MOL0     C74525   5.285   4.934   6.373 -0.8906  1.0366  0.0100
  553MOL0     C74526   5.144   4.905   6.335  0.0100  0.8019  0.1743
  553MOL0     C74527   5.054   4.994   6.281  0.0475 -0.5573 -0.9343
  553MOL0     O74528   4.920   4.952   6.257 -0.5699 -0.4864 -0.6009
  553MOL0     C74529   4.830   5.060   6.224  0.4883  0.7857  0.1204
  553MOL0     C74530   4.688   5.000   6.225  0.9133 -0.4883 -0.2996
  553MOL0     C74531   4.588   5.105   6.193 -0.2120 -0.0950  0.2314
  553MOL0     C74532   4.454   5.060   6.249 -0.1344 -0.6451  0.8961
  553MOL0     C74533   4.332   5.145   6.211 -0.2808  0.6439  0.2081
  553MOL0     C74534   4.200   5.108   6.284 -0.2894  0.1111  0.3896
  553MOL0     C74535   4.090   5.223   6.256 -0.8708 -0.2440 -0.0421
  553MOL0     C74536   3.950   5.163   6.297 -0.7072 -0.9242  0.3807
  553MOL0     N74537   3.857   5.272   6.320 -0.7087  0.2831 -0.2727
  553MOL0     C74538   3.740   5.283   6.259 -1.1802 -0.6487  0.4156
  553MOL0     C74539   3.682   5.398   6.304  0.3016  0.8549 -0.5814
  553MOL0     C74540   3.556   5.465   6.258  0.3331  0.2020 -0.3661
  553MOL0     C74541   3.478   5.537   6.372  0.5940 -0.1368 -0.1605
  553MOL0     C74542   3.344   5.591   6.312 -0.0058  0.1955 -0.4302
  553MOL0     C74543   3.287   5.709   6.393  0.1903  0.7535 -0.6731
  553MOL0     O74544   3.165   5.771   6.338 -0.1959 -1.5753  0.3351
  553MOL0     C74545   3.044   5.739   6.398  1.4963  0.4169  0.8236
  553MOL0     C74546   3.007   5.606   6.442 -0.4204  0.0166 -0.4902
  553MOL0     C74547   2.880   5.580   6.490  0.3104 -0.5365 -0.3588
  553MOL0     C74548   2.862   5.441   6.538 -0.7564  0.6117 -1.0644
  553MOL0     C74549   2.789   5.693   6.501 -0.5296 -0.8302  0.7498
  553MOL0     C74550   2.650   5.682   6.548  0.2388  0.3961 -0.9941
  553MOL0     O74551   2.579   5.793   6.590 -0.5503 -0.0533 -0.8985
  553MOL0     C74552   2.453   5.777   6.652 -0.1687  0.4595 -0.0508
  553MOL0     C74553   2.352   5.742   6.566 -0.6082  0.1607 -0.2841
  553MOL0     C74554   2.220   5.737   6.596  0.3226  0.6119  0.0646
  553MOL0     C74555   2.183   5.776   6.725 -0.5607  0.2517 -0.0917
  553MOL0     O74556   2.056   5.805   6.775 -0.3532  0.1442  0.5516
  553MOL0     C74557   1.950   5.816   6.676 -0.7092  0.9647 -0.5309
  553MOL0     C74558   1.963   5.937   6.590  0.6421 -0.8509  0.4882
  553MOL0     C74559   1.947   6.065   6.681  0.6126 -0.7623 -0.5200
  553MOL0     C74560   1.969   6.197   6.588 -0.1240 -0.3129 -0.1014
  553MOL0     C74561   2.104   6.200   6.502  0.1279 -0.8789 -0.0737
  553MOL0     C74562   2.227   6.181   6.579 -0.6006  0.1115  0.7530
  553MOL0     C74563   2.363   6.194   6.522  0.5629 -0.2274  0.6841
  553MOL0     C74564   2.395   6.332   6.481 -0.4644 -0.0185  0.1616
  553MOL0    Cl74565   2.557   6.346   6.409  0.0102 -0.3942  0.0598
  553MOL0     C74566   2.293   5.810   6.816 -0.2314 -0.1053 -0.7811
  553MOL0     C74567   2.430   5.802   6.788  0.4622  0.2222 -0.5004
  553MOL0     O74568   2.603   5.565   6.549  0.0211 -0.1065 -0.0329
  553MOL0     C74569   2.822   5.819   6.444 -0.8020  0.2875  1.2286
  553MOL0     C74570   2.951   5.842   6.397  0.2113  0.6963  0.1592
  553MOL0     N74571   3.768   5.449   6.400 -0.4101  0.1098 -0.1921
  553MOL0     N74572   3.866   5.367   6.413  0.4707 -0.5144 -0.0572
  553MOL0     C74573   5.109   5.119   6.264 -0.1180 -0.8427 -0.1285
  553MOL0     C74574   5.250   5.148   6.281 -0.0426 -0.2832 -1.4541
  553MOL0     C74575   5.678   5.159   6.460 -0.6434  0.9977  0.7911
  553MOL0     C74576   5.768   5.146   6.570  0.1746 -0.7674 -0.0968
  553MOL0     C74577   5.889   5.218   6.575 -0.5031  0.2061  0.0235
  553MOL0     C74578   5.929   5.294   6.458 -0.2068 -0.7170 -0.1218
  553MOL0     O74579   6.055   5.339   6.439 -0.1293 -0.2724  0.4157
  553MOL0     C74580   6.071   5.482   6.426 -0.2953  0.2760  0.2601
  553MOL0     C74581   6.202   5.504   6.353  0.3182  0.1903 -0.0763
  553MOL0     C74582   6.215   5.431   6.216  0.0585 -0.1590 -0.0236
  553MOL0     C74583   6.314   5.483   6.108 -0.4782 -0.0218 -0.0699
  553MOL0     C74584   6.453   5.463   6.154  0.2194  0.8541 -0.8635
  553MOL0     C74585   6.561   5.462   6.195 -0.0664  0.6264 -0.1720
  553MOL0     C74586   5.835   5.313   6.351 -0.1429 -0.4976  0.1219
  553MOL0     C74587   5.713   5.236   6.349  0.1905  0.8481 -0.5186
  553MOL0     H74588   5.340   4.854   6.421 -1.9884 -0.7086 -1.5128
  553MOL0     H74589   5.099   4.809   6.358 -0.2308  1.0312  0.6652
  553MOL0     H74590   4.828   5.138   6.300  0.5835 -0.6931  1.7074
  553MOL0     H74591   4.852   5.099   6.124 -2.0276  0.5807 -0.5862
  553MOL0     H74592   4.681   4.924   6.146 -0.8577 -0.3063 -0.3643
  553MOL0     H74593   4.657   4.962   6.323 -0.1817  2.2872  0.5239
  553MOL0     H74594   4.612   5.194   6.252 -1.6935 -0.8348  2.0827
  553MOL0     H74595   4.579   5.123   6.086 -0.7376  2.4909  0.6323
  553MOL0     H74596   4.431   4.958   6.216 -1.0909 -0.0162 -0.4783
  553MOL0     H74597   4.454   5.060   6.359  1.7145 -0.0586  0.9266
  553MOL0     H74598   4.357   5.252   6.217  1.7065  0.2728 -0.6172
  553MOL0     H74599   4.322   5.118   6.105  0.2740 -3.1403  0.9731
  553MOL0     H74600   4.165   5.012   6.244  2.8276 -0.1682 -2.0625
  553MOL0     H74601   4.220   5.105   6.391  0.5781  0.9305  0.2651
  553MOL0     H74602   4.109   5.320   6.301 -2.8636 -0.7395  2.0219
  553MOL0     H74603   4.091   5.234   6.147  2.2631  2.4848  0.0984
  553MOL0     H74604   3.951   5.101   6.387 -1.9773  0.7840  1.6369
  553MOL0     H74605   3.909   5.097   6.220 -0.6392  0.4634 -0.8828
  553MOL0     H74606   3.699   5.220   6.181  2.2707 -1.6365 -0.8117
  553MOL0     H74607   3.584   5.555   6.203 -1.0020 -0.2540 -1.8494
  553MOL0     H74608   3.489   5.401   6.200  1.3366 -0.2230 -1.0763
  553MOL0     H74609   3.538   5.618   6.414  5.0771 -3.6294  0.9666
  553MOL0     H74610   3.458   5.465   6.452 -0.8868  0.6464  0.2132
  553MOL0     H74611   3.269   5.511   6.312  0.1826  0.0172  0.4201
  553MOL0     H74612   3.353   5.625   6.208 -2.8567 -0.7431 -1.0669
  553MOL0     H74613   3.367   5.778   6.419 -0.7188  0.8828  2.1265
  553MOL0     H74614   3.251   5.662   6.485 -0.4175 -0.2760 -1.4139
  553MOL0     H74615   3.087   5.533   6.436  0.8185  0.7553  3.6701
  553MOL0     H74616   2.812   5.446   6.635  1.1544 -0.2882  0.0298
  553MOL0     H74617   2.809   5.377   6.466 -1.9914 -1.6297  1.6412
  553MOL0     H74618   2.958   5.393   6.558  0.2022  3.0820  0.8000
  553MOL0     H74619   2.395   5.726   6.468  1.0465  0.2791  0.3904
  553MOL0     H74620   2.148   5.710   6.519  1.0052  0.5367 -0.5622
  553MOL0     H74621   1.948   5.725   6.616  0.5777  0.5905 -0.0493
  553MOL0     H74622   1.857   5.828   6.732 -0.6235 -2.8583  0.6896
  553MOL0     H74623   2.060   5.934   6.539  0.1132 -0.1568 -0.5854
  553MOL0     H74624   1.886   5.919   6.515  0.0213  2.3214  0.2592
  553MOL0     H74625   2.020   6.064   6.763 -1.2165  0.0661  1.1823
  553MOL0     H74626   1.848   6.068   6.725 -0.2224 -2.3301 -2.1554
  553MOL0     H74627   1.885   6.204   6.519  0.5479  3.5684 -0.7550
  553MOL0     H74628   1.956   6.286   6.650  2.0028 -1.3588  2.0012
  553MOL0     H74629   2.119   6.299   6.459 -1.0909 -1.3218 -1.6159
  553MOL0     H74630   2.094   6.131   6.418 -1.2078  0.8512 -1.4317
  553MOL0     H74631   2.215   6.246   6.666  1.3913  0.7631  0.5863
  553MOL0     H74632   2.224   6.077   6.610 -0.1251 -0.9319 -2.3395
  553MOL0     H74633   2.366   6.123   6.439 -2.2277  1.4602 -1.0231
  553MOL0     H74634   2.442   6.166   6.593  1.4502  0.6752  0.0864
  553MOL0     H74635   2.395   6.404   6.564  1.3638  1.3109 -0.9187
  553MOL0     H74636   2.319   6.364   6.409 -1.9704  0.0679  1.7319
  553MOL0     H74637   2.262   5.845   6.913  1.9786  1.2497 -0.5023
  553MOL0     H74638   2.496   5.846   6.862 -1.5017  1.7299  0.4711
  553MOL0     H74639   2.741   5.891   6.451 -2.2704 -1.2020  0.3175
  553MOL0     H74640   2.968   5.941   6.356  3.2290 -0.0329 -0.5688
  553MOL0     H74641   5.048   5.194   6.216 -0.8028  0.1094  2.1047
  553MOL0     H74642   5.278   5.251   6.264 -1.3191  0.0345 -1.7498
  553MOL0     H74643   5.739   5.086   6.656 -2.0241 -0.4862 -0.5814
  553MOL0     H74644   5.959   5.207   6.657  0.6055 -0.8276 -1.0033
  553MOL0     H74645   5.991   5.532   6.370  1.4052  1.8146 -0.8922
  553MOL0     H74646   6.076   5.535   6.522 -3.4620  2.7387 -0.7206
  553MOL0     H74647   6.281   5.467   6.419 -1.8547 -0.6170  2.2933
  553MOL0     H74648   6.223   5.610   6.337  0.4217  0.2265  0.2910
  553MOL0     H74649   6.116   5.436   6.171  0.3284 -2.9876 -1.1538
  553MOL0     H74650   6.227   5.323   6.232  1.9643 -0.0509 -0.4937
  553MOL0     H74651   6.296   5.590   6.099 -0.0612 -0.0395 -1.3188
  553MOL0     H74652   6.299   5.443   6.007 -3.2325  1.6075 -0.4122
  553MOL0     H74653   6.662   5.456   6.231 -0.1431 -1.2341 -0.1386
  553MOL0     H74654   5.846   5.369   6.259 -0.4263 -0.6389  0.0001
  553MOL0     H74655   5.648   5.255   6.265  0.3639  2.6172 -0.2870
  554MOL0     O74656   6.602  10.148   2.034 -0.3391 -0.0373  0.6232
  554MOL0     C74657   6.643  10.045   2.087 -0.4299  0.6838  0.2020
  554MOL0     O74658   6.568   9.946   2.143 -0.0947  0.3892 -0.2856
  554MOL0     C74659   6.434   9.926   2.142 -0.5758  0.8194 -0.5845
  554MOL0     C74660   6.347  10.036   2.156  0.4088  0.7174 -0.0356
  554MOL0     C74661   6.210  10.015   2.135 -0.0018 -0.4541  0.1353
  554MOL0     C74662   6.153   9.884   2.125  1.3566  0.0585 -0.2483
  554MOL0     O74663   6.020   9.855   2.142  0.3019 -0.6027  0.8738
  554MOL0     C74664   5.931   9.943   2.069  0.3956  0.2555 -0.0341
  554MOL0     C74665   5.821   9.874   1.996 -0.0433 -0.5033  0.8718
  554MOL0     C74666   5.698   9.969   1.963 -0.4244  0.2550 -0.0280
  554MOL0     C74667   5.584   9.884   1.899 -0.1325  0.2536 -0.3646
  554MOL0     C74668   5.470   9.970   1.838 -0.2943  1.6209  0.2297
  554MOL0     C74669   5.374  10.017   1.954  0.4065 -0.6127 -0.0147
  554MOL0     C74670   5.268  10.105   1.905  0.2029 -0.6709 -0.7838
  554MOL0     C74671   5.176  10.139   2.015 -0.4809 -0.4122 -0.9797
  554MOL0     N74672   5.045  10.190   1.963 -0.3877  0.2490 -1.1240
  554MOL0     C74673   4.954  10.250   2.047  0.6281 -0.6405 -0.9261
  554MOL0     C74674   4.861  10.301   1.962  0.4350  0.3282  0.4164
  554MOL0     C74675   4.736  10.370   2.000 -0.4704  0.8781  0.1345
  554MOL0     C74676   4.647  10.296   2.099 -0.2920 -0.5798  0.2794
  554MOL0     C74677   4.527  10.395   2.123 -0.3453  0.1201  0.0875
  554MOL0     C74678   4.430  10.344   2.226 -1.5372 -0.0829  0.1401
  554MOL0     O74679   4.334  10.438   2.249 -0.4206  0.4673  0.0832
  554MOL0     C74680   4.207  10.392   2.274  0.6291 -0.8176  0.4654
  554MOL0     C74681   4.098  10.477   2.235  0.3585  0.7831 -0.2804
  554MOL0     C74682   3.965  10.453   2.265 -0.7822  0.2739 -0.0870
  554MOL0     C74683   3.870  10.550   2.203 -0.1999  0.3648 -0.0749
  554MOL0     C74684   3.936  10.338   2.341 -0.0655  1.4886 -0.2466
  554MOL0     C74685   3.804  10.305   2.403  0.2981  0.2602 -0.5488
  554MOL0     O74686   3.782  10.198   2.482  0.7672  0.5357 -1.1459
  554MOL0     C74687   3.652  10.174   2.524  1.0138  0.7885 -0.2632
  554MOL0     C74688   3.591  10.229   2.636 -0.0146  0.5365  0.1768
  554MOL0     C74689   3.467  10.182   2.687 -0.2344 -0.3276  0.4491
  554MOL0     C74690   3.405  10.081   2.613  0.4939  0.3313  0.2857
  554MOL0     O74691   3.285  10.029   2.660  0.5152  1.6406  0.1138
  554MOL0     C74692   3.204   9.953   2.570 -0.0313 -0.6051  0.2692
  554MOL0     C74693   3.145  10.034   2.448 -0.7650 -0.4719 -0.5226
  554MOL0     C74694   3.057   9.945   2.362  0.1170 -0.3852 -0.3753
  554MOL0     C74695   2.979  10.039   2.265 -0.4827  0.2823 -0.4225
  554MOL0     C74696   2.881   9.961   2.192 -0.3837 -0.5963 -0.4398
  554MOL0     C74697   2.932   9.864   2.089 -0.4846 -0.0216  0.2769
  554MOL0     C74698   2.825   9.768   2.035 -0.6595 -0.0176 -0.2036
  554MOL0     C74699   2.886   9.638   1.980 -0.3180 -0.6896 -0.1392
  554MOL0    Cl74700   2.757   9.522   1.944  0.3129  0.1737  0.4595
  554MOL0     C74701   3.469  10.015   2.500 -0.0809 -0.6257 -0.8124
  554MOL0     C74702   3.595  10.059   2.462 -1.4020  0.2407 -0.9017
  554MOL0     O74703   3.715  10.377   2.362 -0.1795  0.5416  0.9119
  554MOL0     C74704   4.034  10.240   2.372  0.5138 -0.5942 -0.6089
  554MOL0     C74705   4.165  10.279   2.345  0.4876 -0.2841 -0.4042
  554MOL0     N74706   4.909  10.284   1.832  0.7071  0.5167 -0.0529
  554MOL0     N74707   5.009  10.208   1.839 -0.2632  0.3499  0.0193
  554MOL0     C74708   6.233   9.771   2.132 -0.2273  0.8201  0.3352
  554MOL0     C74709   6.373   9.795   2.134 -1.1954  0.4784  0.3300
  554MOL0     C74710   6.795  10.020   2.073 -0.0097 -0.3814  0.2381
  554MOL0     C74711   6.867  10.066   1.967  0.3795  0.1229 -0.0222
  554MOL0     C74712   7.003  10.035   1.954 -0.0961  0.9923 -0.9988
  554MOL0     C74713   7.069   9.948   2.047  0.4891 -0.9807 -0.6151
  554MOL0     O74714   7.203   9.924   2.058  0.9096 -0.3858 -0.5735
  554MOL0     C74715   7.287  10.017   1.991 -0.7574  0.1261 -0.5816
  554MOL0     C74716   7.297  10.156   2.064 -0.2566  0.1441  0.1430
  554MOL0     C74717   7.346  10.271   1.978  0.1568  0.0000 -0.6703
  554MOL0     C74718   7.463  10.234   1.879 -0.1532 -0.1339 -0.5470
  554MOL0     C74719   7.573  10.173   1.959 -0.4022  0.0328  0.2494
  554MOL0     C74720   7.672  10.127   2.016  1.1828 -0.2716  0.5784
  554MOL0     C74721   6.995   9.903   2.148  0.1838  1.3279 -0.6717
  554MOL0     C74722   6.865   9.949   2.170 -0.3164  0.0532  0.5553
  554MOL0     H74723   6.398  10.131   2.168  1.5298  0.0352  0.7649
  554MOL0     H74724   6.142  10.099   2.122 -0.0162 -0.2598  1.3336
  554MOL0     H74725   5.884  10.004   2.146  2.0134 -0.2376  1.3972
  554MOL0     H74726   5.972  10.015   1.997 -0.5366 -0.6620 -1.5357
  554MOL0     H74727   5.862   9.848   1.898 -0.1573  1.6204  0.2061
  554MOL0     H74728   5.807   9.782   2.053  3.1997 -0.4168  1.9913
  554MOL0     H74729   5.658  10.012   2.056 -3.3338 -1.9267 -0.1230
  554MOL0     H74730   5.724  10.057   1.904 -1.0076 -0.2404 -1.0455
  554MOL0     H74731   5.633   9.825   1.822 -0.7376 -1.9202  0.8433
  554MOL0     H74732   5.538   9.811   1.967  2.2760  1.2889  2.6339
  554MOL0     H74733   5.511  10.054   1.780  1.5315 -0.4337 -1.6589
  554MOL0     H74734   5.414   9.909   1.767 -0.7162  1.1482  0.9558
  554MOL0     H74735   5.328   9.929   1.999  1.4718 -3.3507 -3.7851
  554MOL0     H74736   5.432  10.068   2.032 -0.6545 -1.2100  1.1944
  554MOL0     H74737   5.302  10.196   1.854  2.5043 -1.0240 -0.0151
  554MOL0     H74738   5.212  10.047   1.831  1.5714 -0.1405 -2.3110
  554MOL0     H74739   5.230  10.214   2.074  0.7761  0.1164 -2.7131
  554MOL0     H74740   5.153  10.057   2.083 -0.4156  0.4197  0.0563
  554MOL0     H74741   4.974  10.248   2.154  3.0351 -0.8091 -1.3058
  554MOL0     H74742   4.774  10.460   2.049 -0.0291 -0.6268  2.7342
  554MOL0     H74743   4.677  10.383   1.909 -0.9935 -1.7499  0.0280
  554MOL0     H74744   4.699  10.275   2.193  0.6938  0.6163  0.0335
  554MOL0     H74745   4.621  10.197   2.061  1.7665 -0.9668 -0.2404
  554MOL0     H74746   4.474  10.412   2.028  0.3983  3.0681  0.0939
  554MOL0     H74747   4.558  10.494   2.158 -0.4601  1.6879 -3.7381
  554MOL0     H74748   4.486  10.326   2.318 -0.9987  4.2083  0.8779
  554MOL0     H74749   4.385  10.251   2.190  1.6051 -1.0266 -1.8134
  554MOL0     H74750   4.131  10.562   2.176  0.1725  0.3481 -1.0256
  554MOL0     H74751   3.916  10.612   2.125  2.0619 -2.4828 -1.1585
  554MOL0     H74752   3.782  10.492   2.174  0.3503 -1.2287  1.3006
  554MOL0     H74753   3.843  10.622   2.281 -0.0543  0.6845 -0.3164
  554MOL0     H74754   3.651  10.309   2.677 -0.8810  1.4826 -0.3675
  554MOL0     H74755   3.436  10.212   2.786  2.2986 -2.0431  1.8836
  554MOL0     H74756   3.253   9.859   2.544  1.1153  0.2052 -0.6496
  554MOL0     H74757   3.121   9.926   2.635 -0.0473 -0.0068  0.5046
  554MOL0     H74758   3.093  10.127   2.475  0.2851  0.7438 -2.4758
  554MOL0     H74759   3.236  10.067   2.399  0.8060 -1.6887  1.4158
  554MOL0     H74760   2.991   9.893   2.432  2.3836 -1.3664  1.1334
  554MOL0     H74761   3.107   9.863   2.311 -3.0496 -1.7151 -1.5939
  554MOL0     H74762   2.927  10.112   2.329  0.1537 -1.8303  2.7447
  554MOL0     H74763   3.046  10.095   2.199 -4.1317  1.9392 -3.0369
  554MOL0     H74764   2.814  10.034   2.146  0.3645 -0.2156 -0.9306
  554MOL0     H74765   2.822   9.910   2.269  1.3659 -0.8619  0.7773
  554MOL0     H74766   2.987   9.913   2.009 -0.0353  0.0378  0.6191
  554MOL0     H74767   3.012   9.804   2.132 -0.6984  0.2844  1.1194
  554MOL0     H74768   2.762   9.820   1.962  0.3644  2.7675  0.7779
  554MOL0     H74769   2.757   9.740   2.116 -2.1035 -0.5016 -1.5224
  554MOL0     H74770   2.957   9.582   2.042  0.7042  0.2506 -0.4405
  554MOL0     H74771   2.942   9.657   1.888  0.1378  1.9558  0.6216
  554MOL0     H74772   3.428   9.920   2.466 -0.1530 -0.8149 -0.2286
  554MOL0     H74773   3.659  10.004   2.394 -0.5579  1.1281 -0.8555
  554MOL0     H74774   4.011  10.155   2.435 -1.3553  2.1398  2.7749
  554MOL0     H74775   4.251  10.218   2.372  1.8210  1.2346 -1.0148
  554MOL0     H74776   6.195   9.670   2.122 -2.8205  1.8047 -0.5319
  554MOL0     H74777   6.439   9.710   2.118 -2.1895  0.1241 -2.5119
  554MOL0     H74778   6.830  10.133   1.890  0.5866 -2.5029 -2.6173
  554MOL0     H74779   7.062  10.085   1.878  0.4556  0.1599 -1.1334
  554MOL0     H74780   7.385   9.970   1.992 -1.0164 -0.4257  0.1656
  554MOL0     H74781   7.261  10.032   1.886 -2.6406 -0.2750 -0.2193
  554MOL0     H74782   7.349  10.154   2.161 -1.8271  0.6326  1.0317
  554MOL0     H74783   7.195  10.191   2.083 -0.9470 -2.8106  2.7659
  554MOL0     H74784   7.382  10.353   2.041 -0.3566 -0.3312  0.0713
  554MOL0     H74785   7.264  10.304   1.914 -0.2874  1.1111  0.4355
  554MOL0     H74786   7.501  10.323   1.828  2.9822 -1.4437 -0.6820
  554MOL0     H74787   7.415  10.162   1.813  0.6003  0.6830 -2.0369
  554MOL0     H74788   7.758  10.077   2.056  1.4365 -0.4388 -0.1691
  554MOL0     H74789   7.041   9.830   2.214 -1.5602 -0.1047 -0.9521
  554MOL0     H74790   6.814   9.916   2.260  0.2704 -0.0562  0.8474
  555MOL0     O74791   4.500   7.852  11.230 -0.3639 -0.4537  0.6177
  555MOL0     C74792   4.453   7.872  11.120  0.0056 -0.6489  0.4659
  555MOL0     O74793   4.341   7.947  11.095  0.0680  0.0867  0.4807
  555MOL0     C74794   4.275   8.015  11.196  0.3637 -0.4290 -0.1249
  555MOL0     C74795   4.228   7.958  11.313  0.1799 -0.7087 -0.4871
  555MOL0     C74796   4.150   8.023  11.408  0.6397  0.0059 -0.1696
  555MOL0     C74797   4.101   8.161  11.377 -0.2267  1.1014 -0.2030
  555MOL0     O74798   4.029   8.226  11.473  0.0971  0.4097  1.1609
  555MOL0     C74799   3.952   8.346  11.424  1.3134 -0.0313 -0.5121
  555MOL0     C74800   3.844   8.400  11.520 -0.6868 -0.4284 -0.8420
  555MOL0     C74801   3.736   8.288  11.552  0.5192  0.1233  0.1517
  555MOL0     C74802   3.612   8.356  11.618  0.3541 -0.3877  0.0828
  555MOL0     C74803   3.517   8.261  11.680  0.7909 -0.0212 -0.6399
  555MOL0     C74804   3.386   8.320  11.743  0.5637 -0.0809  1.3968
  555MOL0     C74805   3.309   8.214  11.826  0.8641  0.0620 -0.6949
  555MOL0     C74806   3.382   8.201  11.967  0.4400  0.0166  0.3858
  555MOL0     N74807   3.481   8.091  11.976 -0.4484  0.0567  0.6040
  555MOL0     C74808   3.610   8.096  12.020 -0.4541  0.7570 -0.8982
  555MOL0     C74809   3.648   7.962  12.020  0.2074 -0.3085  0.6392
  555MOL0     C74810   3.780   7.908  12.056 -0.0192  0.2196 -0.0917
  555MOL0     C74811   3.864   7.919  11.931 -0.1639 -0.2844  0.6666
  555MOL0     C74812   3.986   7.838  11.958 -0.2659 -0.2897 -0.4965
  555MOL0     C74813   4.092   7.852  11.842  0.0411 -0.7880  0.0087
  555MOL0     O74814   4.191   7.752  11.861  0.3189  0.6477 -0.2237
  555MOL0     C74815   4.292   7.743  11.775  0.3238  0.6927 -0.5290
  555MOL0     C74816   4.366   7.616  11.767  0.2708  0.2798 -1.3042
  555MOL0     C74817   4.486   7.606  11.694  0.6027  0.5929  0.5639
  555MOL0     C74818   4.571   7.481  11.720  0.1100 -0.1595  0.2008
  555MOL0     C74819   4.514   7.716  11.611  0.2453  0.4263  0.1187
  555MOL0     C74820   4.620   7.709  11.517 -0.3206 -0.6934 -0.0899
  555MOL0     O74821   4.693   7.817  11.490 -0.2661 -0.3857  0.6827
  555MOL0     C74822   4.804   7.805  11.402 -0.5873  0.1724  0.6202
  555MOL0     C74823   4.904   7.714  11.419 -0.2967  0.2767  0.0502
  555MOL0     C74824   5.009   7.700  11.334  0.4874 -0.0313  0.0811
  555MOL0     C74825   5.018   7.785  11.222  0.3072 -0.6367  0.3132
  555MOL0     O74826   5.111   7.773  11.118 -0.4190  0.8087  0.3440
  555MOL0     C74827   5.178   7.648  11.095  0.5965 -0.2707 -0.3213
  555MOL0     C74828   5.227   7.650  10.943 -0.7652  0.4924  0.0126
  555MOL0     C74829   5.306   7.527  10.889 -0.6223  0.0969  0.1066
  555MOL0     C74830   5.377   7.564  10.759  0.1610 -0.1840 -0.0785
  555MOL0     C74831   5.442   7.438  10.694  0.6514 -0.7266  1.0847
  555MOL0     C74832   5.569   7.408  10.766  0.1082 -0.1270 -0.2959
  555MOL0     C74833   5.688   7.489  10.712 -0.4810  0.0230 -1.2293
  555MOL0     C74834   5.815   7.466  10.797  0.9105  0.2729 -0.6556
  555MOL0    Cl74835   5.957   7.470  10.684 -0.2582 -0.0999  0.1101
  555MOL0     C74836   4.931   7.891  11.213 -1.2467  0.3749  0.2727
  555MOL0     C74837   4.818   7.892  11.298  0.0873 -0.1807  0.3528
  555MOL0     O74838   4.643   7.601  11.466 -0.3940  0.2759 -0.4040
  555MOL0     C74839   4.437   7.827  11.597 -0.5351  0.4046  0.0875
  555MOL0     C74840   4.336   7.849  11.685  0.9315  0.2137 -0.3800
  555MOL0     N74841   3.543   7.886  11.983  0.3684 -0.2354 -0.0554
  555MOL0     N74842   3.447   7.963  11.955 -0.0758 -0.3164 -0.0094
  555MOL0     C74843   4.138   8.211  11.250  0.7502  0.2229 -0.3161
  555MOL0     C74844   4.226   8.139  11.162  0.9516  0.7779  0.6671
  555MOL0     C74845   4.524   7.809  11.011  0.4727  0.1313 -0.6051
  555MOL0     C74846   4.612   7.698  11.041  0.1082  0.2324  0.2572
  555MOL0     C74847   4.687   7.642  10.941 -0.4910 -0.4178  0.2789
  555MOL0     C74848   4.689   7.710  10.820  0.5910 -0.7684  0.1786
  555MOL0     O74849   4.769   7.685  10.713  0.4519 -0.0199  1.0335
  555MOL0     C74850   4.842   7.558  10.700 -0.0072 -0.0453  0.0813
  555MOL0     C74851   4.952   7.588  10.586  0.5066 -0.5443 -0.6445
  555MOL0     C74852   5.004   7.453  10.549  0.4831  0.0206  0.7163
  555MOL0     C74853   5.109   7.471  10.441  0.7171 -0.1941 -0.2047
  555MOL0     C74854   5.167   7.345  10.409 -0.3224  0.2700 -0.0878
  555MOL0     C74855   5.233   7.250  10.398 -0.7553  0.1798  0.4753
  555MOL0     C74856   4.597   7.815  10.794  0.6582 -0.2552  0.0215
  555MOL0     C74857   4.506   7.858  10.886 -0.1700 -0.0253  0.6057
  555MOL0     H74858   4.252   7.856  11.340  3.9476  0.4667  1.3524
  555MOL0     H74859   4.127   7.967  11.498  0.4788 -1.7541 -1.2542
  555MOL0     H74860   4.023   8.428  11.409 -0.2369  1.6120  0.6345
  555MOL0     H74861   3.902   8.319  11.330 -1.2753  1.1559  0.4362
  555MOL0     H74862   3.898   8.436  11.607 -2.6602  0.2344  0.1683
  555MOL0     H74863   3.792   8.480  11.467  0.4621  1.8980  1.3316
  555MOL0     H74864   3.704   8.243  11.458 -2.6017  2.5457 -0.1426
  555MOL0     H74865   3.775   8.221  11.630 -2.0495 -1.9195 -0.1904
  555MOL0     H74866   3.654   8.421  11.695  1.9992  2.3976 -2.9173
  555MOL0     H74867   3.568   8.408  11.532  2.4998 -0.1558 -0.9342
  555MOL0     H74868   3.493   8.190  11.600 -1.6316  3.1287 -2.9568
  555MOL0     H74869   3.577   8.214  11.758  0.4893  4.3863  2.6731
  555MOL0     H74870   3.405   8.403  11.812  0.6216  0.7331  0.4072
  555MOL0     H74871   3.328   8.359  11.659  2.4069  0.0087  0.1146
  555MOL0     H74872   3.206   8.247  11.843  1.1553 -0.6087  3.3495
  555MOL0     H74873   3.304   8.117  11.775 -0.7720  1.5943 -3.7054
  555MOL0     H74874   3.315   8.190  12.053 -0.9649 -1.1689 -0.7967
  555MOL0     H74875   3.436   8.294  11.988 -0.1771  0.3128  0.7102
  555MOL0     H74876   3.668   8.182  12.053 -2.1050  0.7640  2.4155
  555MOL0     H74877   3.825   7.962  12.141 -0.2518 -0.8876  0.7605
  555MOL0     H74878   3.783   7.804  12.091  3.4270  0.7546  1.7142
  555MOL0     H74879   3.897   8.022  11.910  2.4767 -1.4004 -1.3899
  555MOL0     H74880   3.807   7.889  11.843  0.1046  0.4708  0.2159
  555MOL0     H74881   3.963   7.732  11.973 -1.1740  0.0903  1.0670
  555MOL0     H74882   4.031   7.870  12.053  0.1134 -0.8681 -0.4693
  555MOL0     H74883   4.155   7.942  11.849  1.3833 -1.6172 -1.1223
  555MOL0     H74884   4.043   7.853  11.745  0.9196 -0.1552 -0.4390
  555MOL0     H74885   4.334   7.531  11.826  2.1282  0.0487 -0.5666
  555MOL0     H74886   4.571   7.421  11.629  0.8066  2.3823 -1.5953
  555MOL0     H74887   4.673   7.508  11.747  0.2042  0.1348 -0.4257
  555MOL0     H74888   4.524   7.413  11.792 -0.9154 -2.0374 -2.0847
  555MOL0     H74889   4.907   7.649  11.505  1.6200  1.2769  0.7887
  555MOL0     H74890   5.070   7.614  11.361 -0.9610 -0.2095  3.0817
  555MOL0     H74891   5.269   7.643  11.157  0.5345 -1.7311 -0.3084
  555MOL0     H74892   5.111   7.567  11.125  0.1242 -0.2333 -1.2696
  555MOL0     H74893   5.149   7.669  10.869 -0.4647  3.3653  0.3303
  555MOL0     H74894   5.294   7.736  10.938 -1.2457  0.8211 -1.0179
  555MOL0     H74895   5.232   7.446  10.887  0.3097 -0.9564  3.0727
  555MOL0     H74896   5.378   7.504  10.968  1.8135  2.7562 -1.1771
  555MOL0     H74897   5.302   7.604  10.690  1.1661  0.0020 -1.0919
  555MOL0     H74898   5.456   7.638  10.777 -0.2036  0.2048 -0.0786
  555MOL0     H74899   5.475   7.459  10.592  0.7547 -3.4948  0.4598
  555MOL0     H74900   5.371   7.355  10.687 -0.7572  0.3207  2.2213
  555MOL0     H74901   5.567   7.422  10.875 -1.1835  1.7420 -0.5234
  555MOL0     H74902   5.591   7.302  10.749 -0.2343 -0.5180  1.4674
  555MOL0     H74903   5.651   7.591  10.699 -1.8484 -0.5572 -2.2001
  555MOL0     H74904   5.716   7.445  10.616 -0.5329  2.4793 -2.4436
  555MOL0     H74905   5.803   7.371  10.850 -1.2796  1.1170  0.5179
  555MOL0     H74906   5.818   7.528  10.887 -2.9158 -1.6680  1.0537
  555MOL0     H74907   4.945   7.964  11.134  1.7776  0.2813  0.6160
  555MOL0     H74908   4.745   7.972  11.291 -2.4392 -2.1296  2.3266
  555MOL0     H74909   4.462   7.913  11.537 -2.7120  3.2189  2.8752
  555MOL0     H74910   4.290   7.947  11.692 -2.0995 -1.1625  0.4912
  555MOL0     H74911   4.104   8.310  11.222 -3.5370 -1.4799 -1.9211
  555MOL0     H74912   4.262   8.175  11.066  0.0253  1.1237  0.4387
  555MOL0     H74913   4.618   7.665  11.144 -2.4168 -1.1675  0.0595
  555MOL0     H74914   4.743   7.550  10.956 -1.6238 -1.0737  0.5874
  555MOL0     H74915   4.896   7.528  10.789  0.0142  1.0353  0.4471
  555MOL0     H74916   4.782   7.472  10.669 -0.3455  0.0562  0.4497
  555MOL0     H74917   5.026   7.658  10.625 -0.5146  0.3088 -0.1940
  555MOL0     H74918   4.893   7.624  10.501 -0.1105 -2.0289 -0.8898
  555MOL0     H74919   4.922   7.396  10.505  1.4536 -0.7498 -0.1667
  555MOL0     H74920   5.036   7.389  10.632  0.5010 -0.9137  0.0149
  555MOL0     H74921   5.186   7.543  10.473 -1.0647  0.5655  2.7609
  555MOL0     H74922   5.058   7.523  10.360 -0.4521 -0.2469  0.4839
  555MOL0     H74923   5.300   7.166  10.397 -0.0237  0.7023  1.8241
  555MOL0     H74924   4.603   7.859  10.695 -1.1387  0.7499  0.3248
  555MOL0     H74925   4.437   7.941  10.878  1.1467  1.6172  4.0096
  556MOL0     O74926   5.701  10.890   5.924 -0.5585  0.2253  0.0306
  556MOL0     C74927   5.771  10.843   6.015 -0.9300 -0.7169 -0.3422
  556MOL0     O74928   5.736  10.838   6.143  0.7549  1.0187 -0.0361
  556MOL0     C74929   5.602  10.857   6.184  0.4026  0.3592 -0.6290
  556MOL0     C74930   5.500  10.784   6.129 -0.3706  0.5765  0.2901
  556MOL0     C74931   5.374  10.787   6.184 -0.8459 -0.2244  0.4150
  556MOL0     C74932   5.341  10.883   6.282 -0.0647  0.2838 -0.7117
  556MOL0     O74933   5.213  10.868   6.321 -0.2742  0.4985 -0.4831
  556MOL0     C74934   5.175  10.921   6.450 -0.3630  0.0681  0.3929
  556MOL0     C74935   5.141  11.072   6.423  0.1010  0.7843 -0.2045
  556MOL0     C74936   5.007  11.099   6.353 -0.2290 -0.0339  0.9967
  556MOL0     C74937   4.887  11.058   6.437  0.0506 -0.0664 -0.0131
  556MOL0     C74938   4.751  11.126   6.379  0.3386 -0.4753 -0.0727
  556MOL0     C74939   4.635  11.117   6.485 -0.8290 -0.3704 -0.1320
  556MOL0     C74940   4.496  11.138   6.427 -0.7655  0.2360 -0.1710
  556MOL0     C74941   4.453  11.014   6.351  0.7946 -0.2790  0.0305
  556MOL0     N74942   4.306  11.010   6.325  0.1458  0.5775  0.5509
  556MOL0     C74943   4.233  10.912   6.384 -0.2322 -0.3937 -0.2578
  556MOL0     C74944   4.113  10.917   6.326  0.4238 -0.0768 -0.5726
  556MOL0     C74945   3.987  10.851   6.380  0.1725 -0.3025  0.2728
  556MOL0     C74946   3.845  10.932   6.360 -0.4993 -0.5875  0.3145
  556MOL0     C74947   3.736  10.834   6.387  0.0811 -0.8453  0.3918
  556MOL0     C74948   3.599  10.905   6.405  0.3670 -0.2200 -0.4736
  556MOL0     O74949   3.494  10.839   6.470 -0.3118  0.2850 -0.4722
  556MOL0     C74950   3.367  10.890   6.444  0.0190  0.3428 -0.6328
  556MOL0     C74951   3.306  10.873   6.320  0.6421  1.1693  0.2712
  556MOL0     C74952   3.177  10.900   6.290 -0.2805  0.2879  0.3116
  556MOL0     C74953   3.128  10.857   6.157  0.4409 -0.0881  0.4239
  556MOL0     C74954   3.107  10.982   6.391 -0.0154  0.0239 -0.2402
  556MOL0     C74955   2.974  11.050   6.371  0.1207  0.4709 -0.3778
  556MOL0     O74956   2.933  11.133   6.466 -0.2802  0.0003 -0.2650
  556MOL0     C74957   2.796  11.173   6.453 -0.0676 -0.4453 -1.1464
  556MOL0     C74958   2.773  11.309   6.465  0.2760  0.1406 -0.2667
  556MOL0     C74959   2.638  11.352   6.471  0.0305  0.5741 -0.4515
  556MOL0     C74960   2.532  11.263   6.475 -0.0084  0.1629  0.4527
  556MOL0     O74961   2.403  11.319   6.482 -0.2858 -0.1129  0.1960
  556MOL0     C74962   2.295  11.236   6.439 -0.2146  0.3382 -0.2398
  556MOL0     C74963   2.165  11.329   6.418 -0.1508  0.1800  0.5625
  556MOL0     C74964   2.131  11.422   6.534  0.1797 -0.3937 -0.2635
  556MOL0     C74965   2.048  11.542   6.495 -0.3119 -0.3245 -0.8114
  556MOL0     C74966   1.906  11.504   6.491  0.4671 -0.1072 -0.2126
  556MOL0     C74967   1.808  11.623   6.460  1.0166  0.1016  0.4217
  556MOL0     C74968   1.663  11.579   6.454 -0.2322 -0.1558 -0.6802
  556MOL0     C74969   1.560  11.692   6.427 -0.1501  0.8897  0.2683
  556MOL0    Cl74970   1.577  11.820   6.548  0.5092 -0.0014 -0.3508
  556MOL0     C74971   2.568  11.130   6.458  0.3477  0.2273 -1.3727
  556MOL0     C74972   2.695  11.086   6.450 -0.3075  0.0916  0.2798
  556MOL0     O74973   2.913  11.017   6.277  0.6815 -0.0219  0.9742
  556MOL0     C74974   3.175  11.009   6.512  0.4606 -0.1307 -0.3928
  556MOL0     C74975   3.297  10.957   6.544  0.1287 -1.0122 -0.2481
  556MOL0     N74976   4.109  11.025   6.240 -0.5198  0.4793 -0.4533
  556MOL0     N74977   4.227  11.073   6.237  0.2195  1.1244 -0.6463
  556MOL0     C74978   5.446  10.963   6.332 -0.9253 -0.0203 -0.1171
  556MOL0     C74979   5.579  10.950   6.284  0.2004 -0.3099  0.1986
  556MOL0     C74980   5.900  10.784   5.989  0.3267 -0.8332  0.3611
  556MOL0     C74981   5.931  10.724   5.873 -0.0648  0.0574 -0.1385
  556MOL0     C74982   6.058  10.685   5.842 -0.8478  0.3833 -0.3536
  556MOL0     C74983   6.159  10.693   5.936  0.8384 -0.4060 -0.7485
  556MOL0     O74984   6.280  10.647   5.908 -0.5621 -1.0758 -0.4392
  556MOL0     C74985   6.377  10.746   5.876  0.2879 -0.3504 -0.2303
  556MOL0     C74986   6.359  10.817   5.738 -0.4569  0.5489 -0.2721
  556MOL0     C74987   6.378  10.723   5.624 -0.4232  0.1669 -1.1130
  556MOL0     C74988   6.526  10.696   5.590  0.1189  0.0255 -1.0069
  556MOL0     C74989   6.554  10.569   5.528  0.8088 -0.2243 -0.6983
  556MOL0     C74990   6.603  10.473   5.479  0.4723 -0.1476  0.9625
  556MOL0     C74991   6.132  10.755   6.059 -0.1245 -0.1904  0.0637
  556MOL0     C74992   6.004  10.799   6.086 -0.4877 -0.2094 -0.0646
  556MOL0     H74993   5.519  10.705   6.057 -0.6544  1.4839 -0.8053
  556MOL0     H74994   5.296  10.714   6.164 -2.2044  0.1475  3.7876
  556MOL0     H74995   5.078  10.882   6.484 -1.0641  1.7143  0.4193
  556MOL0     H74996   5.249  10.899   6.527 -1.7529  0.8030  2.0178
  556MOL0     H74997   5.149  11.119   6.521  2.4873 -0.7945  0.4161
  556MOL0     H74998   5.219  11.117   6.362 -0.0743  2.1260  0.5113
  556MOL0     H74999   5.000  11.208   6.348 -1.1053 -0.1278 -0.0819
  556MOL0     H75000   4.999  11.050   6.256 -0.7384 -1.0866  1.5542
  556MOL0     H75001   4.865  10.951   6.445 -0.2301  0.1079  2.1297
  556MOL0     H75002   4.909  11.086   6.540 -1.7344  1.5259  0.0077
  556MOL0     H75003   4.765  11.228   6.344 -2.3624  0.6683  1.8221
  556MOL0     H75004   4.715  11.069   6.293 -3.9868 -0.1768  1.2846
  556MOL0     H75005   4.636  11.016   6.526 -2.6999 -1.9475 -3.6007
  556MOL0     H75006   4.672  11.186   6.563  1.8117 -1.6823 -0.0980
  556MOL0     H75007   4.434  11.146   6.517  0.6592  1.4915  0.7459
  556MOL0     H75008   4.480  11.231   6.370 -1.1373  0.2082 -0.1148
  556MOL0     H75009   4.473  10.926   6.413 -2.5578 -1.2224 -0.0706
  556MOL0     H75010   4.505  11.004   6.255  0.1649 -5.7067 -0.0417
  556MOL0     H75011   4.266  10.856   6.471  0.5586 -0.4157 -0.5655
  556MOL0     H75012   3.989  10.750   6.339 -1.9607 -0.9821  1.6825
  556MOL0     H75013   4.002  10.838   6.488 -0.6306  2.4707  0.8129
  556MOL0     H75014   3.845  10.968   6.257  2.9419  2.9433  1.2704
  556MOL0     H75015   3.844  11.015   6.432  0.3034 -1.0764  0.9037
  556MOL0     H75016   3.760  10.766   6.469  1.5026 -0.9519 -0.0880
  556MOL0     H75017   3.737  10.773   6.296  4.0226  0.3944 -0.6279
  556MOL0     H75018   3.564  10.941   6.309  0.2768 -1.1131 -0.7822
  556MOL0     H75019   3.617  10.991   6.470  0.5237  1.0181 -2.0960
  556MOL0     H75020   3.365  10.818   6.247  1.5529 -0.7067  2.2963
  556MOL0     H75021   3.184  10.770   6.123  0.1512  0.4495 -1.5069
  556MOL0     H75022   3.023  10.829   6.144  0.4675 -0.3946  0.8336
  556MOL0     H75023   3.154  10.939   6.090 -0.7590  0.7913  0.9800
  556MOL0     H75024   2.857  11.375   6.448 -0.2262  0.9119  0.2100
  556MOL0     H75025   2.617  11.458   6.474 -0.3184  0.4939  1.6806
  556MOL0     H75026   2.320  11.174   6.352  2.6055 -2.1116  2.0795
  556MOL0     H75027   2.287  11.168   6.524  1.6280  1.2296  0.7074
  556MOL0     H75028   2.198  11.393   6.335  0.4250 -0.6049  0.1613
  556MOL0     H75029   2.080  11.262   6.400  1.1350 -2.0078  2.0723
  556MOL0     H75030   2.220  11.456   6.587 -0.5721  1.8823 -0.3641
  556MOL0     H75031   2.078  11.355   6.603  0.5765  0.9980  1.4686
  556MOL0     H75032   2.070  11.600   6.585 -1.7571  0.3197 -0.8506
  556MOL0     H75033   2.085  11.603   6.412 -0.5112  2.9342  1.3218
  556MOL0     H75034   1.875  11.466   6.588  0.6321 -1.2237 -0.5719
  556MOL0     H75035   1.890  11.414   6.430  2.9479 -1.9622  1.6409
  556MOL0     H75036   1.820  11.703   6.534 -0.2373  2.2658 -1.5720
  556MOL0     H75037   1.838  11.656   6.360  0.5511 -0.0391  0.2377
  556MOL0     H75038   1.636  11.537   6.552 -0.6327  0.7095 -0.4038
  556MOL0     H75039   1.663  11.498   6.381  3.4777 -0.1013 -0.9463
  556MOL0     H75040   1.460  11.649   6.415 -0.0958  0.5562  0.9310
  556MOL0     H75041   1.592  11.729   6.330  0.7490  0.6904  0.4802
  556MOL0     H75042   2.502  11.047   6.482  1.8685 -0.2899  1.5495
  556MOL0     H75043   2.703  10.978   6.441 -2.9074 -0.2137  0.8438
  556MOL0     H75044   3.123  11.073   6.582  0.2134  1.3886 -1.8986
  556MOL0     H75045   3.349  10.966   6.638  1.8980 -2.0051 -1.0809
  556MOL0     H75046   5.433  11.021   6.423 -1.5931 -1.7347  0.9122
  556MOL0     H75047   5.663  10.994   6.336 -1.9610  2.7125  1.3915
  556MOL0     H75048   5.847  10.715   5.805 -0.7920 -2.2917  0.9742
  556MOL0     H75049   6.073  10.638   5.746  0.7563  1.8313 -0.8671
  556MOL0     H75050   6.383  10.816   5.960  1.9894 -0.4002 -0.2715
  556MOL0     H75051   6.478  10.704   5.883  1.0807  1.7318  4.4630
  556MOL0     H75052   6.420  10.907   5.730 -0.7965  1.0113  1.7255
  556MOL0     H75053   6.257  10.855   5.728 -1.1033 -0.5191  1.6522
  556MOL0     H75054   6.331  10.764   5.534  0.3454  3.2532 -0.2639
  556MOL0     H75055   6.322  10.631   5.641  0.0382  0.0508 -0.1655
  556MOL0     H75056   6.596  10.714   5.673 -0.4067  0.0221 -0.5623
  556MOL0     H75057   6.551  10.777   5.520  3.1970  0.6292  0.5828
  556MOL0     H75058   6.657  10.390   5.438  3.3820  0.5285  3.1305
  556MOL0     H75059   6.207  10.768   6.136 -0.7111  4.7511  0.1293
  556MOL0     H75060   5.976  10.834   6.184  2.2061  0.0596  0.6761
  557MOL0     O75061   3.953   6.437   9.154  0.0773 -0.9586  0.5888
  557MOL0     C75062   3.959   6.379   9.255 -0.1599  0.6629  0.2883
  557MOL0     O75063   3.862   6.371   9.355 -0.1205  0.1942 -0.9611
  557MOL0     C75064   3.750   6.447   9.341 -0.2688  0.1442 -0.0816
  557MOL0     C75065   3.674   6.458   9.222  0.1797 -0.4127 -0.3373
  557MOL0     C75066   3.540   6.504   9.230 -0.2104  0.4656 -0.0487
  557MOL0     C75067   3.488   6.549   9.352 -0.9636  0.0060 -0.1554
  557MOL0     O75068   3.363   6.591   9.340  0.0219 -0.1048 -0.1191
  557MOL0     C75069   3.303   6.641   9.461 -0.4724  0.4619  0.0207
  557MOL0     C75070   3.148   6.678   9.438 -0.1622 -0.1537  0.0219
  557MOL0     C75071   3.074   6.693   9.575 -0.1784  0.5484  0.7097
  557MOL0     C75072   2.923   6.669   9.560  0.4160 -0.1594 -0.0878
  557MOL0     C75073   2.848   6.809   9.559 -0.3904 -0.2829 -0.9988
  557MOL0     C75074   2.688   6.794   9.561  0.8401 -0.3654 -0.0035
  557MOL0     C75075   2.637   6.940   9.570 -0.2575 -0.2586 -0.8664
  557MOL0     C75076   2.488   6.951   9.588  0.0276  0.3320  0.6633
  557MOL0     N75077   2.438   7.094   9.584 -0.7013  0.1889  0.2829
  557MOL0     C75078   2.439   7.171   9.695  0.0739 -0.9425  0.1320
  557MOL0     C75079   2.375   7.285   9.648 -0.2704  0.3846  0.1674
  557MOL0     C75080   2.319   7.383   9.740  1.3858  0.4984 -0.4762
  557MOL0     C75081   2.164   7.355   9.753 -0.0042 -0.4873 -0.3708
  557MOL0     C75082   2.104   7.466   9.845 -0.8531 -0.1011  0.2109
  557MOL0     C75083   1.952   7.456   9.855  0.0698 -0.4266  0.2047
  557MOL0     O75084   1.892   7.582   9.829 -0.4537  0.0030 -0.5276
  557MOL0     C75085   1.753   7.576   9.810 -0.5178  0.1531 -0.5100
  557MOL0     C75086   1.702   7.689   9.763  0.3894 -0.4627  0.3901
  557MOL0     C75087   1.565   7.706   9.734  0.8377  0.1853 -0.4377
  557MOL0     C75088   1.531   7.830   9.659 -0.5016 -0.5340 -0.9671
  557MOL0     C75089   1.476   7.600   9.768 -0.0215  0.7730 -0.2036
  557MOL0     C75090   1.329   7.614   9.743 -0.6566  0.5095 -0.2426
  557MOL0     O75091   1.250   7.524   9.808  0.3055  1.2987 -0.4688
  557MOL0     C75092   1.120   7.511   9.764 -0.3214 -0.0759  0.0101
  557MOL0     C75093   1.014   7.585   9.833 -0.3191  0.2281 -0.0274
  557MOL0     C75094   0.878   7.566   9.787 -0.2375  0.5166  0.1402
  557MOL0     C75095   0.848   7.464   9.687 -0.0523  0.3530 -0.3527
  557MOL0     O75096   0.721   7.449   9.646 -0.0610  0.2439 -0.2679
  557MOL0     C75097   0.630   7.408   9.757 -0.3478  0.3008 -0.0773
  557MOL0     C75098   0.504   7.342   9.701  0.1090  0.1085  0.2359
  557MOL0     C75099   0.416   7.436   9.617 -0.7917  0.2617  0.1527
  557MOL0     C75100   0.284   7.369   9.616  0.0774  1.0389 -0.4277
  557MOL0     C75101   0.172   7.427   9.533  0.6771 -0.9640  0.9247
  557MOL0     C75102   0.041   7.354   9.565 -0.3249  0.6417 -0.3636
  557MOL0     C75103  -0.086   7.421   9.506  0.2326  0.7070  0.0213
  557MOL0     C75104  -0.205   7.324   9.519 -0.1525 -0.5444  0.2664
  557MOL0    Cl75105  -0.356   7.409   9.457 -0.2217 -0.4550 -0.5063
  557MOL0     C75106   0.960   7.397   9.633  0.3365 -0.0265  0.1930
  557MOL0     C75107   1.084   7.417   9.675 -0.0544  0.3678  0.1786
  557MOL0     O75108   1.283   7.705   9.670  0.4599  0.3417 -0.6400
  557MOL0     C75109   1.532   7.490   9.833 -0.4995  0.1292 -0.6837
  557MOL0     C75110   1.670   7.478   9.856 -0.0858  0.2937  0.2230
  557MOL0     N75111   2.342   7.273   9.518 -1.0551  0.9118 -0.1375
  557MOL0     N75112   2.381   7.155   9.478  0.6855 -0.3723 -0.8979
  557MOL0     C75113   3.566   6.539   9.470 -0.1984 -0.7263 -0.6193
  557MOL0     C75114   3.692   6.485   9.459 -0.4686  0.7020 -0.2212
  557MOL0     C75115   4.080   6.297   9.284  0.2491  0.3696 -0.3067
  557MOL0     C75116   4.087   6.213   9.397  0.1978  0.5615  0.2352
  557MOL0     C75117   4.202   6.128   9.417  0.5346 -1.0646  0.1643
  557MOL0     C75118   4.307   6.142   9.328 -0.0885  0.6683  0.3829
  557MOL0     O75119   4.413   6.061   9.365  0.1982 -0.5531 -0.4469
  557MOL0     C75120   4.545   6.111   9.362 -0.3914  0.0492 -0.2330
  557MOL0     C75121   4.588   6.197   9.474 -0.0511  0.1359  0.1277
  557MOL0     C75122   4.727   6.253   9.452 -0.7056  0.0744 -0.8921
  557MOL0     C75123   4.788   6.310   9.581 -0.1113  0.3695  0.6104
  557MOL0     C75124   4.710   6.416   9.651 -0.7801 -0.1019  0.3341
  557MOL0     C75125   4.639   6.493   9.719  0.5408  0.2059 -0.6058
  557MOL0     C75126   4.307   6.227   9.221 -0.0895 -0.2136 -0.0331
  557MOL0     C75127   4.192   6.299   9.202 -0.5206  0.1381  0.5133
  557MOL0     H75128   3.712   6.429   9.125  0.9416 -1.8076  0.3372
  557MOL0     H75129   3.483   6.520   9.140  0.5226  1.6388 -0.3176
  557MOL0     H75130   3.300   6.578   9.550 -0.9611  2.2228  1.3120
  557MOL0     H75131   3.354   6.732   9.495 -0.3901 -0.5622  2.9195
  557MOL0     H75132   3.142   6.772   9.383  1.4232 -1.0000 -1.6789
  557MOL0     H75133   3.093   6.605   9.378 -1.8656  0.0743  1.2116
  557MOL0     H75134   3.104   6.613   9.644  1.5294  0.8648  0.3862
  557MOL0     H75135   3.103   6.787   9.622 -0.9907  2.1450 -1.7710
  557MOL0     H75136   2.900   6.619   9.466  0.4704 -0.0049 -0.1846
  557MOL0     H75137   2.892   6.605   9.644  0.6769 -2.2551 -1.5234
  557MOL0     H75138   2.890   6.865   9.643  1.3561 -1.4603 -1.0437
  557MOL0     H75139   2.880   6.869   9.474  0.2742  1.7993  0.6326
  557MOL0     H75140   2.647   6.751   9.470 -1.8000  0.9886  0.4502
  557MOL0     H75141   2.658   6.724   9.639 -3.3327 -0.9288 -1.8517
  557MOL0     H75142   2.676   6.993   9.658 -0.8787 -1.4387  0.1497
  557MOL0     H75143   2.676   7.001   9.487  1.4261 -1.6263 -1.1438
  557MOL0     H75144   2.460   6.902   9.682  0.2458 -3.0401 -0.8805
  557MOL0     H75145   2.433   6.889   9.517  1.7130 -2.5391  1.7320
  557MOL0     H75146   2.467   7.158   9.800 -1.5925  0.9381  0.8717
  557MOL0     H75147   2.373   7.374   9.835  1.7333 -0.1073 -0.7301
  557MOL0     H75148   2.336   7.483   9.699 -0.6782  2.0234  2.1069
  557MOL0     H75149   2.144   7.254   9.790 -0.8715 -1.6862 -3.7524
  557MOL0     H75150   2.115   7.360   9.655 -0.7940  0.3655  0.0433
  557MOL0     H75151   2.142   7.564   9.816  1.7078 -1.1012  0.0009
  557MOL0     H75152   2.138   7.444   9.947 -0.9287 -1.4122 -0.0319
  557MOL0     H75153   1.924   7.436   9.958 -1.7014  4.8160  1.0307
  557MOL0     H75154   1.918   7.379   9.784  0.1903  0.0447 -0.3735
  557MOL0     H75155   1.771   7.772   9.746  1.8515 -1.6544  0.3173
  557MOL0     H75156   1.438   7.874   9.696  0.3179  1.4397 -1.1036
  557MOL0     H75157   1.608   7.906   9.680 -0.1036 -1.1401 -0.1788
  557MOL0     H75158   1.531   7.813   9.551  0.2619 -1.4122 -0.8431
  557MOL0     H75159   1.040   7.658   9.908  0.7444  0.3528 -0.4928
  557MOL0     H75160   0.795   7.630   9.818 -0.1860  0.7784 -0.2614
  557MOL0     H75161   0.682   7.343   9.827 -0.1265 -1.4128 -1.7396
  557MOL0     H75162   0.607   7.498   9.815  0.9321  1.1172 -0.7962
  557MOL0     H75163   0.538   7.258   9.640  0.0722  1.3519 -1.5536
  557MOL0     H75164   0.447   7.319   9.792  1.1610 -0.5032  0.7640
  557MOL0     H75165   0.461   7.446   9.518  0.3557 -3.7471  0.0800
  557MOL0     H75166   0.400   7.533   9.665 -1.6743 -0.6026  1.6886
  557MOL0     H75167   0.295   7.269   9.574 -1.0848  1.3123 -1.4403
  557MOL0     H75168   0.254   7.356   9.720  2.0045  1.9939  0.3041
  557MOL0     H75169   0.201   7.413   9.429  2.2857 -1.8050  1.4520
  557MOL0     H75170   0.156   7.532   9.559  1.2310 -1.1358  2.0445
  557MOL0     H75171   0.056   7.248   9.546  2.4822  0.4411  2.2191
  557MOL0     H75172   0.022   7.353   9.673  0.2901 -2.3633 -0.1936
  557MOL0     H75173  -0.081   7.447   9.400  0.8045  0.9663  0.1088
  557MOL0     H75174  -0.111   7.511   9.564  1.7029  0.0702  1.7340
  557MOL0     H75175  -0.213   7.297   9.625  2.6672  0.4321  0.8196
  557MOL0     H75176  -0.180   7.233   9.463 -0.9655  0.5223 -1.9456
  557MOL0     H75177   0.932   7.332   9.551 -2.7582  0.7380  0.4967
  557MOL0     H75178   1.159   7.351   9.632  1.7524  1.9588  0.7389
  557MOL0     H75179   1.485   7.396   9.861 -1.0770  0.5786 -0.1272
  557MOL0     H75180   1.712   7.404   9.923 -0.8400  0.8169  1.2972
  557MOL0     H75181   3.535   6.562   9.571 -0.3511 -2.3943 -0.2441
  557MOL0     H75182   3.756   6.473   9.546  1.3141 -1.4141 -1.7011
  557MOL0     H75183   3.997   6.197   9.456 -0.2110 -0.7831 -0.6944
  557MOL0     H75184   4.201   6.052   9.495  0.6264 -3.3928 -1.9683
  557MOL0     H75185   4.618   6.029   9.361 -1.5530 -1.0264  0.6124
  557MOL0     H75186   4.561   6.174   9.274  0.0158 -1.4190 -1.2330
  557MOL0     H75187   4.589   6.123   9.555 -0.0439 -1.4355 -1.2458
  557MOL0     H75188   4.511   6.269   9.502  0.1711  0.4197  0.0162
  557MOL0     H75189   4.731   6.328   9.373 -2.0567  0.5581 -0.5156
  557MOL0     H75190   4.793   6.171   9.422 -1.5610 -1.5243  1.3480
  557MOL0     H75191   4.882   6.358   9.552  1.5290 -2.5765  0.6644
  557MOL0     H75192   4.817   6.236   9.657 -0.9357 -0.9724 -0.3564
  557MOL0     H75193   4.572   6.553   9.777 -0.5276 -0.3419 -1.2213
  557MOL0     H75194   4.394   6.230   9.155  0.5936 -0.7411  0.8135
  557MOL0     H75195   4.186   6.362   9.113  0.0024 -2.2560 -1.3181
  558MOL0     O75196   3.021   2.224   9.906  0.0422 -0.5707 -0.2080
  558MOL0     C75197   3.033   2.311   9.814 -0.1294  0.3935 -0.4713
  558MOL0     O75198   2.933   2.376   9.757 -0.3845  0.6940  0.7456
  558MOL0     C75199   2.801   2.333   9.786  0.0795 -0.1844  0.0846
  558MOL0     C75200   2.751   2.306   9.916 -0.4799 -0.5777 -0.1587
  558MOL0     C75201   2.618   2.265   9.933  0.0651  0.6947 -0.1497
  558MOL0     C75202   2.531   2.233   9.831 -0.0665 -0.8035 -0.2883
  558MOL0     O75203   2.403   2.182   9.853  0.0710 -0.6657  0.0754
  558MOL0     C75204   2.303   2.213   9.760 -0.0218 -0.1408 -0.0813
  558MOL0     C75205   2.170   2.178   9.812  1.1451 -0.2338 -0.0058
  558MOL0     C75206   2.056   2.253   9.741  0.3118  1.0703  0.1475
  558MOL0     C75207   1.931   2.163   9.748  1.2184  0.4973 -0.8646
  558MOL0     C75208   1.795   2.232   9.724  0.0196  0.9133  0.5835
  558MOL0     C75209   1.768   2.299   9.582  0.2923  0.7801 -0.2839
  558MOL0     C75210   1.644   2.379   9.578  0.2142  0.0881 -0.1659
  558MOL0     C75211   1.520   2.298   9.617  0.7284 -0.4356  0.3990
  558MOL0     N75212   1.407   2.387   9.599 -0.1265  0.1029 -0.1922
  558MOL0     C75213   1.383   2.505   9.663  0.5909 -0.3249  0.6962
  558MOL0     C75214   1.272   2.562   9.596 -0.1549 -0.1137 -1.2498
  558MOL0     C75215   1.221   2.702   9.626  0.5947  0.7719 -0.1335
  558MOL0     C75216   1.156   2.722   9.757 -0.0114 -0.5510  0.5683
  558MOL0     C75217   1.183   2.859   9.813  0.1633  0.0103 -0.4235
  558MOL0     C75218   1.131   2.852   9.953 -1.2876 -0.4296 -0.2502
  558MOL0     O75219   0.992   2.845   9.947  0.0528 -0.7332 -0.2035
  558MOL0     C75220   0.923   2.798  10.061  0.5664 -1.1161  0.5181
  558MOL0     C75221   0.974   2.771  10.192 -0.3244  0.1383  0.8509
  558MOL0     C75222   0.887   2.746  10.301  0.6628  0.3724 -0.1554
  558MOL0     C75223   0.956   2.722  10.438  0.4282 -0.0964  0.1771
  558MOL0     C75224   0.746   2.752  10.288  0.4008 -0.8248 -0.7636
  558MOL0     C75225   0.646   2.751  10.401  0.0760  0.7501  0.2808
  558MOL0     O75226   0.527   2.704  10.345  0.3387  0.4102  0.3182
  558MOL0     C75227   0.403   2.705  10.409 -0.2535  0.1446  0.2841
  558MOL0     C75228   0.306   2.634  10.350  0.1367  0.5444 -0.2247
  558MOL0     C75229   0.175   2.630  10.396 -0.7555  0.4161 -0.2979
  558MOL0     C75230   0.145   2.687  10.520  0.2650 -0.1694  0.0591
  558MOL0     O75231   0.019   2.701  10.572 -0.9247  0.0704 -0.2897
  558MOL0     C75232  -0.097   2.622  10.538 -0.1244  0.1873  0.2465
  558MOL0     C75233  -0.227   2.679  10.602  0.4442 -0.2008  0.4617
  558MOL0     C75234  -0.252   2.824  10.566 -0.4679 -0.4153 -0.6300
  558MOL0     C75235  -0.305   2.897  10.679 -0.7627 -0.4738 -0.2716
  558MOL0     C75236  -0.365   3.030  10.650  0.2661 -0.9268  0.4572
  558MOL0     C75237  -0.509   3.022  10.602 -0.5320 -0.7179  0.2765
  558MOL0     C75238  -0.570   3.157  10.566 -0.0539 -0.0064  0.2940
  558MOL0     C75239  -0.583   3.244  10.694 -0.7283 -0.1935 -0.0924
  558MOL0    Cl75240  -0.706   3.174  10.798  0.2067 -0.2128  0.1851
  558MOL0     C75241   0.242   2.758  10.582 -0.6250 -0.3483 -0.4011
  558MOL0     C75242   0.370   2.768  10.530 -0.5569  0.3942 -0.3244
  558MOL0     O75243   0.660   2.775  10.518 -0.0656 -0.5476  0.4907
  558MOL0     C75244   0.699   2.778  10.158 -0.1341  0.4338 -0.4890
  558MOL0     C75245   0.786   2.789  10.048  0.3386 -0.0318 -0.4239
  558MOL0     N75246   1.227   2.473   9.507 -0.0408  0.0637 -0.0693
  558MOL0     N75247   1.304   2.372   9.516  0.4551  0.5885  0.2858
  558MOL0     C75248   2.594   2.250   9.706 -0.6375  0.9235  0.8854
  558MOL0     C75249   2.721   2.301   9.678 -1.1676 -0.8554  0.2443
  558MOL0     C75250   3.172   2.357   9.763  0.6649 -0.6651  0.7233
  558MOL0     C75251   3.186   2.471   9.687  0.2274 -0.2510  0.1470
  558MOL0     C75252   3.313   2.518   9.656 -0.5486 -0.4448  1.4891
  558MOL0     C75253   3.429   2.447   9.682  0.2938 -0.0442  0.1990
  558MOL0     O75254   3.540   2.502   9.640 -0.5902 -0.4951 -0.6873
  558MOL0     C75255   3.657   2.442   9.690 -0.2198 -0.3657  0.1293
  558MOL0     C75256   3.684   2.325   9.588 -0.5378  0.6754 -0.2592
  558MOL0     C75257   3.822   2.265   9.621  0.1997 -0.1288 -0.2197
  558MOL0     C75258   3.861   2.163   9.513 -0.0550  0.0537  0.8528
  558MOL0     C75259   3.905   2.217   9.385 -0.0120 -0.3348  0.8916
  558MOL0     C75260   3.939   2.269   9.279 -0.1369  0.1787  0.4441
  558MOL0     C75261   3.410   2.320   9.747  0.0967 -0.8482 -0.2210
  558MOL0     C75262   3.284   2.285   9.789  0.0809 -0.2518 -0.3909
  558MOL0     H75263   2.814   2.320  10.003  2.2357 -1.9774 -1.7690
  558MOL0     H75264   2.589   2.266  10.037  0.1205 -1.2236 -0.0785
  558MOL0     H75265   2.308   2.321   9.750  1.0752 -0.3382 -2.0072
  558MOL0     H75266   2.306   2.155   9.667 -0.4344 -2.1403  1.0770
  558MOL0     H75267   2.146   2.072   9.802 -0.9008  0.1540  0.4329
  558MOL0     H75268   2.151   2.195   9.919 -2.1821 -0.0040 -0.5370
  558MOL0     H75269   2.041   2.350   9.789 -0.6449  0.9512  0.0982
  558MOL0     H75270   2.084   2.265   9.636  0.6682 -2.5412 -0.3123
  558MOL0     H75271   1.942   2.071   9.690  0.3309 -1.0042  1.2170
  558MOL0     H75272   1.921   2.127   9.851  0.1321  2.0665 -0.3879
  558MOL0     H75273   1.716   2.157   9.737 -0.2818  1.3614  1.4125
  558MOL0     H75274   1.782   2.300   9.809 -2.1803 -0.1902  1.2084
  558MOL0     H75275   1.859   2.355   9.560  0.0078  1.0456 -0.8017
  558MOL0     H75276   1.765   2.230   9.497  2.5920  2.0238 -1.4641
  558MOL0     H75277   1.658   2.461   9.649 -0.7043  0.5062 -0.4571
  558MOL0     H75278   1.628   2.427   9.481 -2.1199 -0.6075 -0.1687
  558MOL0     H75279   1.520   2.259   9.719 -0.3748 -1.1680  0.1318
  558MOL0     H75280   1.504   2.216   9.546 -2.3017 -1.7464  2.4072
  558MOL0     H75281   1.439   2.550   9.744 -1.3976  1.0961  1.3520
  558MOL0     H75282   1.303   2.772   9.604  0.8015  0.4239 -0.4924
  558MOL0     H75283   1.149   2.720   9.546 -0.2421 -1.6804 -0.0079
  558MOL0     H75284   1.191   2.641   9.822 -3.5418 -1.9808  0.8767
  558MOL0     H75285   1.048   2.708   9.744 -0.2731  2.1350 -0.8403
  558MOL0     H75286   1.129   2.934   9.755 -3.4254 -2.3174 -0.3683
  558MOL0     H75287   1.289   2.888   9.816  0.0569  0.5417 -1.4359
  558MOL0     H75288   1.165   2.939  10.010  0.6035  0.3007 -2.3511
  558MOL0     H75289   1.166   2.764  10.009 -0.9397 -0.3490 -0.3368
  558MOL0     H75290   1.079   2.779  10.219 -0.5658 -0.8580  2.1921
  558MOL0     H75291   1.007   2.815  10.463 -1.4758  1.7353 -2.2721
  558MOL0     H75292   0.888   2.686  10.516  1.1702 -0.8851  0.4786
  558MOL0     H75293   1.026   2.639  10.424  0.5084  0.0564 -0.3395
  558MOL0     H75294   0.328   2.580  10.258 -0.4742 -1.7518  0.9280
  558MOL0     H75295   0.093   2.585  10.342 -2.2647 -0.8249  2.8011
  558MOL0     H75296  -0.109   2.629  10.429 -2.8535  1.5695  0.5395
  558MOL0     H75297  -0.082   2.518  10.566 -0.3328 -0.4861 -1.9048
  558MOL0     H75298  -0.313   2.620  10.570 -0.8557  1.3030  1.0616
  558MOL0     H75299  -0.215   2.678  10.711  0.1725  1.3031  0.5294
  558MOL0     H75300  -0.310   2.827  10.473  0.1503 -1.3381 -1.0561
  558MOL0     H75301  -0.154   2.868  10.546  0.5893 -2.3023  0.1723
  558MOL0     H75302  -0.377   2.836  10.734 -0.4760 -0.4091  0.1838
  558MOL0     H75303  -0.224   2.911  10.752  0.2349 -0.7699 -1.2911
  558MOL0     H75304  -0.303   3.075  10.571 -0.0752 -0.2468  0.5732
  558MOL0     H75305  -0.364   3.092  10.740 -2.5011 -3.2399  2.2569
  558MOL0     H75306  -0.504   2.948  10.522  2.4529 -1.4124  1.0019
  558MOL0     H75307  -0.573   2.995  10.688 -1.9314  2.0256  0.1902
  558MOL0     H75308  -0.668   3.139  10.521  0.1926  0.8510 -0.6168
  558MOL0     H75309  -0.506   3.209  10.493  2.3138 -1.8672  0.9111
  558MOL0     H75310  -0.612   3.342  10.655 -0.4667  0.8842  2.2544
  558MOL0     H75311  -0.486   3.251  10.744 -0.4622  1.0889 -0.7627
  558MOL0     H75312   0.225   2.823  10.667  0.0281 -1.5179  0.6484
  558MOL0     H75313   0.430   2.837  10.588  1.5197  0.2194 -2.1348
  558MOL0     H75314   0.593   2.796  10.138 -1.0654 -0.8569  2.7749
  558MOL0     H75315   0.763   2.805   9.943  1.3827  4.0240 -0.2127
  558MOL0     H75316   2.529   2.234   9.620  3.5513 -0.8757 -2.3235
  558MOL0     H75317   2.764   2.322   9.580  0.5358 -1.2617  0.8574
  558MOL0     H75318   3.104   2.539   9.665  0.8566  0.3941 -0.2021
  558MOL0     H75319   3.328   2.614   9.607  1.8241 -0.5305  1.9312
  558MOL0     H75320   3.739   2.514   9.677  0.8233 -1.5202  0.0362
  558MOL0     H75321   3.650   2.415   9.796 -2.5682 -2.1807 -0.4148
  558MOL0     H75322   3.683   2.358   9.484  1.3507 -0.6148 -0.7471
  558MOL0     H75323   3.608   2.248   9.601  0.2766 -0.0269  0.5263
  558MOL0     H75324   3.822   2.210   9.716  0.2755  2.2485  1.2365
  558MOL0     H75325   3.901   2.339   9.630 -1.4196  1.8513 -1.3253
  558MOL0     H75326   3.778   2.092   9.512  1.9366 -2.4035 -0.3335
  558MOL0     H75327   3.951   2.111   9.547  1.5994  1.5170 -1.0240
  558MOL0     H75328   3.958   2.308   9.181  1.9782  1.6400  1.3754
  558MOL0     H75329   3.491   2.251   9.769 -0.0639 -1.2970 -0.9989
  558MOL0     H75330   3.265   2.189   9.836 -0.1933  0.5586  1.2361
  559MOL0     O75331   0.970   8.706   4.179  0.0760 -0.3070 -0.3666
  559MOL0     C75332   1.089   8.752   4.173  0.6734  0.3023 -0.1034
  559MOL0     O75333   1.134   8.874   4.141  0.7404  0.0615  0.1447
  559MOL0     C75334   1.040   8.981   4.144  0.5377  0.4448  0.6997
  559MOL0     C75335   1.010   9.054   4.026  0.9510  1.4067  0.7050
  559MOL0     C75336   0.917   9.148   4.027 -0.0013  0.0976  0.6368
  559MOL0     C75337   0.862   9.191   4.143 -1.2229  0.2834  0.5505
  559MOL0     O75338   0.769   9.290   4.130  0.0771 -0.4311  0.0169
  559MOL0     C75339   0.693   9.329   4.240  0.2682 -0.3368 -0.3728
  559MOL0     C75340   0.612   9.450   4.202 -0.2362  0.0709 -0.7190
  559MOL0     C75341   0.572   9.529   4.331  0.5003  0.2451  0.7205
  559MOL0     C75342   0.435   9.601   4.304  0.3436 -0.9459  0.6581
  559MOL0     C75343   0.308   9.515   4.340 -0.0939  0.4623 -0.3537
  559MOL0     C75344   0.259   9.544   4.479 -0.2937 -0.3176  0.1391
  559MOL0     C75345   0.159   9.449   4.537 -0.7320  1.0536 -0.3151
  559MOL0     C75346   0.208   9.351   4.648 -0.7818  0.7919 -0.2167
  559MOL0     N75347   0.330   9.291   4.611 -0.2414 -0.3906 -0.0353
  559MOL0     C75348   0.346   9.182   4.529  0.3430  0.1222 -0.0459
  559MOL0     C75349   0.477   9.159   4.535 -0.6659  0.6712  0.2090
  559MOL0     C75350   0.560   9.037   4.493 -0.5823 -0.7236  0.6123
  559MOL0     C75351   0.607   8.958   4.608  0.4184  0.3280 -0.2977
  559MOL0     C75352   0.673   8.830   4.559 -0.0616  0.2760 -0.6357
  559MOL0     C75353   0.721   8.748   4.680  0.1514  0.0229 -0.2889
  559MOL0     O75354   0.764   8.614   4.635  0.1102  0.0043  0.1406
  559MOL0     C75355   0.891   8.585   4.647 -0.5782 -0.7280 -0.4991
  559MOL0     C75356   0.984   8.675   4.598  0.6554 -0.8142 -0.3843
  559MOL0     C75357   1.119   8.642   4.602 -0.0347 -0.6292 -0.4671
  559MOL0     C75358   1.216   8.736   4.540 -0.7761 -0.4005  0.3975
  559MOL0     C75359   1.157   8.523   4.668  0.0501  0.1831  0.9679
  559MOL0     C75360   1.301   8.475   4.671 -0.2552  0.9655  1.0732
  559MOL0     O75361   1.405   8.559   4.627  0.0029 -0.3162  0.3039
  559MOL0     C75362   1.518   8.491   4.610 -1.1547  0.0014  0.7201
  559MOL0     C75363   1.633   8.524   4.682 -0.2087  0.3226  0.0208
  559MOL0     C75364   1.752   8.455   4.661 -0.5043  0.0060  0.1581
  559MOL0     C75365   1.762   8.348   4.569 -0.2809  0.2147  0.4116
  559MOL0     O75366   1.881   8.283   4.560 -0.5048 -0.6181  1.0822
  559MOL0     C75367   1.934   8.270   4.427 -0.6374  0.2959  0.2609
  559MOL0     C75368   2.086   8.264   4.434 -0.5749 -0.1003  0.5179
  559MOL0     C75369   2.151   8.226   4.294  0.6457 -0.0345  1.1040
  559MOL0     C75370   2.161   8.350   4.213  0.0650 -0.2516  0.0524
  559MOL0     C75371   2.210   8.315   4.063  0.0518 -0.0957  0.9242
  559MOL0     C75372   2.177   8.440   3.989  0.1197  0.3347  0.9633
  559MOL0     C75373   2.213   8.438   3.837 -0.1423  0.0230 -0.7937
  559MOL0     C75374   2.131   8.365   3.738 -0.0147 -0.8008 -0.0399
  559MOL0    Cl75375   1.983   8.460   3.719 -0.2886 -0.0361  0.2301
  559MOL0     C75376   1.652   8.321   4.492  0.1690 -0.1375  0.1707
  559MOL0     C75377   1.530   8.393   4.516  0.6620  0.2876  0.1800
  559MOL0     O75378   1.316   8.370   4.729 -0.2101  0.0788 -0.2464
  559MOL0     C75379   1.058   8.436   4.724 -0.3170 -0.1042 -0.2922
  559MOL0     C75380   0.926   8.475   4.719 -0.1845 -0.1562 -0.1147
  559MOL0     N75381   0.546   9.255   4.605  0.0151  0.0902  0.8092
  559MOL0     N75382   0.454   9.341   4.648 -0.5228 -1.2013 -0.7374
  559MOL0     C75383   0.887   9.123   4.267 -1.1010  0.5135 -0.4128
  559MOL0     C75384   0.984   9.016   4.269  0.5068  0.1183  0.2799
  559MOL0     C75385   1.200   8.646   4.179 -0.3070 -0.7241 -0.2366
  559MOL0     C75386   1.321   8.674   4.117 -0.7451 -1.0602  0.6000
  559MOL0     C75387   1.439   8.594   4.124 -0.1377 -0.0070 -0.6234
  559MOL0     C75388   1.424   8.462   4.162  1.3416 -0.1435  0.1073
  559MOL0     O75389   1.526   8.368   4.166  0.5758  0.1123 -0.4712
  559MOL0     C75390   1.631   8.392   4.072  0.1851  0.0449  0.4348
  559MOL0     C75391   1.726   8.274   4.075  0.2526 -0.7030 -0.7824
  559MOL0     C75392   1.660   8.144   4.028 -0.2005  0.0310 -0.5876
  559MOL0     C75393   1.759   8.039   3.988  1.3009 -0.1195 -0.3236
  559MOL0     C75394   1.814   8.065   3.853 -0.0147  0.4526 -0.0942
  559MOL0     C75395   1.873   8.082   3.747  0.1549  0.1539 -0.2130
  559MOL0     C75396   1.308   8.426   4.220  0.0399 -0.6156 -0.5318
  559MOL0     C75397   1.195   8.509   4.230  0.0074  0.4420 -0.2887
  559MOL0     H75398   1.061   9.041   3.931  0.5614 -0.6917  0.7473
  559MOL0     H75399   0.898   9.194   3.931 -1.9757 -2.1713 -0.1571
  559MOL0     H75400   0.625   9.246   4.256 -1.0652  0.4676 -1.5818
  559MOL0     H75401   0.764   9.345   4.322 -0.5638  1.4193  0.0588
  559MOL0     H75402   0.673   9.510   4.134  0.7622  0.6957  0.6784
  559MOL0     H75403   0.528   9.403   4.150  0.7407 -1.9261 -0.5925
  559MOL0     H75404   0.557   9.465   4.419 -0.0102 -2.0880 -0.9722
  559MOL0     H75405   0.649   9.604   4.350  1.6301 -0.9342  0.8688
  559MOL0     H75406   0.442   9.700   4.351  4.1816 -0.0584 -1.3829
  559MOL0     H75407   0.417   9.629   4.200 -1.4715  0.2501  1.2389
  559MOL0     H75408   0.227   9.529   4.268  0.8807 -1.8661 -2.0271
  559MOL0     H75409   0.326   9.407   4.339 -1.2078  0.1727  2.1946
  559MOL0     H75410   0.345   9.559   4.546 -0.0278 -3.4244  0.6693
  559MOL0     H75411   0.202   9.637   4.481  0.4063  0.1858 -1.6638
  559MOL0     H75412   0.079   9.503   4.587 -2.2474 -0.7281 -0.7037
  559MOL0     H75413   0.116   9.399   4.450 -1.1741 -0.1877  0.5942
  559MOL0     H75414   0.133   9.273   4.664  1.5989 -1.8204 -0.8845
  559MOL0     H75415   0.223   9.399   4.745  2.2357  1.4749 -0.9357
  559MOL0     H75416   0.278   9.109   4.487  1.4601 -0.8871 -0.1273
  559MOL0     H75417   0.507   8.972   4.423 -0.5550  0.4433 -0.5058
  559MOL0     H75418   0.650   9.075   4.445  0.7836 -2.1696  1.8962
  559MOL0     H75419   0.519   8.937   4.670 -0.8173  0.5243 -1.9315
  559MOL0     H75420   0.686   9.007   4.667  0.5057  1.5263 -1.3562
  559MOL0     H75421   0.751   8.857   4.487  0.6165 -1.0965 -0.4515
  559MOL0     H75422   0.601   8.766   4.506 -0.7619  1.7660 -1.5509
  559MOL0     H75423   0.644   8.744   4.758  0.3340  0.5246 -0.0823
  559MOL0     H75424   0.804   8.805   4.722 -0.8847  0.1399  1.7308
  559MOL0     H75425   0.947   8.762   4.546 -0.8489 -1.4983 -0.5280
  559MOL0     H75426   1.173   8.830   4.503  1.3608  0.9015  1.0530
  559MOL0     H75427   1.281   8.770   4.622 -0.0024 -0.1670 -0.2984
  559MOL0     H75428   1.270   8.695   4.455 -0.6427  2.6643 -1.1605
  559MOL0     H75429   1.629   8.606   4.754 -1.2208 -1.3455  1.9582
  559MOL0     H75430   1.836   8.478   4.725 -0.9179 -0.0072  0.7036
  559MOL0     H75431   1.886   8.180   4.387  0.3054 -0.0467 -0.1254
  559MOL0     H75432   1.906   8.354   4.363  0.6215  1.0722  0.7051
  559MOL0     H75433   2.133   8.359   4.462  3.0237 -1.1295 -1.3530
  559MOL0     H75434   2.114   8.191   4.511 -0.0328 -3.1809 -2.3706
  559MOL0     H75435   2.085   8.151   4.248 -0.5554  1.2358  0.7052
  559MOL0     H75436   2.253   8.191   4.316  1.6392  1.4779 -0.7898
  559MOL0     H75437   2.075   8.418   4.213 -0.0240 -0.3355 -1.0257
  559MOL0     H75438   2.237   8.418   4.253  0.9153 -0.6831 -0.7839
  559MOL0     H75439   2.169   8.228   4.010  1.3029  1.2870 -2.6488
  559MOL0     H75440   2.318   8.298   4.071 -0.4274 -2.6187  3.9925
  559MOL0     H75441   2.071   8.460   4.008 -0.2247 -0.5343  0.0252
  559MOL0     H75442   2.230   8.524   4.035  0.6034 -0.9146  2.8249
  559MOL0     H75443   2.313   8.396   3.822 -0.5555 -0.7600 -1.4624
  559MOL0     H75444   2.222   8.540   3.800  1.9187 -0.8977 -3.0954
  559MOL0     H75445   2.110   8.268   3.783  3.1874 -2.8457 -2.5107
  559MOL0     H75446   2.177   8.343   3.641 -1.6575 -0.3297 -0.9680
  559MOL0     H75447   1.660   8.249   4.411 -1.4140  1.2884 -1.3597
  559MOL0     H75448   1.446   8.360   4.455  2.4087  0.6601 -2.5937
  559MOL0     H75449   1.088   8.348   4.780  0.6126  0.1585 -0.3550
  559MOL0     H75450   0.847   8.410   4.754 -1.8808 -0.0663 -3.3646
  559MOL0     H75451   0.837   9.138   4.362 -2.5450  0.6720 -1.1671
  559MOL0     H75452   1.024   8.962   4.353  1.6708  0.9367  0.2750
  559MOL0     H75453   1.347   8.768   4.070 -0.4550 -0.2785  2.2578
  559MOL0     H75454   1.531   8.637   4.084  0.2295 -0.4886 -0.3066
  559MOL0     H75455   1.593   8.406   3.970  2.2984  1.8989 -0.1847
  559MOL0     H75456   1.691   8.481   4.090 -0.6764  0.5983  0.6361
  559MOL0     H75457   1.758   8.257   4.178  2.0069 -1.3169 -1.3886
  559MOL0     H75458   1.819   8.292   4.019  0.9394 -0.2264  0.4761
  559MOL0     H75459   1.596   8.164   3.941  0.8530  1.7610 -1.0155
  559MOL0     H75460   1.604   8.109   4.115  3.6652 -1.1741  1.6575
  559MOL0     H75461   1.711   7.941   3.984 -0.4597  0.6387  0.9936
  559MOL0     H75462   1.835   8.025   4.065  0.1290 -2.4674  0.4955
  559MOL0     H75463   1.926   8.072   3.655  0.8569 -1.2816  0.3121
  559MOL0     H75464   1.303   8.327   4.264  0.3869  0.0564  1.1136
  559MOL0     H75465   1.102   8.479   4.278  0.4537 -0.7163 -0.1135
  560MOL0     O75466  10.604   7.072  10.891  0.2455 -0.1403  0.2007
  560MOL0     C75467  10.625   7.192  10.886  0.4079  0.4879  0.2380
  560MOL0     O75468  10.545   7.278  10.827 -0.0030 -0.8278  0.3538
  560MOL0     C75469  10.433   7.250  10.750  0.5146 -0.4480  0.2422
  560MOL0     C75470  10.335   7.152  10.782 -0.7391  0.2441  0.3985
  560MOL0     C75471  10.216   7.135  10.708  0.2500  0.0687  0.5268
  560MOL0     C75472  10.191   7.215  10.597 -0.6224  0.0268 -0.1034
  560MOL0     O75473  10.077   7.220  10.523  0.4157  0.2156  0.0999
  560MOL0     C75474   9.996   7.106  10.515  0.0509 -0.4502 -0.0600
  560MOL0     C75475   9.881   7.103  10.618 -0.0249  0.4591  0.4843
  560MOL0     C75476   9.784   7.218  10.605 -0.2022  0.1195 -0.2314
  560MOL0     C75477   9.707   7.215  10.471  0.4961 -0.6350  0.0729
  560MOL0     C75478   9.596   7.318  10.483 -0.1003 -0.6022 -0.1158
  560MOL0     C75479   9.539   7.338  10.344 -0.0744 -1.2863 -0.3006
  560MOL0     C75480   9.400   7.399  10.363  0.2574 -0.1284  0.4648
  560MOL0     C75481   9.339   7.441  10.233  0.5652 -0.7354  1.1842
  560MOL0     N75482   9.192   7.435  10.242 -0.5971 -0.1058  0.2421
  560MOL0     C75483   9.114   7.478  10.337  0.8816 -0.2024  0.3650
  560MOL0     C75484   8.986   7.438  10.327 -0.4723 -0.5228  0.7140
  560MOL0     C75485   8.879   7.474  10.416  0.0525 -0.0338 -0.1728
  560MOL0     C75486   8.756   7.382  10.422 -1.0568  0.7008  0.0126
  560MOL0     C75487   8.657   7.403  10.314  0.4727 -0.4124 -1.0148
  560MOL0     C75488   8.544   7.295  10.316 -1.1478  0.1267 -0.0782
  560MOL0     O75489   8.494   7.280  10.183 -0.5360 -0.2878 -0.5019
  560MOL0     C75490   8.474   7.155  10.129 -0.1713  0.1581 -0.6876
  560MOL0     C75491   8.582   7.071  10.121 -0.4867  0.3533  0.0294
  560MOL0     C75492   8.556   6.933  10.078 -0.2171 -0.3293 -0.2965
  560MOL0     C75493   8.676   6.846  10.100  0.3331 -0.0225 -0.0956
  560MOL0     C75494   8.432   6.894  10.013  0.2125  1.4242  0.0686
  560MOL0     C75495   8.398   6.759   9.962 -0.0553  0.2941  0.0848
  560MOL0     O75496   8.304   6.745   9.866 -0.7920 -0.3616 -0.6822
  560MOL0     C75497   8.272   6.626   9.814  0.6490  0.1025 -0.0813
  560MOL0     C75498   8.342   6.597   9.701  0.1758  0.0336  0.6225
  560MOL0     C75499   8.323   6.474   9.644  0.2867 -0.2061  0.6857
  560MOL0     C75500   8.219   6.380   9.685 -0.2226 -0.8248 -0.5490
  560MOL0     O75501   8.197   6.264   9.611 -0.2570 -0.1829  0.4658
  560MOL0     C75502   8.077   6.190   9.619  0.0778  0.1034  0.4919
  560MOL0     C75503   8.086   6.064   9.523 -0.6850  0.4107 -0.0117
  560MOL0     C75504   7.961   5.971   9.522  0.4562 -0.4209  0.0137
  560MOL0     C75505   7.838   6.046   9.469  0.1118 -0.3184  0.1254
  560MOL0     C75506   7.718   5.951   9.473 -0.3040 -0.6626 -0.2256
  560MOL0     C75507   7.606   6.019   9.387 -0.0442  0.1739  0.1923
  560MOL0     C75508   7.461   5.963   9.408  0.5731 -0.6899  0.3791
  560MOL0     C75509   7.448   5.813   9.426 -0.7133  0.3449  0.6385
  560MOL0    Cl75510   7.282   5.762   9.421  0.0867 -0.4175  0.4663
  560MOL0     C75511   8.148   6.416   9.800  1.3057  0.1025  0.3007
  560MOL0     C75512   8.179   6.534   9.869  0.7216  0.0319 -0.5648
  560MOL0     O75513   8.476   6.666   9.990  0.5179  0.1390 -0.7135
  560MOL0     C75514   8.336   6.996   9.997 -0.0814  0.9959 -0.7715
  560MOL0     C75515   8.356   7.122  10.058  0.0075 -0.2446 -0.0243
  560MOL0     N75516   8.985   7.380  10.204  0.4432 -0.0347 -0.9760
  560MOL0     N75517   9.105   7.377  10.158 -0.8865 -0.2638  1.4135
  560MOL0     C75518  10.289   7.318  10.567 -0.1156 -0.1910  0.1331
  560MOL0     C75519  10.410   7.337  10.636  0.1205  0.3690 -0.6883
  560MOL0     C75520  10.747   7.242  10.952 -0.1825  0.6343 -0.3029
  560MOL0     C75521  10.782   7.377  10.946  0.4479  0.2772 -0.0083
  560MOL0     C75522  10.904   7.426  11.011  0.5547  0.2712  0.2527
  560MOL0     C75523  10.996   7.335  11.083  1.2086 -0.6062  0.2308
  560MOL0     O75524  11.109   7.389  11.142  0.2729 -0.0672 -0.0045
  560MOL0     C75525  11.157   7.312  11.262 -0.2554 -0.7372  0.2803
  560MOL0     C75526  11.071   7.370  11.378  0.1048  0.6049 -0.0504
  560MOL0     C75527  11.136   7.336  11.517  0.0785  0.2722 -0.7801
  560MOL0     C75528  11.060   7.406  11.623  1.2523 -0.3047  0.0842
  560MOL0     C75529  11.098   7.548  11.618 -0.2871 -0.1302 -0.2768
  560MOL0     C75530  11.137   7.664  11.637 -0.0173  0.0468 -0.2913
  560MOL0     C75531  10.960   7.198  11.075  0.2387  0.3104 -0.8271
  560MOL0     C75532  10.840   7.152  11.009  0.3269 -0.1010 -0.1054
  560MOL0     H75533  10.343   7.104  10.879 -0.7600 -0.6156 -0.0189
  560MOL0     H75534  10.138   7.065  10.737  1.8665 -1.5561  1.1502
  560MOL0     H75535   9.950   7.103  10.416 -1.0637 -2.6501  0.4481
  560MOL0     H75536  10.057   7.015  10.527 -1.4468 -1.7398 -1.6503
  560MOL0     H75537   9.822   7.012  10.616  0.3788  0.1990 -0.6577
  560MOL0     H75538   9.926   7.110  10.717 -0.7818 -0.2322  0.8878
  560MOL0     H75539   9.709   7.212  10.685 -2.0123 -0.5829 -1.8989
  560MOL0     H75540   9.835   7.313  10.626  1.3208 -0.7028 -0.0778
  560MOL0     H75541   9.774   7.232  10.387 -0.0564 -0.5717 -0.3634
  560MOL0     H75542   9.668   7.118  10.441  0.6482  0.2187 -3.2335
  560MOL0     H75543   9.520   7.291  10.556  1.0472 -0.8988  1.0062
  560MOL0     H75544   9.638   7.411  10.522 -1.7254  0.0392  0.1437
  560MOL0     H75545   9.597   7.411  10.289  2.2507 -1.4212  1.8032
  560MOL0     H75546   9.521   7.244  10.291  0.1505 -0.7372 -1.3721
  560MOL0     H75547   9.333   7.325  10.407 -2.0413  1.8837  0.5649
  560MOL0     H75548   9.397   7.488  10.427  2.5007  1.4505 -1.4351
  560MOL0     H75549   9.364   7.382  10.144 -2.1637  2.8122 -2.3098
  560MOL0     H75550   9.368   7.543  10.202 -0.5582 -0.6476  0.3790
  560MOL0     H75551   9.152   7.544  10.415  0.7797  1.5916 -1.0458
  560MOL0     H75552   8.925   7.487  10.514  1.0863 -1.2759 -0.4616
  560MOL0     H75553   8.844   7.574  10.390  1.7232  0.5573 -0.2394
  560MOL0     H75554   8.709   7.414  10.515 -2.1774 -0.9868  0.0634
  560MOL0     H75555   8.790   7.279  10.432 -0.8816  0.7488 -0.0834
  560MOL0     H75556   8.702   7.390  10.215  0.5570 -1.0065 -0.9074
  560MOL0     H75557   8.613   7.502  10.322  0.9422 -0.2310 -0.6001
  560MOL0     H75558   8.460   7.320  10.382 -1.4842  2.1512 -1.1745
  560MOL0     H75559   8.584   7.198  10.346  1.5180  0.6975 -1.5084
  560MOL0     H75560   8.671   7.118  10.164  0.0946  0.0621 -0.8408
  560MOL0     H75561   8.767   6.906  10.108 -0.1190  0.5376  1.0513
  560MOL0     H75562   8.669   6.779  10.186 -0.3828 -1.7582 -1.4410
  560MOL0     H75563   8.688   6.779  10.014  1.7350 -1.6312  1.2474
  560MOL0     H75564   8.406   6.676   9.665 -1.5657  1.5936  0.8279
  560MOL0     H75565   8.360   6.461   9.543 -0.6404  0.7624  0.1974
  560MOL0     H75566   8.067   6.161   9.724  1.0098 -1.4934  0.1711
  560MOL0     H75567   7.990   6.252   9.598  0.6417  0.7763  0.0886
  560MOL0     H75568   8.113   6.100   9.424  0.7679  0.5682  0.4084
  560MOL0     H75569   8.176   6.018   9.565 -0.1906  3.3833  2.5529
  560MOL0     H75570   7.938   5.940   9.624 -1.0175  2.0081  0.4985
  560MOL0     H75571   7.975   5.889   9.451  2.2812  0.3476 -0.5676
  560MOL0     H75572   7.804   6.126   9.535  0.9204 -2.0010  2.7251
  560MOL0     H75573   7.863   6.082   9.369 -0.3278 -1.9358 -0.6122
  560MOL0     H75574   7.698   5.946   9.581  1.4872  1.8380  0.3074
  560MOL0     H75575   7.748   5.854   9.432  1.7064  0.0485 -0.5182
  560MOL0     H75576   7.597   6.126   9.409  0.0647  0.5291 -1.3614
  560MOL0     H75577   7.633   6.005   9.282 -1.5270  1.8928 -0.4707
  560MOL0     H75578   7.401   5.987   9.320 -0.1503  0.6577  1.2103
  560MOL0     H75579   7.423   6.016   9.496 -0.0071 -2.4234  1.2076
  560MOL0     H75580   7.487   5.777   9.522 -1.3840  1.4444  1.3524
  560MOL0     H75581   7.509   5.772   9.345  2.5755  2.0736  2.0271
  560MOL0     H75582   8.069   6.354   9.840  0.0440  0.5091 -1.4427
  560MOL0     H75583   8.128   6.571   9.957  1.9827  0.5181 -0.0106
  560MOL0     H75584   8.242   6.973   9.947  0.0645 -0.6983 -0.3280
  560MOL0     H75585   8.277   7.196  10.061  1.1259  0.9563  0.3709
  560MOL0     H75586  10.269   7.381  10.481 -0.4489 -1.0109 -0.4067
  560MOL0     H75587  10.494   7.405  10.624  2.4066 -1.9018  1.1914
  560MOL0     H75588  10.729   7.457  10.896  0.4965  0.2307 -0.1378
  560MOL0     H75589  10.925   7.532  11.002  3.0220 -0.1377  0.5121
  560MOL0     H75590  11.145   7.204  11.245  2.5063 -0.8227 -1.9434
  560MOL0     H75591  11.261   7.334  11.287  0.2280  0.0223 -2.1170
  560MOL0     H75592  10.974   7.322  11.366  0.9704 -1.0660 -0.7822
  560MOL0     H75593  11.068   7.478  11.361  1.1050  0.3433 -2.2734
  560MOL0     H75594  11.243   7.358  11.530  0.2793 -1.4544  0.8630
  560MOL0     H75595  11.116   7.229  11.528  0.9698  0.2387  0.8816
  560MOL0     H75596  11.083   7.362  11.720 -0.5874 -2.0527 -0.1994
  560MOL0     H75597  10.951   7.408  11.610  1.3584  2.6562 -1.1531
  560MOL0     H75598  11.167   7.766  11.640 -2.6152  1.0103 -2.7311
  560MOL0     H75599  11.026   7.119  11.110  0.3220  1.6332  2.2924
  560MOL0     H75600  10.820   7.046  11.020 -0.7758  0.1991  1.0771
  561MOL0     O75601   2.446   1.431   4.552  0.1413 -0.5436  0.6257
  561MOL0     C75602   2.493   1.378   4.452 -0.6269  0.0193  0.5484
  561MOL0     O75603   2.427   1.360   4.338 -0.6047 -0.0782 -0.0981
  561MOL0     C75604   2.298   1.394   4.314  0.0830  0.3288  0.0762
  561MOL0     C75605   2.272   1.408   4.179  0.5966 -1.0907  0.8523
  561MOL0     C75606   2.146   1.432   4.124 -0.0692  0.5056  0.9408
  561MOL0     C75607   2.037   1.433   4.203 -0.3322 -0.0551  0.0256
  561MOL0     O75608   1.913   1.432   4.155  0.1549  0.1145  0.3332
  561MOL0     C75609   1.863   1.560   4.179  1.4506  0.0172  0.2288
  561MOL0     C75610   1.724   1.558   4.111  0.4369 -0.8269  0.3108
  561MOL0     C75611   1.655   1.692   4.128 -0.5173 -0.1038  0.6531
  561MOL0     C75612   1.514   1.683   4.074 -0.9743 -0.5287  1.3716
  561MOL0     C75613   1.407   1.683   4.183 -0.5614  0.3640 -0.7218
  561MOL0     C75614   1.404   1.552   4.266  0.8931 -0.0651  0.1635
  561MOL0     C75615   1.270   1.534   4.343  0.3562 -0.1537 -0.0274
  561MOL0     C75616   1.263   1.638   4.459  0.1700  0.0643 -0.2926
  561MOL0     N75617   1.122   1.654   4.496  0.5212  0.3323 -0.9198
  561MOL0     C75618   1.053   1.771   4.485  0.6653  0.3544  0.2956
  561MOL0     C75619   0.939   1.749   4.555 -0.1567 -0.3577 -0.3479
  561MOL0     C75620   0.813   1.835   4.561  0.2604 -0.2012  0.3618
  561MOL0     C75621   0.763   1.876   4.419  0.3066  0.1467 -0.1373
  561MOL0     C75622   0.626   1.950   4.431 -0.8573  0.5118 -0.4891
  561MOL0     C75623   0.509   1.856   4.462 -0.6199  0.5448 -0.1323
  561MOL0     O75624   0.384   1.938   4.452  0.0376 -0.5055 -0.0179
  561MOL0     C75625   0.285   1.917   4.546 -0.0286  0.0874  0.3012
  561MOL0     C75626   0.164   1.971   4.511  0.6728 -0.0521 -1.2173
  561MOL0     C75627   0.052   1.967   4.601 -0.8401  0.2495  0.3350
  561MOL0     C75628  -0.083   2.023   4.556  0.2464 -0.1752  0.1326
  561MOL0     C75629   0.073   1.902   4.726  0.3868 -0.5178 -0.3164
  561MOL0     C75630  -0.037   1.878   4.830 -0.6462  0.0048  0.6839
  561MOL0     O75631  -0.000   1.816   4.943  0.1247 -0.1591  0.1982
  561MOL0     C75632  -0.114   1.786   5.026 -0.1564 -0.8961  0.1320
  561MOL0     C75633  -0.153   1.861   5.137 -0.6736 -0.0501 -0.0475
  561MOL0     C75634  -0.266   1.830   5.207  0.5956 -0.3024  1.1138
  561MOL0     C75635  -0.361   1.749   5.162 -0.3283  0.3841 -0.1226
  561MOL0     O75636  -0.476   1.741   5.238 -0.1708  0.3849 -0.6487
  561MOL0     C75637  -0.588   1.676   5.181  0.7651  0.2961 -0.4039
  561MOL0     C75638  -0.695   1.672   5.285  0.2635 -0.2755 -0.4449
  561MOL0     C75639  -0.820   1.616   5.233 -0.0566  0.5166 -0.5783
  561MOL0     C75640  -0.924   1.612   5.350  0.4256 -0.1428  0.0437
  561MOL0     C75641  -1.044   1.544   5.309 -0.2922 -0.0851 -0.0913
  561MOL0     C75642  -1.164   1.627   5.322  0.0723  0.5530 -0.3235
  561MOL0     C75643  -1.299   1.579   5.265  1.0488 -0.4500  0.0714
  561MOL0     C75644  -1.336   1.435   5.320  0.1809 -0.2210  0.1811
  561MOL0    Cl75645  -1.343   1.426   5.499  0.1023  0.1192  0.2196
  561MOL0     C75646  -0.333   1.672   5.047 -1.0772  0.2934  0.4270
  561MOL0     C75647  -0.206   1.684   4.987 -0.2532  0.2379  0.2613
  561MOL0     O75648  -0.147   1.905   4.798 -0.0392  0.2974  0.0044
  561MOL0     C75649   0.193   1.841   4.750 -0.1749  0.0828  0.9154
  561MOL0     C75650   0.303   1.860   4.667 -0.3151 -0.1598  0.0186
  561MOL0     N75651   0.952   1.624   4.613  0.3523 -0.4833 -0.2688
  561MOL0     N75652   1.061   1.569   4.587 -0.5452  0.3717  0.6199
  561MOL0     C75653   2.059   1.416   4.338 -0.8303  0.4056  0.1580
  561MOL0     C75654   2.186   1.404   4.401  0.3120 -0.2562 -0.4140
  561MOL0     C75655   2.634   1.345   4.453  0.0335  0.0633  1.2626
  561MOL0     C75656   2.719   1.389   4.552 -0.1664  0.1572 -0.5568
  561MOL0     C75657   2.852   1.361   4.541 -0.0338 -0.2837 -0.0633
  561MOL0     C75658   2.906   1.280   4.441 -0.4620 -0.7347 -0.1004
  561MOL0     O75659   3.038   1.253   4.432  0.2103 -0.4362 -0.6393
  561MOL0     C75660   3.145   1.318   4.500 -1.0141  0.3958  0.2613
  561MOL0     C75661   3.274   1.243   4.448  0.2549 -0.3225 -0.3773
  561MOL0     C75662   3.393   1.320   4.509  0.2107  1.1337 -0.1057
  561MOL0     C75663   3.519   1.250   4.448  0.0385 -0.6862  0.4330
  561MOL0     C75664   3.633   1.298   4.526 -0.5506 -0.5994  0.4642
  561MOL0     C75665   3.720   1.359   4.585 -0.7046 -0.0466  0.3366
  561MOL0     C75666   2.821   1.234   4.345  0.5196  0.3512 -0.3270
  561MOL0     C75667   2.681   1.264   4.353 -0.1853 -0.5347  0.4787
  561MOL0     H75668   2.359   1.398   4.114  1.1884 -0.8784  1.5991
  561MOL0     H75669   2.136   1.448   4.017 -0.1073 -0.4454  0.7880
  561MOL0     H75670   1.833   1.584   4.282 -1.9706 -1.8485 -0.1810
  561MOL0     H75671   1.922   1.641   4.136  1.3698 -0.8332 -1.5796
  561MOL0     H75672   1.720   1.525   4.007  2.1278 -2.4434  0.7126
  561MOL0     H75673   1.659   1.489   4.164  0.4768  0.2884  1.8965
  561MOL0     H75674   1.664   1.711   4.236  3.1963 -0.3371  0.5351
  561MOL0     H75675   1.709   1.767   4.071  1.8810 -2.0900  0.1300
  561MOL0     H75676   1.490   1.769   4.011 -2.2396  0.1621  2.7495
  561MOL0     H75677   1.503   1.597   4.007 -0.9697 -0.7842  1.6920
  561MOL0     H75678   1.432   1.768   4.248 -1.2234 -1.7081  2.5056
  561MOL0     H75679   1.309   1.697   4.137 -0.6760 -0.4993 -0.7559
  561MOL0     H75680   1.408   1.472   4.192 -2.2232 -0.8967  0.7694
  561MOL0     H75681   1.485   1.544   4.339  1.2962 -1.8230 -0.4350
  561MOL0     H75682   1.188   1.545   4.273  1.8242 -0.7991 -1.9314
  561MOL0     H75683   1.264   1.437   4.393  2.8097  0.4748  1.7044
  561MOL0     H75684   1.300   1.737   4.431 -0.4850  0.2108 -0.6616
  561MOL0     H75685   1.319   1.596   4.543 -0.7533 -0.4224  0.1022
  561MOL0     H75686   1.069   1.863   4.430  1.2017  0.1431  0.0904
  561MOL0     H75687   0.740   1.772   4.611  1.0187 -2.2321 -0.9728
  561MOL0     H75688   0.845   1.919   4.623  2.8392  0.1050 -1.2096
  561MOL0     H75689   0.742   1.785   4.361 -1.3680 -0.3072  1.1230
  561MOL0     H75690   0.840   1.938   4.372 -0.0059 -1.1582 -2.5670
  561MOL0     H75691   0.605   2.008   4.340 -0.4015 -0.2121 -1.0709
  561MOL0     H75692   0.642   2.021   4.512  0.2995  0.4919 -0.6695
  561MOL0     H75693   0.532   1.809   4.558  1.3640  0.6405 -0.5142
  561MOL0     H75694   0.512   1.774   4.389 -0.3137  1.2027 -0.8814
  561MOL0     H75695   0.140   2.024   4.420 -2.1171 -1.2983 -1.2951
  561MOL0     H75696  -0.155   1.941   4.556  2.0814 -1.8875 -0.7478
  561MOL0     H75697  -0.108   2.104   4.625 -1.1080 -0.3377 -0.1402
  561MOL0     H75698  -0.079   2.065   4.455 -2.7679  3.2777  1.2261
  561MOL0     H75699  -0.098   1.952   5.158 -0.2217 -0.0860 -1.0273
  561MOL0     H75700  -0.282   1.897   5.291 -1.1869  0.3561  0.2887
  561MOL0     H75701  -0.610   1.746   5.099  1.8443  2.3932  0.9964
  561MOL0     H75702  -0.559   1.573   5.159  0.4319 -0.1436  1.0939
  561MOL0     H75703  -0.652   1.608   5.364  1.2384  1.5969  0.6224
  561MOL0     H75704  -0.719   1.774   5.317 -2.5792 -1.0668  0.1932
  561MOL0     H75705  -0.811   1.511   5.206  0.4369  0.0904  1.1355
  561MOL0     H75706  -0.862   1.676   5.152 -2.7326  0.9030  0.9766
  561MOL0     H75707  -0.882   1.561   5.438 -0.4666  0.4979  0.8629
  561MOL0     H75708  -0.947   1.713   5.383  0.7146 -0.4011  1.0739
  561MOL0     H75709  -1.056   1.458   5.375  0.0567 -1.4958 -1.8038
  561MOL0     H75710  -1.044   1.508   5.206 -3.1819 -1.0911  0.1572
  561MOL0     H75711  -1.179   1.642   5.429 -0.0147  1.1635 -0.4159
  561MOL0     H75712  -1.130   1.718   5.272 -2.0785  1.0109 -1.0717
  561MOL0     H75713  -1.295   1.588   5.156  0.8047 -2.9079 -0.1774
  561MOL0     H75714  -1.369   1.658   5.296  2.5541  1.0415 -0.1659
  561MOL0     H75715  -1.286   1.347   5.278  0.2525  0.0953 -0.4097
  561MOL0     H75716  -1.444   1.421   5.309 -0.1750  2.2730  0.0105
  561MOL0     H75717  -0.405   1.596   5.017  1.4122 -2.2517  0.5486
  561MOL0     H75718  -0.181   1.637   4.892 -0.7395  0.8686 -0.1919
  561MOL0     H75719   0.211   1.795   4.847  1.3983 -1.8783 -0.2262
  561MOL0     H75720   0.397   1.822   4.704  0.8451  1.3271 -1.3168
  561MOL0     H75721   1.973   1.423   4.404 -0.6378  0.0252  0.4546
  561MOL0     H75722   2.189   1.381   4.507 -3.1066  0.7172  0.0089
  561MOL0     H75723   2.673   1.438   4.637 -2.1661  0.3331 -1.6882
  561MOL0     H75724   2.914   1.398   4.622 -0.0661  0.8249 -0.5284
  561MOL0     H75725   3.142   1.424   4.471 -1.4138  0.3485  0.1232
  561MOL0     H75726   3.136   1.308   4.608 -2.3569 -3.1238 -0.0747
  561MOL0     H75727   3.273   1.247   4.339  1.5275  0.4690 -0.3785
  561MOL0     H75728   3.274   1.136   4.468 -1.5165 -1.2775 -4.4282
  561MOL0     H75729   3.405   1.302   4.616  2.3032 -2.0404 -0.7232
  561MOL0     H75730   3.378   1.427   4.490 -1.3750  1.4866  2.7466
  561MOL0     H75731   3.538   1.272   4.342  3.1996  2.9870  1.5171
  561MOL0     H75732   3.504   1.143   4.466 -1.5392 -0.1187  2.9496
  561MOL0     H75733   3.796   1.413   4.639 -0.6785 -0.2332  0.4868
  561MOL0     H75734   2.861   1.164   4.273  3.4043  2.0859 -0.5765
  561MOL0     H75735   2.629   1.234   4.262  0.4029  2.6070 -1.0427
  562MOL0     O75736   1.037  10.996   4.188 -0.2170 -0.5489  0.0813
  562MOL0     C75737   1.057  10.875   4.169  0.2374 -0.1758  0.2259
  562MOL0     O75738   0.986  10.776   4.223 -0.2469  0.4160 -0.0505
  562MOL0     C75739   0.886  10.822   4.303  0.5239  0.1707 -0.0466
  562MOL0     C75740   0.755  10.853   4.264  0.7120 -0.3289 -0.3678
  562MOL0     C75741   0.653  10.894   4.356 -0.0763 -0.0630  0.3289
  562MOL0     C75742   0.691  10.899   4.498  0.5137 -0.3832  0.5718
  562MOL0     O75743   0.593  10.928   4.584  0.2948  0.2672 -0.5535
  562MOL0     C75744   0.621  10.924   4.725  0.1438  0.3991  0.6699
  562MOL0     C75745   0.496  10.985   4.787  0.5331  0.4320 -0.5149
  562MOL0     C75746   0.385  10.878   4.770  0.8707  0.1556  0.4457
  562MOL0     C75747   0.261  10.903   4.857 -0.0689  0.2645 -0.2387
  562MOL0     C75748   0.143  10.810   4.812 -0.4059  0.5832  0.3443
  562MOL0     C75749   0.005  10.871   4.849 -0.0059 -0.0385 -0.2890
  562MOL0     C75750  -0.110  10.769   4.823 -0.0320  0.2713 -0.0199
  562MOL0     C75751  -0.246  10.834   4.855  0.7112 -0.4865 -0.6250
  562MOL0     N75752  -0.353  10.729   4.835 -0.3151  0.1535 -0.6059
  562MOL0     C75753  -0.412  10.692   4.712 -0.0753  0.4198 -0.0218
  562MOL0     C75754  -0.492  10.596   4.752  0.2081  0.4180  1.0161
  562MOL0     C75755  -0.562  10.500   4.654 -0.0169  0.5004 -0.3531
  562MOL0     C75756  -0.712  10.501   4.684 -0.6109 -0.0797 -0.1490
  562MOL0     C75757  -0.770  10.640   4.667 -0.0893  0.1006  0.0133
  562MOL0     C75758  -0.773  10.686   4.523  0.2654 -0.3460  0.9486
  562MOL0     O75759  -0.850  10.799   4.516  0.1567  0.0445 -0.5815
  562MOL0     C75760  -0.981  10.788   4.485  0.7563  0.1289 -0.2409
  562MOL0     C75761  -1.051  10.670   4.505 -0.0688 -0.6746 -1.1328
  562MOL0     C75762  -1.186  10.661   4.474  0.8093 -0.3984 -0.2191
  562MOL0     C75763  -1.255  10.530   4.518 -0.3618  0.1666 -0.2799
  562MOL0     C75764  -1.264  10.766   4.409  0.1374 -0.0162 -0.4806
  562MOL0     C75765  -1.402  10.759   4.360  0.4177  0.3116  0.0801
  562MOL0     O75766  -1.461  10.636   4.351 -0.2570 -0.2900 -0.1135
  562MOL0     C75767  -1.597  10.632   4.338 -0.8523  0.4556 -0.3457
  562MOL0     C75768  -1.679  10.685   4.436  0.3568  0.6633 -0.5255
  562MOL0     C75769  -1.814  10.666   4.436  0.1611 -0.0076  0.4177
  562MOL0     C75770  -1.872  10.582   4.336 -0.0064  0.2803 -0.3010
  562MOL0     O75771  -2.005  10.551   4.328  0.3175 -0.3949  0.4904
  562MOL0     C75772  -2.101  10.615   4.416 -0.4170  0.2540  0.5867
  562MOL0     C75773  -2.148  10.752   4.365 -0.8774  0.6997  0.2660
  562MOL0     C75774  -2.279  10.792   4.437 -0.6321 -0.7546  0.3679
  562MOL0     C75775  -2.350  10.891   4.344  1.1604 -0.6348 -1.1296
  562MOL0     C75776  -2.498  10.930   4.387 -0.3403 -0.8531 -0.3426
  562MOL0     C75777  -2.594  10.814   4.396 -0.1887  0.0806 -0.3681
  562MOL0     C75778  -2.744  10.846   4.443 -0.3546  0.5431  1.2715
  562MOL0     C75779  -2.818  10.945   4.348  0.8567  0.5693 -0.2825
  562MOL0    Cl75780  -2.970  10.976   4.419  0.1718  0.4335  0.0846
  562MOL0     C75781  -1.788  10.525   4.245 -0.8285 -0.1100 -0.2896
  562MOL0     C75782  -1.651  10.547   4.244  0.3026  0.0859  0.0191
  562MOL0     O75783  -1.456  10.873   4.346  0.2675  0.2437  0.2168
  562MOL0     C75784  -1.192  10.886   4.401 -0.2251  0.0062  0.0016
  562MOL0     C75785  -1.055  10.898   4.436  0.4078 -0.9489  0.1314
  562MOL0     N75786  -0.501  10.587   4.890 -0.3696  0.1684 -0.6863
  562MOL0     N75787  -0.406  10.661   4.938 -0.2767 -0.4078 -0.4349
  562MOL0     C75788   0.818  10.859   4.539 -0.1096  0.5875  0.4699
  562MOL0     C75789   0.915  10.827   4.436  0.6401  0.3568 -0.0710
  562MOL0     C75790   1.172  10.837   4.084 -0.1626  0.3245  0.8466
  562MOL0     C75791   1.233  10.937   4.003 -0.9909  0.1458  0.2421
  562MOL0     C75792   1.343  10.899   3.925 -0.2513 -0.2671  0.6809
  562MOL0     C75793   1.383  10.769   3.919 -0.5075  0.2162  0.5340
  562MOL0     O75794   1.494  10.744   3.841 -0.4290 -0.5697 -0.3637
  562MOL0     C75795   1.512  10.617   3.779 -0.5788  0.3302 -0.3398
  562MOL0     C75796   1.624  10.623   3.672 -0.5837  0.0225 -0.5767
  562MOL0     C75797   1.621  10.723   3.553  0.2210 -0.3207 -0.8798
  562MOL0     C75798   1.625  10.661   3.420 -0.0008 -0.1077 -0.3094
  562MOL0     C75799   1.498  10.618   3.362  0.5257  0.0030  0.2010
  562MOL0     C75800   1.396  10.600   3.294  0.4672 -0.4308 -0.8711
  562MOL0     C75801   1.325  10.668   4.004  1.0371 -0.4648  0.7190
  562MOL0     C75802   1.217  10.707   4.091 -0.6376  0.4794  0.7674
  562MOL0     H75803   0.739  10.848   4.157 -1.1917 -0.8546 -0.1033
  562MOL0     H75804   0.549  10.915   4.332 -0.2480  1.0279  1.8391
  562MOL0     H75805   0.641  10.822   4.757  0.5715 -0.2491 -1.4920
  562MOL0     H75806   0.700  10.999   4.736  0.7598  0.2870 -2.1747
  562MOL0     H75807   0.502  11.008   4.894 -1.2469 -0.3878 -0.2108
  562MOL0     H75808   0.460  11.079   4.742  1.4639  1.8664  1.5682
  562MOL0     H75809   0.356  10.870   4.665 -0.3095  0.0886  0.7533
  562MOL0     H75810   0.428  10.782   4.801  0.0498  0.3160  2.2311
  562MOL0     H75811   0.288  10.884   4.961 -1.0038 -1.4136 -0.2695
  562MOL0     H75812   0.228  11.006   4.843 -3.2069 -0.5447  0.4213
  562MOL0     H75813   0.155  10.778   4.708  0.8662 -0.4320  0.7717
  562MOL0     H75814   0.161  10.724   4.878  3.3463  0.9969  0.0737
  562MOL0     H75815   0.001  10.908   4.952 -2.7891  1.5649 -0.8367
  562MOL0     H75816  -0.010  10.965   4.794  1.9931  2.3762  2.8851
  562MOL0     H75817  -0.108  10.745   4.716 -1.0059 -0.8448  0.1906
  562MOL0     H75818  -0.098  10.684   4.890 -0.0608  0.3820  0.1265
  562MOL0     H75819  -0.275  10.920   4.794  0.3862 -0.3480 -0.2784
  562MOL0     H75820  -0.252  10.872   4.957 -1.4518 -1.9822 -0.1196
  562MOL0     H75821  -0.385  10.715   4.609  1.1880  0.5118  0.3190
  562MOL0     H75822  -0.530  10.528   4.553 -0.4906 -2.3858 -1.3797
  562MOL0     H75823  -0.524  10.399   4.668  1.1059  1.0689  1.0157
  562MOL0     H75824  -0.710  10.458   4.785  1.3896 -1.3360 -0.6712
  562MOL0     H75825  -0.764  10.425   4.625 -0.8307 -0.6044  0.7017
  562MOL0     H75826  -0.715  10.713   4.726 -1.1260  0.2536  0.8204
  562MOL0     H75827  -0.870  10.644   4.712  0.0315 -1.1723  0.4221
  562MOL0     H75828  -0.815  10.608   4.459  1.0587  0.4668 -0.6229
  562MOL0     H75829  -0.670  10.694   4.486 -0.5916 -0.6187 -1.7448
  562MOL0     H75830  -1.013  10.580   4.551 -1.3354  0.4637  2.4690
  562MOL0     H75831  -1.334  10.548   4.590 -1.5091  1.1372 -1.7150
  562MOL0     H75832  -1.300  10.479   4.432 -2.1090 -1.6991  1.6369
  562MOL0     H75833  -1.186  10.458   4.563 -1.5313 -0.9642 -0.2463
  562MOL0     H75834  -1.629  10.752   4.506  0.2131  1.8058 -1.4957
  562MOL0     H75835  -1.865  10.732   4.505 -1.2567 -0.8086  0.1822
  562MOL0     H75836  -2.181  10.541   4.405 -0.1338  0.2987 -3.1314
  562MOL0     H75837  -2.069  10.625   4.520 -1.7258  0.6272  0.9778
  562MOL0     H75838  -2.073  10.830   4.382  2.1135 -1.7757 -0.5669
  562MOL0     H75839  -2.164  10.747   4.256  1.7938 -1.1366 -0.1258
  562MOL0     H75840  -2.249  10.845   4.528  0.2390  0.0427 -0.3738
  562MOL0     H75841  -2.347  10.709   4.461 -1.4172 -1.0653 -2.6094
  562MOL0     H75842  -2.295  10.983   4.326  0.3776 -0.4137 -2.5018
  562MOL0     H75843  -2.366  10.847   4.245 -2.7403  1.5930 -1.6644
  562MOL0     H75844  -2.528  10.996   4.305 -0.2195 -1.3616 -0.7992
  562MOL0     H75845  -2.507  10.997   4.473  0.2931  1.5841 -2.0571
  562MOL0     H75846  -2.603  10.761   4.301 -3.0104 -0.3470  0.0441
  562MOL0     H75847  -2.559  10.753   4.480 -0.2019 -1.6378 -1.5581
  562MOL0     H75848  -2.737  10.899   4.538  3.1872  1.6726  0.5444
  562MOL0     H75849  -2.801  10.753   4.455 -0.1952  0.3340  0.4901
  562MOL0     H75850  -2.824  10.910   4.245  0.1240  2.7104 -1.0191
  562MOL0     H75851  -2.768  11.042   4.342 -1.2920  1.8492  1.1004
  562MOL0     H75852  -1.834  10.459   4.173 -1.0447 -0.5779  0.2706
  562MOL0     H75853  -1.596  10.494   4.167 -0.7415 -1.2042  0.1247
  562MOL0     H75854  -1.237  10.973   4.354  3.1037  0.8222 -2.0373
  562MOL0     H75855  -0.998  10.989   4.420  3.2075 -2.3689  1.2082
  562MOL0     H75856   0.847  10.834   4.640  0.8017 -1.7432 -0.2924
  562MOL0     H75857   1.017  10.797   4.458  1.2710 -0.7708 -3.9213
  562MOL0     H75858   1.189  11.036   4.010 -0.9739  0.0601  2.1132
  562MOL0     H75859   1.392  10.969   3.858 -0.3553  0.9454  1.8316
  562MOL0     H75860   1.532  10.545   3.859 -0.1921  0.5337 -0.2549
  562MOL0     H75861   1.417  10.585   3.734 -0.1950  0.3759 -1.2039
  562MOL0     H75862   1.623  10.519   3.637  0.6546 -0.4810  0.7344
  562MOL0     H75863   1.714  10.632   3.734 -1.2373 -0.6607  0.5147
  562MOL0     H75864   1.710  10.785   3.563 -0.1008  0.1957 -1.2058
  562MOL0     H75865   1.535  10.791   3.555 -0.9210 -1.6962  0.3400
  562MOL0     H75866   1.695  10.577   3.413 -0.3125 -0.5646  1.4185
  562MOL0     H75867   1.655  10.734   3.344 -0.2517 -3.3065 -3.7701
  562MOL0     H75868   1.302  10.584   3.246 -0.1635  1.4189 -0.3143
  562MOL0     H75869   1.364  10.567   4.002 -2.6021 -2.0306 -1.2313
  562MOL0     H75870   1.185  10.630   4.161 -2.0446  2.6156  2.6026
  563MOL0     O75871   0.310   8.438   5.508  0.3242  0.1352 -0.0230
  563MOL0     C75872   0.351   8.495   5.408  0.1552  0.1347  0.0214
  563MOL0     O75873   0.309   8.475   5.279  0.0081 -0.3865  0.3146
  563MOL0     C75874   0.173   8.462   5.256 -0.6436  0.0468  0.3483
  563MOL0     C75875   0.064   8.498   5.336 -0.2417  0.5923 -0.2111
  563MOL0     C75876  -0.064   8.487   5.282 -0.2108  1.0866  0.2533
  563MOL0     C75877  -0.086   8.419   5.163 -0.2111 -0.0643 -0.8273
  563MOL0     O75878  -0.222   8.403   5.130 -0.4472  0.0515 -0.0589
  563MOL0     C75879  -0.251   8.421   4.990 -0.3521 -0.2379  0.0323
  563MOL0     C75880  -0.402   8.417   4.965 -0.3974 -0.0175 -0.9222
  563MOL0     C75881  -0.411   8.445   4.818 -1.2461 -0.7901  0.0248
  563MOL0     C75882  -0.554   8.471   4.783  0.2195 -0.1410  0.2512
  563MOL0     C75883  -0.577   8.504   4.638 -0.0020  0.3705  0.1738
  563MOL0     C75884  -0.537   8.392   4.549  0.6665 -0.1560 -0.7042
  563MOL0     C75885  -0.580   8.410   4.400  0.2912  0.1376  0.0611
  563MOL0     C75886  -0.551   8.281   4.317 -0.6487  0.1789  0.4431
  563MOL0     N75887  -0.615   8.276   4.185 -0.8883 -0.8434 -0.0895
  563MOL0     C75888  -0.752   8.297   4.158 -0.4145  0.9451 -0.5830
  563MOL0     C75889  -0.757   8.287   4.026  0.3244  0.3540 -0.4258
  563MOL0     C75890  -0.884   8.308   3.954 -0.0243  0.3411 -0.3951
  563MOL0     C75891  -0.927   8.173   3.890  0.3595 -0.0316  0.2686
  563MOL0     C75892  -0.966   8.075   3.999  0.2625  0.4821  0.2576
  563MOL0     C75893  -1.054   7.974   3.923  0.6980  0.2343 -0.8343
  563MOL0     O75894  -1.176   8.042   3.882  0.4097  0.8851  0.8031
  563MOL0     C75895  -1.271   7.975   3.805  0.8489  0.4606 -1.0727
  563MOL0     C75896  -1.256   7.852   3.750 -0.1044  0.0771  0.5537
  563MOL0     C75897  -1.341   7.790   3.653 -0.4923  0.3549 -0.1759
  563MOL0     C75898  -1.299   7.657   3.597  0.1757  0.0379  0.0969
  563MOL0     C75899  -1.457   7.858   3.616 -0.5995  0.4835 -0.1137
  563MOL0     C75900  -1.552   7.808   3.504  0.2147 -0.0735  0.2131
  563MOL0     O75901  -1.683   7.844   3.501  0.4067  0.0368 -0.7791
  563MOL0     C75902  -1.760   7.811   3.388  0.2555  0.2919 -0.1435
  563MOL0     C75903  -1.743   7.898   3.274  0.4615  0.4544  0.4364
  563MOL0     C75904  -1.823   7.875   3.167  0.4140  0.1074  0.6506
  563MOL0     C75905  -1.934   7.790   3.167  0.5042  1.4173 -0.3128
  563MOL0     O75906  -2.026   7.801   3.065 -0.3205  0.5497 -0.1925
  563MOL0     C75907  -2.159   7.750   3.090 -0.2267 -0.6521 -0.0459
  563MOL0     C75908  -2.249   7.815   2.975 -0.0435  0.1269 -0.2775
  563MOL0     C75909  -2.401   7.813   3.007 -0.0129 -0.8191 -0.0665
  563MOL0     C75910  -2.484   7.877   2.895 -0.1661 -0.4005 -1.0279
  563MOL0     C75911  -2.633   7.872   2.946 -0.6831 -0.2332  0.0194
  563MOL0     C75912  -2.716   7.922   2.837 -0.2470 -0.3462 -0.5860
  563MOL0     C75913  -2.855   7.945   2.885  0.2159  0.1463  0.1621
  563MOL0     C75914  -2.934   7.992   2.765 -0.1410 -0.8637  0.0855
  563MOL0    Cl75915  -2.975   7.849   2.659  0.2059  0.3449  0.2779
  563MOL0     C75916  -1.954   7.712   3.285  0.9558  0.2680 -0.5411
  563MOL0     C75917  -1.863   7.720   3.396  0.0725 -0.6741  0.6204
  563MOL0     O75918  -1.494   7.741   3.413  0.4637 -0.0260 -0.6730
  563MOL0     C75919  -1.480   7.980   3.675 -0.6763 -0.9246 -1.0912
  563MOL0     C75920  -1.390   8.040   3.764  0.3446 -0.0254 -0.1439
  563MOL0     N75921  -0.629   8.271   3.974 -0.0998  0.7372 -0.3803
  563MOL0     N75922  -0.547   8.252   4.075  0.0734 -0.0752  0.2626
  563MOL0     C75923   0.024   8.383   5.084  0.1868  0.2587  0.0957
  563MOL0     C75924   0.149   8.406   5.127 -0.7866  0.1524 -0.1785
  563MOL0     C75925   0.462   8.594   5.426 -0.0258  1.2997 -0.8066
  563MOL0     C75926   0.505   8.675   5.319 -0.7651 -0.1350  0.0809
  563MOL0     C75927   0.615   8.754   5.339 -0.5471  0.0550 -0.1393
  563MOL0     C75928   0.692   8.759   5.454 -0.4579  0.4101 -0.6476
  563MOL0     O75929   0.797   8.853   5.453 -0.0143  0.6329  0.2729
  563MOL0     C75930   0.929   8.801   5.495  1.1179 -0.3522  0.4172
  563MOL0     C75931   0.961   8.821   5.637 -0.0324  0.0535  0.0332
  563MOL0     C75932   1.066   8.714   5.672 -0.1940  0.1528  0.3927
  563MOL0     C75933   1.116   8.739   5.808  0.1199 -0.2304  0.2281
  563MOL0     C75934   1.215   8.634   5.844  0.2253 -0.3785 -0.2884
  563MOL0     C75935   1.299   8.552   5.857 -0.8317 -0.1802 -0.7805
  563MOL0     C75936   0.669   8.666   5.553  0.2756  0.9733 -0.1824
  563MOL0     C75937   0.556   8.577   5.544 -0.6700 -0.0622  0.2308
  563MOL0     H75938   0.075   8.549   5.431  3.0819 -2.7837  1.4960
  563MOL0     H75939  -0.146   8.543   5.325 -0.4948 -0.1897  1.4663
  563MOL0     H75940  -0.210   8.518   4.964  1.0050 -0.6537  0.5637
  563MOL0     H75941  -0.211   8.341   4.927 -1.6937 -1.4425  0.6451
  563MOL0     H75942  -0.434   8.316   4.993  0.9659 -0.2587 -0.1635
  563MOL0     H75943  -0.463   8.489   5.020 -3.0151 -1.1260 -2.1459
  563MOL0     H75944  -0.354   8.531   4.784 -1.7123 -0.9528 -1.2146
  563MOL0     H75945  -0.372   8.367   4.751  2.0418  1.0463 -0.3883
  563MOL0     H75946  -0.616   8.384   4.804  0.3002 -1.0465 -2.7382
  563MOL0     H75947  -0.587   8.551   4.851  0.6023 -0.9143  1.3736
  563MOL0     H75948  -0.682   8.525   4.613 -0.2730 -1.9032 -0.7986
  563MOL0     H75949  -0.526   8.598   4.613 -0.9792  0.9033  0.1260
  563MOL0     H75950  -0.435   8.352   4.547 -0.7262 -4.2122 -0.6684
  563MOL0     H75951  -0.592   8.302   4.578 -0.8483 -0.0602 -3.0573
  563MOL0     H75952  -0.688   8.425   4.408  0.3730 -0.1497  3.9055
  563MOL0     H75953  -0.535   8.501   4.359  1.6983 -0.5068  0.1071
  563MOL0     H75954  -0.586   8.188   4.365 -1.9028  0.4450  0.0745
  563MOL0     H75955  -0.442   8.273   4.320 -0.4982  1.4364 -0.7366
  563MOL0     H75956  -0.835   8.298   4.228  0.1738 -0.7112  0.1915
  563MOL0     H75957  -0.967   8.338   4.018  2.5602  0.5553  3.0969
  563MOL0     H75958  -0.860   8.381   3.876  0.8341  1.4496  0.8678
  563MOL0     H75959  -0.848   8.128   3.830 -1.3413 -0.0740 -2.0990
  563MOL0     H75960  -1.010   8.192   3.821  0.6421 -1.5180 -0.5057
  563MOL0     H75961  -1.016   8.115   4.087  1.6703  0.3399  1.1641
  563MOL0     H75962  -0.881   8.023   4.045 -0.0844 -2.0779 -1.7458
  563MOL0     H75963  -1.088   7.890   3.984 -0.1033  3.4229  3.5814
  563MOL0     H75964  -1.008   7.933   3.832 -2.8608 -2.9534 -1.4645
  563MOL0     H75965  -1.177   7.789   3.790 -0.7474 -1.7152 -0.8450
  563MOL0     H75966  -1.265   7.687   3.497 -0.8616 -0.5061 -0.4312
  563MOL0     H75967  -1.212   7.626   3.656  0.8581  1.7858  0.0651
  563MOL0     H75968  -1.371   7.576   3.592  3.4262 -3.0487 -2.9962
  563MOL0     H75969  -1.664   7.971   3.269  0.5895  0.2585 -0.7262
  563MOL0     H75970  -1.821   7.933   3.075  2.0772  1.4751  1.4856
  563MOL0     H75971  -2.158   7.642   3.068 -0.9479 -0.2990 -2.0589
  563MOL0     H75972  -2.197   7.771   3.190 -0.1858 -2.9673  0.5182
  563MOL0     H75973  -2.212   7.916   2.957  0.4501 -0.3681 -2.4346
  563MOL0     H75974  -2.236   7.767   2.877  0.7541  2.1484 -1.2259
  563MOL0     H75975  -2.423   7.868   3.099  0.4080  1.6349 -1.3613
  563MOL0     H75976  -2.436   7.710   3.022 -1.3396 -0.6597 -1.7181
  563MOL0     H75977  -2.454   7.979   2.873  1.4425 -0.8370 -0.9652
  563MOL0     H75978  -2.477   7.818   2.803  2.1630 -0.8473 -0.6201
  563MOL0     H75979  -2.646   7.937   3.033 -0.9134 -0.3388  0.0639
  563MOL0     H75980  -2.665   7.775   2.984  0.6635 -0.1524  1.4426
  563MOL0     H75981  -2.673   8.018   2.806  0.5656 -0.8965 -1.2006
  563MOL0     H75982  -2.711   7.858   2.749  0.2576  1.3697 -1.8801
  563MOL0     H75983  -2.859   8.031   2.953  0.3204 -1.0382  1.7204
  563MOL0     H75984  -2.903   7.853   2.917  1.3511 -0.3227  0.5640
  563MOL0     H75985  -2.879   8.075   2.720 -2.5168  0.6936 -0.1394
  563MOL0     H75986  -3.029   8.036   2.799  0.4879 -0.0499  0.8462
  563MOL0     H75987  -2.050   7.661   3.289  1.1715 -0.1062  0.1712
  563MOL0     H75988  -1.880   7.657   3.483  1.5576 -1.7251  0.1849
  563MOL0     H75989  -1.566   8.039   3.643  1.0406  2.0327 -0.6143
  563MOL0     H75990  -1.420   8.137   3.802 -0.3068 -0.7721  1.3135
  563MOL0     H75991   0.007   8.337   4.987 -2.1371  1.6295 -0.2188
  563MOL0     H75992   0.229   8.382   5.058 -1.5561  0.3882 -1.1804
  563MOL0     H75993   0.446   8.671   5.228 -0.2629  1.5267 -0.3525
  563MOL0     H75994   0.640   8.818   5.255 -2.6641  1.1019 -0.0459
  563MOL0     H75995   0.941   8.697   5.463 -1.0923 -0.9336  1.2712
  563MOL0     H75996   1.000   8.856   5.432  0.1195  0.3819 -0.1109
  563MOL0     H75997   0.868   8.820   5.696 -0.0383 -1.7442  0.0509
  563MOL0     H75998   1.002   8.922   5.646  0.1079 -0.0959  1.2828
  563MOL0     H75999   1.149   8.722   5.602 -0.5274  0.3473  0.0146
  563MOL0     H76000   1.031   8.610   5.675 -2.0750  0.7643  1.1572
  563MOL0     H76001   1.043   8.741   5.889  1.6115 -1.2406  1.6775
  563MOL0     H76002   1.172   8.833   5.813 -0.6319  0.1818  1.1846
  563MOL0     H76003   1.365   8.473   5.885 -0.1275  0.5392 -0.3797
  563MOL0     H76004   0.729   8.646   5.641 -0.0936 -0.0590 -0.1446
  563MOL0     H76005   0.526   8.512   5.625 -0.9946  2.0790  1.9279
  564MOL0     O76006   7.477   6.327   2.163  0.9772 -0.4384  0.7109
  564MOL0     C76007   7.565   6.272   2.225 -0.0202  0.4667  0.3391
  564MOL0     O76008   7.546   6.228   2.354  0.0470  0.4148  0.5609
  564MOL0     C76009   7.421   6.204   2.405  0.3825  0.1528 -0.2049
  564MOL0     C76010   7.417   6.224   2.544  0.3224 -0.3635  0.1521
  564MOL0     C76011   7.292   6.210   2.607  0.3549  0.3616 -0.2518
  564MOL0     C76012   7.177   6.162   2.543 -0.3316  0.2438  1.1486
  564MOL0     O76013   7.063   6.144   2.618  0.4446 -0.1239 -0.3472
  564MOL0     C76014   6.935   6.171   2.536 -0.2723  0.6419  0.0918
  564MOL0     C76015   6.802   6.139   2.617  0.1056 -0.3979  0.4301
  564MOL0     C76016   6.675   6.219   2.561  0.4311 -0.2314  0.2666
  564MOL0     C76017   6.550   6.133   2.558 -0.1893 -0.2982  0.4239
  564MOL0     C76018   6.430   6.219   2.511  0.2481  0.2711  0.3128
  564MOL0     C76019   6.300   6.156   2.561 -0.2265 -0.0318  1.5194
  564MOL0     C76020   6.181   6.243   2.517  0.5713  0.3315 -0.7942
  564MOL0     C76021   6.071   6.228   2.624  0.2158 -0.0694 -0.0444
  564MOL0     N76022   5.942   6.291   2.586 -0.0117 -0.0258  0.1654
  564MOL0     C76023   5.839   6.316   2.678  0.0753 -0.2753  0.0398
  564MOL0     C76024   5.735   6.365   2.609  0.4701 -0.3533 -0.8414
  564MOL0     C76025   5.609   6.422   2.677  0.0570  0.0497 -0.3561
  564MOL0     C76026   5.555   6.320   2.789 -0.3372 -0.2770  0.0854
  564MOL0     C76027   5.398   6.338   2.813 -0.2013 -0.4876  0.1842
  564MOL0     C76028   5.364   6.473   2.870 -0.7341  0.3709  0.3104
  564MOL0     O76029   5.229   6.488   2.882  0.7093  0.1538 -0.3010
  564MOL0     C76030   5.148   6.508   2.773  0.0886 -0.1157  0.3297
  564MOL0     C76031   5.189   6.507   2.640 -0.6940  0.0765  0.1984
  564MOL0     C76032   5.104   6.503   2.538  0.9850 -0.8817 -0.0220
  564MOL0     C76033   5.164   6.500   2.403  0.1820  0.5090 -1.9199
  564MOL0     C76034   4.954   6.501   2.565 -1.0922 -0.7487  0.0059
  564MOL0     C76035   4.861   6.487   2.453  0.7734 -0.9381 -0.2142
  564MOL0     O76036   4.912   6.450   2.325  1.0206  0.2582  0.5479
  564MOL0     C76037   4.835   6.461   2.213  0.6220  0.8464 -1.2334
  564MOL0     C76038   4.873   6.547   2.116  0.0169  0.1720 -0.3841
  564MOL0     C76039   4.797   6.565   1.998  0.4358  0.0499 -0.2416
  564MOL0     C76040   4.687   6.479   1.972 -0.1782  0.1371 -0.3517
  564MOL0     O76041   4.610   6.497   1.865  0.5063  0.2406 -0.8199
  564MOL0     C76042   4.584   6.631   1.815  0.5549  0.1665  0.9317
  564MOL0     C76043   4.471   6.625   1.707 -0.0578 -0.0874  0.5747
  564MOL0     C76044   4.458   6.761   1.633  0.2651 -0.6831  0.1545
  564MOL0     C76045   4.412   6.743   1.487  0.1945  0.3961 -0.3259
  564MOL0     C76046   4.418   6.871   1.403 -0.2115  0.8385  0.5640
  564MOL0     C76047   4.306   6.889   1.293 -0.2825 -0.5695  0.7514
  564MOL0     C76048   4.160   6.874   1.329 -0.4045 -0.5809  0.7429
  564MOL0     C76049   4.078   6.876   1.204  1.0223  0.3739  0.3335
  564MOL0    Cl76050   4.130   6.997   1.081  0.1159 -0.0575 -0.1262
  564MOL0     C76051   4.659   6.380   2.065  0.9262 -1.3858  0.3917
  564MOL0     C76052   4.724   6.383   2.193  0.8176 -0.8930 -0.2412
  564MOL0     O76053   4.745   6.517   2.477 -0.3161 -0.0826 -0.2319
  564MOL0     C76054   4.920   6.492   2.703  0.7354  0.7191  0.5386
  564MOL0     C76055   5.013   6.501   2.804  0.0839 -0.0162 -0.1765
  564MOL0     N76056   5.774   6.346   2.470  0.2762  1.0171 -0.6884
  564MOL0     N76057   5.896   6.303   2.459 -0.4836 -0.0408  0.2661
  564MOL0     C76058   7.192   6.140   2.406  0.1344 -0.1429  0.1795
  564MOL0     C76059   7.312   6.161   2.333  0.3702  0.6644 -0.0284
  564MOL0     C76060   7.692   6.258   2.154 -0.2277 -0.7369  0.0956
  564MOL0     C76061   7.705   6.281   2.023  0.1029  0.0785 -0.5963
  564MOL0     C76062   7.822   6.256   1.958 -0.3650  0.1131 -0.9788
  564MOL0     C76063   7.943   6.220   2.032 -0.7431 -0.1136 -0.0170
  564MOL0     O76064   8.060   6.198   1.956 -0.2091 -0.0821  0.1764
  564MOL0     C76065   8.184   6.165   2.021  0.5660  0.4960  0.2690
  564MOL0     C76066   8.297   6.147   1.919 -0.1086 -0.4262  0.3609
  564MOL0     C76067   8.261   6.050   1.809  0.1003  0.6388  0.2518
  564MOL0     C76068   8.352   6.053   1.681 -0.0590  0.4476 -0.0564
  564MOL0     C76069   8.365   6.187   1.617  0.0220 -0.9111 -0.2405
  564MOL0     C76070   8.389   6.292   1.561 -0.5675 -0.5776 -0.0410
  564MOL0     C76071   7.930   6.207   2.166 -0.5000  0.9266 -0.5935
  564MOL0     C76072   7.810   6.216   2.231  0.1253 -0.5967  0.0551
  564MOL0     H76073   7.507   6.265   2.588 -0.4510  1.8053 -0.1521
  564MOL0     H76074   7.275   6.232   2.712 -3.5406  2.3195 -1.0751
  564MOL0     H76075   6.937   6.274   2.499  0.0796  0.4937 -0.2989
  564MOL0     H76076   6.937   6.118   2.441  1.5869  0.6847  0.0640
  564MOL0     H76077   6.788   6.031   2.620 -2.4802 -0.1137  1.1489
  564MOL0     H76078   6.809   6.164   2.724 -0.4610 -3.6139  1.3043
  564MOL0     H76079   6.661   6.308   2.623  2.7289  0.2887  0.1245
  564MOL0     H76080   6.692   6.246   2.457  0.3222 -1.7835 -0.1722
  564MOL0     H76081   6.565   6.039   2.503 -0.1572  0.1988 -0.4279
  564MOL0     H76082   6.538   6.103   2.663  0.2769  0.4395  0.6995
  564MOL0     H76083   6.433   6.325   2.536 -3.2951  0.2060  1.6785
  564MOL0     H76084   6.430   6.213   2.402 -1.5189 -0.8176  0.3262
  564MOL0     H76085   6.287   6.053   2.527  0.7251  0.0015  1.0490
  564MOL0     H76086   6.318   6.153   2.669  0.9127 -0.3630  1.3255
  564MOL0     H76087   6.210   6.349   2.522  1.1131  0.1828 -0.6836
  564MOL0     H76088   6.143   6.209   2.420  1.4604 -0.0698 -1.0202
  564MOL0     H76089   6.102   6.266   2.722 -2.3881  3.1532 -0.2824
  564MOL0     H76090   6.048   6.123   2.643 -1.0609  0.0292 -0.9086
  564MOL0     H76091   5.844   6.306   2.786 -2.3939 -1.5529  0.0945
  564MOL0     H76092   5.636   6.519   2.719 -2.8074  0.8590 -0.1511
  564MOL0     H76093   5.537   6.437   2.596 -1.6306  2.0049  1.3590
  564MOL0     H76094   5.614   6.321   2.880  0.4568 -0.9718 -0.4135
  564MOL0     H76095   5.558   6.225   2.735  0.6237  0.3846 -1.0762
  564MOL0     H76096   5.365   6.256   2.878 -0.5580 -0.0446  0.5684
  564MOL0     H76097   5.347   6.319   2.718 -1.2399  1.0980  0.3881
  564MOL0     H76098   5.399   6.558   2.810 -3.2429  3.3346  2.6793
  564MOL0     H76099   5.408   6.479   2.970 -0.9329 -0.2087  0.4385
  564MOL0     H76100   5.296   6.515   2.627 -0.0719  0.5156  4.3485
  564MOL0     H76101   5.273   6.515   2.410  0.4546 -1.3114 -1.7581
  564MOL0     H76102   5.146   6.403   2.357  2.1614 -0.6493 -0.4433
  564MOL0     H76103   5.122   6.582   2.344 -1.0601  1.1387 -0.2237
  564MOL0     H76104   4.959   6.610   2.137 -0.3691  0.8969 -0.9223
  564MOL0     H76105   4.842   6.637   1.929  0.4987  0.9977  0.7592
  564MOL0     H76106   4.553   6.697   1.897  3.6460  1.6559  1.0403
  564MOL0     H76107   4.677   6.666   1.769  0.4337 -0.8347 -0.1034
  564MOL0     H76108   4.494   6.544   1.637 -0.6339 -0.7167  1.1027
  564MOL0     H76109   4.377   6.588   1.747 -0.0696 -2.7183 -1.6293
  564MOL0     H76110   4.551   6.817   1.644  1.5079 -2.6450 -0.0767
  564MOL0     H76111   4.373   6.808   1.684  0.2137 -1.2871  0.6370
  564MOL0     H76112   4.480   6.669   1.442 -0.6951 -0.3694 -0.4543
  564MOL0     H76113   4.310   6.702   1.479  0.3941 -0.0999 -0.4054
  564MOL0     H76114   4.520   6.871   1.362  0.0906 -0.8554  1.2080
  564MOL0     H76115   4.419   6.964   1.460 -1.3037  2.8898 -2.4647
  564MOL0     H76116   4.319   6.985   1.242 -2.1439 -2.0321 -2.8068
  564MOL0     H76117   4.322   6.813   1.216 -2.1500 -1.7332  1.4420
  564MOL0     H76118   4.125   6.952   1.396  0.7545  1.4357 -0.8815
  564MOL0     H76119   4.144   6.780   1.383  0.2095 -0.6731  0.7716
  564MOL0     H76120   3.977   6.909   1.232 -0.3327 -1.9133 -1.4530
  564MOL0     H76121   4.063   6.773   1.170 -0.7466  0.6408  0.1905
  564MOL0     H76122   4.579   6.309   2.051 -0.1852 -0.7433  2.8739
  564MOL0     H76123   4.685   6.316   2.269  0.7600 -0.4536  0.1207
  564MOL0     H76124   4.816   6.485   2.734  0.3043  0.0590 -0.9411
  564MOL0     H76125   4.991   6.489   2.910  1.0290 -1.2557 -0.1078
  564MOL0     H76126   7.114   6.093   2.347  0.5116  2.1229 -2.3494
  564MOL0     H76127   7.321   6.146   2.226  1.4849 -0.6868  0.2299
  564MOL0     H76128   7.623   6.324   1.966 -3.1418 -0.4300  3.1916
  564MOL0     H76129   7.826   6.265   1.850 -1.3365 -0.2512 -1.0575
  564MOL0     H76130   8.221   6.242   2.089  1.2322 -1.3369  2.0977
  564MOL0     H76131   8.169   6.066   2.066 -4.8330 -0.2408 -2.4205
  564MOL0     H76132   8.384   6.104   1.968 -0.5755 -2.0693 -0.1802
  564MOL0     H76133   8.339   6.237   1.873  0.1734 -0.9189 -0.3742
  564MOL0     H76134   8.166   6.086   1.769 -0.4034  1.1232  1.8434
  564MOL0     H76135   8.255   5.949   1.850 -0.3077  0.0853 -1.1070
  564MOL0     H76136   8.303   6.000   1.599 -3.6315  2.6046  0.4788
  564MOL0     H76137   8.450   6.014   1.711 -1.2416 -2.0878  0.8046
  564MOL0     H76138   8.398   6.384   1.507 -0.7014  0.6069  1.8678
  564MOL0     H76139   8.019   6.199   2.226 -0.3582 -1.5026 -1.0126
  564MOL0     H76140   7.811   6.218   2.339 -1.1302  1.3356  0.0602
  565MOL0     O76141   0.809   2.015   6.626  0.0963 -0.0120  0.6163
  565MOL0     C76142   0.875   2.048   6.730  0.2592  1.0136  0.3541
  565MOL0     O76143   0.817   2.065   6.854 -0.0145  0.4174 -0.3167
  565MOL0     C76144   0.681   2.070   6.853  0.7921  1.0938  0.2259
  565MOL0     C76145   0.617   1.942   6.845  0.8643 -0.2592 -0.6572
  565MOL0     C76146   0.476   1.946   6.824 -0.8392  0.4435 -0.0321
  565MOL0     C76147   0.406   2.067   6.831  0.3993  0.3291  0.0196
  565MOL0     O76148   0.269   2.051   6.825 -0.1680 -0.4970  0.4032
  565MOL0     C76149   0.191   2.151   6.903  0.1465 -0.1793  0.0521
  565MOL0     C76150   0.081   2.231   6.822 -0.1765 -0.5186  0.0719
  565MOL0     C76151   0.134   2.338   6.725  0.5038 -0.5974  0.5601
  565MOL0     C76152   0.012   2.422   6.672  0.2280  0.0014  0.7059
  565MOL0     C76153   0.054   2.522   6.568  0.3564  0.2051  0.2932
  565MOL0     C76154  -0.078   2.608   6.534 -0.1447 -0.0546 -0.4306
  565MOL0     C76155  -0.039   2.732   6.452  0.6161  0.6069  0.0931
  565MOL0     C76156  -0.154   2.792   6.364  0.1117  0.0140 -0.4738
  565MOL0     N76157  -0.263   2.830   6.454 -0.1591  0.2199  0.3775
  565MOL0     C76158  -0.273   2.949   6.529  0.2684  0.0047 -0.7917
  565MOL0     C76159  -0.381   2.922   6.610  0.8574  0.6389  0.1256
  565MOL0     C76160  -0.422   3.025   6.705 -0.0468 -0.0608 -0.8931
  565MOL0     C76161  -0.560   3.004   6.778 -0.1859 -0.0812  0.1857
  565MOL0     C76162  -0.679   2.993   6.681 -0.4786  0.0736 -0.1876
  565MOL0     C76163  -0.725   3.136   6.641  0.0712  0.9543 -0.1345
  565MOL0     O76164  -0.782   3.188   6.758 -0.0434 -0.2613 -0.6633
  565MOL0     C76165  -0.923   3.188   6.765  0.9082  0.4796  0.4852
  565MOL0     C76166  -1.005   3.258   6.671  0.1318 -0.0862  0.3669
  565MOL0     C76167  -1.143   3.256   6.667  0.6122 -0.4269 -0.0979
  565MOL0     C76168  -1.211   3.347   6.567 -0.5998 -0.7694 -0.5569
  565MOL0     C76169  -1.209   3.190   6.771  0.3422 -0.0144  0.0755
  565MOL0     C76170  -1.359   3.167   6.776 -0.1594 -0.4228  0.6532
  565MOL0     O76171  -1.400   3.158   6.908  0.9322  0.4690 -0.7194
  565MOL0     C76172  -1.532   3.149   6.921  0.3209  0.0854 -0.6963
  565MOL0     C76173  -1.595   3.023   6.948 -0.4611 -0.5617 -0.5451
  565MOL0     C76174  -1.734   3.025   6.951  0.1136  0.3193  0.7756
  565MOL0     C76175  -1.809   3.139   6.946  0.2635 -0.3994 -0.1489
  565MOL0     O76176  -1.948   3.135   6.958 -0.1397 -1.0141  0.0144
  565MOL0     C76177  -2.018   3.015   6.920  0.1112 -0.1937 -0.8697
  565MOL0     C76178  -2.164   3.021   6.963  0.2504 -0.3152 -0.2938
  565MOL0     C76179  -2.243   2.904   6.925 -0.0885 -0.3132  1.3503
  565MOL0     C76180  -2.388   2.896   6.957  0.1948  0.1051 -0.7717
  565MOL0     C76181  -2.415   2.849   7.097  0.0529  0.4320 -0.3985
  565MOL0     C76182  -2.564   2.868   7.144  0.2612  0.3068 -0.2214
  565MOL0     C76183  -2.661   2.745   7.114 -0.2482 -0.2507  0.2262
  565MOL0     C76184  -2.791   2.761   7.186  0.8648  1.0631  0.0058
  565MOL0    Cl76185  -2.792   2.806   7.361  0.2153  0.3053 -0.5816
  565MOL0     C76186  -1.744   3.259   6.948 -0.3613 -0.4246  0.5182
  565MOL0     C76187  -1.603   3.272   6.925 -0.0506  0.4559 -1.2478
  565MOL0     O76188  -1.432   3.184   6.678  1.0117 -0.2536 -0.3830
  565MOL0     C76189  -1.123   3.124   6.874  0.7147 -0.1021 -0.2237
  565MOL0     C76190  -0.984   3.117   6.867 -0.3045  0.1155  0.1383
  565MOL0     N76191  -0.426   2.791   6.599  0.4660 -0.4546  0.0734
  565MOL0     N76192  -0.366   2.742   6.494  0.4689 -0.0470 -0.7399
  565MOL0     C76193   0.475   2.186   6.849 -0.5699 -0.9476 -0.0131
  565MOL0     C76194   0.614   2.190   6.849 -0.4001  0.3641  0.0547
  565MOL0     C76195   1.016   2.031   6.734 -0.1057  0.1204  0.1309
  565MOL0     C76196   1.092   1.981   6.631  0.3960 -0.9477 -0.5361
  565MOL0     C76197   1.231   1.980   6.630  0.4153  0.5752 -0.0144
  565MOL0     C76198   1.299   2.026   6.744  0.2277  0.3054  0.9389
  565MOL0     O76199   1.435   2.031   6.761 -0.0303 -0.1171 -0.2375
  565MOL0     C76200   1.523   2.001   6.657 -0.2649  0.0271  0.2554
  565MOL0     C76201   1.666   1.987   6.715  0.5037 -0.1708 -0.6631
  565MOL0     C76202   1.774   1.923   6.617 -0.4853 -0.1969  0.1570
  565MOL0     C76203   1.909   1.920   6.686  0.1296 -1.4108  0.8955
  565MOL0     C76204   1.998   1.864   6.581 -0.8302 -0.0695 -0.2658
  565MOL0     C76205   2.093   1.826   6.508  0.6947 -0.2450 -0.1980
  565MOL0     C76206   1.236   2.070   6.853  0.8923  0.3004  0.0665
  565MOL0     C76207   1.092   2.066   6.853  0.1765 -0.0473  0.8998
  565MOL0     H76208   0.665   1.844   6.844 -3.3526 -2.5866  1.1204
  565MOL0     H76209   0.423   1.854   6.802  0.9007 -0.6120 -0.0446
  565MOL0     H76210   0.141   2.096   6.983  4.8893 -0.3557  3.2908
  565MOL0     H76211   0.256   2.216   6.961  0.9630  0.4024 -1.4701
  565MOL0     H76212   0.022   2.163   6.762 -0.7311  1.2365 -1.4631
  565MOL0     H76213   0.014   2.291   6.885 -2.3225  1.9760 -4.1086
  565MOL0     H76214   0.208   2.403   6.772 -0.0551  0.4854 -0.0088
  565MOL0     H76215   0.184   2.291   6.639 -0.8569  0.7638 -1.0554
  565MOL0     H76216  -0.059   2.350   6.630  0.9095  0.6698 -1.7477
  565MOL0     H76217  -0.043   2.479   6.749 -1.6256  0.4404 -0.8574
  565MOL0     H76218   0.134   2.587   6.605  0.0607  0.5864  0.2712
  565MOL0     H76219   0.081   2.475   6.472  0.7961  0.8791  0.0725
  565MOL0     H76220  -0.146   2.549   6.471 -2.7463  1.1305  1.0828
  565MOL0     H76221  -0.126   2.634   6.629  1.5862  0.6462  0.2917
  565MOL0     H76222  -0.006   2.817   6.513  1.8069  0.7430 -0.7065
  565MOL0     H76223   0.036   2.698   6.381  0.5051  0.0351  0.2384
  565MOL0     H76224  -0.192   2.717   6.293 -0.8353 -0.2649  0.3087
  565MOL0     H76225  -0.126   2.879   6.304  0.9256  1.9554  2.5338
  565MOL0     H76226  -0.221   3.044   6.524 -0.6957  0.9693  3.2549
  565MOL0     H76227  -0.337   3.040   6.772  0.6984 -1.4107 -1.4986
  565MOL0     H76228  -0.429   3.121   6.654 -0.2632  1.0120  1.0557
  565MOL0     H76229  -0.570   3.087   6.849  1.8279  2.4620 -2.3038
  565MOL0     H76230  -0.542   2.912   6.835  1.1565 -0.3187 -0.5938
  565MOL0     H76231  -0.761   2.941   6.732  0.0316  0.7805  1.3888
  565MOL0     H76232  -0.648   2.944   6.588  0.7250 -1.2014  0.8508
  565MOL0     H76233  -0.801   3.121   6.563 -2.8038 -1.4036  2.8506
  565MOL0     H76234  -0.639   3.199   6.617  3.0153 -1.8622  2.0715
  565MOL0     H76235  -0.959   3.331   6.605 -0.5609 -2.2698 -2.7570
  565MOL0     H76236  -1.282   3.413   6.618 -0.7621 -0.7488 -0.8072
  565MOL0     H76237  -1.137   3.404   6.511 -0.5132 -0.8705 -0.5471
  565MOL0     H76238  -1.253   3.280   6.490 -1.7128  0.9344 -1.4961
  565MOL0     H76239  -1.544   2.928   6.952  0.4111 -0.1987 -2.1710
  565MOL0     H76240  -1.783   2.929   6.964 -1.1516  1.2975  4.5872
  565MOL0     H76241  -2.020   2.984   6.815 -0.8296  0.7853 -1.1537
  565MOL0     H76242  -1.977   2.930   6.976 -1.2119  0.3143  0.9632
  565MOL0     H76243  -2.157   3.028   7.072  0.4070  0.6721 -0.3648
  565MOL0     H76244  -2.215   3.109   6.924 -1.1658  0.0180  2.1179
  565MOL0     H76245  -2.188   2.814   6.954  0.3142 -1.1482 -1.6722
  565MOL0     H76246  -2.239   2.901   6.816 -0.8748  0.2878  1.3019
  565MOL0     H76247  -2.440   2.990   6.937 -1.4761 -0.8184 -0.9049
  565MOL0     H76248  -2.417   2.817   6.887  0.6634 -1.2835  0.5481
  565MOL0     H76249  -2.344   2.898   7.165  0.3550  0.0513 -0.4342
  565MOL0     H76250  -2.395   2.742   7.104  3.4074  0.9424 -0.2625
  565MOL0     H76251  -2.569   2.878   7.252  0.1715 -1.3354 -0.0533
  565MOL0     H76252  -2.611   2.949   7.087  0.9132 -0.9098 -2.6656
  565MOL0     H76253  -2.618   2.646   7.132 -3.2724 -1.5146  1.0702
  565MOL0     H76254  -2.684   2.735   7.007 -2.3733 -2.8716  0.8176
  565MOL0     H76255  -2.849   2.669   7.179  1.3081  0.6183  1.6818
  565MOL0     H76256  -2.841   2.845   7.135  0.3460 -0.1428 -1.5347
  565MOL0     H76257  -1.801   3.351   6.951  1.3997  0.7305  0.5927
  565MOL0     H76258  -1.550   3.366   6.931 -0.9168  0.8899  0.2668
  565MOL0     H76259  -1.174   3.068   6.951  0.5889 -1.3980 -1.2052
  565MOL0     H76260  -0.918   3.059   6.929 -0.9427  0.8343  1.5306
  565MOL0     H76261   0.427   2.283   6.850  2.4980  0.7042  0.1554
  565MOL0     H76262   0.672   2.282   6.857 -0.0007  0.5630 -3.5894
  565MOL0     H76263   1.043   1.935   6.546 -0.0571 -0.2867 -0.6430
  565MOL0     H76264   1.288   1.944   6.545  0.3394  1.0923 -0.2904
  565MOL0     H76265   1.489   1.903   6.624 -2.0169 -0.0114  1.9492
  565MOL0     H76266   1.531   2.070   6.573 -1.2389  0.5517  0.5719
  565MOL0     H76267   1.653   1.917   6.798 -2.1795  1.3471  0.3300
  565MOL0     H76268   1.694   2.077   6.772 -4.1578  0.9496  0.2759
  565MOL0     H76269   1.766   1.978   6.523 -2.0377 -0.8236 -0.0988
  565MOL0     H76270   1.734   1.823   6.597  1.1884 -0.7197 -0.7707
  565MOL0     H76271   1.907   1.866   6.781 -1.6895  1.4885  2.6421
  565MOL0     H76272   1.937   2.025   6.698 -0.6100 -1.0378 -0.4024
  565MOL0     H76273   2.179   1.795   6.452  0.8172 -1.2510  0.5178
  565MOL0     H76274   1.290   2.091   6.945 -0.8952  1.3986  0.9263
  565MOL0     H76275   1.050   2.081   6.951 -0.9964  1.0034  0.2673
  566MOL0     O76276   0.497   0.808   1.973  0.5723  0.0849  0.5253
  566MOL0     C76277   0.566   0.720   2.024  0.9063  0.4365 -0.4611
  566MOL0     O76278   0.518   0.591   2.044 -0.0703  0.0305  0.0308
  566MOL0     C76279   0.395   0.542   2.020  0.1169 -0.1674  0.6626
  566MOL0     C76280   0.287   0.624   2.053  0.0853 -0.1513 -0.5445
  566MOL0     C76281   0.154   0.583   2.043 -0.2145  1.3677  0.1667
  566MOL0     C76282   0.123   0.462   1.993  0.3900  0.1803  0.1290
  566MOL0     O76283  -0.008   0.412   1.962 -0.4337 -0.4291 -0.8231
  566MOL0     C76284  -0.100   0.503   1.899 -0.0585 -0.1249 -0.0695
  566MOL0     C76285  -0.208   0.429   1.819 -0.5972  0.0144  0.8488
  566MOL0     C76286  -0.285   0.341   1.919 -0.4224 -0.2921  0.3706
  566MOL0     C76287  -0.373   0.242   1.833  0.5122 -0.8918  0.0175
  566MOL0     C76288  -0.496   0.315   1.774 -0.4070 -0.7004  0.4039
  566MOL0     C76289  -0.582   0.205   1.702 -0.8702 -0.0822  0.0852
  566MOL0     C76290  -0.721   0.272   1.671 -0.5517 -0.0230 -0.0596
  566MOL0     C76291  -0.810   0.279   1.796 -0.7411  0.3389  0.2268
  566MOL0     N76292  -0.926   0.332   1.740  0.5432 -0.0505  0.0646
  566MOL0     C76293  -0.946   0.463   1.713 -0.2996  0.8304  1.0010
  566MOL0     C76294  -1.075   0.475   1.678  0.0380 -0.2506  0.2404
  566MOL0     C76295  -1.134   0.614   1.673 -0.6765  0.4693  0.0363
  566MOL0     C76296  -1.187   0.661   1.805  0.0065 -0.5247  0.3402
  566MOL0     C76297  -1.280   0.786   1.778  1.0454 -0.2374  0.1534
  566MOL0     C76298  -1.346   0.840   1.901  0.4093  0.8646 -0.8568
  566MOL0     O76299  -1.412   0.964   1.853  0.2172 -0.2177  0.4219
  566MOL0     C76300  -1.538   0.997   1.907 -0.8451 -0.7459 -0.5876
  566MOL0     C76301  -1.558   0.989   2.042 -0.4614  0.1173  0.4258
  566MOL0     C76302  -1.686   1.012   2.104 -0.3317 -0.0692  0.2371
  566MOL0     C76303  -1.693   1.010   2.258 -0.2401  0.4952 -0.9451
  566MOL0     C76304  -1.793   1.053   2.021 -1.2941  0.2525 -0.8462
  566MOL0     C76305  -1.927   1.060   2.065 -0.8021  0.0228  0.2293
  566MOL0     O76306  -2.009   1.094   1.973 -0.0387  1.2339  0.1984
  566MOL0     C76307  -2.142   1.056   2.002 -0.2920  0.5435  0.8200
  566MOL0     C76308  -2.188   0.936   1.952 -0.2374  0.2296 -0.3458
  566MOL0     C76309  -2.323   0.910   1.949  0.4803 -0.6978 -0.4057
  566MOL0     C76310  -2.414   1.009   1.988  0.3363  0.9943  0.7881
  566MOL0     O76311  -2.549   0.995   1.964 -0.5082  0.2097 -0.6736
  566MOL0     C76312  -2.605   0.886   1.887  0.1945 -0.4066 -0.3857
  566MOL0     C76313  -2.760   0.896   1.902 -0.4871  0.1946  0.4954
  566MOL0     C76314  -2.831   0.778   1.842 -0.0388  0.9488  0.6781
  566MOL0     C76315  -2.851   0.796   1.686  0.1839 -0.5256 -0.5717
  566MOL0     C76316  -2.942   0.685   1.642 -0.0900  0.1509  0.1673
  566MOL0     C76317  -2.983   0.709   1.495 -0.2124  0.0369 -0.3859
  566MOL0     C76318  -3.073   0.604   1.426  0.2005 -0.0226  0.0480
  566MOL0     C76319  -3.068   0.453   1.470  0.0894 -0.3746 -0.2674
  566MOL0    Cl76320  -3.187   0.353   1.377 -0.2648  0.1495  0.0157
  566MOL0     C76321  -2.375   1.121   2.046  0.6279 -0.9047  0.0072
  566MOL0     C76322  -2.234   1.158   2.044  0.1433  0.5945 -0.3383
  566MOL0     O76323  -1.955   1.013   2.177  0.9263  0.1268  0.0211
  566MOL0     C76324  -1.765   1.087   1.889 -1.0080  0.5252  0.2263
  566MOL0     C76325  -1.640   1.052   1.837  0.4160 -0.6924  0.9556
  566MOL0     N76326  -1.132   0.356   1.673  0.0510  0.2739 -0.0714
  566MOL0     N76327  -1.042   0.273   1.711  0.1440  0.5687  0.2725
  566MOL0     C76328   0.232   0.376   1.968 -0.4813  0.1946  0.2907
  566MOL0     C76329   0.368   0.413   1.986  0.0984  0.4521 -0.3607
  566MOL0     C76330   0.688   0.754   2.077 -0.5898  0.6519  0.0107
  566MOL0     C76331   0.772   0.662   2.146  0.3946 -0.0494 -0.4383
  566MOL0     C76332   0.908   0.694   2.183  0.4100 -0.1722 -0.3682
  566MOL0     C76333   0.953   0.826   2.162 -0.5722  0.6077 -0.5811
  566MOL0     O76334   1.083   0.870   2.176  0.1376 -0.1282 -0.0650
  566MOL0     C76335   1.180   0.766   2.150 -0.0581 -0.0517  0.1586
  566MOL0     C76336   1.315   0.829   2.150  0.4434 -0.2737 -0.5343
  566MOL0     C76337   1.432   0.716   2.185 -0.6267 -0.4658  0.0242
  566MOL0     C76338   1.577   0.780   2.190  0.4117  0.1612 -0.1125
  566MOL0     C76339   1.613   0.878   2.082  0.4429  0.2374 -0.3102
  566MOL0     C76340   1.643   0.938   1.986 -0.0716  0.0278 -0.1626
  566MOL0     C76341   0.863   0.922   2.112  0.0302 -0.3044  0.4009
  566MOL0     C76342   0.734   0.889   2.074  0.4862 -0.4373 -0.2312
  566MOL0     H76343   0.298   0.723   2.095  0.5340  0.3645 -1.8482
  566MOL0     H76344   0.069   0.639   2.082 -1.0212 -0.2464  0.8390
  566MOL0     H76345  -0.147   0.550   1.986  0.1302 -1.6985  0.9259
  566MOL0     H76346  -0.041   0.572   1.839  0.3403  0.7456  1.2862
  566MOL0     H76347  -0.277   0.506   1.783 -1.5186 -0.5143  1.4459
  566MOL0     H76348  -0.156   0.375   1.739 -0.1200 -0.0627  1.2083
  566MOL0     H76349  -0.222   0.289   1.992 -0.8696 -0.3154  0.7454
  566MOL0     H76350  -0.342   0.399   1.992 -2.3188  0.5593 -1.6579
  566MOL0     H76351  -0.314   0.198   1.752 -1.7995  0.2628 -2.4531
  566MOL0     H76352  -0.405   0.157   1.894  1.0368  0.8950  3.0220
  566MOL0     H76353  -0.565   0.354   1.849 -0.6859  2.2040 -1.2070
  566MOL0     H76354  -0.473   0.392   1.700  0.1053 -0.2862  0.9811
  566MOL0     H76355  -0.532   0.163   1.613 -1.1320 -2.4040  0.9493
  566MOL0     H76356  -0.591   0.126   1.777  0.3348 -0.5493 -0.2380
  566MOL0     H76357  -0.696   0.373   1.640 -2.6591  0.6208  0.1987
  566MOL0     H76358  -0.770   0.215   1.592  1.9043  0.7843 -2.3165
  566MOL0     H76359  -0.778   0.340   1.881  0.9403 -0.7149  0.4168
  566MOL0     H76360  -0.824   0.178   1.837  1.4080 -0.5646 -1.0730
  566MOL0     H76361  -0.869   0.539   1.720  0.3077  0.4820 -1.1310
  566MOL0     H76362  -1.063   0.690   1.640  0.6556 -1.7013 -2.4549
  566MOL0     H76363  -1.216   0.621   1.601  0.2903  0.1429 -1.1275
  566MOL0     H76364  -1.106   0.694   1.871  0.0997 -1.0862  0.5114
  566MOL0     H76365  -1.242   0.582   1.858  0.7870 -1.2495  0.0882
  566MOL0     H76366  -1.360   0.760   1.708 -1.0666 -0.5335  2.5641
  566MOL0     H76367  -1.222   0.867   1.734 -0.4314  0.0864 -1.3052
  566MOL0     H76368  -1.274   0.851   1.983  0.2447 -0.6637 -0.4653
  566MOL0     H76369  -1.418   0.770   1.944 -1.0191  1.9746 -1.3536
  566MOL0     H76370  -1.478   0.965   2.112 -0.1186  0.2359  0.0792
  566MOL0     H76371  -1.599   0.998   2.313  1.4883  1.1061 -3.5984
  566MOL0     H76372  -1.735   1.102   2.299 -0.9750 -0.5764  0.8684
  566MOL0     H76373  -1.753   0.923   2.288  4.6349 -2.1597  2.5694
  566MOL0     H76374  -2.114   0.871   1.906 -0.6098 -1.8420  1.8325
  566MOL0     H76375  -2.358   0.810   1.925 -2.5484 -0.3131  1.7213
  566MOL0     H76376  -2.579   0.904   1.782  2.3597  0.3636  0.2229
  566MOL0     H76377  -2.573   0.787   1.920 -0.5426 -1.3965 -2.4987
  566MOL0     H76378  -2.778   0.902   2.010 -0.3492  3.4795  0.4402
  566MOL0     H76379  -2.799   0.987   1.855 -1.2426 -0.6565 -0.6011
  566MOL0     H76380  -2.932   0.760   1.880 -0.0876 -2.9301 -0.7820
  566MOL0     H76381  -2.782   0.681   1.856 -3.3383 -1.0057 -0.1763
  566MOL0     H76382  -2.897   0.893   1.665  0.0050 -0.6227 -0.6311
  566MOL0     H76383  -2.755   0.794   1.636  0.7933  0.1212  0.5189
  566MOL0     H76384  -3.041   0.697   1.688  0.2184 -0.1771  0.9481
  566MOL0     H76385  -2.896   0.586   1.654  2.5167  1.4505  1.6109
  566MOL0     H76386  -3.033   0.805   1.478 -1.7732 -0.6959 -0.1103
  566MOL0     H76387  -2.882   0.698   1.453  0.0402  0.8160  0.0124
  566MOL0     H76388  -3.062   0.611   1.318  0.2702  0.4726  0.0836
  566MOL0     H76389  -3.179   0.627   1.443 -1.3352 -5.0409 -0.9648
  566MOL0     H76390  -3.080   0.436   1.578 -0.3872  0.2176 -0.2263
  566MOL0     H76391  -2.969   0.417   1.439  0.6982 -0.6384  1.8089
  566MOL0     H76392  -2.442   1.193   2.091  1.6950 -0.3198  0.6972
  566MOL0     H76393  -2.185   1.254   2.059  2.8801 -0.8112  0.2117
  566MOL0     H76394  -1.844   1.116   1.820 -2.4240  2.7940  2.6560
  566MOL0     H76395  -1.629   1.056   1.729  0.7088 -0.5994  0.9874
  566MOL0     H76396   0.203   0.276   1.938  0.1252  0.1037 -0.0121
  566MOL0     H76397   0.456   0.350   1.977  0.0889  0.4292 -0.2921
  566MOL0     H76398   0.749   0.561   2.176  0.4696  0.0546 -0.0123
  566MOL0     H76399   0.973   0.614   2.216  0.4186 -0.3382 -0.7848
  566MOL0     H76400   1.172   0.700   2.237  2.4798  1.9242  2.0685
  566MOL0     H76401   1.152   0.709   2.061 -1.4105 -1.0442  1.1799
  566MOL0     H76402   1.321   0.912   2.221  0.4380 -0.5719 -0.1798
  566MOL0     H76403   1.320   0.883   2.056 -1.7367  2.8887  0.9752
  566MOL0     H76404   1.423   0.641   2.106 -1.7943 -0.6370  0.2977
  566MOL0     H76405   1.409   0.680   2.285 -0.8351 -1.1754 -0.2776
  566MOL0     H76406   1.652   0.700   2.184 -1.1080 -1.3838  0.7666
  566MOL0     H76407   1.587   0.834   2.284  2.2261  1.0714 -0.7756
  566MOL0     H76408   1.678   0.990   1.899 -0.5461 -0.9544 -0.9646
  566MOL0     H76409   0.905   1.022   2.106  1.7692 -0.6586  4.0321
  566MOL0     H76410   0.670   0.969   2.038  0.2512 -0.3267  0.4259
  567MOL0     O76411   7.373   4.664   1.076 -0.0225  0.2540  0.6277
  567MOL0     C76412   7.406   4.560   1.128  0.5130  0.1376 -1.1353
  567MOL0     O76413   7.324   4.436   1.128  0.0819 -0.6171 -0.0153
  567MOL0     C76414   7.214   4.449   1.050  0.4697  0.0194 -0.6032
  567MOL0     C76415   7.092   4.499   1.090  0.0335  0.1018 -0.5790
  567MOL0     C76416   6.989   4.494   0.998  0.9607  0.6841 -0.0820
  567MOL0     C76417   7.013   4.455   0.858  0.7294  0.2300 -0.2791
  567MOL0     O76418   6.903   4.476   0.774 -0.2207  0.3617 -0.3303
  567MOL0     C76419   6.913   4.455   0.632 -0.1165  0.6518  0.8275
  567MOL0     C76420   6.842   4.327   0.598  0.7340  0.4459 -0.0993
  567MOL0     C76421   6.856   4.288   0.449 -0.5987  0.0949 -0.7144
  567MOL0     C76422   6.777   4.372   0.346 -0.0851  0.2217  0.1994
  567MOL0     C76423   6.631   4.344   0.331  0.4406 -0.3324  0.6120
  567MOL0     C76424   6.554   4.454   0.259 -0.0060 -0.6785 -0.2649
  567MOL0     C76425   6.411   4.403   0.203  0.2980  0.5899  0.2886
  567MOL0     C76426   6.321   4.522   0.162  0.1104 -0.1609  0.3605
  567MOL0     N76427   6.199   4.481   0.088  0.3366 -0.1762 -0.0121
  567MOL0     C76428   6.085   4.428   0.145  0.2268 -0.8247 -0.4362
  567MOL0     C76429   6.014   4.395   0.036 -0.1746 -0.1402 -0.1320
  567MOL0     C76430   5.869   4.346   0.025  0.3124  0.4293  0.6563
  567MOL0     C76431   5.762   4.436   0.091 -0.2232  0.6235 -0.5883
  567MOL0     C76432   5.627   4.360   0.080  0.2961  0.5634 -1.2477
  567MOL0     C76433   5.515   4.453   0.133 -0.6179  0.5505  0.1028
  567MOL0     O76434   5.501   4.443   0.274 -0.9041 -0.0758  0.6891
  567MOL0     C76435   5.382   4.488   0.328  0.7689 -0.1160  0.2728
  567MOL0     C76436   5.355   4.455   0.457  0.2891 -0.1047  0.1892
  567MOL0     C76437   5.231   4.489   0.523  0.4413  0.4345  0.2636
  567MOL0     C76438   5.222   4.423   0.666  0.2081 -0.1692  0.3125
  567MOL0     C76439   5.129   4.562   0.458  0.4844  0.7931 -0.7200
  567MOL0     C76440   5.006   4.615   0.524  0.8016  0.9542 -0.6493
  567MOL0     O76441   4.890   4.626   0.446 -0.1964  0.6614 -0.4773
  567MOL0     C76442   4.774   4.689   0.486  0.2314 -0.7559  1.0825
  567MOL0     C76443   4.757   4.775   0.595  0.8105 -0.1543  0.3098
  567MOL0     C76444   4.635   4.836   0.629  0.0674 -0.8934 -0.1762
  567MOL0     C76445   4.522   4.812   0.557  0.1712  0.0756  0.2292
  567MOL0     O76446   4.413   4.896   0.573  0.0577  1.2658 -0.3718
  567MOL0     C76447   4.283   4.831   0.583 -0.2381  0.7366  0.1664
  567MOL0     C76448   4.187   4.901   0.679 -0.5414 -0.0544  0.1306
  567MOL0     C76449   4.042   4.868   0.643  0.0630  0.0199 -0.0389
  567MOL0     C76450   3.960   4.968   0.713  0.1674  0.9470  0.1084
  567MOL0     C76451   3.821   4.953   0.662 -0.1583 -0.0426 -0.2957
  567MOL0     C76452   3.729   5.035   0.754  0.1167 -0.0883  0.2278
  567MOL0     C76453   3.599   5.049   0.675 -0.3742 -0.8252 -0.1565
  567MOL0     C76454   3.488   5.098   0.753 -0.6292  0.1542 -0.1414
  567MOL0    Cl76455   3.497   5.269   0.786  0.0636  0.3765  0.3911
  567MOL0     C76456   4.530   4.731   0.447 -0.3466 -1.1634 -0.4259
  567MOL0     C76457   4.658   4.672   0.409  0.0259 -0.5670 -1.5802
  567MOL0     O76458   5.010   4.656   0.638 -0.0499 -0.4799 -1.0275
  567MOL0     C76459   5.162   4.593   0.326  0.9079  0.4300  0.0822
  567MOL0     C76460   5.282   4.560   0.259 -0.7721 -0.4444 -0.2732
  567MOL0     N76461   6.091   4.413  -0.083  0.5664  0.1989 -0.0836
  567MOL0     N76462   6.198   4.464  -0.045 -0.2069 -0.8425 -0.1700
  567MOL0     C76463   7.130   4.397   0.827  0.0166  0.1483 -0.0579
  567MOL0     C76464   7.237   4.397   0.921 -0.0028  0.2720 -0.1693
  567MOL0     C76465   7.531   4.549   1.220 -0.9697 -0.3094  0.4713
  567MOL0     C76466   7.603   4.662   1.264 -0.1106  0.0381 -0.0027
  567MOL0     C76467   7.708   4.651   1.351 -0.2502  0.8035 -0.1647
  567MOL0     C76468   7.742   4.525   1.409 -0.5462  0.2679 -0.1989
  567MOL0     O76469   7.843   4.512   1.507  0.1819 -0.1241  0.6913
  567MOL0     C76470   7.927   4.618   1.546  0.7498  0.1790  0.7947
  567MOL0     C76471   8.041   4.556   1.621 -0.1686 -0.1960 -0.7489
  567MOL0     C76472   8.148   4.493   1.534  0.4720  0.3126 -0.3103
  567MOL0     C76473   8.199   4.587   1.430  0.3944  0.3337  0.2661
  567MOL0     C76474   8.347   4.570   1.414  0.0369  0.3500  0.0276
  567MOL0     C76475   8.463   4.570   1.387 -0.4382 -0.5132 -0.1567
  567MOL0     C76476   7.674   4.415   1.374  0.0545  0.6015  0.3221
  567MOL0     C76477   7.573   4.423   1.272 -0.5985  0.5920 -0.9165
  567MOL0     H76478   7.075   4.539   1.190 -2.3290  0.3639 -1.0345
  567MOL0     H76479   6.887   4.525   1.022 -0.4709 -3.1312 -0.5806
  567MOL0     H76480   6.860   4.541   0.590 -2.9657 -0.4498  1.8943
  567MOL0     H76481   7.016   4.455   0.595 -0.6201 -2.2721 -0.9203
  567MOL0     H76482   6.878   4.249   0.665 -0.5359  1.8181  2.3020
  567MOL0     H76483   6.735   4.338   0.621  0.5698 -0.4693 -0.4106
  567MOL0     H76484   6.961   4.280   0.421 -0.1162 -1.5003  1.2954
  567MOL0     H76485   6.822   4.184   0.441  1.1526 -0.5450 -0.2589
  567MOL0     H76486   6.800   4.476   0.371  0.2033  0.2007  0.0301
  567MOL0     H76487   6.818   4.346   0.248 -1.4928  2.7847 -1.1818
  567MOL0     H76488   6.617   4.253   0.272 -1.1413 -0.0618  0.5343
  567MOL0     H76489   6.589   4.318   0.429  0.3476 -2.3665  0.0871
  567MOL0     H76490   6.531   4.532   0.333  0.2849 -0.4268 -0.4397
  567MOL0     H76491   6.614   4.500   0.181 -0.3886  3.1276  1.4475
  567MOL0     H76492   6.421   4.334   0.119  0.8225  0.1898  0.6792
  567MOL0     H76493   6.352   4.340   0.270  4.9078 -1.6353  2.7449
  567MOL0     H76494   6.372   4.597   0.100  1.3817 -0.7621  0.6637
  567MOL0     H76495   6.302   4.570   0.259  1.0866  0.2284  0.3625
  567MOL0     H76496   6.053   4.422   0.248 -0.3748  0.4010 -0.5246
  567MOL0     H76497   5.845   4.330  -0.081  0.6348 -1.8964  0.8837
  567MOL0     H76498   5.861   4.247   0.072 -1.6849  0.9078  1.4087
  567MOL0     H76499   5.762   4.530   0.035 -0.9356  2.0187  1.6294
  567MOL0     H76500   5.788   4.460   0.194 -3.3440 -0.4191  0.5534
  567MOL0     H76501   5.625   4.267   0.137 -1.7446 -1.3783 -4.2306
  567MOL0     H76502   5.612   4.344  -0.027  2.1174  0.7563 -1.5654
  567MOL0     H76503   5.427   4.405   0.089  0.6598 -1.1649 -0.7372
  567MOL0     H76504   5.515   4.553   0.090  1.2280  0.8395  0.6686
  567MOL0     H76505   5.424   4.386   0.504  0.2039  1.3518  2.6493
  567MOL0     H76506   5.246   4.500   0.740 -0.8581 -1.1355  1.7116
  567MOL0     H76507   5.122   4.385   0.687  0.6234 -1.8971 -0.6728
  567MOL0     H76508   5.293   4.340   0.670 -1.7487 -2.1893 -2.4005
  567MOL0     H76509   4.836   4.798   0.666  0.5653 -1.1041  0.9144
  567MOL0     H76510   4.617   4.896   0.718 -2.1504  0.3091 -1.3255
  567MOL0     H76511   4.241   4.829   0.482  0.6801  0.6063 -0.2297
  567MOL0     H76512   4.292   4.727   0.615  0.2125  0.0828 -1.9106
  567MOL0     H76513   4.209   4.865   0.780 -0.1238 -0.9265 -0.2634
  567MOL0     H76514   4.202   5.010   0.674  1.4792 -0.1348  2.4599
  567MOL0     H76515   4.022   4.768   0.681  1.9285 -0.9067 -1.3482
  567MOL0     H76516   4.017   4.858   0.537 -0.0715 -1.6285  0.1167
  567MOL0     H76517   3.964   4.946   0.820 -4.2833 -2.7285 -0.1735
  567MOL0     H76518   3.988   5.073   0.697 -0.2660  1.2728  1.3830
  567MOL0     H76519   3.794   4.848   0.649  0.0204 -0.0216 -0.8819
  567MOL0     H76520   3.818   5.002   0.564 -2.4535  0.0842 -0.2212
  567MOL0     H76521   3.718   4.982   0.849  1.2042  2.1933  1.7038
  567MOL0     H76522   3.769   5.136   0.765 -0.6029  0.3725 -1.1284
  567MOL0     H76523   3.577   4.951   0.632 -3.1920 -0.1277 -0.4796
  567MOL0     H76524   3.632   5.121   0.600  4.0529 -0.1435  2.1161
  567MOL0     H76525   3.488   5.035   0.842  0.7372 -0.5319 -0.6016
  567MOL0     H76526   3.410   5.073   0.680 -0.2404 -0.5708 -0.3114
  567MOL0     H76527   4.455   4.744   0.370 -1.4571 -2.5075  0.3898
  567MOL0     H76528   4.664   4.630   0.309  1.4406 -1.4001 -1.1710
  567MOL0     H76529   5.087   4.658   0.282  0.0292 -1.1474 -0.8402
  567MOL0     H76530   5.295   4.595   0.157  0.0985  0.5900  0.1740
  567MOL0     H76531   7.148   4.354   0.729  1.9818  1.2117 -0.2300
  567MOL0     H76532   7.336   4.364   0.893 -0.3192  0.5759 -1.7233
  567MOL0     H76533   7.579   4.761   1.226  0.9662  0.6810  0.9063
  567MOL0     H76534   7.760   4.737   1.389  3.3328 -0.9117 -0.7578
  567MOL0     H76535   7.964   4.678   1.463  2.1134 -0.3392  1.0029
  567MOL0     H76536   7.880   4.684   1.620  1.5581 -2.0856  3.4899
  567MOL0     H76537   8.015   4.478   1.694 -1.2828 -0.4451 -1.3894
  567MOL0     H76538   8.085   4.629   1.690  0.4225 -1.7833  0.6416
  567MOL0     H76539   8.097   4.409   1.486  0.3627  0.3022 -0.1763
  567MOL0     H76540   8.232   4.451   1.590 -0.7631 -0.7071  0.8592
  567MOL0     H76541   8.171   4.690   1.456 -2.2627  0.1735 -1.5751
  567MOL0     H76542   8.152   4.566   1.333  3.5687  1.3512 -1.6520
  567MOL0     H76543   8.569   4.561   1.374 -0.6727 -3.5073 -0.5649
  567MOL0     H76544   7.695   4.316   1.414 -2.6594 -0.6050 -0.9222
  567MOL0     H76545   7.513   4.343   1.231 -1.1008  1.1947 -1.3837
  568MOL0     O76546   3.938   7.978   3.829 -0.5145 -0.6107  0.2812
  568MOL0     C76547   4.002   8.080   3.849 -0.0314  0.4498 -0.0010
  568MOL0     O76548   3.955   8.206   3.881  0.6419  0.3682 -0.1862
  568MOL0     C76549   3.819   8.240   3.868 -0.4853  0.4641  0.2334
  568MOL0     C76550   3.777   8.350   3.939 -0.0345 -0.0145  0.9968
  568MOL0     C76551   3.641   8.389   3.920  0.4515  0.2591  0.3885
  568MOL0     C76552   3.551   8.324   3.834 -0.2767  0.5972 -0.9002
  568MOL0     O76553   3.428   8.380   3.825  0.0491  0.2118  1.0283
  568MOL0     C76554   3.334   8.302   3.747  0.4070 -0.2651 -0.1545
  568MOL0     C76555   3.208   8.381   3.748  0.6783  0.2714 -0.6057
  568MOL0     C76556   3.141   8.387   3.884  0.0560  0.3826  0.5780
  568MOL0     C76557   2.991   8.381   3.876  1.1726 -0.5114 -0.6763
  568MOL0     C76558   2.920   8.387   4.006 -0.3702 -0.0213 -0.4452
  568MOL0     C76559   2.774   8.368   4.011  0.2262  0.2251  0.0363
  568MOL0     C76560   2.696   8.501   4.019 -0.5196 -0.4191  0.8769
  568MOL0     C76561   2.548   8.479   4.013  0.9566 -0.3613  0.4534
  568MOL0     N76562   2.480   8.607   4.039  0.1531 -0.1811 -0.5282
  568MOL0     C76563   2.431   8.698   3.944 -0.1445 -0.0175 -0.5904
  568MOL0     C76564   2.362   8.795   4.022  0.4162  0.9859  0.4081
  568MOL0     C76565   2.299   8.936   3.990 -0.0770  0.7021 -1.1130
  568MOL0     C76566   2.179   8.917   3.894  0.2001  0.2773  0.6610
  568MOL0     C76567   2.082   8.833   3.969 -0.3468  0.2695  0.1274
  568MOL0     C76568   1.970   8.804   3.872  0.2845  0.3554  0.1055
  568MOL0     O76569   1.863   8.743   3.941  0.6406 -0.2695 -0.0648
  568MOL0     C76570   1.735   8.783   3.903  0.6801 -0.0287 -0.3710
  568MOL0     C76571   1.688   8.914   3.915  0.7290 -0.1451 -0.2512
  568MOL0     C76572   1.556   8.958   3.881  0.7738 -0.0019  0.0227
  568MOL0     C76573   1.528   9.105   3.907 -0.4192 -0.4253  0.0392
  568MOL0     C76574   1.467   8.857   3.836 -0.4177 -1.3905  0.5279
  568MOL0     C76575   1.332   8.895   3.807  0.2517 -0.5686  0.0306
  568MOL0     O76576   1.250   8.803   3.735 -0.0468 -0.4090  0.6473
  568MOL0     C76577   1.115   8.839   3.728  0.0450  0.4278 -0.2406
  568MOL0     C76578   1.061   8.919   3.629 -0.6490  0.0425  0.7826
  568MOL0     C76579   0.928   8.959   3.621 -0.0248  0.3167 -0.6447
  568MOL0     C76580   0.840   8.892   3.705 -0.1126  0.6207 -0.1032
  568MOL0     O76581   0.700   8.905   3.700 -0.4544  0.8351  0.6188
  568MOL0     C76582   0.661   9.041   3.722 -0.2224 -0.4649  0.6252
  568MOL0     C76583   0.516   9.048   3.747  1.2633 -0.3367  0.3109
  568MOL0     C76584   0.481   9.180   3.816 -1.7725 -0.1523  0.1403
  568MOL0     C76585   0.332   9.183   3.822  0.8197 -0.7857 -0.2455
  568MOL0     C76586   0.270   9.297   3.903 -0.2118  0.3881 -0.4456
  568MOL0     C76587   0.135   9.242   3.945 -0.0261  0.4428 -0.0167
  568MOL0     C76588   0.057   9.342   4.019  0.7805  0.2295 -0.2859
  568MOL0     C76589   0.030   9.469   3.935  0.5630 -0.1752 -0.0526
  568MOL0    Cl76590  -0.033   9.596   4.041  0.1763  0.2853  0.2954
  568MOL0     C76591   0.891   8.811   3.806  0.1006  0.7728 -0.0965
  568MOL0     C76592   1.028   8.787   3.819  0.9910  0.4706 -0.2748
  568MOL0     O76593   1.289   9.001   3.852 -0.0016  0.4547 -0.1777
  568MOL0     C76594   1.511   8.724   3.822  0.7360  0.2160 -0.5707
  568MOL0     C76595   1.642   8.688   3.866  0.0751 -0.3469  0.3237
  568MOL0     N76596   2.375   8.764   4.163 -0.3726 -0.3728  0.3787
  568MOL0     N76597   2.430   8.646   4.163  0.1658  0.1848 -0.0023
  568MOL0     C76598   3.601   8.224   3.754  0.1453  0.2612  0.2324
  568MOL0     C76599   3.733   8.182   3.771  0.6864  0.7004 -0.6956
  568MOL0     C76600   4.153   8.073   3.855 -0.4075  0.7076 -0.0190
  568MOL0     C76601   4.233   8.184   3.830 -0.0623 -1.1230  0.0248
  568MOL0     C76602   4.374   8.184   3.853  0.9614  0.0592  0.5110
  568MOL0     C76603   4.441   8.077   3.908  0.0083 -0.2626  0.0953
  568MOL0     O76604   4.579   8.073   3.932 -0.1778  0.4206 -0.2159
  568MOL0     C76605   4.636   8.161   4.032  0.6049 -0.0807 -0.2247
  568MOL0     C76606   4.785   8.192   3.999 -0.1427  0.4317 -0.9267
  568MOL0     C76607   4.869   8.064   3.990  0.2393 -0.6512 -0.2230
  568MOL0     C76608   4.885   8.008   4.132 -0.0045 -0.4557 -0.0325
  568MOL0     C76609   4.942   7.875   4.107 -0.4865 -0.0056 -0.4368
  568MOL0     C76610   4.999   7.768   4.115 -0.5518 -0.0339 -0.7005
  568MOL0     C76611   4.364   7.965   3.941  0.6011  0.4542  1.0727
  568MOL0     C76612   4.222   7.958   3.911  0.5506 -0.3101 -0.0026
  568MOL0     H76613   3.835   8.397   4.017 -2.6546  1.7515  2.0381
  568MOL0     H76614   3.602   8.476   3.971  1.1507  1.3136 -0.8154
  568MOL0     H76615   3.371   8.289   3.645  2.2924  0.4166  0.3980
  568MOL0     H76616   3.316   8.200   3.783 -3.3070 -0.4584 -2.0530
  568MOL0     H76617   3.228   8.482   3.711 -1.1125  0.0375 -2.4051
  568MOL0     H76618   3.145   8.329   3.675 -1.3062 -0.5745  1.5709
  568MOL0     H76619   3.169   8.296   3.938 -4.0780 -1.4778 -0.0512
  568MOL0     H76620   3.173   8.477   3.938  0.2325  0.8252 -0.2395
  568MOL0     H76621   2.961   8.458   3.804  2.0771  2.4468  1.8836
  568MOL0     H76622   2.964   8.285   3.831 -1.6173  0.5519 -1.5037
  568MOL0     H76623   2.963   8.311   4.072 -0.0536  0.1995 -0.3929
  568MOL0     H76624   2.944   8.484   4.051  0.8324 -0.5022 -0.0058
  568MOL0     H76625   2.748   8.315   3.919  3.8718 -0.8513 -0.5160
  568MOL0     H76626   2.741   8.308   4.097  2.3381 -2.3602 -0.8718
  568MOL0     H76627   2.706   8.560   4.110 -4.0524 -0.6667  1.5740
  568MOL0     H76628   2.723   8.572   3.940 -1.9208 -0.5480  0.2404
  568MOL0     H76629   2.512   8.395   4.074  2.2675 -1.6989 -0.5213
  568MOL0     H76630   2.528   8.461   3.907  0.3605 -4.0996  1.0660
  568MOL0     H76631   2.443   8.683   3.837  2.1192 -3.5482 -0.0157
  568MOL0     H76632   2.261   8.980   4.082  2.3880  2.4863 -0.8411
  568MOL0     H76633   2.371   9.012   3.957 -0.2018  1.2075 -0.2309
  568MOL0     H76634   2.204   8.868   3.800 -0.3601  2.3401 -0.6139
  568MOL0     H76635   2.136   9.014   3.870  2.0177  0.9693 -0.0121
  568MOL0     H76636   2.047   8.881   4.060 -1.0342 -1.4376  0.8079
  568MOL0     H76637   2.126   8.736   3.991  0.6844  1.2117  2.4699
  568MOL0     H76638   2.002   8.734   3.795  2.0916 -0.6631  1.6780
  568MOL0     H76639   1.939   8.897   3.824 -0.4851  0.4620  0.7859
  568MOL0     H76640   1.754   8.995   3.943  0.5883 -0.1940  0.2258
  568MOL0     H76641   1.486   9.154   3.819 -0.9552 -0.4558  0.2745
  568MOL0     H76642   1.459   9.124   3.990  1.2766  3.2400  0.8039
  568MOL0     H76643   1.619   9.153   3.945 -1.5189  0.4597  1.6788
  568MOL0     H76644   1.127   8.966   3.557  2.1676 -5.4776 -0.7582
  568MOL0     H76645   0.896   9.029   3.545  0.8929  0.6994 -0.6936
  568MOL0     H76646   0.704   9.079   3.815 -0.2211  1.4055 -0.0996
  568MOL0     H76647   0.680   9.106   3.637 -1.2580 -0.5999  0.2695
  568MOL0     H76648   0.467   9.042   3.649  0.5226  3.7953  0.2504
  568MOL0     H76649   0.479   8.967   3.811 -1.9062 -0.0332 -0.9166
  568MOL0     H76650   0.525   9.260   3.754 -0.4639  0.3800  1.6882
  568MOL0     H76651   0.519   9.195   3.917  1.3710  0.9680 -1.0497
  568MOL0     H76652   0.288   9.185   3.722 -2.7210  0.9416  1.1752
  568MOL0     H76653   0.296   9.085   3.854  0.9242 -1.9431 -3.3168
  568MOL0     H76654   0.261   9.385   3.840 -0.2870  2.2814  2.0703
  568MOL0     H76655   0.333   9.325   3.988  0.4645 -3.4741  0.5321
  568MOL0     H76656   0.082   9.201   3.858  1.2839 -4.1998  1.1159
  568MOL0     H76657   0.147   9.157   4.013 -1.9734  1.2924  1.5130
  568MOL0     H76658   0.106   9.365   4.114 -1.8165  2.8380  0.5997
  568MOL0     H76659  -0.043   9.300   4.035  0.3377 -0.4706 -4.0049
  568MOL0     H76660  -0.044   9.449   3.857  0.2116  2.7555 -0.5776
  568MOL0     H76661   0.116   9.499   3.875  0.7926 -1.2979 -0.2920
  568MOL0     H76662   0.814   8.785   3.877 -2.4581  0.8883 -2.6437
  568MOL0     H76663   1.071   8.731   3.900  1.0763 -1.6745 -1.7216
  568MOL0     H76664   1.446   8.644   3.788  1.5726 -0.5604 -0.3774
  568MOL0     H76665   1.660   8.581   3.864 -0.1265 -0.3757 -0.0700
  568MOL0     H76666   3.547   8.174   3.674  3.4058 -1.2590 -1.1851
  568MOL0     H76667   3.763   8.093   3.717  2.2972  0.2321  0.8573
  568MOL0     H76668   4.191   8.277   3.794  2.1542 -0.2867 -0.5906
  568MOL0     H76669   4.429   8.273   3.824 -0.0188  0.8699  1.0548
  568MOL0     H76670   4.575   8.252   4.022  2.8536  1.6510  0.7789
  568MOL0     H76671   4.623   8.119   4.132 -1.7055  1.0026  0.0041
  568MOL0     H76672   4.818   8.257   4.081 -0.2211 -0.3795 -0.2345
  568MOL0     H76673   4.790   8.241   3.901  1.7789  1.0081 -0.5777
  568MOL0     H76674   4.963   8.089   3.940  0.6034 -2.0487 -0.2840
  568MOL0     H76675   4.823   7.989   3.925 -1.6596  1.1118 -1.0428
  568MOL0     H76676   4.788   7.987   4.178  0.1334 -0.0384  0.4661
  568MOL0     H76677   4.942   8.074   4.198 -3.1101  0.6695  1.7521
  568MOL0     H76678   5.049   7.673   4.117 -0.8458 -0.1889  1.0408
  568MOL0     H76679   4.401   7.885   4.004  1.4614  1.1786  1.4964
  568MOL0     H76680   4.155   7.877   3.939  0.4596  0.0173  0.7564
  569MOL0     O76681   7.682   0.583   3.927  0.3376 -0.2522 -0.0885
  569MOL0     C76682   7.747   0.544   3.831 -0.2415  0.4907 -0.5950
  569MOL0     O76683   7.695   0.463   3.730  0.7441  0.2247  0.2188
  569MOL0     C76684   7.570   0.407   3.754  0.2089  0.1686 -0.6568
  569MOL0     C76685   7.451   0.480   3.751  0.2356 -0.7281  0.3398
  569MOL0     C76686   7.327   0.428   3.763 -1.0091  0.9891 -0.3158
  569MOL0     C76687   7.318   0.289   3.774  0.2286 -0.3533 -0.5085
  569MOL0     O76688   7.192   0.240   3.813  0.4205 -0.1985  1.1961
  569MOL0     C76689   7.183   0.143   3.914 -1.1212  0.2611  0.5249
  569MOL0     C76690   7.030   0.125   3.960  1.1694  0.1519  0.3623
  569MOL0     C76691   6.975   0.250   4.033  0.2571  0.0922 -0.0488
  569MOL0     C76692   6.842   0.213   4.102 -0.5923 -0.0220  0.4877
  569MOL0     C76693   6.726   0.278   4.030 -0.4352  0.5256 -0.7598
  569MOL0     C76694   6.724   0.427   4.076 -0.2047 -0.0779 -0.8157
  569MOL0     C76695   6.651   0.510   3.975 -0.3703  0.6471  0.0667
  569MOL0     C76696   6.615   0.652   4.030  0.9994  0.6091 -0.2141
  569MOL0     N76697   6.549   0.734   3.929 -0.3860  0.2533  1.0977
  569MOL0     C76698   6.527   0.700   3.792 -0.5443 -0.3611 -1.2909
  569MOL0     C76699   6.429   0.785   3.759 -0.0215 -0.8817 -0.3731
  569MOL0     C76700   6.354   0.790   3.621 -0.4837  0.1014 -0.6478
  569MOL0     C76701   6.209   0.747   3.628  0.0866  0.3536  0.1068
  569MOL0     C76702   6.178   0.601   3.601  0.4064  0.0908 -0.6221
  569MOL0     C76703   6.033   0.573   3.589 -0.3304  0.3114  0.2802
  569MOL0     O76704   5.962   0.573   3.711  0.0767  0.2166 -0.7147
  569MOL0     C76705   5.829   0.613   3.715 -0.3165  0.5496  0.0495
  569MOL0     C76706   5.736   0.535   3.636 -1.0983 -0.0757 -0.3327
  569MOL0     C76707   5.595   0.565   3.635 -0.4833 -0.7707  1.2637
  569MOL0     C76708   5.509   0.478   3.545 -0.3328  0.0880 -0.2328
  569MOL0     C76709   5.549   0.664   3.718 -0.5401 -0.6780 -0.1783
  569MOL0     C76710   5.406   0.693   3.726 -0.0651 -0.1469 -0.0330
  569MOL0     O76711   5.318   0.593   3.684 -0.2613 -0.9913 -0.1085
  569MOL0     C76712   5.185   0.617   3.663 -0.6270 -0.0631  0.3059
  569MOL0     C76713   5.120   0.742   3.655  0.9181 -0.0415 -0.1628
  569MOL0     C76714   4.986   0.758   3.635 -0.4314  0.3069 -1.1849
  569MOL0     C76715   4.909   0.647   3.628 -0.1913  0.7118 -0.4292
  569MOL0     O76716   4.771   0.640   3.626  0.0025  1.0129  0.2041
  569MOL0     C76717   4.698   0.767   3.608  0.9085 -0.4578  0.2767
  569MOL0     C76718   4.552   0.740   3.602  0.3904 -0.0169  0.1527
  569MOL0     C76719   4.470   0.871   3.587  0.0244  0.8464 -0.0826
  569MOL0     C76720   4.319   0.837   3.554  0.7135  0.5519  0.9455
  569MOL0     C76721   4.225   0.966   3.550  0.1318  0.0106 -0.2562
  569MOL0     C76722   4.247   1.069   3.435  0.4182  0.0933  0.0804
  569MOL0     C76723   4.141   1.174   3.430  0.2071 -0.3637  0.1140
  569MOL0     C76724   3.999   1.143   3.392  1.2702  0.3863 -0.3597
  569MOL0    Cl76725   3.890   1.283   3.409  0.2258  0.1410  0.0443
  569MOL0     C76726   4.969   0.519   3.637  0.0551 -0.6379  0.2320
  569MOL0     C76727   5.105   0.504   3.651 -0.1315 -0.6485  0.6896
  569MOL0     O76728   5.382   0.799   3.772  0.9514 -0.3520  0.0224
  569MOL0     C76729   5.643   0.741   3.791  0.3266  0.4750  0.0403
  569MOL0     C76730   5.779   0.719   3.791 -0.5491  0.0568  0.0936
  569MOL0     N76731   6.415   0.882   3.862 -0.3525  0.4006 -0.0583
  569MOL0     N76732   6.480   0.846   3.964  0.5721  0.4737  0.0543
  569MOL0     C76733   7.437   0.209   3.760 -0.4129 -0.0261  0.1719
  569MOL0     C76734   7.561   0.267   3.759  0.5959  0.2312 -0.4122
  569MOL0     C76735   7.890   0.590   3.819 -0.7764  0.0798 -0.5074
  569MOL0     C76736   7.938   0.693   3.906 -0.4518 -0.4564  0.1765
  569MOL0     C76737   8.066   0.745   3.892 -0.3794 -0.1404  0.0876
  569MOL0     C76738   8.159   0.698   3.796  0.9469  0.0881  0.2226
  569MOL0     O76739   8.276   0.763   3.791 -0.5680  0.0355  0.2051
  569MOL0     C76740   8.369   0.709   3.704  1.0176 -0.2647  0.0501
  569MOL0     C76741   8.499   0.793   3.712  1.1323  0.2046  0.6366
  569MOL0     C76742   8.618   0.731   3.653  0.0535  0.1256  0.1261
  569MOL0     C76743   8.736   0.803   3.714  0.4665  0.5872 -0.9746
  569MOL0     C76744   8.858   0.752   3.658  0.2024  0.4993  0.1672
  569MOL0     C76745   8.973   0.730   3.632 -0.2196 -0.3565  0.1888
  569MOL0     C76746   8.106   0.588   3.719 -1.3821  0.2048  0.0076
  569MOL0     C76747   7.975   0.537   3.720 -1.1475 -0.2162 -0.6382
  569MOL0     H76748   7.466   0.588   3.747  1.3782 -0.7949  1.8261
  569MOL0     H76749   7.242   0.495   3.769 -0.7684  1.3866 -1.1848
  569MOL0     H76750   7.224   0.054   3.868 -0.2480  1.1497 -0.4690
  569MOL0     H76751   7.244   0.179   3.997  0.7863 -2.8023  0.6072
  569MOL0     H76752   6.976   0.093   3.871  1.1740 -1.2005  0.8175
  569MOL0     H76753   7.030   0.034   4.021  1.4849  0.4296  0.7832
  569MOL0     H76754   7.043   0.275   4.115 -0.6175 -0.7151  0.9618
  569MOL0     H76755   6.958   0.334   3.965 -3.5382 -0.4884 -0.0516
  569MOL0     H76756   6.831   0.105   4.114  0.9782 -0.1074  1.3821
  569MOL0     H76757   6.852   0.251   4.204 -1.7012 -2.7748  1.7255
  569MOL0     H76758   6.757   0.272   3.925  1.1816  0.4251 -0.3170
  569MOL0     H76759   6.633   0.224   4.046 -0.2767  0.5503  0.3283
  569MOL0     H76760   6.675   0.441   4.173 -2.3661 -2.5534 -1.4190
  569MOL0     H76761   6.825   0.466   4.090  1.2271 -3.9135  1.3285
  569MOL0     H76762   6.707   0.509   3.881  1.4029  1.3934  1.0772
  569MOL0     H76763   6.558   0.454   3.960  0.1915  0.1648 -1.9417
  569MOL0     H76764   6.707   0.700   4.063  0.6524 -0.2225  2.1674
  569MOL0     H76765   6.551   0.636   4.118  1.2390  3.4131  0.5635
  569MOL0     H76766   6.577   0.630   3.727  1.5434  1.1123 -1.3632
  569MOL0     H76767   6.364   0.894   3.589  0.9303  0.2847  0.3476
  569MOL0     H76768   6.408   0.735   3.543  0.9155 -1.8896  1.6088
  569MOL0     H76769   6.148   0.791   3.549 -2.8167 -2.7970  0.3334
  569MOL0     H76770   6.177   0.766   3.731  2.9010  2.9942  0.6366
  569MOL0     H76771   6.226   0.533   3.673 -2.5317 -2.2675 -0.6830
  569MOL0     H76772   6.224   0.592   3.502 -0.6532 -1.4214 -1.0064
  569MOL0     H76773   6.038   0.470   3.551  2.0671 -0.2838  2.0207
  569MOL0     H76774   5.987   0.633   3.510 -0.0080 -1.1872 -1.1041
  569MOL0     H76775   5.767   0.444   3.586  0.6054 -0.0044  0.5163
  569MOL0     H76776   5.463   0.396   3.601 -3.2255  1.2605 -0.7214
  569MOL0     H76777   5.425   0.533   3.500 -2.1808 -1.1640  1.5194
  569MOL0     H76778   5.569   0.436   3.464  3.5838  1.5772  1.6349
  569MOL0     H76779   5.186   0.828   3.654  2.1714 -0.9742 -1.3711
  569MOL0     H76780   4.952   0.861   3.635  0.5768  0.6901  0.6894
  569MOL0     H76781   4.722   0.839   3.687  0.8950  1.3945 -1.3523
  569MOL0     H76782   4.732   0.804   3.511  1.2687  0.5393  0.7710
  569MOL0     H76783   4.523   0.685   3.512 -2.7292  0.9481  0.4813
  569MOL0     H76784   4.519   0.678   3.686 -3.4445 -0.2885 -1.3555
  569MOL0     H76785   4.507   0.921   3.497  1.7146  0.2764  0.2666
  569MOL0     H76786   4.483   0.934   3.675  0.0801  0.3344  0.2847
  569MOL0     H76787   4.320   0.784   3.459  4.6050  0.0346  1.0990
  569MOL0     H76788   4.290   0.760   3.626 -0.8984  1.7455  1.6345
  569MOL0     H76789   4.237   1.021   3.644  3.9175 -0.4706 -0.2888
  569MOL0     H76790   4.123   0.931   3.538  0.1391 -0.4704  0.9940
  569MOL0     H76791   4.343   1.114   3.462 -0.9142  0.6366  4.6945
  569MOL0     H76792   4.253   1.017   3.338 -1.4043  4.7954 -2.9196
  569MOL0     H76793   4.173   1.259   3.368 -0.0128 -0.9220 -0.7782
  569MOL0     H76794   4.127   1.205   3.534 -0.8780 -0.1208 -0.0944
  569MOL0     H76795   3.965   1.046   3.431  2.1171 -0.2735 -1.1960
  569MOL0     H76796   4.001   1.133   3.283  3.7393  1.9034 -0.5430
  569MOL0     H76797   4.917   0.425   3.625 -1.7937  0.4935 -1.0948
  569MOL0     H76798   5.147   0.405   3.659 -2.3346 -1.7906 -0.6883
  569MOL0     H76799   5.601   0.820   3.852 -4.2764 -0.3704 -1.6167
  569MOL0     H76800   5.845   0.779   3.853  0.1707  0.5031 -1.0598
  569MOL0     H76801   7.431   0.101   3.754  1.6795 -0.1065 -2.3598
  569MOL0     H76802   7.651   0.207   3.746  0.7358  0.1172  0.9688
  569MOL0     H76803   7.870   0.731   3.982 -1.9902 -1.8086 -0.4603
  569MOL0     H76804   8.112   0.817   3.959 -1.4286  1.7844 -1.1855
  569MOL0     H76805   8.397   0.609   3.739  2.8693  0.3185  0.3498
  569MOL0     H76806   8.335   0.697   3.601 -1.8508  0.1332  0.8663
  569MOL0     H76807   8.522   0.818   3.816  0.1034  1.9460  0.4851
  569MOL0     H76808   8.462   0.882   3.660  0.2649  0.1765  1.1751
  569MOL0     H76809   8.610   0.753   3.547  1.5923  1.0894  0.1812
  569MOL0     H76810   8.628   0.626   3.681  1.2785  0.2754  0.3349
  569MOL0     H76811   8.739   0.811   3.823  3.8856  0.8730 -0.9968
  569MOL0     H76812   8.738   0.907   3.680 -2.0092  1.5051  1.3137
  569MOL0     H76813   9.079   0.718   3.632 -0.3775 -1.9073  0.5317
  569MOL0     H76814   8.166   0.557   3.634 -1.4099  1.6523 -0.5745
  569MOL0     H76815   7.944   0.447   3.669  0.6192 -0.8430 -0.6679
  570MOL0     O76816   3.172  11.130   5.912 -0.0777 -0.5197  0.2980
  570MOL0     C76817   3.285  11.178   5.899  0.0585  0.0604 -0.5859
  570MOL0     O76818   3.361  11.175   5.784  0.0927 -0.4306 -0.6491
  570MOL0     C76819   3.299  11.118   5.670 -0.4773  0.7406 -0.2243
  570MOL0     C76820   3.344  11.005   5.601  0.7666 -0.3950  0.5859
  570MOL0     C76821   3.266  10.939   5.501  0.5427 -0.5560  0.1705
  570MOL0     C76822   3.139  10.993   5.461  0.0822  0.2298  0.2634
  570MOL0     O76823   3.068  10.921   5.361  0.2588 -0.0033  0.6220
  570MOL0     C76824   2.939  10.973   5.328 -0.3080 -0.5413  0.2028
  570MOL0     C76825   2.887  10.917   5.197 -0.1864 -0.7847  0.1137
  570MOL0     C76826   2.731  10.932   5.189 -0.5935  0.1651  0.8211
  570MOL0     C76827   2.685  10.860   5.058  0.4111 -0.0856  0.0178
  570MOL0     C76828   2.538  10.905   5.034 -0.1717 -0.0815 -0.7584
  570MOL0     C76829   2.443  10.845   5.144 -0.0745  0.4060 -0.2243
  570MOL0     C76830   2.300  10.816   5.089 -0.4230 -0.4531 -0.0114
  570MOL0     C76831   2.212  10.737   5.187  0.5985  0.3008 -0.2780
  570MOL0     N76832   2.200  10.804   5.316 -0.4809 -0.1327 -0.4539
  570MOL0     C76833   2.111  10.902   5.345 -0.6252  0.5812  0.6181
  570MOL0     C76834   2.119  10.913   5.478  0.9566  0.5071 -0.9367
  570MOL0     C76835   2.030  11.013   5.553 -0.3876 -0.6912  0.0675
  570MOL0     C76836   1.882  11.011   5.515  0.1468 -0.0031  0.3953
  570MOL0     C76837   1.790  11.072   5.618  0.0476 -0.0236  0.0625
  570MOL0     C76838   1.645  11.088   5.566 -0.2047  0.2921  0.0914
  570MOL0     O76839   1.589  11.146   5.686 -0.9299  0.2892 -0.6092
  570MOL0     C76840   1.449  11.163   5.700 -0.2182 -0.3284 -0.4712
  570MOL0     C76841   1.392  11.205   5.829  0.0760  0.0051 -0.0227
  570MOL0     C76842   1.253  11.234   5.836 -0.9428  0.2972  0.8895
  570MOL0     C76843   1.197  11.249   5.973  0.4851 -0.1677  0.1979
  570MOL0     C76844   1.180  11.246   5.722  0.4844 -0.2335 -0.2274
  570MOL0     C76845   1.028  11.262   5.718 -1.3129  0.0739  0.9715
  570MOL0     O76846   0.980  11.336   5.823  0.3089 -0.5252 -0.2320
  570MOL0     C76847   0.854  11.394   5.805 -0.2163  0.1319 -0.7517
  570MOL0     C76848   0.834  11.503   5.721  0.4486  0.5459 -0.2200
  570MOL0     C76849   0.708  11.559   5.719 -0.3859 -0.8718  0.4193
  570MOL0     C76850   0.601  11.520   5.799  0.6322  0.3742 -0.4468
  570MOL0     O76851   0.475  11.578   5.794 -0.2451  0.2147  0.8902
  570MOL0     C76852   0.455  11.693   5.705 -0.0598 -0.5551 -0.4102
  570MOL0     C76853   0.317  11.749   5.734 -0.6398  0.1854  0.2034
  570MOL0     C76854   0.203  11.656   5.685  0.0992  0.1173 -0.1056
  570MOL0     C76855   0.062  11.705   5.707  0.0308  0.4784 -1.4296
  570MOL0     C76856  -0.040  11.585   5.734 -0.2679  0.0872  0.3418
  570MOL0     C76857  -0.177  11.638   5.786  0.0764 -0.3412 -0.3279
  570MOL0     C76858  -0.273  11.519   5.801 -0.4871 -0.4258 -0.0540
  570MOL0     C76859  -0.370  11.528   5.917  0.7376  0.5177 -0.0587
  570MOL0    Cl76860  -0.289  11.499   6.073 -0.1012  0.4590  0.0670
  570MOL0     C76861   0.622  11.417   5.884  0.2860  0.6095  0.7567
  570MOL0     C76862   0.750  11.358   5.893  0.2750  0.1706 -0.5252
  570MOL0     O76863   0.972  11.242   5.608  0.4472  0.3460 -0.1676
  570MOL0     C76864   1.242  11.220   5.598  0.5500 -0.2625 -0.3032
  570MOL0     C76865   1.369  11.176   5.588 -0.3061 -0.3061  0.4303
  570MOL0     N76866   2.212  10.826   5.531 -1.3191 -0.3793 -0.1601
  570MOL0     N76867   2.257  10.752   5.434 -1.0699 -0.3768  0.5896
  570MOL0     C76868   3.106  11.110   5.529 -0.0064  0.4481  0.1888
  570MOL0     C76869   3.180  11.176   5.627  1.0904 -0.5926  0.2017
  570MOL0     C76870   3.347  11.230   6.020 -0.7314 -0.5652 -0.2901
  570MOL0     C76871   3.488  11.249   6.011 -0.0997 -0.3355 -0.3977
  570MOL0     C76872   3.554  11.294   6.125  0.0821 -0.1231 -0.5271
  570MOL0     C76873   3.495  11.306   6.252  0.5651 -0.8930 -0.3557
  570MOL0     O76874   3.577  11.342   6.366  0.8704 -0.2794 -0.4576
  570MOL0     C76875   3.508  11.387   6.485  0.0454  0.4799 -0.6832
  570MOL0     C76876   3.445  11.523   6.474  0.7012 -0.5599  0.0001
  570MOL0     C76877   3.532  11.630   6.404 -0.6090 -0.6199  0.1042
  570MOL0     C76878   3.653  11.666   6.491  0.2922 -0.0990 -0.0554
  570MOL0     C76879   3.617  11.739   6.614 -0.7428  0.2823  0.9850
  570MOL0     C76880   3.588  11.797   6.709 -0.6963  0.8873 -0.7903
  570MOL0     C76881   3.358  11.275   6.257  1.4936  0.5113 -0.0979
  570MOL0     C76882   3.289  11.240   6.143  0.0288  0.2684 -0.2572
  570MOL0     H76883   3.434  10.947   5.622  0.3832 -0.9434  0.7395
  570MOL0     H76884   3.303  10.845   5.462 -1.1331 -0.4808 -1.7729
  570MOL0     H76885   2.883  10.934   5.414 -0.6066  0.1758  0.3476
  570MOL0     H76886   2.930  11.082   5.340 -3.0021 -0.8555  2.1047
  570MOL0     H76887   2.932  10.982   5.122  0.8878  0.0889  1.4633
  570MOL0     H76888   2.914  10.813   5.178 -1.7471 -0.6585 -3.6286
  570MOL0     H76889   2.692  10.877   5.275 -1.0117  0.4913  0.8402
  570MOL0     H76890   2.705  11.038   5.194  0.7658  0.5671 -0.0540
  570MOL0     H76891   2.748  10.898   4.977 -1.0999 -0.7098 -1.5140
  570MOL0     H76892   2.695  10.752   5.073  0.3084 -0.4109 -1.9372
  570MOL0     H76893   2.538  11.014   5.039  3.5603  0.0935 -1.5150
  570MOL0     H76894   2.515  10.865   4.935  1.3236 -1.1452 -0.7052
  570MOL0     H76895   2.479  10.748   5.180 -0.6309 -0.1976 -1.2333
  570MOL0     H76896   2.442  10.909   5.233  0.7119 -1.5084  1.2474
  570MOL0     H76897   2.249  10.907   5.058  1.0696  0.3155 -0.3060
  570MOL0     H76898   2.309  10.766   4.993  0.3787 -0.4886  0.0690
  570MOL0     H76899   2.250  10.635   5.194 -1.2405 -0.4676 -0.8631
  570MOL0     H76900   2.116  10.730   5.135  0.9821  0.8517 -1.0886
  570MOL0     H76901   2.051  10.959   5.274 -1.8740 -0.7442  0.5721
  570MOL0     H76902   2.043  11.010   5.662  0.1315  0.5138  0.0585
  570MOL0     H76903   2.066  11.113   5.528 -0.3542 -0.8641 -0.5788
  570MOL0     H76904   1.856  10.909   5.484  1.4331 -0.2278  0.0086
  570MOL0     H76905   1.883  11.076   5.427  0.0647 -0.9442 -0.3144
  570MOL0     H76906   1.816  11.172   5.652 -1.5961  0.1371  0.9532
  570MOL0     H76907   1.786  11.016   5.713 -0.0769 -0.5248 -0.2325
  570MOL0     H76908   1.607  10.989   5.539 -0.8638  0.9520 -1.5182
  570MOL0     H76909   1.650  11.161   5.484  0.4851  0.4095  0.2308
  570MOL0     H76910   1.456  11.188   5.915 -0.3005  2.3452  0.8166
  570MOL0     H76911   1.272  11.220   6.048 -0.4063  0.8771  1.5441
  570MOL0     H76912   1.161  11.352   5.980  0.7636  0.3007 -3.5463
  570MOL0     H76913   1.114  11.178   5.980  1.2892 -1.0783  0.6367
  570MOL0     H76914   0.911  11.553   5.662 -0.0725  1.4101 -0.1927
  570MOL0     H76915   0.698  11.646   5.656 -1.4956 -1.5508 -0.3586
  570MOL0     H76916   0.522  11.766   5.752 -1.6012  0.8911 -0.3696
  570MOL0     H76917   0.470  11.676   5.598  2.4236  2.5339 -0.6863
  570MOL0     H76918   0.303  11.769   5.841  2.5059  0.8862  0.5797
  570MOL0     H76919   0.311  11.842   5.676 -0.3916  0.0259 -0.0817
  570MOL0     H76920   0.207  11.562   5.742  0.8013 -0.7067 -1.4813
  570MOL0     H76921   0.212  11.631   5.579  0.2269 -2.9723  0.5352
  570MOL0     H76922   0.055  11.761   5.801  0.8171 -2.4800  0.4981
  570MOL0     H76923   0.018  11.775   5.636 -1.8727  0.4927 -0.3118
  570MOL0     H76924   0.011  11.520   5.806 -0.8067 -2.5300 -1.4604
  570MOL0     H76925  -0.059  11.537   5.638 -0.7432 -1.1334  1.0153
  570MOL0     H76926  -0.155  11.690   5.879  0.0901  0.6415 -0.8709
  570MOL0     H76927  -0.231  11.702   5.716 -0.7049  0.6476  1.1351
  570MOL0     H76928  -0.209  11.433   5.823  1.3396  0.7673 -0.3966
  570MOL0     H76929  -0.331  11.504   5.709 -3.9666  2.1972  1.4870
  570MOL0     H76930  -0.437  11.442   5.903  3.4644 -1.9837  0.9738
  570MOL0     H76931  -0.431  11.618   5.916  1.1719  0.8430 -2.2232
  570MOL0     H76932   0.541  11.374   5.941 -0.2626 -1.3018 -1.3219
  570MOL0     H76933   0.765  11.276   5.963  0.5690 -0.4106 -1.2544
  570MOL0     H76934   1.189  11.224   5.503 -0.6451  0.4686  0.3733
  570MOL0     H76935   1.413  11.170   5.489  0.3761  0.5621  0.6747
  570MOL0     H76936   3.016  11.163   5.497  0.1048  0.5120 -0.0142
  570MOL0     H76937   3.133  11.259   5.680 -1.2664  0.0637 -2.6507
  570MOL0     H76938   3.551  11.229   5.925  2.5967  1.8859  0.8957
  570MOL0     H76939   3.661  11.310   6.113  0.1162 -1.1696 -1.9494
  570MOL0     H76940   3.440  11.309   6.520  1.8463 -0.3082  1.2283
  570MOL0     H76941   3.576  11.393   6.570 -1.5775  2.5579  0.5670
  570MOL0     H76942   3.400  11.544   6.571 -0.0795 -1.8519 -0.0621
  570MOL0     H76943   3.359  11.514   6.406 -0.9433  0.0888  1.8955
  570MOL0     H76944   3.469  11.714   6.373 -1.3234 -1.7857 -1.7900
  570MOL0     H76945   3.566  11.598   6.305 -2.3273  0.7662 -0.9893
  570MOL0     H76946   3.733  11.722   6.440 -0.0855  0.4061 -0.0981
  570MOL0     H76947   3.699  11.569   6.512  3.5519  1.0547 -1.1672
  570MOL0     H76948   3.575  11.862   6.794 -0.8558  3.5433 -2.7314
  570MOL0     H76949   3.301  11.288   6.349 -0.9857  5.4622 -1.9285
  570MOL0     H76950   3.186  11.206   6.156  0.2854  0.4635  2.9617
  571MOL0     O76951   6.734  10.899   6.303  0.3354 -0.1947  0.2113
  571MOL0     C76952   6.696  10.879   6.186 -0.1350 -0.6562 -1.6330
  571MOL0     O76953   6.575  10.821   6.153  0.2682 -0.0116  0.1837
  571MOL0     C76954   6.474  10.803   6.248  1.0262  0.4551  0.5371
  571MOL0     C76955   6.437  10.673   6.276 -0.3375 -0.6422 -0.2480
  571MOL0     C76956   6.333  10.643   6.365 -0.0324  0.1997  0.0830
  571MOL0     C76957   6.271  10.755   6.424 -0.1592 -0.0822 -0.7002
  571MOL0     O76958   6.156  10.729   6.498  0.4008 -0.3363  0.5424
  571MOL0     C76959   6.111  10.820   6.599 -0.4108  0.3822  0.9891
  571MOL0     C76960   6.004  10.916   6.551  0.2731 -0.0328  0.6343
  571MOL0     C76961   5.866  10.847   6.537 -0.6740  0.1216 -0.7232
  571MOL0     C76962   5.762  10.937   6.584 -0.2087 -0.0409  0.3564
  571MOL0     C76963   5.775  10.947   6.741  0.1773  1.3048 -0.1741
  571MOL0     C76964   5.695  11.070   6.799  0.2256  0.7494  0.1410
  571MOL0     C76965   5.545  11.039   6.761 -0.4421  0.0404 -0.3774
  571MOL0     C76966   5.447  11.143   6.818 -0.1582 -0.4884  0.4552
  571MOL0     N76967   5.431  11.129   6.966 -0.6452 -0.2355  0.2981
  571MOL0     C76968   5.376  11.022   7.038 -0.4320 -0.0894  0.2898
  571MOL0     C76969   5.408  11.051   7.164  0.3592  0.0587  0.0748
  571MOL0     C76970   5.354  10.976   7.276  0.5882 -0.0270  0.6603
  571MOL0     C76971   5.221  11.037   7.315  0.2396 -0.4280  0.3096
  571MOL0     C76972   5.164  10.969   7.439  0.1387 -0.4672  0.8381
  571MOL0     C76973   5.018  10.929   7.429  0.5089  0.0056  0.8900
  571MOL0     O76974   5.004  10.836   7.312 -0.2603 -0.5634 -0.3619
  571MOL0     C76975   4.881  10.786   7.294 -0.4792  1.0331 -0.2506
  571MOL0     C76976   4.876  10.677   7.202 -0.5052 -0.6538  0.0458
  571MOL0     C76977   4.755  10.613   7.175 -0.4183 -0.0473 -0.4368
  571MOL0     C76978   4.760  10.494   7.071 -0.1648  0.1359 -1.0954
  571MOL0     C76979   4.637  10.636   7.259 -0.9202 -0.3283  0.1366
  571MOL0     C76980   4.527  10.537   7.276 -0.2376 -0.5863 -0.2100
  571MOL0     O76981   4.455  10.551   7.395  0.1839  0.2544 -0.4978
  571MOL0     C76982   4.354  10.472   7.432 -0.3508  0.3793 -0.8212
  571MOL0     C76983   4.233  10.539   7.472 -0.1127  0.2671 -0.1055
  571MOL0     C76984   4.124  10.461   7.517  0.0826  0.0951 -0.8237
  571MOL0     C76985   4.132  10.327   7.550  0.8847  0.2324  0.3224
  571MOL0     O76986   4.024  10.256   7.611 -0.4079  0.1640 -0.0344
  571MOL0     C76987   3.900  10.268   7.535 -0.2142 -0.1424  0.0205
  571MOL0     C76988   3.789  10.172   7.581 -0.4908  0.0600  0.2783
  571MOL0     C76989   3.847  10.028   7.598 -0.3969  0.3158  0.2662
  571MOL0     C76990   3.739   9.933   7.606 -0.2409 -1.0387 -0.0021
  571MOL0     C76991   3.661   9.927   7.740  0.6713  0.3848  0.0248
  571MOL0     C76992   3.551   9.822   7.728  0.0891  0.5440 -0.3515
  571MOL0     C76993   3.478   9.768   7.856  0.3099 -0.0820  0.5608
  571MOL0     C76994   3.480   9.876   7.960 -0.0406  0.4314 -0.3853
  571MOL0    Cl76995   3.367   9.802   8.093  0.4480  0.0402  0.0603
  571MOL0     C76996   4.257  10.269   7.515  0.4714 -0.1363 -0.1057
  571MOL0     C76997   4.359  10.335   7.447  0.0895  1.1701 -0.0529
  571MOL0     O76998   4.513  10.448   7.195  0.6261 -0.2744 -0.6582
  571MOL0     C76999   4.651  10.742   7.354  0.3554 -0.3298 -0.1987
  571MOL0     C77000   4.763  10.814   7.374 -0.6531  0.1679 -0.8032
  571MOL0     N77001   5.465  11.175   7.169 -0.1989 -0.2872 -0.3998
  571MOL0     N77002   5.492  11.213   7.047  0.3782 -0.2660 -0.4430
  571MOL0     C77003   6.308  10.892   6.387 -0.0884  0.6058 -0.5805
  571MOL0     C77004   6.417  10.915   6.300 -0.4847 -0.0654 -0.1573
  571MOL0     C77005   6.792  10.901   6.084 -0.1874  0.0160  0.0753
  571MOL0     C77006   6.759  10.880   5.947 -0.6381 -0.2675  0.5354
  571MOL0     C77007   6.856  10.885   5.852 -0.4166  0.2725 -0.3022
  571MOL0     C77008   6.985  10.935   5.875 -0.2789  0.0860 -0.8437
  571MOL0     O77009   7.083  10.962   5.783  0.0469  0.1173 -0.5896
  571MOL0     C77010   7.035  10.959   5.642  0.5246 -0.1501 -0.9329
  571MOL0     C77011   7.156  10.985   5.541  0.1212  0.0887 -0.6511
  571MOL0     C77012   7.210  11.128   5.569  0.0440  0.2683  0.5269
  571MOL0     C77013   7.328  11.178   5.479  0.0274 -0.8351 -1.1254
  571MOL0     C77014   7.366  11.309   5.525  0.4958  0.3363 -0.4712
  571MOL0     C77015   7.423  11.411   5.560  0.2338  0.5159 -0.3028
  571MOL0     C77016   7.012  10.972   6.009  0.0392 -0.3270 -0.1428
  571MOL0     C77017   6.921  10.952   6.115  0.1043 -0.0218  0.1532
  571MOL0     H77018   6.482  10.586   6.228  2.7221 -1.6501  3.8682
  571MOL0     H77019   6.307  10.539   6.381 -1.1076  0.6228  1.2140
  571MOL0     H77020   6.075  10.783   6.695  0.9922 -1.1137  0.9906
  571MOL0     H77021   6.195  10.883   6.632 -0.2884  0.5073  0.4496
  571MOL0     H77022   6.002  10.999   6.622 -2.0463 -2.1284  3.2333
  571MOL0     H77023   6.022  10.969   6.457 -0.5268  0.4475  0.7476
  571MOL0     H77024   5.858  10.826   6.430 -3.6475  0.2621 -0.6042
  571MOL0     H77025   5.857  10.757   6.599  3.1055  0.4435  0.5853
  571MOL0     H77026   5.764  11.039   6.542  0.7709 -0.1706  0.0525
  571MOL0     H77027   5.669  10.887   6.556 -0.6208  1.8358 -1.9433
  571MOL0     H77028   5.744  10.849   6.777 -0.1394  1.1800 -0.7787
  571MOL0     H77029   5.877  10.952   6.779 -0.0090 -2.3324  1.1231
  571MOL0     H77030   5.704  11.079   6.907  1.1171  3.7341 -0.0863
  571MOL0     H77031   5.727  11.163   6.751  0.5999  1.4673  1.7299
  571MOL0     H77032   5.522  11.016   6.656 -0.6852 -1.1028 -0.0882
  571MOL0     H77033   5.528  10.945   6.815 -2.1946  1.9611  2.6680
  571MOL0     H77034   5.354  11.124   6.764  0.3668 -2.0606  0.0294
  571MOL0     H77035   5.484  11.242   6.789 -0.7609  0.3336  2.3817
  571MOL0     H77036   5.328  10.932   7.000  0.0912 -0.0187 -0.5958
  571MOL0     H77037   5.347  10.872   7.241  3.0280  0.3304 -1.1483
  571MOL0     H77038   5.423  10.996   7.358 -0.5906 -0.7898  1.8599
  571MOL0     H77039   5.155  11.033   7.228 -0.0213  3.2647  0.2061
  571MOL0     H77040   5.227  11.143   7.342 -2.8561  0.1862 -1.0019
  571MOL0     H77041   5.174  11.047   7.515  2.4033  1.3088 -1.1185
  571MOL0     H77042   5.222  10.886   7.481 -0.9884 -1.0369  1.3034
  571MOL0     H77043   4.948  11.012   7.417 -2.5853 -2.6444 -0.8639
  571MOL0     H77044   4.988  10.875   7.519  2.4692  0.4721  1.8912
  571MOL0     H77045   4.970  10.639   7.163 -0.5307 -1.2270  0.5311
  571MOL0     H77046   4.664  10.488   7.019 -0.5889 -0.4145 -0.2836
  571MOL0     H77047   4.840  10.521   7.002  1.7714  1.2119  1.4118
  571MOL0     H77048   4.790  10.398   7.113 -0.4390  0.8746  0.9229
  571MOL0     H77049   4.227  10.647   7.470  0.2121  0.3117  0.7431
  571MOL0     H77050   4.031  10.515   7.532  0.7890  1.2721 -0.4420
  571MOL0     H77051   3.856  10.367   7.551 -0.9039 -0.8812  3.9172
  571MOL0     H77052   3.909  10.242   7.430  2.6517 -0.4488  0.2584
  571MOL0     H77053   3.743  10.203   7.675  0.1779  1.5679  0.1377
  571MOL0     H77054   3.707  10.164   7.508  0.3874 -3.3760 -0.4987
  571MOL0     H77055   3.907  10.020   7.689 -1.4517 -0.7870  0.8868
  571MOL0     H77056   3.907  10.005   7.509 -2.4245  1.5586 -1.4988
  571MOL0     H77057   3.669   9.963   7.528  0.7873 -1.2528 -1.0171
  571MOL0     H77058   3.773   9.832   7.579 -1.2081 -1.5292  0.5360
  571MOL0     H77059   3.627  10.025   7.776  0.9077 -0.1516  1.7845
  571MOL0     H77060   3.720   9.891   7.824 -0.2845  3.9692  2.4623
  571MOL0     H77061   3.468   9.861   7.668  0.2439 -0.3110 -1.1384
  571MOL0     H77062   3.575   9.732   7.671 -0.4481  0.3205 -0.2315
  571MOL0     H77063   3.527   9.674   7.884 -0.7899 -0.5731  0.9082
  571MOL0     H77064   3.376   9.748   7.821 -0.5588  4.0350  0.2214
  571MOL0     H77065   3.447   9.973   7.921  1.5585  0.9448 -0.5501
  571MOL0     H77066   3.581   9.886   8.002 -0.9119  1.4547  1.5753
  571MOL0     H77067   4.286  10.169   7.548  3.0914  0.7423  0.5303
  571MOL0     H77068   4.454  10.284   7.429 -1.6399 -2.2007 -0.4249
  571MOL0     H77069   4.576  10.766   7.429  1.4386 -1.0462  1.1390
  571MOL0     H77070   4.762  10.889   7.453 -1.9982  1.4281 -1.9437
  571MOL0     H77071   6.239  10.968   6.424  0.5686 -0.2690  2.8231
  571MOL0     H77072   6.452  11.015   6.280 -0.8939  0.7401  2.6809
  571MOL0     H77073   6.664  10.849   5.905  1.1301 -2.9874 -1.8195
  571MOL0     H77074   6.822  10.865   5.751  2.0045  0.7859 -1.2956
  571MOL0     H77075   6.987  10.864   5.620  1.2683 -0.4679 -1.2176
  571MOL0     H77076   6.965  11.040   5.623  0.5503  0.2455  0.4795
  571MOL0     H77077   7.111  10.978   5.441 -1.0000  0.5452 -0.1833
  571MOL0     H77078   7.234  10.910   5.555 -0.6492 -0.7226 -0.6290
  571MOL0     H77079   7.258  11.117   5.666  0.2680 -3.7779  0.1555
  571MOL0     H77080   7.124  11.195   5.577  0.1100  0.1822  2.1884
  571MOL0     H77081   7.290  11.197   5.379  1.0258 -0.7471 -1.4997
  571MOL0     H77082   7.418  11.116   5.483  0.3233 -0.4665 -1.8656
  571MOL0     H77083   7.477  11.501   5.581  1.5886 -0.9516  3.2941
  571MOL0     H77084   7.112  11.012   6.016 -0.1733  0.2329 -0.2790
  571MOL0     H77085   6.970  10.953   6.212  3.4785 -4.9290 -1.1110
  572MOL0     O77086   4.872   3.870   3.947  0.1502 -0.3663 -0.7569
  572MOL0     C77087   4.958   3.797   3.902  0.5350 -0.1068  0.0664
  572MOL0     O77088   4.934   3.684   3.829 -0.7833  0.5285  0.5666
  572MOL0     C77089   4.816   3.630   3.793 -0.4659 -0.5467 -0.6551
  572MOL0     C77090   4.801   3.555   3.683  0.0848  0.4806  0.2456
  572MOL0     C77091   4.687   3.480   3.662  0.8203 -0.5883 -0.2521
  572MOL0     C77092   4.582   3.490   3.749 -0.1302  0.7361 -0.7245
  572MOL0     O77093   4.460   3.420   3.736 -0.6282 -0.4005  0.0356
  572MOL0     C77094   4.403   3.405   3.609  0.1063 -0.0599 -0.2786
  572MOL0     C77095   4.309   3.525   3.598 -0.3520  0.2222  0.0319
  572MOL0     C77096   4.196   3.508   3.689 -0.2075 -0.0912 -0.0016
  572MOL0     C77097   4.089   3.614   3.650 -0.0385  0.5512  0.4249
  572MOL0     C77098   3.953   3.597   3.719 -0.4404 -0.6803 -1.2028
  572MOL0     C77099   3.944   3.629   3.863  0.3612 -0.7862  0.3228
  572MOL0     C77100   3.797   3.629   3.911 -0.2053  0.0063 -0.3198
  572MOL0     C77101   3.720   3.499   3.902 -0.4049  0.6894  0.1072
  572MOL0     N77102   3.801   3.399   3.973 -0.4970 -0.6107 -0.7976
  572MOL0     C77103   3.854   3.291   3.908  0.2863  0.3989 -0.4848
  572MOL0     C77104   3.908   3.225   4.013  0.7981  0.0894  1.3927
  572MOL0     C77105   3.994   3.099   3.989 -0.4124 -0.0059  0.1381
  572MOL0     C77106   4.136   3.139   4.038 -0.3432  0.3682 -1.0763
  572MOL0     C77107   4.257   3.042   4.018 -0.3279  0.2835 -0.7205
  572MOL0     C77108   4.395   3.086   4.067  0.8477  0.1221  0.0835
  572MOL0     O77109   4.466   3.191   3.992 -0.0659  0.2955 -0.0012
  572MOL0     C77110   4.526   3.282   4.084  0.5153  0.4412  0.2358
  572MOL0     C77111   4.664   3.286   4.090  0.2450 -0.5206 -0.0617
  572MOL0     C77112   4.722   3.386   4.164 -0.5732  0.0048 -0.1223
  572MOL0     C77113   4.868   3.376   4.165 -0.0609 -0.4063 -0.3527
  572MOL0     C77114   4.656   3.483   4.242  0.5583  0.1185 -0.3450
  572MOL0     C77115   4.712   3.579   4.341 -0.3335 -1.5930  0.4697
  572MOL0     O77116   4.675   3.712   4.317  0.0898 -0.1650  0.9617
  572MOL0     C77117   4.719   3.816   4.390 -0.4304 -0.8744 -0.5231
  572MOL0     C77118   4.721   3.817   4.527  0.2742  0.5708 -1.1117
  572MOL0     C77119   4.753   3.931   4.607  0.1627 -0.4575  0.4065
  572MOL0     C77120   4.754   4.048   4.539 -0.1482 -0.3891  0.1421
  572MOL0     O77121   4.788   4.159   4.617  0.0966 -0.1393  0.3043
  572MOL0     C77122   4.670   4.241   4.634 -0.0978  0.1878  0.0344
  572MOL0     C77123   4.589   4.176   4.751 -0.8059  0.0362 -0.6504
  572MOL0     C77124   4.457   4.242   4.776 -0.5005 -0.0212 -0.7015
  572MOL0     C77125   4.353   4.125   4.798  0.1755  0.3021 -0.0939
  572MOL0     C77126   4.213   4.188   4.803  0.2993 -0.9795  0.0139
  572MOL0     C77127   4.106   4.091   4.850 -0.1190 -0.4465 -0.1326
  572MOL0     C77128   3.965   4.148   4.828  0.3605 -0.0566  0.2879
  572MOL0     C77129   3.861   4.079   4.912 -0.6306  0.8298 -0.2127
  572MOL0    Cl77130   3.847   3.907   4.882 -0.1746  0.0499  0.0028
  572MOL0     C77131   4.738   4.048   4.401 -0.4353  0.0285  0.2330
  572MOL0     C77132   4.724   3.938   4.329  0.1854  0.9062  0.1084
  572MOL0     O77133   4.767   3.541   4.441  0.5292  0.3096 -0.1000
  572MOL0     C77134   4.514   3.483   4.218 -0.6761 -0.1596  0.0660
  572MOL0     C77135   4.450   3.384   4.147 -0.3220 -0.0948  0.2654
  572MOL0     N77136   3.888   3.289   4.133  0.6122 -0.3766  0.2134
  572MOL0     N77137   3.818   3.392   4.112 -0.1678  0.2069 -0.2214
  572MOL0     C77138   4.594   3.573   3.854  0.1364  0.1008  0.2598
  572MOL0     C77139   4.715   3.629   3.890 -0.2128  0.6683 -0.0210
  572MOL0     C77140   5.099   3.833   3.918  0.5781  0.2889 -0.4543
  572MOL0     C77141   5.200   3.782   3.832 -0.3987 -0.8631 -0.3029
  572MOL0     C77142   5.339   3.791   3.867 -0.1206 -0.2008 -0.1991
  572MOL0     C77143   5.379   3.866   3.978  0.3039 -0.4668 -1.2754
  572MOL0     O77144   5.510   3.864   4.007  0.3197  0.5256 -0.4092
  572MOL0     C77145   5.550   3.928   4.129 -0.0874 -0.6670 -0.2393
  572MOL0     C77146   5.700   3.929   4.157 -0.8338  0.0558  0.1691
  572MOL0     C77147   5.768   3.793   4.146 -0.0227 -0.2522  0.1083
  572MOL0     C77148   5.914   3.797   4.099  0.6789 -0.7557  0.9359
  572MOL0     C77149   5.999   3.880   4.200  0.4576 -0.9943  0.6622
  572MOL0     C77150   6.055   3.945   4.282 -0.5920  0.0916 -0.1294
  572MOL0     C77151   5.281   3.924   4.053 -0.3718  0.3536 -0.2832
  572MOL0     C77152   5.141   3.912   4.027 -0.1097  0.3296 -0.3812
  572MOL0     H77153   4.872   3.549   3.601  0.6560 -1.9818  0.8360
  572MOL0     H77154   4.679   3.419   3.573 -2.6989 -1.7929  0.7241
  572MOL0     H77155   4.484   3.402   3.535  1.5967 -0.7104  1.3226
  572MOL0     H77156   4.347   3.312   3.597 -1.9125  1.1555 -0.8099
  572MOL0     H77157   4.358   3.614   3.638 -0.7522  0.2739  0.4116
  572MOL0     H77158   4.284   3.538   3.492 -2.1227  0.0606  0.3979
  572MOL0     H77159   4.156   3.410   3.662  0.6954 -0.8202  1.2340
  572MOL0     H77160   4.233   3.521   3.791 -0.0050  2.5959 -0.3551
  572MOL0     H77161   4.126   3.716   3.663  1.1661  0.1546  0.1600
  572MOL0     H77162   4.069   3.606   3.543 -2.0245  2.9928  0.5141
  572MOL0     H77163   3.890   3.669   3.666  0.5713  0.4681 -0.8929
  572MOL0     H77164   3.907   3.499   3.707 -1.8886 -0.5586  2.2354
  572MOL0     H77165   4.005   3.561   3.922  0.0097 -1.0629  0.3720
  572MOL0     H77166   3.984   3.731   3.865 -0.8502 -0.2773 -0.1352
  572MOL0     H77167   3.803   3.672   4.011  2.7268 -0.7203 -0.0842
  572MOL0     H77168   3.738   3.698   3.850  0.2045  0.3391 -0.3473
  572MOL0     H77169   3.714   3.476   3.795 -0.9847  1.2798  0.0077
  572MOL0     H77170   3.621   3.497   3.947 -2.0353  1.6156 -3.1262
  572MOL0     H77171   3.853   3.277   3.801 -2.0749 -0.4550 -0.4053
  572MOL0     H77172   3.959   3.017   4.053  0.4526  1.5003  2.6959
  572MOL0     H77173   4.002   3.054   3.890 -0.5059  0.3664 -0.0361
  572MOL0     H77174   4.128   3.164   4.144  1.8739 -1.0643 -0.4982
  572MOL0     H77175   4.167   3.237   4.000  2.9488  1.1074  2.7522
  572MOL0     H77176   4.261   3.016   3.912 -0.1860  1.3517 -0.9913
  572MOL0     H77177   4.225   2.960   4.083  0.2067  1.9761  1.8441
  572MOL0     H77178   4.471   3.007   4.070  3.1516  2.2249  3.0518
  572MOL0     H77179   4.381   3.115   4.172 -1.9796 -2.0500  0.4231
  572MOL0     H77180   4.710   3.197   4.047 -1.2666 -1.8121  0.8990
  572MOL0     H77181   4.916   3.474   4.166  1.4457 -1.1037  1.5488
  572MOL0     H77182   4.903   3.321   4.253 -0.3738 -1.8730 -1.0966
  572MOL0     H77183   4.902   3.317   4.080  0.9757 -0.9855  0.4384
  572MOL0     H77184   4.716   3.724   4.583 -1.6097  1.0587 -0.3877
  572MOL0     H77185   4.766   3.935   4.715  0.0066 -0.8296  0.4396
  572MOL0     H77186   4.713   4.339   4.658  0.7392 -0.7771  2.9207
  572MOL0     H77187   4.616   4.245   4.539  0.4221  3.0667 -0.2160
  572MOL0     H77188   4.570   4.075   4.716 -0.7696 -0.3182  0.3324
  572MOL0     H77189   4.646   4.177   4.845 -1.1847 -0.6863 -0.4081
  572MOL0     H77190   4.428   4.305   4.691 -0.3900 -1.4083 -1.8014
  572MOL0     H77191   4.471   4.311   4.859  3.9529 -0.5183 -0.8284
  572MOL0     H77192   4.350   4.062   4.709  0.8196  1.2945 -0.8442
  572MOL0     H77193   4.369   4.062   4.886 -0.8513 -0.0508 -0.1428
  572MOL0     H77194   4.181   4.223   4.704 -0.0928  2.0488  1.1230
  572MOL0     H77195   4.218   4.276   4.868  0.6634 -1.0203  0.0469
  572MOL0     H77196   4.118   3.999   4.792  1.3336 -1.2910  1.4138
  572MOL0     H77197   4.119   4.063   4.955 -1.3457 -1.5344 -0.2500
  572MOL0     H77198   3.938   4.138   4.723 -0.6761 -1.3117  0.6438
  572MOL0     H77199   3.952   4.252   4.859 -1.0866 -0.3020  0.5763
  572MOL0     H77200   3.762   4.121   4.888 -1.6590 -0.9837  0.6627
  572MOL0     H77201   3.873   4.092   5.019  0.3211 -1.1879 -0.0336
  572MOL0     H77202   4.755   4.143   4.350 -1.1763  0.0331 -0.0144
  572MOL0     H77203   4.708   3.939   4.222  1.6083 -2.5649 -0.2798
  572MOL0     H77204   4.462   3.552   4.282  0.3839  0.7858 -0.0519
  572MOL0     H77205   4.343   3.366   4.146 -0.3055 -0.8898  3.1839
  572MOL0     H77206   4.513   3.595   3.924  0.1522  2.0586 -0.2551
  572MOL0     H77207   4.724   3.681   3.985 -1.2098  3.6054 -1.3891
  572MOL0     H77208   5.176   3.733   3.738 -0.9610 -1.9392  0.3712
  572MOL0     H77209   5.401   3.731   3.801  0.5835 -0.9407  1.0925
  572MOL0     H77210   5.514   4.032   4.132  0.3568 -0.5343  1.5584
  572MOL0     H77211   5.513   3.879   4.220  0.1629 -0.6369 -0.1191
  572MOL0     H77212   5.716   3.974   4.255  1.0850  0.0830 -0.1220
  572MOL0     H77213   5.740   3.991   4.076 -1.0258 -0.5886 -0.4342
  572MOL0     H77214   5.702   3.728   4.087 -0.4969 -1.5053  1.9207
  572MOL0     H77215   5.764   3.756   4.249 -3.9501  0.5462  0.3792
  572MOL0     H77216   5.928   3.832   3.996  3.7247 -0.4147  1.3847
  572MOL0     H77217   5.944   3.692   4.104  0.2090 -0.9051  0.7412
  572MOL0     H77218   6.125   4.002   4.339 -0.0568 -0.1115 -0.5761
  572MOL0     H77219   5.290   3.964   4.153 -2.7666  1.2830 -0.3760
  572MOL0     H77220   5.060   3.955   4.085 -1.0970  0.1159 -1.5568
  573MOL0     O77221  11.259   2.528   6.172  0.4496 -0.3248 -0.0098
  573MOL0     C77222  11.220   2.465   6.077  0.0591 -0.7221  0.0258
  573MOL0     O77223  11.091   2.435   6.050  0.6011  0.2372 -0.2776
  573MOL0     C77224  11.001   2.453   6.155  0.0549 -0.2661 -0.4262
  573MOL0     C77225  10.948   2.333   6.207  0.2162 -0.6050 -0.0346
  573MOL0     C77226  10.835   2.350   6.272  0.2133  0.8768 -0.0627
  573MOL0     C77227  10.774   2.471   6.303 -0.3044  0.2927  0.7815
  573MOL0     O77228  10.645   2.477   6.356  0.4715  0.4367 -0.4218
  573MOL0     C77229  10.540   2.462   6.260  0.2873  0.6599 -0.4519
  573MOL0     C77230  10.415   2.424   6.337  0.3080 -0.3493  0.7560
  573MOL0     C77231  10.293   2.432   6.237 -1.3142 -0.8601 -0.5202
  573MOL0     C77232  10.158   2.425   6.313  0.6723  1.0825  0.3867
  573MOL0     C77233  10.043   2.397   6.221  0.4733 -0.4860 -0.1168
  573MOL0     C77234   9.910   2.401   6.295 -0.0749 -0.4564  0.5153
  573MOL0     C77235   9.786   2.337   6.218 -0.0821  0.7521  0.4019
  573MOL0     C77236   9.796   2.183   6.220 -0.3266 -0.7333 -0.0369
  573MOL0     N77237   9.672   2.124   6.155  0.8744  0.4796 -0.1249
  573MOL0     C77238   9.654   2.105   6.022  0.0801  0.5135 -0.1999
  573MOL0     C77239   9.537   2.036   6.021 -0.1502 -0.5886  0.3362
  573MOL0     C77240   9.463   2.001   5.895  0.2822  0.3471 -0.2332
  573MOL0     C77241   9.333   2.082   5.868  0.5013  0.4308  0.0929
  573MOL0     C77242   9.296   2.103   5.724 -0.7785 -0.3661 -0.3038
  573MOL0     C77243   9.149   2.157   5.719  0.0471  1.0444  0.2798
  573MOL0     O77244   9.115   2.195   5.578 -0.1818  0.8905 -0.1685
  573MOL0     C77245   8.996   2.242   5.552 -0.1617  0.0728  0.1656
  573MOL0     C77246   8.981   2.306   5.431 -0.3622  0.4055 -0.3985
  573MOL0     C77247   8.866   2.378   5.391 -0.1946  0.0408 -0.6444
  573MOL0     C77248   8.858   2.453   5.267  0.5622 -0.4697  0.1467
  573MOL0     C77249   8.752   2.375   5.471 -0.4391  0.9808  0.4420
  573MOL0     C77250   8.626   2.441   5.449  0.5581  0.0194  1.4365
  573MOL0     O77251   8.578   2.450   5.320  0.8879 -1.0027 -0.9251
  573MOL0     C77252   8.446   2.475   5.316 -0.5830  1.0896  0.3072
  573MOL0     C77253   8.358   2.399   5.388 -0.0873  0.2614  0.7855
  573MOL0     C77254   8.223   2.425   5.379 -0.1349  0.3756 -0.4029
  573MOL0     C77255   8.173   2.522   5.298  0.4216 -0.0138  0.6877
  573MOL0     O77256   8.036   2.545   5.309  0.0240 -0.1126  0.0048
  573MOL0     C77257   7.990   2.671   5.270  0.0284 -0.7805 -0.4056
  573MOL0     C77258   7.835   2.674   5.252 -0.4085  0.5010 -0.3344
  573MOL0     C77259   7.801   2.822   5.229 -0.4096 -0.7539  0.2726
  573MOL0     C77260   7.654   2.834   5.220  1.3096  0.8476 -0.4056
  573MOL0     C77261   7.597   2.972   5.219  0.1111  0.0297 -1.2437
  573MOL0     C77262   7.619   3.055   5.091  0.0200  0.1916 -0.4090
  573MOL0     C77263   7.526   3.178   5.101  0.1057  0.2787  0.0068
  573MOL0     C77264   7.605   3.308   5.116  0.3561  0.4745  0.6559
  573MOL0    Cl77265   7.654   3.364   4.950  0.3945  0.1853 -0.1706
  573MOL0     C77266   8.259   2.595   5.218  0.5055  0.1684  0.6155
  573MOL0     C77267   8.402   2.571   5.233 -0.3017 -0.4196  0.3241
  573MOL0     O77268   8.572   2.493   5.545 -0.0529  1.1230  0.0781
  573MOL0     C77269   8.771   2.307   5.596 -0.1478  0.3186  0.2254
  573MOL0     C77270   8.891   2.249   5.643 -0.3894 -0.7641  0.3011
  573MOL0     N77271   9.492   2.001   6.151  0.0171 -0.5033  0.1042
  573MOL0     N77272   9.577   2.052   6.227  0.2134 -0.2054 -0.0254
  573MOL0     C77273  10.820   2.586   6.243 -0.4050  0.1310 -0.8358
  573MOL0     C77274  10.943   2.581   6.166  0.5632  1.0622 -0.5384
  573MOL0     C77275  11.318   2.442   5.966  0.0866 -0.2095 -0.4225
  573MOL0     C77276  11.289   2.338   5.875 -0.4868 -0.0563 -0.6343
  573MOL0     C77277  11.384   2.310   5.773 -0.5121 -0.3640 -0.4143
  573MOL0     C77278  11.507   2.369   5.759 -0.4319 -0.2804 -0.3119
  573MOL0     O77279  11.579   2.342   5.643 -0.1746 -0.3424 -0.7991
  573MOL0     C77280  11.713   2.389   5.652  0.7407  0.1942  0.1432
  573MOL0     C77281  11.803   2.353   5.536  0.3401 -0.3552 -1.2500
  573MOL0     C77282  11.859   2.217   5.561 -0.5495  1.7022 -0.1929
  573MOL0     C77283  11.919   2.155   5.427 -0.0598 -0.5395  0.4116
  573MOL0     C77284  12.064   2.157   5.434  0.6171  0.0126  0.5192
  573MOL0     C77285  12.182   2.185   5.440  0.3589  0.3820  0.8285
  573MOL0     C77286  11.544   2.459   5.868 -0.1089  0.2278  0.0469
  573MOL0     C77287  11.449   2.490   5.968 -0.5626 -0.9996 -0.5389
  573MOL0     H77288  10.988   2.233   6.196  0.6789 -0.3351 -0.8610
  573MOL0     H77289  10.784   2.264   6.313  1.4620 -0.5370 -1.3891
  573MOL0     H77290  10.527   2.556   6.205  3.2967  0.6813 -1.3249
  573MOL0     H77291  10.566   2.394   6.178  0.3568 -0.3214  0.3632
  573MOL0     H77292  10.428   2.328   6.389  0.1066 -0.0915  1.2874
  573MOL0     H77293  10.397   2.504   6.408  0.4074  1.4031 -1.1153
  573MOL0     H77294  10.285   2.527   6.183 -2.0957 -1.0786 -0.8047
  573MOL0     H77295  10.303   2.358   6.157  3.2635 -0.1912 -0.8251
  573MOL0     H77296  10.170   2.338   6.379  1.0897 -2.2416 -3.6310
  573MOL0     H77297  10.145   2.521   6.362  3.1493  0.7488  1.9128
  573MOL0     H77298  10.054   2.475   6.145  0.0018 -0.2516  0.0505
  573MOL0     H77299  10.047   2.299   6.172 -1.2773 -1.0802  0.8319
  573MOL0     H77300   9.932   2.346   6.387  2.1507  3.4353  2.5515
  573MOL0     H77301   9.888   2.505   6.321  1.3504 -0.5900  2.4797
  573MOL0     H77302   9.690   2.369   6.259  1.2460  1.8519  2.8325
  573MOL0     H77303   9.792   2.366   6.113 -0.5861  1.3049  0.5207
  573MOL0     H77304   9.814   2.148   6.322 -0.2656 -3.3223 -0.8613
  573MOL0     H77305   9.881   2.161   6.155  0.7919  0.7651  0.8556
  573MOL0     H77306   9.710   2.141   5.936 -1.2377  0.5265 -1.0875
  573MOL0     H77307   9.535   2.026   5.816 -0.0767  2.0882 -0.0608
  573MOL0     H77308   9.428   1.898   5.892 -2.9116  1.3084 -3.1285
  573MOL0     H77309   9.347   2.177   5.921 -2.2919 -0.3645  2.5150
  573MOL0     H77310   9.252   2.026   5.915  1.0208 -2.5410 -2.2268
  573MOL0     H77311   9.294   2.012   5.664  0.0935 -1.2930  1.0171
  573MOL0     H77312   9.359   2.183   5.687  0.6980  0.6040  3.7517
  573MOL0     H77313   9.127   2.246   5.779  0.3358  1.5555 -0.3705
  573MOL0     H77314   9.087   2.077   5.761 -1.9760  2.1170 -0.5480
  573MOL0     H77315   9.065   2.303   5.362  0.5467  0.7908  0.6685
  573MOL0     H77316   8.786   2.535   5.274 -2.1629 -2.7548  6.4648
  573MOL0     H77317   8.950   2.510   5.251 -1.0332  2.3833  0.4946
  573MOL0     H77318   8.833   2.386   5.183  2.9276  0.5631 -1.4910
  573MOL0     H77319   8.393   2.321   5.455 -0.1623 -2.3325 -1.9762
  573MOL0     H77320   8.163   2.376   5.455 -0.1726  0.1059 -0.6030
  573MOL0     H77321   8.027   2.742   5.344 -0.1616 -0.1834 -0.8796
  573MOL0     H77322   8.027   2.709   5.174 -3.5680  2.1402 -0.8309
  573MOL0     H77323   7.806   2.609   5.169  0.1852  0.6023 -0.6344
  573MOL0     H77324   7.789   2.647   5.347 -1.6415  0.9690 -0.7753
  573MOL0     H77325   7.841   2.846   5.130 -0.9160  0.1765  0.2793
  573MOL0     H77326   7.855   2.887   5.299  0.8518  0.5354 -1.7605
  573MOL0     H77327   7.619   2.783   5.130 -2.0920  3.7467 -0.9621
  573MOL0     H77328   7.604   2.783   5.304  0.9262  1.7052 -0.0945
  573MOL0     H77329   7.636   3.038   5.298  0.8113 -0.2219 -1.3700
  573MOL0     H77330   7.491   2.955   5.238 -0.1398  1.0039 -1.7255
  573MOL0     H77331   7.721   3.092   5.103  0.6437 -1.0700 -1.5744
  573MOL0     H77332   7.590   3.005   4.998  0.8274  1.3542 -1.3296
  573MOL0     H77333   7.453   3.166   5.182  1.9090 -2.1328  1.4155
  573MOL0     H77334   7.464   3.186   5.012  0.7333  0.0566 -0.4623
  573MOL0     H77335   7.693   3.292   5.178  2.2510  2.0080 -1.4559
  573MOL0     H77336   7.541   3.386   5.159 -2.4221  1.1637 -3.9719
  573MOL0     H77337   8.225   2.666   5.143 -0.9783 -3.2897 -2.2522
  573MOL0     H77338   8.478   2.616   5.169 -0.5150 -1.0708 -0.4080
  573MOL0     H77339   8.688   2.290   5.663 -0.3823 -3.8327 -0.8641
  573MOL0     H77340   8.895   2.198   5.739 -1.2609 -3.2059 -0.8775
  573MOL0     H77341  10.763   2.677   6.258 -0.3785  0.0585 -0.2972
  573MOL0     H77342  10.977   2.675   6.124 -0.6383  1.8486  0.1544
  573MOL0     H77343  11.203   2.272   5.877 -0.1091 -0.5880  2.0116
  573MOL0     H77344  11.347   2.251   5.690  0.6471 -0.0723 -1.1514
  573MOL0     H77345  11.700   2.497   5.650 -1.3032  0.0086  0.8711
  573MOL0     H77346  11.772   2.354   5.737  2.4988 -0.6525 -1.3542
  573MOL0     H77347  11.886   2.423   5.519  0.6957 -0.7648 -1.2095
  573MOL0     H77348  11.733   2.351   5.452 -1.0589 -0.8436 -0.1041
  573MOL0     H77349  11.779   2.155   5.602  1.4589 -1.8366 -1.2808
  573MOL0     H77350  11.945   2.223   5.628  0.6498 -2.7314 -1.0322
  573MOL0     H77351  11.875   2.191   5.334 -0.6569  0.3462  1.0220
  573MOL0     H77352  11.885   2.051   5.415 -0.9171  0.0097 -2.7504
  573MOL0     H77353  12.279   2.225   5.462 -0.1662  2.4822 -0.3869
  573MOL0     H77354  11.641   2.507   5.875 -0.7807  1.5138  1.0194
  573MOL0     H77355  11.475   2.555   6.052 -0.1677 -1.0089 -0.6524
  574MOL0     O77356   7.775   8.110   3.951  0.3116  0.1793  0.7213
  574MOL0     C77357   7.842   8.143   3.855 -0.6353  0.1726  0.0151
  574MOL0     O77358   7.807   8.231   3.754  1.5501 -0.1833  0.0738
  574MOL0     C77359   7.671   8.263   3.735 -0.2964 -0.1849  0.7092
  574MOL0     C77360   7.619   8.241   3.612 -0.3585 -0.3496 -0.4639
  574MOL0     C77361   7.496   8.288   3.562  0.6216  0.2265  0.1656
  574MOL0     C77362   7.418   8.371   3.647 -0.9895  0.4701  0.5165
  574MOL0     O77363   7.298   8.418   3.614 -0.5076  0.8764 -0.2359
  574MOL0     C77364   7.309   8.555   3.576 -1.5111  1.0456 -1.0232
  574MOL0     C77365   7.244   8.571   3.437  0.2626  0.2965 -0.3699
  574MOL0     C77366   7.277   8.712   3.384  0.5180  0.1028 -0.6386
  574MOL0     C77367   7.194   8.749   3.258 -0.4959  0.1184 -0.0960
  574MOL0     C77368   7.227   8.901   3.231  0.2547 -0.2572  0.5146
  574MOL0     C77369   7.164   8.950   3.100  0.2086 -0.6363  0.2352
  574MOL0     C77370   7.022   8.899   3.068 -0.6890  0.1565 -0.4333
  574MOL0     C77371   6.952   8.990   2.967 -0.0712  0.2474 -0.6248
  574MOL0     N77372   6.815   8.942   2.940  0.0862 -0.4349  0.4142
  574MOL0     C77373   6.709   9.025   2.919 -0.0043  0.2333 -0.8832
  574MOL0     C77374   6.613   8.944   2.875  0.7642 -0.2045  1.0399
  574MOL0     C77375   6.468   8.980   2.835  0.3962  0.7014  0.4469
  574MOL0     C77376   6.369   8.976   2.958  0.3708 -0.7845 -1.0665
  574MOL0     C77377   6.224   8.998   2.922 -0.4306 -0.4070  1.0870
  574MOL0     C77378   6.127   8.988   3.036  0.5718 -1.0770 -0.2185
  574MOL0     O77379   6.008   9.056   2.993  0.2164  0.5103 -0.1523
  574MOL0     C77380   5.886   9.058   3.065 -0.8203 -0.2269 -0.7891
  574MOL0     C77381   5.880   9.028   3.202  0.7261 -0.2004 -0.0778
  574MOL0     C77382   5.758   9.029   3.269  0.7614 -0.2647  0.3974
  574MOL0     C77383   5.764   8.991   3.418  0.1592 -0.0950  0.0825
  574MOL0     C77384   5.639   9.058   3.199  0.2804  1.1329 -1.0255
  574MOL0     C77385   5.499   9.058   3.263  0.4162  0.6053 -0.1638
  574MOL0     O77386   5.402   9.110   3.191  0.5903  0.2859  0.1391
  574MOL0     C77387   5.268   9.127   3.233 -0.4549 -0.4350  0.0702
  574MOL0     C77388   5.209   9.085   3.350 -0.4077 -0.6194  0.2732
  574MOL0     C77389   5.066   9.095   3.366  0.5098  0.3812  0.4870
  574MOL0     C77390   4.983   9.142   3.267  0.3121  0.8097  0.7875
  574MOL0     O77391   4.849   9.138   3.299 -0.1143 -0.0777 -0.3446
  574MOL0     C77392   4.766   9.065   3.203  0.3116  0.6075 -1.2095
  574MOL0     C77393   4.624   9.065   3.258 -0.6512 -0.0633 -0.4809
  574MOL0     C77394   4.561   9.204   3.225 -1.1399  0.3092  0.3385
  574MOL0     C77395   4.418   9.198   3.276 -0.2635 -0.1530 -0.1123
  574MOL0     C77396   4.323   9.149   3.163  0.1351 -0.1893  0.9519
  574MOL0     C77397   4.174   9.132   3.210 -0.1873  0.1420 -0.1068
  574MOL0     C77398   4.170   9.000   3.299 -0.1655  0.1656  0.4384
  574MOL0     C77399   4.034   8.933   3.300 -0.1344 -0.3098 -0.3873
  574MOL0    Cl77400   3.890   9.040   3.325  0.5114 -0.1986  0.1721
  574MOL0     C77401   5.038   9.191   3.157 -0.8134  0.1144 -0.0042
  574MOL0     C77402   5.178   9.176   3.136  0.4926 -0.5727 -0.1255
  574MOL0     O77403   5.484   8.994   3.368  0.1897  1.1057  0.0586
  574MOL0     C77404   5.652   9.078   3.064  0.1386 -0.3167  0.5007
  574MOL0     C77405   5.774   9.093   3.002  0.4622  0.2892 -0.0488
  574MOL0     N77406   6.651   8.813   2.881 -0.5075  0.1515  0.1937
  574MOL0     N77407   6.774   8.816   2.918 -0.4516 -0.1483 -0.1220
  574MOL0     C77408   7.469   8.401   3.770  0.0178  0.9013  0.0516
  574MOL0     C77409   7.592   8.344   3.817  0.3159  0.0399 -0.9009
  574MOL0     C77410   7.981   8.100   3.852 -0.3589  0.6775  0.1758
  574MOL0     C77411   8.037   8.029   3.964  0.1153 -0.5843  0.6503
  574MOL0     C77412   8.174   7.998   3.965  0.6305  0.4839  0.0659
  574MOL0     C77413   8.261   8.040   3.869 -0.2965 -0.1227 -0.7495
  574MOL0     O77414   8.400   8.037   3.885 -0.2247 -0.1953  0.2250
  574MOL0     C77415   8.453   7.986   4.005 -0.0562  0.2485 -0.5638
  574MOL0     C77416   8.604   7.976   4.001 -0.5841 -0.9088 -0.4104
  574MOL0     C77417   8.661   7.893   3.889  0.0873 -0.3387 -0.8029
  574MOL0     C77418   8.812   7.858   3.901  0.4591  0.9662 -0.0894
  574MOL0     C77419   8.895   7.977   3.927 -0.4642  0.1452 -0.6151
  574MOL0     C77420   8.977   8.066   3.941  0.0358 -0.3520 -0.0720
  574MOL0     C77421   8.209   8.108   3.760 -0.2862  0.1101 -0.6272
  574MOL0     C77422   8.074   8.135   3.755  0.5245 -0.2488 -0.1814
  574MOL0     H77423   7.667   8.172   3.543  3.8012  0.9877  0.7834
  574MOL0     H77424   7.454   8.254   3.468  1.7840 -2.2204  0.4612
  574MOL0     H77425   7.259   8.615   3.652 -1.2935 -0.9728  0.8300
  574MOL0     H77426   7.409   8.599   3.564 -1.9258  1.6680 -2.3757
  574MOL0     H77427   7.289   8.501   3.366  2.2763  0.7779  0.3451
  574MOL0     H77428   7.139   8.546   3.456  0.7586  0.5418  3.3812
  574MOL0     H77429   7.264   8.777   3.471 -3.2857 -2.5506  1.0659
  574MOL0     H77430   7.383   8.704   3.359  0.2831 -0.8723 -1.3776
  574MOL0     H77431   7.213   8.684   3.173  2.4571 -1.6209  1.7073
  574MOL0     H77432   7.089   8.738   3.288 -0.3575  2.1333  1.3964
  574MOL0     H77433   7.181   8.959   3.312  2.5292  1.8486  0.4013
  574MOL0     H77434   7.333   8.926   3.224  0.4887 -0.7294  1.9734
  574MOL0     H77435   7.172   9.059   3.099 -0.3469 -0.5967 -0.2523
  574MOL0     H77436   7.228   8.926   3.015  1.1310 -0.7582  0.9450
  574MOL0     H77437   7.013   8.796   3.031 -2.7753  0.7301 -1.6635
  574MOL0     H77438   6.974   8.926   3.163  0.7474 -0.7914  0.5940
  574MOL0     H77439   7.017   8.989   2.879  1.6384  2.5338  0.4901
  574MOL0     H77440   6.948   9.091   3.010 -3.7847 -0.9438  2.3572
  574MOL0     H77441   6.707   9.133   2.927  2.3495  0.2754 -0.1949
  574MOL0     H77442   6.466   9.072   2.775  2.4820 -0.4186 -1.5041
  574MOL0     H77443   6.445   8.897   2.768 -1.0452 -0.6246  2.4778
  574MOL0     H77444   6.403   9.047   3.033  0.8769 -1.6280 -0.4809
  574MOL0     H77445   6.367   8.874   2.998 -3.8938 -0.0174  1.2526
  574MOL0     H77446   6.202   8.924   2.844  0.6757  2.1658 -1.9005
  574MOL0     H77447   6.215   9.092   2.867  0.4792 -1.4536 -0.9787
  574MOL0     H77448   6.163   9.042   3.124  0.3893 -0.1706 -0.6849
  574MOL0     H77449   6.118   8.885   3.072 -0.6077 -0.5418  1.1323
  574MOL0     H77450   5.973   9.029   3.259  0.2832  1.3713  0.6873
  574MOL0     H77451   5.737   8.886   3.430  0.7554 -0.2735 -0.0778
  574MOL0     H77452   5.867   8.989   3.455 -0.1561 -2.5315  1.0765
  574MOL0     H77453   5.713   9.068   3.476 -1.5804 -2.3357  1.6942
  574MOL0     H77454   5.263   9.047   3.436  1.6110 -4.4811 -2.3734
  574MOL0     H77455   5.028   9.072   3.465  2.9718 -0.7360  1.2549
  574MOL0     H77456   4.769   9.112   3.104  1.7656 -1.7615 -2.4087
  574MOL0     H77457   4.816   8.968   3.199  2.6556  1.6755  0.2164
  574MOL0     H77458   4.573   8.989   3.199  1.0991  1.2666 -4.0177
  574MOL0     H77459   4.615   9.040   3.364  0.0021  0.0553 -0.3945
  574MOL0     H77460   4.571   9.223   3.118 -0.0775  0.1766  0.4028
  574MOL0     H77461   4.601   9.298   3.265 -1.6312  0.8771 -0.4706
  574MOL0     H77462   4.421   9.135   3.365  0.3485  0.8526  0.6032
  574MOL0     H77463   4.388   9.298   3.307 -0.1318  0.8275 -2.8659
  574MOL0     H77464   4.362   9.055   3.124 -1.7475 -1.2171  1.4475
  574MOL0     H77465   4.333   9.211   3.073  2.0365 -2.6060 -0.6268
  574MOL0     H77466   4.137   9.223   3.257  0.7117  0.3051  0.3003
  574MOL0     H77467   4.097   9.117   3.134 -0.2842  0.5970 -0.1017
  574MOL0     H77468   4.209   9.022   3.399 -0.9705 -1.0117  1.0301
  574MOL0     H77469   4.243   8.929   3.259 -0.5925  0.1217 -0.2727
  574MOL0     H77470   4.031   8.853   3.375 -0.0115  0.8331  0.8769
  574MOL0     H77471   4.021   8.887   3.201  1.0652  0.3532 -0.8713
  574MOL0     H77472   4.970   9.232   3.083  0.4986 -1.8270 -2.4451
  574MOL0     H77473   5.224   9.219   3.048 -2.4387  0.9041 -1.0688
  574MOL0     H77474   5.560   9.092   3.007 -1.0626 -0.7106  2.2543
  574MOL0     H77475   5.799   9.129   2.903 -0.4482  1.2806  0.0571
  574MOL0     H77476   7.403   8.456   3.837 -1.2439 -0.6897  0.1680
  574MOL0     H77477   7.617   8.371   3.919 -1.7504 -0.6917 -0.1538
  574MOL0     H77478   7.963   7.996   4.037 -1.6679  1.1743 -0.2495
  574MOL0     H77479   8.204   7.947   4.055 -1.7162 -0.2308  0.4995
  574MOL0     H77480   8.430   8.058   4.084  1.3066  2.7076 -2.2826
  574MOL0     H77481   8.404   7.892   4.033 -1.7027  1.4626  0.9617
  574MOL0     H77482   8.634   7.940   4.100 -0.7470  1.4305  0.5598
  574MOL0     H77483   8.643   8.078   3.994  2.4693 -1.5089  3.8044
  574MOL0     H77484   8.645   7.950   3.797 -0.2247 -1.4854 -1.4723
  574MOL0     H77485   8.610   7.797   3.888  1.3006 -0.9983 -0.3791
  574MOL0     H77486   8.858   7.813   3.812 -1.7555 -1.5886 -0.0702
  574MOL0     H77487   8.820   7.797   3.991  1.5149 -0.3537 -1.0416
  574MOL0     H77488   9.039   8.153   3.948 -1.3829  0.6662  0.1450
  574MOL0     H77489   8.278   8.139   3.682 -0.5167 -2.8392 -2.1271
  574MOL0     H77490   8.036   8.196   3.673  2.1023  4.6415  2.3152
  575MOL0     O77491   8.541   6.056   7.065 -0.1986  0.4924  0.3360
  575MOL0     C77492   8.638   5.993   7.015 -0.1710  0.2937 -0.0392
  575MOL0     O77493   8.635   5.894   6.923  0.6293  0.4000  0.9531
  575MOL0     C77494   8.507   5.853   6.889 -0.5903  0.4196  0.1058
  575MOL0     C77495   8.437   5.765   6.969 -0.5689 -0.3586 -0.2913
  575MOL0     C77496   8.312   5.714   6.931  0.8927 -0.1577 -0.7231
  575MOL0     C77497   8.255   5.763   6.812  0.8410 -0.2978  0.4995
  575MOL0     O77498   8.127   5.728   6.769 -0.1991  0.1445 -0.3718
  575MOL0     C77499   8.068   5.617   6.834  0.4844  0.2257  1.4631
  575MOL0     C77500   7.931   5.585   6.778  0.0644  0.3463 -0.1001
  575MOL0     C77501   7.835   5.696   6.786  0.3929 -0.3617 -0.0704
  575MOL0     C77502   7.691   5.644   6.768 -0.2887 -0.0951 -0.0634
  575MOL0     C77503   7.596   5.753   6.795  0.1261  0.0932 -0.4424
  575MOL0     C77504   7.449   5.714   6.758 -0.3733  0.2765 -0.0383
  575MOL0     C77505   7.375   5.847   6.779  0.1110  0.3052 -0.1042
  575MOL0     C77506   7.232   5.810   6.796  0.1310 -0.1049  0.0811
  575MOL0     N77507   7.145   5.940   6.795 -1.0475 -0.1028  0.1698
  575MOL0     C77508   7.129   6.029   6.898  0.4602  0.2315  0.4597
  575MOL0     C77509   7.064   6.130   6.840  0.2847  0.2834  0.5371
  575MOL0     C77510   7.008   6.260   6.898 -0.4406 -1.2225 -0.2204
  575MOL0     C77511   7.107   6.377   6.857 -0.1353  0.0139 -0.2371
  575MOL0     C77512   7.064   6.523   6.902  0.1465 -0.5715 -0.8483
  575MOL0     C77513   6.957   6.578   6.810 -0.7596  0.8911 -0.1320
  575MOL0     O77514   6.905   6.713   6.847 -0.0775  1.3193 -0.0292
  575MOL0     C77515   6.785   6.725   6.922 -0.5795 -1.1018 -0.3185
  575MOL0     C77516   6.719   6.610   6.969  0.3878 -0.0326 -0.0762
  575MOL0     C77517   6.597   6.627   7.038  0.2895 -0.6153  0.1199
  575MOL0     C77518   6.542   6.504   7.104  0.1237 -0.1271 -0.1954
  575MOL0     C77519   6.540   6.760   7.061  0.0932 -0.5651 -0.1077
  575MOL0     C77520   6.417   6.789   7.148 -0.4579 -0.4427  0.0822
  575MOL0     O77521   6.319   6.694   7.152  0.1646  1.2006 -0.7799
  575MOL0     C77522   6.197   6.723   7.204  0.4669 -0.2220  0.2133
  575MOL0     C77523   6.137   6.620   7.278 -0.3882  0.4017  0.7470
  575MOL0     C77524   5.999   6.622   7.307 -0.6904  0.4882 -0.3748
  575MOL0     C77525   5.920   6.733   7.266 -0.2589 -0.2279  0.2447
  575MOL0     O77526   5.786   6.732   7.287 -0.2346 -0.1879 -0.1363
  575MOL0     C77527   5.706   6.843   7.250 -0.0139  0.7144 -0.5183
  575MOL0     C77528   5.554   6.797   7.272 -0.4957 -0.9067  0.5770
  575MOL0     C77529   5.479   6.922   7.321  0.6259 -0.4767 -0.5444
  575MOL0     C77530   5.350   6.954   7.235 -0.1643 -0.3620 -0.8623
  575MOL0     C77531   5.393   7.013   7.103  0.0092 -0.2859 -0.2432
  575MOL0     C77532   5.260   7.048   7.035 -0.1562 -0.3361 -0.5455
  575MOL0     C77533   5.297   7.122   6.899 -0.0006 -0.7676 -0.3094
  575MOL0     C77534   5.178   7.128   6.811 -1.1713  0.5163 -0.2570
  575MOL0    Cl77535   5.033   7.224   6.871 -0.0570  0.1139 -0.3093
  575MOL0     C77536   5.984   6.840   7.191 -0.1973  0.3096 -0.4628
  575MOL0     C77537   6.120   6.836   7.171 -0.4347  0.4433  0.3932
  575MOL0     O77538   6.413   6.899   7.197 -0.4284  0.0621 -0.2253
  575MOL0     C77539   6.617   6.874   7.014  0.5629 -0.1866  0.1499
  575MOL0     C77540   6.742   6.849   6.950  0.6044  0.8476  0.7668
  575MOL0     N77541   7.047   6.104   6.703  0.2669  0.7044 -0.4273
  575MOL0     N77542   7.106   5.993   6.677  0.5959  1.0297  0.1789
  575MOL0     C77543   8.328   5.854   6.731 -0.6848 -0.3572 -0.5653
  575MOL0     C77544   8.455   5.901   6.772 -0.3634  0.5565  0.7003
  575MOL0     C77545   8.777   6.024   7.061  0.7715 -0.4321 -0.8224
  575MOL0     C77546   8.791   6.100   7.178 -0.1460  0.6338 -0.7333
  575MOL0     C77547   8.919   6.136   7.228 -0.8736  0.1080 -0.0722
  575MOL0     C77548   9.035   6.075   7.170  0.4150 -0.0596  1.1856
  575MOL0     O77549   9.162   6.083   7.220 -0.5784 -0.4660  0.2364
  575MOL0     C77550   9.189   6.120   7.361  0.5564  0.0240  0.0942
  575MOL0     C77551   9.340   6.115   7.394 -0.6289  0.1611 -0.0817
  575MOL0     C77552   9.419   6.185   7.277 -0.4263  0.3498  0.2068
  575MOL0     C77553   9.569   6.161   7.300 -0.7984  0.7275 -0.6383
  575MOL0     C77554   9.625   6.189   7.433 -0.3970  0.1163  0.3675
  575MOL0     C77555   9.677   6.221   7.535 -0.6115 -0.1600  0.6996
  575MOL0     C77556   9.010   5.981   7.064  0.2026 -0.3533 -0.4973
  575MOL0     C77557   8.889   5.959   7.003  0.2151  0.1481  0.7835
  575MOL0     H77558   8.480   5.727   7.061  0.3172 -4.5851 -2.1869
  575MOL0     H77559   8.267   5.650   7.006 -2.8901  4.7151  1.7735
  575MOL0     H77560   8.127   5.526   6.820  1.4958  1.1862 -1.0941
  575MOL0     H77561   8.056   5.630   6.942 -2.8462 -1.6497  1.4587
  575MOL0     H77562   7.936   5.551   6.674 -0.1107 -1.8762  0.5681
  575MOL0     H77563   7.893   5.499   6.833  1.6606 -1.3201 -1.4642
  575MOL0     H77564   7.843   5.754   6.878  1.4556 -0.0183 -0.3594
  575MOL0     H77565   7.852   5.770   6.706 -0.9409 -0.8434 -0.8258
  575MOL0     H77566   7.686   5.603   6.667 -0.1437 -1.1923  0.3686
  575MOL0     H77567   7.661   5.561   6.832  1.6699  0.1818  1.3280
  575MOL0     H77568   7.594   5.781   6.900  0.1353  0.3710 -0.5150
  575MOL0     H77569   7.619   5.846   6.742 -0.2578 -0.0953 -0.9583
  575MOL0     H77570   7.446   5.686   6.653 -0.5292  3.8486 -1.1365
  575MOL0     H77571   7.410   5.636   6.823 -0.9670  0.0735 -0.6326
  575MOL0     H77572   7.413   5.904   6.864 -0.0732  1.4925 -0.7810
  575MOL0     H77573   7.382   5.919   6.697 -0.2027  1.1285  0.5758
  575MOL0     H77574   7.215   5.761   6.893  1.5774  0.7564  0.8086
  575MOL0     H77575   7.200   5.747   6.712 -0.5807 -1.7533  1.5186
  575MOL0     H77576   7.145   6.011   7.004 -2.9057 -1.4539  0.8045
  575MOL0     H77577   6.910   6.282   6.855 -0.1153  0.8690 -0.0002
  575MOL0     H77578   6.998   6.254   7.007  0.1163 -0.8371 -0.1426
  575MOL0     H77579   7.124   6.365   6.750 -1.9421 -1.4425 -0.4122
  575MOL0     H77580   7.202   6.352   6.905  0.0757  0.1065 -0.6103
  575MOL0     H77581   7.142   6.599   6.913 -0.0456 -0.5585  0.7759
  575MOL0     H77582   7.028   6.518   7.006  2.4365 -1.1265 -0.0062
  575MOL0     H77583   6.876   6.509   6.785  0.2979  0.7145 -3.6542
  575MOL0     H77584   7.011   6.585   6.715  3.1452 -0.2167  1.8045
  575MOL0     H77585   6.765   6.513   6.955  1.8707  0.8959 -2.1557
  575MOL0     H77586   6.608   6.419   7.121 -0.4915 -0.2240  1.9438
  575MOL0     H77587   6.517   6.530   7.207  2.3243 -2.7930  1.1176
  575MOL0     H77588   6.457   6.474   7.041 -0.7752  1.2539  0.2933
  575MOL0     H77589   6.186   6.530   7.315  0.7588  0.2259 -1.0786
  575MOL0     H77590   5.959   6.534   7.357  0.3403  0.0806 -0.2537
  575MOL0     H77591   5.737   6.931   7.308  1.3236 -0.1661  0.1738
  575MOL0     H77592   5.710   6.874   7.145 -0.1217  1.3596 -0.3408
  575MOL0     H77593   5.508   6.750   7.184 -2.5331 -0.9000  1.5791
  575MOL0     H77594   5.558   6.721   7.351 -2.6571 -0.4937  1.1520
  575MOL0     H77595   5.544   7.010   7.321  1.9454 -1.3675  1.8417
  575MOL0     H77596   5.451   6.906   7.425  1.1572  0.0129 -0.3215
  575MOL0     H77597   5.290   6.866   7.213 -1.0128  0.1053 -0.4644
  575MOL0     H77598   5.281   7.018   7.292  0.8650 -0.7232  0.8906
  575MOL0     H77599   5.442   6.929   7.052  3.3536  0.0845  2.0367
  575MOL0     H77600   5.464   7.096   7.095  3.0127 -2.7009 -0.6572
  575MOL0     H77601   5.205   6.956   7.013 -1.5975  0.0977  1.0693
  575MOL0     H77602   5.203   7.122   7.091  1.9445 -0.1807  1.5549
  575MOL0     H77603   5.368   7.056   6.849  2.2149  1.1655  0.1152
  575MOL0     H77604   5.344   7.219   6.917  0.5831 -1.1002 -0.0195
  575MOL0     H77605   5.144   7.025   6.796 -1.5958 -0.5146  5.4063
  575MOL0     H77606   5.205   7.168   6.713 -1.1145 -1.7543 -1.2255
  575MOL0     H77607   5.940   6.931   7.149  0.6720  0.3005 -1.4244
  575MOL0     H77608   6.164   6.911   7.106 -1.1290 -1.4019 -2.3859
  575MOL0     H77609   6.584   6.976   7.034 -3.4631 -1.5494  1.3966
  575MOL0     H77610   6.785   6.941   6.911  0.7806  0.4171 -0.0740
  575MOL0     H77611   8.285   5.878   6.634 -2.2079  0.8814  0.3690
  575MOL0     H77612   8.513   5.969   6.709 -0.5819  1.5411  1.5444
  575MOL0     H77613   8.705   6.145   7.226 -2.0673 -2.2935 -1.1758
  575MOL0     H77614   8.928   6.197   7.318  2.1477 -0.5336  0.1606
  575MOL0     H77615   9.145   6.217   7.387  0.7771  0.2891 -0.5067
  575MOL0     H77616   9.144   6.040   7.420  0.7325  0.5436  0.9585
  575MOL0     H77617   9.381   6.013   7.402 -1.2447  0.0051  1.3513
  575MOL0     H77618   9.350   6.163   7.492 -0.8716  1.2090 -0.5684
  575MOL0     H77619   9.387   6.289   7.277 -2.2892 -0.1741  1.3218
  575MOL0     H77620   9.395   6.138   7.181  2.4543  1.1250 -1.0089
  575MOL0     H77621   9.630   6.206   7.221 -0.3576 -0.3317 -0.9100
  575MOL0     H77622   9.581   6.054   7.280  1.2501  0.8709 -0.3336
  575MOL0     H77623   9.732   6.249   7.622  4.5290 -0.5589 -2.0209
  575MOL0     H77624   9.104   5.949   7.020  1.0486 -0.0344  0.9970
  575MOL0     H77625   8.898   5.901   6.912  0.3770  1.2393  0.0849
  576MOL0     O77626   0.042   3.451   6.080 -0.0537 -0.1358 -0.0661
  576MOL0     C77627   0.139   3.493   6.024 -0.5644  0.2806  0.4398
  576MOL0     O77628   0.131   3.559   5.901  0.2102 -0.1723  0.3878
  576MOL0     C77629   0.009   3.567   5.834  0.5622  0.7627  0.4953
  576MOL0     C77630   0.018   3.552   5.692 -0.1629 -0.3625  0.2827
  576MOL0     C77631  -0.096   3.583   5.607  0.1641  0.1823 -0.2762
  576MOL0     C77632  -0.217   3.616   5.665  0.4189 -0.1650  0.6720
  576MOL0     O77633  -0.327   3.638   5.585 -0.1777  0.3334  0.4449
  576MOL0     C77634  -0.326   3.754   5.498 -0.4615  0.1965  0.2810
  576MOL0     C77635  -0.405   3.872   5.556  0.2194 -0.8924  0.0301
  576MOL0     C77636  -0.551   3.829   5.603  0.4350  0.3845  0.2522
  576MOL0     C77637  -0.641   3.787   5.483  0.3281  0.0256  0.4524
  576MOL0     C77638  -0.772   3.731   5.532  0.2720 -0.4640 -0.4717
  576MOL0     C77639  -0.864   3.686   5.427  0.4783 -0.3422  0.6443
  576MOL0     C77640  -0.975   3.593   5.474  0.5141  0.6448 -0.9394
  576MOL0     C77641  -1.102   3.664   5.536 -0.2307  0.3311  0.1295
  576MOL0     N77642  -1.185   3.566   5.610  0.3563 -0.2819 -0.1220
  576MOL0     C77643  -1.297   3.504   5.563  0.1000  0.6802 -0.4268
  576MOL0     C77644  -1.316   3.404   5.650 -0.2273 -0.4288 -0.4189
  576MOL0     C77645  -1.409   3.282   5.641 -0.6336 -0.6108  0.5870
  576MOL0     C77646  -1.559   3.317   5.627  0.6776  0.4378  0.2457
  576MOL0     C77647  -1.624   3.370   5.755  0.9932 -0.5498 -0.3686
  576MOL0     C77648  -1.732   3.473   5.698 -0.0763  0.5904 -0.6715
  576MOL0     O77649  -1.834   3.408   5.615 -0.1069 -0.2345 -0.2112
  576MOL0     C77650  -1.904   3.469   5.514  0.2578 -0.2972 -0.5336
  576MOL0     C77651  -1.884   3.592   5.461  0.9251 -0.2891 -0.0829
  576MOL0     C77652  -1.968   3.655   5.377  0.4813 -0.3636  0.5007
  576MOL0     C77653  -1.935   3.806   5.343 -0.5904  0.1464  0.7947
  576MOL0     C77654  -2.074   3.582   5.315  0.0195  0.0328  0.2985
  576MOL0     C77655  -2.175   3.633   5.220  0.8251  0.0356  0.2019
  576MOL0     O77656  -2.297   3.566   5.207  0.0098  0.0540 -0.0502
  576MOL0     C77657  -2.368   3.585   5.088 -0.3207  0.8687  0.8353
  576MOL0     C77658  -2.311   3.533   4.964  0.3885 -0.2580 -0.0550
  576MOL0     C77659  -2.387   3.547   4.852  0.2555  0.1990  0.3412
  576MOL0     C77660  -2.518   3.592   4.851  0.8103 -0.0834  0.6955
  576MOL0     O77661  -2.592   3.583   4.729  0.1931 -0.2405 -0.7857
  576MOL0     C77662  -2.692   3.480   4.721 -0.1354 -0.4736  0.2509
  576MOL0     C77663  -2.779   3.517   4.594  1.0137 -0.3371  0.3522
  576MOL0     C77664  -2.900   3.416   4.563  0.0782 -0.1914  0.0588
  576MOL0     C77665  -3.003   3.400   4.678 -1.1121 -0.9573 -0.4589
  576MOL0     C77666  -3.109   3.305   4.625  0.1017 -0.0357  0.4205
  576MOL0     C77667  -3.209   3.267   4.739 -0.0307 -0.1198  0.1613
  576MOL0     C77668  -3.313   3.162   4.687  0.6076 -0.2671 -0.1703
  576MOL0     C77669  -3.379   3.106   4.817 -0.2283  0.6685  0.8055
  576MOL0    Cl77670  -3.497   2.982   4.759 -0.3293  0.1643  0.0028
  576MOL0     C77671  -2.582   3.639   4.971 -0.6697 -0.0147  0.6495
  576MOL0     C77672  -2.499   3.638   5.092  0.3062 -0.1168  0.3088
  576MOL0     O77673  -2.153   3.736   5.158 -0.4678  0.2562  0.1252
  576MOL0     C77674  -2.109   3.459   5.376 -0.6499  0.8397 -0.5611
  576MOL0     C77675  -2.028   3.402   5.473 -1.3071 -0.8875 -0.4082
  576MOL0     N77676  -1.216   3.407   5.751  0.1872  0.1914 -0.0151
  576MOL0     N77677  -1.140   3.504   5.724  0.3366  0.0888  0.4059
  576MOL0     C77678  -0.226   3.612   5.804 -0.2279  0.0130  0.8562
  576MOL0     C77679  -0.113   3.597   5.892  1.3425 -0.1980  0.4050
  576MOL0     C77680   0.265   3.448   6.065 -0.0677 -0.1006 -0.2121
  576MOL0     C77681   0.290   3.362   6.170 -0.6801  0.4310 -0.5952
  576MOL0     C77682   0.417   3.331   6.204  0.3204 -0.1244  0.6538
  576MOL0     C77683   0.527   3.381   6.136  0.3064 -0.2762 -0.8650
  576MOL0     O77684   0.641   3.324   6.166 -0.1327 -0.6618 -0.0302
  576MOL0     C77685   0.763   3.366   6.121 -0.2088 -0.4716  0.1506
  576MOL0     C77686   0.868   3.260   6.163  0.7621  0.5077 -1.2591
  576MOL0     C77687   1.016   3.318   6.149  0.7558 -0.7576 -1.3389
  576MOL0     C77688   1.036   3.430   6.268  0.6068  0.5289  1.1824
  576MOL0     C77689   1.174   3.471   6.250 -0.6563  0.4716 -0.0037
  576MOL0     C77690   1.294   3.504   6.241  1.0015  0.4845  0.0415
  576MOL0     C77691   0.509   3.469   6.024 -0.1916 -0.5386 -0.3937
  576MOL0     C77692   0.378   3.497   5.995  0.4678  0.9220 -0.2667
  576MOL0     H77693   0.105   3.501   5.653  0.0884  0.4024 -0.1790
  576MOL0     H77694  -0.090   3.580   5.499  1.2897  1.3733 -0.2760
  576MOL0     H77695  -0.221   3.784   5.498 -0.1280 -0.9086  0.8083
  576MOL0     H77696  -0.357   3.728   5.396  3.1029 -0.4565 -0.7631
  576MOL0     H77697  -0.355   3.909   5.646 -4.1941  1.3325  1.8993
  576MOL0     H77698  -0.413   3.949   5.478  0.5556 -2.2535 -1.4000
  576MOL0     H77699  -0.549   3.744   5.671 -4.3080  0.6833  1.1161
  576MOL0     H77700  -0.600   3.911   5.656  0.3309  0.4781  0.0118
  576MOL0     H77701  -0.658   3.883   5.432  0.4902 -0.4129 -0.4460
  576MOL0     H77702  -0.589   3.718   5.416 -0.6294  1.0567 -1.4585
  576MOL0     H77703  -0.753   3.636   5.584 -0.6614 -0.4334 -0.0525
  576MOL0     H77704  -0.825   3.804   5.593  0.8258  1.3575 -2.0737
  576MOL0     H77705  -0.911   3.770   5.376 -0.0273 -1.1694 -0.2813
  576MOL0     H77706  -0.800   3.634   5.355 -1.0993 -2.2208  0.5385
  576MOL0     H77707  -1.019   3.543   5.388  0.7875 -1.7862  0.2593
  576MOL0     H77708  -0.929   3.525   5.546  1.0874  0.2790 -1.6458
  576MOL0     H77709  -1.162   3.722   5.465 -0.1871  0.3257  0.0888
  576MOL0     H77710  -1.067   3.744   5.602  3.4525  0.1501 -1.3891
  576MOL0     H77711  -1.360   3.529   5.478 -1.8578 -2.9537 -0.2727
  576MOL0     H77712  -1.376   3.237   5.547  1.0996  1.1562  0.2733
  576MOL0     H77713  -1.412   3.206   5.721 -4.3747  1.6691  2.9275
  576MOL0     H77714  -1.622   3.230   5.606 -0.3035  0.6866  2.0643
  576MOL0     H77715  -1.571   3.376   5.535 -4.0888 -1.0906 -0.3902
  576MOL0     H77716  -1.553   3.428   5.815  1.0521 -0.9851 -0.0100
  576MOL0     H77717  -1.677   3.291   5.810 -0.5991  1.1737  0.7008
  576MOL0     H77718  -1.683   3.552   5.639 -0.5547  1.3703 -0.0482
  576MOL0     H77719  -1.769   3.535   5.780 -0.3681  1.3538 -1.3561
  576MOL0     H77720  -1.794   3.644   5.495 -0.0536  0.3584  1.6576
  576MOL0     H77721  -1.948   3.829   5.237  2.6143  2.0106  0.6800
  576MOL0     H77722  -2.004   3.864   5.405 -2.5300 -0.9765 -0.2273
  576MOL0     H77723  -1.830   3.823   5.366 -0.1102  0.0026 -1.1157
  576MOL0     H77724  -2.211   3.491   4.971 -0.1894 -2.4728 -3.1975
  576MOL0     H77725  -2.351   3.533   4.750 -1.7865  0.1686 -0.4363
  576MOL0     H77726  -2.653   3.380   4.702 -0.4276 -0.1117 -2.6100
  576MOL0     H77727  -2.760   3.471   4.807 -2.4323 -0.3140 -1.4720
  576MOL0     H77728  -2.828   3.615   4.597  1.2989  0.1175 -3.8276
  576MOL0     H77729  -2.716   3.510   4.505  2.3107 -3.0018  1.3684
  576MOL0     H77730  -2.863   3.318   4.532  1.2774  0.7314 -1.5830
  576MOL0     H77731  -2.954   3.454   4.475 -0.3146 -1.4434 -0.2626
  576MOL0     H77732  -2.956   3.361   4.769 -3.0109  2.8412  2.4443
  576MOL0     H77733  -3.044   3.498   4.705  0.7415 -0.1210 -0.4473
  576MOL0     H77734  -3.062   3.222   4.572 -0.2346  0.0245  0.0152
  576MOL0     H77735  -3.155   3.363   4.544  3.2771  0.0090 -1.5402
  576MOL0     H77736  -3.147   3.232   4.822  3.4564 -0.4668 -2.3832
  576MOL0     H77737  -3.251   3.361   4.776  1.2806  0.8322 -0.6807
  576MOL0     H77738  -3.266   3.080   4.632  0.7167  0.0030 -0.4871
  576MOL0     H77739  -3.387   3.212   4.624  2.1916  2.7496  0.1745
  576MOL0     H77740  -3.436   3.188   4.861 -1.5943  0.8360 -1.1348
  576MOL0     H77741  -3.310   3.061   4.888 -1.6666  0.8520  2.3571
  576MOL0     H77742  -2.685   3.671   4.977 -0.5273  0.2415  2.2240
  576MOL0     H77743  -2.531   3.680   5.187 -2.7203  1.3419 -1.2133
  576MOL0     H77744  -2.195   3.400   5.344 -1.7763  1.5019  1.0914
  576MOL0     H77745  -2.052   3.306   5.518 -0.9294 -0.2390  1.2517
  576MOL0     H77746  -0.323   3.641   5.843 -1.2613 -1.2127 -0.6290
  576MOL0     H77747  -0.131   3.606   5.998 -1.3969  3.5770 -0.1822
  576MOL0     H77748   0.218   3.313   6.235 -0.9249  1.7486  0.1559
  576MOL0     H77749   0.444   3.257   6.280 -0.5687  0.5134  1.6214
  576MOL0     H77750   0.763   3.389   6.014  1.5032  2.3164  0.6556
  576MOL0     H77751   0.776   3.461   6.174 -0.3425 -0.2758 -0.1663
  576MOL0     H77752   0.851   3.175   6.097 -0.8884  0.0829 -0.3291
  576MOL0     H77753   0.854   3.231   6.268  2.7715 -1.8686 -1.5679
  576MOL0     H77754   1.024   3.374   6.056 -1.1946  2.6394  0.3374
  576MOL0     H77755   1.093   3.243   6.168  2.2437  0.5471 -2.0356
  576MOL0     H77756   1.011   3.391   6.367  0.0784 -1.9616  0.1439
  576MOL0     H77757   0.970   3.515   6.249 -1.3062 -1.1797 -0.2450
  576MOL0     H77758   1.396   3.539   6.246  1.3470 -0.5452  0.4763
  576MOL0     H77759   0.589   3.507   5.961 -0.4623  0.4001 -0.1870
  576MOL0     H77760   0.362   3.556   5.906 -1.3312 -0.6462 -1.0437
  577MOL0     O77761   3.418   4.657   5.792 -0.1446 -0.1356 -0.1283
  577MOL0     C77762   3.473   4.751   5.728 -0.3273  1.0127 -0.2495
  577MOL0     O77763   3.409   4.866   5.699  0.6926 -0.7305 -0.9999
  577MOL0     C77764   3.271   4.872   5.729  0.0465 -0.6357 -0.0473
  577MOL0     C77765   3.181   4.787   5.672 -0.5271 -0.4944 -0.4834
  577MOL0     C77766   3.043   4.824   5.685 -0.6819  0.3950 -0.8578
  577MOL0     C77767   3.010   4.955   5.733 -0.5783 -0.0172  0.6927
  577MOL0     O77768   2.877   4.996   5.712 -0.6080 -0.0020  0.2267
  577MOL0     C77769   2.834   5.109   5.633 -0.0730  0.3033 -0.1531
  577MOL0     C77770   2.678   5.119   5.630 -1.2935  0.1192 -0.6221
  577MOL0     C77771   2.610   4.989   5.574 -0.1309 -0.3774 -0.3364
  577MOL0     C77772   2.462   5.026   5.553  0.0336  0.4092  0.5203
  577MOL0     C77773   2.393   4.966   5.681  0.3204 -0.1047  1.1483
  577MOL0     C77774   2.239   4.944   5.683  0.0445 -0.4012  0.0703
  577MOL0     C77775   2.145   5.046   5.615  0.1352  0.5312  0.6124
  577MOL0     C77776   2.001   4.999   5.619 -0.0285 -0.0148  0.5040
  577MOL0     N77777   1.915   5.114   5.596 -0.4166  0.0532 -0.0500
  577MOL0     C77778   1.787   5.097   5.547 -1.0054  0.1578  0.7059
  577MOL0     C77779   1.721   5.214   5.567  0.6569  0.4195  0.0421
  577MOL0     C77780   1.574   5.221   5.531  0.2385  0.2841  0.3570
  577MOL0     C77781   1.492   5.295   5.630  0.6129 -0.8537 -0.9990
  577MOL0     C77782   1.350   5.324   5.574 -0.4256  0.0056 -0.5859
  577MOL0     C77783   1.248   5.376   5.679 -1.2226  0.3622  0.1494
  577MOL0     O77784   1.128   5.395   5.607 -0.0622  0.2537  0.3458
  577MOL0     C77785   1.019   5.450   5.664  0.6876 -0.3964  0.1308
  577MOL0     C77786   1.011   5.488   5.800  0.8083  0.8654  0.6061
  577MOL0     C77787   0.890   5.556   5.839 -0.2464 -0.0007  0.1049
  577MOL0     C77788   0.886   5.606   5.984 -0.9600 -0.6314 -0.4655
  577MOL0     C77789   0.778   5.581   5.752  0.3085 -0.5940  0.2444
  577MOL0     C77790   0.640   5.643   5.786 -0.0668  0.2976 -0.3842
  577MOL0     O77791   0.539   5.628   5.688  0.0277  0.2969 -0.4642
  577MOL0     C77792   0.403   5.639   5.717  0.2374 -0.5774  0.4810
  577MOL0     C77793   0.341   5.738   5.788  0.0018 -0.8673  0.4455
  577MOL0     C77794   0.204   5.745   5.799  0.4019 -0.1423 -0.3097
  577MOL0     C77795   0.118   5.649   5.740 -0.0690 -0.0150  0.0229
  577MOL0     O77796  -0.018   5.671   5.750  0.2691 -0.0048 -0.6822
  577MOL0     C77797  -0.115   5.591   5.674 -0.2386  0.2882  0.8344
  577MOL0     C77798  -0.255   5.642   5.676  0.1819  0.3838 -0.5536
  577MOL0     C77799  -0.263   5.756   5.576 -0.3266 -0.4512  0.0487
  577MOL0     C77800  -0.393   5.831   5.570 -0.6225  0.2937 -0.3875
  577MOL0     C77801  -0.386   5.961   5.485 -0.4516 -0.5581  0.7141
  577MOL0     C77802  -0.299   6.074   5.542  0.2284 -0.1601 -0.1904
  577MOL0     C77803  -0.304   6.209   5.458 -0.0845 -0.7020  0.5508
  577MOL0     C77804  -0.285   6.335   5.534 -0.1334  0.6042  0.1417
  577MOL0    Cl77805  -0.113   6.344   5.591 -0.3773 -0.0084  0.0102
  577MOL0     C77806   0.180   5.542   5.667 -0.0191 -0.9188  0.0231
  577MOL0     C77807   0.317   5.546   5.655 -0.8000  0.0005  0.0644
  577MOL0     O77808   0.622   5.692   5.895  0.1763  0.0585 -0.4211
  577MOL0     C77809   0.797   5.536   5.620 -0.2528  0.9669 -0.5284
  577MOL0     C77810   0.913   5.475   5.579 -0.4060  0.0875  0.7914
  577MOL0     N77811   1.815   5.307   5.621 -0.7717 -0.3578 -0.1050
  577MOL0     N77812   1.931   5.246   5.636 -0.0373  0.6072  0.3509
  577MOL0     C77813   3.107   5.043   5.775 -0.4479 -0.0307  0.1088
  577MOL0     C77814   3.234   4.999   5.780  0.5083  1.3353  0.0479
  577MOL0     C77815   3.617   4.742   5.691 -0.3112  0.1255 -0.2284
  577MOL0     C77816   3.690   4.620   5.708  1.2260 -0.1376  0.3323
  577MOL0     C77817   3.818   4.601   5.690  0.1877  0.1296  0.6998
  577MOL0     C77818   3.891   4.709   5.641 -0.0316 -0.3067  0.0460
  577MOL0     O77819   4.023   4.682   5.635  0.3275 -0.9190  0.7597
  577MOL0     C77820   4.075   4.716   5.510  0.3360  0.6114  0.4020
  577MOL0     C77821   4.225   4.683   5.515  0.3308 -0.3571  0.9702
  577MOL0     C77822   4.304   4.728   5.390  0.3006  0.2654 -0.2908
  577MOL0     C77823   4.397   4.847   5.435 -0.8266 -0.2714 -0.1397
  577MOL0     C77824   4.497   4.874   5.331 -0.4447  0.3134 -0.1558
  577MOL0     C77825   4.588   4.877   5.244 -0.0980 -0.3256  0.1457
  577MOL0     C77826   3.829   4.835   5.615  0.0665  0.0533  0.3967
  577MOL0     C77827   3.691   4.847   5.635  0.7095  0.0954 -0.7335
  577MOL0     H77828   3.227   4.702   5.622  0.6379 -0.6673  0.8137
  577MOL0     H77829   2.973   4.756   5.638  0.8651 -0.9297 -1.3474
  577MOL0     H77830   2.874   5.199   5.681  0.3851  0.4158 -0.7442
  577MOL0     H77831   2.873   5.120   5.532 -0.1739  2.6798 -0.0007
  577MOL0     H77832   2.639   5.134   5.731 -1.5644  1.6294 -0.9373
  577MOL0     H77833   2.649   5.208   5.574  2.2403  0.6222 -1.8965
  577MOL0     H77834   2.657   4.972   5.476  2.8485 -3.0109  1.3595
  577MOL0     H77835   2.629   4.901   5.636 -3.6078  0.8081  2.7445
  577MOL0     H77836   2.443   5.133   5.541 -2.6580 -0.2990 -2.9535
  577MOL0     H77837   2.407   4.983   5.470 -0.7408  0.2355  1.1117
  577MOL0     H77838   2.436   4.866   5.691  0.1612 -0.7671 -3.1317
  577MOL0     H77839   2.433   5.016   5.770 -1.1460  0.5406  1.4684
  577MOL0     H77840   2.222   4.857   5.619  2.7541  0.7462 -2.4408
  577MOL0     H77841   2.219   4.932   5.790  3.2742  1.2486  1.0044
  577MOL0     H77842   2.155   5.142   5.667  1.7803 -0.3130  1.9409
  577MOL0     H77843   2.173   5.055   5.510 -0.4056  0.7969  0.4863
  577MOL0     H77844   1.982   4.960   5.720  0.2344  1.4392  1.1574
  577MOL0     H77845   1.975   4.931   5.538  0.3017 -1.0674  1.2686
  577MOL0     H77846   1.744   5.005   5.510 -1.7069 -0.0516  1.9605
  577MOL0     H77847   1.579   5.281   5.439 -1.2419  1.2102  0.8513
  577MOL0     H77848   1.532   5.121   5.512 -1.4300  1.1667 -0.8558
  577MOL0     H77849   1.533   5.393   5.657  1.4725 -1.1750 -1.1083
  577MOL0     H77850   1.480   5.232   5.718 -0.4310  0.1346 -0.4149
  577MOL0     H77851   1.313   5.227   5.539  1.1202 -0.1518 -1.8792
  577MOL0     H77852   1.342   5.391   5.488 -0.5518 -2.7231 -2.8700
  577MOL0     H77853   1.297   5.463   5.725 -2.6497  2.1806 -1.5623
  577MOL0     H77854   1.224   5.310   5.763 -5.0116 -0.2444 -1.1764
  577MOL0     H77855   1.082   5.467   5.880  1.6115 -2.3509 -0.7863
  577MOL0     H77856   0.981   5.591   6.036 -0.1107 -1.1431 -2.1065
  577MOL0     H77857   0.852   5.709   5.999  1.6874  0.1310  0.7548
  577MOL0     H77858   0.809   5.550   6.039  0.1619 -1.6350  0.1327
  577MOL0     H77859   0.396   5.814   5.843  2.9917 -3.0904  0.7368
  577MOL0     H77860   0.173   5.828   5.862  0.5176 -1.0835  1.0450
  577MOL0     H77861  -0.087   5.587   5.568  0.6644 -1.0340  1.0971
  577MOL0     H77862  -0.121   5.486   5.704 -0.4449 -0.2519 -0.9670
  577MOL0     H77863  -0.328   5.566   5.645  1.5042  0.2581 -3.7549
  577MOL0     H77864  -0.279   5.681   5.776 -0.7364  1.6267 -1.2214
  577MOL0     H77865  -0.254   5.713   5.476 -3.0894  0.2328 -0.5638
  577MOL0     H77866  -0.178   5.821   5.601 -1.1794  0.8103 -0.2385
  577MOL0     H77867  -0.469   5.766   5.525  0.9084 -1.7059 -0.1951
  577MOL0     H77868  -0.424   5.859   5.671  1.0461 -2.6650  1.0666
  577MOL0     H77869  -0.485   5.998   5.454 -0.3930 -0.7199  0.3310
  577MOL0     H77870  -0.350   5.918   5.391  0.0956 -0.6550  0.9672
  577MOL0     H77871  -0.348   6.097   5.637  1.8014 -0.1299  0.6561
  577MOL0     H77872  -0.193   6.051   5.556 -0.1020 -0.9976  1.1489
  577MOL0     H77873  -0.409   6.212   5.427 -0.2653  0.6998  1.1932
  577MOL0     H77874  -0.243   6.202   5.368 -0.2978 -1.2682  0.4457
  577MOL0     H77875  -0.350   6.338   5.622 -1.8709 -0.9154 -1.0124
  577MOL0     H77876  -0.308   6.424   5.474  0.0385  0.4380 -0.1789
  577MOL0     H77877   0.110   5.464   5.637 -0.5588 -1.4372  2.4141
  577MOL0     H77878   0.351   5.454   5.608 -0.0156  0.5622 -0.4918
  577MOL0     H77879   0.718   5.553   5.548 -0.0404 -0.9963 -1.2809
  577MOL0     H77880   0.943   5.437   5.481 -1.2436 -1.7250  1.1970
  577MOL0     H77881   3.083   5.144   5.806  0.0445 -0.2643  1.3276
  577MOL0     H77882   3.305   5.070   5.821 -1.9239  4.0560 -0.1025
  577MOL0     H77883   3.636   4.533   5.745  0.1365  0.1855 -0.4578
  577MOL0     H77884   3.856   4.501   5.710  0.2256 -0.0478 -0.2046
  577MOL0     H77885   4.031   4.658   5.429 -0.3141 -1.1979  1.9953
  577MOL0     H77886   4.073   4.825   5.494 -0.4323  0.7169  1.1485
  577MOL0     H77887   4.235   4.574   5.511  2.8714 -0.1816  0.5841
  577MOL0     H77888   4.271   4.714   5.609  1.5190 -2.2362  1.0736
  577MOL0     H77889   4.247   4.747   5.299  0.6834  0.4405 -0.4978
  577MOL0     H77890   4.362   4.637   5.376 -0.7411 -1.4522  4.6172
  577MOL0     H77891   4.461   4.818   5.519 -0.6310 -0.6214 -0.4044
  577MOL0     H77892   4.336   4.933   5.462 -2.3956  0.0086 -3.9742
  577MOL0     H77893   4.675   4.892   5.184  1.2409 -1.8129  1.6129
  577MOL0     H77894   3.876   4.926   5.580  1.9004 -1.0698 -0.1680
  577MOL0     H77895   3.639   4.938   5.605 -1.1150  0.0604  1.9924
  578MOL0     O77896   0.719   0.028   7.040 -0.1000  0.3491 -0.8718
  578MOL0     C77897   0.795   0.103   7.108 -0.4656  0.3108  0.7951
  578MOL0     O77898   0.761   0.228   7.138  0.3753 -0.3689  0.4556
  578MOL0     C77899   0.629   0.260   7.115  0.1592 -0.3611 -0.3472
  578MOL0     C77900   0.605   0.356   7.017  1.0657 -0.9305 -0.5486
  578MOL0     C77901   0.474   0.401   7.003 -0.3071 -0.5464  0.3078
  578MOL0     C77902   0.368   0.338   7.063 -0.3573 -0.9043  0.1428
  578MOL0     O77903   0.237   0.375   7.045 -0.1710  0.5802 -0.8857
  578MOL0     C77904   0.207   0.498   6.997 -0.3339 -0.3399  0.5881
  578MOL0     C77905   0.053   0.508   6.985  0.3988 -0.7363  0.4618
  578MOL0     C77906  -0.029   0.529   7.110  0.5797  0.5115 -0.3646
  578MOL0     C77907  -0.166   0.588   7.083 -0.3634 -0.9449  0.4087
  578MOL0     C77908  -0.274   0.484   7.046 -0.1665 -0.7069 -0.7909
  578MOL0     C77909  -0.409   0.549   7.021 -0.2834 -0.8578 -0.4845
  578MOL0     C77910  -0.517   0.448   6.981 -0.1874 -0.0279 -0.2708
  578MOL0     C77911  -0.579   0.390   7.110  0.3533  0.6142 -0.3130
  578MOL0     N77912  -0.711   0.324   7.076 -0.0117 -0.1432  0.7369
  578MOL0     C77913  -0.834   0.384   7.078  0.3385 -0.0770 -0.2056
  578MOL0     C77914  -0.917   0.285   7.054 -0.3856 -0.2101  0.1484
  578MOL0     C77915  -1.074   0.299   7.045 -0.1832  0.2795  0.6266
  578MOL0     C77916  -1.132   0.182   6.965  0.0127 -0.4341 -0.7437
  578MOL0     C77917  -1.289   0.197   6.957  0.2113 -0.0999  0.1415
  578MOL0     C77918  -1.363   0.142   7.086  0.4794  0.3926  0.6599
  578MOL0     O77919  -1.497   0.193   7.084 -0.2001  0.0380  0.0188
  578MOL0     C77920  -1.587   0.137   7.175  0.1515  0.2778  0.5815
  578MOL0     C77921  -1.553   0.058   7.284 -0.1177  0.0438  0.4740
  578MOL0     C77922  -1.648   0.010   7.378  0.9670 -0.1123 -0.7464
  578MOL0     C77923  -1.594  -0.068   7.498 -1.3220 -0.4124 -0.7151
  578MOL0     C77924  -1.786   0.039   7.355  0.4320  0.0719 -0.9110
  578MOL0     C77925  -1.902  -0.000   7.446 -0.4802 -0.4442 -0.0625
  578MOL0     O77926  -2.009   0.079   7.439 -0.7240 -1.4004  0.0717
  578MOL0     C77927  -2.124   0.052   7.503 -0.2415 -0.1022 -0.1410
  578MOL0     C77928  -2.203   0.156   7.560 -0.0639  0.8809  0.0475
  578MOL0     C77929  -2.330   0.137   7.614  0.3472 -0.4602 -0.3656
  578MOL0     C77930  -2.379   0.004   7.617  0.3287  0.2166 -0.4027
  578MOL0     O77931  -2.506  -0.018   7.668  0.5167 -0.1469 -0.2078
  578MOL0     C77932  -2.561  -0.152   7.701 -0.5401  0.2131 -0.6989
  578MOL0     C77933  -2.717  -0.152   7.722 -0.2982 -0.4330 -0.2810
  578MOL0     C77934  -2.789  -0.107   7.591 -0.0305 -0.2721  0.9846
  578MOL0     C77935  -2.932  -0.055   7.614  0.8128  0.3851 -0.2898
  578MOL0     C77936  -3.039  -0.167   7.622 -0.2959  0.0030 -0.5512
  578MOL0     C77937  -3.173  -0.102   7.648  0.2014  0.3781  0.8049
  578MOL0     C77938  -3.284  -0.181   7.577 -0.3922 -0.5998  0.3239
  578MOL0     C77939  -3.414  -0.161   7.652  0.6062  0.0796  0.8144
  578MOL0    Cl77940  -3.445   0.014   7.664 -0.1694  0.5767  0.0396
  578MOL0     C77941  -2.307  -0.094   7.556 -0.5931  0.7240  0.7359
  578MOL0     C77942  -2.187  -0.067   7.495  0.4557 -0.0982  0.0858
  578MOL0     O77943  -1.899  -0.109   7.508  0.2310 -0.1326 -0.1979
  578MOL0     C77944  -1.827   0.133   7.255 -0.7625  0.5827 -0.4818
  578MOL0     C77945  -1.723   0.176   7.160  0.5646 -0.3869  0.6961
  578MOL0     N77946  -0.854   0.162   7.039  0.8277 -0.3450  0.1634
  578MOL0     N77947  -0.730   0.193   7.052 -0.2555  0.7010 -1.4596
  578MOL0     C77948   0.393   0.245   7.169  0.1761  0.5310 -0.2436
  578MOL0     C77949   0.527   0.212   7.199  0.4709  0.2451  0.2485
  578MOL0     C77950   0.930   0.054   7.156  0.9275 -0.0042  0.3070
  578MOL0     C77951   1.011   0.146   7.222 -0.5350  0.9153 -0.3859
  578MOL0     C77952   1.140   0.107   7.263  0.1386 -0.2259 -0.3430
  578MOL0     C77953   1.196  -0.015   7.237 -0.1146 -0.2195  0.5383
  578MOL0     O77954   1.333  -0.049   7.243  0.0905  0.1342 -0.4742
  578MOL0     C77955   1.400  -0.002   7.363  0.1216 -0.4070  0.2080
  578MOL0     C77956   1.542  -0.058   7.356 -0.5078 -0.5960 -0.3077
  578MOL0     C77957   1.634  -0.029   7.485  0.2162 -0.0327  0.1377
  578MOL0     C77958   1.780  -0.065   7.480 -0.3627 -0.3863 -1.4798
  578MOL0     C77959   1.842   0.011   7.591 -0.6432  0.5940  0.3725
  578MOL0     C77960   1.889   0.077   7.682 -0.5443  0.6749  0.3367
  578MOL0     C77961   1.113  -0.108   7.174  0.9085  0.4604 -0.3243
  578MOL0     C77962   0.976  -0.076   7.144 -0.7911  0.4326  0.0719
  578MOL0     H77963   0.688   0.399   6.962  1.4584 -1.2999 -0.2452
  578MOL0     H77964   0.454   0.499   6.960 -0.2773 -0.1778  1.1111
  578MOL0     H77965   0.235   0.583   7.061  0.4353  0.5513 -0.8729
  578MOL0     H77966   0.255   0.510   6.900 -1.8801  5.9358  0.1718
  578MOL0     H77967   0.032   0.591   6.917 -0.3446  0.6291  2.2519
  578MOL0     H77968   0.013   0.411   6.956  0.0858 -0.9923  1.6802
  578MOL0     H77969  -0.037   0.431   7.158  1.9794  1.4378  1.8952
  578MOL0     H77970   0.024   0.596   7.177 -2.2738 -1.8033  4.8258
  578MOL0     H77971  -0.201   0.646   7.169 -0.3074  1.3799 -1.0561
  578MOL0     H77972  -0.163   0.669   7.009  0.6673  0.4119  1.8623
  578MOL0     H77973  -0.231   0.447   6.953  2.4307 -2.5229  0.9797
  578MOL0     H77974  -0.282   0.402   7.118  1.7263  0.0189  0.3344
  578MOL0     H77975  -0.439   0.603   7.111  2.5513 -0.1118  0.1094
  578MOL0     H77976  -0.411   0.624   6.941 -0.3237 -1.0572 -0.6724
  578MOL0     H77977  -0.597   0.503   6.931  0.0920  2.6825  1.9828
  578MOL0     H77978  -0.486   0.376   6.905 -1.4526  1.1323 -1.9606
  578MOL0     H77979  -0.605   0.475   7.173 -1.0624  0.9254 -1.2689
  578MOL0     H77980  -0.513   0.317   7.157 -0.2780  0.2043 -0.0369
  578MOL0     H77981  -0.859   0.489   7.090 -0.0608 -0.1603 -0.2992
  578MOL0     H77982  -1.111   0.311   7.147 -0.7187  0.8395  0.3698
  578MOL0     H77983  -1.090   0.393   6.990 -0.6643  0.4465  1.0498
  578MOL0     H77984  -1.106   0.085   7.006  2.2929  0.4179 -0.0686
  578MOL0     H77985  -1.083   0.180   6.867  1.2417 -2.4481 -0.1507
  578MOL0     H77986  -1.331   0.140   6.873 -0.4006 -1.4627  1.3264
  578MOL0     H77987  -1.314   0.302   6.944 -3.7220 -0.6172  1.9938
  578MOL0     H77988  -1.313   0.174   7.178 -2.0203  0.0864  2.2098
  578MOL0     H77989  -1.367   0.032   7.089 -1.2938  0.3628 -0.9371
  578MOL0     H77990  -1.450   0.032   7.307 -0.5761 -1.5415  0.8823
  578MOL0     H77991  -1.609  -0.008   7.588  0.7681  1.3850 -1.4757
  578MOL0     H77992  -1.637  -0.169   7.499  0.9995 -1.4954  1.4674
  578MOL0     H77993  -1.486  -0.084   7.491 -1.2619  0.1161 -1.0264
  578MOL0     H77994  -2.169   0.260   7.558  1.7792  0.3464 -2.8039
  578MOL0     H77995  -2.406   0.210   7.638  1.6830  0.4929  1.1218
  578MOL0     H77996  -2.552  -0.222   7.618  0.1936  0.3016 -0.6989
  578MOL0     H77997  -2.512  -0.191   7.791  0.4892 -0.2832 -1.4651
  578MOL0     H77998  -2.750  -0.254   7.743  0.8066 -0.8704 -0.6146
  578MOL0     H77999  -2.730  -0.079   7.802  1.1821  0.6669 -1.0128
  578MOL0     H78000  -2.789  -0.188   7.518 -1.2651  0.8304 -0.3056
  578MOL0     H78001  -2.731  -0.022   7.554  0.2639 -0.8464  0.0946
  578MOL0     H78002  -2.926   0.001   7.708 -0.1443  2.8487 -1.5922
  578MOL0     H78003  -2.964   0.024   7.544  0.0836  0.9646  0.6660
  578MOL0     H78004  -3.014  -0.221   7.713 -2.0533 -0.2526 -0.1901
  578MOL0     H78005  -3.048  -0.239   7.540  0.1778  0.0076 -0.6132
  578MOL0     H78006  -3.201  -0.099   7.753 -2.6939 -2.5972  0.2828
  578MOL0     H78007  -3.179   0.002   7.615 -0.4297  0.2837  0.6223
  578MOL0     H78008  -3.257  -0.285   7.558 -0.8239 -0.6510 -0.0258
  578MOL0     H78009  -3.297  -0.133   7.479 -1.6704  1.3132  1.3720
  578MOL0     H78010  -3.407  -0.196   7.755 -2.3564 -2.8596  0.2065
  578MOL0     H78011  -3.492  -0.224   7.608  0.2536 -0.5754  2.3227
  578MOL0     H78012  -2.345  -0.195   7.541  4.3395 -1.4003  0.7635
  578MOL0     H78013  -2.140  -0.156   7.456  0.5988 -1.0749  2.3500
  578MOL0     H78014  -1.929   0.162   7.233 -0.7119 -0.1672 -1.8530
  578MOL0     H78015  -1.736   0.241   7.074  2.8612  2.1299  2.1066
  578MOL0     H78016   0.309   0.206   7.226  0.7093 -0.5917 -0.1906
  578MOL0     H78017   0.557   0.150   7.282  1.1055 -0.3132 -0.3781
  578MOL0     H78018   0.981   0.249   7.240  2.7112  2.0437 -0.6897
  578MOL0     H78019   1.195   0.188   7.309  0.8222 -1.0798  0.3912
  578MOL0     H78020   1.396   0.107   7.357 -2.9499 -0.4911 -1.1048
  578MOL0     H78021   1.347  -0.026   7.456  0.4681 -1.6561  0.1108
  578MOL0     H78022   1.588  -0.008   7.271 -2.3278 -1.6391 -2.0024
  578MOL0     H78023   1.535  -0.168   7.356  2.6256 -0.9268  1.6727
  578MOL0     H78024   1.589  -0.094   7.561  0.3873 -1.8532 -1.2481
  578MOL0     H78025   1.622   0.072   7.524 -0.4036 -0.6343  1.5862
  578MOL0     H78026   1.829  -0.038   7.385  1.4611 -1.1200 -0.7771
  578MOL0     H78027   1.797  -0.170   7.504 -0.1452  0.1702  1.0326
  578MOL0     H78028   1.931   0.142   7.757  1.8913 -0.8601  0.4069
  578MOL0     H78029   1.149  -0.207   7.147  0.9945 -0.4828  2.8612
  578MOL0     H78030   0.906  -0.140   7.092  0.9600  1.4972 -4.0394
  579MOL0     O78031   3.409   9.953   6.720 -0.6066  0.0268 -0.2143
  579MOL0     C78032   3.398   9.971   6.844  0.1832  0.2021  0.1352
  579MOL0     O78033   3.275  10.002   6.903 -0.6769 -0.2902 -0.0853
  579MOL0     C78034   3.171  10.034   6.820 -0.1793  0.5600 -0.1609
  579MOL0     C78035   3.181  10.132   6.723  0.1613 -0.5603  0.0694
  579MOL0     C78036   3.076  10.166   6.641  0.4096  0.2895 -0.2872
  579MOL0     C78037   2.952  10.093   6.663  0.2821 -0.7078  0.6509
  579MOL0     O78038   2.840  10.118   6.590  0.3473  0.4252 -0.5104
  579MOL0     C78039   2.826  10.246   6.521 -0.8588  0.8988 -0.4515
  579MOL0     C78040   2.683  10.258   6.469  0.4573  0.1225  0.0558
  579MOL0     C78041   2.677  10.320   6.331  0.2100  0.5844  0.1676
  579MOL0     C78042   2.545  10.311   6.264  0.5745  0.1193  0.4705
  579MOL0     C78043   2.535  10.384   6.140 -0.7557 -0.7105  0.5237
  579MOL0     C78044   2.413  10.339   6.060 -0.7859  0.3476 -0.6050
  579MOL0     C78045   2.428  10.424   5.937 -0.2471 -0.0364  0.5314
  579MOL0     C78046   2.309  10.427   5.837 -0.8758  0.2232  0.1576
  579MOL0     N78047   2.304  10.322   5.746  0.0480  0.0740 -0.0798
  579MOL0     C78048   2.319  10.338   5.605  0.3704  1.1725 -0.5723
  579MOL0     C78049   2.252  10.237   5.554  0.5461 -0.2354  0.1800
  579MOL0     C78050   2.202  10.221   5.413 -0.5561  0.0553  0.7428
  579MOL0     C78051   2.131  10.341   5.353  0.5465 -0.6325 -0.3311
  579MOL0     C78052   2.005  10.383   5.438 -0.3913  0.0665  0.0324
  579MOL0     C78053   1.949  10.515   5.394 -0.0092 -1.1735  0.1959
  579MOL0     O78054   1.831  10.547   5.466  0.3195 -0.0150  0.1203
  579MOL0     C78055   1.744  10.638   5.416  0.3634  0.2591 -0.3046
  579MOL0     C78056   1.765  10.729   5.313 -0.1468  1.2597 -0.1212
  579MOL0     C78057   1.667  10.811   5.271  0.2775 -0.1330  0.7781
  579MOL0     C78058   1.699  10.918   5.166  0.3280 -0.5063  0.1635
  579MOL0     C78059   1.540  10.811   5.330 -0.9189 -0.1144  0.6045
  579MOL0     C78060   1.426  10.895   5.287  0.1656 -0.0738 -0.4636
  579MOL0     O78061   1.297  10.847   5.292 -0.0100  0.3292 -0.0035
  579MOL0     C78062   1.198  10.933   5.257 -0.5558  0.6517  0.3983
  579MOL0     C78063   1.099  10.969   5.339 -0.2855 -0.5647 -0.7071
  579MOL0     C78064   0.994  11.059   5.300 -0.4138  0.8355  0.6001
  579MOL0     C78065   0.999  11.102   5.165 -0.1006 -0.3315  0.5023
  579MOL0     O78066   0.891  11.184   5.130 -0.2676  0.3067  0.3335
  579MOL0     C78067   0.794  11.118   5.049  0.2001 -0.2860  1.1876
  579MOL0     C78068   0.740  10.980   5.096 -0.0638 -0.5808 -0.1350
  579MOL0     C78069   0.667  10.988   5.236  0.1701 -0.2547  0.4947
  579MOL0     C78070   0.527  10.923   5.235 -1.1273 -0.1905 -0.4217
  579MOL0     C78071   0.470  10.898   5.368 -0.1365 -1.2639 -0.0838
  579MOL0     C78072   0.329  10.849   5.374  0.2325 -0.2371 -0.1414
  579MOL0     C78073   0.270  10.785   5.497 -0.2056  0.3168 -0.1260
  579MOL0     C78074   0.286  10.856   5.626  0.8057  0.3952 -0.1693
  579MOL0    Cl78075   0.221  10.768   5.753 -0.3729 -0.3245  0.1077
  579MOL0     C78076   1.095  11.062   5.081 -0.3655  1.2397 -0.6134
  579MOL0     C78077   1.197  10.977   5.118 -0.1654  0.4832  0.4015
  579MOL0     O78078   1.459  11.007   5.292 -0.1765 -0.4511  0.1531
  579MOL0     C78079   1.521  10.720   5.436  0.3278  0.3807 -0.2039
  579MOL0     C78080   1.617  10.627   5.473  0.4359 -1.1542 -0.0618
  579MOL0     N78081   2.216  10.146   5.653 -0.7869  0.2562 -0.2553
  579MOL0     N78082   2.235  10.202   5.769 -0.2367 -0.6689  0.7912
  579MOL0     C78083   2.935   9.995   6.763  0.0977 -0.0184  0.8318
  579MOL0     C78084   3.046   9.972   6.847  1.0514 -1.0471 -0.2797
  579MOL0     C78085   3.516   9.984   6.930  0.6457 -0.6636 -0.2576
  579MOL0     C78086   3.502  10.031   7.065 -0.2684 -0.0582  0.7373
  579MOL0     C78087   3.611  10.039   7.152  0.0525 -0.1865  0.2180
  579MOL0     C78088   3.732   9.982   7.111  0.2522 -1.3875  0.0576
  579MOL0     O78089   3.837   9.991   7.204  0.7669 -0.0635 -0.1051
  579MOL0     C78090   3.958   9.918   7.195 -0.8039  0.2082 -0.5602
  579MOL0     C78091   4.056   9.999   7.114  0.1126 -0.9566  0.9445
  579MOL0     C78092   4.128  10.117   7.199  0.1608  0.4374  0.6774
  579MOL0     C78093   4.164  10.237   7.104 -0.2805  0.3757  0.0273
  579MOL0     C78094   4.255  10.211   6.997 -0.7552  0.1447  0.2229
  579MOL0     C78095   4.335  10.189   6.902  0.5457  0.1818 -0.6169
  579MOL0     C78096   3.748   9.943   6.978  0.3554 -1.0860 -0.1098
  579MOL0     C78097   3.642   9.948   6.890 -0.2774  0.0128  0.6288
  579MOL0     H78098   3.274  10.186   6.709 -1.8109  3.9425  2.1613
  579MOL0     H78099   3.096  10.236   6.560  4.8281 -0.0067  0.3266
  579MOL0     H78100   2.834  10.315   6.606 -0.0640 -2.2605  2.2602
  579MOL0     H78101   2.902  10.272   6.447  0.3595 -0.1592  0.3815
  579MOL0     H78102   2.632  10.161   6.470 -1.5294  1.1334  0.7241
  579MOL0     H78103   2.631  10.313   6.549  2.4932  0.0784  1.4889
  579MOL0     H78104   2.697  10.427   6.345  3.0346  0.0028  1.3321
  579MOL0     H78105   2.752  10.268   6.271  0.6182  0.0720  1.0934
  579MOL0     H78106   2.532  10.206   6.239 -2.2248  0.8002 -1.4226
  579MOL0     H78107   2.463  10.342   6.330 -0.2158  2.6724 -1.5101
  579MOL0     H78108   2.524  10.490   6.163 -2.2246 -0.0250 -2.7787
  579MOL0     H78109   2.626  10.366   6.081 -0.6383 -0.4783  0.6332
  579MOL0     H78110   2.430  10.233   6.035  0.8003  0.0803  1.3518
  579MOL0     H78111   2.322  10.356   6.119 -0.6407  2.4530 -0.9306
  579MOL0     H78112   2.439  10.529   5.965  0.4624  0.7756 -2.4628
  579MOL0     H78113   2.516  10.404   5.874  0.1225  0.5523  0.8553
  579MOL0     H78114   2.318  10.521   5.781 -2.1525  0.0936 -0.3017
  579MOL0     H78115   2.218  10.437   5.897 -0.7743  0.0198  0.3472
  579MOL0     H78116   2.362  10.418   5.544  2.7834 -0.2634 -0.9123
  579MOL0     H78117   2.292  10.201   5.354 -0.4789 -0.0628  0.9009
  579MOL0     H78118   2.143  10.129   5.399 -0.6695  0.2070  0.1801
  579MOL0     H78119   2.093  10.327   5.251 -0.7324  1.8243 -0.2786
  579MOL0     H78120   2.200  10.426   5.351 -0.8445  0.5718  0.6196
  579MOL0     H78121   2.023  10.397   5.545  0.9214  1.7181 -0.3653
  579MOL0     H78122   1.933  10.301   5.432 -3.1468  2.4302 -2.0593
  579MOL0     H78123   1.938  10.523   5.286  0.1803 -0.0686  0.2366
  579MOL0     H78124   2.021  10.595   5.417 -1.3318 -0.0577  0.5804
  579MOL0     H78125   1.869  10.742   5.284  0.3100 -0.8728  0.3687
  579MOL0     H78126   1.725  11.006   5.226 -0.5796 -1.3546  1.8743
  579MOL0     H78127   1.776  10.892   5.093 -0.9665 -1.4851 -0.9027
  579MOL0     H78128   1.608  10.933   5.107  0.6287 -0.7982 -0.3837
  579MOL0     H78129   1.105  10.941   5.444 -1.8481  2.6684  0.3596
  579MOL0     H78130   0.929  11.104   5.374 -1.7210 -0.3504  0.2228
  579MOL0     H78131   0.714  11.192   5.041  0.6098  0.1976  1.4760
  579MOL0     H78132   0.842  11.092   4.954 -0.4995 -2.2557  1.3434
  579MOL0     H78133   0.670  10.953   5.016 -0.2406  1.0075 -0.5580
  579MOL0     H78134   0.826  10.911   5.093  0.1183 -0.3304 -1.1710
  579MOL0     H78135   0.656  11.090   5.274  2.5359  1.2411 -2.4786
  579MOL0     H78136   0.726  10.929   5.307 -0.0768 -1.9554 -0.6531
  579MOL0     H78137   0.461  10.995   5.185 -0.5798 -0.2279 -1.2062
  579MOL0     H78138   0.530  10.826   5.186  1.6350 -2.2979  3.3634
  579MOL0     H78139   0.486  10.992   5.421 -0.9539 -0.7788 -0.6827
  579MOL0     H78140   0.536  10.827   5.419  2.6768  1.7679  0.7854
  579MOL0     H78141   0.268  10.939   5.360  1.0384  0.0680 -2.0391
  579MOL0     H78142   0.308  10.787   5.286 -0.8811  0.5249 -0.4320
  579MOL0     H78143   0.311  10.684   5.503  0.5959  0.6997  1.0764
  579MOL0     H78144   0.163  10.775   5.475  0.1001  0.7973 -2.0435
  579MOL0     H78145   0.246  10.957   5.614  1.5881  0.6402 -0.7702
  579MOL0     H78146   0.394  10.857   5.645  0.2256  0.7284  3.9631
  579MOL0     H78147   1.086  11.091   4.977  1.0320  0.5211 -0.9648
  579MOL0     H78148   1.268  10.940   5.044  0.0203  1.2220  0.2079
  579MOL0     H78149   1.429  10.716   5.493  0.3146  1.7846 -0.0869
  579MOL0     H78150   1.595  10.555   5.551 -0.5228 -0.5970  0.2029
  579MOL0     H78151   2.838   9.949   6.774 -2.0054  3.7123 -0.5321
  579MOL0     H78152   3.039   9.901   6.928 -0.3399 -2.5521 -1.6396
  579MOL0     H78153   3.405  10.068   7.098  0.2104 -0.3670  2.6109
  579MOL0     H78154   3.592  10.076   7.252  2.8622  0.8946  0.4208
  579MOL0     H78155   4.004   9.897   7.292 -1.5803  1.7674  0.1880
  579MOL0     H78156   3.945   9.830   7.132  1.0260 -0.5437  0.0428
  579MOL0     H78157   4.004  10.046   7.031  1.5968 -0.9833 -0.0466
  579MOL0     H78158   4.130   9.927   7.078 -0.2221 -1.7003  1.7201
  579MOL0     H78159   4.224  10.086   7.240  0.1187 -2.1067 -0.9098
  579MOL0     H78160   4.061  10.148   7.279 -2.5814 -1.9185 -0.5145
  579MOL0     H78161   4.207  10.311   7.172  1.5224 -1.6852  1.2063
  579MOL0     H78162   4.065  10.273   7.071 -1.0761 -1.0373  0.7823
  579MOL0     H78163   4.414  10.162   6.835  1.3553  0.7194  0.1030
  579MOL0     H78164   3.848   9.912   6.951  1.0446 -1.4197  2.4886
  579MOL0     H78165   3.653   9.913   6.787 -0.7036  0.5437  0.3988
  580MOL0     O78166   7.840  11.321   2.791  0.3922 -0.8883  0.0771
  580MOL0     C78167   7.890  11.244   2.712 -0.0089  0.5201  0.2694
  580MOL0     O78168   7.897  11.267   2.578 -0.4755  0.2694  0.3232
  580MOL0     C78169   7.787  11.295   2.502  0.0118 -0.5319  0.0205
  580MOL0     C78170   7.796  11.315   2.363  0.0441 -0.1652 -0.9967
  580MOL0     C78171   7.693  11.343   2.280  0.5585 -0.4216 -0.4504
  580MOL0     C78172   7.562  11.336   2.341 -0.0177 -0.3885 -0.8141
  580MOL0     O78173   7.446  11.380   2.277 -0.1292  0.3450  0.5676
  580MOL0     C78174   7.446  11.388   2.132  0.3329 -0.5558  0.4942
  580MOL0     C78175   7.299  11.422   2.087  0.4982  1.0625  0.7371
  580MOL0     C78176   7.297  11.423   1.934  0.5869 -0.6345 -0.1464
  580MOL0     C78177   7.240  11.296   1.886 -0.4538 -0.7124 -0.8285
  580MOL0     C78178   7.084  11.287   1.900 -0.2467 -0.1281 -0.0567
  580MOL0     C78179   7.040  11.145   1.876 -0.6572 -0.4620 -0.5327
  580MOL0     C78180   6.886  11.120   1.885 -1.1445 -0.0005 -0.0100
  580MOL0     C78181   6.861  10.978   1.907 -0.3338 -0.3635 -0.0215
  580MOL0     N78182   6.716  10.945   1.895 -0.3892  0.1998 -0.5318
  580MOL0     C78183   6.612  10.959   1.978 -0.0551  0.8021 -0.2218
  580MOL0     C78184   6.505  10.884   1.921  0.9644 -0.0389 -0.1850
  580MOL0     C78185   6.357  10.883   1.985  0.6304 -1.1598  0.0792
  580MOL0     C78186   6.274  10.998   1.912 -0.2970 -0.4127 -0.5509
  580MOL0     C78187   6.246  10.955   1.764 -0.0675 -0.8099  0.0186
  580MOL0     C78188   6.100  10.969   1.720  0.1367 -0.4217 -0.9534
  580MOL0     O78189   6.040  11.103   1.746  0.6533  0.0415 -0.0140
  580MOL0     C78190   5.947  11.151   1.656  0.0384  0.7377 -1.1292
  580MOL0     C78191   5.854  11.064   1.600  0.2249  0.6852  0.5516
  580MOL0     C78192   5.749  11.104   1.513  0.1287 -0.7979 -0.8160
  580MOL0     C78193   5.672  10.993   1.453 -0.1760 -0.2816  0.2364
  580MOL0     C78194   5.732  11.249   1.492 -0.6555  1.2453 -0.8372
  580MOL0     C78195   5.622  11.310   1.421  0.1395  0.9372 -0.1038
  580MOL0     O78196   5.646  11.430   1.367 -0.1354 -0.3493  0.1241
  580MOL0     C78197   5.556  11.500   1.295  0.5826  0.2673 -0.2997
  580MOL0     C78198   5.515  11.428   1.183 -0.1112 -0.0065  1.8122
  580MOL0     C78199   5.418  11.481   1.098  0.9355  0.8980  0.5407
  580MOL0     C78200   5.337  11.591   1.141  0.2664  0.0613 -0.3632
  580MOL0     O78201   5.235  11.630   1.061  0.1674  0.1481 -0.2896
  580MOL0     C78202   5.134  11.710   1.129  0.6672 -0.0027 -0.0830
  580MOL0     C78203   5.006  11.697   1.045 -0.0758  0.9356  0.7078
  580MOL0     C78204   4.903  11.799   1.091  0.3102  0.5354  1.3187
  580MOL0     C78205   4.843  11.763   1.224 -0.4719  0.4363  0.8315
  580MOL0     C78206   4.713  11.833   1.241 -0.0464 -0.1678  0.0404
  580MOL0     C78207   4.602  11.750   1.294  0.4893 -0.3201 -0.2778
  580MOL0     C78208   4.472  11.826   1.327 -0.2534  0.3811 -0.7201
  580MOL0     C78209   4.352  11.723   1.340 -0.0426 -0.4006  0.5438
  580MOL0    Cl78210   4.194  11.808   1.308 -0.4547  0.1507  0.2679
  580MOL0     C78211   5.379  11.665   1.257  1.4214 -0.1156 -0.0018
  580MOL0     C78212   5.495  11.621   1.330  0.4691  0.6629 -0.1768
  580MOL0     O78213   5.511  11.265   1.426 -0.1081  0.4670 -0.6629
  580MOL0     C78214   5.825  11.330   1.556  0.0141 -0.4774 -0.0327
  580MOL0     C78215   5.930  11.285   1.635 -0.3366 -0.4182 -0.1439
  580MOL0     N78216   6.552  10.828   1.799  0.1788  0.0241 -0.5953
  580MOL0     N78217   6.674  10.874   1.779 -0.1345  0.8743 -0.3985
  580MOL0     C78218   7.546  11.305   2.475  0.6803 -0.4314 -0.1406
  580MOL0     C78219   7.653  11.284   2.554 -0.3035  0.1307  0.9636
  580MOL0     C78220   7.982  11.143   2.772  0.0587 -0.4775  0.7679
  580MOL0     C78221   8.073  11.074   2.694  0.1220  0.4798  0.5716
  580MOL0     C78222   8.166  10.990   2.760 -0.3234  0.6496 -0.2380
  580MOL0     C78223   8.163  10.957   2.901 -0.4931 -0.8682  0.3030
  580MOL0     O78224   8.235  10.861   2.957 -0.5059 -0.3220  0.0052
  580MOL0     C78225   8.367  10.833   2.913 -0.3055 -0.3749 -0.3097
  580MOL0     C78226   8.442  10.765   3.018  0.2011 -0.4187 -0.5541
  580MOL0     C78227   8.586  10.732   2.984  1.2040 -0.4680 -0.2780
  580MOL0     C78228   8.629  10.689   2.839  0.3828 -1.0156  0.2586
  580MOL0     C78229   8.732  10.596   2.856 -0.0454  0.0735  0.1807
  580MOL0     C78230   8.814  10.509   2.857 -0.2431 -0.0199 -1.1414
  580MOL0     C78231   8.063  11.020   2.968 -0.6384 -0.5021 -0.6549
  580MOL0     C78232   7.983  11.114   2.910  0.4050 -0.0804 -0.2333
  580MOL0     H78233   7.897  11.308   2.325  1.0650 -0.4502  1.5849
  580MOL0     H78234   7.711  11.377   2.179  0.4680  2.5051  0.4171
  580MOL0     H78235   7.508  11.469   2.095 -2.4912  0.6405 -2.0547
  580MOL0     H78236   7.466  11.291   2.086 -1.0772 -0.6932  0.1201
  580MOL0     H78237   7.223  11.352   2.122 -1.9653  2.1137 -2.0811
  580MOL0     H78238   7.264  11.512   2.141  0.6056  0.7927  1.2670
  580MOL0     H78239   7.235  11.506   1.901 -0.2841 -1.0382  0.4178
  580MOL0     H78240   7.394  11.432   1.885  2.1495 -2.7927  2.2757
  580MOL0     H78241   7.257  11.279   1.779 -1.6331 -3.0021 -0.7059
  580MOL0     H78242   7.303  11.214   1.921  1.8542  0.6213 -1.6004
  580MOL0     H78243   7.050  11.334   1.993  0.6435  1.5729 -0.5446
  580MOL0     H78244   7.032  11.343   1.822 -1.6157 -0.6067  0.4881
  580MOL0     H78245   7.069  11.104   1.779 -0.1676 -1.4419  0.0011
  580MOL0     H78246   7.089  11.080   1.949  0.7790 -1.8259 -2.5912
  580MOL0     H78247   6.847  11.173   1.973  1.8615  2.2459  0.1192
  580MOL0     H78248   6.836  11.155   1.795  2.2455  0.6993 -1.7873
  580MOL0     H78249   6.901  10.960   2.007  1.2970  2.3177 -0.0981
  580MOL0     H78250   6.922  10.920   1.836 -0.2157  2.0296 -1.9961
  580MOL0     H78251   6.607  11.020   2.068  0.9424  0.4045  0.1170
  580MOL0     H78252   6.300  10.790   1.970 -0.0383 -0.6146 -0.8677
  580MOL0     H78253   6.365  10.886   2.094  1.1250 -3.5736  0.1709
  580MOL0     H78254   6.338  11.086   1.907 -0.4369 -0.3138 -0.5822
  580MOL0     H78255   6.187  11.022   1.974  0.1148 -0.3157 -0.0033
  580MOL0     H78256   6.258  10.847   1.758 -2.0941 -1.1319  1.0364
  580MOL0     H78257   6.309  11.013   1.695 -0.0422 -1.1937 -0.2842
  580MOL0     H78258   6.047  10.896   1.782  1.1023  1.3520  2.2470
  580MOL0     H78259   6.089  10.936   1.617  0.7913 -1.6775 -0.6371
  580MOL0     H78260   5.875  10.960   1.623 -0.1539  0.3057 -0.7500
  580MOL0     H78261   5.567  11.000   1.485 -1.8467  0.8650 -4.7237
  580MOL0     H78262   5.678  10.999   1.344 -0.4171  0.4451  0.2610
  580MOL0     H78263   5.716  10.898   1.487  0.4163 -0.4057 -0.8511
  580MOL0     H78264   5.570  11.341   1.148  3.0185  2.8832 -1.2651
  580MOL0     H78265   5.381  11.443   1.003  0.3539  1.1907  0.6424
  580MOL0     H78266   5.115  11.675   1.231  2.8791  2.1758  1.1780
  580MOL0     H78267   5.176  11.811   1.135 -0.5169  0.6296 -1.7540
  580MOL0     H78268   5.033  11.696   0.939 -0.8829  0.4725  0.4977
  580MOL0     H78269   4.971  11.593   1.054 -0.2898  1.0525  1.3155
  580MOL0     H78270   4.824  11.807   1.016  0.1823  1.2970  1.5282
  580MOL0     H78271   4.948  11.899   1.092 -2.2445  1.7958 -0.6509
  580MOL0     H78272   4.824  11.656   1.231 -0.7680  0.3456 -0.9481
  580MOL0     H78273   4.910  11.780   1.309 -0.4828  0.4784  0.8316
  580MOL0     H78274   4.665  11.862   1.147 -0.4337 -2.4784 -0.5190
  580MOL0     H78275   4.739  11.927   1.291  3.6265  0.0007 -1.8716
  580MOL0     H78276   4.572  11.670   1.226  1.5383 -0.6465 -0.3725
  580MOL0     H78277   4.645  11.700   1.380 -1.1939  1.1189  1.5046
  580MOL0     H78278   4.453  11.902   1.250 -1.9884 -0.3429 -1.0609
  580MOL0     H78279   4.487  11.874   1.424 -0.8539 -1.8120  0.5359
  580MOL0     H78280   4.351  11.685   1.442  2.1807  0.1357  0.8177
  580MOL0     H78281   4.365  11.642   1.267  0.1648  1.6090 -1.8104
  580MOL0     H78282   5.333  11.759   1.286  0.8371 -0.5593  0.5444
  580MOL0     H78283   5.521  11.674   1.421 -2.6608 -0.7694  1.7274
  580MOL0     H78284   5.820  11.438   1.549  0.3884 -0.5368 -1.7896
  580MOL0     H78285   5.998  11.350   1.689 -2.1193  1.3299  0.1324
  580MOL0     H78286   7.441  11.305   2.505  0.3243  0.0976 -1.3048
  580MOL0     H78287   7.640  11.268   2.661 -0.5717 -0.6095  0.8333
  580MOL0     H78288   8.089  11.092   2.588 -1.0762 -0.5354  0.1870
  580MOL0     H78289   8.246  10.950   2.699  1.1671 -0.5647  2.3397
  580MOL0     H78290   8.365  10.773   2.822  0.5323  0.2396 -0.7448
  580MOL0     H78291   8.410  10.929   2.882  0.0369 -0.5511 -0.3785
  580MOL0     H78292   8.389  10.672   3.039 -3.4087  1.4521 -0.6032
  580MOL0     H78293   8.425  10.825   3.108 -1.2459  0.1523 -1.1876
  580MOL0     H78294   8.614  10.663   3.064 -1.5970  0.2761  1.4550
  580MOL0     H78295   8.644  10.820   3.014  0.6263 -0.5680  1.2068
  580MOL0     H78296   8.657  10.782   2.790  1.8554 -0.0026  2.8001
  580MOL0     H78297   8.548  10.644   2.780  0.6604  1.7204 -2.4380
  580MOL0     H78298   8.889  10.432   2.868  0.4127  0.8610  1.1289
  580MOL0     H78299   8.059  11.000   3.074 -1.6163 -4.3507 -1.2467
  580MOL0     H78300   7.921  11.172   2.978  2.1711  0.5437  0.9241
  581MOL0     O78301  10.638   7.084   9.911 -0.2991  0.3840  0.1454
  581MOL0     C78302  10.640   6.966   9.905  0.5675 -0.1112 -1.2492
  581MOL0     O78303  10.551   6.890   9.823  0.4483 -0.3086 -0.7641
  581MOL0     C78304  10.438   6.939   9.765  0.1934  0.1913 -0.2021
  581MOL0     C78305  10.368   7.046   9.829  0.4105  0.2916  0.3642
  581MOL0     C78306  10.265   7.105   9.755  0.0150 -0.6469 -0.2247
  581MOL0     C78307  10.219   7.042   9.635  0.9528 -0.1362  0.4997
  581MOL0     O78308  10.120   7.090   9.549  0.6938 -0.4176 -0.0236
  581MOL0     C78309  10.047   7.206   9.611  0.3375 -0.3758  0.4620
  581MOL0     C78310   9.932   7.257   9.527 -0.1102 -0.5002 -0.5602
  581MOL0     C78311   9.817   7.152   9.533  0.1558  0.4260  0.5393
  581MOL0     C78312   9.684   7.208   9.488 -0.0447  0.0324 -0.2739
  581MOL0     C78313   9.580   7.116   9.534  0.1834 -0.2438  0.3244
  581MOL0     C78314   9.435   7.165   9.519  0.2277  0.2649 -0.1407
  581MOL0     C78315   9.337   7.102   9.629 -0.1022 -0.3709  0.5374
  581MOL0     C78316   9.266   6.979   9.573 -0.0200  0.1677  0.0906
  581MOL0     N78317   9.170   7.018   9.467 -0.3728  0.6286  0.0456
  581MOL0     C78318   9.183   6.988   9.331 -0.0551 -0.9349 -0.2333
  581MOL0     C78319   9.083   7.063   9.277 -0.7316  0.1581  0.1068
  581MOL0     C78320   9.043   7.071   9.132  0.3238 -0.6891  1.0593
  581MOL0     C78321   8.951   6.958   9.083 -0.2366  0.8771 -0.2177
  581MOL0     C78322   8.888   6.965   8.945  0.0362  0.2147 -0.3999
  581MOL0     C78323   8.797   6.846   8.902  0.1375 -0.4273  0.5677
  581MOL0     O78324   8.674   6.830   8.974  0.6486 -1.1584  0.5291
  581MOL0     C78325   8.591   6.734   8.928  0.9391  0.5470 -0.7931
  581MOL0     C78326   8.501   6.768   8.830 -0.5681  0.8387 -0.5084
  581MOL0     C78327   8.405   6.675   8.776 -0.9263 -0.3306 -0.4600
  581MOL0     C78328   8.326   6.733   8.668 -0.1764 -0.3200 -0.7275
  581MOL0     C78329   8.412   6.549   8.820 -0.7107  0.1425  0.0717
  581MOL0     C78330   8.315   6.444   8.787 -0.3359  0.1429  0.1453
  581MOL0     O78331   8.292   6.426   8.658  0.7325  0.0428 -0.0893
  581MOL0     C78332   8.209   6.322   8.615 -0.0124 -0.0130  0.1848
  581MOL0     C78333   8.230   6.187   8.663 -0.3026  0.7392 -0.3436
  581MOL0     C78334   8.156   6.080   8.616 -0.3456  0.2422 -0.2713
  581MOL0     C78335   8.051   6.107   8.536  0.0517 -0.9927 -0.5552
  581MOL0     O78336   7.987   6.000   8.484 -0.0115  0.2506 -0.4325
  581MOL0     C78337   7.889   6.015   8.386  0.3920 -0.0984  1.1385
  581MOL0     C78338   7.810   5.886   8.350 -0.4346  0.1068  0.1156
  581MOL0     C78339   7.723   5.900   8.220  0.1590 -0.5478 -0.3554
  581MOL0     C78340   7.643   5.769   8.199  0.2856  0.3153 -0.2462
  581MOL0     C78341   7.624   5.741   8.050  0.2958  0.8176  0.5797
  581MOL0     C78342   7.526   5.627   8.029  0.5379  0.4561 -0.4539
  581MOL0     C78343   7.378   5.675   8.059 -0.9066 -0.1310  0.2072
  581MOL0     C78344   7.278   5.573   8.025 -0.0829 -0.2707  0.7631
  581MOL0    Cl78345   7.250   5.567   7.850  0.0307  0.1221  0.2446
  581MOL0     C78346   8.018   6.239   8.502  0.8970 -0.2660  0.2159
  581MOL0     C78347   8.099   6.343   8.538  1.1962  0.4249  0.3009
  581MOL0     O78348   8.257   6.386   8.877  0.6741  0.0564 -0.8165
  581MOL0     C78349   8.505   6.511   8.926  0.6481  1.0648  1.0179
  581MOL0     C78350   8.590   6.605   8.974 -0.2463  0.5104 -0.0372
  581MOL0     N78351   9.007   7.123   9.377 -0.8265  0.9368  0.0371
  581MOL0     N78352   9.064   7.104   9.487 -0.0183  0.2839  0.0069
  581MOL0     C78353  10.278   6.922   9.587  0.5048  0.0688  0.3528
  581MOL0     C78354  10.387   6.870   9.654  0.4375  0.1536 -0.2141
  581MOL0     C78355  10.746   6.892   9.972  0.1052 -0.2775  1.1800
  581MOL0     C78356  10.752   6.750   9.973 -0.0118 -0.1141 -0.1341
  581MOL0     C78357  10.862   6.681  10.030 -0.1638  0.2431  0.0882
  581MOL0     C78358  10.970   6.755  10.080  1.3111  0.6253  0.3306
  581MOL0     O78359  11.071   6.675  10.134 -0.3468  1.2052  1.0970
  581MOL0     C78360  11.192   6.738  10.173  0.5990 -0.6128  0.1420
  581MOL0     C78361  11.280   6.781  10.050  0.7211 -0.1958  0.1591
  581MOL0     C78362  11.440   6.789  10.069  0.4479  0.0553 -0.3356
  581MOL0     C78363  11.498   6.909  10.155 -0.0411 -0.4239  1.0083
  581MOL0     C78364  11.643   6.930  10.140 -0.2024 -0.0707  0.3535
  581MOL0     C78365  11.759   6.958  10.159  0.3977  0.0116 -0.5612
  581MOL0     C78366  10.959   6.894  10.086  0.4613  1.2102 -0.4608
  581MOL0     C78367  10.851   6.963  10.030 -1.1616 -0.1922 -0.0999
  581MOL0     H78368  10.397   7.082   9.927 -1.4556  2.1109  0.3173
  581MOL0     H78369  10.217   7.191   9.801  1.8198  1.4397 -2.0075
  581MOL0     H78370  10.013   7.169   9.708  1.7868 -0.2003  1.0545
  581MOL0     H78371  10.111   7.295   9.618  1.7435 -1.4486  2.2665
  581MOL0     H78372   9.898   7.355   9.564 -1.0297 -0.6431 -0.9980
  581MOL0     H78373   9.970   7.275   9.426 -0.5534  0.0264 -0.6418
  581MOL0     H78374   9.835   7.070   9.463  0.3550  0.2177  0.8351
  581MOL0     H78375   9.819   7.110   9.633 -1.9767 -0.0661  0.4283
  581MOL0     H78376   9.676   7.308   9.531  1.3885 -0.7423  1.9307
  581MOL0     H78377   9.672   7.204   9.379 -0.2662 -3.8652 -0.2400
  581MOL0     H78378   9.585   7.017   9.486  0.8424 -1.1608  2.1813
  581MOL0     H78379   9.597   7.095   9.640 -2.3925  2.5229  1.4195
  581MOL0     H78380   9.427   7.274   9.525 -0.0577  0.2098  0.5850
  581MOL0     H78381   9.398   7.153   9.417  0.4448 -1.1727 -0.0655
  581MOL0     H78382   9.384   7.078   9.725  0.3920 -2.3365 -0.1384
  581MOL0     H78383   9.260   7.177   9.649  2.5948  2.3276  1.5313
  581MOL0     H78384   9.207   6.933   9.653 -0.3991 -1.5723 -1.1212
  581MOL0     H78385   9.335   6.903   9.534  2.5702  2.4093 -0.0045
  581MOL0     H78386   9.253   6.929   9.273  1.4613  1.0228 -0.5198
  581MOL0     H78387   8.979   7.159   9.121  3.4829  1.5478 -2.0582
  581MOL0     H78388   9.127   7.074   9.061 -1.1654 -1.2683 -0.8150
  581MOL0     H78389   8.882   6.955   9.168  2.2818  1.1457  1.9467
  581MOL0     H78390   8.998   6.859   9.086 -2.6538 -0.3788 -1.0323
  581MOL0     H78391   8.972   6.967   8.876 -0.8990  0.8746 -1.5633
  581MOL0     H78392   8.836   7.062   8.948  1.3818  1.0066  3.2565
  581MOL0     H78393   8.848   6.749   8.897 -0.5716 -0.8431  1.1461
  581MOL0     H78394   8.774   6.876   8.800  1.4346  2.7141  1.0717
  581MOL0     H78395   8.502   6.869   8.792  1.2264  0.7483 -0.7870
  581MOL0     H78396   8.378   6.719   8.572  1.2649  1.7977 -0.3079
  581MOL0     H78397   8.230   6.680   8.667  0.8609 -2.3358 -1.8354
  581MOL0     H78398   8.309   6.838   8.689  2.2254  0.3500 -1.8118
  581MOL0     H78399   8.313   6.162   8.728  0.5305 -0.7674 -1.8840
  581MOL0     H78400   8.184   5.979   8.643  1.7712  1.4795  2.7813
  581MOL0     H78401   7.815   6.087   8.420 -0.9906  0.8489 -3.2742
  581MOL0     H78402   7.937   6.071   8.305 -0.1866  1.6261  1.9466
  581MOL0     H78403   7.884   5.808   8.334  0.1017  0.1355  2.2218
  581MOL0     H78404   7.743   5.861   8.432  0.7992 -2.6212  0.3782
  581MOL0     H78405   7.785   5.921   8.132  0.0438 -2.0147 -0.8198
  581MOL0     H78406   7.649   5.980   8.219 -0.1806 -0.8528 -1.6253
  581MOL0     H78407   7.701   5.691   8.249  2.1127  2.3032  0.8461
  581MOL0     H78408   7.547   5.785   8.249 -0.0682 -0.1762 -0.7424
  581MOL0     H78409   7.722   5.723   8.007 -0.8650 -2.1270 -1.1232
  581MOL0     H78410   7.575   5.828   8.004 -2.4363 -0.0625  1.6188
  581MOL0     H78411   7.531   5.598   7.924 -1.9342  0.0570 -0.5336
  581MOL0     H78412   7.545   5.539   8.091  0.8221  2.3077  2.2436
  581MOL0     H78413   7.358   5.772   8.011  2.6299  1.5320  1.7452
  581MOL0     H78414   7.361   5.697   8.165 -0.4073  2.1050 -0.1173
  581MOL0     H78415   7.184   5.607   8.068 -0.2336 -0.9992  1.0157
  581MOL0     H78416   7.313   5.476   8.063  0.9805 -0.2807 -0.1788
  581MOL0     H78417   7.939   6.250   8.428  1.4244 -1.4145 -0.5477
  581MOL0     H78418   8.069   6.447   8.528 -2.1889 -0.3762  0.8535
  581MOL0     H78419   8.500   6.410   8.965  0.9452  0.7212  0.2008
  581MOL0     H78420   8.659   6.586   9.056  1.0727  0.2642 -1.1833
  581MOL0     H78421  10.227   6.885   9.499 -2.1017  3.1173  0.3644
  581MOL0     H78422  10.432   6.773   9.634  0.8110 -0.2971  2.4376
  581MOL0     H78423  10.670   6.679   9.962  1.3453 -2.1203  1.7996
  581MOL0     H78424  10.872   6.574  10.040  1.2340  0.5187  2.3479
  581MOL0     H78425  11.176   6.829  10.231  1.7172 -0.5319  0.3416
  581MOL0     H78426  11.246   6.664  10.233  2.7519  0.1566 -0.7310
  581MOL0     H78427  11.245   6.879  10.015  1.9382 -0.9345 -3.6311
  581MOL0     H78428  11.259   6.710   9.970  1.1313  1.0079 -1.0575
  581MOL0     H78429  11.487   6.796   9.971  4.9766 -0.9820  1.4736
  581MOL0     H78430  11.469   6.690  10.106  0.5788 -1.4245 -4.0540
  581MOL0     H78431  11.464   6.905  10.259  0.4692 -0.6369  1.1670
  581MOL0     H78432  11.459   7.007  10.123  1.8289 -0.0444 -0.2208
  581MOL0     H78433  11.860   6.974  10.188  0.0516 -0.5064  1.0446
  581MOL0     H78434  11.038   6.951  10.135  0.7110  1.1642 -0.8129
  581MOL0     H78435  10.867   7.068  10.010 -0.6970 -0.3893 -0.8325
  582MOL0     O78436   2.218   1.300   9.904 -0.2345  0.1727 -0.0565
  582MOL0     C78437   2.233   1.204   9.828 -0.7157 -0.0703 -0.5649
  582MOL0     O78438   2.136   1.138   9.756  0.2613 -0.4587 -0.1814
  582MOL0     C78439   1.996   1.153   9.770 -0.4315 -0.1597 -0.3373
  582MOL0     C78440   1.934   1.263   9.827 -0.1024  0.2689 -0.1697
  582MOL0     C78441   1.795   1.275   9.836 -0.3350 -0.2888  0.1302
  582MOL0     C78442   1.713   1.171   9.790 -0.8013  0.1131 -0.3580
  582MOL0     O78443   1.576   1.172   9.795  0.9481 -0.0026  0.1328
  582MOL0     C78444   1.512   1.271   9.875 -1.1883  0.2612 -0.5105
  582MOL0     C78445   1.369   1.251   9.882 -0.5099  0.3798  0.0397
  582MOL0     C78446   1.303   1.282   9.748  0.6229  0.7446 -0.0202
  582MOL0     C78447   1.172   1.198   9.729  0.2504 -0.5284  0.0986
  582MOL0     C78448   1.116   1.194   9.584  0.5289 -0.2353  0.4869
  582MOL0     C78449   1.048   1.327   9.538 -0.4122  0.3796 -0.3537
  582MOL0     C78450   0.994   1.320   9.395 -0.0709 -0.2398  0.2149
  582MOL0     C78451   0.839   1.284   9.395 -0.4814 -0.4459 -0.4391
  582MOL0     N78452   0.793   1.249   9.255  0.3040 -1.1574 -0.1160
  582MOL0     C78453   0.685   1.310   9.197 -0.4008 -0.7297  0.1836
  582MOL0     C78454   0.645   1.215   9.108 -0.6538 -0.0044 -0.4469
  582MOL0     C78455   0.532   1.239   9.016 -0.6337  0.1555 -0.2426
  582MOL0     C78456   0.399   1.202   9.074 -0.8690  0.2259  0.4108
  582MOL0     C78457   0.368   1.056   9.084 -0.3045 -0.8255 -0.5496
  582MOL0     C78458   0.227   1.021   9.086  0.0246  0.5721  0.9568
  582MOL0     O78459   0.160   1.049   8.967  0.1274 -0.2434  0.4180
  582MOL0     C78460   0.020   1.042   8.966  0.0875 -0.4263 -0.0082
  582MOL0     C78461  -0.049   1.133   8.889  0.1773 -0.8207 -0.4330
  582MOL0     C78462  -0.191   1.133   8.881 -0.5714 -0.5511  0.6027
  582MOL0     C78463  -0.242   1.241   8.784  0.7573 -0.2587 -0.2822
  582MOL0     C78464  -0.265   1.031   8.940  0.1086  0.3643  0.2588
  582MOL0     C78465  -0.408   1.008   8.906  0.3644  0.3083  0.2127
  582MOL0     O78466  -0.487   0.951   8.998 -0.6292  0.7081  0.1927
  582MOL0     C78467  -0.623   0.976   9.001  0.0268 -0.1159  0.0827
  582MOL0     C78468  -0.683   1.102   8.972  0.8026  0.7709 -0.1090
  582MOL0     C78469  -0.825   1.121   8.993  0.2711  0.3171  0.0818
  582MOL0     C78470  -0.904   1.015   9.032 -0.3687  0.2122 -0.5386
  582MOL0     O78471  -1.038   1.027   9.065  0.0229  0.1806  1.0869
  582MOL0     C78472  -1.116   1.122   8.984 -0.5222  0.1005  0.5091
  582MOL0     C78473  -1.258   1.086   9.008 -0.3241 -1.2819 -0.0164
  582MOL0     C78474  -1.292   1.141   9.155  0.4463 -0.1602  0.0171
  582MOL0     C78475  -1.435   1.085   9.168 -0.5472 -0.1693  0.8072
  582MOL0     C78476  -1.477   1.136   9.307  0.2522  0.8962  0.7733
  582MOL0     C78477  -1.604   1.088   9.357  0.6073 -0.8267 -0.2186
  582MOL0     C78478  -1.727   1.144   9.276  0.2469 -0.7706 -0.3566
  582MOL0     C78479  -1.864   1.061   9.291  0.1059  0.6881 -1.5285
  582MOL0    Cl78480  -1.920   1.080   9.465  0.5678  0.5807  0.2324
  582MOL0     C78481  -0.839   0.900   9.071  0.6418  0.3595  0.5791
  582MOL0     C78482  -0.703   0.875   9.058  0.4420 -0.0926 -0.2387
  582MOL0     O78483  -0.450   1.043   8.791  0.1988 -0.2903 -0.3423
  582MOL0     C78484  -0.198   0.944   9.023 -0.1127  0.3380  0.2795
  582MOL0     C78485  -0.054   0.950   9.036  1.0800  0.3377  0.1637
  582MOL0     N78486   0.719   1.106   9.107 -0.7362  0.3838 -0.0458
  582MOL0     N78487   0.806   1.126   9.204 -0.6959 -0.1247  0.0663
  582MOL0     C78488   1.776   1.057   9.745  0.1545  0.6926 -0.3133
  582MOL0     C78489   1.917   1.049   9.731 -0.7127  0.2303  0.1019
  582MOL0     C78490   2.373   1.164   9.817  0.4094  0.3666  0.2428
  582MOL0     C78491   2.403   1.037   9.765 -0.2548  0.1382  0.0837
  582MOL0     C78492   2.532   0.986   9.754 -0.4219  0.2770  0.8782
  582MOL0     C78493   2.637   1.063   9.814  0.2165 -0.1364  0.2581
  582MOL0     O78494   2.764   1.006   9.802  0.6050  0.0280 -0.1178
  582MOL0     C78495   2.879   1.081   9.828  0.2327  0.1246  0.5708
  582MOL0     C78496   3.007   1.020   9.774 -0.4497  0.5364 -0.1846
  582MOL0     C78497   2.995   0.926   9.644 -0.5054 -0.5145  0.3614
  582MOL0     C78498   3.129   0.863   9.595 -0.4456  0.0132  0.0232
  582MOL0     C78499   3.091   0.790   9.475  0.0564  0.1563 -0.3337
  582MOL0     C78500   3.066   0.725   9.380 -0.0920  0.3486  0.2166
  582MOL0     C78501   2.604   1.194   9.864 -0.6791  0.4408  0.0467
  582MOL0     C78502   2.475   1.240   9.873  0.3945 -0.1502  0.6182
  582MOL0     H78503   1.999   1.342   9.865  0.4983 -0.7394  0.9668
  582MOL0     H78504   1.760   1.367   9.882  1.1738 -0.5559  1.9204
  582MOL0     H78505   1.551   1.274   9.977  2.9335 -1.0790 -1.8630
  582MOL0     H78506   1.524   1.365   9.820  1.0676 -0.2507 -0.9875
  582MOL0     H78507   1.352   1.144   9.901 -0.9604 -0.1944 -3.1051
  582MOL0     H78508   1.331   1.303   9.971  1.1825  0.5358  0.7047
  582MOL0     H78509   1.285   1.390   9.741 -2.1694  0.3201 -0.1886
  582MOL0     H78510   1.371   1.252   9.668 -0.8987  0.9853 -1.4602
  582MOL0     H78511   1.192   1.094   9.757  1.6364 -0.5681 -0.9653
  582MOL0     H78512   1.092   1.240   9.791  0.9318  0.2400  0.4718
  582MOL0     H78513   1.201   1.172   9.518  1.2472  0.4022  1.1880
  582MOL0     H78514   1.050   1.107   9.578 -1.5558  1.3739 -1.3827
  582MOL0     H78515   0.973   1.356   9.612  1.4221  0.9309  1.3813
  582MOL0     H78516   1.128   1.400   9.546  0.1175 -0.3801  2.0555
  582MOL0     H78517   1.028   1.404   9.334 -1.1875 -1.2249 -1.8766
  582MOL0     H78518   1.033   1.227   9.353 -1.9105 -2.0030  2.1361
  582MOL0     H78519   0.780   1.370   9.429  1.1898  0.1069  1.1955
  582MOL0     H78520   0.824   1.193   9.453  1.8002 -0.5479  0.0777
  582MOL0     H78521   0.644   1.408   9.219  0.1626 -0.8190  1.7527
  582MOL0     H78522   0.526   1.346   8.991 -0.2791  0.2937  0.2546
  582MOL0     H78523   0.540   1.187   8.920 -1.1570  1.0195 -0.7737
  582MOL0     H78524   0.327   1.254   9.010  0.4394  0.2554 -1.0921
  582MOL0     H78525   0.405   1.241   9.176 -0.4931 -0.7058  0.7497
  582MOL0     H78526   0.414   1.029   9.179  0.6028  1.3795 -0.2925
  582MOL0     H78527   0.409   0.998   9.001 -3.2846  0.4323 -3.1174
  582MOL0     H78528   0.179   1.068   9.173  1.5086  0.7431  1.7056
  582MOL0     H78529   0.213   0.916   9.111 -2.7959  0.7177  0.3856
  582MOL0     H78530   0.008   1.214   8.847  0.4471 -0.0797  1.2862
  582MOL0     H78531  -0.297   1.202   8.698 -0.0211  2.0220 -0.8925
  582MOL0     H78532  -0.317   1.288   8.848  2.4483  2.2209  0.0317
  582MOL0     H78533  -0.160   1.293   8.734 -0.1322 -0.2440 -1.7704
  582MOL0     H78534  -0.616   1.187   8.957  1.2241  1.0095  2.5103
  582MOL0     H78535  -0.874   1.210   8.956 -0.9519 -1.0221 -1.7008
  582MOL0     H78536  -1.095   1.225   9.014  0.0852  0.1577 -0.0957
  582MOL0     H78537  -1.096   1.120   8.877  1.1756  2.3851  0.7039
  582MOL0     H78538  -1.307   1.149   8.933 -0.8120 -0.3423  1.0485
  582MOL0     H78539  -1.267   0.980   8.985 -1.9738 -0.9294 -1.1336
  582MOL0     H78540  -1.289   1.251   9.152 -1.1568 -0.1073 -0.4144
  582MOL0     H78541  -1.231   1.098   9.235 -3.1839 -1.8137  2.1499
  582MOL0     H78542  -1.500   1.127   9.091 -0.9028  0.7782  1.6005
  582MOL0     H78543  -1.441   0.975   9.164 -0.6873 -0.1933  1.5017
  582MOL0     H78544  -1.485   1.245   9.311  0.1852  0.8468  3.1096
  582MOL0     H78545  -1.409   1.100   9.385 -2.3921  1.0223  3.3057
  582MOL0     H78546  -1.602   0.979   9.347 -1.6346 -0.7412 -2.8460
  582MOL0     H78547  -1.610   1.107   9.465  0.6426 -3.5156  0.3227
  582MOL0     H78548  -1.700   1.144   9.170  0.2758 -0.5041 -0.3521
  582MOL0     H78549  -1.744   1.249   9.304 -0.4639 -1.5029  2.1842
  582MOL0     H78550  -1.850   0.958   9.257 -1.3804 -0.2244  0.4273
  582MOL0     H78551  -1.945   1.108   9.236 -1.0373  0.4988 -0.0681
  582MOL0     H78552  -0.897   0.823   9.121  0.7957 -1.3095 -1.6621
  582MOL0     H78553  -0.660   0.781   9.094  1.3109  0.9942  1.7593
  582MOL0     H78554  -0.257   0.859   9.053 -3.6762  2.5348  0.1009
  582MOL0     H78555  -0.002   0.869   9.087 -0.6420 -2.2216 -1.8915
  582MOL0     H78556   1.702   0.979   9.736 -2.4178  2.9084  0.0784
  582MOL0     H78557   1.956   0.959   9.685 -1.1285  0.0028  0.1912
  582MOL0     H78558   2.323   0.972   9.731 -0.4111  0.7909 -0.8227
  582MOL0     H78559   2.567   0.905   9.691  0.4933  1.5031 -0.2398
  582MOL0     H78560   2.868   1.175   9.774  0.8993  0.4740  1.0293
  582MOL0     H78561   2.876   1.108   9.934 -1.7144  0.0802  0.5532
  582MOL0     H78562   3.061   0.969   9.854  1.0543 -1.2057 -2.1981
  582MOL0     H78563   3.072   1.105   9.748 -1.9600  1.7528 -0.1226
  582MOL0     H78564   2.965   0.986   9.558  1.7881 -0.5411 -0.5318
  582MOL0     H78565   2.925   0.845   9.665  2.7984 -4.2348 -1.6738
  582MOL0     H78566   3.161   0.789   9.669 -1.4921 -1.2141 -0.7146
  582MOL0     H78567   3.194   0.947   9.569 -3.5359  2.3690 -0.6658
  582MOL0     H78568   3.039   0.661   9.298 -1.0158  2.1170 -0.9104
  582MOL0     H78569   2.685   1.249   9.910  0.4279 -0.8499 -0.2808
  582MOL0     H78570   2.454   1.334   9.922 -1.2853  0.4772 -1.1828
  583MOL0     O78571  10.261   0.265   3.308  1.0675  0.0534 -0.6940
  583MOL0     C78572  10.361   0.225   3.254 -0.2644  0.1992 -0.1626
  583MOL0     O78573  10.355   0.140   3.143 -0.2552  0.2169  0.4687
  583MOL0     C78574  10.238   0.073   3.113  0.1203 -0.3734  0.4736
  583MOL0     C78575  10.167   0.099   2.994 -0.3581 -0.3773  0.6778
  583MOL0     C78576  10.048   0.027   2.975 -0.5712 -0.1062  0.2130
  583MOL0     C78577  10.000  -0.073   3.057  0.1950 -0.3927  0.4233
  583MOL0     O78578   9.883  -0.134   3.015  0.6245  0.1854  0.0410
  583MOL0     C78579   9.816  -0.228   3.102 -0.4425 -0.4666  0.2165
  583MOL0     C78580   9.693  -0.296   3.031 -0.4302 -0.5430 -0.5645
  583MOL0     C78581   9.627  -0.408   3.116 -0.1843  0.1092 -0.9359
  583MOL0     C78582   9.501  -0.456   3.053 -0.2804 -0.6716  0.4068
  583MOL0     C78583   9.447  -0.585   3.115  0.1110  0.0825  0.1121
  583MOL0     C78584   9.299  -0.618   3.071  0.9103  1.0017  0.6740
  583MOL0     C78585   9.218  -0.722   3.159 -0.3285 -0.0327 -0.0227
  583MOL0     C78586   9.088  -0.760   3.085  0.0034 -0.1680  0.6386
  583MOL0     N78587   9.016  -0.869   3.147  0.7240 -0.2468  0.6250
  583MOL0     C78588   8.945  -0.853   3.260 -0.2558  0.8594  0.3507
  583MOL0     C78589   8.894  -0.986   3.290 -0.4039  0.1993  0.5052
  583MOL0     C78590   8.819  -1.044   3.405 -0.2529 -0.6486  0.7594
  583MOL0     C78591   8.672  -1.086   3.367  0.2865  0.7162  0.1420
  583MOL0     C78592   8.669  -1.231   3.317  0.1509  0.1121 -0.3198
  583MOL0     C78593   8.560  -1.315   3.392  0.2446 -0.2345  0.0587
  583MOL0     O78594   8.433  -1.262   3.351 -0.2213  0.8998 -0.2499
  583MOL0     C78595   8.318  -1.337   3.362 -0.8272  0.0191 -0.3834
  583MOL0     C78596   8.308  -1.448   3.446 -0.5356 -0.0324  0.0368
  583MOL0     C78597   8.182  -1.520   3.442 -0.8756 -0.2124 -0.3906
  583MOL0     C78598   8.174  -1.629   3.541  0.0508  0.6278  0.1341
  583MOL0     C78599   8.076  -1.477   3.358  0.2621  0.0421  0.7349
  583MOL0     C78600   7.951  -1.546   3.339  0.4626  0.3380  0.1349
  583MOL0     O78601   7.888  -1.537   3.215 -0.7247 -0.2878 -0.0523
  583MOL0     C78602   7.751  -1.541   3.204 -0.0877 -0.6889  0.7422
  583MOL0     C78603   7.684  -1.657   3.223 -0.1090  0.3089  0.5545
  583MOL0     C78604   7.548  -1.656   3.202 -0.1307 -0.0303 -0.5115
  583MOL0     C78605   7.469  -1.549   3.172 -0.8260 -1.1137  0.3333
  583MOL0     O78606   7.337  -1.553   3.143 -0.8628 -0.5061 -0.2654
  583MOL0     C78607   7.278  -1.678   3.145 -0.0911 -0.1888  0.1519
  583MOL0     C78608   7.131  -1.670   3.131  0.8386 -0.3402 -0.1245
  583MOL0     C78609   7.098  -1.614   2.994  0.9071  0.0462 -1.0864
  583MOL0     C78610   6.959  -1.553   2.983 -0.1647  0.1697  0.1847
  583MOL0     C78611   6.842  -1.651   3.002 -0.4784 -1.0960  0.0957
  583MOL0     C78612   6.716  -1.570   2.999 -0.3453 -0.4847  0.1073
  583MOL0     C78613   6.594  -1.668   3.021  0.0184  0.6472  0.1756
  583MOL0     C78614   6.539  -1.721   2.890  0.6524 -0.1034  0.3344
  583MOL0    Cl78615   6.430  -1.860   2.936 -0.1585 -0.0768 -0.1089
  583MOL0     C78616   7.542  -1.432   3.156  0.2886 -0.7224  0.9294
  583MOL0     C78617   7.678  -1.421   3.169 -0.2873  0.9594 -0.1950
  583MOL0     O78618   7.910  -1.612   3.434  0.1560  0.3359  0.1017
  583MOL0     C78619   8.105  -1.376   3.267  0.5854 -0.3260  0.7613
  583MOL0     C78620   8.225  -1.297   3.268 -0.1315  0.6783  0.6308
  583MOL0     N78621   8.933  -1.069   3.189 -0.6167 -0.4581 -0.2084
  583MOL0     N78622   9.001  -0.995   3.098 -0.5883 -0.2170 -0.0262
  583MOL0     C78623  10.075  -0.096   3.176  1.3678 -0.1950 -0.1220
  583MOL0     C78624  10.179  -0.013   3.199 -0.1927 -0.3276 -0.8312
  583MOL0     C78625  10.489   0.244   3.310  0.0631  0.4233 -0.4421
  583MOL0     C78626  10.507   0.274   3.445 -0.7377  0.2146  0.0774
  583MOL0     C78627  10.641   0.295   3.498 -0.1280  0.3803 -0.4094
  583MOL0     C78628  10.752   0.297   3.409  0.4279 -0.1171 -0.8029
  583MOL0     O78629  10.884   0.307   3.440 -0.6351  0.0073 -0.2556
  583MOL0     C78630  10.937   0.294   3.572  0.5470 -0.3313  0.0675
  583MOL0     C78631  10.959   0.434   3.631  0.6594  0.6777  0.3418
  583MOL0     C78632  11.069   0.503   3.558  0.0484  1.0519  0.1942
  583MOL0     C78633  11.093   0.649   3.611  0.2777  0.2197  0.0229
  583MOL0     C78634  11.224   0.687   3.562  0.8341 -0.3578 -0.3872
  583MOL0     C78635  11.332   0.709   3.511 -0.0967  0.4778  1.2249
  583MOL0     C78636  10.724   0.287   3.272  0.3107  0.3038  0.3198
  583MOL0     C78637  10.596   0.262   3.223  0.9269  0.2082  0.4079
  583MOL0     H78638  10.193   0.175   2.921 -3.7653 -0.3474 -0.6916
  583MOL0     H78639   9.988   0.041   2.885 -1.4745  2.5691  1.1401
  583MOL0     H78640   9.884  -0.311   3.123 -1.5176 -1.5918 -0.5583
  583MOL0     H78641   9.795  -0.179   3.198 -2.3355 -1.3316  0.3056
  583MOL0     H78642   9.624  -0.215   3.002 -0.9578 -0.3105  1.2355
  583MOL0     H78643   9.733  -0.334   2.936  1.7467 -0.4124  0.2507
  583MOL0     H78644   9.696  -0.493   3.118 -0.3907 -0.1086 -2.0409
  583MOL0     H78645   9.602  -0.378   3.218  2.0033 -2.4942  0.4967
  583MOL0     H78646   9.427  -0.376   3.061 -0.5908 -0.9464  0.3211
  583MOL0     H78647   9.515  -0.460   2.945  0.9204  1.7131  0.4112
  583MOL0     H78648   9.510  -0.671   3.092 -1.5746 -1.4482  0.9445
  583MOL0     H78649   9.463  -0.567   3.222  1.9377 -0.2741 -0.0665
  583MOL0     H78650   9.238  -0.529   3.086 -2.0270 -0.7780 -0.0254
  583MOL0     H78651   9.297  -0.654   2.968 -2.1847 -0.9702  1.2940
  583MOL0     H78652   9.283  -0.809   3.175  2.8329  2.2256  0.3766
  583MOL0     H78653   9.209  -0.680   3.260  0.5355 -1.0408  0.5051
  583MOL0     H78654   9.108  -0.798   2.984 -2.2600  1.1378 -0.3510
  583MOL0     H78655   9.031  -0.667   3.088  0.6523  0.3551 -1.4673
  583MOL0     H78656   8.938  -0.761   3.317  1.3543  1.4698 -0.3712
  583MOL0     H78657   8.880  -1.124   3.448 -1.2390 -1.7448  0.1847
  583MOL0     H78658   8.810  -0.968   3.483 -2.4314 -1.3419  1.2702
  583MOL0     H78659   8.633  -1.018   3.290  1.0357 -0.7653 -1.6119
  583MOL0     H78660   8.619  -1.068   3.461  1.0949  0.1295  0.7222
  583MOL0     H78661   8.767  -1.278   3.325  0.6520  1.3355  1.1555
  583MOL0     H78662   8.650  -1.224   3.209 -0.6388  0.8659 -0.1381
  583MOL0     H78663   8.564  -1.306   3.501 -1.0567  0.3322  0.0697
  583MOL0     H78664   8.575  -1.418   3.360  0.4113 -0.8983  2.1251
  583MOL0     H78665   8.380  -1.483   3.519 -2.3256 -0.0464  1.8908
  583MOL0     H78666   8.269  -1.667   3.579 -0.5151  1.3228  2.4341
  583MOL0     H78667   8.112  -1.608   3.629 -2.5438 -2.8921 -0.6166
  583MOL0     H78668   8.122  -1.716   3.501 -0.4484  1.8939 -2.1509
  583MOL0     H78669   7.749  -1.743   3.233  4.0095  2.7998 -1.8798
  583MOL0     H78670   7.511  -1.758   3.199  1.7081 -0.7253 -1.2716
  583MOL0     H78671   7.320  -1.755   3.079 -0.4262 -0.8459  0.6856
  583MOL0     H78672   7.299  -1.711   3.247  1.1326  2.1766  0.7345
  583MOL0     H78673   7.094  -1.773   3.126  4.1527 -1.5833 -1.6502
  583MOL0     H78674   7.084  -1.621   3.217  0.7006  1.7804 -1.3448
  583MOL0     H78675   7.093  -1.704   2.932  3.8415 -0.6611 -0.4601
  583MOL0     H78676   7.175  -1.543   2.962  1.6254  0.3156  1.0456
  583MOL0     H78677   6.946  -1.472   3.056 -0.9828  0.7583 -0.5972
  583MOL0     H78678   6.947  -1.508   2.884 -0.6161 -3.7701 -1.7490
  583MOL0     H78679   6.858  -1.693   3.102  1.2780 -1.3186 -0.2515
  583MOL0     H78680   6.853  -1.726   2.923  1.3618  0.1556 -0.9018
  583MOL0     H78681   6.727  -1.490   3.073  2.3491 -0.1739 -0.5006
  583MOL0     H78682   6.706  -1.526   2.900 -2.7764 -0.7360  0.1906
  583MOL0     H78683   6.520  -1.612   3.079 -0.2559 -0.4764  0.9385
  583MOL0     H78684   6.621  -1.756   3.081  3.5636  1.1836 -0.4191
  583MOL0     H78685   6.620  -1.755   2.824 -0.5615  0.8909 -1.7710
  583MOL0     H78686   6.485  -1.647   2.829  0.3584  1.5205  2.4298
  583MOL0     H78687   7.488  -1.340   3.136  1.1594 -0.0851  1.4477
  583MOL0     H78688   7.735  -1.329   3.164 -1.5381  1.6826 -1.7414
  583MOL0     H78689   8.025  -1.335   3.207 -1.4047  0.0395  3.5153
  583MOL0     H78690   8.241  -1.216   3.198 -1.3938  1.7001  1.4703
  583MOL0     H78691  10.042  -0.171   3.247 -1.1697 -0.9125 -1.8965
  583MOL0     H78692  10.233  -0.018   3.293  1.4731  0.2025 -1.7082
  583MOL0     H78693  10.421   0.276   3.510 -1.6225 -2.7517 -0.8574
  583MOL0     H78694  10.655   0.305   3.605  1.0765 -2.9476 -0.1393
  583MOL0     H78695  10.869   0.235   3.634  0.8993  0.3871  1.1698
  583MOL0     H78696  11.033   0.242   3.561 -0.0734 -1.4297 -0.4240
  583MOL0     H78697  10.978   0.419   3.738  0.3105 -3.0557 -0.0116
  583MOL0     H78698  10.867   0.492   3.619 -0.6544 -1.3109  0.3072
  583MOL0     H78699  11.052   0.506   3.450  0.4740  1.7796  0.1447
  583MOL0     H78700  11.151   0.436   3.586 -0.4796  0.9307  1.5201
  583MOL0     H78701  11.089   0.654   3.721  1.0793  0.0885  0.0716
  583MOL0     H78702  11.013   0.711   3.572  0.4890 -0.7919 -2.1331
  583MOL0     H78703  11.420   0.700   3.452 -2.3302 -0.2120 -2.3258
  583MOL0     H78704  10.802   0.292   3.197  1.8039  1.6634  1.8915
  583MOL0     H78705  10.607   0.242   3.117  2.2347  0.3577  0.5017
  584MOL0     O78706   3.273   1.054   5.136 -0.0613 -0.8153  0.4294
  584MOL0     C78707   3.324   0.947   5.165  0.1179 -0.1722  0.6105
  584MOL0     O78708   3.267   0.836   5.208  0.0097 -0.7359 -0.2876
  584MOL0     C78709   3.132   0.817   5.233  0.1075  0.2694 -0.1641
  584MOL0     C78710   3.068   0.699   5.202  0.2452 -0.2618  0.3603
  584MOL0     C78711   2.938   0.678   5.235 -0.7047 -0.1822  0.3797
  584MOL0     C78712   2.866   0.778   5.307 -0.0821 -0.0411  1.1297
  584MOL0     O78713   2.741   0.751   5.355  0.0271  0.3300  0.6844
  584MOL0     C78714   2.640   0.692   5.259 -0.1515  0.0140 -0.7700
  584MOL0     C78715   2.503   0.712   5.333 -0.3647  0.5539  0.1847
  584MOL0     C78716   2.462   0.860   5.323  0.5176  0.0711 -0.1623
  584MOL0     C78717   2.466   0.923   5.463  0.2079 -0.4216 -0.5264
  584MOL0     C78718   2.480   1.072   5.457  0.1868  0.4593 -0.6028
  584MOL0     C78719   2.370   1.145   5.370  0.0943  0.0842 -0.4403
  584MOL0     C78720   2.228   1.128   5.432 -0.2486 -0.4954 -0.4746
  584MOL0     C78721   2.123   1.222   5.367  0.3943  0.2588  0.2055
  584MOL0     N78722   1.991   1.191   5.416  0.0183 -0.5958 -1.0480
  584MOL0     C78723   1.948   1.232   5.539  0.1899  0.4837  0.1219
  584MOL0     C78724   1.835   1.169   5.559  0.1815  0.0565  0.1831
  584MOL0     C78725   1.757   1.176   5.692  0.7508  0.4407  0.1170
  584MOL0     C78726   1.747   1.040   5.761 -0.1564 -0.4709  0.2441
  584MOL0     C78727   1.723   1.053   5.909  0.3422  0.6066  0.3937
  584MOL0     C78728   1.584   1.106   5.946  0.2837  0.0055  0.0392
  584MOL0     O78729   1.464   1.052   5.881 -0.3016  0.7850 -0.0453
  584MOL0     C78730   1.342   1.077   5.932 -0.5972  0.2340 -0.1041
  584MOL0     C78731   1.238   0.999   5.883 -0.0618  0.4397 -0.8595
  584MOL0     C78732   1.105   1.022   5.927 -0.2542 -0.0025 -0.0800
  584MOL0     C78733   1.008   0.934   5.853 -0.3059  0.7023  0.4423
  584MOL0     C78734   1.070   1.124   6.024  1.6326  0.6407  0.0288
  584MOL0     C78735   0.927   1.164   6.061  0.1962  0.3263 -0.0627
  584MOL0     O78736   0.820   1.081   6.020  1.2425  0.3312  0.4533
  584MOL0     C78737   0.681   1.117   6.033  0.3786  0.4805  0.8625
  584MOL0     C78738   0.600   1.007   6.018 -0.5460 -0.1419  0.7383
  584MOL0     C78739   0.463   1.017   6.025 -0.0705 -0.9243 -1.4104
  584MOL0     C78740   0.402   1.137   6.062 -0.1393  0.6906  0.3762
  584MOL0     O78741   0.263   1.132   6.085  0.2383 -0.2077 -0.3826
  584MOL0     C78742   0.167   1.085   5.992  0.1172 -0.4815 -0.1524
  584MOL0     C78743   0.085   0.978   6.065  0.1693 -1.4881 -0.2898
  584MOL0     C78744  -0.029   1.049   6.149 -0.7447 -0.3297  0.3555
  584MOL0     C78745  -0.120   0.950   6.216  0.1104  0.6437 -0.0294
  584MOL0     C78746  -0.266   0.962   6.176 -0.2430 -0.6078 -0.1788
  584MOL0     C78747  -0.347   0.904   6.288  0.1725 -0.8455 -0.3177
  584MOL0     C78748  -0.497   0.891   6.254 -0.3214 -0.0693  0.6906
  584MOL0     C78749  -0.579   0.823   6.359  0.2525  0.8438  0.3770
  584MOL0    Cl78750  -0.749   0.866   6.323 -0.0915 -0.0451 -0.2298
  584MOL0     C78751   0.480   1.248   6.061 -0.2652 -0.1610 -0.0336
  584MOL0     C78752   0.625   1.242   6.051 -0.0391 -0.1241 -0.2452
  584MOL0     O78753   0.920   1.271   6.130  0.2178 -0.2704  0.7423
  584MOL0     C78754   1.182   1.199   6.073 -0.7773 -0.5298  0.3848
  584MOL0     C78755   1.316   1.182   6.023  0.1534 -0.3300 -0.1545
  584MOL0     N78756   1.805   1.101   5.447  0.7375  0.5634 -0.0741
  584MOL0     N78757   1.900   1.104   5.363 -0.1240  0.5142 -0.7320
  584MOL0     C78758   2.930   0.899   5.340 -0.7028 -0.3590 -0.0385
  584MOL0     C78759   3.061   0.913   5.303 -1.2570 -0.5297  0.3553
  584MOL0     C78760   3.478   0.940   5.146  0.6745 -0.0094 -0.1084
  584MOL0     C78761   3.552   1.046   5.105  0.1684  0.3931 -0.2704
  584MOL0     C78762   3.693   1.027   5.077  0.6969 -0.0656 -0.5531
  584MOL0     C78763   3.761   0.910   5.109 -0.0527 -0.0837  0.6913
  584MOL0     O78764   3.893   0.911   5.070 -0.0039  0.1575  0.3370
  584MOL0     C78765   3.969   0.792   5.083 -0.5959  0.1172  0.7290
  584MOL0     C78766   4.097   0.804   5.007 -0.3499  0.6368 -0.6553
  584MOL0     C78767   4.083   0.882   4.870 -0.5497  0.3592 -0.5767
  584MOL0     C78768   3.973   0.833   4.777  0.2866 -0.0741 -0.1457
  584MOL0     C78769   3.955   0.918   4.660 -0.4631 -0.3556  0.0759
  584MOL0     C78770   3.959   0.991   4.567 -0.2561 -0.4218 -0.8976
  584MOL0     C78771   3.684   0.804   5.162 -0.2606 -0.7385 -0.3089
  584MOL0     C78772   3.543   0.815   5.171  0.3639 -0.8134 -0.0393
  584MOL0     H78773   3.128   0.634   5.139  1.4462 -0.0330  1.2326
  584MOL0     H78774   2.886   0.585   5.211  0.4973 -1.3575  2.1302
  584MOL0     H78775   2.640   0.735   5.158  1.0397 -2.4980 -1.9342
  584MOL0     H78776   2.663   0.586   5.250  1.0749 -0.0987  2.2898
  584MOL0     H78777   2.437   0.646   5.276  0.6418 -2.2897  2.0939
  584MOL0     H78778   2.507   0.682   5.438 -1.6626  2.7060  0.9272
  584MOL0     H78779   2.529   0.918   5.258  0.4766  0.9421  0.5465
  584MOL0     H78780   2.360   0.879   5.288  1.2886 -0.5029 -2.9101
  584MOL0     H78781   2.377   0.896   5.521  0.7111  0.8791  0.9014
  584MOL0     H78782   2.559   0.890   5.509 -0.4892 -1.0702  0.4523
  584MOL0     H78783   2.472   1.111   5.559 -2.2957  2.3770 -1.4055
  584MOL0     H78784   2.568   1.096   5.397 -1.3768 -0.1667 -3.3764
  584MOL0     H78785   2.380   1.252   5.355 -0.2842  0.2795  0.6174
  584MOL0     H78786   2.360   1.103   5.269 -2.7372  1.1451 -0.6978
  584MOL0     H78787   2.187   1.030   5.409  0.6785 -0.8749 -0.5603
  584MOL0     H78788   2.234   1.144   5.540  4.7095 -1.4667 -0.3320
  584MOL0     H78789   2.139   1.223   5.259 -1.0142  0.4418 -0.0280
  584MOL0     H78790   2.144   1.325   5.400 -0.0046  0.2380  0.5382
  584MOL0     H78791   1.999   1.305   5.602 -2.3327  0.4513  2.3891
  584MOL0     H78792   1.806   1.244   5.762  1.0594 -0.3250  0.6552
  584MOL0     H78793   1.658   1.213   5.664  0.4221 -2.4847 -3.3039
  584MOL0     H78794   1.848   1.002   5.741 -0.1421  0.8008 -2.5562
  584MOL0     H78795   1.676   0.973   5.713 -0.6796 -0.0588  0.4397
  584MOL0     H78796   1.790   1.124   5.956 -3.1879  2.0743  3.7368
  584MOL0     H78797   1.730   0.961   5.969 -2.2447 -1.0983 -1.6587
  584MOL0     H78798   1.579   1.213   5.927  0.7921 -0.4434 -3.1348
  584MOL0     H78799   1.570   1.075   6.050  0.2096  0.3078  0.1201
  584MOL0     H78800   1.267   0.923   5.811  2.8539  1.9463 -1.4033
  584MOL0     H78801   0.950   0.880   5.929 -0.2612  0.5400  0.3619
  584MOL0     H78802   0.937   0.985   5.787  0.7550  0.6922 -0.7451
  584MOL0     H78803   1.060   0.866   5.784 -1.9791  0.3299 -0.5210
  584MOL0     H78804   0.635   0.908   5.988  0.7863  0.9933 -1.8019
  584MOL0     H78805   0.396   0.931   6.022 -0.8287 -0.5879  1.6795
  584MOL0     H78806   0.103   1.172   5.974  0.6361  0.5122  2.3476
  584MOL0     H78807   0.213   1.046   5.901 -0.1493  1.8277 -1.3253
  584MOL0     H78808   0.030   0.923   5.988 -0.3346  0.1374 -1.1577
  584MOL0     H78809   0.146   0.917   6.132  0.4773  0.0916  0.9415
  584MOL0     H78810  -0.075   1.123   6.083  0.0692  1.0863  1.3140
  584MOL0     H78811   0.018   1.105   6.231 -0.9636 -1.0123  0.9594
  584MOL0     H78812  -0.089   0.846   6.205 -2.4889 -0.2830  0.5603
  584MOL0     H78813  -0.110   0.969   6.323 -0.4409  1.4559 -0.1081
  584MOL0     H78814  -0.290   0.909   6.084 -1.1735 -0.1680 -0.1998
  584MOL0     H78815  -0.282   1.068   6.154 -1.8609 -0.7063  0.4118
  584MOL0     H78816  -0.313   0.801   6.299 -0.2926 -1.0871 -1.0779
  584MOL0     H78817  -0.338   0.964   6.379 -0.4069  0.2696 -0.9600
  584MOL0     H78818  -0.514   0.835   6.162  0.1230 -1.2367  1.3024
  584MOL0     H78819  -0.527   0.993   6.228 -1.2387 -0.3847  0.4799
  584MOL0     H78820  -0.563   0.868   6.457 -0.7505  0.6540  0.6342
  584MOL0     H78821  -0.572   0.713   6.357 -2.5594  0.5399  2.2807
  584MOL0     H78822   0.435   1.342   6.089  0.8751  0.5623 -0.5357
  584MOL0     H78823   0.693   1.327   6.045  0.8835 -0.8217  0.0800
  584MOL0     H78824   1.154   1.273   6.148 -0.1957 -1.1167  1.2107
  584MOL0     H78825   1.394   1.251   6.054  0.7246  0.1232 -2.4469
  584MOL0     H78826   2.879   0.975   5.399  0.0744  0.6880 -0.6892
  584MOL0     H78827   3.098   1.015   5.314  1.1731 -1.3204  0.0966
  584MOL0     H78828   3.502   1.142   5.106 -1.6031 -0.4660  1.7346
  584MOL0     H78829   3.765   1.106   5.056  1.3870 -0.6002 -0.2407
  584MOL0     H78830   3.990   0.775   5.189 -2.0352 -0.2080  0.9860
  584MOL0     H78831   3.916   0.704   5.044  0.2500 -0.9407  1.8578
  584MOL0     H78832   4.132   0.701   4.993 -2.2363  0.1133 -1.8108
  584MOL0     H78833   4.172   0.845   5.075 -1.2370 -2.7640  2.7098
  584MOL0     H78834   4.178   0.874   4.817 -0.7287 -1.4844 -0.6599
  584MOL0     H78835   4.064   0.988   4.892  0.2070  0.4155 -0.1529
  584MOL0     H78836   3.879   0.805   4.826 -0.5145  0.3433 -1.4153
  584MOL0     H78837   4.019   0.740   4.742  0.2701  0.1038 -0.6486
  584MOL0     H78838   3.952   1.044   4.474  4.5570  0.5297 -0.9791
  584MOL0     H78839   3.737   0.713   5.192  2.3410  0.5753 -0.6865
  584MOL0     H78840   3.488   0.728   5.205  0.3868 -0.1458  1.8019
  585MOL0     O78841   9.371  10.932   6.714 -0.0495  0.5721  0.2820
  585MOL0     C78842   9.440  10.921   6.610 -0.0535  0.8432  1.0914
  585MOL0     O78843   9.407  10.957   6.482  0.4497 -0.7757 -0.4032
  585MOL0     C78844   9.289  11.023   6.455 -0.1062 -0.3085 -0.1511
  585MOL0     C78845   9.299  11.127   6.367  0.3162 -0.1091  0.3820
  585MOL0     C78846   9.182  11.196   6.322 -1.0736  0.7441  0.8436
  585MOL0     C78847   9.059  11.172   6.390 -0.0012 -0.5748 -0.0257
  585MOL0     O78848   8.961  11.262   6.358  0.0976 -0.5711  0.5122
  585MOL0     C78849   8.828  11.215   6.381 -0.2400 -0.1006 -1.1170
  585MOL0     C78850   8.783  11.107   6.282  0.1260  0.0039 -0.1426
  585MOL0     C78851   8.812  11.140   6.128  0.9476  0.6826 -0.1789
  585MOL0     C78852   8.693  11.221   6.060  0.3301  0.0278  0.2156
  585MOL0     C78853   8.574  11.126   6.029 -0.3536  0.8723 -0.1114
  585MOL0     C78854   8.469  11.198   5.947  0.5314  0.4870 -0.3397
  585MOL0     C78855   8.340  11.116   5.946 -0.6986 -0.7763 -0.3462
  585MOL0     C78856   8.239  11.179   5.848 -0.3087 -0.1258 -1.0106
  585MOL0     N78857   8.122  11.098   5.838  0.4257 -0.2742  0.5805
  585MOL0     C78858   8.107  10.986   5.760  0.2983 -0.6381 -0.1205
  585MOL0     C78859   7.974  10.945   5.778 -0.8187 -0.1965 -0.3038
  585MOL0     C78860   7.910  10.838   5.698 -0.6992 -0.3821 -0.9748
  585MOL0     C78861   7.852  10.903   5.565 -0.7597  0.7307  0.3882
  585MOL0     C78862   7.731  10.989   5.579 -0.2392  0.0729 -0.2307
  585MOL0     C78863   7.621  10.925   5.658  0.8094 -0.7472  0.2283
  585MOL0     O78864   7.576  10.811   5.586 -0.1475  0.2066 -0.3456
  585MOL0     C78865   7.460  10.749   5.631  0.2657  0.3154  0.3159
  585MOL0     C78866   7.410  10.669   5.529 -0.0089  0.0855 -0.3229
  585MOL0     C78867   7.278  10.610   5.541 -0.6785 -0.1160 -0.3814
  585MOL0     C78868   7.223  10.548   5.418  0.7148 -0.5723 -0.0711
  585MOL0     C78869   7.203  10.631   5.655  0.3831 -0.2977  0.1375
  585MOL0     C78870   7.067  10.588   5.690 -0.7117  0.2079 -0.2204
  585MOL0     O78871   7.030  10.579   5.818 -0.0643  0.6581  0.2796
  585MOL0     C78872   6.918  10.521   5.860  0.4874 -0.1657  0.5060
  585MOL0     C78873   6.875  10.560   5.995 -0.4385 -0.1060  1.2954
  585MOL0     C78874   6.755  10.514   6.036  0.7433  0.0043  0.0162
  585MOL0     C78875   6.669  10.433   5.960 -0.3579 -0.1346 -0.3592
  585MOL0     O78876   6.551  10.390   6.019  0.6620 -0.4930  0.4803
  585MOL0     C78877   6.469  10.297   5.957 -0.5935 -0.1716  0.0099
  585MOL0     C78878   6.363  10.239   6.044  0.2989  0.0160  0.3240
  585MOL0     C78879   6.273  10.349   6.094  1.1050  0.3336 -1.2135
  585MOL0     C78880   6.146  10.272   6.149  0.4599  0.0408  0.6935
  585MOL0     C78881   6.029  10.369   6.175 -0.2286  0.0911  0.4810
  585MOL0     C78882   5.904  10.293   6.218 -0.3472  0.3456 -0.2371
  585MOL0     C78883   5.798  10.395   6.263  0.7656 -0.9463  0.8367
  585MOL0     C78884   5.841  10.486   6.383 -0.0549  0.0193 -0.1393
  585MOL0    Cl78885   5.713  10.510   6.500  0.1083  0.1370  0.6113
  585MOL0     C78886   6.714  10.388   5.834 -0.2545  0.2868  0.3352
  585MOL0     C78887   6.835  10.431   5.790 -0.0621 -0.0446  0.6362
  585MOL0     O78888   6.984  10.580   5.595  0.0071  0.0567 -0.2297
  585MOL0     C78889   7.269  10.698   5.761 -0.3177  0.1658  0.3825
  585MOL0     C78890   7.390  10.761   5.749  0.2759  0.5273  0.1318
  585MOL0     N78891   7.915  11.015   5.878 -0.8418 -0.0807 -0.1920
  585MOL0     N78892   8.000  11.105   5.914 -0.2874 -0.4521 -0.5620
  585MOL0     C78893   9.049  11.064   6.483 -0.5632  0.0763 -0.0596
  585MOL0     C78894   9.169  10.991   6.505 -0.2586  0.3628 -0.8131
  585MOL0     C78895   9.569  10.850   6.621 -0.1828 -0.1889 -0.5345
  585MOL0     C78896   9.600  10.776   6.734  0.6136 -0.3614  0.6698
  585MOL0     C78897   9.727  10.720   6.753  0.6307  0.0277  0.1042
  585MOL0     C78898   9.824  10.732   6.655  0.6275  0.0768  0.0859
  585MOL0     O78899   9.941  10.657   6.670  0.4104  0.1050  0.1925
  585MOL0     C78900  10.033  10.651   6.561  0.1548 -0.0347 -0.7941
  585MOL0     C78901  10.002  10.565   6.431 -0.0921  0.3959 -0.0363
  585MOL0     C78902   9.958  10.422   6.471 -0.0394 -0.5644 -0.6563
  585MOL0     C78903  10.046  10.350   6.580  0.8944  0.0778 -0.0408
  585MOL0     C78904  10.181  10.313   6.533  0.2486  0.0445  0.3963
  585MOL0     C78905  10.295  10.277   6.520 -0.8268  0.6863  0.6901
  585MOL0     C78906   9.795  10.815   6.543  0.6106 -0.0287 -0.4255
  585MOL0     C78907   9.666  10.867   6.524 -0.6152 -0.6479  1.1782
  585MOL0     H78908   9.389  11.174   6.331 -0.0108  1.7287  1.8162
  585MOL0     H78909   9.190  11.266   6.239  0.0115 -0.7072 -0.3326
  585MOL0     H78910   8.812  11.162   6.476 -3.5358  0.4099 -1.2761
  585MOL0     H78911   8.764  11.303   6.376 -0.8349 -0.1446  2.8454
  585MOL0     H78912   8.838  11.021   6.321 -0.5614  0.3260  1.6362
  585MOL0     H78913   8.677  11.085   6.296  0.3078  0.6743  2.9722
  585MOL0     H78914   8.907  11.193   6.117  2.7078 -1.7536  2.0814
  585MOL0     H78915   8.827  11.046   6.074  3.2924  1.5462 -1.1832
  585MOL0     H78916   8.645  11.288   6.131 -2.9941 -2.2400  0.3072
  585MOL0     H78917   8.724  11.276   5.971 -0.1763 -0.7956 -0.4893
  585MOL0     H78918   8.608  11.039   5.972  0.0383  0.6731  0.4064
  585MOL0     H78919   8.530  11.091   6.123  0.0335 -2.8405 -1.1584
  585MOL0     H78920   8.460  11.298   5.992  2.4200  0.7178 -0.3814
  585MOL0     H78921   8.505  11.218   5.846  1.2276 -0.4428 -0.2805
  585MOL0     H78922   8.359  11.012   5.919  2.0076  0.1526 -2.5681
  585MOL0     H78923   8.293  11.122   6.044  0.6512 -0.5077  0.3138
  585MOL0     H78924   8.296  11.185   5.755  0.2581 -2.4199 -0.8705
  585MOL0     H78925   8.211  11.273   5.896  0.7800 -1.6082  2.8549
  585MOL0     H78926   8.185  10.941   5.700  1.6124 -1.1021  1.8746
  585MOL0     H78927   7.968  10.751   5.665  1.4696  1.5046 -2.4458
  585MOL0     H78928   7.819  10.804   5.750 -2.9343  2.8472 -2.4624
  585MOL0     H78929   7.831  10.828   5.488 -1.8361  0.9864  0.4199
  585MOL0     H78930   7.933  10.961   5.520  1.4769 -0.3835  2.6954
  585MOL0     H78931   7.707  11.021   5.477 -1.0223  2.5573  0.6505
  585MOL0     H78932   7.769  11.077   5.631  1.4428  0.1847 -1.5832
  585MOL0     H78933   7.536  10.994   5.652  0.4196 -1.3784 -2.5445
  585MOL0     H78934   7.650  10.898   5.760 -0.1079  1.4054  1.1429
  585MOL0     H78935   7.463  10.663   5.434 -0.4656  0.9876 -0.6485
  585MOL0     H78936   7.162  10.460   5.443 -2.8159  1.8964  0.8052
  585MOL0     H78937   7.153  10.623   5.380  3.3010  1.8564 -0.4024
  585MOL0     H78938   7.299  10.533   5.341  2.1747 -2.5791  1.6536
  585MOL0     H78939   6.919  10.639   6.054 -0.4298  0.7444  0.1800
  585MOL0     H78940   6.714  10.547   6.130  0.4320  1.3651 -0.5642
  585MOL0     H78941   6.429  10.342   5.865  0.3363  1.1370  0.2244
  585MOL0     H78942   6.529  10.210   5.927 -1.6529 -0.8428 -0.2430
  585MOL0     H78943   6.302  10.171   5.984 -0.2185 -1.0029  1.9464
  585MOL0     H78944   6.389  10.180   6.132 -1.4111 -0.3519  0.6233
  585MOL0     H78945   6.232  10.410   6.013 -2.1085 -0.3384 -0.2343
  585MOL0     H78946   6.326  10.404   6.172  0.8287 -2.7924  1.3771
  585MOL0     H78947   6.122  10.197   6.073  1.7519  1.4358 -1.1745
  585MOL0     H78948   6.174  10.215   6.238  0.1554 -1.4433 -0.1247
  585MOL0     H78949   6.003  10.441   6.096  0.0624 -1.3588 -0.9842
  585MOL0     H78950   6.063  10.425   6.263 -0.9323 -1.7124  1.9604
  585MOL0     H78951   5.870  10.226   6.138  1.7214 -0.2491 -0.6942
  585MOL0     H78952   5.923  10.231   6.306  0.6968  0.1374 -0.5919
  585MOL0     H78953   5.709  10.337   6.286  1.4167 -3.7770 -2.7872
  585MOL0     H78954   5.780  10.457   6.175  0.0677  1.9054  2.8579
  585MOL0     H78955   5.875  10.584   6.348  1.5478 -0.5615 -0.2836
  585MOL0     H78956   5.921  10.433   6.435  1.4291  1.4054 -0.9093
  585MOL0     H78957   6.658  10.323   5.768  0.1801 -1.2099  1.3790
  585MOL0     H78958   6.865  10.417   5.687  0.2796 -3.8126  1.0842
  585MOL0     H78959   7.214  10.717   5.853 -3.0315  2.3525 -1.5106
  585MOL0     H78960   7.416  10.830   5.828  1.5516 -0.1558  0.3267
  585MOL0     H78961   8.959  11.037   6.537 -0.6202  0.8231  0.2387
  585MOL0     H78962   9.171  10.914   6.582 -0.4716  0.5732 -0.5926
  585MOL0     H78963   9.524  10.778   6.812  0.1903 -0.4337  0.2705
  585MOL0     H78964   9.746  10.653   6.836 -2.6698  0.7148  1.5844
  585MOL0     H78965  10.080  10.745   6.530  0.7503 -0.6704 -1.8514
  585MOL0     H78966  10.119  10.605   6.608 -0.9908 -0.0221  1.4481
  585MOL0     H78967  10.091  10.563   6.368  2.3663 -0.3932  3.1515
  585MOL0     H78968   9.927  10.614   6.368 -0.5076  0.3563  0.4209
  585MOL0     H78969   9.954  10.363   6.379  0.9867 -2.5079  0.4760
  585MOL0     H78970   9.862  10.423   6.523  1.5632  1.8797  2.6448
  585MOL0     H78971  10.000  10.253   6.603 -1.5296  1.2702  0.4506
  585MOL0     H78972  10.043  10.415   6.668  2.5959 -0.3913  0.3857
  585MOL0     H78973  10.394  10.239   6.501 -2.6066 -2.5891 -3.6187
  585MOL0     H78974   9.874  10.826   6.469  2.3068 -2.2812  0.9199
  585MOL0     H78975   9.649  10.919   6.430 -0.7984 -1.7077  0.6069
  586MOL0     O78976   1.191  10.947   4.711 -0.0202  0.6937 -0.1639
  586MOL0     C78977   1.263  11.044   4.740 -0.5989 -0.2689  0.3587
  586MOL0     O78978   1.225  11.175   4.739 -0.9128 -0.5055 -0.0513
  586MOL0     C78979   1.118  11.215   4.668  0.6565 -0.2308 -0.0095
  586MOL0     C78980   1.062  11.150   4.557  0.9030  0.2413  0.7576
  586MOL0     C78981   0.950  11.197   4.487  0.5168 -0.4157  0.8881
  586MOL0     C78982   0.882  11.315   4.534  0.2123 -0.0728 -0.4428
  586MOL0     O78983   0.779  11.372   4.471 -0.2145  0.0528 -0.4606
  586MOL0     C78984   0.675  11.288   4.422 -0.5902  0.1402  0.8443
  586MOL0     C78985   0.561  11.375   4.375  0.3425 -0.0462 -0.0572
  586MOL0     C78986   0.430  11.313   4.329 -0.1611 -0.1144  0.6284
  586MOL0     C78987   0.369  11.205   4.431 -0.3361 -0.3542 -0.3427
  586MOL0     C78988   0.217  11.200   4.415 -1.0523 -0.0932 -0.3927
  586MOL0     C78989   0.170  11.060   4.444 -0.0309  0.0937 -0.5030
  586MOL0     C78990   0.014  11.034   4.430  0.0477 -0.9143 -0.5782
  586MOL0     C78991  -0.073  11.126   4.511 -0.4294 -0.7159  0.0359
  586MOL0     N78992  -0.216  11.087   4.496 -0.1004  0.2583  0.0594
  586MOL0     C78993  -0.317  11.177   4.444 -0.0289 -0.2694 -0.7360
  586MOL0     C78994  -0.419  11.089   4.433 -0.7825 -0.7265  0.2410
  586MOL0     C78995  -0.549  11.128   4.375  0.1605  0.5239  0.4525
  586MOL0     C78996  -0.647  11.011   4.335 -0.6469  1.2113  0.5948
  586MOL0     C78997  -0.624  10.932   4.201 -0.7957 -0.2926 -0.2851
  586MOL0     C78998  -0.758  10.883   4.148  0.6209  1.1823  0.1556
  586MOL0     O78999  -0.847  10.993   4.116  0.2069 -0.5588 -0.5043
  586MOL0     C79000  -0.982  10.958   4.092  0.2539  0.2103  0.2407
  586MOL0     C79001  -1.084  11.051   4.084  0.1497 -0.6390 -0.1711
  586MOL0     C79002  -1.221  11.011   4.066 -0.2520  0.0485 -0.4111
  586MOL0     C79003  -1.324  11.123   4.090 -1.1972 -0.3749  0.1192
  586MOL0     C79004  -1.256  10.873   4.038 -0.4590  0.0128  0.2677
  586MOL0     C79005  -1.386  10.826   4.009  1.0606 -0.0231  0.8115
  586MOL0     O79006  -1.466  10.905   3.935  0.1538  0.7737 -0.0436
  586MOL0     C79007  -1.605  10.898   3.941 -1.2118 -0.5745  0.0800
  586MOL0     C79008  -1.685  10.831   4.037 -0.3992  0.5030 -0.2516
  586MOL0     C79009  -1.821  10.831   4.030  0.0869  1.1281 -0.0339
  586MOL0     C79010  -1.889  10.884   3.924  0.2978 -0.1188 -0.0956
  586MOL0     O79011  -2.021  10.846   3.913 -0.7257 -0.0370 -0.0994
  586MOL0     C79012  -2.124  10.943   3.873  0.1381 -0.3753 -0.8842
  586MOL0     C79013  -2.259  10.881   3.909 -0.2561 -0.3910 -0.5438
  586MOL0     C79014  -2.361  10.993   3.927 -0.0827  0.3417 -0.0853
  586MOL0     C79015  -2.506  10.932   3.950  0.5251  0.0732 -0.0058
  586MOL0     C79016  -2.602  11.049   3.968 -0.0018 -0.2408  0.2015
  586MOL0     C79017  -2.755  11.019   3.958 -1.0119 -0.1320  0.4675
  586MOL0     C79018  -2.807  11.141   3.877  0.1773 -0.3629 -0.2362
  586MOL0     C79019  -2.956  11.134   3.850  1.0384  0.0146 -0.4099
  586MOL0    Cl79020  -3.059  11.157   3.989 -0.1751 -0.4258  0.5026
  586MOL0     C79021  -1.808  10.958   3.837 -0.0006  0.2295  0.4293
  586MOL0     C79022  -1.667  10.967   3.841 -0.1466  0.5334  0.7004
  586MOL0     O79023  -1.419  10.711   4.044 -0.0019 -0.3604  0.4813
  586MOL0     C79024  -1.158  10.783   4.033 -0.3481 -0.1221 -0.1149
  586MOL0     C79025  -1.022  10.822   4.066 -0.6426  0.1879 -0.2638
  586MOL0     N79026  -0.390  10.953   4.456  0.5460 -1.1584 -0.1015
  586MOL0     N79027  -0.265  10.958   4.498 -0.6618 -0.5744 -0.2050
  586MOL0     C79028   0.939  11.383   4.639  0.4994 -0.0061 -0.0526
  586MOL0     C79029   1.049  11.337   4.705  0.5008 -0.0288 -0.1526
  586MOL0     C79030   1.400  11.018   4.776  0.0594  0.0968 -0.0698
  586MOL0     C79031   1.461  10.894   4.767 -0.2999  0.0788  0.3657
  586MOL0     C79032   1.600  10.877   4.792  0.4956  0.2174  1.2343
  586MOL0     C79033   1.675  10.992   4.809 -0.2573 -0.2785  0.2192
  586MOL0     O79034   1.811  10.994   4.827 -0.0817 -0.4023 -0.0350
  586MOL0     C79035   1.886  10.876   4.814  0.6120 -0.4845  0.4022
  586MOL0     C79036   2.026  10.881   4.868 -0.4564 -0.2331 -0.8426
  586MOL0     C79037   2.120  10.981   4.786  0.3234  0.4687  0.4999
  586MOL0     C79038   2.174  10.928   4.652 -0.5339 -0.9868  0.1785
  586MOL0     C79039   2.271  10.816   4.679 -0.8954 -0.2064 -0.3289
  586MOL0     C79040   2.362  10.743   4.697 -0.1485 -0.1329  0.7896
  586MOL0     C79041   1.612  11.111   4.828 -0.0146 -0.3179 -0.5137
  586MOL0     C79042   1.477  11.127   4.819 -0.2214  0.1275  0.0901
  586MOL0     H79043   1.089  11.056   4.509 -0.6150  1.1322 -2.0372
  586MOL0     H79044   0.909  11.143   4.402  2.1493  1.0044 -0.9111
  586MOL0     H79045   0.720  11.232   4.340  0.4939 -0.7565  2.0057
  586MOL0     H79046   0.642  11.208   4.490 -1.2861 -1.3240 -1.1216
  586MOL0     H79047   0.537  11.429   4.466 -1.3013 -2.0433  0.7838
  586MOL0     H79048   0.594  11.442   4.296  0.9640 -1.0782 -0.7059
  586MOL0     H79049   0.357  11.390   4.301  1.3486 -0.0056 -3.8268
  586MOL0     H79050   0.454  11.259   4.237 -1.1539  0.5301 -0.0250
  586MOL0     H79051   0.419  11.108   4.418  0.3587 -0.1429  0.6410
  586MOL0     H79052   0.388  11.238   4.533 -1.7537 -1.8478  0.4566
  586MOL0     H79053   0.175  11.264   4.492  1.4802 -0.6156  1.5784
  586MOL0     H79054   0.184  11.232   4.316 -0.7698  0.6545 -0.2471
  586MOL0     H79055   0.224  10.979   4.394 -1.6023 -1.3517  0.0283
  586MOL0     H79056   0.183  11.049   4.552 -2.9378 -0.7225 -0.1373
  586MOL0     H79057  -0.001  11.048   4.323 -4.3024 -0.1524 -0.0357
  586MOL0     H79058  -0.005  10.932   4.466  3.2780 -0.6483  2.4521
  586MOL0     H79059  -0.058  11.229   4.477  0.0205 -1.5446 -2.4797
  586MOL0     H79060  -0.039  11.105   4.613  2.6279  0.3007 -0.6644
  586MOL0     H79061  -0.310  11.284   4.432 -0.6286 -0.2217 -0.6926
  586MOL0     H79062  -0.602  11.184   4.452 -2.2957 -0.5581 -0.3670
  586MOL0     H79063  -0.556  11.204   4.297 -3.4393  1.5753  1.6025
  586MOL0     H79064  -0.751  11.043   4.330 -1.0622 -0.1831 -0.5074
  586MOL0     H79065  -0.631  10.934   4.410  2.1338  3.5598  2.6560
  586MOL0     H79066  -0.552  10.851   4.211  0.1430  0.7699  2.7647
  586MOL0     H79067  -0.594  10.989   4.112 -2.7536 -2.4750 -2.4969
  586MOL0     H79068  -0.791  10.811   4.223 -0.3254  0.1881 -1.1674
  586MOL0     H79069  -0.741  10.826   4.056 -0.0215 -0.1426  0.8344
  586MOL0     H79070  -1.063  11.155   4.109  0.6871 -0.8306  0.1762
  586MOL0     H79071  -1.377  11.125   3.994 -2.5917 -0.0354  0.8652
  586MOL0     H79072  -1.400  11.097   4.164  0.9446  1.9369  3.4187
  586MOL0     H79073  -1.287  11.223   4.115 -1.6922 -0.3289  0.6658
  586MOL0     H79074  -1.637  10.774   4.116  1.7725 -0.3820 -2.0809
  586MOL0     H79075  -1.879  10.770   4.099 -0.8828  1.5424 -0.4564
  586MOL0     H79076  -2.098  11.038   3.920  3.1233 -2.5622  2.3285
  586MOL0     H79077  -2.139  10.951   3.765 -3.4977 -0.8283 -0.5289
  586MOL0     H79078  -2.289  10.805   3.836  1.6708 -1.1633 -0.5843
  586MOL0     H79079  -2.250  10.827   4.004  0.6806 -0.8431 -0.8827
  586MOL0     H79080  -2.357  11.060   3.841 -1.6102 -0.5772 -0.9091
  586MOL0     H79081  -2.334  11.060   4.010  0.2297  0.4398 -0.2630
  586MOL0     H79082  -2.530  10.887   3.853 -1.3285  1.8331 -0.4268
  586MOL0     H79083  -2.517  10.864   4.035  1.1130 -0.9404 -0.7189
  586MOL0     H79084  -2.575  11.121   3.890 -1.1896 -0.7907 -0.7603
  586MOL0     H79085  -2.581  11.094   4.065 -0.3572 -0.7313  0.5097
  586MOL0     H79086  -2.776  10.936   3.890 -4.5307  0.7280  0.2887
  586MOL0     H79087  -2.801  11.004   4.056 -3.1146  1.2692 -0.2210
  586MOL0     H79088  -2.765  11.149   3.777 -2.5305 -0.1679 -1.4606
  586MOL0     H79089  -2.781  11.239   3.919  0.6041  0.7154 -2.8187
  586MOL0     H79090  -2.984  11.034   3.816  0.5884 -1.4818  3.7886
  586MOL0     H79091  -2.987  11.198   3.767 -3.6522  0.9308  1.7052
  586MOL0     H79092  -1.866  10.996   3.753  0.8093 -0.1220 -0.3105
  586MOL0     H79093  -1.604  11.019   3.769  1.0955 -0.3688  1.0968
  586MOL0     H79094  -1.180  10.683   3.996 -4.5964  0.4963  0.1524
  586MOL0     H79095  -0.943  10.748   4.069  0.7644  1.6629  1.9257
  586MOL0     H79096   0.897  11.477   4.674 -1.8946 -0.8440 -0.4957
  586MOL0     H79097   1.080  11.394   4.792 -2.0942  0.3830  0.6148
  586MOL0     H79098   1.403  10.810   4.728 -0.5487  0.2862  0.2829
  586MOL0     H79099   1.644  10.778   4.787  0.3848  0.1992  0.4886
  586MOL0     H79100   1.841  10.802   4.882  1.6355 -0.5906  0.9795
  586MOL0     H79101   1.886  10.849   4.708  4.0160  1.4843 -0.2220
  586MOL0     H79102   2.067  10.780   4.857 -1.2535 -0.4058 -2.6340
  586MOL0     H79103   2.030  10.902   4.975 -3.3303 -3.5255  0.1168
  586MOL0     H79104   2.210  11.016   4.837  0.5177  0.6564  0.0397
  586MOL0     H79105   2.057  11.061   4.746 -0.4876 -1.2029 -1.7636
  586MOL0     H79106   2.225  11.012   4.604 -1.1290  0.0098  1.2318
  586MOL0     H79107   2.088  10.891   4.596 -0.7634 -2.1284  1.2400
  586MOL0     H79108   2.445  10.675   4.691 -0.3608 -0.3040 -1.0177
  586MOL0     H79109   1.666  11.200   4.858  0.2937 -0.1503 -1.5400
  586MOL0     H79110   1.438  11.227   4.830  0.7852  0.4912  0.5450
  587MOL0     O79111  11.317   4.361   9.281  0.2963  0.3939 -0.0031
  587MOL0     C79112  11.420   4.330   9.219  0.1489  0.4792  0.8637
  587MOL0     O79113  11.425   4.312   9.082  0.0427 -0.5126  0.5783
  587MOL0     C79114  11.308   4.272   9.009  0.3271  0.1537  0.2817
  587MOL0     C79115  11.209   4.350   8.967 -0.5352 -0.1623  0.0798
  587MOL0     C79116  11.093   4.307   8.898  0.6629 -0.0834 -0.6501
  587MOL0     C79117  11.076   4.166   8.870  0.1509  0.2662 -0.1595
  587MOL0     O79118  10.973   4.107   8.811  0.3052  0.0052  0.2307
  587MOL0     C79119  10.895   4.195   8.727  0.4798  0.5018  0.7080
  587MOL0     C79120  10.817   4.120   8.618  0.5870  1.0000 -1.4094
  587MOL0     C79121  10.906   4.083   8.506 -0.6280 -0.1661  0.0200
  587MOL0     C79122  10.834   3.980   8.421  0.3392 -0.6750  0.4214
  587MOL0     C79123  10.870   4.005   8.270 -0.2130  0.3696 -0.2454
  587MOL0     C79124  10.784   3.922   8.187 -0.2986 -0.3595 -0.0745
  587MOL0     C79125  10.642   3.957   8.169 -1.3153 -0.6882  0.2925
  587MOL0     C79126  10.575   3.914   8.045  0.7415  0.5749 -0.3298
  587MOL0     N79127  10.560   3.766   8.055 -0.0177 -0.2122  0.1680
  587MOL0     C79128  10.655   3.672   8.006  0.3188 -0.2589 -1.0435
  587MOL0     C79129  10.593   3.548   8.020  0.6561  0.4202  0.0330
  587MOL0     C79130  10.631   3.410   7.969 -0.2545  0.5669  1.3155
  587MOL0     C79131  10.521   3.298   7.977  0.2900 -0.1460  0.5110
  587MOL0     C79132  10.409   3.312   7.878  0.3316 -0.0921 -0.1150
  587MOL0     C79133  10.313   3.200   7.904  0.5034  0.3015  0.8598
  587MOL0     O79134  10.202   3.212   7.812 -0.0633  1.1390  0.5597
  587MOL0     C79135  10.077   3.166   7.856  0.7116  0.8118 -0.1110
  587MOL0     C79136   9.970   3.169   7.767 -0.3298 -0.4755  0.7674
  587MOL0     C79137   9.839   3.128   7.783 -0.0910 -0.3822 -0.5354
  587MOL0     C79138   9.744   3.154   7.675  0.3088 -0.5926  0.1116
  587MOL0     C79139   9.810   3.063   7.910  0.0388  0.4643  0.4493
  587MOL0     C79140   9.682   3.008   7.936 -0.3278  0.1152  0.0388
  587MOL0     O79141   9.635   2.927   7.834  0.1029  0.6304  0.1450
  587MOL0     C79142   9.522   2.856   7.867 -0.2345  0.4462 -0.3230
  587MOL0     C79143   9.396   2.894   7.831 -0.0074  0.3685  0.4985
  587MOL0     C79144   9.289   2.815   7.861  0.4739  0.1347  0.4272
  587MOL0     C79145   9.298   2.705   7.943  0.7044  0.9169  0.5488
  587MOL0     O79146   9.185   2.623   7.969 -0.0625 -0.5084  0.3161
  587MOL0     C79147   9.196   2.549   8.097 -0.5066  0.5190  0.5595
  587MOL0     C79148   9.063   2.508   8.157  0.2610 -0.0464 -0.2357
  587MOL0     C79149   8.954   2.612   8.152 -0.5642 -0.6056 -0.0187
  587MOL0     C79150   8.822   2.566   8.208  0.2180 -0.0471 -0.1971
  587MOL0     C79151   8.703   2.640   8.141  0.4077 -0.0023 -0.3311
  587MOL0     C79152   8.695   2.791   8.197 -0.2851 -0.0323 -0.0226
  587MOL0     C79153   8.598   2.809   8.323  0.2381  0.7823  0.6060
  587MOL0     C79154   8.640   2.922   8.409  0.0476 -0.1753  0.7917
  587MOL0    Cl79155   8.525   2.933   8.543  0.0187  0.2065  0.2521
  587MOL0     C79156   9.420   2.651   7.968  0.6383 -0.1019  0.3810
  587MOL0     C79157   9.532   2.722   7.928 -0.6251 -0.7375  0.4264
  587MOL0     O79158   9.623   3.035   8.039  0.0770  0.1669  0.0560
  587MOL0     C79159   9.912   3.054   8.002 -0.7457 -0.6182 -0.6816
  587MOL0     C79160  10.037   3.117   7.982 -0.3854  0.2202 -0.1941
  587MOL0     N79161  10.467   3.576   8.076 -0.0514 -0.0874 -0.3177
  587MOL0     N79162  10.445   3.704   8.082  0.1220 -0.7381 -0.1626
  587MOL0     C79163  11.179   4.080   8.914 -0.1404  0.6400  1.0214
  587MOL0     C79164  11.290   4.137   8.975  0.5450  0.5453 -0.2288
  587MOL0     C79165  11.552   4.352   9.292  0.2810  0.6065 -0.2984
  587MOL0     C79166  11.679   4.334   9.236 -0.0739 -0.6463 -0.1219
  587MOL0     C79167  11.790   4.323   9.316  0.8714  1.0941 -0.5849
  587MOL0     C79168  11.788   4.348   9.454  0.7323 -0.1583 -1.0451
  587MOL0     O79169  11.895   4.342   9.538  0.0149  0.3672  0.3904
  587MOL0     C79170  12.024   4.296   9.484 -0.4965  1.0128 -0.1927
  587MOL0     C79171  12.116   4.267   9.607 -0.2488 -0.5837 -0.7097
  587MOL0     C79172  12.054   4.161   9.703  0.6859  0.8812 -0.0869
  587MOL0     C79173  12.155   4.100   9.802 -0.7182  0.0134 -0.5478
  587MOL0     C79174  12.231   4.200   9.874  0.2086 -0.2622  1.0509
  587MOL0     C79175  12.300   4.283   9.931  0.1185 -0.1871  0.7161
  587MOL0     C79176  11.664   4.376   9.511 -0.0818 -0.3005  0.6368
  587MOL0     C79177  11.552   4.377   9.429 -0.1145  0.1988  0.6774
  587MOL0     H79178  11.213   4.452   9.004 -0.0523  0.3184 -1.2382
  587MOL0     H79179  11.016   4.377   8.868 -2.5436 -0.7046  4.6955
  587MOL0     H79180  10.833   4.255   8.794 -0.9715 -2.9916  2.8129
  587MOL0     H79181  10.968   4.255   8.672  1.8830 -2.8338 -1.4135
  587MOL0     H79182  10.772   4.028   8.655  2.1515  1.1839  1.1646
  587MOL0     H79183  10.729   4.177   8.588 -0.9064 -1.0649 -1.1853
  587MOL0     H79184  10.929   4.172   8.447 -0.6962 -1.4101 -1.9680
  587MOL0     H79185  11.002   4.045   8.542 -0.4999  0.4477  0.3336
  587MOL0     H79186  10.865   3.876   8.424  1.4123 -0.4542 -1.6346
  587MOL0     H79187  10.726   3.990   8.440  0.0929 -2.0124 -0.2003
  587MOL0     H79188  10.860   4.110   8.239  0.5587 -0.0229 -1.8989
  587MOL0     H79189  10.972   3.973   8.250 -1.2190 -1.9839 -2.1026
  587MOL0     H79190  10.830   3.927   8.088 -0.1309  0.9746  0.0548
  587MOL0     H79191  10.784   3.817   8.217 -1.2329 -0.4343 -0.3090
  587MOL0     H79192  10.595   3.939   8.266  2.5835  3.7515  3.5002
  587MOL0     H79193  10.641   4.067   8.173  1.6406 -0.6066  1.2236
  587MOL0     H79194  10.633   3.938   7.956  1.6297 -1.2331 -0.2900
  587MOL0     H79195  10.471   3.950   8.048  0.1666 -1.0535  1.0729
  587MOL0     H79196  10.752   3.689   7.959  1.2244 -0.2087  0.7569
  587MOL0     H79197  10.669   3.424   7.867  1.6693 -0.7465  1.7923
  587MOL0     H79198  10.716   3.372   8.026 -0.4700 -2.0040  0.0755
  587MOL0     H79199  10.486   3.302   8.080  0.8574 -1.9047  0.8039
  587MOL0     H79200  10.563   3.198   7.964 -1.9953 -0.8935 -1.8552
  587MOL0     H79201  10.426   3.308   7.770 -1.9459  1.0460 -0.5597
  587MOL0     H79202  10.365   3.411   7.892 -2.7117 -0.8183 -3.2262
  587MOL0     H79203  10.278   3.207   8.007  1.1368 -0.5283  1.1457
  587MOL0     H79204  10.360   3.102   7.887 -3.2810 -1.2266 -2.2029
  587MOL0     H79205   9.977   3.213   7.668 -1.1384 -0.3717  0.7489
  587MOL0     H79206   9.644   3.174   7.714 -0.2335 -3.7117  0.5976
  587MOL0     H79207   9.771   3.236   7.607  0.6392 -1.0123 -0.2788
  587MOL0     H79208   9.736   3.075   7.599 -3.1474  0.9994 -1.3761
  587MOL0     H79209   9.376   2.985   7.776 -4.4946  0.2877  1.5895
  587MOL0     H79210   9.191   2.846   7.824  0.0071 -0.0503  1.4657
  587MOL0     H79211   9.246   2.453   8.080 -4.8045 -1.8473 -0.1658
  587MOL0     H79212   9.249   2.603   8.176 -0.3727 -1.2790  1.7604
  587MOL0     H79213   9.026   2.416   8.112  1.9464  0.3239 -2.5772
  587MOL0     H79214   9.068   2.498   8.266 -2.0217 -0.4431 -0.1196
  587MOL0     H79215   8.946   2.649   8.049  0.7882  1.0092  0.4033
  587MOL0     H79216   8.989   2.696   8.214 -1.5667  0.3549 -0.7288
  587MOL0     H79217   8.811   2.458   8.197  0.0280  0.1529 -2.3604
  587MOL0     H79218   8.829   2.598   8.312 -1.9698  0.9653 -0.3083
  587MOL0     H79219   8.610   2.588   8.163  1.3728 -1.6257  0.0638
  587MOL0     H79220   8.720   2.638   8.033  1.2303  3.2852 -0.3710
  587MOL0     H79221   8.794   2.822   8.233 -0.4040  0.1092  0.1881
  587MOL0     H79222   8.657   2.860   8.122 -2.6727 -0.9405  0.2737
  587MOL0     H79223   8.597   2.711   8.372  1.6775  0.8104  0.7188
  587MOL0     H79224   8.495   2.833   8.293 -0.9445 -0.2734  3.4681
  587MOL0     H79225   8.642   3.016   8.353  1.4472  0.0455  1.1774
  587MOL0     H79226   8.742   2.908   8.446 -0.1618 -0.3760  1.2971
  587MOL0     H79227   9.454   2.556   8.007  2.5526  0.5450  0.4256
  587MOL0     H79228   9.632   2.684   7.947  0.8171  1.5911 -1.8008
  587MOL0     H79229   9.887   2.995   8.090 -1.2984 -1.2507 -1.2463
  587MOL0     H79230  10.114   3.108   8.058  0.0844 -0.4429 -0.7365
  587MOL0     H79231  11.167   3.974   8.891 -1.5649  1.2166 -1.1598
  587MOL0     H79232  11.364   4.069   9.015 -0.1709 -0.5342 -0.7071
  587MOL0     H79233  11.688   4.325   9.128 -2.9381 -1.9509 -0.3379
  587MOL0     H79234  11.885   4.319   9.264  1.2471 -0.7809  0.1741
  587MOL0     H79235  12.010   4.206   9.424 -1.3312  1.1165 -0.1771
  587MOL0     H79236  12.070   4.372   9.421 -0.3325 -0.7103 -2.2426
  587MOL0     H79237  12.135   4.357   9.667 -0.4080  2.4227 -4.7452
  587MOL0     H79238  12.212   4.229   9.573  1.0404  2.2007 -0.4613
  587MOL0     H79239  11.997   4.090   9.643 -1.4234  1.5607  1.0186
  587MOL0     H79240  11.971   4.201   9.761  0.5956 -2.3262  2.2937
  587MOL0     H79241  12.215   4.024   9.751 -3.6042 -1.8891 -1.3749
  587MOL0     H79242  12.115   4.032   9.878  0.7551  2.0484  2.2228
  587MOL0     H79243  12.358   4.364   9.970  1.0429  0.3138 -1.5905
  587MOL0     H79244  11.648   4.410   9.613 -2.4756  2.1613 -0.4594
  587MOL0     H79245  11.453   4.390   9.473 -0.6971  0.1518 -0.5828
  588MOL0     O79246   1.071   4.193   9.108  0.3354  0.7079  0.8835
  588MOL0     C79247   1.153   4.228   9.023  0.4698 -0.4310 -0.0078
  588MOL0     O79248   1.115   4.268   8.894 -0.0082  0.1249  0.1772
  588MOL0     C79249   0.982   4.279   8.866 -0.0233  0.3402 -0.3124
  588MOL0     C79250   0.938   4.409   8.830  0.6274  0.3410  0.0134
  588MOL0     C79251   0.795   4.430   8.821  1.2140 -0.2470  0.6815
  588MOL0     C79252   0.702   4.317   8.840 -0.0422  0.9921  0.9500
  588MOL0     O79253   0.560   4.311   8.835 -0.6171  0.3495 -1.1151
  588MOL0     C79254   0.512   4.448   8.828  0.7086 -0.3244  0.3709
  588MOL0     C79255   0.360   4.448   8.825  0.6214 -0.0564 -0.5241
  588MOL0     C79256   0.310   4.391   8.693  0.0236  0.1840 -0.3978
  588MOL0     C79257   0.155   4.387   8.707  0.3101  0.6541 -0.0448
  588MOL0     C79258   0.103   4.348   8.571 -0.5403  0.1483  0.3685
  588MOL0     C79259  -0.044   4.381   8.552 -0.3420  0.1741 -0.1719
  588MOL0     C79260  -0.086   4.350   8.409 -0.0906  0.0783 -0.0613
  588MOL0     C79261  -0.220   4.412   8.372 -0.6001  0.3058 -0.3496
  588MOL0     N79262  -0.272   4.376   8.241 -0.9907  0.1249  0.3641
  588MOL0     C79263  -0.381   4.435   8.194 -0.1487  0.2847 -0.7557
  588MOL0     C79264  -0.430   4.352   8.097 -0.0358  0.9599  0.0383
  588MOL0     C79265  -0.563   4.372   8.022 -0.1430 -0.5713 -1.0157
  588MOL0     C79266  -0.588   4.267   7.917  0.5472  0.8393 -0.4004
  588MOL0     C79267  -0.709   4.299   7.828  0.3692  0.6574 -0.0233
  588MOL0     C79268  -0.848   4.251   7.874  0.0644  0.3996 -1.5978
  588MOL0     O79269  -0.937   4.279   7.762  0.3492  0.3832 -0.5463
  588MOL0     C79270  -1.069   4.304   7.785 -0.6971  0.4033 -0.3487
  588MOL0     C79271  -1.108   4.405   7.872 -0.3811 -0.0144 -0.0233
  588MOL0     C79272  -1.243   4.442   7.881  0.4317 -0.5527 -0.2524
  588MOL0     C79273  -1.283   4.542   7.990 -0.7289  0.0985  0.3639
  588MOL0     C79274  -1.341   4.388   7.791  0.0342 -1.2778 -0.3737
  588MOL0     C79275  -1.479   4.440   7.783  0.7553 -0.4537  0.3968
  588MOL0     O79276  -1.567   4.367   7.706  0.5227  0.0656  0.2915
  588MOL0     C79277  -1.698   4.397   7.717  0.8616  0.3701 -0.3375
  588MOL0     C79278  -1.777   4.289   7.753 -0.0585 -1.7114  0.2615
  588MOL0     C79279  -1.912   4.299   7.768  0.8320  0.6467  0.5380
  588MOL0     C79280  -1.978   4.421   7.764  0.2342 -0.1959  0.8110
  588MOL0     O79281  -2.113   4.425   7.793 -0.0772  0.1303  0.1932
  588MOL0     C79282  -2.191   4.528   7.726  0.9973  1.3286  0.1000
  588MOL0     C79283  -2.334   4.481   7.723  0.6401  0.0560 -0.1438
  588MOL0     C79284  -2.425   4.582   7.661 -0.6440  0.6915 -0.3793
  588MOL0     C79285  -2.558   4.507   7.618  0.6605 -0.3452 -0.0640
  588MOL0     C79286  -2.661   4.594   7.551 -0.0791  0.2564 -0.2344
  588MOL0     C79287  -2.792   4.513   7.529 -0.2343  0.0688  1.0264
  588MOL0     C79288  -2.874   4.579   7.421  0.1842 -0.4263 -0.1929
  588MOL0     C79289  -2.966   4.481   7.350  0.4369  0.7537 -0.1893
  588MOL0    Cl79290  -3.089   4.397   7.451 -0.2337  0.0475 -0.0442
  588MOL0     C79291  -1.902   4.533   7.725  0.1999 -0.4979  0.5004
  588MOL0     C79292  -1.762   4.524   7.703 -0.7281 -0.5483 -0.1725
  588MOL0     O79293  -1.523   4.524   7.858  0.6861 -0.7206  0.5698
  588MOL0     C79294  -1.298   4.284   7.704 -0.2146 -0.4836 -0.0426
  588MOL0     C79295  -1.166   4.239   7.705  1.0137 -0.2724  0.5902
  588MOL0     N79296  -0.334   4.253   8.074  0.5495 -0.3299 -0.0815
  588MOL0     N79297  -0.239   4.271   8.161 -0.3602  0.9695 -0.3284
  588MOL0     C79298   0.756   4.190   8.873 -0.0047  0.0696  0.1564
  588MOL0     C79299   0.895   4.177   8.879  1.9482  0.3062 -0.3106
  588MOL0     C79300   1.296   4.229   9.045 -0.0651 -0.4274 -0.6429
  588MOL0     C79301   1.350   4.172   9.163 -0.3297  0.1764 -1.1623
  588MOL0     C79302   1.488   4.178   9.193 -0.5877 -0.0477 -0.0439
  588MOL0     C79303   1.575   4.243   9.109  0.5660  0.8653 -0.2197
  588MOL0     O79304   1.712   4.252   9.131  0.4458  1.2817 -0.2698
  588MOL0     C79305   1.774   4.166   9.226  0.4568 -0.4092 -0.0982
  588MOL0     C79306   1.779   4.019   9.186 -0.4801  0.7324  0.0804
  588MOL0     C79307   1.920   3.965   9.224 -0.0985 -0.3393 -0.3832
  588MOL0     C79308   2.005   3.927   9.099 -0.3752 -0.0860 -0.3236
  588MOL0     C79309   2.145   3.890   9.133  0.1742  0.8327 -0.1812
  588MOL0     C79310   2.263   3.848   9.148 -0.2809 -0.2262 -0.8076
  588MOL0     C79311   1.521   4.298   8.993  0.7671  0.8151  0.7040
  588MOL0     C79312   1.384   4.301   8.965 -0.0358  0.2575 -0.5603
  588MOL0     H79313   1.011   4.488   8.827  2.4809 -1.3305 -1.9464
  588MOL0     H79314   0.755   4.530   8.806 -2.2379 -1.7219 -1.2657
  588MOL0     H79315   0.533   4.498   8.922 -0.1347 -0.5055  0.6685
  588MOL0     H79316   0.552   4.508   8.746 -2.1169  1.6113  0.2938
  588MOL0     H79317   0.321   4.390   8.910 -0.1329  0.0734 -0.7703
  588MOL0     H79318   0.321   4.549   8.837 -4.7125 -1.9221  0.8483
  588MOL0     H79319   0.349   4.444   8.605 -0.9070 -1.7584 -2.0817
  588MOL0     H79320   0.347   4.289   8.681  0.2560  0.2414 -0.1580
  588MOL0     H79321   0.125   4.315   8.783 -0.5414 -1.0312 -1.8765
  588MOL0     H79322   0.113   4.479   8.747  1.3417  0.1722  2.3056
  588MOL0     H79323   0.151   4.422   8.505  3.7587 -0.1883  2.7872
  588MOL0     H79324   0.132   4.245   8.548 -0.5622 -0.0621  1.2527
  588MOL0     H79325  -0.096   4.312   8.619  2.3010  0.1166  1.9990
  588MOL0     H79326  -0.065   4.485   8.577  0.8516  0.1968  0.8563
  588MOL0     H79327  -0.018   4.393   8.335 -1.2400  1.7987 -0.1918
  588MOL0     H79328  -0.098   4.241   8.403  2.4507 -0.1949 -1.5463
  588MOL0     H79329  -0.218   4.521   8.381  1.7729  0.4026 -1.2935
  588MOL0     H79330  -0.292   4.369   8.443  0.5014 -2.1222 -0.5824
  588MOL0     H79331  -0.430   4.525   8.230  0.9269  1.0761 -1.2037
  588MOL0     H79332  -0.648   4.382   8.089  0.2742  2.1750 -0.7877
  588MOL0     H79333  -0.566   4.475   7.986 -3.8121  1.6164  4.3035
  588MOL0     H79334  -0.595   4.166   7.960  1.2588  2.7590  4.9774
  588MOL0     H79335  -0.515   4.266   7.835 -0.2587  0.3494 -1.1278
  588MOL0     H79336  -0.686   4.254   7.731  0.0110  2.1579 -0.8389
  588MOL0     H79337  -0.723   4.406   7.816 -2.4102  0.3007 -0.8189
  588MOL0     H79338  -0.868   4.292   7.974 -2.1809 -1.6654 -1.1212
  588MOL0     H79339  -0.852   4.143   7.890  0.5363  0.5336 -0.5265
  588MOL0     H79340  -1.037   4.447   7.942 -0.6684  0.1264  0.1812
  588MOL0     H79341  -1.205   4.541   8.068 -0.3943 -0.9168  0.0344
  588MOL0     H79342  -1.291   4.643   7.949 -0.5318  1.6706  3.7685
  588MOL0     H79343  -1.380   4.528   8.038 -0.1929 -0.8592  1.2021
  588MOL0     H79344  -1.738   4.190   7.772 -1.0405 -2.2273 -0.3223
  588MOL0     H79345  -1.953   4.206   7.805  3.9173 -0.1316  2.4430
  588MOL0     H79346  -2.184   4.621   7.784  0.6118  1.3771  0.0688
  588MOL0     H79347  -2.170   4.539   7.619 -4.8549  2.4408 -1.2812
  588MOL0     H79348  -2.338   4.383   7.674 -0.2328  0.1594 -0.2867
  588MOL0     H79349  -2.366   4.478   7.828 -0.3488 -0.8707 -0.4487
  588MOL0     H79350  -2.370   4.613   7.572  0.2020 -1.3097 -0.6014
  588MOL0     H79351  -2.446   4.668   7.726 -1.2896 -0.5254  1.0866
  588MOL0     H79352  -2.523   4.422   7.558  1.8853 -1.4302  2.0713
  588MOL0     H79353  -2.604   4.458   7.705 -3.0053 -1.5314 -2.4376
  588MOL0     H79354  -2.612   4.631   7.461  0.1257  0.0758 -0.1995
  588MOL0     H79355  -2.683   4.677   7.619  0.0543  0.5606 -0.5586
  588MOL0     H79356  -2.756   4.418   7.488 -1.9960  0.7925 -2.6850
  588MOL0     H79357  -2.848   4.493   7.620 -2.0627 -0.7837 -0.2249
  588MOL0     H79358  -2.808   4.628   7.349  1.5296 -2.0318 -0.0977
  588MOL0     H79359  -2.934   4.655   7.474  1.1373 -0.4673  0.9918
  588MOL0     H79360  -2.905   4.399   7.311 -0.2587 -0.5126  1.2525
  588MOL0     H79361  -2.987   4.509   7.247  1.1484 -2.0884 -1.2072
  588MOL0     H79362  -1.951   4.630   7.726 -0.7690 -0.9789  1.6091
  588MOL0     H79363  -1.705   4.608   7.667  0.2588 -1.5589 -1.0334
  588MOL0     H79364  -1.368   4.235   7.637 -0.4440  0.5230 -0.5440
  588MOL0     H79365  -1.128   4.171   7.629  0.7347  2.7042 -2.4266
  588MOL0     H79366   0.683   4.110   8.870  0.2073 -0.2545  2.3538
  588MOL0     H79367   0.928   4.076   8.904 -1.6496 -0.7441  0.8363
  588MOL0     H79368   1.274   4.123   9.224 -0.2775  0.9858 -0.4181
  588MOL0     H79369   1.522   4.135   9.287 -1.5803 -1.9087 -0.5001
  588MOL0     H79370   1.875   4.200   9.252  0.1414  1.0831 -0.7167
  588MOL0     H79371   1.732   4.181   9.326 -0.4120  1.6195 -0.7053
  588MOL0     H79372   1.762   4.000   9.079  4.7536  0.4859 -0.9965
  588MOL0     H79373   1.712   3.961   9.249 -1.0674  1.2174 -0.0855
  588MOL0     H79374   1.894   3.882   9.291 -1.5768  0.0932 -0.3764
  588MOL0     H79375   1.975   4.035   9.287 -2.0291  0.8377  0.0893
  588MOL0     H79376   2.005   4.011   9.029 -2.5602  0.7710  0.6315
  588MOL0     H79377   1.960   3.838   9.053  0.3880  0.3746 -2.0638
  588MOL0     H79378   2.349   3.786   9.161 -2.5051 -3.5839 -0.6976
  588MOL0     H79379   1.587   4.332   8.913  2.6522  2.1312  2.6924
  588MOL0     H79380   1.353   4.352   8.874 -1.5138  0.6964  0.1637
  589MOL0     O79381   5.578   7.381   2.826  0.5057 -0.3070  0.1003
  589MOL0     C79382   5.649   7.320   2.893 -1.2869 -0.0106 -0.2521
  589MOL0     O79383   5.618   7.248   3.009  0.4885  0.1035 -0.2967
  589MOL0     C79384   5.497   7.292   3.070 -0.7569  0.3995  0.7625
  589MOL0     C79385   5.426   7.196   3.140 -0.0726 -0.0493  0.7345
  589MOL0     C79386   5.309   7.231   3.209  0.1733  0.2689 -0.8817
  589MOL0     C79387   5.256   7.355   3.200  0.3985 -0.4763 -0.6053
  589MOL0     O79388   5.129   7.383   3.252 -0.7424 -0.0058 -0.3858
  589MOL0     C79389   5.073   7.519   3.256  0.1980  0.5917  0.6330
  589MOL0     C79390   4.971   7.523   3.368  0.5970  0.0111 -0.6339
  589MOL0     C79391   4.836   7.448   3.329  0.7413 -0.0951 -0.3036
  589MOL0     C79392   4.736   7.453   3.439 -0.1199 -0.6624  0.1828
  589MOL0     C79393   4.605   7.391   3.392  0.4421  1.2074 -0.5742
  589MOL0     C79394   4.484   7.457   3.460 -0.6412  0.5478 -0.1530
  589MOL0     C79395   4.367   7.384   3.400  0.1119 -0.6819 -0.5496
  589MOL0     C79396   4.251   7.388   3.499  0.0161 -0.0085 -0.2955
  589MOL0     N79397   4.150   7.302   3.460  0.7397  0.4330  0.3415
  589MOL0     C79398   4.092   7.197   3.533  0.5414 -0.2764  0.4024
  589MOL0     C79399   3.991   7.147   3.458  0.2872 -0.1752 -1.0914
  589MOL0     C79400   3.903   7.027   3.498  0.3190  0.5678 -0.6470
  589MOL0     C79401   3.758   7.062   3.466  0.2440  0.3839  0.3022
  589MOL0     C79402   3.665   6.941   3.507 -0.2984  0.0314 -0.0799
  589MOL0     C79403   3.525   6.995   3.491 -0.1382 -0.5672  0.0579
  589MOL0     O79404   3.476   6.985   3.358 -0.6543 -0.6567 -0.2616
  589MOL0     C79405   3.340   6.982   3.338 -0.3314 -0.0255  0.1263
  589MOL0     C79406   3.297   6.981   3.206  0.5303 -0.8043  0.8874
  589MOL0     C79407   3.161   7.005   3.171  0.1252  0.0826  0.1489
  589MOL0     C79408   3.123   7.012   3.021  0.7224 -0.5768 -0.4143
  589MOL0     C79409   3.068   7.023   3.275  0.3377  0.3356 -0.2075
  589MOL0     C79410   2.924   7.034   3.256  0.1180 -0.8774 -0.3674
  589MOL0     O79411   2.851   6.980   3.363  0.3209  0.0931  0.2496
  589MOL0     C79412   2.716   6.966   3.337  0.2519  0.3819 -0.8381
  589MOL0     C79413   2.659   6.858   3.268  0.3902 -0.3936 -0.5467
  589MOL0     C79414   2.519   6.842   3.255  0.3055  0.5789 -0.2326
  589MOL0     C79415   2.435   6.922   3.328 -0.0118 -0.2580 -0.7287
  589MOL0     O79416   2.300   6.891   3.318 -0.4863  0.2833 -0.5131
  589MOL0     C79417   2.204   6.956   3.393  0.2123 -0.1351  0.8510
  589MOL0     C79418   2.157   7.087   3.336  0.6495 -0.8540 -0.1268
  589MOL0     C79419   2.031   7.145   3.417 -0.5726 -0.7806  0.1807
  589MOL0     C79420   1.968   7.261   3.349  0.9604  1.0792  0.2559
  589MOL0     C79421   1.857   7.317   3.441 -0.0929  0.3976  0.1047
  589MOL0     C79422   1.743   7.387   3.367  0.5511 -0.4666  0.1530
  589MOL0     C79423   1.642   7.451   3.460  0.2954  0.0826  0.2275
  589MOL0     C79424   1.580   7.362   3.558  0.7242  0.6315 -0.1357
  589MOL0    Cl79425   1.425   7.443   3.607 -0.2638  0.0301 -0.1750
  589MOL0     C79426   2.491   7.030   3.396 -0.3630 -0.1502  0.0390
  589MOL0     C79427   2.632   7.054   3.402 -0.1314  0.0303  1.4680
  589MOL0     O79428   2.872   7.084   3.156 -0.1519 -0.3419  0.7096
  589MOL0     C79429   3.115   7.003   3.411  0.8184 -0.3414 -0.1100
  589MOL0     C79430   3.246   6.985   3.444 -0.3073 -1.0049 -0.3797
  589MOL0     N79431   3.987   7.219   3.344 -0.4953 -0.1439 -0.2397
  589MOL0     N79432   4.081   7.311   3.350 -0.5170  0.0632  0.0086
  589MOL0     C79433   5.335   7.456   3.137  0.6233  0.0644  0.1030
  589MOL0     C79434   5.452   7.423   3.074 -0.0977 -0.1282 -0.0190
  589MOL0     C79435   5.789   7.282   2.852  0.2659 -0.0181 -0.5298
  589MOL0     C79436   5.882   7.248   2.950 -0.3178  0.1108  0.1477
  589MOL0     C79437   6.019   7.216   2.912  0.7654  0.1564  0.1853
  589MOL0     C79438   6.059   7.227   2.777  0.6582 -0.5805 -0.1546
  589MOL0     O79439   6.191   7.206   2.754 -0.8126 -0.1764 -0.1399
  589MOL0     C79440   6.239   7.256   2.630 -0.4944 -0.2238 -0.3531
  589MOL0     C79441   6.240   7.149   2.524 -0.1849  0.2854 -0.1323
  589MOL0     C79442   6.247   7.000   2.567 -0.0438 -0.1677 -0.9786
  589MOL0     C79443   6.364   6.971   2.665  0.8195  0.6097  0.0118
  589MOL0     C79444   6.492   7.002   2.594  0.1115  0.7351 -0.0394
  589MOL0     C79445   6.591   7.042   2.537  0.5393  0.9243 -0.3339
  589MOL0     C79446   5.957   7.268   2.680  0.4734  0.1602 -0.4332
  589MOL0     C79447   5.820   7.287   2.716  0.6736  0.7489 -0.4034
  589MOL0     H79448   5.478   7.102   3.122  1.6897  1.1297 -0.5903
  589MOL0     H79449   5.259   7.151   3.262 -0.5899 -0.8838 -3.1847
  589MOL0     H79450   5.152   7.593   3.273  0.1671  1.1282 -1.3197
  589MOL0     H79451   5.028   7.543   3.159 -0.7340 -0.2211  0.8584
  589MOL0     H79452   5.010   7.470   3.455 -2.6680 -0.3008  0.7572
  589MOL0     H79453   4.955   7.628   3.393 -1.8853 -0.0423 -1.7056
  589MOL0     H79454   4.806   7.506   3.241  0.6649 -1.0434 -0.9269
  589MOL0     H79455   4.866   7.349   3.292  0.9068  0.2603 -1.1403
  589MOL0     H79456   4.761   7.407   3.535  0.3395 -2.0866 -0.5894
  589MOL0     H79457   4.726   7.557   3.470 -1.1657 -0.1539 -1.6766
  589MOL0     H79458   4.586   7.388   3.285  1.6377 -2.7774 -0.8460
  589MOL0     H79459   4.613   7.286   3.423 -3.2960  1.3530  1.3544
  589MOL0     H79460   4.489   7.443   3.568  0.7258 -0.7881 -0.3634
  589MOL0     H79461   4.483   7.566   3.446 -1.9500  0.6885  0.8453
  589MOL0     H79462   4.339   7.430   3.305 -0.0936 -0.5091 -0.4047
  589MOL0     H79463   4.394   7.279   3.387  1.8368 -1.0003  3.7311
  589MOL0     H79464   4.210   7.489   3.508 -0.2292  0.0277 -1.6115
  589MOL0     H79465   4.297   7.360   3.595 -0.1653 -1.4057 -0.5976
  589MOL0     H79466   4.125   7.166   3.632  2.0179 -0.3989 -0.1134
  589MOL0     H79467   3.941   6.950   3.431 -1.2040  0.4227 -1.3850
  589MOL0     H79468   3.915   7.000   3.603 -0.3102  1.0653 -0.4370
  589MOL0     H79469   3.747   7.066   3.358 -0.2195 -2.0621  0.1838
  589MOL0     H79470   3.724   7.156   3.509  0.1061  0.7191 -0.5396
  589MOL0     H79471   3.670   6.918   3.614 -2.4769  0.4614  0.1782
  589MOL0     H79472   3.684   6.852   3.447 -3.0305  0.1719 -1.3114
  589MOL0     H79473   3.521   7.099   3.523 -0.1323  0.0422 -1.8356
  589MOL0     H79474   3.470   6.929   3.560  0.0068 -0.6306  0.1132
  589MOL0     H79475   3.375   6.967   3.131 -0.6982  1.4528 -0.9502
  589MOL0     H79476   3.074   7.109   3.009  0.1564 -0.5441  1.7503
  589MOL0     H79477   3.208   7.019   2.953  1.0348  2.4076  0.1433
  589MOL0     H79478   3.049   6.937   2.991  1.4383 -0.7794 -1.7444
  589MOL0     H79479   2.718   6.792   3.205  3.2414 -0.6695  2.1785
  589MOL0     H79480   2.488   6.771   3.179 -0.0025  1.3083 -0.8007
  589MOL0     H79481   2.115   6.893   3.386 -0.4881  0.8189  1.0608
  589MOL0     H79482   2.225   6.966   3.499 -1.2387  0.6502  1.0855
  589MOL0     H79483   2.232   7.167   3.340  1.4494 -1.6449  1.4037
  589MOL0     H79484   2.127   7.076   3.231 -0.8039 -1.0046  0.2896
  589MOL0     H79485   2.072   7.182   3.511 -3.0638  0.6662  0.7775
  589MOL0     H79486   1.963   7.064   3.445  0.4768 -1.1561  1.7502
  589MOL0     H79487   2.047   7.330   3.320  1.9552  0.5966  1.6666
  589MOL0     H79488   1.926   7.220   3.257  0.4281  0.2893  0.8335
  589MOL0     H79489   1.900   7.390   3.511  0.7994  0.4590 -0.5008
  589MOL0     H79490   1.809   7.235   3.495  0.6851  1.7493  3.0829
  589MOL0     H79491   1.780   7.473   3.311  0.5698  0.8793  2.1443
  589MOL0     H79492   1.695   7.317   3.299 -0.1597  2.1179 -2.1704
  589MOL0     H79493   1.564   7.482   3.390 -1.8103 -2.5021  1.2788
  589MOL0     H79494   1.671   7.548   3.504 -0.9893  0.7404 -0.3184
  589MOL0     H79495   1.643   7.352   3.646 -0.0299  1.4646  0.5178
  589MOL0     H79496   1.568   7.265   3.507  1.0816  0.3498  0.3124
  589MOL0     H79497   2.422   7.098   3.445  0.2067  0.3961  0.0967
  589MOL0     H79498   2.683   7.133   3.456 -4.0937  2.4323  2.1580
  589MOL0     H79499   3.048   7.028   3.492  0.0926 -0.2156 -0.7340
  589MOL0     H79500   3.275   6.972   3.548  0.7676 -1.1254 -0.6869
  589MOL0     H79501   5.294   7.556   3.128  1.2141  0.4714  1.6492
  589MOL0     H79502   5.522   7.498   3.038 -0.0014  0.1514  0.7379
  589MOL0     H79503   5.862   7.232   3.055 -3.9473  1.5928 -0.1775
  589MOL0     H79504   6.079   7.175   2.993 -1.4941 -0.1364  1.8157
  589MOL0     H79505   6.188   7.348   2.600 -0.1439 -1.3979 -5.4756
  589MOL0     H79506   6.346   7.271   2.646 -0.4143  0.3882 -1.3549
  589MOL0     H79507   6.328   7.170   2.463  1.3910  3.2832  2.8381
  589MOL0     H79508   6.142   7.154   2.475 -0.3123 -0.0702  0.0841
  589MOL0     H79509   6.261   6.927   2.487 -2.1871 -1.1498 -0.5218
  589MOL0     H79510   6.159   6.957   2.615  0.6719 -0.0590  0.4812
  589MOL0     H79511   6.360   6.870   2.707  1.9369  0.1723 -0.8653
  589MOL0     H79512   6.360   7.041   2.749  1.0896  1.3568 -0.5832
  589MOL0     H79513   6.684   7.073   2.493 -0.9336  1.8198 -3.0400
  589MOL0     H79514   5.990   7.255   2.578  1.8402  0.6844 -0.0742
  589MOL0     H79515   5.742   7.307   2.644 -0.1496 -0.1532  0.2137
  590MOL0     O79516  11.282  10.117   8.488  0.2102 -0.3639  0.1361
  590MOL0     C79517  11.321  10.002   8.478 -1.3007 -0.3774  0.1347
  590MOL0     O79518  11.253   9.896   8.428  0.1798 -0.2745 -0.5804
  590MOL0     C79519  11.120   9.895   8.434 -0.3398 -0.5399  0.4706
  590MOL0     C79520  11.071   9.778   8.498  0.2296 -0.7696  0.0752
  590MOL0     C79521  10.929   9.754   8.494 -0.7191 -0.4159  0.3761
  590MOL0     C79522  10.838   9.838   8.436  0.2336 -0.2506 -0.2331
  590MOL0     O79523  10.702   9.833   8.432 -0.0060 -0.0986  0.5181
  590MOL0     C79524  10.629   9.843   8.554  0.0405 -0.2825 -0.3051
  590MOL0     C79525  10.593   9.696   8.595  0.6636  0.1433  0.5645
  590MOL0     C79526  10.491   9.631   8.502 -0.7728 -0.6281  0.0365
  590MOL0     C79527  10.401   9.541   8.585  0.5216  0.4942 -0.2848
  590MOL0     C79528  10.284   9.499   8.500  0.0199  0.4366 -0.8674
  590MOL0     C79529  10.182   9.420   8.595  0.7052 -0.0929  0.4247
  590MOL0     C79530  10.048   9.429   8.512  0.1797 -0.7566 -0.6089
  590MOL0     C79531   9.940   9.368   8.612 -0.3072  0.2465 -0.0396
  590MOL0     N79532   9.827   9.297   8.553  0.5443  0.1667  0.0675
  590MOL0     C79533   9.726   9.347   8.467 -0.0295  0.1003  0.4351
  590MOL0     C79534   9.638   9.243   8.462 -0.9940  0.3765  0.3760
  590MOL0     C79535   9.505   9.244   8.395 -0.6082  0.4657  0.1149
  590MOL0     C79536   9.509   9.343   8.272 -0.0689  0.4203  0.4477
  590MOL0     C79537   9.631   9.323   8.173  0.0037 -0.1044  0.4050
  590MOL0     C79538   9.690   9.457   8.116 -0.7882  0.0275 -0.5609
  590MOL0     O79539   9.776   9.522   8.214  0.1160  0.1850 -0.0207
  590MOL0     C79540   9.910   9.540   8.192  1.0889  0.4331  0.5228
  590MOL0     C79541   9.980   9.439   8.136  0.3893 -1.0113  0.6637
  590MOL0     C79542  10.119   9.455   8.118 -0.5022 -0.1024 -0.2606
  590MOL0     C79543  10.205   9.344   8.046  0.3477 -0.3247 -0.3327
  590MOL0     C79544  10.182   9.584   8.149 -0.1803 -0.0659 -0.0118
  590MOL0     C79545  10.322   9.617   8.111 -0.5556  0.5654  0.6172
  590MOL0     O79546  10.429   9.529   8.144  0.0599 -0.4368 -0.2396
  590MOL0     C79547  10.555   9.562   8.097  0.0146 -1.2797 -0.5468
  590MOL0     C79548  10.615   9.682   8.127 -0.7463  0.7170  0.0532
  590MOL0     C79549  10.748   9.703   8.081  0.0991 -0.0577  0.4372
  590MOL0     C79550  10.813   9.603   8.009 -0.1512  0.7194  0.0823
  590MOL0     O79551  10.940   9.606   7.953 -0.0197  0.1878  0.1136
  590MOL0     C79552  11.027   9.720   7.968 -1.1814  0.4421 -0.5895
  590MOL0     C79553  11.177   9.686   7.981  0.1546 -0.8345 -0.5839
  590MOL0     C79554  11.214   9.631   8.117  0.5712 -0.4496  0.1814
  590MOL0     C79555  11.360   9.577   8.113 -0.0433 -0.0142  0.9222
  590MOL0     C79556  11.430   9.560   8.249  0.5209  0.8279  0.0774
  590MOL0     C79557  11.562   9.487   8.246  0.1416 -0.6585  0.6329
  590MOL0     C79558  11.594   9.436   8.384  0.5359 -0.4741 -0.3416
  590MOL0     C79559  11.500   9.323   8.429 -0.5553 -0.0905  0.5596
  590MOL0    Cl79560  11.460   9.201   8.305 -0.3402 -0.2534 -0.3391
  590MOL0     C79561  10.748   9.482   7.979 -0.0127  0.4065 -0.9997
  590MOL0     C79562  10.613   9.465   8.022 -0.3246 -0.3374  0.4057
  590MOL0     O79563  10.338   9.722   8.043  0.9443  0.3603 -0.3394
  590MOL0     C79564  10.107   9.687   8.206 -0.5153  0.2302 -0.0444
  590MOL0     C79565   9.969   9.662   8.240  0.2939  1.0751  0.1315
  590MOL0     N79566   9.685   9.128   8.520 -0.2001  0.1456  0.9963
  590MOL0     N79567   9.795   9.167   8.573  0.2866  0.1025 -0.3466
  590MOL0     C79568  10.891   9.962   8.381 -0.3334  0.7023 -0.3808
  590MOL0     C79569  11.026   9.991   8.381 -0.3379 -0.2904  0.0140
  590MOL0     C79570  11.460   9.979   8.533 -0.0049  0.0162 -0.0029
  590MOL0     C79571  11.503   9.842   8.557 -0.1375 -0.0739  0.7997
  590MOL0     C79572  11.625   9.824   8.619  0.4083 -0.8695  0.5206
  590MOL0     C79573  11.718   9.922   8.642  0.7472 -0.2054 -0.3526
  590MOL0     O79574  11.836   9.888   8.701 -0.0221 -0.3537 -0.5631
  590MOL0     C79575  11.946   9.984   8.715  0.1587 -0.1382 -0.3277
  590MOL0     C79576  12.049   9.913   8.809  0.4047 -0.5774  0.2882
  590MOL0     C79577  12.159  10.009   8.856 -0.0273  0.2444 -0.2000
  590MOL0     C79578  12.258   9.930   8.941 -0.6772  0.1841  0.0324
  590MOL0     C79579  12.345  10.031   9.000 -0.3747  0.1761  0.3422
  590MOL0     C79580  12.429  10.112   9.035  0.2738 -0.0295 -0.7880
  590MOL0     C79581  11.681  10.058   8.608 -0.3728  0.5768  1.0793
  590MOL0     C79582  11.550  10.087   8.550 -0.4156  0.0698 -1.4830
  590MOL0     H79583  11.142   9.707   8.539  2.1619  1.8350  1.5352
  590MOL0     H79584  10.901   9.658   8.536  0.9859 -2.9600 -3.7320
  590MOL0     H79585  10.676   9.893   8.640 -1.6181 -2.0654  1.7515
  590MOL0     H79586  10.540   9.905   8.541  0.2808  0.8065  2.4644
  590MOL0     H79587  10.685   9.637   8.600  0.0373 -0.9917 -0.6522
  590MOL0     H79588  10.552   9.684   8.696 -0.6711 -1.5923 -0.1198
  590MOL0     H79589  10.444   9.702   8.433 -0.8750 -0.3713  0.3695
  590MOL0     H79590  10.547   9.565   8.435 -1.7202 -1.3928 -0.0283
  590MOL0     H79591  10.444   9.447   8.620 -2.0915 -0.1861  1.3955
  590MOL0     H79592  10.363   9.597   8.672  0.1039  2.1421 -1.4746
  590MOL0     H79593  10.239   9.588   8.455 -1.8023  0.1220  0.2442
  590MOL0     H79594  10.308   9.418   8.431  0.4569  0.5517 -0.8512
  590MOL0     H79595  10.218   9.318   8.611 -1.4701 -1.0900 -0.6513
  590MOL0     H79596  10.174   9.474   8.689  1.7882 -0.6648  0.8665
  590MOL0     H79597  10.013   9.530   8.491 -2.5520 -1.4307  0.1490
  590MOL0     H79598  10.057   9.367   8.422 -0.0237  0.7795 -1.7120
  590MOL0     H79599   9.905   9.455   8.668 -0.0403 -0.0485  0.5951
  590MOL0     H79600   9.989   9.298   8.680 -1.0957  0.6241  0.9532
  590MOL0     H79601   9.711   9.448   8.429 -0.9682 -0.7014 -1.4787
  590MOL0     H79602   9.485   9.140   8.365  2.8890 -1.0833  2.4947
  590MOL0     H79603   9.436   9.275   8.473 -0.1290  0.0951  0.6926
  590MOL0     H79604   9.490   9.444   8.310 -0.7477  0.2632  0.5353
  590MOL0     H79605   9.417   9.321   8.217  0.1675 -1.2275  0.6405
  590MOL0     H79606   9.585   9.266   8.092 -1.1217  0.5818  0.5429
  590MOL0     H79607   9.710   9.259   8.214  0.1840 -2.7346 -3.5760
  590MOL0     H79608   9.610   9.526   8.089  0.2383  1.4361 -0.0793
  590MOL0     H79609   9.745   9.436   8.023  0.4725  0.9078 -0.0358
  590MOL0     H79610   9.924   9.352   8.106 -0.8386 -0.1810  0.4749
  590MOL0     H79611  10.142   9.255   8.042  1.1109 -0.8655 -0.5545
  590MOL0     H79612  10.243   9.375   7.948  3.9548 -3.4043 -0.1123
  590MOL0     H79613  10.299   9.332   8.101 -0.2465  1.0492  1.0692
  590MOL0     H79614  10.565   9.758   8.187 -0.9589  0.5555  0.0785
  590MOL0     H79615  10.789   9.801   8.103  0.0943 -0.8235  4.8157
  590MOL0     H79616  11.017   9.789   7.883  0.6809  1.8208  0.2291
  590MOL0     H79617  11.001   9.779   8.056 -5.0184  0.4070 -1.5280
  590MOL0     H79618  11.195   9.606   7.908 -1.3214 -1.2635 -0.5252
  590MOL0     H79619  11.230   9.779   7.958 -0.5310 -0.5836 -1.1824
  590MOL0     H79620  11.147   9.547   8.136  0.6607 -0.7976 -0.9481
  590MOL0     H79621  11.211   9.710   8.193 -4.8007 -0.1204  0.0321
  590MOL0     H79622  11.366   9.480   8.063 -0.3693  1.4466 -2.1842
  590MOL0     H79623  11.422   9.647   8.057 -2.7243  1.1954 -0.7685
  590MOL0     H79624  11.362   9.499   8.310  2.2675  0.9548  2.2759
  590MOL0     H79625  11.443   9.651   8.308  2.7731 -1.5461  3.6452
  590MOL0     H79626  11.562   9.401   8.179  0.6244  0.3124 -0.6657
  590MOL0     H79627  11.637   9.561   8.215 -2.1510  1.7761  0.5599
  590MOL0     H79628  11.586   9.517   8.457 -0.8625  0.8154 -1.8473
  590MOL0     H79629  11.698   9.403   8.387  1.3540  1.9905  1.1108
  590MOL0     H79630  11.401   9.347   8.469 -0.0357  2.4694  0.5185
  590MOL0     H79631  11.550   9.280   8.517 -0.9646  1.1334  1.4214
  590MOL0     H79632  10.801   9.401   7.930  3.1459 -0.0517  2.6954
  590MOL0     H79633  10.556   9.373   8.015  0.3161 -0.8834  1.9005
  590MOL0     H79634  10.163   9.776   8.231  0.5168 -0.2844 -0.4892
  590MOL0     H79635   9.913   9.729   8.305  0.0668  1.1638 -0.1557
  590MOL0     H79636  10.816  10.031   8.341 -2.3265 -2.1118 -1.8664
  590MOL0     H79637  11.063  10.085   8.341  0.8200 -0.7042  0.0667
  590MOL0     H79638  11.428   9.765   8.545 -0.2193  0.4213 -2.8874
  590MOL0     H79639  11.644   9.725   8.660 -1.6231 -0.3405  3.0231
  590MOL0     H79640  11.983  10.022   8.619 -0.3276  0.9826 -0.0956
  590MOL0     H79641  11.902  10.071   8.764 -2.4259 -1.7493  0.3941
  590MOL0     H79642  12.085   9.817   8.770 -0.4626 -0.9430  0.3698
  590MOL0     H79643  11.993   9.883   8.898  2.0999 -0.3588  1.4748
  590MOL0     H79644  12.114  10.097   8.902  1.3066  1.4764 -1.1579
  590MOL0     H79645  12.208  10.051   8.768  2.6172  0.8006  1.4422
  590MOL0     H79646  12.311   9.871   8.866 -0.9746  1.9081 -1.6194
  590MOL0     H79647  12.209   9.874   9.022 -0.5198 -2.0047 -1.3104
  590MOL0     H79648  12.509  10.180   9.055  0.4097  0.0901 -1.6906
  590MOL0     H79649  11.758  10.132   8.627 -1.5788  1.9847  0.7428
  590MOL0     H79650  11.532  10.191   8.523 -0.8653 -0.5608 -3.8992
  591MOL0     O79651   3.001   2.180   8.633  0.4229 -0.6430  0.3806
  591MOL0     C79652   3.069   2.107   8.557  0.1249  0.6045 -0.0587
  591MOL0     O79653   3.021   2.046   8.442 -1.1999 -0.4620 -0.4414
  591MOL0     C79654   2.900   2.092   8.390 -0.1735 -0.0535 -0.2829
  591MOL0     C79655   2.861   2.234   8.380  0.9160 -0.3459  0.7641
  591MOL0     C79656   2.732   2.264   8.328 -1.3186  0.2151 -0.2670
  591MOL0     C79657   2.660   2.161   8.267 -0.5540 -0.0452 -0.7788
  591MOL0     O79658   2.528   2.179   8.215 -0.2947 -0.5846  0.4621
  591MOL0     C79659   2.448   2.294   8.236  0.1886 -0.3293  0.0791
  591MOL0     C79660   2.309   2.263   8.182  0.6586  0.3917 -0.2402
  591MOL0     C79661   2.308   2.237   8.033 -0.3337 -0.3631  0.8316
  591MOL0     C79662   2.161   2.199   7.991 -0.1392 -0.2247 -0.3275
  591MOL0     C79663   2.157   2.189   7.830  0.2677  0.4903 -0.3294
  591MOL0     C79664   2.016   2.159   7.773 -0.6179  0.0932 -0.0091
  591MOL0     C79665   2.017   2.092   7.641 -0.2958  0.2874  0.4507
  591MOL0     C79666   1.879   2.066   7.599 -0.5203 -0.3713  0.1138
  591MOL0     N79667   1.803   2.188   7.572 -0.1915  0.3985  0.8188
  591MOL0     C79668   1.813   2.261   7.464 -0.1535  0.4351  0.3812
  591MOL0     C79669   1.725   2.362   7.485 -0.3003 -0.7313 -0.2088
  591MOL0     C79670   1.718   2.478   7.388  0.6460 -0.4717 -0.4560
  591MOL0     C79671   1.603   2.578   7.430  0.0419  0.5028 -0.6366
  591MOL0     C79672   1.614   2.659   7.555 -0.7126  0.3773 -1.4698
  591MOL0     C79673   1.748   2.747   7.562  0.8989  0.2362  0.1402
  591MOL0     O79674   1.839   2.646   7.601 -0.6331 -0.8559  0.0508
  591MOL0     C79675   1.969   2.683   7.629 -0.2951  0.4263  0.2530
  591MOL0     C79676   2.012   2.815   7.616 -0.3064 -0.4802 -0.3351
  591MOL0     C79677   2.141   2.861   7.651  0.2812 -0.3389 -0.2155
  591MOL0     C79678   2.173   3.004   7.631 -0.5227 -0.1145 -0.3884
  591MOL0     C79679   2.228   2.764   7.699 -1.3519  0.8440 -0.0885
  591MOL0     C79680   2.371   2.781   7.727  0.4242  0.0975 -0.1082
  591MOL0     O79681   2.411   2.909   7.780 -0.0709 -0.1786 -0.3481
  591MOL0     C79682   2.547   2.920   7.785 -0.0053  1.0081 -0.7557
  591MOL0     C79683   2.625   3.001   7.702  0.3516  0.3601 -0.2887
  591MOL0     C79684   2.763   3.011   7.717  0.1419 -0.0082  0.3145
  591MOL0     C79685   2.837   2.915   7.796  0.3626 -0.4828 -0.1072
  591MOL0     O79686   2.972   2.936   7.793  0.2962 -0.2470  0.2058
  591MOL0     C79687   3.048   2.863   7.891 -0.0661 -0.0432 -0.3283
  591MOL0     C79688   3.196   2.893   7.878  0.0626  0.1277  0.1110
  591MOL0     C79689   3.283   2.837   7.989  0.2167 -0.0114  0.2352
  591MOL0     C79690   3.426   2.831   7.940 -0.7383  0.2623  0.2719
  591MOL0     C79691   3.524   2.804   8.048 -0.7583  0.2999 -0.0538
  591MOL0     C79692   3.667   2.766   7.987 -0.7825 -0.1438 -0.2749
  591MOL0     C79693   3.769   2.729   8.106  0.6647  0.2595  0.1006
  591MOL0     C79694   3.902   2.700   8.049 -0.3072  0.3438 -0.5078
  591MOL0    Cl79695   3.971   2.849   7.980  0.0681 -0.3414 -0.0816
  591MOL0     C79696   2.759   2.837   7.887 -1.0142  0.2471  0.7681
  591MOL0     C79697   2.620   2.840   7.880 -0.7716  0.1014 -0.2029
  591MOL0     O79698   2.449   2.693   7.700 -0.3599 -0.3509  0.4638
  591MOL0     C79699   2.193   2.633   7.706  0.4168  0.0520  0.8661
  591MOL0     C79700   2.061   2.589   7.672  0.0443 -0.3839  0.0459
  591MOL0     N79701   1.654   2.331   7.597  1.0091 -0.3464 -0.5095
  591MOL0     N79702   1.700   2.229   7.654 -0.5232  0.1313 -0.5400
  591MOL0     C79703   2.705   2.030   8.269 -0.2079  0.5928 -0.0574
  591MOL0     C79704   2.825   1.994   8.329 -0.4485  0.3024 -0.4291
  591MOL0     C79705   3.210   2.089   8.589 -0.8164 -0.1753  1.0141
  591MOL0     C79706   3.295   2.036   8.494 -0.1374  0.3773  0.4431
  591MOL0     C79707   3.430   2.017   8.522 -0.6902  0.0996  0.2055
  591MOL0     C79708   3.487   2.042   8.648 -0.2007  0.3207  0.5707
  591MOL0     O79709   3.620   2.040   8.649 -0.1922  0.2729  0.0769
  591MOL0     C79710   3.679   2.096   8.768 -0.0849  0.4408 -0.0214
  591MOL0     C79711   3.693   1.993   8.888  0.4675  0.0550 -0.3745
  591MOL0     C79712   3.819   2.030   8.975  0.9309  0.6642 -0.0677
  591MOL0     C79713   3.830   1.951   9.103 -0.3047 -0.4592  0.3232
  591MOL0     C79714   3.968   1.958   9.159  1.2931  0.9251 -0.2662
  591MOL0     C79715   4.079   1.981   9.198 -0.2135  0.4901 -0.0558
  591MOL0     C79716   3.398   2.086   8.747  0.7148 -0.8712  0.0061
  591MOL0     C79717   3.263   2.112   8.717  0.9514 -0.1840  0.5987
  591MOL0     H79718   2.924   2.310   8.425  0.8981 -0.0981  0.3802
  591MOL0     H79719   2.697   2.366   8.332  0.0016  0.6654  0.4344
  591MOL0     H79720   2.444   2.322   8.342 -2.7011  0.6342 -0.1733
  591MOL0     H79721   2.493   2.377   8.181  0.4369 -0.8650 -0.5338
  591MOL0     H79722   2.276   2.173   8.236  1.6613 -1.7622 -2.9714
  591MOL0     H79723   2.248   2.352   8.202  1.4262  0.7987  0.3147
  591MOL0     H79724   2.338   2.319   7.968 -2.8432 -1.8671 -2.5401
  591MOL0     H79725   2.363   2.146   8.007 -0.9337 -0.7342  0.8167
  591MOL0     H79726   2.126   2.110   8.045  2.1318 -0.2615  1.2355
  591MOL0     H79727   2.092   2.277   8.023  1.0477 -0.4099  3.0524
  591MOL0     H79728   2.199   2.277   7.781  0.7149 -0.0317 -0.9000
  591MOL0     H79729   2.220   2.106   7.795 -0.3369  1.1177 -3.1436
  591MOL0     H79730   1.977   2.090   7.849 -0.2199 -1.7859 -1.4360
  591MOL0     H79731   1.958   2.251   7.764  0.8978  0.9237 -1.9414
  591MOL0     H79732   2.062   2.150   7.560  3.8091 -2.4955  0.4910
  591MOL0     H79733   2.069   1.997   7.652 -0.6496  0.1539  1.0208
  591MOL0     H79734   1.835   2.015   7.685 -6.3006  1.2410 -1.4162
  591MOL0     H79735   1.884   1.993   7.518 -2.3347 -0.3252 -0.0840
  591MOL0     H79736   1.881   2.245   7.381  1.5718  1.8552  1.4651
  591MOL0     H79737   1.813   2.533   7.382 -1.4110  3.2197 -3.5845
  591MOL0     H79738   1.701   2.440   7.287 -0.4147  0.0165 -0.4727
  591MOL0     H79739   1.514   2.516   7.441  0.0644  0.7411  1.0736
  591MOL0     H79740   1.585   2.649   7.348  2.8204 -1.0812 -2.7931
  591MOL0     H79741   1.605   2.590   7.640 -0.8676  0.6447 -1.2684
  591MOL0     H79742   1.529   2.727   7.562  0.3614  1.7115 -0.7209
  591MOL0     H79743   1.741   2.838   7.623  1.7218  0.4211 -0.0275
  591MOL0     H79744   1.774   2.796   7.468  1.3105  0.8475  0.5633
  591MOL0     H79745   1.951   2.887   7.562 -2.6500 -1.3676  0.9812
  591MOL0     H79746   2.120   3.045   7.545  3.6355  3.5303 -1.5991
  591MOL0     H79747   2.140   3.066   7.714  0.1231 -0.5024  0.1730
  591MOL0     H79748   2.280   3.011   7.606 -0.3394 -0.2511  0.3352
  591MOL0     H79749   2.576   3.072   7.636  0.7266  0.6374 -0.2729
  591MOL0     H79750   2.815   3.093   7.669  1.2824  0.0634  1.6307
  591MOL0     H79751   3.029   2.883   7.997  2.0178 -0.8042  0.2363
  591MOL0     H79752   3.049   2.755   7.873 -1.1053  0.0922 -1.3576
  591MOL0     H79753   3.236   2.844   7.789 -1.5981 -0.8313 -0.1308
  591MOL0     H79754   3.210   3.001   7.876  1.3439  0.0553  1.9964
  591MOL0     H79755   3.246   2.735   8.003 -2.9804  0.4782 -3.1154
  591MOL0     H79756   3.261   2.889   8.083 -0.7630 -0.2558  0.1545
  591MOL0     H79757   3.434   2.750   7.867  3.0223 -1.4564  2.2757
  591MOL0     H79758   3.459   2.924   7.893  0.5125 -1.6054 -2.8999
  591MOL0     H79759   3.489   2.718   8.105  0.2616 -0.0731  0.0430
  591MOL0     H79760   3.525   2.891   8.114  0.0411  1.7736 -1.9077
  591MOL0     H79761   3.659   2.682   7.918  0.8902 -0.5632 -0.0137
  591MOL0     H79762   3.689   2.862   7.938  0.0482 -0.4053 -0.4293
  591MOL0     H79763   3.746   2.634   8.155  1.1314 -0.0675 -0.3050
  591MOL0     H79764   3.770   2.808   8.182  1.2068  1.2043 -0.8546
  591MOL0     H79765   3.897   2.627   7.967 -0.2671  0.8054 -0.9226
  591MOL0     H79766   3.970   2.658   8.124 -1.0911 -3.2164 -1.5875
  591MOL0     H79767   2.798   2.764   7.957 -1.8858 -0.4383  0.5538
  591MOL0     H79768   2.561   2.776   7.944 -3.2508  1.5957 -0.8196
  591MOL0     H79769   2.260   2.561   7.753 -0.0636 -0.0299  1.4393
  591MOL0     H79770   2.037   2.484   7.677  0.4372 -0.4452  0.8547
  591MOL0     H79771   2.638   1.961   8.217 -0.0705  0.5423 -0.1700
  591MOL0     H79772   2.855   1.891   8.314  2.2482  0.9743 -0.1723
  591MOL0     H79773   3.260   2.019   8.393 -1.2421  2.9632  0.3347
  591MOL0     H79774   3.485   1.970   8.441 -2.4215  2.9642 -2.9131
  591MOL0     H79775   3.775   2.144   8.747 -0.9309  2.2800  0.0766
  591MOL0     H79776   3.622   2.182   8.803  0.4517  0.4998  0.7180
  591MOL0     H79777   3.701   1.894   8.844  2.9078 -0.7401  1.6322
  591MOL0     H79778   3.607   1.991   8.956  1.2605  0.8806  0.6913
  591MOL0     H79779   3.809   2.135   9.003  0.9567  0.1860  1.8463
  591MOL0     H79780   3.912   2.029   8.919  0.7085 -0.6739 -0.4621
  591MOL0     H79781   3.792   1.849   9.090 -0.9389 -0.2238  0.3358
  591MOL0     H79782   3.764   1.992   9.179  0.1108  0.7345  0.0578
  591MOL0     H79783   4.179   2.000   9.230 -0.6244  0.6018  1.2511
  591MOL0     H79784   3.417   2.116   8.850 -2.8877  0.9128  0.2913
  591MOL0     H79785   3.188   2.149   8.786 -1.9899 -1.2585 -1.7603
  592MOL0     O79786   1.770   3.911   3.065 -0.2493  0.0227 -0.5051
  592MOL0     C79787   1.790   3.894   2.952  0.0819 -0.5551  0.6400
  592MOL0     O79788   1.914   3.904   2.897 -0.0500  0.2295 -0.1725
  592MOL0     C79789   2.025   3.938   2.976  0.2464  0.8061  0.5196
  592MOL0     C79790   2.072   3.846   3.071 -0.3915 -0.6470 -0.1374
  592MOL0     C79791   2.179   3.875   3.162 -0.2172  0.4772 -0.0354
  592MOL0     C79792   2.245   3.996   3.143 -0.8630  0.2306 -0.3334
  592MOL0     O79793   2.350   4.029   3.227 -0.2169 -0.2352 -0.3959
  592MOL0     C79794   2.423   3.916   3.274 -0.7152  0.0115 -0.7197
  592MOL0     C79795   2.557   3.968   3.330 -0.4032  0.3010 -0.4172
  592MOL0     C79796   2.651   4.028   3.220 -0.4769 -0.0397  0.8696
  592MOL0     C79797   2.786   4.079   3.281 -0.1038 -0.2331  1.5563
  592MOL0     C79798   2.884   4.087   3.160  0.7331  0.5418 -0.6768
  592MOL0     C79799   2.876   4.205   3.053 -0.0322 -0.4297 -0.7912
  592MOL0     C79800   2.893   4.346   3.117  0.9042 -0.4588  0.8398
  592MOL0     C79801   2.889   4.458   3.005  0.0228  0.0967  0.3464
  592MOL0     N79802   2.752   4.480   2.949 -0.6443  0.1205 -0.8707
  592MOL0     C79803   2.726   4.443   2.824  0.0376  0.3720  0.7239
  592MOL0     C79804   2.613   4.510   2.804 -0.7047 -1.4149  0.5012
  592MOL0     C79805   2.526   4.492   2.680 -0.4824  0.3644 -0.4297
  592MOL0     C79806   2.392   4.431   2.721  0.0058  0.2846  0.5943
  592MOL0     C79807   2.298   4.536   2.768  0.2128  0.1036  0.0140
  592MOL0     C79808   2.146   4.503   2.721 -0.9220  0.2451 -0.6719
  592MOL0     O79809   2.055   4.599   2.784  0.0275 -0.4218 -0.0451
  592MOL0     C79810   1.919   4.573   2.765 -0.3900  0.8103  0.5560
  592MOL0     C79811   1.833   4.647   2.848  0.1578 -0.0839 -0.2686
  592MOL0     C79812   1.698   4.616   2.860  0.7647 -0.4608 -0.0742
  592MOL0     C79813   1.611   4.685   2.961 -0.0224 -0.1843 -0.1438
  592MOL0     C79814   1.640   4.513   2.774 -0.6363  0.4905 -0.6498
  592MOL0     C79815   1.498   4.472   2.775 -0.1857 -0.1936  0.3438
  592MOL0     O79816   1.471   4.380   2.680  0.6185  0.7331  0.2384
  592MOL0     C79817   1.357   4.314   2.697  0.1238  0.6807 -0.5117
  592MOL0     C79818   1.231   4.356   2.649 -0.1243 -0.6174 -0.4469
  592MOL0     C79819   1.125   4.270   2.674 -0.4314 -0.6735  0.3466
  592MOL0     C79820   1.133   4.161   2.762  0.7401 -0.0935  0.0563
  592MOL0     O79821   1.011   4.102   2.786 -0.1685  0.0303  0.3937
  592MOL0     C79822   1.021   3.971   2.834 -0.7738  0.0845  0.1104
  592MOL0     C79823   0.889   3.905   2.866  1.5580  0.1757 -0.1646
  592MOL0     C79824   0.807   3.863   2.747  0.5407  0.8665  0.7256
  592MOL0     C79825   0.704   3.953   2.701  1.1319 -0.2910  0.3382
  592MOL0     C79826   0.616   3.929   2.580  0.3724  0.2463  0.0101
  592MOL0     C79827   0.571   3.779   2.575  0.8227  0.0339  0.2907
  592MOL0     C79828   0.508   3.723   2.450  0.5314 -0.5490  0.2126
  592MOL0     C79829   0.420   3.826   2.373 -0.5246 -0.7189 -0.2306
  592MOL0    Cl79830   0.281   3.910   2.467 -0.2064 -0.0629  0.3341
  592MOL0     C79831   1.260   4.130   2.812  0.4296 -0.2073 -1.0719
  592MOL0     C79832   1.370   4.200   2.771  0.1571 -0.4904  0.2913
  592MOL0     O79833   1.419   4.516   2.854 -0.0993  0.0674 -0.0388
  592MOL0     C79834   1.727   4.448   2.689 -0.0945  0.2534 -0.3824
  592MOL0     C79835   1.863   4.468   2.682  0.2802 -0.4531  0.2845
  592MOL0     N79836   2.560   4.572   2.914  0.4147 -0.1283 -0.5724
  592MOL0     N79837   2.654   4.561   3.007 -0.8000 -0.1321 -0.5203
  592MOL0     C79838   2.210   4.084   3.035 -0.2929  0.0517  0.1936
  592MOL0     C79839   2.097   4.058   2.952 -0.3601  0.4251  1.1897
  592MOL0     C79840   1.676   3.868   2.863 -0.4555 -0.0186 -0.3478
  592MOL0     C79841   1.679   3.876   2.720  0.4955 -0.4847 -0.2733
  592MOL0     C79842   1.562   3.859   2.650 -0.0529  0.4784  0.6660
  592MOL0     C79843   1.440   3.823   2.707  1.4553 -0.0342 -0.0593
  592MOL0     O79844   1.314   3.811   2.639  0.0263 -0.2296 -0.3923
  592MOL0     C79845   1.322   3.868   2.511  0.6250 -0.2834  0.2495
  592MOL0     C79846   1.178   3.883   2.453  0.8285  0.2336 -0.6241
  592MOL0     C79847   1.100   3.747   2.468 -0.5763  0.0001 -0.0606
  592MOL0     C79848   0.984   3.745   2.380  0.0353  0.4556 -0.5062
  592MOL0     C79849   0.907   3.615   2.389  0.5543  0.8667  0.4709
  592MOL0     C79850   0.829   3.526   2.399  0.7350 -0.1518 -0.1259
  592MOL0     C79851   1.438   3.807   2.841 -0.6843  0.5527  0.1179
  592MOL0     C79852   1.551   3.833   2.918 -0.5687 -0.3611 -0.0489
  592MOL0     H79853   2.015   3.755   3.082 -0.4176 -0.5606  0.5208
  592MOL0     H79854   2.212   3.795   3.228  1.2705 -0.1069 -1.4278
  592MOL0     H79855   2.379   3.856   3.354  1.8747 -1.1557 -0.0510
  592MOL0     H79856   2.454   3.845   3.198  2.9024  2.0778 -1.4020
  592MOL0     H79857   2.518   4.045   3.397  0.1277 -1.8025  2.5363
  592MOL0     H79858   2.608   3.890   3.388 -1.5239 -0.1959 -0.0658
  592MOL0     H79859   2.674   3.945   3.152  0.1948  0.1841  0.8170
  592MOL0     H79860   2.594   4.108   3.171 -1.2597 -0.2144  1.4764
  592MOL0     H79861   2.775   4.182   3.316 -0.9009 -0.2472  1.3489
  592MOL0     H79862   2.825   4.023   3.367 -0.3126 -0.3011  1.6056
  592MOL0     H79863   2.977   4.098   3.217 -0.2432  2.7722  0.6462
  592MOL0     H79864   2.884   3.992   3.107 -1.8804 -0.3093  0.6897
  592MOL0     H79865   2.951   4.196   2.974  2.4906  1.5899  1.1997
  592MOL0     H79866   2.780   4.195   3.001  0.3173 -0.0958 -1.5344
  592MOL0     H79867   2.805   4.355   3.181  0.7075 -3.2974  1.1191
  592MOL0     H79868   2.984   4.345   3.178  0.2173 -0.2549  1.8829
  592MOL0     H79869   2.958   4.443   2.921  0.6760  1.5743  0.5777
  592MOL0     H79870   2.925   4.551   3.050  0.8429  0.7486 -1.5202
  592MOL0     H79871   2.777   4.379   2.753 -2.4815  0.5584 -1.4210
  592MOL0     H79872   2.517   4.587   2.626 -0.6140 -0.8284 -2.5935
  592MOL0     H79873   2.574   4.428   2.606  0.0968  0.3050 -0.0092
  592MOL0     H79874   2.408   4.353   2.797  2.4578  3.4885  3.7195
  592MOL0     H79875   2.348   4.379   2.636 -0.7486  2.2590 -0.2757
  592MOL0     H79876   2.342   4.623   2.719  1.9335 -1.8429 -2.0829
  592MOL0     H79877   2.295   4.550   2.877 -1.0546  0.3149 -0.0315
  592MOL0     H79878   2.120   4.399   2.742  1.5442 -0.3928 -0.3894
  592MOL0     H79879   2.140   4.515   2.612 -0.1094  0.2692 -0.7244
  592MOL0     H79880   1.882   4.727   2.902  1.6070 -2.1200  1.6548
  592MOL0     H79881   1.537   4.747   2.910 -1.5375 -1.7188  0.0820
  592MOL0     H79882   1.558   4.622   3.033 -2.3610  0.3695 -1.2970
  592MOL0     H79883   1.665   4.763   3.015  0.1959 -0.4603  0.0412
  592MOL0     H79884   1.222   4.443   2.584  0.9888 -0.0974  0.0552
  592MOL0     H79885   1.025   4.290   2.638  0.0308 -2.8508 -2.4810
  592MOL0     H79886   1.071   3.912   2.756 -0.2174 -1.8847  1.8744
  592MOL0     H79887   1.080   3.972   2.926  2.0008 -0.7754 -1.5345
  592MOL0     H79888   0.904   3.820   2.934 -0.9771  0.6934  1.1494
  592MOL0     H79889   0.838   3.983   2.923  1.6808 -1.7049  2.7539
  592MOL0     H79890   0.758   3.771   2.780 -0.7845  2.3925  3.3934
  592MOL0     H79891   0.875   3.837   2.666  0.3762 -0.5634  1.0157
  592MOL0     H79892   0.640   3.958   2.790 -0.5246  1.4808 -0.8794
  592MOL0     H79893   0.750   4.050   2.680  0.9838 -0.1880  0.4867
  592MOL0     H79894   0.678   3.939   2.490  1.4007 -0.2093  0.6511
  592MOL0     H79895   0.537   4.004   2.576 -0.4710 -0.6603 -0.5904
  592MOL0     H79896   0.652   3.712   2.607  0.1994 -1.3311 -0.8674
  592MOL0     H79897   0.493   3.768   2.651 -0.4106  2.4499 -0.5269
  592MOL0     H79898   0.443   3.641   2.483 -0.2929  0.7452  1.9612
  592MOL0     H79899   0.585   3.682   2.383 -0.9443 -1.6989 -0.8318
  592MOL0     H79900   0.374   3.771   2.291  0.9188 -3.0142  0.4132
  592MOL0     H79901   0.483   3.904   2.328 -1.4187  2.4826  3.5379
  592MOL0     H79902   1.276   4.054   2.888 -1.1406  0.7362  0.2948
  592MOL0     H79903   1.471   4.174   2.801  2.0907  1.2605 -3.7918
  592MOL0     H79904   1.697   4.360   2.633  0.1147  0.5594 -0.9804
  592MOL0     H79905   1.927   4.419   2.609  0.7073  1.8332 -0.9718
  592MOL0     H79906   2.261   4.178   3.022 -1.9265  0.7475 -1.5973
  592MOL0     H79907   2.075   4.133   2.876  0.5483  0.9015  1.3790
  592MOL0     H79908   1.761   3.914   2.659 -0.0021  1.7035  0.3622
  592MOL0     H79909   1.565   3.882   2.544 -0.0521 -0.0868  0.5360
  592MOL0     H79910   1.364   3.969   2.508  1.1452 -0.5291 -1.7014
  592MOL0     H79911   1.379   3.805   2.442 -1.7248  0.3355 -2.4203
  592MOL0     H79912   1.188   3.914   2.349 -0.9560 -0.1584 -0.9334
  592MOL0     H79913   1.120   3.964   2.498  1.2433  1.5289 -2.3373
  592MOL0     H79914   1.062   3.744   2.571  2.6325  1.1607  1.2814
  592MOL0     H79915   1.150   3.653   2.446 -0.2950  0.7886 -3.2337
  592MOL0     H79916   1.016   3.768   2.278 -1.0152 -1.8416 -1.4262
  592MOL0     H79917   0.914   3.821   2.414  1.3529  2.1580 -1.4496
  592MOL0     H79918   0.754   3.452   2.413 -0.0865  0.6072 -0.3939
  592MOL0     H79919   1.347   3.776   2.891 -0.4597 -1.1431 -0.4808
  592MOL0     H79920   1.543   3.824   3.026 -1.8670 -2.5992 -0.2577
  593MOL0     O79921   7.650   4.437   8.764  0.1246 -0.0549  0.3867
  593MOL0     C79922   7.705   4.540   8.711 -0.5647  0.7492 -0.6897
  593MOL0     O79923   7.641   4.646   8.643 -0.2066  0.6149 -0.0670
  593MOL0     C79924   7.503   4.642   8.633  0.9101  0.3149  0.1189
  593MOL0     C79925   7.458   4.568   8.523  0.1185  0.5320  0.3458
  593MOL0     C79926   7.321   4.566   8.499 -0.3639 -0.3598  0.4775
  593MOL0     C79927   7.219   4.608   8.580 -0.7707 -0.4007  0.1374
  593MOL0     O79928   7.081   4.596   8.559  0.6974 -0.3225 -0.4137
  593MOL0     C79929   7.026   4.493   8.472 -0.4503 -0.3644  0.4704
  593MOL0     C79930   6.886   4.460   8.512  0.2260  0.6536 -0.3885
  593MOL0     C79931   6.867   4.398   8.648  0.0183 -0.6192 -0.0597
  593MOL0     C79932   6.726   4.343   8.674  0.3181  0.5868  0.1749
  593MOL0     C79933   6.625   4.466   8.687 -0.4771  0.2110 -0.2571
  593MOL0     C79934   6.491   4.422   8.746 -0.0825 -0.0324 -0.0117
  593MOL0     C79935   6.383   4.530   8.718  0.3681 -0.7258 -0.1257
  593MOL0     C79936   6.245   4.478   8.760  0.2055  0.1446 -0.8311
  593MOL0     N79937   6.137   4.556   8.701  0.5518 -0.2893  0.0967
  593MOL0     C79938   6.077   4.536   8.585  0.5681 -0.7040  0.8745
  593MOL0     C79939   5.982   4.640   8.574 -0.8132 -0.2719 -0.3251
  593MOL0     C79940   5.869   4.646   8.476 -0.9615  0.1269 -0.4364
  593MOL0     C79941   5.736   4.641   8.554  0.2043 -0.4164 -0.1874
  593MOL0     C79942   5.618   4.695   8.471  0.7077 -0.0894  0.6961
  593MOL0     C79943   5.497   4.694   8.572 -0.2226 -0.2083  0.4400
  593MOL0     O79944   5.378   4.734   8.494 -0.2184  0.1044  0.4125
  593MOL0     C79945   5.247   4.724   8.547  0.3298 -0.2100 -0.0801
  593MOL0     C79946   5.208   4.671   8.673  0.9654  0.8252  0.1681
  593MOL0     C79947   5.073   4.626   8.704  0.2758 -0.2259 -0.8097
  593MOL0     C79948   5.043   4.555   8.828  0.4868  0.5540 -0.2744
  593MOL0     C79949   4.976   4.657   8.604  0.8404 -0.0807  0.0519
  593MOL0     C79950   4.838   4.616   8.619  0.4799  0.0610  0.5789
  593MOL0     O79951   4.794   4.547   8.506  0.4193 -0.0323  0.5342
  593MOL0     C79952   4.680   4.472   8.524 -0.4825 -0.0219  0.3879
  593MOL0     C79953   4.551   4.510   8.510  0.6168 -0.2024  0.3961
  593MOL0     C79954   4.446   4.421   8.517 -0.0126 -0.4532 -0.3051
  593MOL0     C79955   4.475   4.289   8.539  0.4636  0.3575 -1.2604
  593MOL0     O79956   4.383   4.190   8.552  0.1863  0.6985 -0.0927
  593MOL0     C79957   4.264   4.207   8.483  0.3792 -0.6283  0.1146
  593MOL0     C79958   4.287   4.180   8.328 -1.6138  0.2660  1.0684
  593MOL0     C79959   4.322   4.030   8.301 -0.1068  0.1959 -0.4340
  593MOL0     C79960   4.199   3.943   8.305  1.2170  0.0595  0.2337
  593MOL0     C79961   4.238   3.793   8.294 -0.5476 -0.1536 -0.8274
  593MOL0     C79962   4.128   3.714   8.218 -0.1234  0.7418  0.3865
  593MOL0     C79963   4.006   3.695   8.316  0.0965 -0.4191  0.7016
  593MOL0     C79964   3.899   3.616   8.251  1.0102 -0.1517  0.1398
  593MOL0    Cl79965   3.749   3.622   8.357 -0.2888 -0.1007  0.3413
  593MOL0     C79966   4.605   4.245   8.564  0.1953 -0.7777  0.2369
  593MOL0     C79967   4.706   4.339   8.563 -0.4324 -0.3828  0.2698
  593MOL0     O79968   4.776   4.634   8.716  0.2346  0.5734 -0.5994
  593MOL0     C79969   5.017   4.715   8.482 -0.0956  0.0809 -0.6358
  593MOL0     C79970   5.152   4.741   8.447 -0.0791  0.4306 -0.3818
  593MOL0     N79971   5.994   4.722   8.685 -0.8299  0.9563 -0.3923
  593MOL0     N79972   6.082   4.665   8.766  0.3755 -0.3592  0.1642
  593MOL0     C79973   7.266   4.671   8.694 -0.3281 -0.1805 -0.6026
  593MOL0     C79974   7.408   4.692   8.720  0.1934 -1.2847 -0.5035
  593MOL0     C79975   7.856   4.540   8.714 -0.2046 -0.0556  0.0144
  593MOL0     C79976   7.926   4.438   8.785  0.4713 -0.0262  0.5036
  593MOL0     C79977   8.066   4.433   8.787  0.0970 -0.3892 -0.3014
  593MOL0     C79978   8.143   4.532   8.714 -0.0169  0.4663 -0.2018
  593MOL0     O79979   8.281   4.516   8.719  0.0727  0.6573  0.0240
  593MOL0     C79980   8.322   4.453   8.592 -0.0681  0.4458 -0.3220
  593MOL0     C79981   8.456   4.396   8.616 -0.2663 -0.1404  0.0392
  593MOL0     C79982   8.448   4.247   8.662  0.0131 -0.7893  0.4672
  593MOL0     C79983   8.565   4.164   8.609 -0.3762 -1.1982  0.4334
  593MOL0     C79984   8.699   4.238   8.627  0.0157  1.5602  0.1628
  593MOL0     C79985   8.803   4.294   8.628  0.3503  0.9006  0.6303
  593MOL0     C79986   8.077   4.632   8.647  0.2501 -0.5413  0.5644
  593MOL0     C79987   7.934   4.638   8.643  0.2210  0.0669 -0.4852
  593MOL0     H79988   7.535   4.510   8.472 -0.3964 -1.6946  1.9519
  593MOL0     H79989   7.285   4.509   8.414  0.3070 -6.2258  3.6178
  593MOL0     H79990   7.015   4.534   8.371 -1.6711  0.8716  1.0698
  593MOL0     H79991   7.081   4.399   8.474 -0.5198 -0.5196 -2.0176
  593MOL0     H79992   6.825   4.550   8.495  1.0872  0.6763 -4.2356
  593MOL0     H79993   6.845   4.392   8.436 -0.5409 -1.0655  1.4760
  593MOL0     H79994   6.939   4.316   8.660 -0.5367 -1.0966  0.0438
  593MOL0     H79995   6.892   4.473   8.723 -0.6108  1.5937 -1.9528
  593MOL0     H79996   6.690   4.277   8.595  0.7703  0.8564 -0.2632
  593MOL0     H79997   6.727   4.279   8.762 -0.4748 -0.3817 -0.4959
  593MOL0     H79998   6.669   4.550   8.741  0.2174 -0.9624  1.0679
  593MOL0     H79999   6.604   4.512   8.590  0.4295  1.9838  0.3477
  593MOL0     H80000   6.471   4.329   8.692  0.6048  0.3249 -0.9109
  593MOL0     H80001   6.484   4.403   8.854  0.1371  1.0956  0.2176
  593MOL0     H80002   6.407   4.626   8.765 -2.6248  0.3713 -0.5804
  593MOL0     H80003   6.358   4.551   8.613 -3.0437  1.2043  0.9278
  593MOL0     H80004   6.242   4.481   8.869  1.2740  0.4364 -0.8048
  593MOL0     H80005   6.227   4.374   8.729 -2.6054  0.8464 -1.9140
  593MOL0     H80006   6.104   4.459   8.513 -1.0893  0.1309 -0.7405
  593MOL0     H80007   5.884   4.725   8.401 -0.6434  0.5211  0.0349
  593MOL0     H80008   5.873   4.550   8.424 -1.2014 -0.7332  1.0916
  593MOL0     H80009   5.741   4.710   8.639 -0.0821  0.4475 -0.8689
  593MOL0     H80010   5.715   4.540   8.592 -1.7636 -0.2151 -0.6753
  593MOL0     H80011   5.593   4.618   8.398 -1.8145  2.0141 -0.8153
  593MOL0     H80012   5.628   4.787   8.414  0.8132 -1.3823 -1.4741
  593MOL0     H80013   5.512   4.764   8.655 -2.1132 -0.6932  1.2509
  593MOL0     H80014   5.495   4.600   8.628  1.1531  0.1011  1.0381
  593MOL0     H80015   5.279   4.649   8.751 -0.3242 -0.7962  0.9317
  593MOL0     H80016   4.939   4.562   8.863  0.6908 -0.0753  0.4894
  593MOL0     H80017   5.043   4.449   8.801 -4.9939  0.0827  0.3100
  593MOL0     H80018   5.107   4.587   8.910 -0.6098 -0.2085  0.9170
  593MOL0     H80019   4.537   4.616   8.493  1.2929 -0.3633 -1.3411
  593MOL0     H80020   4.350   4.470   8.503  0.2754 -0.0705 -0.9785
  593MOL0     H80021   4.205   4.120   8.512 -0.1197 -0.4813 -0.4297
  593MOL0     H80022   4.203   4.290   8.520  1.3333  0.6943 -1.1478
  593MOL0     H80023   4.209   4.208   8.256  0.6252 -1.0205 -2.0567
  593MOL0     H80024   4.368   4.251   8.311  0.7304 -2.3704  0.5829
  593MOL0     H80025   4.396   3.990   8.371  1.6406  0.0132 -2.2835
  593MOL0     H80026   4.362   4.025   8.199 -2.2376  3.4130 -1.5785
  593MOL0     H80027   4.146   3.947   8.400  0.2808 -3.7264  0.0485
  593MOL0     H80028   4.129   3.970   8.226  0.6715  0.4534  0.8523
  593MOL0     H80029   4.246   3.752   8.395 -4.0930 -0.7476 -0.6566
  593MOL0     H80030   4.335   3.784   8.245  1.4938 -1.0851  2.9605
  593MOL0     H80031   4.097   3.765   8.127  1.2403 -0.8977 -1.0611
  593MOL0     H80032   4.162   3.615   8.187  0.4760  1.4276 -1.3006
  593MOL0     H80033   3.970   3.793   8.347  3.0930  1.1397 -0.3150
  593MOL0     H80034   4.030   3.634   8.403 -0.2834 -1.7047 -0.0644
  593MOL0     H80035   3.939   3.519   8.221 -0.4677  0.1383 -3.2640
  593MOL0     H80036   3.870   3.666   8.158 -0.9315 -1.8846 -0.2587
  593MOL0     H80037   4.629   4.140   8.576 -1.3185 -1.4914 -2.2536
  593MOL0     H80038   4.805   4.296   8.576 -0.2461  0.7195  3.0641
  593MOL0     H80039   4.936   4.729   8.411  1.1541  2.1642 -1.7669
  593MOL0     H80040   5.175   4.772   8.346 -1.1993  1.5216 -0.3109
  593MOL0     H80041   7.186   4.688   8.765 -0.6358  2.2250 -1.4304
  593MOL0     H80042   7.420   4.746   8.813 -1.6332 -1.4743 -0.1332
  593MOL0     H80043   7.868   4.356   8.824  0.3600  0.2772  0.9832
  593MOL0     H80044   8.113   4.352   8.841 -0.2131  1.1961  2.5326
  593MOL0     H80045   8.257   4.370   8.562 -1.4394  2.3021 -2.8921
  593MOL0     H80046   8.316   4.518   8.504 -1.1556  0.4769 -0.2385
  593MOL0     H80047   8.504   4.455   8.695  0.8741 -0.4458 -0.3996
  593MOL0     H80048   8.521   4.411   8.529 -0.3340 -0.4865 -0.0683
  593MOL0     H80049   8.352   4.204   8.629 -1.3844  0.3609  2.8060
  593MOL0     H80050   8.449   4.243   8.771 -1.0673  0.7138  0.5628
  593MOL0     H80051   8.549   4.151   8.501 -1.4182  0.4339  0.3385
  593MOL0     H80052   8.570   4.066   8.655  1.2983  0.2291  3.6211
  593MOL0     H80053   8.897   4.345   8.636  1.2738 -0.6905  0.3241
  593MOL0     H80054   8.131   4.712   8.599 -2.1002  0.5991 -0.3648
  593MOL0     H80055   7.883   4.719   8.591 -0.4557  0.3500  0.5787
  594MOL0     O80056   5.361   5.337  10.315  0.0557 -0.0972  0.1097
  594MOL0     C80057   5.404   5.442  10.356  0.9562 -0.1430  0.1312
  594MOL0     O80058   5.340   5.518  10.448  0.3594 -0.3336 -0.5901
  594MOL0     C80059   5.202   5.494  10.470 -0.1857  0.2339 -0.0778
  594MOL0     C80060   5.100   5.572  10.421  0.6285  0.0757 -0.1613
  594MOL0     C80061   4.966   5.554  10.444  1.3848  0.2796 -0.3957
  594MOL0     C80062   4.930   5.452  10.531 -0.0675 -0.5457  0.0443
  594MOL0     O80063   4.806   5.405  10.546  0.2712  0.2560 -0.2051
  594MOL0     C80064   4.690   5.488  10.504 -0.0652 -0.3134 -0.6327
  594MOL0     C80065   4.560   5.422  10.537  0.4840  0.7229  0.1906
  594MOL0     C80066   4.440   5.513  10.537 -0.2376  0.0796 -0.4041
  594MOL0     C80067   4.322   5.463  10.614 -0.7096 -0.7478  0.2826
  594MOL0     C80068   4.190   5.524  10.558 -1.3633  0.0475 -0.7128
  594MOL0     C80069   4.158   5.670  10.599 -0.8084  0.0668  0.6316
  594MOL0     C80070   4.027   5.730  10.541  0.3064  0.7122  0.1705
  594MOL0     C80071   3.911   5.664  10.624  0.4022  0.5328 -0.0059
  594MOL0     N80072   3.774   5.723  10.609 -0.0386  0.7965 -0.2070
  594MOL0     C80073   3.744   5.846  10.662  0.5340 -0.4394  0.5419
  594MOL0     C80074   3.607   5.861  10.641  0.9713 -0.1637  0.6772
  594MOL0     C80075   3.540   5.986  10.687 -0.4046  0.3636 -0.1185
  594MOL0     C80076   3.392   5.960  10.700 -0.0313 -0.6134 -0.7304
  594MOL0     C80077   3.317   6.057  10.788  0.2539  0.3271 -0.2316
  594MOL0     C80078   3.172   6.010  10.811 -1.1415  0.4152  0.4671
  594MOL0     O80079   3.084   6.079  10.712 -0.8456  0.1873 -0.4962
  594MOL0     C80080   2.948   6.053  10.729 -0.5621  0.0066  0.2264
  594MOL0     C80081   2.890   5.947  10.807 -0.2341  0.3703  0.5553
  594MOL0     C80082   2.750   5.936  10.816  0.8856  0.6756 -0.2615
  594MOL0     C80083   2.696   5.827  10.905  0.1708  0.0714 -0.0618
  594MOL0     C80084   2.666   6.025  10.748 -0.3524 -0.4381  0.5001
  594MOL0     C80085   2.516   6.019  10.767  0.1112  0.0702 -0.0770
  594MOL0     O80086   2.454   5.957  10.876 -0.1517  0.2640 -0.1489
  594MOL0     C80087   2.337   5.999  10.933 -0.4956 -0.3043  0.5917
  594MOL0     C80088   2.266   6.119  10.903  0.4418 -0.0662  0.4984
  594MOL0     C80089   2.144   6.144  10.965  0.0358  0.9524  0.3489
  594MOL0     C80090   2.085   6.061  11.053  1.3054  0.0721 -0.4398
  594MOL0     O80091   1.954   6.096  11.089  0.2887 -0.3634 -0.1526
  594MOL0     C80092   1.861   6.009  11.158 -0.2711  0.4839  0.1666
  594MOL0     C80093   1.733   6.095  11.189  0.1187  0.2837  0.1184
  594MOL0     C80094   1.638   6.029  11.290  0.0180 -0.4082 -0.7769
  594MOL0     C80095   1.610   5.885  11.254 -0.4613  0.5059 -0.2226
  594MOL0     C80096   1.501   5.816  11.339 -0.1290  0.3278 -0.8715
  594MOL0     C80097   1.548   5.798  11.485  1.1549  0.1988 -0.3826
  594MOL0     C80098   1.459   5.711  11.576 -0.8137  0.2192  0.0089
  594MOL0     C80099   1.317   5.746  11.579  0.8364 -0.1705  0.0154
  594MOL0    Cl80100   1.223   5.643  11.696  0.0461 -0.4297  0.3227
  594MOL0     C80101   2.156   5.948  11.097 -0.0075  0.2254  0.1745
  594MOL0     C80102   2.288   5.923  11.037 -0.0375 -0.1429 -0.0544
  594MOL0     O80103   2.463   6.063  10.672  0.3558 -0.2146  0.5304
  594MOL0     C80104   2.728   6.125  10.665 -0.1355  0.3286  0.4962
  594MOL0     C80105   2.865   6.128  10.647 -0.6417 -0.1506 -0.2163
  594MOL0     N80106   3.561   5.756  10.564 -0.1855  0.0026 -0.4401
  594MOL0     N80107   3.660   5.673  10.557  0.0241 -0.5779 -0.4740
  594MOL0     C80108   5.031   5.364  10.577  0.7858 -0.5768  0.0123
  594MOL0     C80109   5.162   5.383  10.539 -0.4768  0.4857 -0.1969
  594MOL0     C80110   5.528   5.506  10.297 -0.1739 -0.5545 -0.6420
  594MOL0     C80111   5.617   5.422  10.227  1.2359  0.2010 -0.0067
  594MOL0     C80112   5.733   5.462  10.172  0.1444 -0.1946  0.3935
  594MOL0     C80113   5.786   5.592  10.194 -0.1529 -0.1881  0.2930
  594MOL0     O80114   5.910   5.625  10.144  0.7955 -0.9226  0.1632
  594MOL0     C80115   5.984   5.740  10.188 -0.1527 -0.6591 -0.1954
  594MOL0     C80116   6.134   5.732  10.141  0.5133  0.1884 -0.0373
  594MOL0     C80117   6.210   5.614  10.217 -0.1893  0.4133 -0.4286
  594MOL0     C80118   6.173   5.467  10.188  0.2401 -0.2867  0.1832
  594MOL0     C80119   6.262   5.374  10.245 -0.0304  0.7960 -0.7353
  594MOL0     C80120   6.313   5.286  10.313  0.9387  0.3493 -1.3937
  594MOL0     C80121   5.703   5.676  10.266 -0.6180 -0.8614  0.0143
  594MOL0     C80122   5.575   5.633  10.322  0.2269  0.6599 -0.0177
  594MOL0     H80123   5.129   5.662  10.366  0.1729  0.4405  0.1819
  594MOL0     H80124   4.892   5.624  10.406  0.2342 -0.5503  0.2474
  594MOL0     H80125   4.699   5.585  10.554 -0.9908 -0.0599 -0.9490
  594MOL0     H80126   4.676   5.499  10.396 -0.9284  0.9680 -0.4143
  594MOL0     H80127   4.534   5.335  10.477  0.7859 -0.2849  1.4618
  594MOL0     H80128   4.582   5.379  10.636  1.4771  1.6466  0.3938
  594MOL0     H80129   4.458   5.608  10.588  2.7525 -0.0730 -0.9801
  594MOL0     H80130   4.420   5.525  10.430  2.9528 -0.3801 -1.1728
  594MOL0     H80131   4.313   5.357  10.588 -0.5128 -0.3701 -1.4834
  594MOL0     H80132   4.338   5.463  10.722  0.7325 -1.0125  0.0975
  594MOL0     H80133   4.191   5.527  10.449  0.5721  2.5245 -0.7190
  594MOL0     H80134   4.102   5.461  10.575 -1.9931  0.3098 -2.7387
  594MOL0     H80135   4.155   5.684  10.708  0.1626 -3.4059  1.2491
  594MOL0     H80136   4.246   5.726  10.568 -2.0502  1.4889 -0.4485
  594MOL0     H80137   4.018   5.839  10.534 -4.2532  0.4893 -0.9770
  594MOL0     H80138   4.003   5.691  10.441  0.3860  0.1652  0.3626
  594MOL0     H80139   3.942   5.675  10.728  0.5273 -0.7968  0.1165
  594MOL0     H80140   3.898   5.558  10.601 -1.5466  1.2100 -2.4761
  594MOL0     H80141   3.813   5.918  10.704  1.0833 -1.3630  1.2615
  594MOL0     H80142   3.575   6.016  10.786 -1.8893  0.0375  0.5318
  594MOL0     H80143   3.568   6.063  10.614  1.7889 -1.5580 -1.4376
  594MOL0     H80144   3.385   5.862  10.749  5.5526  0.1821  2.4619
  594MOL0     H80145   3.359   5.970  10.596  0.9829 -2.6934 -1.3129
  594MOL0     H80146   3.319   6.162  10.757 -2.2147  0.6275  0.3538
  594MOL0     H80147   3.373   6.059  10.882 -1.0493  2.6041  0.5633
  594MOL0     H80148   3.142   6.041  10.911  1.4999  0.4514  1.3121
  594MOL0     H80149   3.172   5.901  10.795 -2.0218  0.7462 -2.4359
  594MOL0     H80150   2.950   5.884  10.873  0.0712 -0.7178 -0.7078
  594MOL0     H80151   2.618   5.771  10.852 -0.4121  1.0657 -0.2744
  594MOL0     H80152   2.771   5.753  10.934  0.6444 -0.1345 -1.6910
  594MOL0     H80153   2.660   5.866  11.000 -1.3017 -1.8622  0.2432
  594MOL0     H80154   2.313   6.189  10.834 -2.1473  2.5126  1.1664
  594MOL0     H80155   2.089   6.236  10.949  0.9232  1.5569  0.6984
  594MOL0     H80156   1.836   5.930  11.087  1.8766 -2.6147  2.5798
  594MOL0     H80157   1.901   5.965  11.250 -2.0490  1.8097  1.6526
  594MOL0     H80158   1.773   6.186  11.235  1.8039 -1.4857  2.3749
  594MOL0     H80159   1.673   6.122  11.101  1.3488  1.3360 -0.4394
  594MOL0     H80160   1.538   6.074  11.288 -0.0455 -0.4816 -3.6988
  594MOL0     H80161   1.683   6.027  11.390 -1.3135  0.2431 -0.1389
  594MOL0     H80162   1.564   5.896  11.155 -1.2355  5.7048  0.4380
  594MOL0     H80163   1.696   5.818  11.247 -1.5185 -1.6951  4.2027
  594MOL0     H80164   1.488   5.722  11.284 -1.1246  1.5866 -2.9042
  594MOL0     H80165   1.402   5.863  11.342  0.3467  1.3128  0.4773
  594MOL0     H80166   1.640   5.739  11.489  1.0574  0.0274  3.4484
  594MOL0     H80167   1.558   5.897  11.530  0.1316 -0.3492  1.1438
  594MOL0     H80168   1.506   5.704  11.675  0.2259  1.9965 -0.3160
  594MOL0     H80169   1.461   5.610  11.534  0.2232  0.6489 -1.0171
  594MOL0     H80170   1.281   5.744  11.476  0.4680  2.9250  0.0158
  594MOL0     H80171   1.314   5.846  11.623 -1.2331 -1.1264  2.2403
  594MOL0     H80172   2.134   5.870  11.169  1.2568  2.0217  2.6422
  594MOL0     H80173   2.343   5.834  11.068 -0.5908 -1.7127 -3.1758
  594MOL0     H80174   2.669   6.195  10.607 -1.0171 -0.2594  0.6775
  594MOL0     H80175   2.916   6.191  10.575  0.7311 -0.8391  0.1104
  594MOL0     H80176   5.018   5.271  10.631  0.8952 -0.6743 -0.1292
  594MOL0     H80177   5.227   5.300  10.564 -1.8770 -0.5309  0.2213
  594MOL0     H80178   5.568   5.327  10.207  2.3466  0.0906 -2.4525
  594MOL0     H80179   5.804   5.403  10.114  0.7492 -0.2434  1.1643
  594MOL0     H80180   5.940   5.830  10.144  1.9689 -0.1808 -1.4907
  594MOL0     H80181   5.986   5.747  10.297  0.6173  0.7220 -0.2727
  594MOL0     H80182   6.182   5.826  10.172  0.5501 -0.7211  2.9690
  594MOL0     H80183   6.137   5.727  10.031 -3.9113  3.1625 -0.5754
  594MOL0     H80184   6.197   5.622  10.326 -0.4889  3.0087 -0.5919
  594MOL0     H80185   6.316   5.631  10.195 -0.2881  4.0092  1.1731
  594MOL0     H80186   6.175   5.446  10.081  0.0454  2.0444 -0.3346
  594MOL0     H80187   6.074   5.457  10.233  0.6011  1.9676  1.6695
  594MOL0     H80188   6.338   5.212  10.387  0.3662  0.4530 -1.0921
  594MOL0     H80189   5.725   5.781  10.286 -3.5905 -0.2522  0.4743
  594MOL0     H80190   5.519   5.707  10.378  1.1300  1.9104 -0.7083
  595MOL0     O80191   3.017   2.520   7.077  0.2168  0.1955 -0.4360
  595MOL0     C80192   3.074   2.465   7.172  0.1642  0.3553 -0.2770
  595MOL0     O80193   3.192   2.517   7.222 -0.7251  0.0178 -0.3300
  595MOL0     C80194   3.263   2.612   7.149  0.4770 -0.0044  0.8769
  595MOL0     C80195   3.386   2.583   7.082  0.9615  0.3571 -0.5347
  595MOL0     C80196   3.454   2.679   7.007 -0.1974  0.6737 -0.2861
  595MOL0     C80197   3.398   2.808   6.997 -0.0373 -0.1332  0.4356
  595MOL0     O80198   3.474   2.890   6.927  0.5529 -0.1898 -0.4681
  595MOL0     C80199   3.501   3.020   6.976 -0.2718 -0.6200  0.3809
  595MOL0     C80200   3.657   3.061   6.966 -0.7406  0.6188 -0.6699
  595MOL0     C80201   3.758   2.981   7.052  0.3101  0.1233  0.1271
  595MOL0     C80202   3.845   2.892   6.978 -0.0486 -0.7111 -0.0837
  595MOL0     C80203   3.919   2.799   7.069 -0.4070  0.7571  0.5231
  595MOL0     C80204   3.835   2.667   7.081  0.6513  1.0087  0.0640
  595MOL0     C80205   3.927   2.565   7.141  0.4111  1.2963 -0.2389
  595MOL0     C80206   3.852   2.434   7.185  0.5362  0.3670  0.4341
  595MOL0     N80207   3.800   2.358   7.076 -0.0845 -0.6128  0.1855
  595MOL0     C80208   3.873   2.297   6.969 -0.2376  0.1331 -0.5421
  595MOL0     C80209   3.784   2.240   6.883 -0.0033 -0.0465 -0.2130
  595MOL0     C80210   3.815   2.163   6.762  0.3898 -0.7200  0.3868
  595MOL0     C80211   3.689   2.090   6.703  0.2079  0.0552 -0.8857
  595MOL0     C80212   3.716   2.008   6.571 -0.1925  0.2908 -0.3667
  595MOL0     C80213   3.601   2.006   6.473  1.0873  0.8674 -0.6322
  595MOL0     O80214   3.483   1.956   6.532 -0.0924  0.1885 -0.4527
  595MOL0     C80215   3.368   1.959   6.459 -0.3775 -0.0015 -0.6843
  595MOL0     C80216   3.357   1.956   6.317  0.1315 -0.0692  0.2450
  595MOL0     C80217   3.226   1.965   6.254  0.3545 -0.1622  0.3227
  595MOL0     C80218   3.223   1.947   6.105  0.2274 -0.8233  0.6183
  595MOL0     C80219   3.110   1.966   6.329  0.2421  0.8811  0.0277
  595MOL0     C80220   2.966   1.983   6.281 -0.8349 -1.5100 -0.6101
  595MOL0     O80221   2.873   1.989   6.382 -0.1126 -0.5017 -0.3532
  595MOL0     C80222   2.738   2.022   6.361 -0.0314 -0.9570 -0.1227
  595MOL0     C80223   2.647   1.980   6.462 -0.5852 -0.3174 -0.2014
  595MOL0     C80224   2.509   2.002   6.454 -0.8635  0.5390  0.6610
  595MOL0     C80225   2.456   2.071   6.344 -0.5991 -0.4266  0.0075
  595MOL0     O80226   2.320   2.089   6.345  0.3008 -0.6809  0.2281
  595MOL0     C80227   2.249   2.135   6.233  0.2058 -0.1142  0.2531
  595MOL0     C80228   2.109   2.124   6.287  0.1882 -0.6461  0.0526
  595MOL0     C80229   2.004   2.158   6.178  0.7852  0.2059  0.4249
  595MOL0     C80230   1.865   2.140   6.232 -0.3845  1.2016 -0.1695
  595MOL0     C80231   1.759   2.172   6.120 -0.7020 -0.1160 -0.1958
  595MOL0     C80232   1.611   2.151   6.155 -0.8846 -0.0908 -0.4678
  595MOL0     C80233   1.517   2.150   6.035  0.1696  0.5640 -0.5293
  595MOL0     C80234   1.386   2.082   6.063  0.6457 -0.2372 -0.1390
  595MOL0    Cl80235   1.308   2.071   5.904 -0.1991  0.5553 -0.1980
  595MOL0     C80236   2.549   2.105   6.241  0.1249 -0.2976  0.3008
  595MOL0     C80237   2.681   2.096   6.255  0.0566  0.0871  0.2808
  595MOL0     O80238   2.944   2.003   6.162  0.3778 -0.0755 -0.1675
  595MOL0     C80239   3.131   1.970   6.467 -0.4488 -0.4880  0.3042
  595MOL0     C80240   3.250   1.965   6.534 -0.8935  0.5307  0.4055
  595MOL0     N80241   3.660   2.275   6.929 -0.1575 -0.1776  0.4075
  595MOL0     N80242   3.669   2.345   7.032 -0.6025  0.1166 -0.8853
  595MOL0     C80243   3.275   2.841   7.059 -0.3102 -0.2041  0.5286
  595MOL0     C80244   3.216   2.739   7.133 -0.2399  0.1672  0.0664
  595MOL0     C80245   3.022   2.342   7.232 -0.4768  0.3605 -0.7027
  595MOL0     C80246   2.936   2.256   7.164  0.3037 -0.5146 -0.0414
  595MOL0     C80247   2.882   2.139   7.222 -0.2120 -0.3236 -0.9666
  595MOL0     C80248   2.921   2.100   7.349  0.5770 -0.4071 -0.1145
  595MOL0     O80249   2.892   1.988   7.426 -0.5524 -0.4656 -0.8330
  595MOL0     C80250   2.827   1.876   7.359 -0.4580 -0.1041  0.0609
  595MOL0     C80251   2.677   1.898   7.392 -0.2163 -0.7065  0.1902
  595MOL0     C80252   2.600   1.814   7.302 -0.7875  0.7727 -0.3052
  595MOL0     C80253   2.456   1.780   7.332  0.2590 -0.0441  0.2410
  595MOL0     C80254   2.372   1.893   7.353  0.7806  0.5081  0.0124
  595MOL0     C80255   2.289   1.979   7.388  0.1232 -0.3938 -0.3639
  595MOL0     C80256   3.011   2.184   7.413  0.2629 -0.8365  0.0309
  595MOL0     C80257   3.064   2.304   7.363  0.4674  0.4234 -0.8332
  595MOL0     H80258   3.419   2.481   7.095  0.9345  0.3979 -0.1105
  595MOL0     H80259   3.550   2.655   6.962  1.0310  3.8759  0.3618
  595MOL0     H80260   3.447   3.095   6.916 -1.1789 -2.6066 -1.4136
  595MOL0     H80261   3.465   3.030   7.079 -0.0158 -1.9711  0.6206
  595MOL0     H80262   3.692   3.047   6.864  1.4627 -0.8974  0.2052
  595MOL0     H80263   3.662   3.164   7.002 -1.3302  1.0449 -1.7628
  595MOL0     H80264   3.825   3.051   7.104  2.2393 -1.4706 -0.0917
  595MOL0     H80265   3.704   2.919   7.124 -0.3533  0.0917 -0.3872
  595MOL0     H80266   3.779   2.840   6.908 -2.6809  2.0708  0.1415
  595MOL0     H80267   3.920   2.947   6.920  1.5492 -1.8972  0.7716
  595MOL0     H80268   4.017   2.772   7.029 -0.7982 -2.3644  1.4466
  595MOL0     H80269   3.917   2.847   7.167 -3.0877  1.7599  0.0658
  595MOL0     H80270   3.743   2.680   7.139  0.1789  1.1642 -0.7135
  595MOL0     H80271   3.806   2.634   6.982  0.9251  0.2955  0.2178
  595MOL0     H80272   4.010   2.541   7.075  1.5715  0.8808  1.3215
  595MOL0     H80273   3.971   2.604   7.234 -0.9979 -0.5760  1.3057
  595MOL0     H80274   3.765   2.455   7.248  1.6442  0.9353  1.8340
  595MOL0     H80275   3.923   2.373   7.241 -0.9384  0.4447  2.4908
  595MOL0     H80276   3.981   2.299   6.960  0.0781 -0.2265  2.2857
  595MOL0     H80277   3.855   2.229   6.685 -1.2337 -1.2826 -1.0306
  595MOL0     H80278   3.892   2.089   6.785  1.1662  0.7214  2.7376
  595MOL0     H80279   3.633   2.177   6.668 -0.2445 -0.7892 -2.3658
  595MOL0     H80280   3.638   2.030   6.779  0.6162 -0.6950 -1.1924
  595MOL0     H80281   3.753   1.907   6.591 -0.7983 -0.8259 -4.1196
  595MOL0     H80282   3.801   2.052   6.519 -2.7712  4.1913 -1.7443
  595MOL0     H80283   3.623   1.948   6.382 -2.0560 -1.6501  0.0415
  595MOL0     H80284   3.594   2.107   6.432  0.1790  1.3762  0.7262
  595MOL0     H80285   3.440   1.935   6.250 -0.2578  3.4843 -1.5961
  595MOL0     H80286   3.322   1.932   6.062  0.3379  1.1046  0.1292
  595MOL0     H80287   3.162   1.858   6.086  1.3449 -1.6865  1.0084
  595MOL0     H80288   3.188   2.038   6.054  1.7506 -1.0977 -1.0287
  595MOL0     H80289   2.687   1.919   6.542  1.5342  1.9503  0.5984
  595MOL0     H80290   2.452   1.963   6.537 -0.7171 -1.5363 -0.1422
  595MOL0     H80291   2.260   2.242   6.214 -0.0907 -0.1833 -0.3283
  595MOL0     H80292   2.267   2.080   6.140 -1.8268  1.2096 -0.9956
  595MOL0     H80293   2.086   2.029   6.337  1.9178 -0.0561  2.1601
  595MOL0     H80294   2.100   2.198   6.367 -0.4369  0.6436 -1.1650
  595MOL0     H80295   2.013   2.084   6.098 -1.3892 -2.0417  2.0956
  595MOL0     H80296   2.012   2.258   6.133 -3.1228 -0.8444 -3.2705
  595MOL0     H80297   1.838   2.038   6.262 -0.6256  0.8668 -1.4564
  595MOL0     H80298   1.851   2.209   6.315 -0.0360  0.9848  0.0714
  595MOL0     H80299   1.787   2.112   6.034 -0.9044 -2.4281  1.2528
  595MOL0     H80300   1.778   2.275   6.090 -0.3326 -0.9411 -3.0495
  595MOL0     H80301   1.613   2.053   6.202  0.4287  0.0610 -0.1675
  595MOL0     H80302   1.580   2.230   6.225 -1.5504  0.4178 -1.3105
  595MOL0     H80303   1.574   2.095   5.960 -1.3611 -0.5200 -0.9352
  595MOL0     H80304   1.500   2.250   5.993  1.9130  0.4624 -1.5944
  595MOL0     H80305   1.332   2.149   6.131 -2.2234 -0.3609 -2.1585
  595MOL0     H80306   1.405   1.987   6.114  0.0829  0.0280  0.5774
  595MOL0     H80307   2.496   2.159   6.164 -1.4855 -1.5745  0.4358
  595MOL0     H80308   2.726   2.137   6.165 -0.5378 -2.4351 -1.2817
  595MOL0     H80309   3.054   1.981   6.543 -0.3569 -0.0333  0.3330
  595MOL0     H80310   3.252   1.989   6.640  0.1676  3.7311 -0.2138
  595MOL0     H80311   3.240   2.943   7.047 -0.5364 -0.1967  1.2390
  595MOL0     H80312   3.122   2.754   7.185 -0.6764  1.7356 -1.0937
  595MOL0     H80313   2.911   2.275   7.060  3.3550  5.7187 -0.0941
  595MOL0     H80314   2.823   2.069   7.164 -2.6999 -0.3583  1.4288
  595MOL0     H80315   2.847   1.873   7.251 -1.8713 -2.0453 -0.2207
  595MOL0     H80316   2.864   1.779   7.393  0.8187 -0.7921 -2.9502
  595MOL0     H80317   2.656   2.001   7.362  2.4054 -0.0394  0.3349
  595MOL0     H80318   2.655   1.883   7.497  0.7726  2.4509  0.9690
  595MOL0     H80319   2.653   1.719   7.292 -1.1807  0.3994  1.0353
  595MOL0     H80320   2.608   1.862   7.203 -1.0944  2.4797  0.4571
  595MOL0     H80321   2.440   1.707   7.412 -1.5933 -1.5012 -1.3519
  595MOL0     H80322   2.421   1.732   7.240 -0.5079 -0.4576  0.7439
  595MOL0     H80323   2.223   2.046   7.440  0.3367 -0.5627  0.1363
  595MOL0     H80324   3.039   2.146   7.511  4.2933 -2.2584 -1.4695
  595MOL0     H80325   3.134   2.353   7.430 -2.1451  0.6804  1.8727
  596MOL0     O80326   1.779   0.031   7.012  0.0715  0.5760  0.5701
  596MOL0     C80327   1.867   0.083   7.082  1.1182 -0.5983 -0.4582
  596MOL0     O80328   1.848   0.174   7.185  0.0481  0.3102 -0.5647
  596MOL0     C80329   1.726   0.221   7.226 -0.1545 -0.1384  0.0312
  596MOL0     C80330   1.709   0.285   7.349 -0.1799  0.2915  0.5352
  596MOL0     C80331   1.591   0.344   7.387 -0.3803  0.3153  0.6518
  596MOL0     C80332   1.488   0.364   7.294 -0.0183 -0.0328 -0.0405
  596MOL0     O80333   1.374   0.426   7.340  0.2945  0.2980  0.3333
  596MOL0     C80334   1.269   0.450   7.254  0.4742  0.6971 -0.1344
  596MOL0     C80335   1.143   0.519   7.314  0.4297  0.0705  0.0824
  596MOL0     C80336   1.034   0.551   7.211 -0.4257  0.0751 -0.6282
  596MOL0     C80337   0.919   0.604   7.285 -0.2836  0.4915 -0.5041
  596MOL0     C80338   0.809   0.649   7.197 -0.6826 -0.4665 -0.6468
  596MOL0     C80339   0.690   0.686   7.284 -0.4110  0.1013 -0.0634
  596MOL0     C80340   0.559   0.711   7.202  0.6386  0.3750  0.1116
  596MOL0     C80341   0.570   0.826   7.098 -0.1907  0.2095  0.6897
  596MOL0     N80342   0.447   0.839   7.016 -0.2376 -0.4130 -1.1304
  596MOL0     C80343   0.327   0.896   7.052 -0.4061  0.3927 -0.4581
  596MOL0     C80344   0.240   0.870   6.951  0.1596 -0.4832 -0.4871
  596MOL0     C80345   0.099   0.921   6.946 -0.0618  0.1233  0.3639
  596MOL0     C80346   0.047   0.949   6.802 -0.8205 -0.5106 -0.3120
  596MOL0     C80347   0.020   0.819   6.720 -0.1913  0.6389  0.2458
  596MOL0     C80348  -0.030   0.853   6.582 -0.7413 -0.8727 -1.0374
  596MOL0     O80349  -0.050   0.737   6.502 -0.5993  0.0963  0.6949
  596MOL0     C80350  -0.165   0.669   6.516 -0.5111 -0.2167  1.0075
  596MOL0     C80351  -0.176   0.555   6.437 -0.1764 -0.1527  0.4100
  596MOL0     C80352  -0.285   0.463   6.443 -0.8479 -0.3495 -0.3831
  596MOL0     C80353  -0.284   0.349   6.340  0.4040  0.0136 -0.1012
  596MOL0     C80354  -0.393   0.484   6.531 -0.6922 -0.1385 -0.0161
  596MOL0     C80355  -0.513   0.396   6.543 -0.0772 -0.0992 -0.3613
  596MOL0     O80356  -0.516   0.270   6.501 -0.5064 -0.0126  0.9141
  596MOL0     C80357  -0.614   0.186   6.534  0.1669  0.3959  0.3531
  596MOL0     C80358  -0.741   0.201   6.481  0.3799  0.1136 -0.0414
  596MOL0     C80359  -0.846   0.113   6.511  0.5181  0.4880 -0.4695
  596MOL0     C80360  -0.826   0.004   6.598 -0.7845  0.8030  0.3368
  596MOL0     O80361  -0.926  -0.087   6.612 -0.3639  0.0699 -0.2618
  596MOL0     C80362  -0.903  -0.182   6.715  0.0578  0.0323  0.3519
  596MOL0     C80363  -1.033  -0.265   6.729 -0.1788 -0.5306 -0.1935
  596MOL0     C80364  -1.149  -0.180   6.771 -0.0305 -0.5519 -0.6632
  596MOL0     C80365  -1.274  -0.262   6.764  0.4127 -0.0283  0.1448
  596MOL0     C80366  -1.392  -0.170   6.819  0.4758 -0.2073  0.0856
  596MOL0     C80367  -1.517  -0.249   6.804 -1.0095  0.4866  0.4244
  596MOL0     C80368  -1.634  -0.160   6.848 -0.2210  0.9377  0.3250
  596MOL0     C80369  -1.645  -0.135   6.995  0.6883 -0.6543  0.4652
  596MOL0    Cl80370  -1.722  -0.275   7.060  0.0022 -0.2838 -0.4251
  596MOL0     C80371  -0.696  -0.004   6.658 -0.5506 -1.0502 -0.5924
  596MOL0     C80372  -0.590   0.082   6.623  0.3527  0.1771 -1.0486
  596MOL0     O80373  -0.616   0.446   6.594  0.0518  0.0599 -0.0439
  596MOL0     C80374  -0.394   0.615   6.594 -0.0808 -0.8276  0.1325
  596MOL0     C80375  -0.280   0.701   6.587  0.3202 -0.3837  0.1596
  596MOL0     N80376   0.307   0.798   6.857 -0.0102  0.4088 -0.1404
  596MOL0     N80377   0.429   0.788   6.898  0.2297  0.1613 -0.2610
  596MOL0     C80378   1.510   0.315   7.166 -0.1017  0.4925 -0.6989
  596MOL0     C80379   1.627   0.247   7.128 -0.1958 -0.4221  0.3909
  596MOL0     C80380   2.004   0.038   7.065 -0.8494  0.7377 -0.7747
  596MOL0     C80381   2.055  -0.022   6.944  0.4696  0.6196 -0.1208
  596MOL0     C80382   2.182  -0.079   6.940  0.4192 -0.4752 -1.0787
  596MOL0     C80383   2.271  -0.056   7.043  0.0154  0.3512  0.3714
  596MOL0     O80384   2.401  -0.103   7.051  0.5217  0.8082 -1.1804
  596MOL0     C80385   2.473  -0.072   6.928 -0.5582  0.2395 -0.8872
  596MOL0     C80386   2.614  -0.065   6.963 -0.2611 -0.3462 -0.0518
  596MOL0     C80387   2.696   0.017   6.854 -0.2253  0.3515 -0.6506
  596MOL0     C80388   2.671   0.162   6.871  0.2392 -0.6419  0.7391
  596MOL0     C80389   2.566   0.202   6.785  0.9197 -0.2841 -0.2013
  596MOL0     C80390   2.469   0.255   6.732  1.2307 -0.1029 -0.4529
  596MOL0     C80391   2.230   0.017   7.156 -0.1725  0.0248  0.2491
  596MOL0     C80392   2.098   0.063   7.172  0.0711 -0.4597 -0.2205
  596MOL0     H80393   1.791   0.268   7.419 -1.1488  1.4510  2.0035
  596MOL0     H80394   1.559   0.358   7.490 -0.3544  1.5185  0.5100
  596MOL0     H80395   1.317   0.521   7.186  3.6235 -1.4717 -0.3929
  596MOL0     H80396   1.253   0.360   7.196  2.7161  0.6481 -0.7629
  596MOL0     H80397   1.110   0.458   7.399 -0.2799  0.7349  0.2911
  596MOL0     H80398   1.170   0.613   7.362 -0.7689  0.8997 -0.8181
  596MOL0     H80399   1.067   0.632   7.146 -0.3226 -0.9463 -1.9017
  596MOL0     H80400   1.001   0.465   7.152  0.5363 -1.2152  0.6399
  596MOL0     H80401   0.896   0.523   7.354  1.0951  0.7477  0.2961
  596MOL0     H80402   0.948   0.695   7.339 -0.6301  0.4079 -0.1764
  596MOL0     H80403   0.843   0.720   7.121 -0.1138 -0.1620 -0.1155
  596MOL0     H80404   0.776   0.559   7.145  1.8417 -0.3942 -2.5656
  596MOL0     H80405   0.677   0.606   7.357  1.7845 -0.6520 -0.4420
  596MOL0     H80406   0.714   0.780   7.335  0.2709 -1.5048  2.8117
  596MOL0     H80407   0.528   0.619   7.152  0.0957  0.2430  0.6694
  596MOL0     H80408   0.486   0.734   7.281  0.8381  1.2909  0.0470
  596MOL0     H80409   0.645   0.798   7.024 -1.1812 -3.9758  1.0150
  596MOL0     H80410   0.607   0.922   7.136  1.3201  0.1503 -0.5264
  596MOL0     H80411   0.314   0.944   7.148  1.1439 -1.1505  0.5984
  596MOL0     H80412   0.034   0.846   6.990  2.1714 -1.4272  1.1957
  596MOL0     H80413   0.093   1.009   7.010  1.9580  0.1692  0.5784
  596MOL0     H80414   0.115   1.015   6.746  0.0614 -1.0908  0.0519
  596MOL0     H80415  -0.046   1.004   6.821 -0.3283 -0.1555  1.1863
  596MOL0     H80416  -0.049   0.742   6.756  0.1933  0.0225 -0.2911
  596MOL0     H80417   0.110   0.756   6.714 -3.2420 -4.1180 -1.3537
  596MOL0     H80418   0.051   0.909   6.534  0.3334 -3.4400 -2.3628
  596MOL0     H80419  -0.108   0.930   6.577 -0.0172 -0.1727 -2.0497
  596MOL0     H80420  -0.088   0.546   6.374 -0.7155 -0.9259 -0.2555
  596MOL0     H80421  -0.254   0.257   6.392 -0.7397  0.7692  1.9699
  596MOL0     H80422  -0.387   0.335   6.308  0.5675 -1.1815 -0.1581
  596MOL0     H80423  -0.216   0.373   6.257  0.4629  1.1127  0.2503
  596MOL0     H80424  -0.753   0.277   6.405  0.7104  2.0721  1.7642
  596MOL0     H80425  -0.949   0.112   6.476  0.1779  1.4603  0.4253
  596MOL0     H80426  -0.811  -0.238   6.700 -0.0770  0.2143 -1.3598
  596MOL0     H80427  -0.901  -0.132   6.812  1.9736  2.5581 -0.8785
  596MOL0     H80428  -1.054  -0.314   6.633 -3.3884 -2.1684  1.1888
  596MOL0     H80429  -1.010  -0.342   6.803  0.4447  0.6003  0.8391
  596MOL0     H80430  -1.168  -0.091   6.711 -1.1433  1.3091  2.2206
  596MOL0     H80431  -1.124  -0.146   6.872  0.5505 -2.4204 -0.1321
  596MOL0     H80432  -1.289  -0.290   6.659 -1.2241  2.4439 -0.3766
  596MOL0     H80433  -1.264  -0.352   6.825  0.4123 -0.7648 -0.9097
  596MOL0     H80434  -1.400  -0.081   6.757 -1.3634 -0.3246  0.0838
  596MOL0     H80435  -1.380  -0.152   6.926 -2.3765 -0.5921  0.5546
  596MOL0     H80436  -1.524  -0.288   6.702 -2.0054 -0.5553  0.8585
  596MOL0     H80437  -1.498  -0.332   6.873  0.1893 -0.3887 -0.9076
  596MOL0     H80438  -1.727  -0.207   6.815  0.4762 -0.1347 -0.1758
  596MOL0     H80439  -1.636  -0.059   6.806 -1.0588  2.7087  4.1709
  596MOL0     H80440  -1.712  -0.050   7.007  1.0486 -0.5122  1.6180
  596MOL0     H80441  -1.547  -0.109   7.035  0.3322  1.0222  0.2881
  596MOL0     H80442  -0.667  -0.087   6.722  0.6614  0.6761  1.1797
  596MOL0     H80443  -0.489   0.075   6.661  0.1031 -0.3011 -0.4551
  596MOL0     H80444  -0.489   0.638   6.641 -1.0163 -5.2419  0.8427
  596MOL0     H80445  -0.298   0.801   6.625 -2.8679  0.5779 -3.2842
  596MOL0     H80446   1.433   0.334   7.093 -1.8645 -2.9269  0.0535
  596MOL0     H80447   1.641   0.216   7.026  3.3174  1.9300 -0.0335
  596MOL0     H80448   1.980  -0.053   6.871 -0.5116 -0.8819  1.4368
  596MOL0     H80449   2.204  -0.140   6.853 -1.6703 -2.3983 -0.3529
  596MOL0     H80450   2.449  -0.154   6.860  0.0670  0.0675 -0.9046
  596MOL0     H80451   2.444   0.023   6.882 -0.5356  1.5295  1.5905
  596MOL0     H80452   2.662  -0.163   6.970 -0.5323 -0.4608  0.2544
  596MOL0     H80453   2.634  -0.019   7.061 -1.2247  1.7459 -0.7808
  596MOL0     H80454   2.676  -0.019   6.753  1.8428 -1.1528 -0.6090
  596MOL0     H80455   2.801  -0.003   6.877 -0.6864 -1.8138 -0.2745
  596MOL0     H80456   2.759   0.225   6.857 -0.5987  0.0212 -2.3263
  596MOL0     H80457   2.638   0.174   6.974  1.9762 -2.0123  1.5036
  596MOL0     H80458   2.393   0.319   6.692  2.5025  2.6011  1.2261
  596MOL0     H80459   2.299   0.039   7.237  0.5982 -0.9032 -0.1452
  596MOL0     H80460   2.075   0.131   7.254 -0.0087  3.0131 -2.9111
  597MOL0     O80461   4.177   2.310   7.300  0.4846  0.9379  0.0229
  597MOL0     C80462   4.267   2.248   7.242  0.5587  0.2965 -0.2280
  597MOL0     O80463   4.259   2.123   7.178  0.6008  0.4365 -0.3029
  597MOL0     C80464   4.144   2.055   7.193 -0.1135 -0.5795  0.2390
  597MOL0     C80465   4.079   2.023   7.075 -0.0573 -0.5126 -0.4591
  597MOL0     C80466   3.945   1.968   7.074  0.7586 -0.7170 -0.0061
  597MOL0     C80467   3.878   1.937   7.190 -0.5453  0.6388 -0.2247
  597MOL0     O80468   3.744   1.902   7.196  0.4420 -0.0028  0.3999
  597MOL0     C80469   3.652   2.006   7.164 -0.3875  0.1281 -0.1402
  597MOL0     C80470   3.527   1.975   7.256 -0.8462 -0.3426  0.8141
  597MOL0     C80471   3.419   2.081   7.240 -0.0164 -0.0584  0.1382
  597MOL0     C80472   3.329   2.054   7.126  0.3105  0.2826 -0.0858
  597MOL0     C80473   3.324   2.168   7.035  0.8209  0.0385 -0.4749
  597MOL0     C80474   3.212   2.138   6.931  0.4954  0.4881 -0.1104
  597MOL0     C80475   3.170   2.248   6.829 -0.0673 -0.4580 -0.2582
  597MOL0     C80476   3.304   2.313   6.770 -0.6764 -0.7716  0.3793
  597MOL0     N80477   3.272   2.432   6.689  0.5268  0.0056 -0.6609
  597MOL0     C80478   3.221   2.552   6.739  0.6268  0.4235 -0.0303
  597MOL0     C80479   3.195   2.623   6.629 -0.1370 -0.4079 -0.4931
  597MOL0     C80480   3.141   2.763   6.632 -0.2111 -0.4787  0.7423
  597MOL0     C80481   2.981   2.762   6.594 -0.3528  0.0572 -0.8433
  597MOL0     C80482   2.933   2.899   6.534 -0.9644  0.7637  0.2460
  597MOL0     C80483   2.790   2.918   6.506 -0.3355  0.8228  1.0570
  597MOL0     O80484   2.750   2.834   6.389 -0.0971 -0.2088  0.1467
  597MOL0     C80485   2.626   2.784   6.375  0.7901 -0.1103 -0.0082
  597MOL0     C80486   2.609   2.675   6.289 -0.9548 -0.4419  0.1898
  597MOL0     C80487   2.485   2.622   6.262  0.1232 -0.2821  0.5503
  597MOL0     C80488   2.474   2.494   6.179 -0.0696 -1.0820  0.0865
  597MOL0     C80489   2.370   2.680   6.315  0.3348  0.5512  0.2688
  597MOL0     C80490   2.226   2.630   6.292 -0.7939  0.4768 -0.0800
  597MOL0     O80491   2.136   2.718   6.266  0.9235  0.4237 -0.0348
  597MOL0     C80492   2.008   2.664   6.241 -0.0265 -0.8815  0.4304
  597MOL0     C80493   1.940   2.706   6.128 -0.1895 -0.0561  0.7904
  597MOL0     C80494   1.808   2.666   6.098 -0.2312  0.2868  0.3340
  597MOL0     C80495   1.742   2.578   6.182  0.2564 -0.1630 -0.0628
  597MOL0     O80496   1.612   2.550   6.149 -0.2186  0.0050 -0.3575
  597MOL0     C80497   1.519   2.581   6.255  0.3763  0.8382  0.1200
  597MOL0     C80498   1.385   2.503   6.226  0.2025  0.1532  0.3502
  597MOL0     C80499   1.331   2.535   6.090 -0.6360 -0.0647  0.9309
  597MOL0     C80500   1.209   2.451   6.069  0.7201 -0.0701  0.1381
  597MOL0     C80501   1.073   2.490   6.136 -0.2703  0.4611  0.7674
  597MOL0     C80502   0.988   2.364   6.164 -0.3425 -0.0983 -0.4012
  597MOL0     C80503   0.947   2.293   6.035 -0.1456 -0.2366  0.0012
  597MOL0     C80504   0.791   2.261   6.041 -0.2414  0.5059  0.1552
  597MOL0    Cl80505   0.687   2.396   6.067 -0.2923 -0.0671  0.0356
  597MOL0     C80506   1.806   2.538   6.295 -0.1445  0.2753 -0.0775
  597MOL0     C80507   1.938   2.574   6.320  0.4219 -0.3248  0.0283
  597MOL0     O80508   2.207   2.511   6.322 -0.8199 -0.1878 -0.7803
  597MOL0     C80509   2.386   2.795   6.391  0.3260  0.7241  0.7182
  597MOL0     C80510   2.509   2.852   6.422 -0.1126 -0.8052  0.1243
  597MOL0     N80511   3.266   2.558   6.526 -0.1261 -0.4949 -0.4410
  597MOL0     N80512   3.292   2.443   6.561  0.3184  0.6347  0.1318
  597MOL0     C80513   3.955   1.960   7.306  0.3607  0.5014  0.5058
  597MOL0     C80514   4.084   2.016   7.309 -0.2082 -0.2905 -0.5192
  597MOL0     C80515   4.401   2.307   7.239 -0.9359  0.6421  0.5479
  597MOL0     C80516   4.489   2.274   7.130  0.1440 -0.4632 -0.1207
  597MOL0     C80517   4.628   2.311   7.128 -0.2045 -0.5721 -0.0916
  597MOL0     C80518   4.682   2.386   7.233  0.0889  0.0636  0.1074
  597MOL0     O80519   4.822   2.418   7.227 -0.3530 -0.0251 -0.0808
  597MOL0     C80520   4.884   2.471   7.345 -0.1044  0.3024  0.9276
  597MOL0     C80521   5.036   2.482   7.320  0.8172  0.2106  0.2759
  597MOL0     C80522   5.099   2.569   7.430  0.3927  0.1213 -1.1603
  597MOL0     C80523   5.249   2.580   7.418  0.4084  0.3849 -0.6000
  597MOL0     C80524   5.291   2.641   7.295  0.5012  0.0778  0.6593
  597MOL0     C80525   5.329   2.697   7.194  0.0164  0.1082 -0.4062
  597MOL0     C80526   4.595   2.421   7.336 -0.4802 -0.0849  0.1808
  597MOL0     C80527   4.456   2.385   7.342 -0.1950 -0.5890 -0.5186
  597MOL0     H80528   4.124   2.040   6.978 -1.3879 -0.3758 -1.0837
  597MOL0     H80529   3.909   1.940   6.976 -0.4878  1.1228 -0.1154
  597MOL0     H80530   3.692   2.108   7.176 -0.3243 -0.0164  1.0607
  597MOL0     H80531   3.617   1.998   7.061 -1.6363  0.1306  0.2683
  597MOL0     H80532   3.488   1.875   7.237 -0.3201 -0.5559  0.8384
  597MOL0     H80533   3.557   1.977   7.361  0.3471  0.9391  0.4727
  597MOL0     H80534   3.354   2.097   7.326 -1.9649 -1.2396 -1.0525
  597MOL0     H80535   3.475   2.173   7.217  0.9714 -0.7943 -0.4839
  597MOL0     H80536   3.368   1.971   7.067  0.3670 -0.0240  0.3782
  597MOL0     H80537   3.230   2.031   7.168  0.7360  1.4100  1.6404
  597MOL0     H80538   3.316   2.267   7.082 -3.3788  0.3632 -1.4973
  597MOL0     H80539   3.417   2.181   6.978  0.7522  2.5847 -0.1428
  597MOL0     H80540   3.240   2.047   6.876 -2.4770 -0.7135  0.1599
  597MOL0     H80541   3.119   2.128   6.988 -1.0970  4.4006 -1.7071
  597MOL0     H80542   3.104   2.217   6.748  1.8664 -0.4580 -1.9302
  597MOL0     H80543   3.113   2.322   6.887  0.0257  0.3794 -1.1871
  597MOL0     H80544   3.364   2.245   6.708  2.7206  1.6270  0.7853
  597MOL0     H80545   3.379   2.331   6.847 -2.0208  3.4763  0.9238
  597MOL0     H80546   3.192   2.582   6.840  2.4918  1.3327  0.2700
  597MOL0     H80547   3.159   2.808   6.730  0.6340  0.7178  0.0702
  597MOL0     H80548   3.205   2.817   6.561 -0.0504 -0.9049  0.5616
  597MOL0     H80549   2.926   2.746   6.687  1.5795  1.4672  0.6226
  597MOL0     H80550   2.957   2.674   6.534  1.7652 -0.9315 -0.3421
  597MOL0     H80551   2.984   2.915   6.438 -0.8645  3.9575  0.6938
  597MOL0     H80552   2.971   2.984   6.593  1.9482  1.9876 -3.0287
  597MOL0     H80553   2.772   3.024   6.491 -0.1680  0.8357  0.9428
  597MOL0     H80554   2.738   2.883   6.596  0.2927 -0.5335  0.9268
  597MOL0     H80555   2.691   2.620   6.244 -1.0334 -0.2888 -0.1509
  597MOL0     H80556   2.393   2.510   6.107 -1.6109  1.2223  2.1654
  597MOL0     H80557   2.567   2.474   6.125  1.9948  0.1902  2.9123
  597MOL0     H80558   2.450   2.411   6.245 -2.1567 -0.1465  0.5901
  597MOL0     H80559   1.993   2.780   6.069 -1.3713 -0.8879 -1.4453
  597MOL0     H80560   1.760   2.717   6.015 -2.0719 -0.3012  0.9858
  597MOL0     H80561   1.548   2.558   6.357  2.3325 -0.3968 -0.6672
  597MOL0     H80562   1.501   2.689   6.258 -0.3754  0.7352 -0.3962
  597MOL0     H80563   1.402   2.395   6.227 -0.7597 -0.0190 -0.3568
  597MOL0     H80564   1.305   2.525   6.297 -0.0697 -1.2355  0.4865
  597MOL0     H80565   1.402   2.517   6.009 -1.1690  0.1826  0.4008
  597MOL0     H80566   1.314   2.641   6.073 -0.6587  0.0460  1.5941
  597MOL0     H80567   1.207   2.446   5.960  1.5889  1.2653  0.0397
  597MOL0     H80568   1.227   2.344   6.082 -1.5740 -0.7548 -1.7120
  597MOL0     H80569   1.029   2.551   6.056  1.5389  0.6082 -0.1594
  597MOL0     H80570   1.089   2.551   6.225 -0.3942 -0.7258  1.6220
  597MOL0     H80571   1.047   2.298   6.229  2.0458  1.3623 -0.9305
  597MOL0     H80572   0.900   2.393   6.221 -3.2546  0.1659 -4.6089
  597MOL0     H80573   0.996   2.195   6.026 -0.8322 -0.4004 -2.9385
  597MOL0     H80574   0.977   2.357   5.951  0.0273 -1.1151 -0.6286
  597MOL0     H80575   0.771   2.189   6.121  0.2593  0.2681  0.0695
  597MOL0     H80576   0.772   2.200   5.952 -0.7122 -2.1905  1.9806
  597MOL0     H80577   1.755   2.467   6.361 -0.2831  0.4645  0.0188
  597MOL0     H80578   1.982   2.539   6.413 -0.4171  0.1939  0.6337
  597MOL0     H80579   2.295   2.839   6.429  0.2071  1.0713  0.0506
  597MOL0     H80580   2.510   2.947   6.475  0.8490 -1.4283  1.2779
  597MOL0     H80581   3.912   1.950   7.405 -2.6818 -0.3586 -0.7810
  597MOL0     H80582   4.131   2.044   7.403 -4.5130  0.6288  1.6237
  597MOL0     H80583   4.452   2.224   7.041  3.7424 -1.8663 -1.0159
  597MOL0     H80584   4.700   2.285   7.051  0.7469 -4.8382  1.9730
  597MOL0     H80585   4.837   2.567   7.365 -1.4312 -0.0766 -0.1785
  597MOL0     H80586   4.875   2.404   7.431 -0.3138 -0.5748  0.2474
  597MOL0     H80587   5.056   2.530   7.223 -1.2415  2.7976  0.9969
  597MOL0     H80588   5.077   2.381   7.325 -0.2941 -0.1963  1.8617
  597MOL0     H80589   5.072   2.520   7.524 -0.3084  0.4280 -1.1958
  597MOL0     H80590   5.057   2.670   7.440  1.8429  0.5331  2.2289
  597MOL0     H80591   5.285   2.477   7.419 -1.8893 -0.4768  0.1275
  597MOL0     H80592   5.297   2.625   7.505 -1.0662 -1.0867  1.0613
  597MOL0     H80593   5.372   2.735   7.104  0.6945  0.8376  0.2022
  597MOL0     H80594   4.623   2.495   7.411 -3.4681  3.6709 -2.0596
  597MOL0     H80595   4.399   2.416   7.429 -3.3895 -1.6619 -2.0566
  598MOL0     O80596   3.300   7.103   8.226  0.5440  0.6016 -0.1112
  598MOL0     C80597   3.219   7.007   8.200 -0.1517 -0.1290  0.5949
  598MOL0     O80598   3.244   6.906   8.112 -0.8850 -0.2578  0.1697
  598MOL0     C80599   3.373   6.900   8.065 -0.5762  0.2186 -0.2537
  598MOL0     C80600   3.485   6.920   8.151 -0.3251 -0.3181 -0.3479
  598MOL0     C80601   3.613   6.885   8.108  0.1067  0.0691  0.8689
  598MOL0     C80602   3.637   6.838   7.982 -0.5620  0.2725 -0.7729
  598MOL0     O80603   3.768   6.807   7.942  0.0109  0.1912 -0.0978
  598MOL0     C80604   3.808   6.837   7.812  0.2704 -0.3972  0.4698
  598MOL0     C80605   3.963   6.830   7.826 -0.9548 -1.3833  0.0910
  598MOL0     C80606   4.038   6.890   7.698 -0.3596  0.0499  0.2794
  598MOL0     C80607   4.189   6.899   7.720  0.2235  0.0850 -0.4456
  598MOL0     C80608   4.251   6.974   7.591 -0.4032 -0.1053 -0.4044
  598MOL0     C80609   4.404   7.011   7.615  0.3326 -0.1400  0.3164
  598MOL0     C80610   4.452   7.110   7.502 -0.8193  0.3013 -0.3216
  598MOL0     C80611   4.594   7.160   7.516 -0.2684 -0.5183  1.0390
  598MOL0     N80612   4.603   7.246   7.633 -0.5420 -1.2175  0.5639
  598MOL0     C80613   4.519   7.351   7.664  0.0167 -0.5520  0.5036
  598MOL0     C80614   4.571   7.391   7.782  0.6563  0.3275 -0.5272
  598MOL0     C80615   4.512   7.499   7.869 -0.2085 -0.2350  0.3785
  598MOL0     C80616   4.526   7.636   7.798  1.3515  0.3076  0.4958
  598MOL0     C80617   4.506   7.749   7.893  0.0938 -0.7171 -0.0724
  598MOL0     C80618   4.549   7.880   7.832  0.2932  0.4733  0.2919
  598MOL0     O80619   4.500   7.979   7.927  0.5688 -0.1884  0.5088
  598MOL0     C80620   4.372   8.034   7.907 -0.3368  0.0620 -0.0587
  598MOL0     C80621   4.351   8.152   7.979  0.5980  0.5931 -0.0431
  598MOL0     C80622   4.226   8.216   7.983 -0.9833  0.4603  0.0630
  598MOL0     C80623   4.225   8.348   8.055  0.5577  0.1805 -0.1043
  598MOL0     C80624   4.118   8.159   7.907 -0.3573  0.1722  0.0536
  598MOL0     C80625   3.994   8.233   7.900 -0.0815  1.0984  0.7355
  598MOL0     O80626   3.883   8.159   7.901  0.3866  0.1096 -0.6069
  598MOL0     C80627   3.758   8.221   7.926 -0.7450 -0.2465  0.1789
  598MOL0     C80628   3.692   8.168   8.031 -0.3816 -0.6413 -0.1526
  598MOL0     C80629   3.563   8.218   8.065  0.5353  0.2034 -0.2464
  598MOL0     C80630   3.499   8.322   8.000 -0.9020 -0.5465 -0.1372
  598MOL0     O80631   3.377   8.376   8.053 -0.5615  0.1213  0.5790
  598MOL0     C80632   3.324   8.494   7.999  0.8221 -0.1940  0.9357
  598MOL0     C80633   3.189   8.525   8.065 -0.1822 -0.0784 -0.7319
  598MOL0     C80634   3.135   8.660   8.019  0.2301 -0.8368  0.0953
  598MOL0     C80635   2.994   8.708   8.076 -0.5381 -0.1800  0.5202
  598MOL0     C80636   2.951   8.842   8.024  0.5112 -0.1227  0.1851
  598MOL0     C80637   2.809   8.864   8.080  0.4870  0.2596  1.2279
  598MOL0     C80638   2.779   9.013   8.080 -0.2836  0.0139  0.4869
  598MOL0     C80639   2.628   9.057   8.083  0.0641 -0.3511 -1.4148
  598MOL0    Cl80640   2.557   9.013   7.921 -0.3839  0.4423  0.2146
  598MOL0     C80641   3.567   8.380   7.889 -0.1818  0.3961 -0.2878
  598MOL0     C80642   3.691   8.326   7.850  0.0532 -0.4908 -0.4684
  598MOL0     O80643   3.989   8.357   7.900  0.2980 -0.3799 -0.6641
  598MOL0     C80644   4.137   8.032   7.842  0.5083  0.5362  0.0348
  598MOL0     C80645   4.269   7.977   7.833 -0.3287 -0.0267  0.3922
  598MOL0     N80646   4.677   7.316   7.817  0.5649  0.5773  0.2710
  598MOL0     N80647   4.704   7.234   7.718 -0.3421  0.4157 -0.0360
  598MOL0     C80648   3.529   6.819   7.896  0.4942  0.4927  0.9888
  598MOL0     C80649   3.392   6.858   7.928 -1.0232  0.5716 -0.8679
  598MOL0     C80650   3.079   7.017   8.249 -0.2551 -0.2769 -1.2638
  598MOL0     C80651   3.018   6.893   8.275 -0.1894  0.3137  0.3090
  598MOL0     C80652   2.890   6.884   8.329  0.5470 -0.1393  0.8562
  598MOL0     C80653   2.819   6.997   8.361 -0.5380 -0.5484 -0.7314
  598MOL0     O80654   2.706   6.993   8.441  0.6881  0.1676  0.0286
  598MOL0     C80655   2.591   6.954   8.363  0.0572  0.1826 -0.7402
  598MOL0     C80656   2.530   6.822   8.408 -0.2437 -0.2784 -0.0846
  598MOL0     C80657   2.390   6.791   8.355  0.8877  0.3653 -0.1100
  598MOL0     C80658   2.384   6.763   8.204  0.4786 -0.3054 -0.5652
  598MOL0     C80659   2.270   6.671   8.179  0.4450 -0.4126 -0.3972
  598MOL0     C80660   2.178   6.592   8.147  0.0790  0.1934  1.0024
  598MOL0     C80661   2.886   7.122   8.347 -0.0987 -0.4997  1.0615
  598MOL0     C80662   3.015   7.132   8.283  0.1704 -0.1246 -0.0698
  598MOL0     H80663   3.470   6.949   8.255 -0.9004  0.1655 -0.5631
  598MOL0     H80664   3.699   6.894   8.173  1.0023 -0.1319 -0.2629
  598MOL0     H80665   3.769   6.763   7.742 -0.2298 -1.6285  2.0100
  598MOL0     H80666   3.783   6.941   7.788  2.8405  0.7718  2.3843
  598MOL0     H80667   3.989   6.867   7.926  0.3594 -1.9594 -0.0224
  598MOL0     H80668   3.979   6.722   7.830  0.0175 -1.2486  0.1164
  598MOL0     H80669   4.014   6.838   7.605  1.2086 -1.3462  0.6187
  598MOL0     H80670   4.002   6.993   7.692  0.6843  0.6571  2.9346
  598MOL0     H80671   4.209   6.956   7.811 -1.2610 -1.7110  1.0950
  598MOL0     H80672   4.242   6.805   7.742  1.7066  1.1938  1.0177
  598MOL0     H80673   4.248   6.922   7.495 -0.2912 -0.4629 -0.2117
  598MOL0     H80674   4.186   7.060   7.568 -2.5628 -1.4249  0.4593
  598MOL0     H80675   4.417   7.048   7.718 -0.7979 -0.3499  0.5480
  598MOL0     H80676   4.459   6.917   7.617 -0.3320 -0.5557  3.2538
  598MOL0     H80677   4.452   7.054   7.408 -0.4568 -0.8137  0.3247
  598MOL0     H80678   4.376   7.188   7.494 -3.0340 -1.5400  1.3747
  598MOL0     H80679   4.629   7.208   7.424 -0.8827 -1.5769  0.2240
  598MOL0     H80680   4.664   7.075   7.519  1.7588  1.0652  0.6405
  598MOL0     H80681   4.439   7.401   7.609  0.7914  0.6659  0.4336
  598MOL0     H80682   4.404   7.487   7.882 -0.4883 -1.5912 -2.4954
  598MOL0     H80683   4.550   7.502   7.972 -2.9792  1.7313  1.4669
  598MOL0     H80684   4.463   7.656   7.711  0.6139  2.5744  1.4758
  598MOL0     H80685   4.629   7.641   7.762  0.9186  0.8642 -0.7178
  598MOL0     H80686   4.571   7.726   7.978  0.4125 -3.2487 -0.9118
  598MOL0     H80687   4.401   7.743   7.923 -0.4496 -1.7137 -1.9755
  598MOL0     H80688   4.517   7.902   7.729  0.9226 -2.4660 -0.6393
  598MOL0     H80689   4.657   7.891   7.835  0.2540  0.6497  3.0369
  598MOL0     H80690   4.435   8.201   8.028  0.6916  2.3056 -1.8130
  598MOL0     H80691   4.317   8.380   8.104  0.7041 -0.4383  0.0336
  598MOL0     H80692   4.197   8.422   7.980  0.2357  1.2390  1.0362
  598MOL0     H80693   4.148   8.346   8.133 -0.4291  2.0026 -0.9699
  598MOL0     H80694   3.733   8.085   8.087  0.4165  0.4649  0.9613
  598MOL0     H80695   3.519   8.183   8.158 -0.0116 -1.5283 -1.1147
  598MOL0     H80696   3.395   8.571   8.031  1.8828 -1.1721  0.9757
  598MOL0     H80697   3.319   8.495   7.890  1.3759 -1.1732  0.8897
  598MOL0     H80698   3.112   8.450   8.045 -0.5254 -0.5434  2.0438
  598MOL0     H80699   3.215   8.534   8.170  1.6303 -1.2147 -1.0484
  598MOL0     H80700   3.128   8.657   7.910  0.9796 -1.8263  0.0604
  598MOL0     H80701   3.208   8.739   8.039 -1.2773  0.6285 -0.0547
  598MOL0     H80702   2.916   8.637   8.049  1.4767 -1.6473 -1.8097
  598MOL0     H80703   2.994   8.707   8.186 -0.8752  2.4708  0.6135
  598MOL0     H80704   2.941   8.845   7.915  0.2530  1.7532  0.2381
  598MOL0     H80705   3.015   8.927   8.050 -0.0920  0.3547  0.1153
  598MOL0     H80706   2.736   8.800   8.030  0.6401 -0.0646  1.4077
  598MOL0     H80707   2.811   8.824   8.182 -0.6422 -2.4192  0.2831
  598MOL0     H80708   2.824   9.061   7.993  0.4013  2.1782  1.9314
  598MOL0     H80709   2.828   9.062   8.165 -1.5854  1.5165  0.4120
  598MOL0     H80710   2.620   9.163   8.106 -0.9476 -0.3973 -1.5119
  598MOL0     H80711   2.566   9.007   8.159  0.3749 -1.6252 -1.9836
  598MOL0     H80712   3.533   8.470   7.839 -1.9358  1.5987  2.8090
  598MOL0     H80713   3.750   8.365   7.768 -0.1908 -3.3052 -2.1310
  598MOL0     H80714   4.054   7.994   7.783  0.5664 -0.8694  0.7958
  598MOL0     H80715   4.273   7.884   7.778 -2.7178 -0.0926  0.2150
  598MOL0     H80716   3.545   6.795   7.791 -0.5409  0.1980  0.8867
  598MOL0     H80717   3.316   6.841   7.853 -0.0829 -1.4784 -1.4458
  598MOL0     H80718   3.067   6.798   8.255  0.5651  0.7785 -0.1301
  598MOL0     H80719   2.844   6.788   8.351 -0.6480  0.4196  0.8915
  598MOL0     H80720   2.514   7.031   8.364 -0.6008 -0.4629  0.0010
  598MOL0     H80721   2.613   6.960   8.256 -2.0715  2.1598 -1.1439
  598MOL0     H80722   2.537   6.824   8.517 -2.6553 -0.6824  0.1360
  598MOL0     H80723   2.602   6.744   8.382  0.5474  0.6093 -0.6110
  598MOL0     H80724   2.323   6.874   8.382  3.6718  2.8013 -0.2430
  598MOL0     H80725   2.348   6.703   8.405  1.3525  1.2640  1.9642
  598MOL0     H80726   2.481   6.717   8.183 -0.5396 -2.5809 -0.5531
  598MOL0     H80727   2.381   6.860   8.152  2.7643 -0.7233 -1.6000
  598MOL0     H80728   2.100   6.519   8.138 -1.9418  2.2547  0.6809
  598MOL0     H80729   2.847   7.214   8.390  1.9649  0.1297  1.6950
  598MOL0     H80730   3.067   7.224   8.255 -0.3513  0.6947  1.5022
  599MOL0     O80731   2.786   0.168   9.528  0.1281 -0.3628 -0.2173
  599MOL0     C80732   2.794   0.063   9.584  0.7316  0.1203  0.2070
  599MOL0     O80733   2.691  -0.023   9.606  0.1563 -0.1190 -0.5533
  599MOL0     C80734   2.564  -0.005   9.560  0.3064 -0.5840 -0.8129
  599MOL0     C80735   2.484   0.086   9.633  1.1055  1.1462  0.1923
  599MOL0     C80736   2.357   0.114   9.580  0.3572  0.8191 -0.0649
  599MOL0     C80737   2.308   0.059   9.461 -0.0666  0.5621  0.5225
  599MOL0     O80738   2.184   0.099   9.408 -0.5079  0.2049 -0.1843
  599MOL0     C80739   2.072   0.080   9.483  0.5612  0.2063  0.0150
  599MOL0     C80740   1.952   0.178   9.445 -0.8460  0.1102 -0.2400
  599MOL0     C80741   1.816   0.129   9.483  0.2502 -0.3949  0.5823
  599MOL0     C80742   1.695   0.219   9.432  0.3283 -0.5241  0.2409
  599MOL0     C80743   1.570   0.147   9.481 -0.4360  0.3782  0.1554
  599MOL0     C80744   1.441   0.226   9.458  0.3162 -0.5208  0.1270
  599MOL0     C80745   1.330   0.136   9.518 -0.3086 -0.2876 -0.0772
  599MOL0     C80746   1.343   0.140   9.674 -0.1921 -0.7018  0.6353
  599MOL0     N80747   1.215   0.142   9.734 -0.3473 -0.4027 -0.0939
  599MOL0     C80748   1.171   0.048   9.823  1.2993  0.0970  0.1667
  599MOL0     C80749   1.042   0.075   9.839  0.6971 -0.3753 -0.0541
  599MOL0     C80750   0.938   0.011   9.924 -1.0494  0.3546  0.3977
  599MOL0     C80751   0.835  -0.067   9.848 -0.4615 -0.9088 -0.2127
  599MOL0     C80752   0.741  -0.142   9.951 -0.0034 -0.0390  1.1476
  599MOL0     C80753   0.646  -0.048  10.014 -0.5667 -0.5855  0.3680
  599MOL0     O80754   0.548  -0.113  10.097 -0.0667 -0.0078 -0.3188
  599MOL0     C80755   0.454  -0.193  10.045  0.4239  0.5754 -0.1181
  599MOL0     C80756   0.420  -0.207   9.909  0.1223 -0.0113 -0.1898
  599MOL0     C80757   0.305  -0.270   9.865 -0.1443 -0.5187  0.7958
  599MOL0     C80758   0.282  -0.271   9.711 -0.4031 -0.0437 -0.0646
  599MOL0     C80759   0.232  -0.346   9.960  0.3061 -0.8320 -0.3616
  599MOL0     C80760   0.105  -0.418   9.935  0.1684  0.4033 -0.3451
  599MOL0     O80761   0.010  -0.411  10.019  0.9109 -0.6782 -0.5014
  599MOL0     C80762  -0.104  -0.484  10.010 -0.3857 -0.5135  0.2220
  599MOL0     C80763  -0.123  -0.620   9.978  0.2076 -0.0611  0.8264
  599MOL0     C80764  -0.246  -0.683   9.969  0.4419 -1.0891 -0.5630
  599MOL0     C80765  -0.361  -0.613  10.014  0.6527  0.6263 -0.4124
  599MOL0     O80766  -0.483  -0.684  10.004 -0.2864  0.4972  0.0004
  599MOL0     C80767  -0.562  -0.685  10.123 -0.1203 -0.0648  0.5201
  599MOL0     C80768  -0.696  -0.743  10.085 -0.8919 -0.2521 -0.4671
  599MOL0     C80769  -0.691  -0.900  10.067  0.4340 -0.4970  0.2948
  599MOL0     C80770  -0.819  -0.951   9.991 -0.0066  0.9930 -0.3627
  599MOL0     C80771  -0.827  -0.900   9.843  0.1766 -0.0399 -0.4272
  599MOL0     C80772  -0.715  -0.935   9.743  0.4452  0.2962 -0.9007
  599MOL0     C80773  -0.665  -1.079   9.742 -0.5427 -0.2354  0.0695
  599MOL0     C80774  -0.503  -1.108   9.717 -0.3269 -0.0436 -0.4400
  599MOL0    Cl80775  -0.415  -1.009   9.828  0.1602  0.2521 -0.0666
  599MOL0     C80776  -0.341  -0.483  10.064 -0.4038 -0.0713 -0.1049
  599MOL0     C80777  -0.220  -0.414  10.048  0.4708 -0.0756 -0.1695
  599MOL0     O80778   0.096  -0.482   9.834  0.0239  0.0003  0.6045
  599MOL0     C80779   0.264  -0.329  10.096  0.3903  0.4780 -0.1595
  599MOL0     C80780   0.372  -0.247  10.142  0.0864 -0.2677 -0.3111
  599MOL0     N80781   1.012   0.187   9.755  0.2547  0.2220  0.6008
  599MOL0     N80782   1.118   0.230   9.708  0.6051 -0.7928 -0.0138
  599MOL0     C80783   2.394  -0.029   9.391  0.6810  0.3575  0.1125
  599MOL0     C80784   2.521  -0.055   9.441 -0.6225 -1.2810  0.4764
  599MOL0     C80785   2.923   0.015   9.630  0.1486  0.5436 -0.5548
  599MOL0     C80786   3.040   0.089   9.605 -0.4802 -0.4159 -0.2980
  599MOL0     C80787   3.163   0.037   9.625  0.8407 -0.4929  0.0644
  599MOL0     C80788   3.181  -0.086   9.688  0.6388  0.1138 -0.2756
  599MOL0     O80789   3.310  -0.131   9.713  0.2263  0.1693 -0.1478
  599MOL0     C80790   3.345  -0.269   9.727 -0.0720 -1.1590 -0.6763
  599MOL0     C80791   3.332  -0.353   9.600  0.2970  0.3199  0.4845
  599MOL0     C80792   3.433  -0.333   9.488 -0.1411  0.8260 -0.0346
  599MOL0     C80793   3.578  -0.382   9.531 -0.4251 -0.4703  0.1319
  599MOL0     C80794   3.590  -0.519   9.560 -0.1204  0.0017  0.5671
  599MOL0     C80795   3.600  -0.639   9.582 -0.2687 -0.1411 -0.3130
  599MOL0     C80796   3.067  -0.163   9.715  0.2812  0.6510 -0.1407
  599MOL0     C80797   2.936  -0.113   9.687  0.0880  0.1130 -0.3360
  599MOL0     H80798   2.521   0.146   9.716  2.9227  2.1291 -1.2342
  599MOL0     H80799   2.298   0.199   9.614 -2.1558 -0.3230 -1.2471
  599MOL0     H80800   2.027  -0.018   9.462 -2.6260  1.3123  1.0033
  599MOL0     H80801   2.091   0.078   9.590 -2.5598 -0.1745  0.6640
  599MOL0     H80802   1.956   0.281   9.483 -3.6399  0.1323  0.2209
  599MOL0     H80803   1.962   0.173   9.336  1.7496 -0.7066 -0.0259
  599MOL0     H80804   1.799   0.027   9.448 -1.9822  0.0217  0.2744
  599MOL0     H80805   1.810   0.132   9.592  2.1734  0.2919  0.7037
  599MOL0     H80806   1.691   0.311   9.491  1.3322 -1.0919  1.2343
  599MOL0     H80807   1.706   0.231   9.324  2.4764  1.0615  0.5734
  599MOL0     H80808   1.568   0.050   9.430 -0.2863  1.0123 -1.1010
  599MOL0     H80809   1.580   0.112   9.584 -1.4840 -1.6247 -0.3699
  599MOL0     H80810   1.448   0.328   9.498  1.1525 -0.5538  0.0825
  599MOL0     H80811   1.407   0.239   9.355  0.3027 -3.3386 -0.2823
  599MOL0     H80812   1.241   0.195   9.493 -0.5962 -0.3561  0.7796
  599MOL0     H80813   1.337   0.036   9.473  2.3727 -0.6130  0.8571
  599MOL0     H80814   1.408   0.222   9.707  1.6353 -0.1331 -3.6269
  599MOL0     H80815   1.393   0.050   9.712  2.0749 -1.1520 -2.8917
  599MOL0     H80816   1.203  -0.041   9.876 -0.0615 -0.3824  0.2206
  599MOL0     H80817   0.994  -0.052   9.992  1.2764 -0.4483 -2.0887
  599MOL0     H80818   0.895   0.090   9.986 -0.7848  0.3440  0.5967
  599MOL0     H80819   0.882  -0.152   9.798  1.7553  0.2108 -0.1698
  599MOL0     H80820   0.779  -0.006   9.777 -1.6091 -1.2248  0.4098
  599MOL0     H80821   0.800  -0.196  10.025  1.0797  0.1751  0.4613
  599MOL0     H80822   0.690  -0.212   9.885  0.9150 -1.3788  1.8192
  599MOL0     H80823   0.603   0.015   9.936  1.4565 -1.3731 -1.5165
  599MOL0     H80824   0.713   0.013  10.076  1.3904  0.1473 -2.2795
  599MOL0     H80825   0.481  -0.167   9.829  1.9509 -1.0001  0.6358
  599MOL0     H80826   0.235  -0.364   9.678 -2.1794  0.6690  0.3383
  599MOL0     H80827   0.211  -0.193   9.685 -1.3176 -0.0137  2.2820
  599MOL0     H80828   0.375  -0.247   9.659 -0.9307 -0.6930 -1.3597
  599MOL0     H80829  -0.030  -0.668   9.954 -1.5167 -2.3010 -1.9693
  599MOL0     H80830  -0.249  -0.788   9.945  0.0261 -0.5703 -3.0383
  599MOL0     H80831  -0.510  -0.745  10.198  1.1036 -1.2666 -1.2090
  599MOL0     H80832  -0.585  -0.582  10.152  1.0760  1.3158 -2.8282
  599MOL0     H80833  -0.762  -0.728  10.171  1.2629  0.5327  1.1219
  599MOL0     H80834  -0.733  -0.689   9.997 -3.9619  0.6000  1.1818
  599MOL0     H80835  -0.687  -0.946  10.166 -0.7796  1.2349  1.2132
  599MOL0     H80836  -0.596  -0.923  10.020 -1.3445 -3.1130 -2.3821
  599MOL0     H80837  -0.821  -1.060   9.988 -0.3285  1.0160 -1.5176
  599MOL0     H80838  -0.908  -0.910  10.038  1.2927  0.8762  2.3858
  599MOL0     H80839  -0.837  -0.791   9.844  1.2739  0.0811 -0.7587
  599MOL0     H80840  -0.914  -0.954   9.806  0.7267 -0.8662 -0.5461
  599MOL0     H80841  -0.749  -0.909   9.642  0.6259 -0.5416 -1.1867
  599MOL0     H80842  -0.623  -0.877   9.757  0.6981 -0.2702 -0.1488
  599MOL0     H80843  -0.718  -1.121   9.657 -0.8068  1.9797 -0.9439
  599MOL0     H80844  -0.692  -1.139   9.829  0.3465 -0.6979  0.0402
  599MOL0     H80845  -0.469  -1.082   9.616  2.1842 -1.7538 -0.1418
  599MOL0     H80846  -0.475  -1.213   9.731  1.5022  0.4503 -0.0587
  599MOL0     H80847  -0.428  -0.425  10.093 -0.6131 -0.0778 -0.7142
  599MOL0     H80848  -0.214  -0.315  10.092  0.7266 -0.9946  2.0195
  599MOL0     H80849   0.207  -0.363  10.182 -1.1109 -1.2260 -1.7432
  599MOL0     H80850   0.396  -0.215  10.243  1.7307 -1.5969 -0.2566
  599MOL0     H80851   2.369  -0.067   9.292  1.8052  1.8470 -0.7838
  599MOL0     H80852   2.577  -0.118   9.373 -0.9142 -0.1541 -0.8421
  599MOL0     H80853   3.032   0.186   9.557 -2.4949 -1.0922 -1.4442
  599MOL0     H80854   3.252   0.097   9.607  0.1189  0.2712 -1.1271
  599MOL0     H80855   3.450  -0.275   9.759 -0.8498 -1.4235  2.0600
  599MOL0     H80856   3.289  -0.298   9.816  2.6342  1.6423  2.1909
  599MOL0     H80857   3.232  -0.322   9.567  0.7515 -0.2301 -1.5351
  599MOL0     H80858   3.324  -0.455   9.637 -0.1973  0.8714  1.9704
  599MOL0     H80859   3.432  -0.228   9.457 -1.1999  1.4503  1.9711
  599MOL0     H80860   3.405  -0.394   9.401  4.0528  1.2968 -1.9835
  599MOL0     H80861   3.613  -0.317   9.611  0.2896 -0.2244 -0.3678
  599MOL0     H80862   3.643  -0.358   9.447 -1.9407  1.5804 -0.5502
  599MOL0     H80863   3.599  -0.743   9.609 -2.4082 -0.0933 -0.0259
  599MOL0     H80864   3.075  -0.262   9.759  1.9344  1.1864  0.8570
  599MOL0     H80865   2.848  -0.175   9.702  0.5677 -0.1304  1.7863
  600MOL0     O80866  10.943   0.777   3.993  0.1644  0.3945 -0.2517
  600MOL0     C80867  10.904   0.863   3.920 -0.8008  0.8574 -0.1883
  600MOL0     O80868  10.779   0.898   3.900 -1.1612  0.5419 -0.2684
  600MOL0     C80869  10.685   0.802   3.924 -0.5962 -0.6186 -0.0856
  600MOL0     C80870  10.640   0.716   3.824 -0.6369 -0.3027 -0.4831
  600MOL0     C80871  10.534   0.636   3.844  0.7126 -0.3539  0.5294
  600MOL0     C80872  10.479   0.619   3.973 -1.3771 -0.2517 -0.3901
  600MOL0     O80873  10.373   0.532   3.984 -0.2513 -0.5280  0.1179
  600MOL0     C80874  10.260   0.597   4.043 -0.1219  0.1832  0.6029
  600MOL0     C80875  10.139   0.536   3.967 -0.7844  0.0656 -1.1563
  600MOL0     C80876  10.151   0.550   3.811  0.8039  0.8756 -0.8202
  600MOL0     C80877  10.022   0.501   3.743 -0.3062 -0.3783  0.8905
  600MOL0     C80878  10.034   0.503   3.594 -0.2283  0.2566 -0.2386
  600MOL0     C80879   9.950   0.395   3.524 -0.0254 -0.7283 -0.1539
  600MOL0     C80880   9.806   0.401   3.560 -0.3200 -0.0191  0.0034
  600MOL0     C80881   9.743   0.526   3.497 -0.2148 -0.1391  0.2080
  600MOL0     N80882   9.595   0.510   3.505 -0.2659  0.4104  0.6417
  600MOL0     C80883   9.525   0.430   3.430  0.0836  0.2033 -0.3232
  600MOL0     C80884   9.405   0.420   3.482 -1.0610 -0.8121 -1.3097
  600MOL0     C80885   9.278   0.343   3.455  0.3875  0.2051 -0.6562
  600MOL0     C80886   9.190   0.393   3.340 -0.1698 -0.1001  0.1165
  600MOL0     C80887   9.121   0.523   3.387 -0.4420 -0.0709 -1.4238
  600MOL0     C80888   9.100   0.618   3.267 -0.4211  0.4129 -0.5291
  600MOL0     O80889   9.020   0.555   3.164  0.0859 -0.1089 -0.5037
  600MOL0     C80890   8.886   0.549   3.194  0.5568 -0.1842  0.2899
  600MOL0     C80891   8.820   0.448   3.122  0.2038  0.0043  0.7240
  600MOL0     C80892   8.688   0.403   3.138  0.5127 -0.4605 -0.2753
  600MOL0     C80893   8.645   0.288   3.054 -0.1200  0.2377 -0.0322
  600MOL0     C80894   8.610   0.478   3.220  0.6975  0.6371 -0.1180
  600MOL0     C80895   8.463   0.458   3.234 -0.3044 -0.2525 -0.8495
  600MOL0     O80896   8.414   0.450   3.360  0.1463  0.0892  0.2939
  600MOL0     C80897   8.274   0.444   3.368  1.1911  0.6460  0.1703
  600MOL0     C80898   8.193   0.557   3.333 -0.0718 -0.3729 -0.8746
  600MOL0     C80899   8.056   0.558   3.350  0.0091 -0.0144 -0.4387
  600MOL0     C80900   7.990   0.447   3.400  0.8904 -0.4077 -0.0215
  600MOL0     O80901   7.856   0.423   3.418 -0.5618 -0.3588 -0.5179
  600MOL0     C80902   7.772   0.525   3.373 -0.3736  0.4083  0.2655
  600MOL0     C80903   7.631   0.471   3.389  0.4818  0.0885  1.1584
  600MOL0     C80904   7.523   0.521   3.296  0.8287 -0.4511  0.2808
  600MOL0     C80905   7.384   0.473   3.342 -0.5092 -0.0838 -0.2279
  600MOL0     C80906   7.265   0.522   3.261 -0.8281 -0.1085  1.3514
  600MOL0     C80907   7.139   0.447   3.303 -0.6228  0.4378  0.2476
  600MOL0     C80908   7.006   0.498   3.256  0.0329 -0.1557  0.7041
  600MOL0     C80909   6.996   0.536   3.107 -0.0454  0.2182 -0.0079
  600MOL0    Cl80910   7.054   0.716   3.081 -0.1939  0.1176  0.2133
  600MOL0     C80911   8.066   0.334   3.439 -0.7922 -0.3697  0.6928
  600MOL0     C80912   8.210   0.332   3.416 -0.4505 -0.0258 -0.7941
  600MOL0     O80913   8.393   0.451   3.134 -0.5793  0.3380 -0.7372
  600MOL0     C80914   8.669   0.581   3.296 -0.1769  0.1799 -0.9811
  600MOL0     C80915   8.807   0.615   3.288  0.3928  0.1456 -0.1298
  600MOL0     N80916   9.398   0.506   3.598 -0.9731 -0.5111 -0.5570
  600MOL0     N80917   9.516   0.553   3.606  0.6884 -0.1931 -0.3933
  600MOL0     C80918  10.525   0.705   4.076 -0.4285 -0.3080  0.0548
  600MOL0     C80919  10.624   0.801   4.050  0.3716 -0.0810 -0.5705
  600MOL0     C80920  11.013   0.939   3.844  0.4245  0.7257  0.2417
  600MOL0     C80921  11.148   0.930   3.869  0.1987  0.6629  0.0218
  600MOL0     C80922  11.245   0.990   3.791  0.2354 -0.1013 -0.7886
  600MOL0     C80923  11.212   1.068   3.680 -0.4007 -0.6399  0.1174
  600MOL0     O80924  11.297   1.147   3.602  0.1749  0.7712  0.5425
  600MOL0     C80925  11.432   1.146   3.652 -0.4173  1.1108  0.0238
  600MOL0     C80926  11.520   1.031   3.611  0.5057 -0.2095  0.6602
  600MOL0     C80927  11.563   1.039   3.463  0.1789 -0.0717 -0.5206
  600MOL0     C80928  11.688   0.951   3.448 -0.1025  0.1202  0.2421
  600MOL0     C80929  11.807   1.029   3.490 -0.7398 -0.2147  0.4344
  600MOL0     C80930  11.911   1.075   3.532 -0.4260 -0.1378 -0.8128
  600MOL0     C80931  11.075   1.067   3.650 -0.3744  0.1552  0.2950
  600MOL0     C80932  10.980   1.002   3.726 -0.1113  0.1077 -0.6083
  600MOL0     H80933  10.663   0.736   3.720  0.0406  1.5349 -0.0239
  600MOL0     H80934  10.487   0.592   3.756 -0.3641  0.0954  0.8691
  600MOL0     H80935  10.245   0.592   4.151 -0.4051  4.1915  0.8936
  600MOL0     H80936  10.260   0.704   4.022 -1.1888 -0.2730 -2.1305
  600MOL0     H80937  10.138   0.429   3.990 -0.6401 -0.2305 -2.4491
  600MOL0     H80938  10.049   0.584   4.006  0.5267  0.9086  1.0691
  600MOL0     H80939  10.162   0.652   3.773  0.0702  1.1139 -0.4067
  600MOL0     H80940  10.235   0.488   3.778 -0.2379 -0.5754 -0.8562
  600MOL0     H80941  10.015   0.394   3.766  2.8062 -1.0664 -0.8448
  600MOL0     H80942   9.940   0.559   3.786  0.6666  1.4329  0.3769
  600MOL0     H80943  10.002   0.598   3.551 -2.4681 -0.6193 -0.6724
  600MOL0     H80944  10.137   0.487   3.562  0.8535  3.2473  1.3872
  600MOL0     H80945   9.965   0.414   3.417 -1.6094  1.1801 -0.0712
  600MOL0     H80946   9.984   0.292   3.544  0.3180 -0.9778 -1.8206
  600MOL0     H80947   9.744   0.319   3.522 -1.1556  1.2412 -1.4473
  600MOL0     H80948   9.799   0.395   3.669  0.0563  3.3625  0.3029
  600MOL0     H80949   9.778   0.546   3.395 -0.4313  0.5888  0.2682
  600MOL0     H80950   9.763   0.614   3.558 -4.5378  0.0802  1.6274
  600MOL0     H80951   9.545   0.371   3.342 -1.3405 -0.2161 -0.3958
  600MOL0     H80952   9.319   0.244   3.434  1.4763  0.7849 -1.3415
  600MOL0     H80953   9.212   0.326   3.540 -1.4867  1.0950 -1.8708
  600MOL0     H80954   9.113   0.319   3.313  0.0410 -0.1472 -0.3671
  600MOL0     H80955   9.255   0.415   3.255  0.9075 -1.7609  0.4593
  600MOL0     H80956   9.190   0.574   3.455 -0.4954  2.0608 -2.8696
  600MOL0     H80957   9.030   0.500   3.442  0.2932  1.5148  0.5823
  600MOL0     H80958   9.196   0.640   3.220 -0.2814 -1.7044 -1.3733
  600MOL0     H80959   9.050   0.709   3.301 -0.1023  0.6975 -0.8204
  600MOL0     H80960   8.877   0.396   3.046 -1.1014 -0.3132 -0.0764
  600MOL0     H80961   8.724   0.214   3.036 -0.1283  0.4725 -1.1172
  600MOL0     H80962   8.571   0.225   3.104 -0.5143 -0.7101 -1.7199
  600MOL0     H80963   8.600   0.313   2.958 -2.5359  0.5385  1.1245
  600MOL0     H80964   8.254   0.643   3.307 -0.9462  0.5896  0.1531
  600MOL0     H80965   8.001   0.651   3.341 -1.6384 -0.9100  0.1001
  600MOL0     H80966   7.780   0.615   3.434 -2.4631 -0.8833  2.6669
  600MOL0     H80967   7.790   0.556   3.269 -0.4217 -4.0317 -1.3028
  600MOL0     H80968   7.631   0.363   3.374  0.7676  0.2944 -0.4557
  600MOL0     H80969   7.595   0.481   3.492 -0.2174 -1.5966  1.1058
  600MOL0     H80970   7.557   0.489   3.197  2.1475  0.2222  0.4900
  600MOL0     H80971   7.522   0.631   3.293 -2.1456 -0.3580  1.2814
  600MOL0     H80972   7.391   0.364   3.346  3.6441  0.0454  2.5560
  600MOL0     H80973   7.364   0.507   3.444  1.8664  1.3624 -0.1569
  600MOL0     H80974   7.289   0.510   3.155  3.6621  1.5329  1.9681
  600MOL0     H80975   7.262   0.631   3.269  0.2178 -0.0583  1.2539
  600MOL0     H80976   7.146   0.345   3.266 -0.7906  1.3778 -2.6186
  600MOL0     H80977   7.134   0.428   3.411  2.9420 -2.9291  0.0304
  600MOL0     H80978   6.988   0.590   3.312 -0.4772  0.7449 -0.8772
  600MOL0     H80979   6.919   0.438   3.285 -0.7600 -0.0639 -1.3074
  600MOL0     H80980   6.892   0.530   3.071 -1.1211  0.5947  2.8020
  600MOL0     H80981   7.063   0.482   3.039 -0.9261  0.6934 -1.3058
  600MOL0     H80982   8.017   0.252   3.489  0.7152 -0.4246  2.1732
  600MOL0     H80983   8.268   0.250   3.459 -1.5432  0.3084  1.4673
  600MOL0     H80984   8.617   0.647   3.363  1.0771  0.3600 -0.1472
  600MOL0     H80985   8.855   0.689   3.351  0.1215 -1.3030  1.9071
  600MOL0     H80986  10.498   0.687   4.180 -1.2850  3.0949  0.5328
  600MOL0     H80987  10.680   0.864   4.119  2.5286 -2.7622  0.3455
  600MOL0     H80988  11.175   0.874   3.958  3.1257 -0.2255 -1.3005
  600MOL0     H80989  11.346   0.959   3.815 -0.1835 -2.1625 -1.5209
  600MOL0     H80990  11.474   1.242   3.619  1.2816  0.7451  0.9941
  600MOL0     H80991  11.432   1.152   3.761 -2.9808 -1.1357  0.2343
  600MOL0     H80992  11.460   0.941   3.623 -0.7769  0.7394  1.6170
  600MOL0     H80993  11.605   1.015   3.678  0.1262 -2.0049  0.7426
  600MOL0     H80994  11.579   1.140   3.424  0.3703 -0.1242 -0.5792
  600MOL0     H80995  11.485   0.999   3.398  0.2870 -1.5517  0.2096
  600MOL0     H80996  11.702   0.922   3.343 -1.2606  0.5423 -0.0449
  600MOL0     H80997  11.684   0.865   3.515  0.0233  0.9434  1.3248
  600MOL0     H80998  11.989   1.124   3.585 -1.8414  0.8955  0.3846
  600MOL0     H80999  11.034   1.119   3.564 -0.6631  0.7878  0.8079
  600MOL0     H81000  10.873   1.007   3.707 -0.5038  0.1177  1.3750
  601MOL0     O81001   3.765   4.454   0.807 -0.3010  1.4994 -0.7984
  601MOL0     C81002   3.835   4.540   0.855 -0.4800  0.1847 -0.1981
  601MOL0     O81003   3.789   4.659   0.902  0.1822 -0.1398  0.3330
  601MOL0     C81004   3.657   4.687   0.911  0.6974  0.7654 -0.5826
  601MOL0     C81005   3.571   4.694   0.803  0.2783 -0.5861  0.1807
  601MOL0     C81006   3.427   4.714   0.816 -0.9389 -0.1134  0.0607
  601MOL0     C81007   3.373   4.739   0.942 -0.4370  0.3820 -0.2428
  601MOL0     O81008   3.246   4.786   0.963 -0.0949  0.4703  0.2906
  601MOL0     C81009   3.164   4.825   0.845 -1.1478  0.6605  0.3786
  601MOL0     C81010   3.050   4.914   0.895 -0.2324  0.1541  1.4262
  601MOL0     C81011   2.968   4.861   1.004 -0.0559 -0.3029 -0.6864
  601MOL0     C81012   2.827   4.930   1.019 -0.1178 -0.3174  0.3884
  601MOL0     C81013   2.741   4.839   1.110  0.1059 -0.1342  0.6767
  601MOL0     C81014   2.613   4.909   1.155  0.9597 -0.1604  0.3435
  601MOL0     C81015   2.529   4.823   1.245 -0.1129 -0.0320 -0.6886
  601MOL0     C81016   2.410   4.765   1.179  0.7357 -0.1168  0.2519
  601MOL0     N81017   2.322   4.700   1.270 -0.1378  0.3955 -0.3756
  601MOL0     C81018   2.189   4.671   1.242  0.2109 -0.0346  0.2804
  601MOL0     C81019   2.140   4.645   1.365 -0.4372  0.4234  0.4095
  601MOL0     C81020   1.994   4.634   1.402 -0.2748  0.1156 -0.9804
  601MOL0     C81021   1.933   4.489   1.388  0.0557 -0.7790 -0.2091
  601MOL0     C81022   1.978   4.428   1.253 -0.3610  0.2059 -0.2941
  601MOL0     C81023   1.874   4.316   1.215  0.2299 -0.1490  0.7982
  601MOL0     O81024   1.766   4.387   1.144 -0.0284  0.0616  0.9268
  601MOL0     C81025   1.655   4.306   1.138 -0.0184 -0.2549  0.3879
  601MOL0     C81026   1.635   4.169   1.156  0.6762 -0.5465  0.6569
  601MOL0     C81027   1.505   4.120   1.163 -0.1831  0.1194  0.1179
  601MOL0     C81028   1.495   3.969   1.199  0.3725  0.5285  0.0199
  601MOL0     C81029   1.391   4.198   1.144 -0.5259 -0.2512  0.4993
  601MOL0     C81030   1.256   4.157   1.173  0.2825 -0.2649  0.4833
  601MOL0     O81031   1.178   4.234   1.254 -0.4527  0.2868  0.2146
  601MOL0     C81032   1.048   4.198   1.282  1.0387  0.5284  0.0498
  601MOL0     C81033   0.935   4.239   1.210 -0.6461 -0.1954  0.6383
  601MOL0     C81034   0.814   4.194   1.259 -0.3416 -0.1255 -0.0441
  601MOL0     C81035   0.797   4.130   1.382 -1.0128  0.7599  0.1972
  601MOL0     O81036   0.668   4.104   1.430 -0.1999 -0.1638  0.2453
  601MOL0     C81037   0.646   4.039   1.558 -0.3548  0.7207  0.5140
  601MOL0     C81038   0.495   4.018   1.582 -0.6133  0.5347  0.0573
  601MOL0     C81039   0.418   4.150   1.616  0.2651  0.1573  0.6095
  601MOL0     C81040   0.273   4.101   1.647  0.4201 -0.1843 -0.1208
  601MOL0     C81041   0.174   4.216   1.673  0.2337 -0.1382  0.3147
  601MOL0     C81042   0.149   4.315   1.552 -1.0273  0.1195  0.0483
  601MOL0     C81043   0.128   4.241   1.425 -0.1315  0.2505 -0.3754
  601MOL0     C81044   0.011   4.150   1.432  0.5987  0.2150  0.2682
  601MOL0    Cl81045  -0.036   4.103   1.263  0.5117 -0.0289 -0.5080
  601MOL0     C81046   0.910   4.087   1.452 -0.6239 -0.5187 -0.1031
  601MOL0     C81047   1.035   4.120   1.397  0.7155  0.3581 -0.3842
  601MOL0     O81048   1.216   4.054   1.117 -0.4803  0.2746 -0.2384
  601MOL0     C81049   1.406   4.332   1.115 -0.1782 -0.2325 -0.0726
  601MOL0     C81050   1.533   4.385   1.109 -0.5743  0.6126 -0.4042
  601MOL0     N81051   2.235   4.632   1.457 -1.2639  0.2171 -0.4383
  601MOL0     N81052   2.351   4.662   1.405 -0.3186 -0.5968  1.0684
  601MOL0     C81053   3.461   4.732   1.055  0.1963 -0.5720  0.8995
  601MOL0     C81054   3.601   4.700   1.040  0.1752 -0.3332  0.9635
  601MOL0     C81055   3.988   4.511   0.834  0.4816  0.7732 -0.2840
  601MOL0     C81056   4.036   4.392   0.769  0.5582  0.6883 -0.2534
  601MOL0     C81057   4.172   4.361   0.754 -0.2260  0.6740  0.8828
  601MOL0     C81058   4.262   4.448   0.815 -0.4544  0.1533 -0.4216
  601MOL0     O81059   4.392   4.412   0.818 -0.4476  0.0778  0.4882
  601MOL0     C81060   4.486   4.521   0.816  0.2651  0.2667  0.2036
  601MOL0     C81061   4.606   4.451   0.753  0.2500 -0.1779 -0.3687
  601MOL0     C81062   4.683   4.367   0.859  0.0800  0.2190  0.1790
  601MOL0     C81063   4.809   4.302   0.795  0.7729  0.4464 -0.3439
  601MOL0     C81064   4.811   4.152   0.819 -0.0504 -0.5375  0.3174
  601MOL0     C81065   4.821   4.034   0.832 -0.0432 -0.4005 -0.3727
  601MOL0     C81066   4.214   4.567   0.873 -0.4745  0.6410 -0.4206
  601MOL0     C81067   4.080   4.596   0.885 -0.5150  0.3123 -0.1946
  601MOL0     H81068   3.624   4.683   0.708 -2.4275  1.2740 -1.7049
  601MOL0     H81069   3.367   4.720   0.726 -1.0712 -1.1450  0.0699
  601MOL0     H81070   3.219   4.880   0.768  2.1329 -1.2899  1.1448
  601MOL0     H81071   3.118   4.739   0.797 -2.7141  0.7605  1.5973
  601MOL0     H81072   3.101   5.007   0.922  0.4694 -0.5676  2.7245
  601MOL0     H81073   2.980   4.931   0.813 -0.7056  0.2695  1.8457
  601MOL0     H81074   2.950   4.755   0.983  2.6982 -1.0203  0.2003
  601MOL0     H81075   3.018   4.864   1.101  0.3395  1.2270 -0.9125
  601MOL0     H81076   2.827   5.026   1.071 -1.8359  0.1678 -0.4185
  601MOL0     H81077   2.785   4.957   0.922  0.4751  3.3239  1.0230
  601MOL0     H81078   2.716   4.747   1.057  1.8706 -1.1127  1.4725
  601MOL0     H81079   2.798   4.805   1.197 -0.7965 -1.0066  0.9403
  601MOL0     H81080   2.652   4.986   1.223  4.3538 -2.7490  1.6610
  601MOL0     H81081   2.562   4.945   1.065  1.6012 -1.1559 -0.4440
  601MOL0     H81082   2.586   4.739   1.285 -2.0146 -0.3922  1.4568
  601MOL0     H81083   2.496   4.882   1.331  0.7857  0.2567 -0.5266
  601MOL0     H81084   2.433   4.695   1.099 -1.4163 -1.0617  0.3978
  601MOL0     H81085   2.350   4.842   1.130  0.0653  0.8782  2.4811
  601MOL0     H81086   2.132   4.682   1.150 -0.5260 -4.0248  0.1225
  601MOL0     H81087   1.984   4.654   1.509 -2.5192  1.5558 -1.3885
  601MOL0     H81088   1.939   4.715   1.353  0.3072  1.1467  0.0353
  601MOL0     H81089   1.824   4.499   1.393  0.1096  0.7300 -1.1812
  601MOL0     H81090   1.968   4.425   1.469 -1.9571 -0.1486  1.2240
  601MOL0     H81091   2.085   4.406   1.255 -0.2996  0.4102 -1.0082
  601MOL0     H81092   1.967   4.500   1.171  1.4589  0.8085 -0.0385
  601MOL0     H81093   1.848   4.260   1.306  1.5831 -1.1043  0.6255
  601MOL0     H81094   1.915   4.243   1.144  1.1318  0.1313  1.0138
  601MOL0     H81095   1.716   4.100   1.178  0.2420 -0.4584  2.6961
  601MOL0     H81096   1.449   3.965   1.298 -1.0285  3.1466 -0.4229
  601MOL0     H81097   1.437   3.918   1.122 -0.0499  2.3253 -0.9215
  601MOL0     H81098   1.592   3.919   1.210 -0.4175 -0.8012  1.2399
  601MOL0     H81099   0.946   4.295   1.118  2.7144 -3.1549 -1.0305
  601MOL0     H81100   0.733   4.243   1.207  0.0197  0.5401  0.0088
  601MOL0     H81101   0.695   3.942   1.551 -0.7217  0.6190 -1.2867
  601MOL0     H81102   0.691   4.100   1.637 -0.9003 -1.5029  2.6411
  601MOL0     H81103   0.459   3.981   1.485 -0.0209 -0.8954  0.3606
  601MOL0     H81104   0.490   3.945   1.663 -2.0088 -0.5452 -0.9489
  601MOL0     H81105   0.424   4.227   1.539  2.0001 -0.3606  0.1723
  601MOL0     H81106   0.454   4.193   1.710  0.9574 -1.1918  0.9936
  601MOL0     H81107   0.233   4.028   1.576  0.7039 -2.2504  1.7417
  601MOL0     H81108   0.281   4.048   1.742  0.7943 -1.7613 -0.9981
  601MOL0     H81109   0.206   4.276   1.759 -1.9596  1.4948  0.0554
  601MOL0     H81110   0.079   4.173   1.703 -1.9450  2.7189 -1.9457
  601MOL0     H81111   0.064   4.381   1.572  0.0851  1.1194  1.6956
  601MOL0     H81112   0.229   4.387   1.534  1.6494 -2.7398 -0.3306
  601MOL0     H81113   0.217   4.190   1.388 -1.2682 -0.8976 -1.6676
  601MOL0     H81114   0.091   4.320   1.358 -0.7606  0.3017  0.0239
  601MOL0     H81115  -0.076   4.199   1.476  1.5083  1.9732  0.1672
  601MOL0     H81116   0.030   4.056   1.486 -0.1450 -0.5736 -0.8095
  601MOL0     H81117   0.912   4.024   1.541  0.0304 -1.1423 -0.5534
  601MOL0     H81118   1.117   4.065   1.443  0.5475  1.4113  1.2224
  601MOL0     H81119   1.320   4.396   1.101  0.3258  0.0313 -2.6034
  601MOL0     H81120   1.551   4.489   1.083  1.5229 -0.4962 -4.1615
  601MOL0     H81121   3.422   4.740   1.156 -3.9540 -3.4725 -0.2108
  601MOL0     H81122   3.654   4.695   1.135 -0.3959 -1.3370  1.2424
  601MOL0     H81123   3.961   4.327   0.724  0.7739  0.7970 -0.7766
  601MOL0     H81124   4.208   4.274   0.700 -0.5905  1.1906 -0.2109
  601MOL0     H81125   4.448   4.603   0.755 -0.7385 -1.3649 -1.4638
  601MOL0     H81126   4.514   4.557   0.915  1.1535  0.7519 -0.2158
  601MOL0     H81127   4.670   4.526   0.707 -1.0832  1.5792  0.5179
  601MOL0     H81128   4.571   4.386   0.671 -0.4376  0.4447 -0.5783
  601MOL0     H81129   4.617   4.288   0.895 -0.2586  0.3160 -0.2183
  601MOL0     H81130   4.712   4.426   0.946  0.0626  0.2538  0.1616
  601MOL0     H81131   4.888   4.354   0.849  0.7930 -2.7713  3.1534
  601MOL0     H81132   4.819   4.313   0.687 -0.0397 -1.6862 -0.6792
  601MOL0     H81133   4.827   3.932   0.864  0.2384 -0.5588 -0.9163
  601MOL0     H81134   4.284   4.627   0.930  1.1301 -0.2463 -1.3805
  601MOL0     H81135   4.043   4.686   0.932 -1.2972  0.5021 -1.1364
  602MOL0     O81136   8.047   4.656   9.868 -0.5695  0.1969  0.2725
  602MOL0     C81137   8.008   4.757   9.934  0.6812 -0.9437  0.2478
  602MOL0     O81138   8.089   4.852   9.983 -0.2638 -0.6350  0.0013
  602MOL0     C81139   8.229   4.844   9.994 -0.2211 -0.5009 -0.3132
  602MOL0     C81140   8.300   4.960   9.989  0.3423 -0.1623 -0.2171
  602MOL0     C81141   8.441   4.962   9.999 -0.4922 -1.0736  0.5949
  602MOL0     C81142   8.513   4.842   9.993 -0.1245  0.1096 -0.6033
  602MOL0     O81143   8.650   4.823   9.996 -0.4597  0.1602  0.5899
  602MOL0     C81144   8.716   4.922   9.920 -0.5107 -0.1943  0.4888
  602MOL0     C81145   8.858   4.857   9.883  0.0739  0.3904  0.4189
  602MOL0     C81146   8.956   4.863   9.994 -0.0559 -0.7454  0.4392
  602MOL0     C81147   9.092   4.794   9.968 -0.5582 -0.7421  0.3987
  602MOL0     C81148   9.172   4.794  10.105  0.6797  0.1598  0.9278
  602MOL0     C81149   9.322   4.763  10.080 -0.6311 -0.5636 -0.9888
  602MOL0     C81150   9.402   4.821  10.194  0.0759 -0.6080 -0.7157
  602MOL0     C81151   9.465   4.964  10.152 -0.0440 -0.2618 -0.1851
  602MOL0     N81152   9.555   5.014  10.252  0.8272 -0.6867 -0.1588
  602MOL0     C81153   9.650   5.109  10.228  0.7466 -0.5707  0.2179
  602MOL0     C81154   9.655   5.195  10.328  0.4015 -0.0734 -0.0837
  602MOL0     C81155   9.750   5.308  10.348  1.1447 -0.4395 -0.6623
  602MOL0     C81156   9.668   5.442  10.378  0.1453 -0.3237  0.2973
  602MOL0     C81157   9.586   5.497  10.267 -0.1811  0.4047 -1.0620
  602MOL0     C81158   9.436   5.479  10.285 -0.2426 -0.4105 -0.5626
  602MOL0     O81159   9.357   5.521  10.175  0.1787 -0.0460 -0.6402
  602MOL0     C81160   9.218   5.509  10.176  0.1198  0.3999  0.6074
  602MOL0     C81161   9.150   5.386  10.175  0.5837  0.5276 -0.7051
  602MOL0     C81162   9.009   5.386  10.160 -0.8905  1.3368 -0.2714
  602MOL0     C81163   8.950   5.253  10.144 -0.2202  0.2594 -0.9840
  602MOL0     C81164   8.932   5.500  10.136 -0.5691  0.6931  0.2883
  602MOL0     C81165   8.780   5.503  10.138 -0.1803  0.0091 -0.0265
  602MOL0     O81166   8.710   5.412  10.208  0.0750  0.1220 -0.2163
  602MOL0     C81167   8.574   5.432  10.220 -0.4452 -0.1634 -0.0884
  602MOL0     C81168   8.525   5.546  10.291 -1.0519  0.3557 -0.4533
  602MOL0     C81169   8.389   5.573  10.301 -0.3450 -0.1871 -0.2784
  602MOL0     C81170   8.297   5.475  10.254  0.0177 -0.1513  0.4683
  602MOL0     O81171   8.161   5.486  10.241  0.4022  0.8379 -0.4634
  602MOL0     C81172   8.087   5.611  10.264  0.2684 -0.7780  0.0084
  602MOL0     C81173   7.933   5.601  10.227 -0.1302  0.4469 -0.0082
  602MOL0     C81174   7.860   5.498  10.313 -0.1266 -0.2143  0.7976
  602MOL0     C81175   7.715   5.530  10.330 -0.1740 -0.5721 -0.6330
  602MOL0     C81176   7.632   5.413  10.367 -0.3671  0.6250 -0.5060
  602MOL0     C81177   7.477   5.425  10.380  0.0289  0.3265  0.0462
  602MOL0     C81178   7.434   5.286  10.443  0.3464 -0.3537  0.1513
  602MOL0     C81179   7.296   5.315  10.511  0.1397 -0.0930 -0.0678
  602MOL0    Cl81180   7.299   5.413  10.660 -0.1037 -0.0325  0.3385
  602MOL0     C81181   8.348   5.359  10.186 -0.3898 -0.1181  0.4419
  602MOL0     C81182   8.488   5.343  10.166  0.4342  0.0899  0.9751
  602MOL0     O81183   8.731   5.599  10.077 -0.7821  0.8474  0.4382
  602MOL0     C81184   9.005   5.617  10.122 -0.5661  0.1015 -0.0213
  602MOL0     C81185   9.144   5.621  10.160 -0.4618 -0.2668  0.4689
  602MOL0     N81186   9.569   5.147  10.428 -0.3392  0.2033  0.5298
  602MOL0     N81187   9.509   5.047  10.380 -0.1829  0.2297 -0.1082
  602MOL0     C81188   8.447   4.723   9.986  0.4951 -0.6840  0.3950
  602MOL0     C81189   8.309   4.724  10.001  0.4369 -0.1687  0.4062
  602MOL0     C81190   7.866   4.781   9.953  0.1683  0.2755 -0.3886
  602MOL0     C81191   7.776   4.682   9.915  0.6379  0.5267 -0.5287
  602MOL0     C81192   7.648   4.687   9.968 -0.7294 -0.1827  0.3747
  602MOL0     C81193   7.604   4.797  10.042 -0.7469 -0.0220 -0.2174
  602MOL0     O81194   7.478   4.788  10.087  0.5003 -0.4629 -0.0874
  602MOL0     C81195   7.421   4.911  10.135 -0.1182 -0.3606  0.3563
  602MOL0     C81196   7.277   4.896  10.156  0.4877 -0.2038 -0.1265
  602MOL0     C81197   7.196   5.017  10.208 -0.2623  0.4049  0.1723
  602MOL0     C81198   7.050   4.973  10.236 -0.3888 -0.2690  0.0215
  602MOL0     C81199   6.966   4.943  10.124  0.4648  0.4354  0.0004
  602MOL0     C81200   6.882   4.917  10.037 -0.0377 -0.7142 -0.7921
  602MOL0     C81201   7.684   4.900  10.067 -0.3835  0.7892 -0.5039
  602MOL0     C81202   7.814   4.891  10.025 -1.0202  0.0744  0.5654
  602MOL0     H81203   8.258   5.060   9.997  0.0494 -0.4121  1.8187
  602MOL0     H81204   8.502   5.051  10.001  0.6673 -1.8520  1.2392
  602MOL0     H81205   8.676   4.925   9.818  1.2200  0.9537 -0.1907
  602MOL0     H81206   8.723   5.017   9.973  1.9597 -1.0505  1.8138
  602MOL0     H81207   8.840   4.751   9.864  1.9261 -0.0105  0.7315
  602MOL0     H81208   8.899   4.905   9.793  0.6760 -1.1268 -0.1406
  602MOL0     H81209   8.970   4.970  10.010  2.4234 -1.1903  1.8392
  602MOL0     H81210   8.920   4.824  10.090  0.1741  4.4539  2.9866
  602MOL0     H81211   9.080   4.691   9.931 -1.5194 -0.6726  0.4826
  602MOL0     H81212   9.155   4.854   9.902  0.7396 -1.4566  0.9384
  602MOL0     H81213   9.176   4.899  10.136  4.0913  0.1208  1.0010
  602MOL0     H81214   9.117   4.728  10.173 -3.5553  1.3321 -0.9865
  602MOL0     H81215   9.335   4.655  10.073  0.0352 -0.5133 -0.5589
  602MOL0     H81216   9.360   4.806   9.986 -0.4549  2.6160  0.3958
  602MOL0     H81217   9.338   4.839  10.281 -2.9789  0.1986 -2.9239
  602MOL0     H81218   9.490   4.762  10.221  0.2777 -0.6298 -1.4070
  602MOL0     H81219   9.379   5.030  10.138  0.2935  0.0759 -0.7092
  602MOL0     H81220   9.521   4.960  10.058 -0.0364  2.7723 -0.4063
  602MOL0     H81221   9.716   5.120  10.142  0.2343  0.5317 -0.0405
  602MOL0     H81222   9.814   5.282  10.433  1.1173  0.5961 -0.3001
  602MOL0     H81223   9.818   5.330  10.265  0.0436 -1.1698 -1.7889
  602MOL0     H81224   9.734   5.515  10.425 -0.4269 -0.4990  1.4041
  602MOL0     H81225   9.598   5.419  10.458  0.1095 -1.2189  0.0294
  602MOL0     H81226   9.622   5.462  10.169  1.9495 -0.4568 -0.0282
  602MOL0     H81227   9.607   5.604  10.259  2.3261  0.2504  1.8455
  602MOL0     H81228   9.415   5.535  10.377 -0.6512 -0.9824 -0.3036
  602MOL0     H81229   9.414   5.375  10.310 -0.6149 -0.1887  0.0462
  602MOL0     H81230   9.194   5.287  10.182 -2.4351 -0.8218  2.9607
  602MOL0     H81231   9.023   5.179  10.111  1.0848  0.3934  1.3307
  602MOL0     H81232   8.918   5.221  10.244  2.2322  2.5455  0.6865
  602MOL0     H81233   8.866   5.265  10.076 -0.6062 -0.1001 -0.5749
  602MOL0     H81234   8.594   5.611  10.343  1.5484 -0.7368 -2.3013
  602MOL0     H81235   8.348   5.665  10.340  0.8447  0.1672  0.1873
  602MOL0     H81236   8.110   5.630  10.369 -0.0356 -1.1878  0.1505
  602MOL0     H81237   8.139   5.691  10.210  1.9095 -1.3968  0.6185
  602MOL0     H81238   7.889   5.701  10.226 -0.1550  0.4394 -1.3460
  602MOL0     H81239   7.937   5.556  10.127  3.8774 -0.0089  0.2014
  602MOL0     H81240   7.909   5.498  10.411  2.5504  0.5853 -0.4503
  602MOL0     H81241   7.869   5.398  10.267  2.4420  0.0261  0.6456
  602MOL0     H81242   7.706   5.598  10.415 -2.7522 -0.8791 -0.5695
  602MOL0     H81243   7.673   5.569  10.237  1.4353  0.5884 -0.8953
  602MOL0     H81244   7.671   5.366  10.458  2.7265 -1.5552 -2.7285
  602MOL0     H81245   7.657   5.335  10.294 -0.2998  0.0279  0.1381
  602MOL0     H81246   7.454   5.510  10.445  0.7992  1.7880 -1.5414
  602MOL0     H81247   7.436   5.446  10.281  0.7215  0.3619 -0.2339
  602MOL0     H81248   7.496   5.240  10.520  0.5793 -0.5205 -0.1305
  602MOL0     H81249   7.416   5.219  10.358  2.0498  0.3767 -0.8195
  602MOL0     H81250   7.235   5.228  10.535 -1.9941  1.2758 -0.2734
  602MOL0     H81251   7.235   5.365  10.435 -1.0236 -0.6475  0.4793
  602MOL0     H81252   8.278   5.286  10.147 -0.9987  0.6980 -0.0343
  602MOL0     H81253   8.522   5.260  10.105  1.3741  1.8650 -1.0709
  602MOL0     H81254   8.949   5.709  10.109  0.3194  0.4986 -1.2319
  602MOL0     H81255   9.189   5.720  10.163 -3.8372  1.5646 -1.9839
  602MOL0     H81256   8.501   4.629   9.984 -1.1016 -1.6648 -1.5315
  602MOL0     H81257   8.260   4.627   9.996 -0.3809  0.2627 -0.0241
  602MOL0     H81258   7.809   4.589   9.870  1.5176 -0.7973  2.6122
  602MOL0     H81259   7.577   4.610   9.938 -3.4028  1.5730  1.7148
  602MOL0     H81260   7.470   4.944  10.227 -1.5065  1.5427  0.4746
  602MOL0     H81261   7.429   4.997  10.068 -0.1962 -0.2199  0.5260
  602MOL0     H81262   7.264   4.811  10.224 -0.9653  2.3613  3.0640
  602MOL0     H81263   7.226   4.867  10.064  1.8668 -1.2022 -0.6124
  602MOL0     H81264   7.203   5.104  10.141 -0.0746  0.3014  0.0569
  602MOL0     H81265   7.235   5.044  10.306  0.6422 -1.1718  0.2612
  602MOL0     H81266   7.004   5.059  10.286 -0.3271  0.8986 -1.8389
  602MOL0     H81267   7.059   4.893  10.310  1.6298  0.5050  0.6655
  602MOL0     H81268   6.824   4.896   9.949  0.5106 -0.4807 -1.2160
  602MOL0     H81269   7.656   4.977  10.139 -1.6530  1.3776 -1.5980
  602MOL0     H81270   7.885   4.971  10.043 -3.3507  2.8890 -1.6351
  603MOL0     O81271   6.801   9.647   2.586 -0.2930  0.0292  0.4090
  603MOL0     C81272   6.843   9.764   2.580 -0.4647 -0.2403 -0.2852
  603MOL0     O81273   6.769   9.876   2.624  0.9747 -0.9855 -0.0984
  603MOL0     C81274   6.629   9.874   2.622  0.1344  0.3594  0.1235
  603MOL0     C81275   6.562   9.824   2.510 -0.6464 -0.2723 -0.1486
  603MOL0     C81276   6.422   9.836   2.502  0.1305 -0.1931 -0.0285
  603MOL0     C81277   6.348   9.889   2.611  0.2237 -0.4788  0.5816
  603MOL0     O81278   6.212   9.913   2.619  0.0813 -0.7748 -0.0281
  603MOL0     C81279   6.144   9.909   2.493 -0.1995  0.0444 -0.6520
  603MOL0     C81280   6.009   9.972   2.501 -0.3215 -0.1355  0.0502
  603MOL0     C81281   6.003  10.127   2.498 -0.7694 -0.6434 -0.2364
  603MOL0     C81282   5.863  10.180   2.555 -0.6258  1.1842  0.2026
  603MOL0     C81283   5.833  10.329   2.531  0.0641 -0.0108  0.2336
  603MOL0     C81284   5.842  10.379   2.384  0.0452 -0.1058  0.2003
  603MOL0     C81285   5.770  10.291   2.285  0.8424  0.5390  0.3461
  603MOL0     C81286   5.735  10.370   2.157  0.1711  1.1608  0.0851
  603MOL0     N81287   5.602  10.429   2.148 -0.7652  0.2819  0.0284
  603MOL0     C81288   5.576  10.562   2.138  0.1131 -0.5820 -0.0177
  603MOL0     C81289   5.445  10.567   2.102  0.0225  0.0726 -0.4628
  603MOL0     C81290   5.362  10.688   2.067  0.7087 -0.5679 -0.1832
  603MOL0     C81291   5.216  10.667   2.111 -0.2904  0.2887  0.0558
  603MOL0     C81292   5.138  10.793   2.078 -0.6765 -0.2520  0.3311
  603MOL0     C81293   5.006  10.801   2.150  0.4719 -0.5419  0.2008
  603MOL0     O81294   4.909  10.717   2.091  0.3173  0.5389  0.1209
  603MOL0     C81295   4.784  10.732   2.137  0.3965  0.5408  1.2276
  603MOL0     C81296   4.756  10.715   2.275  0.0835  0.6364 -0.1571
  603MOL0     C81297   4.624  10.733   2.324 -0.8326  0.3296 -0.4094
  603MOL0     C81298   4.605  10.691   2.465 -0.2802 -0.3721 -0.1236
  603MOL0     C81299   4.518  10.773   2.237 -0.4181 -0.1762 -1.1759
  603MOL0     C81300   4.386  10.813   2.288 -0.1051 -0.0299  0.1260
  603MOL0     O81301   4.278  10.810   2.201 -0.4643 -0.0822  0.0436
  603MOL0     C81302   4.159  10.865   2.243 -0.3597 -0.4816  0.3893
  603MOL0     C81303   4.081  10.809   2.338  0.0166  0.5350 -1.2181
  603MOL0     C81304   3.962  10.865   2.368  0.0338  0.1035 -0.1315
  603MOL0     C81305   3.902  10.967   2.299  0.0245 -0.2469  1.2086
  603MOL0     O81306   3.774  11.013   2.319 -0.0046 -0.4088  0.3043
  603MOL0     C81307   3.669  10.920   2.344  0.0156 -0.1159 -0.1476
  603MOL0     C81308   3.535  10.986   2.353 -0.4182 -0.2851 -0.2993
  603MOL0     C81309   3.434  10.883   2.364 -0.2368 -0.2515 -0.4089
  603MOL0     C81310   3.295  10.953   2.385  0.3395  0.1930 -0.0732
  603MOL0     C81311   3.192  10.844   2.423  0.3933  0.0985 -0.1695
  603MOL0     C81312   3.059  10.909   2.466  0.4104  0.0674 -0.3541
  603MOL0     C81313   3.011  11.021   2.374 -0.2395 -0.4274 -0.3606
  603MOL0     C81314   2.871  11.067   2.408 -0.3453  0.1804  1.1552
  603MOL0    Cl81315   2.732  10.945   2.418  0.4298  0.2400 -0.2531
  603MOL0     C81316   3.976  11.039   2.202  0.3805  0.2987 -0.8066
  603MOL0     C81317   4.106  10.983   2.169 -0.5987  0.5169 -1.2969
  603MOL0     O81318   4.386  10.861   2.401  0.4441 -0.5760 -0.6047
  603MOL0     C81319   4.553  10.792   2.100  0.6715  0.7528 -0.1745
  603MOL0     C81320   4.678  10.768   2.055 -0.0538 -0.0083  0.3699
  603MOL0     N81321   5.404  10.443   2.078 -0.0026  0.8817  0.6292
  603MOL0     N81322   5.496  10.355   2.107  0.2162 -0.0046 -0.2539
  603MOL0     C81323   6.414   9.954   2.708 -0.8349 -0.1572 -0.1635
  603MOL0     C81324   6.557   9.943   2.715 -0.2041  0.3029 -0.4914
  603MOL0     C81325   6.984   9.781   2.536  1.1811  0.2279  0.7439
  603MOL0     C81326   7.060   9.668   2.496  0.2337  1.0374 -1.4469
  603MOL0     C81327   7.182   9.675   2.442 -1.2552 -0.3070  0.1418
  603MOL0     C81328   7.238   9.800   2.407 -0.0176  0.5022 -0.0348
  603MOL0     O81329   7.364   9.825   2.356  0.2899 -0.1227 -0.1266
  603MOL0     C81330   7.430   9.725   2.283  0.0817 -0.7146  0.4861
  603MOL0     C81331   7.565   9.778   2.232  0.6573  0.2758 -0.3812
  603MOL0     C81332   7.672   9.759   2.343 -0.1393 -0.4805  0.1183
  603MOL0     C81333   7.807   9.824   2.307 -0.1081 -0.5831 -0.1386
  603MOL0     C81334   7.852   9.773   2.184  0.4916 -0.0157  0.7471
  603MOL0     C81335   7.879   9.720   2.074  0.1308  0.3901  0.3882
  603MOL0     C81336   7.168   9.908   2.440  0.3987 -1.0436  0.1064
  603MOL0     C81337   7.042   9.906   2.496  0.0356  0.9877 -0.8075
  603MOL0     H81338   6.619   9.782   2.428 -1.0719 -0.3905 -0.3805
  603MOL0     H81339   6.379   9.802   2.408 -0.7504 -0.5111  0.4842
  603MOL0     H81340   6.208   9.961   2.421 -1.4760  2.2260 -0.2865
  603MOL0     H81341   6.126   9.806   2.463  2.0935 -0.0271 -2.0145
  603MOL0     H81342   5.956   9.929   2.416  3.0131 -1.6251 -1.4601
  603MOL0     H81343   5.960   9.947   2.596 -1.2999  0.6809 -0.2214
  603MOL0     H81344   6.083  10.180   2.551  0.6620 -1.2735 -1.6728
  603MOL0     H81345   6.005  10.159   2.394 -1.9657  1.5899  0.3516
  603MOL0     H81346   5.790  10.117   2.504  0.8758  2.3361 -3.7170
  603MOL0     H81347   5.865  10.153   2.661 -2.4004 -1.8272 -0.4163
  603MOL0     H81348   5.730  10.343   2.565  0.2734 -3.0388  2.4854
  603MOL0     H81349   5.906  10.394   2.580  0.6777  1.7278 -2.7016
  603MOL0     H81350   5.800  10.480   2.386 -0.9288 -0.3718 -2.5878
  603MOL0     H81351   5.947  10.384   2.354  0.1931  2.1975  0.9207
  603MOL0     H81352   5.829  10.209   2.244 -2.3679 -1.5036 -0.6154
  603MOL0     H81353   5.678  10.263   2.337  1.1811  0.9214  1.1783
  603MOL0     H81354   5.724  10.289   2.084 -2.6670  0.4199  1.1921
  603MOL0     H81355   5.813  10.439   2.125  1.6117 -1.3340 -2.3122
  603MOL0     H81356   5.642  10.643   2.168 -1.5006  0.6601  0.2924
  603MOL0     H81357   5.398  10.776   2.120 -0.6559  1.3274 -2.2462
  603MOL0     H81358   5.359  10.707   1.960 -0.2278 -0.4206 -0.1331
  603MOL0     H81359   5.214  10.657   2.220  0.9848  5.1670  0.7556
  603MOL0     H81360   5.178  10.577   2.062 -1.4925  0.6928  0.2081
  603MOL0     H81361   5.125  10.812   1.971 -0.8327 -1.0505  0.2013
  603MOL0     H81362   5.185  10.881   2.123 -1.8968  1.1196 -0.9137
  603MOL0     H81363   4.979  10.907   2.154 -0.4052 -0.7440  0.0118
  603MOL0     H81364   5.021  10.781   2.257 -1.3996  1.4733  0.9354
  603MOL0     H81365   4.832  10.675   2.341  0.6377  0.4983 -0.8658
  603MOL0     H81366   4.572  10.773   2.529  3.2902  1.2094 -0.0825
  603MOL0     H81367   4.517  10.626   2.460 -0.9460  0.5980 -2.8750
  603MOL0     H81368   4.692  10.644   2.513 -0.5993 -1.8412 -0.9036
  603MOL0     H81369   4.121  10.727   2.397  0.9913  1.9201  0.1520
  603MOL0     H81370   3.913  10.814   2.450  0.4790 -1.7806 -0.9793
  603MOL0     H81371   3.664  10.847   2.263  0.6339  0.4141 -0.6789
  603MOL0     H81372   3.694  10.871   2.438 -2.0940 -1.8532 -0.4139
  603MOL0     H81373   3.537  11.059   2.435  1.4542 -2.7952  2.0614
  603MOL0     H81374   3.514  11.032   2.256  1.1979 -2.0110 -1.5297
  603MOL0     H81375   3.460  10.819   2.449  2.1363  0.1750 -0.7550
  603MOL0     H81376   3.434  10.816   2.278 -2.3815  0.8681 -1.3666
  603MOL0     H81377   3.313  11.024   2.466  0.2569 -0.7258  0.7549
  603MOL0     H81378   3.283  11.007   2.290  2.5623 -0.3742 -0.7337
  603MOL0     H81379   3.244  10.784   2.499  0.3145  0.8933  0.5307
  603MOL0     H81380   3.165  10.788   2.334 -1.0395  1.1546 -0.4310
  603MOL0     H81381   2.991  10.824   2.456 -0.7324  1.2004 -3.2999
  603MOL0     H81382   3.061  10.928   2.574  2.2691 -0.6525 -0.2244
  603MOL0     H81383   3.023  10.987   2.271  1.3746 -3.3680  0.6889
  603MOL0     H81384   3.072  11.110   2.395  0.9872 -0.8431 -2.0307
  603MOL0     H81385   2.841  11.141   2.333 -0.9257 -2.3695 -1.2682
  603MOL0     H81386   2.877  11.123   2.503 -1.3605  1.5240  0.4643
  603MOL0     H81387   3.925  11.116   2.144  0.0729 -0.6933 -1.8786
  603MOL0     H81388   4.172  11.032   2.099 -0.0334  2.0285  0.2602
  603MOL0     H81389   4.476  10.837   2.038  2.1022  1.3663 -1.5803
  603MOL0     H81390   4.701  10.805   1.955  2.9346  3.7317  2.1717
  603MOL0     H81391   6.356  10.009   2.781 -1.9495  0.6470 -1.6098
  603MOL0     H81392   6.621   9.993   2.787 -0.2898 -0.1067 -0.1222
  603MOL0     H81393   7.009   9.575   2.518  1.8312  0.4944  0.2102
  603MOL0     H81394   7.224   9.575   2.440  0.3844  0.2374  2.8189
  603MOL0     H81395   7.446   9.638   2.348 -1.5685 -0.0658  1.7992
  603MOL0     H81396   7.375   9.692   2.194  1.9482  1.8488 -1.7873
  603MOL0     H81397   7.553   9.883   2.203  1.9446  0.2191 -1.2052
  603MOL0     H81398   7.590   9.718   2.144 -2.6935 -3.5537  0.9488
  603MOL0     H81399   7.700   9.654   2.356  2.2492 -0.1451 -1.5223
  603MOL0     H81400   7.645   9.794   2.443  2.5332  0.3178  0.6630
  603MOL0     H81401   7.886   9.812   2.383 -0.3792 -2.8234 -0.1397
  603MOL0     H81402   7.790   9.932   2.300  1.1098 -0.4031 -0.6486
  603MOL0     H81403   7.913   9.674   1.984  1.7872  1.0195  0.6553
  603MOL0     H81404   7.204  10.008   2.417  1.9772 -1.2922  1.3339
  603MOL0     H81405   6.998  10.003   2.518  3.2269  2.0108  1.7402
  604MOL0     O81406   1.240   9.410   2.934  0.1257 -0.3470 -0.6245
  604MOL0     C81407   1.220   9.445   3.054  0.2187  0.2455 -0.0416
  604MOL0     O81408   1.103   9.492   3.100 -0.2875  0.7836 -0.2620
  604MOL0     C81409   0.992   9.518   3.021  0.0282  0.5388 -0.5827
  604MOL0     C81410   0.880   9.456   3.061  0.7127  0.9213 -0.3151
  604MOL0     C81411   0.761   9.466   2.985 -1.0560 -0.8831  0.6379
  604MOL0     C81412   0.758   9.545   2.869  0.7102  0.9284  0.6566
  604MOL0     O81413   0.648   9.561   2.782 -0.0684 -0.1358  0.4471
  604MOL0     C81414   0.522   9.509   2.835  0.0984  0.0400  0.1995
  604MOL0     C81415   0.405   9.569   2.749  0.1892  0.0426  0.0051
  604MOL0     C81416   0.264   9.522   2.795 -0.1276 -0.5472  0.1483
  604MOL0     C81417   0.158   9.582   2.700  0.4559 -0.6292  0.0485
  604MOL0     C81418   0.009   9.536   2.735 -0.6661 -0.2699 -0.3604
  604MOL0     C81419  -0.081   9.511   2.613  0.1057 -0.0657  0.4649
  604MOL0     C81420  -0.172   9.642   2.596 -0.0444  0.4988 -0.1092
  604MOL0     C81421  -0.246   9.631   2.459 -0.2114 -0.2517 -0.2228
  604MOL0     N81422  -0.346   9.529   2.449 -0.2263  0.7595  0.3787
  604MOL0     C81423  -0.458   9.511   2.522  0.1343  1.1412  0.4381
  604MOL0     C81424  -0.523   9.408   2.470 -0.2361  0.2410 -0.0695
  604MOL0     C81425  -0.654   9.355   2.527 -0.1363  0.0725  0.6178
  604MOL0     C81426  -0.753   9.468   2.540 -0.0480  0.1296 -0.6781
  604MOL0     C81427  -0.887   9.400   2.584  0.1934 -1.1913  0.4987
  604MOL0     C81428  -1.001   9.508   2.605 -0.8424  0.2576  0.3600
  604MOL0     O81429  -1.077   9.530   2.488 -0.4138 -0.2839  0.4210
  604MOL0     C81430  -1.205   9.576   2.504  0.4028 -0.0041 -0.4047
  604MOL0     C81431  -1.291   9.561   2.399 -0.5723 -0.5698  0.4439
  604MOL0     C81432  -1.422   9.601   2.398 -0.0504  0.1136 -0.9758
  604MOL0     C81433  -1.500   9.574   2.276 -0.1844  0.3713 -0.0108
  604MOL0     C81434  -1.482   9.657   2.523  0.5381 -0.2705  0.5000
  604MOL0     C81435  -1.611   9.718   2.535  0.4788 -0.0130  0.3036
  604MOL0     O81436  -1.726   9.642   2.502  0.1899  0.2961 -0.2298
  604MOL0     C81437  -1.852   9.694   2.511 -0.2591 -0.0074 -0.5294
  604MOL0     C81438  -1.943   9.655   2.417  0.1937 -0.3879 -0.4241
  604MOL0     C81439  -2.081   9.693   2.415  0.0825  0.2661  0.0485
  604MOL0     C81440  -2.124   9.783   2.515 -0.0032  0.7114 -0.4565
  604MOL0     O81441  -2.254   9.822   2.503  0.0283 -0.0304 -0.3201
  604MOL0     C81442  -2.300   9.914   2.598  0.2512 -0.9480  0.5253
  604MOL0     C81443  -2.454   9.931   2.577 -0.2745  0.5414 -0.0977
  604MOL0     C81444  -2.493  10.044   2.684 -0.3831 -0.1103 -0.4850
  604MOL0     C81445  -2.628  10.080   2.648  0.2105 -0.5494 -0.5886
  604MOL0     C81446  -2.697  10.168   2.759 -0.3855  0.0063  0.4535
  604MOL0     C81447  -2.841  10.209   2.717  0.5732 -0.4098 -0.3012
  604MOL0     C81448  -2.937  10.220   2.840 -0.9102 -0.8190  0.1505
  604MOL0     C81449  -2.895  10.327   2.940 -0.4174 -0.5968 -0.2135
  604MOL0    Cl81450  -3.025  10.372   3.069 -0.3688 -0.0091 -0.2274
  604MOL0     C81451  -2.032   9.820   2.622 -0.2745 -0.1459 -0.1608
  604MOL0     C81452  -1.904   9.771   2.615 -0.6245 -0.3103 -0.0093
  604MOL0     O81453  -1.607   9.839   2.566 -0.1586  0.7594  0.4883
  604MOL0     C81454  -1.401   9.653   2.636  0.2981  1.4328  0.0950
  604MOL0     C81455  -1.258   9.608   2.629 -0.1994 -0.4927 -0.1244
  604MOL0     N81456  -0.452   9.361   2.363  1.2041  0.0827 -0.1392
  604MOL0     N81457  -0.356   9.436   2.350 -0.7334 -0.4955 -0.3241
  604MOL0     C81458   0.879   9.614   2.834 -0.4480  0.6001  0.3560
  604MOL0     C81459   0.991   9.604   2.915  0.2347 -0.4448  0.2533
  604MOL0     C81460   1.336   9.455   3.143 -0.7729  0.0032  0.5519
  604MOL0     C81461   1.462   9.424   3.098 -0.3199  0.2380  0.0330
  604MOL0     C81462   1.576   9.442   3.174 -0.0867 -0.0590  0.7893
  604MOL0     C81463   1.563   9.487   3.306  0.1943 -0.3901 -0.4652
  604MOL0     O81464   1.665   9.497   3.397 -0.2096  0.0417  0.1362
  604MOL0     C81465   1.794   9.550   3.362 -1.0139 -0.6404  0.0124
  604MOL0     C81466   1.850   9.622   3.490 -0.0117 -0.4635  0.8191
  604MOL0     C81467   1.988   9.682   3.455 -0.0876  0.2955  0.3966
  604MOL0     C81468   1.996   9.809   3.546  0.3127  1.0360  0.1269
  604MOL0     C81469   1.949   9.937   3.494 -0.1120  0.5064  0.5795
  604MOL0     C81470   1.894  10.038   3.455  0.5424  1.3433  0.6650
  604MOL0     C81471   1.434   9.505   3.355 -0.0397  0.0745 -0.1259
  604MOL0     C81472   1.329   9.495   3.268  0.9573  0.0985 -0.8154
  604MOL0     H81473   0.880   9.396   3.152  0.4477  1.0736 -0.2144
  604MOL0     H81474   0.675   9.413   3.025 -2.5224  0.7172 -0.2848
  604MOL0     H81475   0.518   9.401   2.817 -1.0318  0.5110 -3.2253
  604MOL0     H81476   0.511   9.527   2.942  0.2359 -0.6773  0.3406
  604MOL0     H81477   0.410   9.678   2.759 -0.0363  0.0203  0.4143
  604MOL0     H81478   0.420   9.544   2.644  0.8059 -1.8958  0.5139
  604MOL0     H81479   0.264   9.413   2.797 -1.4624 -0.5910 -0.7246
  604MOL0     H81480   0.228   9.548   2.895 -0.1158 -4.1947  1.2523
  604MOL0     H81481   0.170   9.690   2.688 -1.4531 -0.4916 -1.0296
  604MOL0     H81482   0.183   9.549   2.599  1.9468  1.5707 -0.3737
  604MOL0     H81483   0.015   9.446   2.797  1.4198  0.3011  0.3600
  604MOL0     H81484  -0.035   9.619   2.791 -1.6429 -1.1324  0.1777
  604MOL0     H81485  -0.024   9.492   2.521 -0.2888 -0.6438  0.3335
  604MOL0     H81486  -0.139   9.420   2.631 -2.1327  1.5744  1.9851
  604MOL0     H81487  -0.237   9.657   2.683  0.8310 -1.6449  0.9807
  604MOL0     H81488  -0.112   9.733   2.582 -1.1093  0.9557 -2.1301
  604MOL0     H81489  -0.181   9.650   2.373  0.4225 -3.2036 -0.5077
  604MOL0     H81490  -0.304   9.724   2.459 -0.4870 -0.4153 -1.2002
  604MOL0     H81491  -0.493   9.572   2.605  0.1575 -0.1976  1.4634
  604MOL0     H81492  -0.694   9.284   2.454 -0.7615  2.6038 -1.6634
  604MOL0     H81493  -0.648   9.302   2.623 -0.3580  0.8341  1.0665
  604MOL0     H81494  -0.757   9.517   2.442  2.6004  0.8018 -0.5514
  604MOL0     H81495  -0.724   9.541   2.616 -2.2707 -0.9796  1.3586
  604MOL0     H81496  -0.872   9.337   2.672 -0.8617 -1.1645  0.7081
  604MOL0     H81497  -0.920   9.346   2.494 -1.8993  1.8869 -0.7521
  604MOL0     H81498  -0.956   9.597   2.649  0.2138 -1.0448  2.0490
  604MOL0     H81499  -1.061   9.452   2.676  2.7609 -1.0371  2.6458
  604MOL0     H81500  -1.240   9.527   2.310  0.4772 -1.5810  1.4016
  604MOL0     H81501  -1.579   9.502   2.301  1.8994 -1.8307  0.6379
  604MOL0     H81502  -1.543   9.668   2.240 -0.7964 -0.8233 -2.5878
  604MOL0     H81503  -1.444   9.543   2.187 -1.1832 -2.4420  0.2263
  604MOL0     H81504  -1.908   9.588   2.340 -0.6119  0.0489 -1.1979
  604MOL0     H81505  -2.158   9.660   2.345 -0.4868 -0.8854  1.1623
  604MOL0     H81506  -2.283   9.864   2.694  0.9059 -0.6925  0.5447
  604MOL0     H81507  -2.243  10.007   2.599  0.7058 -1.2251  0.6735
  604MOL0     H81508  -2.477   9.969   2.477 -1.2295  0.0106 -0.0817
  604MOL0     H81509  -2.517   9.844   2.600  1.6260 -0.3735  2.0931
  604MOL0     H81510  -2.435  10.137   2.674 -2.7349  1.5798  0.5189
  604MOL0     H81511  -2.483  10.009   2.787 -1.8294 -0.3192 -0.3926
  604MOL0     H81512  -2.636  10.135   2.554 -1.1263  0.8353  0.2883
  604MOL0     H81513  -2.694   9.995   2.629 -1.7955  0.9594 -0.6501
  604MOL0     H81514  -2.631  10.254   2.773 -2.3205  2.1283 -2.3452
  604MOL0     H81515  -2.692  10.127   2.860  0.5520  3.5526  2.0049
  604MOL0     H81516  -2.847  10.295   2.649 -0.5140 -0.2591 -0.0270
  604MOL0     H81517  -2.888  10.126   2.663  0.9694 -1.4841  0.9482
  604MOL0     H81518  -2.942  10.120   2.882  0.5730 -1.4105 -0.9896
  604MOL0     H81519  -3.037  10.241   2.802 -1.2956  0.3924  1.6995
  604MOL0     H81520  -2.888  10.420   2.883  1.3868 -1.2508 -1.1479
  604MOL0     H81521  -2.799  10.313   2.990 -0.9541  1.4010  1.5037
  604MOL0     H81522  -2.051   9.894   2.700 -0.9519 -0.0553 -0.4072
  604MOL0     H81523  -1.843   9.785   2.703 -1.1062 -0.4594  0.3564
  604MOL0     H81524  -1.419   9.688   2.737  2.2966 -2.5442  2.0375
  604MOL0     H81525  -1.200   9.619   2.720  1.4192  2.5793 -1.3583
  604MOL0     H81526   0.865   9.684   2.752 -2.3974  0.7246  0.7355
  604MOL0     H81527   1.081   9.665   2.907  0.3936 -0.1859  3.0887
  604MOL0     H81528   1.463   9.384   2.997 -0.1177  2.8412 -1.0757
  604MOL0     H81529   1.671   9.413   3.131 -0.5202 -1.1506  0.5167
  604MOL0     H81530   1.867   9.475   3.334  0.8404  1.2050 -0.3322
  604MOL0     H81531   1.784   9.620   3.279 -2.1974 -1.2865 -0.4067
  604MOL0     H81532   1.869   9.545   3.565 -1.4444 -1.2411  0.4187
  604MOL0     H81533   1.777   9.695   3.526 -4.3701 -3.4184 -1.1581
  604MOL0     H81534   2.003   9.713   3.351 -1.9858 -0.3038 -0.0969
  604MOL0     H81535   2.065   9.612   3.490  1.4106  1.0085 -1.3269
  604MOL0     H81536   2.104   9.814   3.565  0.3988 -2.0417  0.9839
  604MOL0     H81537   1.947   9.787   3.642 -0.4527 -1.2806 -0.7312
  604MOL0     H81538   1.838  10.127   3.433 -0.8714  0.0206 -1.5196
  604MOL0     H81539   1.415   9.531   3.458  0.7186 -0.8893  0.2756
  604MOL0     H81540   1.228   9.510   3.305  0.8901  0.1549 -1.0214
  605MOL0     O81541   2.085  10.335   9.358 -0.4138  0.1119  0.7028
  605MOL0     C81542   2.129  10.408   9.443  0.6481 -0.9522  0.0009
  605MOL0     O81543   2.058  10.469   9.542 -0.4212 -0.0241  0.2184
  605MOL0     C81544   1.920  10.487   9.542  0.1019 -0.1944 -0.5122
  605MOL0     C81545   1.882  10.570   9.645 -0.0856  0.8246  0.6865
  605MOL0     C81546   1.751  10.606   9.670 -0.3207 -0.0691 -0.4623
  605MOL0     C81547   1.649  10.545   9.590  0.2558 -0.6709 -0.1465
  605MOL0     O81548   1.518  10.563   9.581  0.1131 -0.0235 -0.7344
  605MOL0     C81549   1.455  10.634   9.684 -0.2919 -0.2574  1.1580
  605MOL0     C81550   1.311  10.598   9.693 -0.1390 -0.5921 -0.7967
  605MOL0     C81551   1.287  10.450   9.730 -0.2006  0.3117 -0.3130
  605MOL0     C81552   1.148  10.432   9.789  0.1054 -0.3533  0.0128
  605MOL0     C81553   1.113  10.286   9.797 -0.0101  0.4321 -0.2685
  605MOL0     C81554   0.964  10.254   9.836  0.3604 -0.5555  0.1788
  605MOL0     C81555   0.876  10.288   9.710 -0.4768  0.3915  0.0511
  605MOL0     C81556   0.732  10.260   9.756  0.0881  0.0529  0.7613
  605MOL0     N81557   0.712  10.117   9.794  0.7341 -0.3799 -0.6379
  605MOL0     C81558   0.721  10.013   9.702  0.0535  0.4594 -0.0149
  605MOL0     C81559   0.684   9.903   9.769  0.4703 -0.3386  0.1252
  605MOL0     C81560   0.674   9.762   9.719 -0.1321 -0.4577 -0.2381
  605MOL0     C81561   0.559   9.752   9.615 -0.1175 -0.8182 -0.4565
  605MOL0     C81562   0.419   9.755   9.671  0.8985 -0.1188  0.2723
  605MOL0     C81563   0.325   9.677   9.577  0.3334  0.8826  0.0718
  605MOL0     O81564   0.341   9.735   9.451 -0.1268 -0.2629  0.0882
  605MOL0     C81565   0.258   9.703   9.347 -0.7645  0.5695  0.3724
  605MOL0     C81566   0.323   9.712   9.224  0.6294 -1.0563 -0.2376
  605MOL0     C81567   0.253   9.697   9.102  0.3358 -0.4869 -0.2185
  605MOL0     C81568   0.337   9.713   8.977  0.2952  0.1149  0.1099
  605MOL0     C81569   0.113   9.678   9.094  0.2871  0.3308 -0.4583
  605MOL0     C81570   0.036   9.651   8.972  0.1807 -0.5513 -0.9807
  605MOL0     O81571  -0.078   9.579   8.993  0.1855  0.0379 -0.1963
  605MOL0     C81572  -0.122   9.499   8.895 -0.1951 -0.2470  1.2774
  605MOL0     C81573  -0.108   9.363   8.915 -0.1663 -0.2474  0.2681
  605MOL0     C81574  -0.155   9.274   8.821 -0.4354  0.4563  0.0551
  605MOL0     C81575  -0.206   9.317   8.702  0.3602 -0.2664 -0.1636
  605MOL0     O81576  -0.280   9.236   8.612 -0.6749  0.3297  0.8286
  605MOL0     C81577  -0.248   9.103   8.598  0.1986 -0.0630  0.9310
  605MOL0     C81578  -0.120   9.084   8.513  0.5117 -0.7492  1.0018
  605MOL0     C81579  -0.060   8.946   8.493 -0.4588  0.3251  0.3058
  605MOL0     C81580  -0.049   8.868   8.637  0.0687 -0.3487 -0.3171
  605MOL0     C81581   0.094   8.824   8.665 -0.7305  0.4090 -0.0220
  605MOL0     C81582   0.098   8.742   8.793  0.0552 -1.0046  0.7835
  605MOL0     C81583   0.233   8.711   8.841 -0.4840  0.0636 -0.3164
  605MOL0     C81584   0.258   8.690   8.997  0.0298 -0.0463  0.3358
  605MOL0    Cl81585   0.155   8.788   9.092  0.2681  0.5032 -0.0889
  605MOL0     C81586  -0.227   9.452   8.683  0.4367 -0.2878 -0.0302
  605MOL0     C81587  -0.190   9.542   8.779 -0.4955  0.6604 -0.4717
  605MOL0     O81588   0.082   9.681   8.864 -0.2526  0.4932 -0.3620
  605MOL0     C81589   0.051   9.664   9.227  0.0779 -0.5614 -0.5637
  605MOL0     C81590   0.122   9.680   9.347 -0.4864 -0.0727 -0.1719
  605MOL0     N81591   0.640   9.937   9.900 -0.1489 -0.5779 -0.8482
  605MOL0     N81592   0.652  10.065   9.913 -0.3852  0.3745 -0.3549
  605MOL0     C81593   1.695  10.461   9.486 -0.3200 -0.0025  0.2522
  605MOL0     C81594   1.827  10.428   9.460  0.2876 -0.5326 -0.0582
  605MOL0     C81595   2.271  10.442   9.445 -0.1981  0.1017 -0.5123
  605MOL0     C81596   2.373  10.361   9.398  0.3782 -0.5110  0.2762
  605MOL0     C81597   2.508  10.390   9.411  0.4102 -0.4481  1.0404
  605MOL0     C81598   2.542  10.512   9.465 -0.0550 -0.5554 -0.2537
  605MOL0     O81599   2.680  10.525   9.478 -0.1748  0.5934 -0.0802
  605MOL0     C81600   2.752  10.647   9.515 -0.1511 -0.4461 -0.7016
  605MOL0     C81601   2.733  10.750   9.399 -0.5227 -0.0844  0.6196
  605MOL0     C81602   2.775  10.894   9.444  0.6652 -0.2786 -0.2807
  605MOL0     C81603   2.923  10.921   9.448  0.0719 -0.3067 -0.1173
  605MOL0     C81604   2.985  10.930   9.310  0.5214  0.4553 -0.3224
  605MOL0     C81605   3.027  10.949   9.202  0.5733  1.6385 -0.6450
  605MOL0     C81606   2.444  10.598   9.506 -1.0967 -0.2594 -0.0499
  605MOL0     C81607   2.308  10.565   9.498  0.4341  0.3774  0.5458
  605MOL0     H81608   1.963  10.608   9.706  1.5991  0.7193 -1.3475
  605MOL0     H81609   1.728  10.669   9.756 -1.6875 -1.0711 -0.0568
  605MOL0     H81610   1.501  10.608   9.780 -0.2947  1.1435  1.5554
  605MOL0     H81611   1.454  10.741   9.663 -0.1282 -0.3893  0.4638
  605MOL0     H81612   1.277  10.666   9.772  1.7510  0.6355 -0.9741
  605MOL0     H81613   1.256  10.626   9.602  1.1192  1.2597 -1.0412
  605MOL0     H81614   1.296  10.391   9.638  0.7951  2.6962 -1.8388
  605MOL0     H81615   1.363  10.416   9.801  1.2560  0.1354 -1.8941
  605MOL0     H81616   1.136  10.482   9.885 -1.8543  1.0747 -0.8911
  605MOL0     H81617   1.075  10.473   9.718 -1.0552 -0.9993  0.8015
  605MOL0     H81618   1.125  10.223   9.709 -3.9468 -2.5261  1.0434
  605MOL0     H81619   1.179  10.254   9.879 -1.7222 -1.5037  0.4307
  605MOL0     H81620   0.962  10.149   9.867  2.9632 -0.1416  2.1392
  605MOL0     H81621   0.931  10.315   9.921  0.8724  2.5493 -1.6573
  605MOL0     H81622   0.886  10.394   9.684 -0.9861  0.1003 -1.4210
  605MOL0     H81623   0.901  10.228   9.623  0.4840  0.0593  0.5362
  605MOL0     H81624   0.674  10.265   9.664  0.0907 -1.1244  0.6792
  605MOL0     H81625   0.694  10.332   9.829 -3.4739 -0.9024  0.0673
  605MOL0     H81626   0.749  10.018   9.597 -1.2391 -0.0513 -0.4076
  605MOL0     H81627   0.761   9.742   9.656  1.3934  2.6143  0.6867
  605MOL0     H81628   0.658   9.695   9.804  0.3652 -0.8826 -0.4756
  605MOL0     H81629   0.570   9.653   9.572  1.9514 -0.9656  0.3319
  605MOL0     H81630   0.572   9.822   9.532 -0.0570  0.0917  0.2992
  605MOL0     H81631   0.379   9.856   9.661  2.1081  0.1192 -3.8993
  605MOL0     H81632   0.405   9.721   9.774 -2.4070  1.5752  0.5034
  605MOL0     H81633   0.224   9.696   9.615  0.7932  1.9589  0.8225
  605MOL0     H81634   0.346   9.570   9.584 -0.5129  0.7061 -0.0292
  605MOL0     H81635   0.430   9.731   9.222  0.9613 -2.8298 -0.9178
  605MOL0     H81636   0.295   9.797   8.921 -0.7136 -0.4604 -0.0275
  605MOL0     H81637   0.440   9.744   8.998 -0.5223  4.7095 -1.4674
  605MOL0     H81638   0.326   9.623   8.915  0.1934 -0.5916  1.1268
  605MOL0     H81639  -0.071   9.323   9.009 -1.8414  0.9181  1.4712
  605MOL0     H81640  -0.158   9.171   8.857  0.6907  0.8367  1.3077
  605MOL0     H81641  -0.252   9.047   8.692  1.7418 -0.3462  0.8676
  605MOL0     H81642  -0.328   9.066   8.533  2.0883 -1.8502 -0.5601
  605MOL0     H81643  -0.147   9.134   8.419  0.2126 -1.3665  0.7563
  605MOL0     H81644  -0.043   9.143   8.565 -0.1984 -0.7004  2.0248
  605MOL0     H81645   0.037   8.970   8.448  0.7050 -1.0063  1.9613
  605MOL0     H81646  -0.119   8.884   8.426 -1.5248  0.7031  0.8656
  605MOL0     H81647  -0.085   8.929   8.721 -1.0035 -0.2687 -0.8120
  605MOL0     H81648  -0.119   8.783   8.636 -2.3926  1.5486  0.4107
  605MOL0     H81649   0.163   8.907   8.684 -0.2366 -0.4988  2.5734
  605MOL0     H81650   0.128   8.759   8.584 -2.2970 -1.5149  0.7875
  605MOL0     H81651   0.051   8.796   8.876 -1.2248  1.1331 -1.2382
  605MOL0     H81652   0.041   8.650   8.779 -3.0564  0.4219  2.8926
  605MOL0     H81653   0.311   8.779   8.806 -0.3439 -0.1700 -0.4658
  605MOL0     H81654   0.248   8.614   8.793 -1.6903 -0.4297  0.2556
  605MOL0     H81655   0.363   8.701   9.025  0.7362 -1.1293 -1.7041
  605MOL0     H81656   0.239   8.585   9.024 -1.1369  0.1690  0.4111
  605MOL0     H81657  -0.280   9.492   8.597 -1.5554  0.3344  1.4023
  605MOL0     H81658  -0.219   9.646   8.773 -0.7429  0.8723  2.7910
  605MOL0     H81659  -0.055   9.656   9.246  0.3392 -2.1822  0.3300
  605MOL0     H81660   0.075   9.666   9.443  0.7428 -0.9341  0.3332
  605MOL0     H81661   1.616  10.428   9.419  1.4495 -0.0696 -1.9030
  605MOL0     H81662   1.856  10.368   9.374  1.3252 -1.1847  0.7104
  605MOL0     H81663   2.338  10.264   9.362 -1.1949  0.3352 -0.5797
  605MOL0     H81664   2.583  10.318   9.379  2.1994  1.6544  0.2958
  605MOL0     H81665   2.696  10.691   9.597  2.4203  0.1793  0.8261
  605MOL0     H81666   2.858  10.632   9.540 -0.7339 -0.5241  1.9741
  605MOL0     H81667   2.627  10.757   9.374  0.2587  1.5739 -2.7257
  605MOL0     H81668   2.791  10.719   9.312 -1.0785 -1.4682  0.7238
  605MOL0     H81669   2.724  10.919   9.537 -1.0047  2.2094 -1.7443
  605MOL0     H81670   2.740  10.970   9.372  4.6798  2.2873  0.1668
  605MOL0     H81671   2.973  10.849   9.513  1.2694 -0.2415 -0.9229
  605MOL0     H81672   2.938  11.018   9.497  0.0658 -0.6551  0.5859
  605MOL0     H81673   3.063  10.958   9.101 -3.1575 -1.0476 -2.4501
  605MOL0     H81674   2.461  10.700   9.539  0.7808 -0.3980 -0.4517
  605MOL0     H81675   2.231  10.636   9.527  2.6147  3.7330 -1.0837
  606MOL0     O81676   5.281   1.294   4.325  0.7542 -0.5508  0.0174
  606MOL0     C81677   5.381   1.221   4.313  0.7254 -0.8337 -0.3481
  606MOL0     O81678   5.383   1.100   4.254  0.0447  0.3134  0.5238
  606MOL0     C81679   5.272   1.041   4.202 -0.0936  0.4703 -0.3863
  606MOL0     C81680   5.279   0.959   4.086  0.2146 -0.4223 -0.4995
  606MOL0     C81681   5.164   0.897   4.036 -0.4400 -0.5784  0.0880
  606MOL0     C81682   5.043   0.903   4.101 -0.0745  0.0902  0.1494
  606MOL0     O81683   4.926   0.834   4.078  0.2489 -0.4159 -0.1542
  606MOL0     C81684   4.924   0.727   3.981  0.5776  0.6681  0.1229
  606MOL0     C81685   4.845   0.614   4.051  1.2848  0.5205  0.6785
  606MOL0     C81686   4.822   0.490   3.963 -0.1952 -0.2575  0.2600
  606MOL0     C81687   4.806   0.361   4.047  0.2527  0.0394 -0.2592
  606MOL0     C81688   4.937   0.298   4.094  0.1107  0.2707  0.3239
  606MOL0     C81689   5.009   0.218   3.988 -0.0726  0.0521 -0.4336
  606MOL0     C81690   5.116   0.129   4.062 -0.4882  0.6174 -0.0525
  606MOL0     C81691   5.269   0.164   4.048  0.4311 -0.4778 -0.0036
  606MOL0     N81692   5.301   0.301   4.070 -0.4557 -0.3702 -0.4842
  606MOL0     C81693   5.324   0.354   4.191 -0.0159 -0.8197 -0.5190
  606MOL0     C81694   5.315   0.485   4.161 -0.6122 -0.2673 -0.3013
  606MOL0     C81695   5.356   0.584   4.263 -0.0100 -0.2144 -0.6118
  606MOL0     C81696   5.247   0.599   4.371 -0.2634  0.9727  0.3822
  606MOL0     C81697   5.127   0.675   4.318  1.1916 -0.4998 -0.2292
  606MOL0     C81698   5.011   0.683   4.418 -0.2177  0.3076 -0.2433
  606MOL0     O81699   4.953   0.553   4.416  0.1213  0.0210 -0.0128
  606MOL0     C81700   4.824   0.559   4.474 -0.2372  0.3750  0.4764
  606MOL0     C81701   4.721   0.475   4.422  0.2537 -0.9015 -0.3538
  606MOL0     C81702   4.589   0.470   4.468  0.1519 -0.1298 -0.1418
  606MOL0     C81703   4.486   0.381   4.397 -0.6418  0.6373  0.9136
  606MOL0     C81704   4.552   0.556   4.573 -0.1957 -0.1898  1.1868
  606MOL0     C81705   4.410   0.564   4.640 -0.0781 -0.2751 -0.0403
  606MOL0     O81706   4.328   0.454   4.625  0.1598 -1.2838  0.3135
  606MOL0     C81707   4.197   0.465   4.670  0.5413  0.3530 -0.8132
  606MOL0     C81708   4.099   0.476   4.574  0.2960 -0.8518 -0.1448
  606MOL0     C81709   3.961   0.469   4.612  0.7669  0.7093  0.3368
  606MOL0     C81710   3.921   0.442   4.743 -0.7291  0.9119 -0.1088
  606MOL0     O81711   3.791   0.451   4.788 -0.4369  0.4793 -0.1009
  606MOL0     C81712   3.695   0.502   4.701 -0.3059 -0.1575  0.1420
  606MOL0     C81713   3.560   0.503   4.768 -0.0836 -0.5421 -0.0356
  606MOL0     C81714   3.469   0.626   4.725  0.1272  0.1395 -0.7239
  606MOL0     C81715   3.496   0.756   4.815  0.3680  1.3458  0.3275
  606MOL0     C81716   3.409   0.873   4.764 -0.1943  0.0199  0.7300
  606MOL0     C81717   3.263   0.852   4.796  0.1750 -0.4277  0.1889
  606MOL0     C81718   3.183   0.987   4.796 -0.1720 -0.1076 -0.0165
  606MOL0     C81719   3.030   0.972   4.837 -0.6708  0.2184  0.1157
  606MOL0    Cl81720   2.948   1.111   4.750  0.4724 -0.0813 -0.1521
  606MOL0     C81721   4.031   0.439   4.841 -0.3109 -0.3461  0.2990
  606MOL0     C81722   4.162   0.443   4.800  0.3196 -0.2462  0.2489
  606MOL0     O81723   4.379   0.670   4.688 -0.4678 -0.3104 -0.3044
  606MOL0     C81724   4.652   0.639   4.635  0.1411 -0.2415  0.1812
  606MOL0     C81725   4.783   0.635   4.585  0.3836 -0.4952  0.2691
  606MOL0     N81726   5.283   0.508   4.030 -0.8946  0.3808 -0.7571
  606MOL0     N81727   5.264   0.396   3.977  0.0133 -0.0506  0.4978
  606MOL0     C81728   5.029   0.983   4.211  0.4413 -0.6605  0.0810
  606MOL0     C81729   5.143   1.046   4.267 -0.6105  0.3914 -0.2705
  606MOL0     C81730   5.501   1.255   4.387 -0.2308 -0.4515  0.2276
  606MOL0     C81731   5.490   1.358   4.489 -0.8538  0.0794 -0.4244
  606MOL0     C81732   5.599   1.400   4.564 -0.4321  0.2003  0.4787
  606MOL0     C81733   5.725   1.353   4.528 -0.5034 -0.0456 -0.5436
  606MOL0     O81734   5.830   1.392   4.608 -0.4415  0.2894  0.5341
  606MOL0     C81735   5.965   1.362   4.566 -0.0842  0.4657 -0.1770
  606MOL0     C81736   6.049   1.436   4.665 -0.0127 -1.5263  0.4260
  606MOL0     C81737   6.204   1.399   4.634  0.7029  0.1182  0.3004
  606MOL0     C81738   6.291   1.504   4.691 -0.6123 -0.2579 -0.0027
  606MOL0     C81739   6.431   1.485   4.663 -0.6727  0.1294 -0.4041
  606MOL0     C81740   6.553   1.463   4.638 -0.1360 -0.2202  0.0129
  606MOL0     C81741   5.740   1.253   4.434 -0.2086  0.3463  0.6341
  606MOL0     C81742   5.637   1.201   4.357  0.2568  0.4541  0.2111
  606MOL0     H81743   5.368   0.931   4.031 -1.3969 -4.0075 -1.5831
  606MOL0     H81744   5.166   0.839   3.945  0.4226 -0.8127  0.2494
  606MOL0     H81745   4.866   0.762   3.895  0.2740  1.6824  0.7201
  606MOL0     H81746   5.023   0.687   3.957  0.9780  2.0139 -0.5681
  606MOL0     H81747   4.902   0.582   4.138 -0.2513 -2.4518  0.7192
  606MOL0     H81748   4.753   0.660   4.085  0.5490 -1.0334  0.8860
  606MOL0     H81749   4.733   0.496   3.900  0.0694  3.2215  0.0587
  606MOL0     H81750   4.911   0.484   3.899 -0.3354 -1.5387  0.1446
  606MOL0     H81751   4.752   0.393   4.137 -0.8417  0.3430 -1.0093
  606MOL0     H81752   4.747   0.286   3.993 -1.7638  0.9549  0.5944
  606MOL0     H81753   5.000   0.383   4.118 -0.0123  0.7960 -1.0823
  606MOL0     H81754   4.917   0.247   4.188 -1.5672  2.5079  1.2632
  606MOL0     H81755   4.940   0.149   3.940  2.8437 -1.0904 -3.3929
  606MOL0     H81756   5.043   0.290   3.913 -0.1185  2.4590  1.6983
  606MOL0     H81757   5.088   0.128   4.168 -2.4033  0.1376 -0.5144
  606MOL0     H81758   5.106   0.023   4.036 -1.4913  0.9132 -0.9803
  606MOL0     H81759   5.316   0.128   3.957 -1.1959 -1.8295 -0.3622
  606MOL0     H81760   5.322   0.104   4.122  3.3729  2.0970  0.1672
  606MOL0     H81761   5.352   0.302   4.282  0.0340 -1.0517 -0.6677
  606MOL0     H81762   5.447   0.550   4.312 -0.5394 -0.2746  0.3511
  606MOL0     H81763   5.370   0.683   4.218  1.3672 -0.2907 -0.3835
  606MOL0     H81764   5.294   0.649   4.456  1.2938 -0.1204  0.2054
  606MOL0     H81765   5.213   0.497   4.391 -1.5582  0.7892 -2.2852
  606MOL0     H81766   5.094   0.625   4.226  0.2529  2.7717 -1.8166
  606MOL0     H81767   5.160   0.774   4.286  1.9516 -0.8976 -0.7014
  606MOL0     H81768   4.939   0.764   4.400 -0.2553  0.1332 -0.9083
  606MOL0     H81769   5.050   0.708   4.517 -2.5332 -0.2119  0.8795
  606MOL0     H81770   4.744   0.400   4.347 -2.7259 -2.9722  0.6199
  606MOL0     H81771   4.438   0.305   4.459 -2.9835  0.6458 -0.7593
  606MOL0     H81772   4.402   0.444   4.368 -0.9228  0.4307  1.2722
  606MOL0     H81773   4.519   0.326   4.309 -3.2308 -0.1697  0.3787
  606MOL0     H81774   4.136   0.489   4.473  0.0288  0.6281 -0.0823
  606MOL0     H81775   3.895   0.479   4.527  1.1621 -2.4189 -0.4325
  606MOL0     H81776   3.716   0.605   4.671  0.6042 -0.5261 -0.5377
  606MOL0     H81777   3.693   0.433   4.616  2.1287 -0.6012  0.3938
  606MOL0     H81778   3.500   0.414   4.748 -2.0647  0.6353  0.4045
  606MOL0     H81779   3.575   0.514   4.876  0.5298 -1.9523  0.0465
  606MOL0     H81780   3.364   0.596   4.735  0.2489 -0.3669 -0.9598
  606MOL0     H81781   3.482   0.638   4.617 -1.4819 -0.6406 -1.0511
  606MOL0     H81782   3.483   0.725   4.919  2.1475 -3.3347 -0.6011
  606MOL0     H81783   3.596   0.799   4.819  0.0945  1.9964  0.5660
  606MOL0     H81784   3.411   0.889   4.656  3.1788 -0.5540  0.6032
  606MOL0     H81785   3.444   0.956   4.826  0.8953  0.1024  0.0379
  606MOL0     H81786   3.221   0.777   4.729 -2.6567  0.2116  1.1088
  606MOL0     H81787   3.255   0.817   4.899 -0.7042 -1.7588 -0.3033
  606MOL0     H81788   3.202   1.029   4.697  0.0653 -0.6673 -0.2088
  606MOL0     H81789   3.227   1.056   4.868  2.1178  0.2248 -1.6212
  606MOL0     H81790   3.020   0.977   4.946 -0.4251  0.9281  0.1164
  606MOL0     H81791   2.988   0.876   4.809 -0.6330  0.3127 -0.2637
  606MOL0     H81792   4.008   0.435   4.947 -2.7963  1.1781 -0.1064
  606MOL0     H81793   4.244   0.446   4.871 -0.4118  1.3642  1.0750
  606MOL0     H81794   4.627   0.708   4.715  0.7167 -0.7702  0.8280
  606MOL0     H81795   4.860   0.705   4.616 -0.6416  1.4794 -1.4390
  606MOL0     H81796   4.934   0.997   4.262  0.8475 -1.2444  1.0323
  606MOL0     H81797   5.116   1.115   4.346 -2.2771  3.1407 -3.0063
  606MOL0     H81798   5.398   1.414   4.502  0.5830  3.0841 -2.0954
  606MOL0     H81799   5.592   1.478   4.639  0.8994 -0.3543  1.2035
  606MOL0     H81800   5.987   1.255   4.567  0.0755  0.4734 -1.4178
  606MOL0     H81801   5.992   1.396   4.465 -1.6488  0.9598 -0.4551
  606MOL0     H81802   6.010   1.403   4.762  0.1280 -0.3965  0.8834
  606MOL0     H81803   6.037   1.543   4.648 -0.7695 -1.9799 -2.3117
  606MOL0     H81804   6.227   1.402   4.527 -3.0901 -1.2211 -0.7416
  606MOL0     H81805   6.236   1.302   4.671  1.1110  0.5313  1.0427
  606MOL0     H81806   6.281   1.503   4.800 -1.4329 -0.4623 -0.0684
  606MOL0     H81807   6.267   1.605   4.656 -4.5808 -1.3253 -0.9615
  606MOL0     H81808   6.659   1.461   4.629  0.2865  1.8557  3.0646
  606MOL0     H81809   5.839   1.213   4.415  0.1537  1.3502  0.3117
  606MOL0     H81810   5.658   1.131   4.277  0.2580 -0.0627  0.6614
  607MOL0     O81811   1.957   2.953   1.740 -0.4998 -0.6288 -0.2808
  607MOL0     C81812   1.931   2.980   1.860 -0.2675 -0.4139  0.0103
  607MOL0     O81813   1.838   2.910   1.938  0.2182  0.8770 -0.9806
  607MOL0     C81814   1.762   2.804   1.891 -0.5574  1.1603 -0.0495
  607MOL0     C81815   1.742   2.694   1.967 -0.1142 -0.3619  0.5681
  607MOL0     C81816   1.644   2.593   1.921 -0.2497  0.0466 -0.1789
  607MOL0     C81817   1.592   2.597   1.789 -0.1605 -0.8777  0.3846
  607MOL0     O81818   1.498   2.512   1.739  0.5565 -0.2838 -0.0631
  607MOL0     C81819   1.425   2.438   1.834  0.2336 -0.0666 -0.1021
  607MOL0     C81820   1.328   2.357   1.757  0.6011  0.1394 -0.4495
  607MOL0     C81821   1.212   2.285   1.840  0.3208  0.2289 -0.3054
  607MOL0     C81822   1.099   2.239   1.749  0.9440  0.1428  0.2976
  607MOL0     C81823   0.976   2.226   1.842  0.4060  0.1077 -0.2347
  607MOL0     C81824   0.855   2.166   1.776 -0.3665  0.4253  0.1893
  607MOL0     C81825   0.733   2.156   1.860  0.2741 -0.0275  0.7091
  607MOL0     C81826   0.619   2.069   1.793  0.8718  0.0258 -0.7444
  607MOL0     N81827   0.500   2.062   1.887  0.8292 -0.2059  0.4592
  607MOL0     C81828   0.381   2.134   1.872  0.3612 -0.2639  0.0944
  607MOL0     C81829   0.332   2.141   1.996 -0.4530 -0.5537 -0.4994
  607MOL0     C81830   0.221   2.225   2.055 -0.6130  0.6367  0.0006
  607MOL0     C81831   0.115   2.151   2.135 -0.2319  0.2550  0.0565
  607MOL0     C81832   0.065   2.034   2.055 -0.3189  0.2551  0.4956
  607MOL0     C81833  -0.039   1.946   2.137  0.2150 -0.1986  0.4007
  607MOL0     O81834   0.028   1.914   2.252 -0.9639  0.0088 -0.0624
  607MOL0     C81835  -0.042   1.880   2.360 -0.1763  0.6664 -0.7662
  607MOL0     C81836   0.037   1.873   2.477  0.0567  0.1149 -0.2204
  607MOL0     C81837  -0.012   1.832   2.606 -0.1305 -0.5365  0.5478
  607MOL0     C81838   0.082   1.829   2.720  0.6686 -0.5560 -1.0683
  607MOL0     C81839  -0.151   1.802   2.614 -0.0487  0.7511  0.3730
  607MOL0     C81840  -0.225   1.756   2.739 -0.3497 -0.2697  0.3288
  607MOL0     O81841  -0.361   1.766   2.742 -0.2190  0.1101 -0.2431
  607MOL0     C81842  -0.442   1.710   2.836  0.1187  0.5841  0.5074
  607MOL0     C81843  -0.565   1.771   2.832  0.3552  1.1084 -0.0958
  607MOL0     C81844  -0.661   1.740   2.925  0.3765  0.9324 -0.7234
  607MOL0     C81845  -0.624   1.655   3.026  0.0861 -0.2169 -0.5379
  607MOL0     O81846  -0.698   1.627   3.134  0.3206 -0.5910 -0.2583
  607MOL0     C81847  -0.817   1.703   3.165 -0.4187 -0.1287 -0.4912
  607MOL0     C81848  -0.888   1.615   3.268  0.1203 -0.3408 -0.3950
  607MOL0     C81849  -0.955   1.496   3.211  0.2860  1.0325  1.3189
  607MOL0     C81850  -1.051   1.448   3.314  0.1381  0.5509  0.0100
  607MOL0     C81851  -1.141   1.326   3.267 -0.6124  0.8505 -0.1537
  607MOL0     C81852  -1.249   1.284   3.359 -0.3919  0.4583  0.6304
  607MOL0     C81853  -1.372   1.380   3.360 -0.5833 -1.1984 -0.0177
  607MOL0     C81854  -1.497   1.311   3.388  0.2729  0.2365 -0.5144
  607MOL0    Cl81855  -1.535   1.299   3.562 -0.5676 -0.3273 -0.3609
  607MOL0     C81856  -0.504   1.587   3.023  0.1391  0.7314  0.6234
  607MOL0     C81857  -0.412   1.606   2.920 -0.6909 -0.4006  0.5057
  607MOL0     O81858  -0.155   1.704   2.828 -0.4178  0.1340 -0.6338
  607MOL0     C81859  -0.226   1.801   2.494 -0.6302 -0.1426  0.4918
  607MOL0     C81860  -0.176   1.841   2.363  0.1471 -0.7029  0.0883
  607MOL0     N81861   0.409   2.078   2.085  0.2199 -0.1674 -0.7560
  607MOL0     N81862   0.512   2.038   2.021 -0.1373 -0.8125 -0.3018
  607MOL0     C81863   1.626   2.711   1.712 -1.1495  0.4510  0.0692
  607MOL0     C81864   1.708   2.815   1.761  0.8667 -0.0267 -0.1001
  607MOL0     C81865   1.999   3.100   1.918 -0.0358  0.1272  0.2083
  607MOL0     C81866   2.098   3.172   1.850  0.9053 -0.2498 -0.1452
  607MOL0     C81867   2.156   3.284   1.919  0.3833 -0.1172 -0.0181
  607MOL0     C81868   2.110   3.324   2.043 -0.6410  0.3039  0.5769
  607MOL0     O81869   2.173   3.437   2.081 -0.2673 -0.3018 -0.4916
  607MOL0     C81870   2.220   3.444   2.214  0.2882 -0.0872 -0.6387
  607MOL0     C81871   2.322   3.328   2.249  0.1418 -0.6769 -0.0330
  607MOL0     C81872   2.450   3.326   2.161 -0.0874  0.2297 -0.4503
  607MOL0     C81873   2.525   3.198   2.182 -0.0347 -0.0630 -0.3218
  607MOL0     C81874   2.646   3.179   2.093 -0.6749 -0.3591 -0.9259
  607MOL0     C81875   2.756   3.167   2.038  0.6595  0.3317 -0.8067
  607MOL0     C81876   2.024   3.242   2.116  0.8088  0.0021 -0.1230
  607MOL0     C81877   1.970   3.133   2.055  0.3989  0.3925  1.0633
  607MOL0     H81878   1.797   2.707   2.060  3.2247  1.7823 -1.5079
  607MOL0     H81879   1.620   2.518   1.997 -1.7733  1.1339  0.4800
  607MOL0     H81880   1.496   2.382   1.896  0.6204 -0.4563 -0.8863
  607MOL0     H81881   1.357   2.493   1.900  1.3137 -0.1907  1.1668
  607MOL0     H81882   1.276   2.427   1.691 -0.9555  0.7404  1.3339
  607MOL0     H81883   1.367   2.277   1.693 -1.0968  0.8956 -2.5506
  607MOL0     H81884   1.255   2.199   1.891 -0.8350  0.4518  1.0851
  607MOL0     H81885   1.180   2.350   1.922  1.4678  3.5481 -2.2571
  607MOL0     H81886   1.070   2.320   1.681 -0.3671 -0.5769 -0.0237
  607MOL0     H81887   1.111   2.150   1.687 -0.7125 -1.4824  2.1699
  607MOL0     H81888   0.995   2.154   1.922  2.4315  0.3143 -0.4713
  607MOL0     H81889   0.953   2.321   1.890 -1.2788 -0.3722 -0.0320
  607MOL0     H81890   0.848   2.221   1.682  2.2052 -0.2919 -0.5076
  607MOL0     H81891   0.871   2.060   1.756  0.0487  0.6206 -0.5448
  607MOL0     H81892   0.760   2.122   1.960  2.5773  0.4397  0.3207
  607MOL0     H81893   0.691   2.256   1.872  2.2951  1.0237 -0.3687
  607MOL0     H81894   0.664   1.973   1.767 -0.1564 -1.0142  1.0928
  607MOL0     H81895   0.595   2.124   1.702 -0.3855  1.3322  0.3295
  607MOL0     H81896   0.338   2.179   1.783  1.8449 -1.2859 -1.1944
  607MOL0     H81897   0.274   2.299   2.116 -0.2535 -1.6160  2.5843
  607MOL0     H81898   0.167   2.277   1.975 -0.9674  0.9342  0.4224
  607MOL0     H81899   0.028   2.207   2.170  0.4027 -0.5977  3.3309
  607MOL0     H81900   0.184   2.120   2.215 -1.5879 -0.9451  0.8079
  607MOL0     H81901   0.149   1.969   2.028 -0.7531 -0.4157  0.7391
  607MOL0     H81902   0.018   2.070   1.963  0.9029  0.4445 -0.0811
  607MOL0     H81903  -0.053   1.855   2.077 -1.9454  0.0505  0.4620
  607MOL0     H81904  -0.131   2.004   2.145  0.4088  0.4003 -1.3321
  607MOL0     H81905   0.141   1.905   2.485 -1.1017  3.9083  2.2569
  607MOL0     H81906   0.178   1.873   2.692  0.1609  0.4691 -1.2482
  607MOL0     H81907   0.031   1.883   2.800  2.7184  2.4670 -1.6465
  607MOL0     H81908   0.101   1.726   2.750  0.4741 -0.3406 -0.1755
  607MOL0     H81909  -0.578   1.849   2.758 -1.9986  0.1367 -0.7818
  607MOL0     H81910  -0.751   1.800   2.919  0.4074  1.2739  1.5053
  607MOL0     H81911  -0.783   1.797   3.210  1.9115 -0.0788 -2.2036
  607MOL0     H81912  -0.879   1.729   3.079 -1.0860 -1.4892 -0.4429
  607MOL0     H81913  -0.816   1.584   3.344 -1.9133 -2.2415  0.8624
  607MOL0     H81914  -0.962   1.688   3.302  2.1519  1.6508 -0.0218
  607MOL0     H81915  -0.875   1.423   3.198  0.6347  1.5257  0.5884
  607MOL0     H81916  -1.000   1.516   3.114  0.9417 -1.0630  0.5380
  607MOL0     H81917  -0.991   1.416   3.399 -1.4741 -1.1827  0.5733
  607MOL0     H81918  -1.114   1.526   3.357  0.6153  1.6479 -1.2092
  607MOL0     H81919  -1.072   1.241   3.257 -2.3120 -0.8083  1.5487
  607MOL0     H81920  -1.183   1.341   3.167  0.9102  0.7923 -0.8332
  607MOL0     H81921  -1.285   1.185   3.331  1.1696 -0.0053  0.1860
  607MOL0     H81922  -1.227   1.275   3.466 -3.0644  2.3151  1.4718
  607MOL0     H81923  -1.380   1.428   3.262  1.6887 -0.8397 -0.0806
  607MOL0     H81924  -1.358   1.456   3.436  2.2674 -0.2842 -1.3277
  607MOL0     H81925  -1.496   1.216   3.334 -3.9732 -0.2388 -0.0781
  607MOL0     H81926  -1.582   1.365   3.344  0.3201 -0.3040 -1.2858
  607MOL0     H81927  -0.492   1.503   3.091 -2.0618 -0.5857 -0.5151
  607MOL0     H81928  -0.314   1.558   2.917  0.0982  1.1694  0.2402
  607MOL0     H81929  -0.326   1.757   2.495 -0.1299 -1.3321  1.3609
  607MOL0     H81930  -0.232   1.829   2.270  1.8007  0.0016 -1.0464
  607MOL0     H81931   1.578   2.737   1.618 -1.0501  3.5165  0.7804
  607MOL0     H81932   1.721   2.901   1.695  0.1703 -0.0366 -0.2592
  607MOL0     H81933   2.140   3.128   1.760  0.6021 -1.9140  0.4825
  607MOL0     H81934   2.234   3.342   1.872 -1.7071  2.3384 -0.6523
  607MOL0     H81935   2.288   3.528   2.231 -0.4261  0.6157 -1.1657
  607MOL0     H81936   2.143   3.445   2.292  1.4563  1.3714  0.5749
  607MOL0     H81937   2.269   3.232   2.250 -1.2295  0.0423  1.3101
  607MOL0     H81938   2.353   3.345   2.352  2.2207 -1.0019 -0.5646
  607MOL0     H81939   2.509   3.418   2.164 -0.6047  0.5304  1.7104
  607MOL0     H81940   2.412   3.322   2.059 -1.3415 -0.5888  0.0271
  607MOL0     H81941   2.461   3.112   2.161  2.3297 -2.7810  2.5966
  607MOL0     H81942   2.562   3.193   2.284  0.6775 -0.6389 -0.5974
  607MOL0     H81943   2.849   3.162   1.984  1.0646  0.3736 -0.1220
  607MOL0     H81944   2.025   3.279   2.218  0.1768 -0.1421 -0.0610
  607MOL0     H81945   1.890   3.089   2.113 -3.0976  3.0942 -1.2968
  608MOL0     O81946  10.573   0.675   4.420  0.4163  0.0663  0.5487
  608MOL0     C81947  10.658   0.624   4.490 -0.2787 -0.4734 -0.9511
  608MOL0     O81948  10.628   0.540   4.594 -0.7429 -0.3132 -0.0257
  608MOL0     C81949  10.507   0.525   4.634  0.5970 -0.8025  0.3134
  608MOL0     C81950  10.443   0.611   4.726  0.0347 -1.0831  0.0432
  608MOL0     C81951  10.313   0.600   4.768  0.9833  0.2872 -0.5310
  608MOL0     C81952  10.232   0.493   4.717  0.6410 -0.0941 -0.5907
  608MOL0     O81953  10.103   0.469   4.760 -0.5783 -0.3720 -0.2090
  608MOL0     C81954  10.079   0.503   4.902  0.1940 -0.1419  0.7473
  608MOL0     C81955   9.960   0.406   4.954  0.2163  0.2305  0.2525
  608MOL0     C81956   9.960   0.408   5.100 -0.1040 -1.1402 -0.0206
  608MOL0     C81957   9.859   0.303   5.153 -0.2490  0.1844  0.1462
  608MOL0     C81958   9.834   0.328   5.307 -0.6641  0.6477  0.5291
  608MOL0     C81959   9.751   0.208   5.376 -0.8719 -0.6760  0.3850
  608MOL0     C81960   9.737   0.241   5.518  0.5209  0.8099  0.0295
  608MOL0     C81961   9.658   0.114   5.578  0.0380 -0.0096 -0.0174
  608MOL0     N81962   9.509   0.112   5.578  0.5844 -0.2075 -0.6610
  608MOL0     C81963   9.425  -0.007   5.577 -0.4157 -0.6372  0.5416
  608MOL0     C81964   9.304   0.036   5.605 -0.3129 -0.3833  0.2693
  608MOL0     C81965   9.178  -0.044   5.608  0.1714 -0.4626  0.1028
  608MOL0     C81966   9.128  -0.067   5.757  0.0332  0.0424 -0.5213
  608MOL0     C81967   9.014  -0.171   5.758 -0.6502 -0.0410 -0.4241
  608MOL0     C81968   8.886  -0.138   5.679  1.1201 -0.1631 -0.0943
  608MOL0     O81969   8.780  -0.221   5.735  0.9033 -0.9992  0.7713
  608MOL0     C81970   8.669  -0.228   5.654 -0.2854 -0.2829 -0.1414
  608MOL0     C81971   8.599  -0.353   5.648 -0.2754  0.9384  0.0300
  608MOL0     C81972   8.478  -0.372   5.586  0.4726  0.5740  0.3671
  608MOL0     C81973   8.416  -0.517   5.606  0.0567 -0.6142  0.0429
  608MOL0     C81974   8.422  -0.263   5.512  0.3330 -0.1606 -0.4597
  608MOL0     C81975   8.301  -0.262   5.427 -0.1151  0.5325 -0.6839
  608MOL0     O81976   8.257  -0.152   5.362  0.4685 -0.1877  0.2576
  608MOL0     C81977   8.128  -0.168   5.321 -0.0658  0.0695 -0.2394
  608MOL0     C81978   8.025  -0.115   5.400  0.2762  0.8999  0.2574
  608MOL0     C81979   7.892  -0.132   5.345  0.7027 -0.3261  0.1219
  608MOL0     C81980   7.863  -0.192   5.221  0.7697 -0.4416 -0.5776
  608MOL0     O81981   7.744  -0.200   5.160  0.7042  0.5470  0.6033
  608MOL0     C81982   7.640  -0.130   5.227 -0.3577 -0.1403  0.6265
  608MOL0     C81983   7.515  -0.126   5.134 -0.5323  0.0068 -0.0730
  608MOL0     C81984   7.459  -0.260   5.083 -0.4667  0.0561 -0.9894
  608MOL0     C81985   7.403  -0.337   5.207  0.0497  0.6551 -0.4830
  608MOL0     C81986   7.390  -0.489   5.172 -0.1966  0.2571 -1.2258
  608MOL0     C81987   7.342  -0.535   5.032  0.9491 -0.0388 -0.2503
  608MOL0     C81988   7.300  -0.680   5.016 -0.9268 -0.8046 -0.1549
  608MOL0     C81989   7.412  -0.780   5.040 -0.2563 -0.4653 -0.6467
  608MOL0    Cl81990   7.344  -0.941   5.023  0.0463 -0.2177 -0.0009
  608MOL0     C81991   7.972  -0.244   5.156 -0.7167  0.2408 -0.6124
  608MOL0     C81992   8.106  -0.236   5.200 -0.0670  0.1464  0.3396
  608MOL0     O81993   8.242  -0.374   5.426 -0.1051  0.3118  0.1647
  608MOL0     C81994   8.500  -0.146   5.497 -0.5313 -0.9353  0.1125
  608MOL0     C81995   8.614  -0.133   5.572 -0.6017  0.7483  0.1143
  608MOL0     N81996   9.310   0.172   5.639  0.2963 -0.0355 -0.4863
  608MOL0     N81997   9.432   0.216   5.614  0.7036 -0.3692 -0.0140
  608MOL0     C81998  10.288   0.406   4.622  0.0365  0.7030  0.0027
  608MOL0     C81999  10.420   0.421   4.583 -0.0379  0.1707  0.1460
  608MOL0     C82000  10.802   0.647   4.457  0.4425  0.6012  0.8330
  608MOL0     C82001  10.843   0.720   4.338 -0.4380 -0.7890 -0.1169
  608MOL0     C82002  10.978   0.759   4.324 -0.1786 -0.0140  0.2235
  608MOL0     C82003  11.073   0.723   4.424  0.1347  0.2702  0.1960
  608MOL0     O82004  11.201   0.757   4.414 -0.3456 -0.6219 -0.7787
  608MOL0     C82005  11.267   0.815   4.297  0.0343 -0.3077 -0.2641
  608MOL0     C82006  11.392   0.882   4.337 -0.4397  0.0394  0.4777
  608MOL0     C82007  11.349   0.994   4.433  0.5371  0.5659  0.2450
  608MOL0     C82008  11.450   1.102   4.450 -0.1723 -0.0804  0.6498
  608MOL0     C82009  11.479   1.160   4.318  0.1834 -0.6588 -0.3590
  608MOL0     C82010  11.520   1.202   4.210  0.9773  1.0416 -0.2083
  608MOL0     C82011  11.029   0.648   4.533 -0.0791  0.3750 -0.2845
  608MOL0     C82012  10.895   0.608   4.549 -0.6008  0.0327 -0.0638
  608MOL0     H82013  10.503   0.690   4.772 -0.5876  0.1078 -1.0976
  608MOL0     H82014  10.284   0.671   4.845  0.2304 -1.2301  0.6098
  608MOL0     H82015  10.168   0.478   4.960 -1.3030  0.5463  3.5088
  608MOL0     H82016  10.062   0.610   4.910  3.2603  0.5368 -0.3312
  608MOL0     H82017   9.860   0.431   4.916  1.5496  0.8330 -3.2600
  608MOL0     H82018   9.986   0.304   4.924 -2.5446 -0.4932  0.0284
  608MOL0     H82019  10.050   0.361   5.142  0.3590 -1.5815 -1.4659
  608MOL0     H82020   9.932   0.506   5.139 -0.3637 -1.4372  0.5688
  608MOL0     H82021   9.764   0.322   5.101 -0.4273 -1.0520 -0.0361
  608MOL0     H82022   9.896   0.201   5.136 -1.5312 -0.2455 -0.1636
  608MOL0     H82023   9.933   0.328   5.353 -1.5636  0.5093  2.6201
  608MOL0     H82024   9.800   0.432   5.314 -1.0495  0.5769 -0.1994
  608MOL0     H82025   9.651   0.203   5.330 -0.2909 -0.7834 -0.8961
  608MOL0     H82026   9.799   0.111   5.358 -0.3513 -0.7238  1.8546
  608MOL0     H82027   9.836   0.249   5.563  0.4921 -2.4885  1.0182
  608MOL0     H82028   9.678   0.333   5.528 -0.1412  0.6310 -1.8454
  608MOL0     H82029   9.676   0.120   5.686  0.4067 -0.5719 -0.0417
  608MOL0     H82030   9.698   0.022   5.534  2.0407  1.1514 -0.7574
  608MOL0     H82031   9.450  -0.110   5.554  0.8661 -0.0661 -0.7521
  608MOL0     H82032   9.102   0.007   5.548  1.2839  0.0287 -0.9441
  608MOL0     H82033   9.202  -0.137   5.556 -0.1851 -0.4064 -0.1691
  608MOL0     H82034   9.089   0.027   5.797  1.9472  0.5436  0.3209
  608MOL0     H82035   9.213  -0.098   5.819 -1.4244  0.0439  1.5637
  608MOL0     H82036   8.980  -0.193   5.859 -1.9595 -1.9191 -1.2096
  608MOL0     H82037   9.051  -0.271   5.732  3.7954  0.9935  1.2186
  608MOL0     H82038   8.903  -0.173   5.576 -0.3786 -0.3804 -0.2948
  608MOL0     H82039   8.870  -0.030   5.689  2.3025 -0.0534  0.7920
  608MOL0     H82040   8.635  -0.436   5.707 -0.7427  1.9660  1.8345
  608MOL0     H82041   8.423  -0.553   5.709  1.0438 -3.3616 -0.8964
  608MOL0     H82042   8.311  -0.509   5.577  0.3840  4.6324 -0.5605
  608MOL0     H82043   8.470  -0.583   5.537 -0.2972 -0.9029  0.0362
  608MOL0     H82044   8.056  -0.066   5.493  0.7648 -2.6579  2.1469
  608MOL0     H82045   7.812  -0.084   5.400 -0.3320 -0.7470 -0.9722
  608MOL0     H82046   7.615  -0.181   5.321  1.8291 -1.5923  0.4914
  608MOL0     H82047   7.669  -0.027   5.248  1.1778 -0.4219  0.0445
  608MOL0     H82048   7.442  -0.070   5.194 -1.1212 -1.2095  0.3917
  608MOL0     H82049   7.543  -0.066   5.047  1.3935 -0.0484  0.4624
  608MOL0     H82050   7.533  -0.316   5.024 -0.8954  0.2401 -1.7041
  608MOL0     H82051   7.374  -0.243   5.017 -0.0774 -1.4366 -1.9343
  608MOL0     H82052   7.465  -0.334   5.297 -1.0576 -1.5520  0.4249
  608MOL0     H82053   7.307  -0.288   5.225  0.4363  1.7076 -1.2148
  608MOL0     H82054   7.342  -0.538   5.257  1.2669  0.5846 -0.1803
  608MOL0     H82055   7.492  -0.525   5.188 -1.2817 -1.8899  1.9275
  608MOL0     H82056   7.251  -0.478   5.009  1.2458  1.0485  1.1320
  608MOL0     H82057   7.410  -0.521   4.948 -1.0444  0.4362 -1.8722
  608MOL0     H82058   7.266  -0.698   4.913  0.4873 -2.2777 -0.4026
  608MOL0     H82059   7.218  -0.687   5.088 -0.2638 -0.2474  0.6737
  608MOL0     H82060   7.453  -0.772   5.142  0.8833  0.1694 -1.1374
  608MOL0     H82061   7.487  -0.764   4.963 -0.9019 -0.8071 -1.3583
  608MOL0     H82062   7.945  -0.305   5.070 -1.0517 -0.8702  0.2560
  608MOL0     H82063   8.184  -0.273   5.135 -1.0400 -3.3518  0.9576
  608MOL0     H82064   8.471  -0.073   5.422 -0.4212 -2.1128 -1.1015
  608MOL0     H82065   8.655  -0.033   5.561 -1.2347  0.8962 -1.2470
  608MOL0     H82066  10.233   0.315   4.601 -1.5524  1.9823 -1.6836
  608MOL0     H82067  10.470   0.362   4.506  1.4865  1.5203  0.0643
  608MOL0     H82068  10.771   0.724   4.256 -0.6346 -1.2820  0.0263
  608MOL0     H82069  11.012   0.794   4.227 -1.4360 -1.4767 -0.8052
  608MOL0     H82070  11.295   0.731   4.233 -0.2095 -0.5187 -0.0958
  608MOL0     H82071  11.205   0.884   4.239 -2.2485 -0.4429  1.8198
  608MOL0     H82072  11.443   0.931   4.254 -0.4237  0.9902  1.0352
  608MOL0     H82073  11.463   0.810   4.380 -0.9368 -1.0282 -0.4433
  608MOL0     H82074  11.336   0.945   4.530  0.7799 -0.7160 -0.3483
  608MOL0     H82075  11.250   1.032   4.403  1.4146  1.4264 -1.7611
  608MOL0     H82076  11.542   1.067   4.496 -0.1261  1.5329  1.9060
  608MOL0     H82077  11.402   1.181   4.509 -0.3634 -1.4606  2.4134
  608MOL0     H82078  11.564   1.216   4.114 -1.1871 -0.6306 -1.5236
  608MOL0     H82079  11.099   0.622   4.613 -1.6525  0.7325  1.2759
  608MOL0     H82080  10.870   0.552   4.638  0.2359  0.4905  0.4698
  609MOL0     O82081   5.797   1.895   4.602 -0.9207 -0.1223 -0.2539
  609MOL0     C82082   5.884   1.871   4.689 -0.2405  0.0142  0.1026
  609MOL0     O82083   5.853   1.818   4.814  0.3167  0.9050  0.0924
  609MOL0     C82084   5.720   1.790   4.847 -0.0343 -0.1152  0.2207
  609MOL0     C82085   5.676   1.662   4.856  0.6343  0.1100 -0.6592
  609MOL0     C82086   5.534   1.636   4.871 -0.0630 -0.3194  0.3712
  609MOL0     C82087   5.446   1.732   4.899 -0.5291  0.9114 -0.4394
  609MOL0     O82088   5.316   1.693   4.911 -0.8422  0.0746  0.4388
  609MOL0     C82089   5.224   1.795   4.962 -0.2751 -0.1764  0.2440
  609MOL0     C82090   5.079   1.746   4.966  0.1260 -0.2298  0.5931
  609MOL0     C82091   5.050   1.651   4.839  0.4266 -0.2672 -0.4710
  609MOL0     C82092   4.907   1.605   4.831  0.2534  0.3153  0.1037
  609MOL0     C82093   4.891   1.480   4.747  0.8255  0.1872  0.1624
  609MOL0     C82094   4.908   1.489   4.591  0.9270  0.2574 -0.1498
  609MOL0     C82095   4.824   1.604   4.534  0.0130  0.1405  0.1201
  609MOL0     C82096   4.673   1.595   4.546 -0.0430 -0.2465  0.1713
  609MOL0     N82097   4.611   1.694   4.461  0.1602  0.1331  0.3140
  609MOL0     C82098   4.612   1.707   4.322 -0.9780 -0.3622 -0.0183
  609MOL0     C82099   4.520   1.799   4.295 -0.2050  0.0559 -0.3827
  609MOL0     C82100   4.488   1.832   4.151 -0.2992 -0.2045 -0.4848
  609MOL0     C82101   4.370   1.934   4.138 -0.5881  0.1262 -0.0560
  609MOL0     C82102   4.233   1.862   4.169 -0.6215 -0.0492 -0.5559
  609MOL0     C82103   4.117   1.921   4.091  0.1255  0.1203  0.8205
  609MOL0     O82104   3.997   1.899   4.168  0.4295 -0.1277 -0.6491
  609MOL0     C82105   3.871   1.918   4.104  0.0402 -0.0573 -0.4168
  609MOL0     C82106   3.852   1.907   3.965 -0.3612  0.3922 -0.3648
  609MOL0     C82107   3.731   1.931   3.896  0.0845 -0.6740 -0.1790
  609MOL0     C82108   3.725   1.897   3.746 -0.2243  0.0816  0.4552
  609MOL0     C82109   3.621   1.968   3.977  0.4403  0.6376  0.7976
  609MOL0     C82110   3.483   1.992   3.918 -0.1215 -0.3210 -0.0691
  609MOL0     O82111   3.378   1.957   3.991  0.9217  0.1352  0.2261
  609MOL0     C82112   3.251   2.008   3.966 -0.7310 -0.8394 -0.2963
  609MOL0     C82113   3.215   2.133   4.015 -0.2425  0.0327 -1.0096
  609MOL0     C82114   3.087   2.182   4.033  0.2022 -0.4554  0.5060
  609MOL0     C82115   2.980   2.103   3.977 -0.4123 -0.1555  0.5212
  609MOL0     O82116   2.844   2.144   3.969  0.1591  0.0093 -0.4970
  609MOL0     C82117   2.812   2.284   3.968 -0.5267  0.0143 -0.5395
  609MOL0     C82118   2.662   2.294   3.937 -0.3656  0.2602  0.1784
  609MOL0     C82119   2.618   2.236   3.797 -0.6581 -0.1837 -0.7139
  609MOL0     C82120   2.471   2.267   3.756  0.4641 -0.7102  0.7504
  609MOL0     C82121   2.450   2.202   3.618 -0.1394  0.3266 -0.0958
  609MOL0     C82122   2.301   2.232   3.592 -0.8287 -0.1008  0.1216
  609MOL0     C82123   2.260   2.165   3.466  0.5493  0.1364 -0.0808
  609MOL0     C82124   2.120   2.196   3.433 -0.0041 -0.3996 -0.1072
  609MOL0    Cl82125   2.097   2.368   3.375  0.0922 -0.2065 -0.1519
  609MOL0     C82126   3.016   1.989   3.900  0.0423 -0.3277  0.0187
  609MOL0     C82127   3.146   1.942   3.907  0.6954 -0.3751 -0.2937
  609MOL0     O82128   3.478   2.058   3.818  0.7071  0.1624  0.1517
  609MOL0     C82129   3.630   1.972   4.115 -0.6129  0.0664 -0.1169
  609MOL0     C82130   3.753   1.947   4.175 -0.3286 -0.9936 -0.6579
  609MOL0     N82131   4.471   1.849   4.418  0.8175  0.4650  0.3521
  609MOL0     N82132   4.525   1.786   4.514  0.3917  0.6680  0.2720
  609MOL0     C82133   5.499   1.861   4.914  0.6524 -0.6216 -1.2315
  609MOL0     C82134   5.629   1.888   4.879 -0.5172 -0.2347 -0.1773
  609MOL0     C82135   6.024   1.890   4.656  0.0951 -0.3318  0.3746
  609MOL0     C82136   6.046   1.957   4.532  0.1405  0.4951  0.1435
  609MOL0     C82137   6.177   1.975   4.488 -0.2375 -0.3053  0.0368
  609MOL0     C82138   6.279   1.948   4.574 -0.5442 -0.1083  0.1178
  609MOL0     O82139   6.411   1.948   4.525  0.3619  0.2363  0.3740
  609MOL0     C82140   6.508   1.860   4.583 -0.2759  0.5615  0.2815
  609MOL0     C82141   6.625   1.870   4.492 -0.7075  1.1249 -0.0597
  609MOL0     C82142   6.755   1.790   4.531 -0.2624 -0.2006  0.2832
  609MOL0     C82143   6.864   1.807   4.421  0.1941 -0.4130  0.7576
  609MOL0     C82144   6.983   1.740   4.473 -0.2573 -0.4183 -0.1880
  609MOL0     C82145   7.083   1.694   4.530 -0.0152  1.1157 -0.4718
  609MOL0     C82146   6.257   1.899   4.704 -0.2037 -0.0986 -0.0525
  609MOL0     C82147   6.128   1.863   4.745 -0.2523 -0.6831 -1.1973
  609MOL0     H82148   5.737   1.579   4.824 -0.8161 -0.9014 -0.8805
  609MOL0     H82149   5.483   1.540   4.864 -2.9333  1.1971 -1.0914
  609MOL0     H82150   5.258   1.830   5.059  1.3871  1.5891 -0.9080
  609MOL0     H82151   5.220   1.882   4.897  0.2148 -1.2883 -1.3493
  609MOL0     H82152   5.061   1.684   5.055  0.3312 -2.9935 -1.1846
  609MOL0     H82153   5.018   1.836   4.977  0.7746  0.2873  0.0147
  609MOL0     H82154   5.073   1.704   4.746  1.5914  2.4671  1.2385
  609MOL0     H82155   5.112   1.562   4.844  3.2765  1.5969 -0.0108
  609MOL0     H82156   4.883   1.573   4.933 -1.6593 -1.7298 -0.9170
  609MOL0     H82157   4.846   1.692   4.805 -0.8828 -0.0786  1.3455
  609MOL0     H82158   4.923   1.386   4.793  0.1133 -0.2065 -0.1270
  609MOL0     H82159   4.783   1.466   4.761  1.1917 -0.8114  2.5573
  609MOL0     H82160   5.015   1.489   4.568  0.8747  0.5069 -0.4163
  609MOL0     H82161   4.863   1.398   4.551 -1.7810  1.4176  0.0168
  609MOL0     H82162   4.860   1.695   4.582  1.0120 -0.7750  1.1391
  609MOL0     H82163   4.855   1.613   4.429  3.1149 -2.6368  0.6349
  609MOL0     H82164   4.640   1.606   4.650 -0.9706 -2.5319  0.1705
  609MOL0     H82165   4.633   1.497   4.519 -3.4608  0.8676  0.6959
  609MOL0     H82166   4.654   1.652   4.239 -1.1633 -0.9505  0.2649
  609MOL0     H82167   4.573   1.884   4.105 -1.4999  2.0921 -0.2709
  609MOL0     H82168   4.479   1.747   4.083 -1.2840  0.1674 -0.8358
  609MOL0     H82169   4.371   1.982   4.040 -0.1957 -0.6251 -0.4274
  609MOL0     H82170   4.380   2.022   4.202  1.1988  1.0806 -1.5597
  609MOL0     H82171   4.224   1.874   4.278 -1.5132  0.0466 -0.6386
  609MOL0     H82172   4.241   1.755   4.146  3.0165  0.2226 -1.1201
  609MOL0     H82173   4.116   1.872   3.993 -1.5289 -0.1676  0.9476
  609MOL0     H82174   4.124   2.028   4.070  0.0785  0.0360  0.3603
  609MOL0     H82175   3.928   1.876   3.894 -2.2542 -1.6775 -1.6210
  609MOL0     H82176   3.726   1.794   3.710 -1.3706  0.3247 -0.2972
  609MOL0     H82177   3.629   1.926   3.703 -0.5016 -1.9096 -0.3983
  609MOL0     H82178   3.797   1.948   3.681 -0.2731  0.3436  0.6066
  609MOL0     H82179   3.287   2.206   4.051 -1.7791  0.7550  0.7753
  609MOL0     H82180   3.069   2.283   4.066 -0.1650 -0.4964  0.4327
  609MOL0     H82181   2.831   2.320   4.069  0.0279  1.6194 -1.1830
  609MOL0     H82182   2.873   2.344   3.900  0.6790 -1.0031 -0.3974
  609MOL0     H82183   2.603   2.246   4.015 -1.6975 -1.4394 -1.7775
  609MOL0     H82184   2.643   2.401   3.950 -0.6438  0.3909 -1.1353
  609MOL0     H82185   2.626   2.129   3.816 -0.4013  0.0995  0.8974
  609MOL0     H82186   2.679   2.260   3.709 -1.2903  0.5750 -0.9632
  609MOL0     H82187   2.404   2.219   3.827 -0.9847 -0.8340 -0.6404
  609MOL0     H82188   2.460   2.376   3.758  3.6640 -0.2944  1.1862
  609MOL0     H82189   2.477   2.098   3.603 -1.3170 -0.2910  1.7487
  609MOL0     H82190   2.508   2.255   3.541 -1.5731  1.0107 -0.7572
  609MOL0     H82191   2.235   2.204   3.676  0.6136  1.1623  1.7468
  609MOL0     H82192   2.287   2.339   3.576 -0.6785 -0.3379 -1.7492
  609MOL0     H82193   2.270   2.057   3.481  1.0914  0.5830  3.9644
  609MOL0     H82194   2.321   2.194   3.379  2.2902  1.7154  1.5734
  609MOL0     H82195   2.056   2.180   3.520  0.3235 -1.2419 -0.0181
  609MOL0     H82196   2.099   2.120   3.358 -2.3006 -0.5844  0.6736
  609MOL0     H82197   2.948   1.928   3.842  3.2696 -3.0404 -1.2587
  609MOL0     H82198   3.163   1.844   3.865 -0.7756 -0.6586 -0.2873
  609MOL0     H82199   3.545   1.994   4.178  1.2618  1.0118  2.2789
  609MOL0     H82200   3.759   1.953   4.283  0.4787  3.5019 -0.7281
  609MOL0     H82201   5.438   1.946   4.943 -0.1742 -0.5115 -3.0841
  609MOL0     H82202   5.673   1.987   4.870 -1.3837  0.0958 -0.9221
  609MOL0     H82203   5.961   1.978   4.468  0.5005 -0.4185 -0.6666
  609MOL0     H82204   6.204   2.011   4.389  3.8866  0.0584  1.1221
  609MOL0     H82205   6.535   1.886   4.685 -2.8216  2.0990  0.6601
  609MOL0     H82206   6.477   1.756   4.573  1.0883  0.1027  0.6213
  609MOL0     H82207   6.646   1.977   4.490 -0.4080  1.0637 -0.4897
  609MOL0     H82208   6.600   1.839   4.390 -2.0218  1.6353  0.0842
  609MOL0     H82209   6.739   1.684   4.551  0.5169 -0.3099  0.3496
  609MOL0     H82210   6.792   1.834   4.625 -0.2368  1.8176 -0.6257
  609MOL0     H82211   6.885   1.914   4.416 -0.9668 -0.1803  0.5816
  609MOL0     H82212   6.835   1.781   4.319  1.6241  2.0228 -0.3526
  609MOL0     H82213   7.158   1.642   4.585 -1.5480 -1.6728 -0.8484
  609MOL0     H82214   6.342   1.882   4.770  0.4983 -1.1919 -1.1934
  609MOL0     H82215   6.107   1.813   4.839 -4.3958  0.5880 -1.2717
  610MOL0     O82216   1.410   1.688  11.098  0.1594 -0.2728 -0.3241
  610MOL0     C82217   1.419   1.787  11.030  0.1351 -0.5077 -0.4549
  610MOL0     O82218   1.312   1.864  10.976  0.3736  0.4649 -0.1072
  610MOL0     C82219   1.185   1.853  11.026 -0.3508  1.0396 -0.2003
  610MOL0     C82220   1.152   1.813  11.159  0.2645  0.2505 -0.0335
  610MOL0     C82221   1.022   1.816  11.206  0.4007 -0.8229  0.2051
  610MOL0     C82222   0.916   1.854  11.120  0.3934  0.5677  0.9632
  610MOL0     O82223   0.788   1.841  11.172  0.1108 -0.5139 -0.2844
  610MOL0     C82224   0.686   1.799  11.079 -0.0178  0.5932  0.2521
  610MOL0     C82225   0.571   1.767  11.165 -0.4077  0.0714  0.5318
  610MOL0     C82226   0.466   1.675  11.108 -0.2129  0.0218  1.3224
  610MOL0     C82227   0.368   1.751  11.016 -0.0486  0.0372  0.0417
  610MOL0     C82228   0.260   1.657  10.968 -0.0330  0.1807 -0.1232
  610MOL0     C82229   0.177   1.584  11.082  0.2514  0.4287  0.4194
  610MOL0     C82230   0.049   1.530  11.022 -0.1986 -0.2444 -0.9385
  610MOL0     C82231  -0.064   1.639  11.004 -0.0357  0.4364  0.6500
  610MOL0     N82232  -0.166   1.644  11.108  0.0465 -1.1014  0.2344
  610MOL0     C82233  -0.147   1.613  11.234  1.0445  0.4913  0.4380
  610MOL0     C82234  -0.269   1.597  11.282 -0.1137  0.6315  0.0909
  610MOL0     C82235  -0.298   1.557  11.425 -0.4868 -0.2535 -0.3405
  610MOL0     C82236  -0.441   1.548  11.473 -0.4361 -0.0679  0.5126
  610MOL0     C82237  -0.456   1.558  11.620  0.5568  0.0384 -0.7880
  610MOL0     C82238  -0.596   1.515  11.661 -0.1249  0.3818  0.1258
  610MOL0     O82239  -0.680   1.615  11.597  0.1604 -0.0982  0.3886
  610MOL0     C82240  -0.808   1.622  11.636 -0.4434 -0.6743  0.0065
  610MOL0     C82241  -0.883   1.723  11.583 -0.4780  0.3171  0.1401
  610MOL0     C82242  -1.023   1.729  11.607 -0.3915  0.8484 -0.0652
  610MOL0     C82243  -1.097   1.844  11.535 -0.5566 -0.3116 -0.3410
  610MOL0     C82244  -1.082   1.633  11.688 -0.1313 -0.8386  0.2982
  610MOL0     C82245  -1.240   1.624  11.705 -1.4024  0.0082 -0.1610
  610MOL0     O82246  -1.275   1.526  11.791  0.0729  0.7947 -0.3696
  610MOL0     C82247  -1.407   1.487  11.804 -0.6093  0.6210 -0.0570
  610MOL0     C82248  -1.439   1.424  11.923  0.3445 -0.7031  0.4227
  610MOL0     C82249  -1.561   1.358  11.951 -1.1982 -0.2404  0.0909
  610MOL0     C82250  -1.662   1.356  11.845 -0.8755  0.1467 -0.4139
  610MOL0     O82251  -1.792   1.301  11.859  0.5015  0.2451  0.8295
  610MOL0     C82252  -1.806   1.211  11.965  0.5434  0.3027 -0.2655
  610MOL0     C82253  -1.943   1.153  11.950 -0.9613 -0.1126 -0.0564
  610MOL0     C82254  -1.967   1.052  12.060 -0.8616 -0.8317  0.2981
  610MOL0     C82255  -2.090   0.979  12.018  0.0894  0.1620  0.0479
  610MOL0     C82256  -2.068   0.866  11.922 -0.0986 -0.9549 -0.6981
  610MOL0     C82257  -2.005   0.746  11.993  0.3479  0.2274 -0.3573
  610MOL0     C82258  -1.852   0.731  11.967  0.0331  0.8736 -0.0853
  610MOL0     C82259  -1.772   0.681  12.085 -0.2123  0.4017 -1.1510
  610MOL0    Cl82260  -1.607   0.631  12.048 -0.2253  0.3446  0.4400
  610MOL0     C82261  -1.631   1.427  11.733 -0.4211  0.2450  1.1460
  610MOL0     C82262  -1.508   1.485  11.705 -0.7082 -0.3448  0.2647
  610MOL0     O82263  -1.319   1.693  11.642 -0.0805  0.1853  0.5321
  610MOL0     C82264  -1.004   1.530  11.735  0.0290 -0.1444 -0.9676
  610MOL0     C82265  -0.866   1.522  11.714  0.4426  0.6748 -0.5694
  610MOL0     N82266  -0.366   1.635  11.191  1.2479 -0.3272 -0.6501
  610MOL0     N82267  -0.302   1.658  11.082  0.3734  0.3238 -0.1074
  610MOL0     C82268   0.949   1.913  10.997 -0.4965 -0.7419 -0.1997
  610MOL0     C82269   1.080   1.905  10.944 -0.9626  0.8736  0.6438
  610MOL0     C82270   1.550   1.849  11.017 -0.7272  0.6334  0.5029
  610MOL0     C82271   1.577   1.986  11.017 -1.1964 -0.2647  0.6035
  610MOL0     C82272   1.707   2.030  10.992 -0.3632 -0.0116  0.2606
  610MOL0     C82273   1.813   1.940  10.974  0.7493  0.1001 -0.6673
  610MOL0     O82274   1.946   1.984  10.968  0.4668  0.7317 -0.1481
  610MOL0     C82275   1.963   2.119  10.925 -0.6176  0.7976 -1.0367
  610MOL0     C82276   2.096   2.131  10.860  0.4186 -0.5525  0.1345
  610MOL0     C82277   2.126   2.016  10.760 -0.8983  0.1478  0.0332
  610MOL0     C82278   2.273   2.014  10.705  0.0794 -0.9416 -0.3199
  610MOL0     C82279   2.308   1.910  10.607 -0.9925  0.3081  0.4498
  610MOL0     C82280   2.339   1.831  10.517  0.5883 -0.4905  0.0241
  610MOL0     C82281   1.787   1.809  10.973 -0.5773  0.0243 -0.3102
  610MOL0     C82282   1.662   1.758  11.001  0.9657 -0.1172  0.6448
  610MOL0     H82283   1.236   1.785  11.223 -1.4051 -1.7432  1.4250
  610MOL0     H82284   0.997   1.792  11.309  1.6744 -2.5284  0.1585
  610MOL0     H82285   0.656   1.882  11.015 -1.1750  2.0715  2.5838
  610MOL0     H82286   0.709   1.700  11.037 -1.0977  0.6518 -0.5019
  610MOL0     H82287   0.606   1.711  11.252 -2.8281  1.5913  2.6215
  610MOL0     H82288   0.521   1.859  11.196 -1.0004 -0.0389 -0.0690
  610MOL0     H82289   0.499   1.592  11.045  0.8513  2.0895 -1.0530
  610MOL0     H82290   0.414   1.632  11.194 -4.6427  1.6979 -0.2141
  610MOL0     H82291   0.319   1.835  11.067 -2.6897  0.2019 -2.4791
  610MOL0     H82292   0.423   1.800  10.935  0.6362  1.1955  1.1651
  610MOL0     H82293   0.206   1.715  10.892  1.3056 -0.5129 -1.6895
  610MOL0     H82294   0.306   1.574  10.913  2.9069 -0.1203  2.5125
  610MOL0     H82295   0.242   1.509  11.129 -0.1143  0.7051  1.4081
  610MOL0     H82296   0.154   1.656  11.161  1.7940  1.3549  0.0756
  610MOL0     H82297   0.072   1.491  10.923  0.7241  0.8392 -1.1715
  610MOL0     H82298   0.018   1.445  11.084  0.0980  0.4031  0.1214
  610MOL0     H82299  -0.112   1.628  10.906  0.8044  0.0403  0.2669
  610MOL0     H82300  -0.020   1.739  11.004  0.9104  0.0610 -0.8530
  610MOL0     H82301  -0.056   1.585  11.286  0.9591  0.2319  0.4514
  610MOL0     H82302  -0.242   1.467  11.452  2.9357  2.6471  3.3990
  610MOL0     H82303  -0.236   1.623  11.486 -0.8187 -2.5437  2.7615
  610MOL0     H82304  -0.459   1.441  11.455 -0.1346 -0.1185  0.5036
  610MOL0     H82305  -0.507   1.607  11.409  1.3428 -0.1685 -1.5513
  610MOL0     H82306  -0.435   1.657  11.663  3.4512  0.3209 -2.5499
  610MOL0     H82307  -0.381   1.501  11.676 -0.3086 -0.0717  0.3020
  610MOL0     H82308  -0.613   1.513  11.769 -0.3226 -0.0453  0.0864
  610MOL0     H82309  -0.615   1.413  11.627 -1.1212  0.4468  0.4610
  610MOL0     H82310  -0.831   1.801  11.528 -2.0566  0.2953 -1.5060
  610MOL0     H82311  -1.028   1.928  11.520 -1.3423  0.3536 -0.3402
  610MOL0     H82312  -1.136   1.811  11.438 -1.5578 -3.0924  0.9015
  610MOL0     H82313  -1.175   1.896  11.591  0.1738  0.3564  0.0662
  610MOL0     H82314  -1.362   1.418  12.000  0.2742  1.5326  0.7351
  610MOL0     H82315  -1.571   1.303  12.043 -0.5034 -2.4364 -1.0702
  610MOL0     H82316  -1.736   1.127  11.952  0.5217  0.3809 -0.9074
  610MOL0     H82317  -1.789   1.252  12.065 -3.1381 -0.2735  0.7634
  610MOL0     H82318  -2.016   1.233  11.961  0.5270  1.3502 -0.3217
  610MOL0     H82319  -1.962   1.108  11.852 -0.9309  0.2073 -0.2110
  610MOL0     H82320  -1.975   1.109  12.152  0.6869  0.6588 -0.4182
  610MOL0     H82321  -1.880   0.986  12.067 -1.0311 -1.0000  0.7932
  610MOL0     H82322  -2.138   0.938  12.108  0.1799  0.1592  0.0950
  610MOL0     H82323  -2.162   1.053  11.981  3.0671  2.4713 -1.5471
  610MOL0     H82324  -2.013   0.885  11.830 -1.8023  0.3300 -1.5198
  610MOL0     H82325  -2.173   0.842  11.898 -0.6591  0.2127  0.4521
  610MOL0     H82326  -2.026   0.749  12.100 -1.0718 -1.4887 -0.5460
  610MOL0     H82327  -2.055   0.658  11.950  0.4766  0.4049 -0.8776
  610MOL0     H82328  -1.808   0.822  11.924  2.9119 -0.5963 -0.5428
  610MOL0     H82329  -1.829   0.653  11.893 -1.3386 -0.8574  1.2261
  610MOL0     H82330  -1.831   0.609  12.143 -0.6805  1.8016  0.1987
  610MOL0     H82331  -1.772   0.768  12.152  3.6960  0.5989 -1.1964
  610MOL0     H82332  -1.718   1.428  11.668 -0.9440 -0.4374  1.8077
  610MOL0     H82333  -1.493   1.515  11.602  1.0872  2.1865  1.1817
  610MOL0     H82334  -1.043   1.449  11.797 -1.3319 -0.4593 -2.1789
  610MOL0     H82335  -0.817   1.437  11.759 -1.0998  0.6544  1.1899
  610MOL0     H82336   0.870   1.964  10.942  1.9121  2.2007 -1.2051
  610MOL0     H82337   1.103   1.951  10.849 -2.1770 -1.2189 -0.7586
  610MOL0     H82338   1.500   2.062  11.030  0.6765  1.5224  1.8869
  610MOL0     H82339   1.716   2.137  11.011  0.5055 -0.3396  1.9204
  610MOL0     H82340   1.900   2.143  10.839 -0.7046  0.8346 -0.9635
  610MOL0     H82341   1.943   2.185  11.010 -0.7517  0.4746 -0.8152
  610MOL0     H82342   2.179   2.142  10.930  1.1212 -0.4334 -0.6923
  610MOL0     H82343   2.103   2.228  10.809  1.8596 -2.3702 -3.5382
  610MOL0     H82344   2.063   2.037  10.673  0.0173  0.1702 -0.6330
  610MOL0     H82345   2.106   1.918  10.804  1.4299 -0.5630 -0.3498
  610MOL0     H82346   2.340   1.995  10.789  2.2346 -1.7749 -2.1332
  610MOL0     H82347   2.292   2.113  10.664  0.4187  0.5683  3.1223
  610MOL0     H82348   2.365   1.756  10.445 -2.3146 -2.5447  0.9195
  610MOL0     H82349   1.875   1.745  10.969 -0.6126  0.0080 -3.1193
  610MOL0     H82350   1.647   1.651  11.011 -1.9631  0.0557 -0.6588
  611MOL0     O82351   8.738   0.827   4.952  0.1107 -0.4685 -0.7107
  611MOL0     C82352   8.787   0.915   4.892  0.4481  0.0388 -0.0746
  611MOL0     O82353   8.716   1.005   4.804 -0.1267 -0.2042 -0.6044
  611MOL0     C82354   8.578   1.000   4.799  0.4737  0.1060  0.0872
  611MOL0     C82355   8.514   0.887   4.754 -0.1086  0.1052 -0.5401
  611MOL0     C82356   8.372   0.882   4.760 -0.5795 -0.1202 -0.0643
  611MOL0     C82357   8.299   0.995   4.799  0.1587  0.2719 -0.1005
  611MOL0     O82358   8.166   1.008   4.786  0.0591  0.1604 -0.5178
  611MOL0     C82359   8.091   0.882   4.789 -0.5375  0.2916 -0.3211
  611MOL0     C82360   7.940   0.894   4.815  0.3882 -0.7076 -0.2184
  611MOL0     C82361   7.860   0.950   4.689  0.6233  0.1331  0.6987
  611MOL0     C82362   7.743   1.031   4.722  0.0474  0.8821 -0.9251
  611MOL0     C82363   7.609   0.951   4.762  0.3835  0.2866 -0.3102
  611MOL0     C82364   7.611   0.891   4.906 -0.3247 -0.6589  0.1776
  611MOL0     C82365   7.473   0.837   4.947  0.1174 -0.0401 -0.0016
  611MOL0     C82366   7.456   0.791   5.089 -0.3460 -0.4276  0.3276
  611MOL0     N82367   7.334   0.729   5.137 -0.1335  0.2331 -0.2872
  611MOL0     C82368   7.224   0.797   5.154  0.6079 -0.0059  0.1826
  611MOL0     C82369   7.121   0.708   5.165 -0.8828  0.5389  0.3439
  611MOL0     C82370   6.977   0.759   5.159 -0.4289 -0.8395  0.4260
  611MOL0     C82371   6.875   0.656   5.107  0.8613 -0.3462 -0.9357
  611MOL0     C82372   6.747   0.673   5.183 -0.3904  0.3298  0.4941
  611MOL0     C82373   6.654   0.762   5.104  1.0654 -0.8686  0.1958
  611MOL0     O82374   6.527   0.767   5.166  0.3033 -0.2406  0.1126
  611MOL0     C82375   6.433   0.841   5.106 -0.3967 -0.5113 -1.0874
  611MOL0     C82376   6.450   0.899   4.976  0.4495 -0.5751  0.5447
  611MOL0     C82377   6.343   0.964   4.918 -0.3185 -0.5078 -0.3321
  611MOL0     C82378   6.379   1.025   4.788  0.0678  0.3727 -0.2141
  611MOL0     C82379   6.214   0.971   4.983 -0.2055 -0.4402  0.3014
  611MOL0     C82380   6.090   1.019   4.920 -0.3239 -0.1904 -0.7887
  611MOL0     O82381   5.976   1.008   4.997  0.4108 -0.0156 -0.1391
  611MOL0     C82382   5.847   1.025   4.937 -0.5888 -0.0412  0.4062
  611MOL0     C82383   5.753   0.948   4.995  0.4261 -0.4632  0.9307
  611MOL0     C82384   5.628   0.932   4.936 -0.3571  0.5636 -0.1348
  611MOL0     C82385   5.581   1.012   4.834 -0.9187 -0.1857 -0.2078
  611MOL0     O82386   5.448   1.007   4.806 -0.3061  0.3752 -0.0255
  611MOL0     C82387   5.419   1.040   4.665 -0.1545 -0.3979 -0.4858
  611MOL0     C82388   5.280   0.996   4.622 -0.2171 -0.5728  0.4956
  611MOL0     C82389   5.162   1.064   4.689  0.6252  0.6990 -0.0644
  611MOL0     C82390   5.023   1.004   4.661 -0.0539 -0.2319  0.2500
  611MOL0     C82391   4.919   1.069   4.739 -0.7607  0.0863 -0.5435
  611MOL0     C82392   4.797   0.976   4.761  0.0504 -0.3404  0.0386
  611MOL0     C82393   4.689   1.046   4.846 -0.8711 -1.0338 -0.0140
  611MOL0     C82394   4.566   0.965   4.887  0.6129  0.2951  0.1454
  611MOL0    Cl82395   4.449   1.036   5.008 -0.0126  0.4000  0.2923
  611MOL0     C82396   5.681   1.090   4.768  0.3690 -0.9019  0.2568
  611MOL0     C82397   5.818   1.096   4.818 -0.3181  0.3139 -0.6975
  611MOL0     O82398   6.091   1.057   4.802  0.8402 -0.1125 -0.2268
  611MOL0     C82399   6.207   0.921   5.107  1.1767  0.5733 -0.4924
  611MOL0     C82400   6.310   0.857   5.175 -0.2130 -0.0881  0.0265
  611MOL0     N82401   7.177   0.579   5.177  0.1470 -0.4516  0.0300
  611MOL0     N82402   7.309   0.598   5.160 -0.4645  0.6101 -0.0179
  611MOL0     C82403   8.362   1.111   4.841 -0.9018 -0.4258 -0.1241
  611MOL0     C82404   8.502   1.106   4.857  0.1148 -0.4065  0.9929
  611MOL0     C82405   8.935   0.947   4.919  0.2986 -0.3585 -0.5258
  611MOL0     C82406   8.980   1.074   4.886 -0.5499 -0.6323  0.0562
  611MOL0     C82407   9.115   1.109   4.923 -0.0597  0.6177 -0.7144
  611MOL0     C82408   9.201   1.021   4.985 -0.5525 -0.2551  0.9052
  611MOL0     O82409   9.330   1.051   5.023  0.2961  0.2830  0.0274
  611MOL0     C82410   9.385   1.179   4.981  0.2493 -0.0120  0.7394
  611MOL0     C82411   9.535   1.198   5.030 -0.1634 -0.5429  0.0316
  611MOL0     C82412   9.590   1.321   4.956 -0.0132  0.3326  0.3667
  611MOL0     C82413   9.721   1.376   5.017 -0.5548 -0.1767 -0.1511
  611MOL0     C82414   9.790   1.464   4.916 -0.2943  0.8176  0.2069
  611MOL0     C82415   9.841   1.546   4.841 -0.7052  0.1257  0.4237
  611MOL0     C82416   9.161   0.891   5.005  0.6996  0.4157 -0.3181
  611MOL0     C82417   9.021   0.861   4.987 -0.2873 -0.5734 -0.4883
  611MOL0     H82418   8.569   0.799   4.723 -0.9600 -0.7589  0.3189
  611MOL0     H82419   8.332   0.793   4.712 -1.0837 -0.7833  1.5383
  611MOL0     H82420   8.102   0.826   4.695 -1.7622  0.4364 -0.5748
  611MOL0     H82421   8.121   0.813   4.868 -3.1772 -0.3435  0.2304
  611MOL0     H82422   7.906   0.794   4.845  0.6077 -0.9557 -0.7728
  611MOL0     H82423   7.923   0.959   4.901 -0.1812 -0.3833 -0.5690
  611MOL0     H82424   7.920   1.025   4.637 -3.8462  2.8692 -1.1111
  611MOL0     H82425   7.837   0.860   4.631  1.6238 -1.7908  3.0926
  611MOL0     H82426   7.768   1.107   4.796  1.5064 -1.1857  0.7961
  611MOL0     H82427   7.720   1.083   4.628  0.6623 -0.8713 -2.1206
  611MOL0     H82428   7.525   1.021   4.753  1.1253  0.9498 -3.1013
  611MOL0     H82429   7.591   0.870   4.691 -0.6255  0.2336 -0.0118
  611MOL0     H82430   7.690   0.815   4.913  0.8771  0.6775  2.7631
  611MOL0     H82431   7.633   0.974   4.974  0.2321 -1.1479  0.6121
  611MOL0     H82432   7.395   0.909   4.923  0.2236 -0.6265 -2.3690
  611MOL0     H82433   7.450   0.746   4.891 -0.6064 -0.4531  0.9454
  611MOL0     H82434   7.480   0.877   5.153 -0.7587  1.0394 -1.3911
  611MOL0     H82435   7.535   0.718   5.109  0.6210  0.9761  1.9155
  611MOL0     H82436   7.196   0.901   5.143 -1.4523 -0.4632  0.5273
  611MOL0     H82437   6.959   0.784   5.263 -0.4391  0.8995  0.0304
  611MOL0     H82438   6.977   0.851   5.099 -1.6091 -1.3585 -0.4225
  611MOL0     H82439   6.913   0.555   5.125 -0.4647 -0.6977  0.0868
  611MOL0     H82440   6.856   0.666   5.000  0.4458  1.4735 -0.7236
  611MOL0     H82441   6.759   0.703   5.287  1.0301 -0.3012  0.5402
  611MOL0     H82442   6.706   0.572   5.183 -0.6119  0.3349 -2.1865
  611MOL0     H82443   6.649   0.715   5.005  2.7404  0.9350 -0.8088
  611MOL0     H82444   6.694   0.863   5.097  0.9453 -0.4161  3.9812
  611MOL0     H82445   6.545   0.896   4.924  0.1859  0.2599 -0.0187
  611MOL0     H82446   6.338   1.126   4.779  1.4637  1.3024  2.5389
  611MOL0     H82447   6.487   1.026   4.767 -0.2371  0.9393 -1.9351
  611MOL0     H82448   6.341   0.959   4.710 -1.3040 -1.0504  1.5899
  611MOL0     H82449   5.780   0.898   5.088 -0.7892  1.1887  2.2339
  611MOL0     H82450   5.554   0.867   4.982 -1.0738  0.5063 -1.3032
  611MOL0     H82451   5.416   1.149   4.653  3.3789 -0.3352 -2.1987
  611MOL0     H82452   5.494   1.003   4.595 -0.0135  0.0095 -0.5520
  611MOL0     H82453   5.274   1.016   4.514  0.9287 -1.4765  0.2440
  611MOL0     H82454   5.270   0.888   4.635 -0.7587 -0.3642  1.9025
  611MOL0     H82455   5.156   1.169   4.659  2.5838  0.1975 -2.4612
  611MOL0     H82456   5.176   1.048   4.797 -0.3046 -0.2568 -0.0768
  611MOL0     H82457   4.992   1.007   4.556 -1.8736 -0.1439  0.7672
  611MOL0     H82458   5.030   0.902   4.699  1.9613 -0.3960 -0.4416
  611MOL0     H82459   4.900   1.159   4.682  2.5604 -0.0794 -2.1848
  611MOL0     H82460   4.954   1.101   4.838 -1.4780 -0.3016 -0.1558
  611MOL0     H82461   4.751   0.954   4.664 -0.8597 -0.5415  0.5036
  611MOL0     H82462   4.825   0.894   4.828 -0.0966  2.7550  4.2614
  611MOL0     H82463   4.644   1.121   4.780 -0.5034  0.1328  1.0405
  611MOL0     H82464   4.737   1.094   4.931 -0.0666 -0.4638 -0.7763
  611MOL0     H82465   4.594   0.866   4.925 -0.5284 -1.5897 -3.4117
  611MOL0     H82466   4.512   0.933   4.797  1.4189  0.4468 -0.4021
  611MOL0     H82467   5.655   1.150   4.681 -1.5570 -2.4552 -0.3111
  611MOL0     H82468   5.891   1.164   4.776  1.2983 -0.8493  0.1441
  611MOL0     H82469   6.112   0.911   5.159  0.9998 -2.6735 -1.2344
  611MOL0     H82470   6.291   0.815   5.273  3.0965  2.3243  1.8775
  611MOL0     H82471   8.310   1.198   4.879  1.5516  0.2350  2.0142
  611MOL0     H82472   8.558   1.193   4.890  2.2370  0.1999 -3.3779
  611MOL0     H82473   8.922   1.132   4.814  0.0935 -0.2427 -0.1537
  611MOL0     H82474   9.151   1.204   4.884 -3.1040  1.7130 -1.1917
  611MOL0     H82475   9.372   1.196   4.874 -1.0837  3.5804  1.3088
  611MOL0     H82476   9.328   1.260   5.027  0.5334  0.3699  0.4213
  611MOL0     H82477   9.599   1.111   5.016  1.1753 -0.1410  2.9063
  611MOL0     H82478   9.535   1.219   5.138  0.4913  3.4258 -0.5518
  611MOL0     H82479   9.512   1.397   4.956 -0.0729  0.2960 -1.4467
  611MOL0     H82480   9.615   1.301   4.852  3.9138  1.4114  0.9073
  611MOL0     H82481   9.786   1.291   5.035 -0.0539  0.1647 -0.3206
  611MOL0     H82482   9.695   1.425   5.112  0.8271  1.0552 -0.3821
  611MOL0     H82483   9.877   1.623   4.776 -1.1543  1.2377  1.4497
  611MOL0     H82484   9.228   0.823   5.057 -0.9954 -0.8746  0.2610
  611MOL0     H82485   8.983   0.767   5.024  2.5565 -1.5877  0.0925
  612MOL0     O82486   0.637   7.445   4.451  0.6543  0.4021  0.4097
  612MOL0     C82487   0.642   7.484   4.567  0.1151 -0.2082 -0.3464
  612MOL0     O82488   0.554   7.575   4.625 -0.0244 -0.6007 -0.2066
  612MOL0     C82489   0.437   7.592   4.561 -0.0944 -0.1747  0.7584
  612MOL0     C82490   0.329   7.530   4.616  0.0718 -0.3737  0.1786
  612MOL0     C82491   0.203   7.547   4.572 -0.5529 -0.1863 -0.9191
  612MOL0     C82492   0.179   7.629   4.463 -0.7712 -0.3038  0.1904
  612MOL0     O82493   0.050   7.670   4.438 -0.5679 -0.4182  0.0740
  612MOL0     C82494   0.013   7.764   4.334  0.7289 -0.0417  0.4540
  612MOL0     C82495  -0.140   7.782   4.348 -0.5324  0.4404 -0.2847
  612MOL0     C82496  -0.180   7.839   4.479 -0.4571 -0.2629 -1.0011
  612MOL0     C82497  -0.334   7.854   4.497 -0.4568 -0.2779  0.5526
  612MOL0     C82498  -0.369   7.915   4.633  0.1628  0.0430  0.6539
  612MOL0     C82499  -0.515   7.951   4.632 -0.4810 -0.0866 -0.4855
  612MOL0     C82500  -0.577   8.026   4.751 -0.2805  0.0970  0.2758
  612MOL0     C82501  -0.738   8.028   4.737 -0.3239 -0.4505  1.0770
  612MOL0     N82502  -0.800   8.123   4.642  0.1907 -0.1021 -0.0308
  612MOL0     C82503  -0.858   8.241   4.681 -0.8820  0.1967 -0.4878
  612MOL0     C82504  -0.895   8.302   4.571  0.3067 -0.3732  0.5008
  612MOL0     C82505  -0.975   8.432   4.569  0.3214  0.1827 -0.0642
  612MOL0     C82506  -1.117   8.416   4.501 -0.2966 -0.7918 -1.3871
  612MOL0     C82507  -1.226   8.386   4.612  0.3792  0.2544 -0.9733
  612MOL0     C82508  -1.369   8.418   4.555 -0.1373  0.2020 -0.2208
  612MOL0     O82509  -1.440   8.504   4.643 -0.4565 -0.1712 -0.0447
  612MOL0     C82510  -1.550   8.560   4.588  0.6118  0.3974 -0.5075
  612MOL0     C82511  -1.580   8.676   4.650  0.3326 -1.0430 -0.0633
  612MOL0     C82512  -1.690   8.754   4.612 -0.1247 -0.5853  1.0196
  612MOL0     C82513  -1.701   8.892   4.680 -0.5834  0.4098 -0.8894
  612MOL0     C82514  -1.768   8.711   4.495  0.7661 -0.0759  0.1011
  612MOL0     C82515  -1.890   8.778   4.448 -0.3989  0.7245  1.0677
  612MOL0     O82516  -1.946   8.723   4.329  0.3869 -0.1178  0.4214
  612MOL0     C82517  -2.063   8.768   4.268 -0.1648 -0.0390  0.2522
  612MOL0     C82518  -2.115   8.900   4.275  0.4731  1.1390 -0.6791
  612MOL0     C82519  -2.239   8.929   4.214 -0.2785  0.5638 -0.8909
  612MOL0     C82520  -2.315   8.839   4.146  0.0815  1.0289 -0.1220
  612MOL0     O82521  -2.446   8.873   4.115  0.3501  0.0827 -0.0803
  612MOL0     C82522  -2.489   8.828   3.986  0.0515 -0.6930 -0.6651
  612MOL0     C82523  -2.644   8.833   3.984 -0.2817  0.1614 -0.3001
  612MOL0     C82524  -2.704   8.777   3.863 -0.1727  0.1204  0.9069
  612MOL0     C82525  -2.848   8.729   3.881  0.3527  0.2787 -0.0174
  612MOL0     C82526  -2.936   8.780   3.768  0.4484 -0.2674 -0.1573
  612MOL0     C82527  -3.087   8.722   3.780  1.0548 -0.6112  0.7805
  612MOL0     C82528  -3.189   8.812   3.711 -0.5663  0.1698 -0.5846
  612MOL0     C82529  -3.282   8.724   3.644 -0.5764  0.3739  0.0463
  612MOL0    Cl82530  -3.205   8.673   3.494 -0.1528 -0.6375 -0.3549
  612MOL0     C82531  -2.260   8.705   4.137 -0.7536 -0.6879  0.3744
  612MOL0     C82532  -2.134   8.672   4.193  0.1112 -1.6170  0.4928
  612MOL0     O82533  -1.937   8.871   4.506  0.3115  0.8384 -0.1800
  612MOL0     C82534  -1.736   8.584   4.440  1.1901  0.2129  0.0039
  612MOL0     C82535  -1.629   8.508   4.475 -0.4518 -0.4400 -0.3778
  612MOL0     N82536  -0.860   8.219   4.465  0.1228  0.5731 -0.1900
  612MOL0     N82537  -0.790   8.121   4.510  0.2542 -0.1037  0.1358
  612MOL0     C82538   0.292   7.698   4.406 -0.1447  0.3763  0.7021
  612MOL0     C82539   0.426   7.674   4.451 -0.0322  0.3981 -1.1049
  612MOL0     C82540   0.750   7.419   4.659  0.4059  0.2608  1.1256
  612MOL0     C82541   0.861   7.351   4.611  0.8951  0.1565  0.1284
  612MOL0     C82542   0.952   7.292   4.687  0.8209 -0.1785 -0.2598
  612MOL0     C82543   0.940   7.302   4.833  0.4922  0.1562 -0.5172
  612MOL0     O82544   1.039   7.234   4.905  0.2585 -0.2503  0.2777
  612MOL0     C82545   1.040   7.255   5.044 -0.5667  0.4187 -0.8056
  612MOL0     C82546   1.181   7.202   5.090  0.3355 -0.6295 -0.3610
  612MOL0     C82547   1.279   7.311   5.134 -0.2133  1.0439 -0.5040
  612MOL0     C82548   1.405   7.230   5.184  0.3245 -0.3217 -0.3488
  612MOL0     C82549   1.481   7.318   5.279  0.5152 -0.2058  0.5046
  612MOL0     C82550   1.531   7.400   5.356 -0.2699  0.8056 -0.1125
  612MOL0     C82551   0.840   7.386   4.883  0.0321  1.0933 -1.0933
  612MOL0     C82552   0.742   7.441   4.798  0.4042 -0.5270  0.3988
  612MOL0     H82553   0.345   7.465   4.702 -1.8417  1.6862  2.1995
  612MOL0     H82554   0.119   7.503   4.625  0.7897  0.1197  1.6024
  612MOL0     H82555   0.056   7.863   4.353  2.1747 -0.6134  0.2262
  612MOL0     H82556   0.029   7.730   4.232 -0.3807  0.0187  0.2414
  612MOL0     H82557  -0.180   7.850   4.272 -1.0432 -0.2544 -0.6503
  612MOL0     H82558  -0.180   7.681   4.336  3.2882 -1.1294 -1.1698
  612MOL0     H82559  -0.158   7.762   4.554  0.0845  0.3071 -0.5672
  612MOL0     H82560  -0.127   7.932   4.499  1.9192 -1.6807 -0.2478
  612MOL0     H82561  -0.380   7.902   4.411  1.2226 -1.2251 -0.9399
  612MOL0     H82562  -0.377   7.754   4.509  0.1705 -0.3548  2.5127
  612MOL0     H82563  -0.366   7.849   4.720 -2.7926  0.0271  0.8379
  612MOL0     H82564  -0.309   8.006   4.643  0.6312 -0.1416 -0.3438
  612MOL0     H82565  -0.536   8.014   4.545 -0.3902 -1.9265 -1.9061
  612MOL0     H82566  -0.573   7.860   4.618 -2.4415  1.1318 -0.5678
  612MOL0     H82567  -0.551   7.974   4.843 -1.0965 -0.7978  0.0166
  612MOL0     H82568  -0.540   8.128   4.761  0.3928  0.4411 -3.9031
  612MOL0     H82569  -0.791   8.027   4.833 -1.2647 -1.6045  0.5800
  612MOL0     H82570  -0.765   7.927   4.703  1.3801 -0.9617  1.1629
  612MOL0     H82571  -0.857   8.267   4.786  0.7928 -0.8592 -0.2061
  612MOL0     H82572  -0.988   8.467   4.672  1.0783  2.8833 -0.8125
  612MOL0     H82573  -0.922   8.510   4.514  1.4476 -0.0626  0.6504
  612MOL0     H82574  -1.112   8.335   4.428  0.7710 -1.4719 -0.5824
  612MOL0     H82575  -1.148   8.507   4.448 -1.5920 -0.1244  0.4193
  612MOL0     H82576  -1.208   8.465   4.687 -2.0618 -1.4237  1.5763
  612MOL0     H82577  -1.215   8.286   4.655  1.9898  0.8516  0.1160
  612MOL0     H82578  -1.420   8.321   4.557 -1.0403  0.6674  2.6652
  612MOL0     H82579  -1.362   8.462   4.455  0.6017 -2.3010 -1.3626
  612MOL0     H82580  -1.505   8.703   4.724 -0.0694 -1.5701  0.5351
  612MOL0     H82581  -1.622   8.909   4.755  0.5406 -5.8234 -0.1493
  612MOL0     H82582  -1.701   8.972   4.605 -2.7945 -1.3962 -2.9599
  612MOL0     H82583  -1.794   8.908   4.735  0.7307  2.3146  0.9496
  612MOL0     H82584  -2.056   8.972   4.331 -0.0266  1.0179  0.0222
  612MOL0     H82585  -2.293   9.021   4.233 -0.6459 -0.1843  2.2327
  612MOL0     H82586  -2.455   8.895   3.906 -0.7512  1.4566  0.6880
  612MOL0     H82587  -2.463   8.725   3.963 -0.9333 -1.0254 -0.3266
  612MOL0     H82588  -2.678   8.782   4.074  1.9611  0.7098  0.9130
  612MOL0     H82589  -2.666   8.940   3.994 -1.9563  0.0548 -2.2217
  612MOL0     H82590  -2.655   8.681   3.843  0.2720  0.6295 -0.5632
  612MOL0     H82591  -2.685   8.832   3.770 -0.3923 -3.4153 -1.3952
  612MOL0     H82592  -2.846   8.621   3.899  0.5045 -0.1817 -2.5129
  612MOL0     H82593  -2.878   8.766   3.980  0.0763 -0.6160  0.2457
  612MOL0     H82594  -2.894   8.739   3.675  1.3203 -1.6017  0.7834
  612MOL0     H82595  -2.941   8.888   3.785 -0.2645 -0.5038  1.2597
  612MOL0     H82596  -3.075   8.625   3.731 -0.0541 -0.5587  0.3794
  612MOL0     H82597  -3.113   8.705   3.885 -0.6710 -3.4889 -0.0036
  612MOL0     H82598  -3.133   8.875   3.641 -1.0468  0.9120 -0.3194
  612MOL0     H82599  -3.236   8.879   3.784 -0.9355  0.9098 -1.4862
  612MOL0     H82600  -3.383   8.764   3.629 -0.6448  0.3370  0.3980
  612MOL0     H82601  -3.297   8.639   3.711 -0.6673 -0.0093 -0.4483
  612MOL0     H82602  -2.319   8.626   4.091 -1.0368  0.8885 -2.1958
  612MOL0     H82603  -2.110   8.567   4.181  1.8417 -0.9543 -2.9823
  612MOL0     H82604  -1.795   8.546   4.357 -0.4707  0.9913  0.7695
  612MOL0     H82605  -1.594   8.414   4.432  1.7810  1.2751 -2.5497
  612MOL0     H82606   0.271   7.769   4.327 -1.0703  0.3577  0.9214
  612MOL0     H82607   0.519   7.718   4.417  0.1736  0.9173  0.0714
  612MOL0     H82608   0.872   7.342   4.503  1.4540  0.0441  0.1897
  612MOL0     H82609   1.026   7.222   4.650 -0.0190 -0.7283 -0.9610
  612MOL0     H82610   1.040   7.359   5.078  1.0792 -0.3780  1.9462
  612MOL0     H82611   0.957   7.198   5.088 -0.4258  0.4913 -0.4420
  612MOL0     H82612   1.221   7.136   5.013  1.6023  0.2081 -0.4461
  612MOL0     H82613   1.159   7.153   5.185  0.7502  0.5255  0.3487
  612MOL0     H82614   1.240   7.374   5.214 -1.1525  2.2183 -1.8345
  612MOL0     H82615   1.308   7.370   5.047  0.9133 -0.4026 -1.1578
  612MOL0     H82616   1.475   7.205   5.104  2.6833  2.2004  0.7424
  612MOL0     H82617   1.384   7.137   5.237  1.0947 -0.3985 -0.1706
  612MOL0     H82618   1.577   7.471   5.423 -0.1161  0.8094 -0.2205
  612MOL0     H82619   0.842   7.401   4.990  2.3744 -2.0787 -0.5260
  612MOL0     H82620   0.671   7.510   4.843  0.6100 -0.3136  0.3988
  613MOL0     O82621   8.597   1.135   7.017 -0.1094  0.3980 -1.0156
  613MOL0     C82622   8.662   1.087   6.925  0.3271  0.7857 -0.5648
  613MOL0     O82623   8.620   1.077   6.792  0.5092 -0.6800 -0.6401
  613MOL0     C82624   8.481   1.088   6.771 -0.6394 -0.3456  0.6365
  613MOL0     C82625   8.394   1.021   6.848 -0.2000  1.0536  0.4608
  613MOL0     C82626   8.257   1.038   6.835  0.5923 -0.2978 -0.1397
  613MOL0     C82627   8.202   1.123   6.736  0.6417 -0.2470 -0.3923
  613MOL0     O82628   8.074   1.153   6.713  0.0643  0.6304 -0.2892
  613MOL0     C82629   7.975   1.125   6.816 -0.4709 -0.0667  0.3115
  613MOL0     C82630   7.858   1.195   6.766  1.0949 -0.0492  0.1077
  613MOL0     C82631   7.749   1.209   6.869 -0.5864  0.4369 -0.3680
  613MOL0     C82632   7.607   1.205   6.807  0.3278  0.2760  0.1362
  613MOL0     C82633   7.508   1.255   6.911  0.3889 -0.8815  0.2054
  613MOL0     C82634   7.363   1.208   6.888 -0.1452  0.5198 -0.5146
  613MOL0     C82635   7.266   1.280   6.989  0.7998  0.6177  0.5456
  613MOL0     C82636   7.132   1.222   6.955 -0.0205  0.5386  0.0323
  613MOL0     N82637   7.024   1.296   7.030 -0.5751  0.6397  0.4565
  613MOL0     C82638   7.004   1.425   7.012  0.1836 -0.1260  0.0929
  613MOL0     C82639   6.896   1.441   7.093 -0.1996 -0.6732 -0.3133
  613MOL0     C82640   6.814   1.568   7.097 -0.0304 -0.4351 -0.5886
  613MOL0     C82641   6.715   1.568   7.213  0.0984  0.1196 -0.3139
  613MOL0     C82642   6.640   1.708   7.236 -0.1201 -0.4774  0.0551
  613MOL0     C82643   6.501   1.700   7.312  0.4778  0.9181 -0.8945
  613MOL0     O82644   6.455   1.839   7.331  0.0456  0.5944 -0.3959
  613MOL0     C82645   6.316   1.849   7.337 -0.4376 -1.0333 -1.1955
  613MOL0     C82646   6.240   1.734   7.367 -0.8887 -0.2584  0.1233
  613MOL0     C82647   6.101   1.735   7.364 -0.2025 -0.2193 -0.2341
  613MOL0     C82648   6.038   1.604   7.397  0.4175  0.6981  0.3172
  613MOL0     C82649   6.030   1.863   7.335 -0.3478  0.0901 -0.3143
  613MOL0     C82650   5.879   1.873   7.324 -0.6220 -0.1064  1.3063
  613MOL0     O82651   5.821   1.996   7.328 -1.0509 -0.0051  0.2669
  613MOL0     C82652   5.686   1.999   7.348  0.3144 -0.0440  0.5296
  613MOL0     C82653   5.617   2.105   7.296 -0.3960  0.1631 -0.5720
  613MOL0     C82654   5.475   2.112   7.297 -0.0288 -0.2451  0.1747
  613MOL0     C82655   5.407   2.010   7.360  0.6658 -0.3452  0.0968
  613MOL0     O82656   5.270   2.031   7.368 -0.3911 -0.5057 -0.4357
  613MOL0     C82657   5.214   2.009   7.498  0.0788  0.2762 -0.0400
  613MOL0     C82658   5.066   2.062   7.522 -0.7938  0.8055  0.0781
  613MOL0     C82659   4.971   1.981   7.429  0.6347  0.0488 -0.1981
  613MOL0     C82660   4.845   2.059   7.427  0.2997  0.0674 -0.0467
  613MOL0     C82661   4.742   2.003   7.327 -0.3855  0.8433 -0.4304
  613MOL0     C82662   4.666   1.886   7.396  0.4430  0.5316 -0.5197
  613MOL0     C82663   4.584   1.807   7.292 -0.2158  0.7944  0.0719
  613MOL0     C82664   4.435   1.833   7.320  0.3656  0.0504 -0.0620
  613MOL0    Cl82665   4.337   1.722   7.215  0.0158 -0.5829 -0.3356
  613MOL0     C82666   5.475   1.904   7.421  0.9338 -0.5141 -0.1098
  613MOL0     C82667   5.611   1.903   7.419  0.1155 -0.8508 -0.3099
  613MOL0     O82668   5.827   1.770   7.279  0.1862 -0.0708  0.0131
  613MOL0     C82669   6.112   1.982   7.314 -0.1523 -0.2852 -0.6368
  613MOL0     C82670   6.249   1.974   7.313  0.5427  0.3909 -0.8191
  613MOL0     N82671   6.854   1.333   7.167  0.7085  0.2452 -0.0879
  613MOL0     N82672   6.931   1.242   7.118 -0.9309  0.0203  0.4689
  613MOL0     C82673   8.292   1.191   6.657  0.2292 -0.4547 -0.3717
  613MOL0     C82674   8.428   1.169   6.667  0.2349 -0.0135 -0.2694
  613MOL0     C82675   8.808   1.060   6.951 -0.4583  0.0427  0.0843
  613MOL0     C82676   8.887   1.012   6.843  0.4127  0.3156 -0.5218
  613MOL0     C82677   9.021   0.970   6.869 -0.2363 -0.0676 -1.0318
  613MOL0     C82678   9.079   0.988   6.996 -0.7400 -0.1046  0.3459
  613MOL0     O82679   9.212   0.959   7.006 -0.2068 -0.1498  0.0805
  613MOL0     C82680   9.268   0.923   7.137  0.4364 -0.6918 -1.0095
  613MOL0     C82681   9.397   0.840   7.110 -0.4699  0.2447  0.6069
  613MOL0     C82682   9.509   0.916   7.049 -0.8155 -0.7586  0.2916
  613MOL0     C82683   9.601   0.992   7.154 -0.5083 -1.2407  0.6596
  613MOL0     C82684   9.723   1.048   7.099 -0.2419 -0.2633 -0.5918
  613MOL0     C82685   9.831   1.076   7.054  0.0466 -0.0508  0.4304
  613MOL0     C82686   9.004   1.032   7.106  0.6151 -0.4620 -0.3258
  613MOL0     C82687   8.862   1.057   7.086 -0.6715  0.2500 -0.2604
  613MOL0     H82688   8.431   0.939   6.908  0.8781  0.9835 -0.2656
  613MOL0     H82689   8.192   0.985   6.903  0.2423  0.6894  0.3240
  613MOL0     H82690   7.960   1.017   6.818 -0.4839 -0.0945 -0.8021
  613MOL0     H82691   8.012   1.165   6.911 -1.0238  0.7003  0.2140
  613MOL0     H82692   7.894   1.291   6.728  1.6560 -0.8117 -1.3996
  613MOL0     H82693   7.826   1.143   6.675  1.1968 -1.0825  0.6495
  613MOL0     H82694   7.762   1.127   6.941  0.1719  0.9949  0.1553
  613MOL0     H82695   7.762   1.300   6.928 -1.9570 -0.0460  0.7538
  613MOL0     H82696   7.605   1.257   6.711  0.2015 -0.5488 -0.3151
  613MOL0     H82697   7.578   1.105   6.774 -2.0659  0.2431  2.0328
  613MOL0     H82698   7.561   1.228   7.002  2.7364  1.0701 -0.4563
  613MOL0     H82699   7.506   1.364   6.918  0.6166 -0.7943 -0.8309
  613MOL0     H82700   7.332   1.226   6.784  1.0692  2.3638 -0.5855
  613MOL0     H82701   7.358   1.100   6.907  1.4896  0.1209 -2.0928
  613MOL0     H82702   7.303   1.245   7.086  0.3218  1.3274  0.9934
  613MOL0     H82703   7.279   1.387   6.968  0.6910  0.2957 -1.3860
  613MOL0     H82704   7.136   1.123   7.000  1.7158  1.2224  1.5257
  613MOL0     H82705   7.110   1.220   6.848 -1.0442  0.9560  0.2249
  613MOL0     H82706   7.058   1.494   6.947  0.4024 -1.7038 -1.4658
  613MOL0     H82707   6.882   1.653   7.107 -0.3732 -0.3978  2.1492
  613MOL0     H82708   6.750   1.575   7.009 -0.2344  0.9728 -0.3475
  613MOL0     H82709   6.767   1.543   7.306 -1.9188  1.9933  1.4625
  613MOL0     H82710   6.641   1.488   7.203  2.0609 -1.6283 -1.2873
  613MOL0     H82711   6.623   1.762   7.142 -1.1174  1.4875  1.3053
  613MOL0     H82712   6.704   1.773   7.295  2.0657 -0.9646 -1.6649
  613MOL0     H82713   6.515   1.656   7.411  1.3035  1.2875 -0.8382
  613MOL0     H82714   6.437   1.645   7.243 -0.8012  1.5370 -0.2442
  613MOL0     H82715   6.292   1.643   7.396 -0.8501 -0.1282  0.4700
  613MOL0     H82716   5.936   1.630   7.428  0.1090 -0.8041  0.6105
  613MOL0     H82717   6.035   1.539   7.310  1.2245  3.1548 -1.6633
  613MOL0     H82718   6.078   1.547   7.481 -1.9536  0.3468  1.2872
  613MOL0     H82719   5.673   2.184   7.247 -1.0822 -0.0026 -1.6514
  613MOL0     H82720   5.427   2.197   7.251 -0.1774  1.6365  3.4748
  613MOL0     H82721   5.211   1.900   7.505 -2.2867  0.3395  0.8193
  613MOL0     H82722   5.275   2.056   7.576 -0.6253  0.3690  0.4668
  613MOL0     H82723   5.041   2.053   7.628  0.4912 -0.7895  0.2790
  613MOL0     H82724   5.065   2.165   7.485  1.7131  0.3430 -1.5240
  613MOL0     H82725   4.965   1.874   7.452 -0.9588  0.4507  1.5490
  613MOL0     H82726   5.009   1.986   7.327 -1.0878  0.8729 -0.8478
  613MOL0     H82727   4.799   2.086   7.523 -1.0814  1.8874 -1.1429
  613MOL0     H82728   4.865   2.156   7.380  2.3548 -1.4814 -2.6432
  613MOL0     H82729   4.800   1.951   7.250 -1.0104 -2.7999  1.3341
  613MOL0     H82730   4.684   2.085   7.284  0.0482  1.8546  0.8271
  613MOL0     H82731   4.740   1.811   7.428 -0.3877 -0.1202 -0.0686
  613MOL0     H82732   4.617   1.919   7.489  0.1953 -1.1724  0.0027
  613MOL0     H82733   4.614   1.703   7.311  3.4036  1.5912 -0.4780
  613MOL0     H82734   4.601   1.842   7.190  1.2433  0.2323  0.0958
  613MOL0     H82735   4.410   1.933   7.282 -1.3405 -0.6576 -0.9364
  613MOL0     H82736   4.412   1.827   7.426  0.1215  2.8817  0.1399
  613MOL0     H82737   5.418   1.830   7.476 -2.7316  0.8855 -1.7219
  613MOL0     H82738   5.656   1.830   7.486  0.4935 -1.4120 -1.1623
  613MOL0     H82739   6.063   2.074   7.284 -2.5597 -0.7448  1.5546
  613MOL0     H82740   6.309   2.064   7.300 -1.8394  2.5897  1.9763
  613MOL0     H82741   8.265   1.259   6.577 -2.1089  0.4208  1.0720
  613MOL0     H82742   8.491   1.217   6.593 -2.0422 -2.1309 -3.9126
  613MOL0     H82743   8.838   1.004   6.746 -1.6726 -2.5226  0.6204
  613MOL0     H82744   9.083   0.934   6.787 -0.3235  3.0367 -2.5880
  613MOL0     H82745   9.303   1.014   7.187 -2.8911  0.0652  0.1738
  613MOL0     H82746   9.201   0.864   7.200  1.3843  0.4088  1.1616
  613MOL0     H82747   9.374   0.756   7.043  3.0387 -0.0251 -0.4488
  613MOL0     H82748   9.438   0.793   7.200  3.0806  0.7107 -0.5950
  613MOL0     H82749   9.472   0.980   6.968 -1.7456 -1.0051  0.5038
  613MOL0     H82750   9.574   0.836   7.014  0.3120 -1.8204  4.2978
  613MOL0     H82751   9.635   0.923   7.233 -1.3664 -2.4823 -0.0137
  613MOL0     H82752   9.540   1.069   7.202 -0.1185 -2.1426  2.7204
  613MOL0     H82753   9.931   1.096   7.020  0.5379 -1.1091  1.1858
  613MOL0     H82754   9.047   1.043   7.205  3.4375  2.9777 -1.7169
  613MOL0     H82755   8.802   1.089   7.171 -0.4851 -1.0706  0.4121
  614MOL0     O82756   3.686   8.418   2.619 -0.0372 -0.6656  0.0224
  614MOL0     C82757   3.734   8.304   2.634 -0.3246 -0.0118  0.7578
  614MOL0     O82758   3.697   8.215   2.733  0.3657  0.0895  0.2854
  614MOL0     C82759   3.585   8.222   2.813  0.2285  0.0611  0.7074
  614MOL0     C82760   3.469   8.292   2.775 -0.4046 -0.5815  0.7897
  614MOL0     C82761   3.353   8.285   2.850  0.2367 -0.6189 -0.1234
  614MOL0     C82762   3.345   8.218   2.975 -0.7893 -0.3875 -0.7395
  614MOL0     O82763   3.222   8.215   3.041 -1.2592  0.6750 -0.2331
  614MOL0     C82764   3.217   8.156   3.175 -0.6807  0.2676  0.2656
  614MOL0     C82765   3.081   8.190   3.226  0.4636  0.0586 -0.6689
  614MOL0     C82766   3.060   8.153   3.380 -0.0237 -0.5953  0.4060
  614MOL0     C82767   2.913   8.121   3.410 -0.0518 -0.1659  0.4375
  614MOL0     C82768   2.897   8.094   3.563  0.2703  0.8605 -0.4038
  614MOL0     C82769   2.768   8.036   3.610 -0.0606  0.1498 -0.4946
  614MOL0     C82770   2.742   7.896   3.548 -0.4477 -0.1157  0.4004
  614MOL0     C82771   2.627   7.825   3.614  0.4815 -0.0407 -0.2342
  614MOL0     N82772   2.601   7.699   3.548 -0.4906 -0.1085 -0.8158
  614MOL0     C82773   2.600   7.678   3.408 -0.6337 -0.1540  1.0166
  614MOL0     C82774   2.574   7.545   3.394  0.2560 -0.4496  0.0354
  614MOL0     C82775   2.560   7.481   3.262  0.1393  0.7163  0.4414
  614MOL0     C82776   2.425   7.407   3.238 -0.5949  0.5920  0.5057
  614MOL0     C82777   2.440   7.322   3.107  0.4297 -0.5464 -0.9215
  614MOL0     C82778   2.301   7.295   3.053  0.4482  0.2323  0.3782
  614MOL0     O82779   2.246   7.410   2.989 -0.1157 -0.0859  0.0695
  614MOL0     C82780   2.107   7.427   2.987 -0.1066  0.0859  0.2023
  614MOL0     C82781   2.022   7.328   2.934  0.7239 -0.2599 -0.0674
  614MOL0     C82782   1.880   7.332   2.938  0.2759  0.2980  0.1445
  614MOL0     C82783   1.814   7.206   2.885 -0.7444 -0.0274 -0.2817
  614MOL0     C82784   1.823   7.451   2.980  0.2236  0.4335 -0.2961
  614MOL0     C82785   1.674   7.471   2.976  0.0709  0.3490  0.5274
  614MOL0     O82786   1.630   7.585   3.037  0.2738  0.2195 -0.0865
  614MOL0     C82787   1.495   7.622   3.022 -1.2047  1.0038  0.2533
  614MOL0     C82788   1.415   7.638   3.138 -0.3038  0.0463 -0.1582
  614MOL0     C82789   1.285   7.674   3.127  1.0849  0.2541 -0.0226
  614MOL0     C82790   1.227   7.706   3.002  0.3815 -0.4731  1.0319
  614MOL0     O82791   1.087   7.730   2.981 -0.1101 -0.2570  0.2897
  614MOL0     C82792   1.058   7.865   2.975 -0.7025  0.4638 -0.5550
  614MOL0     C82793   0.967   7.911   3.089 -0.0597  0.2326  0.4326
  614MOL0     C82794   0.866   7.803   3.139  0.4956  0.5113 -0.0562
  614MOL0     C82795   0.786   7.843   3.266  0.0857  0.7872  0.1162
  614MOL0     C82796   0.644   7.872   3.235  0.6515  0.2629  0.2970
  614MOL0     C82797   0.617   7.990   3.148  0.0527 -0.2913 -0.6422
  614MOL0     C82798   0.612   8.126   3.222 -0.3631  0.5811 -0.3264
  614MOL0     C82799   0.577   8.244   3.129  0.0345 -0.4984  0.1376
  614MOL0    Cl82800   0.400   8.239   3.095  0.1230 -0.0606  0.0952
  614MOL0     C82801   1.309   7.692   2.889  0.0786  0.2231  0.7299
  614MOL0     C82802   1.437   7.646   2.899 -0.5179  0.1159  0.2785
  614MOL0     O82803   1.602   7.386   2.920 -0.1989 -0.2631  0.2974
  614MOL0     C82804   1.902   7.550   3.034  0.2739 -0.6138  0.1795
  614MOL0     C82805   2.044   7.537   3.042 -0.1569 -0.4428  0.3126
  614MOL0     N82806   2.556   7.493   3.525 -0.7590 -0.4699  0.0782
  614MOL0     N82807   2.579   7.587   3.616 -0.0747  0.1294  0.1096
  614MOL0     C82808   3.467   8.165   3.020  0.9603 -0.1722 -0.7583
  614MOL0     C82809   3.581   8.161   2.944 -0.9302 -0.4836  1.3334
  614MOL0     C82810   3.841   8.258   2.531 -0.3839  0.4557 -0.0331
  614MOL0     C82811   3.906   8.132   2.531  0.9715 -0.3692  0.7388
  614MOL0     C82812   4.009   8.098   2.439  0.2361  0.8992 -0.0406
  614MOL0     C82813   4.043   8.178   2.336  0.4481 -0.9099 -0.2518
  614MOL0     O82814   4.138   8.137   2.241  0.0289 -0.0770 -0.9920
  614MOL0     C82815   4.180   8.230   2.140 -0.0593  0.7029 -0.0888
  614MOL0     C82816   4.299   8.161   2.077 -0.2731  0.0061  0.3294
  614MOL0     C82817   4.371   8.247   1.973 -0.1993  0.0035 -0.7616
  614MOL0     C82818   4.401   8.176   1.848 -0.0060 -0.7595 -0.4652
  614MOL0     C82819   4.486   8.264   1.772 -0.3784  0.0311  0.4648
  614MOL0     C82820   4.540   8.339   1.691 -0.1139 -0.3499  0.6633
  614MOL0     C82821   3.968   8.295   2.319  1.1309  0.4766 -0.1148
  614MOL0     C82822   3.872   8.331   2.416  0.4469 -0.6924  0.0838
  614MOL0     H82823   3.458   8.311   2.669  1.8600  0.5848  0.6959
  614MOL0     H82824   3.259   8.332   2.823 -0.3119 -0.6139  1.6529
  614MOL0     H82825   3.229   8.048   3.168  0.4914  0.4597 -1.1782
  614MOL0     H82826   3.282   8.217   3.239  0.4186  0.8137 -1.3158
  614MOL0     H82827   3.070   8.295   3.199  3.0798  0.1371 -1.7736
  614MOL0     H82828   3.014   8.130   3.164  0.7392  0.7830 -1.6910
  614MOL0     H82829   3.116   8.061   3.402 -0.0769 -0.9281 -0.7944
  614MOL0     H82830   3.090   8.234   3.447 -0.5317 -0.7173  0.7869
  614MOL0     H82831   2.863   8.211   3.374 -1.3672 -0.7690  0.7017
  614MOL0     H82832   2.891   8.032   3.351  2.9418 -0.0858 -1.0336
  614MOL0     H82833   2.979   8.025   3.584  0.2161  0.1390 -2.4185
  614MOL0     H82834   2.903   8.187   3.621 -2.1177  0.9777 -0.2415
  614MOL0     H82835   2.762   8.016   3.717 -1.6421  0.1430 -0.5645
  614MOL0     H82836   2.685   8.104   3.588  0.8706  1.9333  1.1304
  614MOL0     H82837   2.725   7.897   3.440  1.5495 -2.2054 -0.0043
  614MOL0     H82838   2.832   7.836   3.566 -0.8980 -0.9470 -0.0899
  614MOL0     H82839   2.544   7.895   3.599 -1.8336 -2.9683 -2.6604
  614MOL0     H82840   2.646   7.817   3.721  2.7937 -1.0367 -0.6635
  614MOL0     H82841   2.615   7.748   3.326  2.4065  1.1997  2.5830
  614MOL0     H82842   2.572   7.558   3.186 -1.0226  1.1720  0.6958
  614MOL0     H82843   2.645   7.415   3.243  0.7270 -0.0410  4.6658
  614MOL0     H82844   2.346   7.483   3.236  0.8537  2.3933  3.6229
  614MOL0     H82845   2.417   7.337   3.322 -1.0901 -0.9827 -0.8149
  614MOL0     H82846   2.505   7.236   3.125  2.5230  0.9787 -0.9688
  614MOL0     H82847   2.487   7.371   3.022 -0.6786  1.0977 -0.6362
  614MOL0     H82848   2.226   7.262   3.126 -2.1378  2.7941 -0.9321
  614MOL0     H82849   2.300   7.225   2.969 -0.1422  0.9903 -0.2609
  614MOL0     H82850   2.058   7.236   2.889 -1.0034 -0.2163 -1.6257
  614MOL0     H82851   1.754   7.223   2.795  0.5140 -3.4914 -1.9358
  614MOL0     H82852   1.895   7.137   2.859  1.1564  0.5986  3.3460
  614MOL0     H82853   1.758   7.164   2.969 -3.0846 -2.2081 -2.7635
  614MOL0     H82854   1.442   7.615   3.240  0.1075  3.0285  0.4860
  614MOL0     H82855   1.226   7.686   3.217  0.6579  0.0735 -0.2704
  614MOL0     H82856   1.148   7.927   2.978 -0.3564 -0.0550  0.9088
  614MOL0     H82857   1.009   7.881   2.878 -2.6493 -3.0082 -0.3135
  614MOL0     H82858   1.042   7.925   3.168  0.5500 -3.1563  0.6238
  614MOL0     H82859   0.911   8.003   3.069 -0.9905 -0.6510 -1.2525
  614MOL0     H82860   0.923   7.715   3.171 -0.7332 -0.4001 -0.2865
  614MOL0     H82861   0.800   7.767   3.060 -0.0243  0.6087  0.3242
  614MOL0     H82862   0.794   7.759   3.336  1.7076  2.2770  1.8165
  614MOL0     H82863   0.828   7.928   3.320  1.7716  0.0055  0.1073
  614MOL0     H82864   0.579   7.867   3.323 -0.4108 -0.9898 -0.5169
  614MOL0     H82865   0.614   7.794   3.165  0.0612  0.7455  0.0008
  614MOL0     H82866   0.692   7.999   3.069 -1.3458  3.5840 -1.7481
  614MOL0     H82867   0.523   7.968   3.096 -1.2806  0.0157  1.5173
  614MOL0     H82868   0.711   8.147   3.263  0.4066 -0.0478 -1.7843
  614MOL0     H82869   0.543   8.125   3.306  0.3904 -0.0667  0.3013
  614MOL0     H82870   0.623   8.233   3.030 -2.9643  2.0596 -1.7525
  614MOL0     H82871   0.604   8.338   3.178 -0.7876  0.6159 -1.4287
  614MOL0     H82872   1.276   7.729   2.792  0.8384  0.2250  0.4712
  614MOL0     H82873   1.503   7.636   2.813 -0.6895  1.1564  0.0076
  614MOL0     H82874   1.855   7.638   3.076 -0.1091 -1.3517  1.3361
  614MOL0     H82875   2.112   7.613   3.078 -0.7803 -0.5072  1.6821
  614MOL0     H82876   3.473   8.104   3.110  1.1899 -0.4054 -0.9304
  614MOL0     H82877   3.668   8.102   2.972 -0.7016 -0.0407  1.5529
  614MOL0     H82878   3.870   8.055   2.599 -0.1463 -0.4243  0.1034
  614MOL0     H82879   4.052   7.999   2.454  0.0315  0.4265 -2.1663
  614MOL0     H82880   4.089   8.249   2.083 -1.5070  3.1184  2.7535
  614MOL0     H82881   4.216   8.327   2.176  1.0763  0.2404  0.0623
  614MOL0     H82882   4.257   8.070   2.032 -1.6856 -0.7854  3.0429
  614MOL0     H82883   4.365   8.120   2.154 -0.9958 -1.6475  0.1176
  614MOL0     H82884   4.470   8.267   2.015 -1.3307  1.9358  1.2477
  614MOL0     H82885   4.329   8.346   1.952 -2.5546 -0.6580  0.4888
  614MOL0     H82886   4.303   8.156   1.804 -1.3627 -0.6794  2.2925
  614MOL0     H82887   4.455   8.084   1.873  1.7672  0.8943  2.3816
  614MOL0     H82888   4.580   8.405   1.617 -2.6745  0.2049 -0.3410
  614MOL0     H82889   3.985   8.361   2.235  2.5188 -0.4734 -0.6124
  614MOL0     H82890   3.815   8.421   2.394  0.8142 -0.6141 -0.5473
  615MOL0     O82891   2.084   2.799   6.586 -0.2000 -0.1590 -0.8038
  615MOL0     C82892   2.082   2.915   6.637 -0.9295 -0.1182  0.7400
  615MOL0     O82893   1.968   2.990   6.646 -0.5607 -0.7679 -0.5811
  615MOL0     C82894   1.848   2.940   6.607  0.6875  0.4398 -0.8880
  615MOL0     C82895   1.827   2.851   6.494  0.6342  0.1003 -0.1085
  615MOL0     C82896   1.699   2.808   6.464  0.7271  0.2492  0.1003
  615MOL0     C82897   1.583   2.846   6.542 -0.2915 -0.0610  0.4355
  615MOL0     O82898   1.456   2.812   6.495 -0.8027  0.5449 -0.1262
  615MOL0     C82899   1.345   2.835   6.581  0.3875 -1.2277  0.1482
  615MOL0     C82900   1.213   2.820   6.494  0.8143  0.0013 -0.1394
  615MOL0     C82901   1.213   2.933   6.393 -0.6570 -0.4768 -0.3878
  615MOL0     C82902   1.128   2.920   6.264  0.2140  0.1670 -0.3408
  615MOL0     C82903   0.975   2.921   6.294  0.4635 -0.6351 -0.4111
  615MOL0     C82904   0.878   2.873   6.172  0.3053  0.0058 -0.6500
  615MOL0     C82905   0.727   2.878   6.211  0.0415 -0.5536  0.4717
  615MOL0     C82906   0.637   2.819   6.099  0.0061  1.5110  0.3161
  615MOL0     N82907   0.499   2.826   6.137 -0.2595  0.4119 -0.3948
  615MOL0     C82908   0.418   2.933   6.124  0.2674  0.2669  0.2032
  615MOL0     C82909   0.300   2.894   6.177 -0.0120 -0.4861  0.1148
  615MOL0     C82910   0.180   2.970   6.200 -0.3718 -0.4600  0.4318
  615MOL0     C82911   0.093   2.967   6.074  0.1453  0.1091  1.0534
  615MOL0     C82912   0.042   2.829   6.030 -0.1132  0.0806 -0.2335
  615MOL0     C82913  -0.084   2.835   5.961  0.5672 -0.0343  0.2004
  615MOL0     O82914  -0.177   2.919   6.037  0.3190  0.6818  0.7561
  615MOL0     C82915  -0.311   2.917   6.000 -0.1977  0.9664 -0.4687
  615MOL0     C82916  -0.403   2.962   6.092 -0.8732 -1.1355 -0.0940
  615MOL0     C82917  -0.541   2.944   6.075 -0.4591 -0.3954 -0.9319
  615MOL0     C82918  -0.624   2.993   6.193  0.2058 -0.0510  0.3399
  615MOL0     C82919  -0.584   2.889   5.949  0.2169  0.1634 -0.3508
  615MOL0     C82920  -0.733   2.863   5.928 -0.5023  0.1129 -0.5349
  615MOL0     O82921  -0.812   2.847   6.040  0.2464 -0.1275 -0.4336
  615MOL0     C82922  -0.944   2.830   6.001 -0.3348 -0.2254 -0.1020
  615MOL0     C82923  -0.997   2.722   5.925  0.2197 -0.6078  0.0769
  615MOL0     C82924  -1.133   2.723   5.882 -0.6124 -0.2059  0.4368
  615MOL0     C82925  -1.220   2.825   5.923 -0.0797 -0.5547 -0.7392
  615MOL0     O82926  -1.347   2.828   5.874  0.2811  0.6137 -0.4477
  615MOL0     C82927  -1.447   2.918   5.931  0.1050 -0.1567  0.7622
  615MOL0     C82928  -1.583   2.889   5.875 -0.0185 -0.2247  1.1971
  615MOL0     C82929  -1.688   2.989   5.929  0.0339 -0.0236  0.2772
  615MOL0     C82930  -1.821   2.941   5.878  0.3515 -0.1338 -0.2807
  615MOL0     C82931  -1.940   3.039   5.913 -0.1860  0.2161 -0.0076
  615MOL0     C82932  -2.076   2.966   5.920  1.7936 -0.3554 -0.7132
  615MOL0     C82933  -2.192   3.062   5.946  0.2863  0.5974  0.5770
  615MOL0     C82934  -2.230   3.074   6.088 -0.2526  0.7163 -0.8565
  615MOL0    Cl82935  -2.325   3.226   6.108 -0.1663  0.0442 -0.0038
  615MOL0     C82936  -1.171   2.920   6.010 -0.0297  0.3713 -0.8371
  615MOL0     C82937  -1.039   2.925   6.052 -0.8092  0.3572  0.5439
  615MOL0     O82938  -0.772   2.844   5.809  0.1170 -0.4043  0.2023
  615MOL0     C82939  -0.491   2.860   5.845  0.3061  0.3840 -1.0306
  615MOL0     C82940  -0.360   2.869   5.875 -0.0858  0.7378  0.9248
  615MOL0     N82941   0.316   2.763   6.208  0.4229 -0.0985  0.5252
  615MOL0     N82942   0.434   2.719   6.181  0.6666  0.2163  0.3577
  615MOL0     C82943   1.616   2.934   6.655 -0.1916  0.0240 -0.6659
  615MOL0     C82944   1.744   2.976   6.689 -0.4218  0.1777  0.1537
  615MOL0     C82945   2.211   2.982   6.686  0.9547 -0.2039  0.3125
  615MOL0     C82946   2.242   3.107   6.639  0.2146 -0.2699 -0.3601
  615MOL0     C82947   2.356   3.167   6.684  0.2669 -0.6268 -0.8133
  615MOL0     C82948   2.447   3.093   6.762 -0.5438  0.4313 -0.0081
  615MOL0     O82949   2.571   3.131   6.815 -0.4890  0.4733  0.2041
  615MOL0     C82950   2.622   3.259   6.768  0.0847  0.3251 -0.0359
  615MOL0     C82951   2.761   3.272   6.825 -0.4835  0.1332  0.4371
  615MOL0     C82952   2.881   3.204   6.755  0.0024  0.3198 -0.0152
  615MOL0     C82953   3.015   3.250   6.816  0.3928 -0.5476  0.7040
  615MOL0     C82954   3.130   3.170   6.762 -0.0138 -0.1315  0.4330
  615MOL0     C82955   3.235   3.113   6.729 -0.3258  0.1490 -0.6473
  615MOL0     C82956   2.418   2.958   6.788 -0.3476  0.5400  0.0987
  615MOL0     C82957   2.301   2.903   6.753 -0.4238  0.7034  0.3805
  615MOL0     H82958   1.909   2.831   6.426  0.8818 -1.4667  0.6105
  615MOL0     H82959   1.686   2.753   6.371  1.0138 -0.2362  0.3405
  615MOL0     H82960   1.339   2.763   6.662  0.5386 -3.2626 -1.5736
  615MOL0     H82961   1.354   2.937   6.621  1.8131 -1.3446  0.1792
  615MOL0     H82962   1.219   2.723   6.444  2.2981 -0.2788  0.5259
  615MOL0     H82963   1.126   2.819   6.561  0.1444  0.1322 -0.9843
  615MOL0     H82964   1.168   3.018   6.446 -1.5599  0.6819 -2.8488
  615MOL0     H82965   1.315   2.958   6.361 -1.3874  0.9580 -1.7387
  615MOL0     H82966   1.152   2.988   6.182  0.4939  1.2167  0.5856
  615MOL0     H82967   1.144   2.819   6.225  1.1266  0.0854  0.2294
  615MOL0     H82968   0.953   2.859   6.381 -0.7773  1.8272  1.1687
  615MOL0     H82969   0.943   3.021   6.328 -1.7220 -1.6894  0.8652
  615MOL0     H82970   0.899   2.919   6.075 -2.0242 -2.4894 -2.5080
  615MOL0     H82971   0.897   2.766   6.157  0.4110  0.2440 -2.3985
  615MOL0     H82972   0.702   2.826   6.303 -0.6353 -0.2907  0.4442
  615MOL0     H82973   0.682   2.978   6.214 -1.8749 -1.2751 -1.3703
  615MOL0     H82974   0.663   2.713   6.091 -0.9214  1.3194 -0.2483
  615MOL0     H82975   0.656   2.872   6.005 -2.3019  2.6062  0.3787
  615MOL0     H82976   0.442   3.034   6.095 -0.9472  0.1362 -1.3974
  615MOL0     H82977   0.125   2.920   6.280 -0.8434  1.9484  1.7096
  615MOL0     H82978   0.193   3.072   6.238  0.6936 -0.7212  0.8127
  615MOL0     H82979   0.159   2.997   5.992 -2.4872 -1.1512 -1.7290
  615MOL0     H82980   0.012   3.040   6.085 -0.7677 -0.9988  2.1430
  615MOL0     H82981   0.015   2.767   6.116 -1.6638 -1.1500 -1.5445
  615MOL0     H82982   0.115   2.768   5.976 -2.8791 -0.5040 -3.6865
  615MOL0     H82983  -0.114   2.730   5.951  2.2056 -0.6524  1.3869
  615MOL0     H82984  -0.067   2.890   5.868 -0.1207  2.7105  1.5893
  615MOL0     H82985  -0.361   2.988   6.189 -0.7235 -1.2549 -0.1258
  615MOL0     H82986  -0.709   3.053   6.158  0.2992  0.3184  0.7303
  615MOL0     H82987  -0.666   2.914   6.257  3.3263  0.3749  3.1836
  615MOL0     H82988  -0.568   3.058   6.261  3.2550  1.4600 -3.2724
  615MOL0     H82989  -0.928   2.639   5.907 -0.4969 -1.3150  0.5314
  615MOL0     H82990  -1.182   2.642   5.829 -0.4009 -0.3912  0.5242
  615MOL0     H82991  -1.443   2.899   6.039  0.6496 -0.1276  0.7454
  615MOL0     H82992  -1.421   3.022   5.909  1.6468 -0.5773  0.5174
  615MOL0     H82993  -1.564   2.902   5.769  1.0544 -0.2221  1.3765
  615MOL0     H82994  -1.609   2.783   5.882 -2.5764  0.3932  1.8726
  615MOL0     H82995  -1.669   3.088   5.886  1.4011 -1.3984 -2.4925
  615MOL0     H82996  -1.676   2.998   6.037  1.4093  2.3304 -0.0039
  615MOL0     H82997  -1.809   2.921   5.771  2.1983 -0.9320  0.0498
  615MOL0     H82998  -1.829   2.841   5.920  1.1841  0.0357  0.2953
  615MOL0     H82999  -1.947   3.126   5.847  1.1147 -1.9223 -3.1899
  615MOL0     H83000  -1.927   3.075   6.016 -1.7030  1.8597 -0.3275
  615MOL0     H83001  -2.099   2.913   5.827  0.6072  0.7187 -1.0659
  615MOL0     H83002  -2.065   2.897   6.004 -1.2073 -1.5644 -1.1925
  615MOL0     H83003  -2.287   3.034   5.900  0.9494 -0.1698 -0.3622
  615MOL0     H83004  -2.158   3.161   5.914  1.1619  0.1613  0.1547
  615MOL0     H83005  -2.142   3.075   6.153 -1.7187  2.0523  1.2644
  615MOL0     H83006  -2.297   2.990   6.107  1.3651 -0.0800  1.8420
  615MOL0     H83007  -1.228   3.007   6.042 -2.7416 -1.7606  0.6175
  615MOL0     H83008  -0.994   3.005   6.109 -1.0725  0.2753  0.8690
  615MOL0     H83009  -0.521   2.818   5.750 -0.7191 -1.9390  0.2271
  615MOL0     H83010  -0.288   2.830   5.804 -2.1404  0.6446 -1.2310
  615MOL0     H83011   1.538   2.981   6.715  0.6136 -1.9843  2.2031
  615MOL0     H83012   1.767   3.033   6.778  0.5960 -1.0176  0.6815
  615MOL0     H83013   2.169   3.160   6.578  0.3875  0.0966 -0.2503
  615MOL0     H83014   2.384   3.271   6.671  0.8958 -0.3071  2.2547
  615MOL0     H83015   2.631   3.254   6.660 -0.0790  1.6479 -0.1262
  615MOL0     H83016   2.554   3.342   6.790  0.4103  1.1110 -1.8391
  615MOL0     H83017   2.769   3.243   6.930  3.7016  1.3685  0.6200
  615MOL0     H83018   2.771   3.380   6.842 -1.2411  0.2179  0.4008
  615MOL0     H83019   2.887   3.214   6.646  1.5397  0.7859  0.0883
  615MOL0     H83020   2.873   3.095   6.764  2.4351 -0.0043 -0.9165
  615MOL0     H83021   2.999   3.244   6.924 -2.1967  0.2474  0.4505
  615MOL0     H83022   3.012   3.356   6.787  2.5089 -0.4933  0.5794
  615MOL0     H83023   3.325   3.068   6.692 -1.9893 -1.9694 -2.3732
  615MOL0     H83024   2.491   2.907   6.851  0.0229  1.4047  0.3771
  615MOL0     H83025   2.293   2.795   6.765  2.1552  0.5813  1.5935
  616MOL0     O83026   5.234   6.832   9.300  0.1510 -0.7059 -0.0252
  616MOL0     C83027   5.222   6.949   9.332 -0.1070 -0.4687  0.6257
  616MOL0     O83028   5.102   7.009   9.368  0.7002  0.4290 -0.3723
  616MOL0     C83029   4.979   6.937   9.353 -0.3173 -0.2475  0.2333
  616MOL0     C83030   4.880   6.983   9.438  0.1385  1.3186  0.5987
  616MOL0     C83031   4.749   6.933   9.450 -0.0831 -0.4908  0.1036
  616MOL0     C83032   4.716   6.813   9.386 -0.6713 -0.1915  0.4749
  616MOL0     O83033   4.585   6.773   9.391 -0.2538  0.0637  0.2122
  616MOL0     C83034   4.561   6.655   9.315  1.3352  0.7389  0.1579
  616MOL0     C83035   4.418   6.600   9.340  0.0816  0.5275 -0.6426
  616MOL0     C83036   4.317   6.700   9.286 -0.6531 -0.4297  0.2898
  616MOL0     C83037   4.170   6.683   9.324  0.8852 -0.6736  0.2186
  616MOL0     C83038   4.083   6.801   9.299  0.2314  0.0309 -0.6619
  616MOL0     C83039   3.935   6.765   9.324  0.1406  0.2702  0.2390
  616MOL0     C83040   3.844   6.897   9.343 -0.5569  0.1621 -0.6382
  616MOL0     C83041   3.700   6.857   9.328  0.2933 -0.0232  0.2616
  616MOL0     N83042   3.601   6.959   9.374 -0.1191  0.3423 -0.0019
  616MOL0     C83043   3.468   6.955   9.341  0.3255  0.2834  0.4270
  616MOL0     C83044   3.404   7.066   9.385  0.2754 -0.7317 -0.3036
  616MOL0     C83045   3.258   7.106   9.370 -0.2193 -1.0034  0.7188
  616MOL0     C83046   3.199   7.057   9.239  0.2403 -0.3948  0.3223
  616MOL0     C83047   3.079   7.154   9.205  0.2730  0.7083 -0.1630
  616MOL0     C83048   2.972   7.095   9.113 -0.1676 -0.2950  0.4790
  616MOL0     O83049   2.881   7.009   9.186 -0.0540  0.5751  0.4560
  616MOL0     C83050   2.763   6.982   9.115 -0.0643  0.0775 -0.2202
  616MOL0     C83051   2.769   6.935   8.985 -0.2120 -1.0533  0.0402
  616MOL0     C83052   2.653   6.906   8.922 -0.4318  0.5365  0.6989
  616MOL0     C83053   2.668   6.824   8.795 -0.2162  0.3085  0.6517
  616MOL0     C83054   2.523   6.927   8.978  0.0226  0.4177 -0.6100
  616MOL0     C83055   2.398   6.901   8.911  0.5847  0.9978  0.3060
  616MOL0     O83056   2.395   6.908   8.776  0.6786  0.1452 -0.3031
  616MOL0     C83057   2.286   6.862   8.714  0.7820  0.2649 -0.3665
  616MOL0     C83058   2.278   6.721   8.678 -0.6681 -0.1047 -0.4117
  616MOL0     C83059   2.176   6.677   8.596  0.2486 -0.7547  0.0086
  616MOL0     C83060   2.074   6.767   8.554 -0.3398  0.5547  0.0460
  616MOL0     O83061   1.975   6.734   8.461 -0.4826 -0.2640  0.0541
  616MOL0     C83062   1.929   6.595   8.451 -0.2400  0.0209 -0.6415
  616MOL0     C83063   1.833   6.590   8.330 -0.8356 -0.1534 -0.2716
  616MOL0     C83064   1.682   6.568   8.367 -0.4308  1.2642  0.3246
  616MOL0     C83065   1.651   6.443   8.452  0.7108  1.5386  0.0802
  616MOL0     C83066   1.498   6.456   8.486 -0.0403 -0.6389 -0.2946
  616MOL0     C83067   1.447   6.337   8.556 -0.1490 -0.3303  0.1258
  616MOL0     C83068   1.305   6.347   8.622 -0.4754  0.9304  0.4243
  616MOL0     C83069   1.303   6.452   8.735 -0.1470  0.1995 -0.1373
  616MOL0    Cl83070   1.423   6.417   8.864  0.2914  0.0233 -0.2883
  616MOL0     C83071   2.067   6.894   8.608 -0.2649 -0.5543 -1.1358
  616MOL0     C83072   2.179   6.951   8.691 -0.2152  0.1046 -0.0544
  616MOL0     O83073   2.308   6.870   8.982 -0.3840  0.2594 -0.4287
  616MOL0     C83074   2.524   6.974   9.112  1.0276 -0.0306 -0.1230
  616MOL0     C83075   2.639   7.007   9.182 -0.8125 -0.7514  0.0889
  616MOL0     N83076   3.497   7.127   9.464  0.3434  0.2683  0.1365
  616MOL0     N83077   3.617   7.067   9.459  0.6500 -0.0073  0.2660
  616MOL0     C83078   4.809   6.758   9.293  0.7802  0.9359  0.8185
  616MOL0     C83079   4.939   6.815   9.287 -0.0649  0.1591 -0.1358
  616MOL0     C83080   5.344   7.039   9.315  0.6134  0.2466  0.4004
  616MOL0     C83081   5.472   6.992   9.291  0.8412  0.4816 -0.2152
  616MOL0     C83082   5.582   7.086   9.284  0.6697 -0.3757 -0.0341
  616MOL0     C83083   5.563   7.219   9.315 -0.8325 -0.2445 -0.3200
  616MOL0     O83084   5.663   7.314   9.341  0.6927  0.1587 -0.6323
  616MOL0     C83085   5.793   7.294   9.281 -0.3440  0.3907  0.4424
  616MOL0     C83086   5.891   7.243   9.400  0.1379  0.7673  0.3609
  616MOL0     C83087   5.883   7.331   9.526  0.4102  0.0930 -0.2810
  616MOL0     C83088   5.996   7.314   9.633  0.0941  0.0770  1.1199
  616MOL0     C83089   6.122   7.352   9.572  0.1604  0.5469  0.6863
  616MOL0     C83090   6.227   7.389   9.514 -0.3022 -1.1416  0.1181
  616MOL0     C83091   5.439   7.264   9.332  0.5426  0.3110  0.3213
  616MOL0     C83092   5.326   7.183   9.325  0.0887  0.0623  0.2780
  616MOL0     H83093   4.894   7.083   9.480 -3.7302  2.7590 -1.0363
  616MOL0     H83094   4.670   6.971   9.513 -0.4470  0.8914 -1.1299
  616MOL0     H83095   4.571   6.669   9.207 -2.6925 -0.2543 -0.5157
  616MOL0     H83096   4.617   6.567   9.347  0.8498 -0.6286 -2.4930
  616MOL0     H83097   4.411   6.505   9.286  0.5084  0.7146 -1.0337
  616MOL0     H83098   4.389   6.579   9.443 -0.2280 -0.2389 -0.8749
  616MOL0     H83099   4.338   6.805   9.310 -2.7596  1.4048 -4.5047
  616MOL0     H83100   4.315   6.687   9.177 -2.9382 -1.3344  0.3923
  616MOL0     H83101   4.137   6.591   9.274  0.9873 -3.0822  4.1483
  616MOL0     H83102   4.153   6.657   9.429 -3.8590  2.6872  0.6104
  616MOL0     H83103   4.114   6.885   9.362  4.0165 -0.6903 -1.3548
  616MOL0     H83104   4.083   6.841   9.197 -0.3761  2.9218  0.3897
  616MOL0     H83105   3.903   6.707   9.238 -0.6792  0.9056  0.1001
  616MOL0     H83106   3.910   6.699   9.408 -0.7170 -1.9944 -1.6728
  616MOL0     H83107   3.857   6.940   9.443 -2.9012 -0.6541  0.0806
  616MOL0     H83108   3.883   6.972   9.273  0.2992  0.1120 -0.2308
  616MOL0     H83109   3.702   6.771   9.397  2.0593 -1.3234 -1.2753
  616MOL0     H83110   3.673   6.825   9.227 -1.1363  2.0277 -0.0609
  616MOL0     H83111   3.429   6.876   9.277 -0.0617  2.3987 -2.1565
  616MOL0     H83112   3.202   7.066   9.455 -0.7988 -2.8246 -0.4594
  616MOL0     H83113   3.257   7.215   9.367 -1.7620 -1.0170  0.0332
  616MOL0     H83114   3.179   6.950   9.246  0.8829 -0.4492  1.5146
  616MOL0     H83115   3.276   7.072   9.163  0.7754 -0.3683  0.8726
  616MOL0     H83116   3.117   7.242   9.153  0.4511  0.4166 -0.5219
  616MOL0     H83117   3.026   7.178   9.298 -1.7455 -0.1522 -1.0135
  616MOL0     H83118   3.020   7.037   9.034 -0.1028  1.6598 -0.9761
  616MOL0     H83119   2.919   7.174   9.060 -0.6351 -0.9314 -0.0064
  616MOL0     H83120   2.866   6.912   8.942 -1.0311 -1.5615 -1.6230
  616MOL0     H83121   2.603   6.736   8.787  1.4819 -0.9094 -0.3868
  616MOL0     H83122   2.665   6.886   8.706  2.4526  1.6932  1.4132
  616MOL0     H83123   2.766   6.776   8.806 -1.1200 -1.4211  1.6164
  616MOL0     H83124   2.359   6.654   8.705 -1.3422 -0.3861  1.0147
  616MOL0     H83125   2.186   6.579   8.550  1.0837 -1.9712  2.6052
  616MOL0     H83126   2.009   6.523   8.431 -1.9601 -1.4995 -2.4337
  616MOL0     H83127   1.886   6.576   8.550  0.0165  3.0900  0.1678
  616MOL0     H83128   1.858   6.668   8.258 -2.9967  0.8663  0.0214
  616MOL0     H83129   1.860   6.498   8.278  1.8240  0.9295 -0.9461
  616MOL0     H83130   1.622   6.557   8.276  0.4805  2.6754 -0.4868
  616MOL0     H83131   1.650   6.657   8.421 -4.9638  0.3968 -0.5748
  616MOL0     H83132   1.675   6.353   8.395 -1.0721  1.5801 -0.7887
  616MOL0     H83133   1.717   6.438   8.540  1.4352 -0.8904 -0.5133
  616MOL0     H83134   1.435   6.468   8.397  1.1382  1.7578 -0.8935
  616MOL0     H83135   1.479   6.546   8.545  1.7024 -0.8083  0.5738
  616MOL0     H83136   1.439   6.260   8.478  1.9731  1.4938 -2.0345
  616MOL0     H83137   1.513   6.310   8.639  0.0398  0.4342  0.2325
  616MOL0     H83138   1.282   6.252   8.670  2.2728  0.3596  0.8049
  616MOL0     H83139   1.229   6.362   8.545  0.6068 -1.8307 -1.3420
  616MOL0     H83140   1.201   6.464   8.773 -0.6502  2.5644 -1.9689
  616MOL0     H83141   1.327   6.547   8.687 -0.5772  0.0823 -0.5848
  616MOL0     H83142   1.985   6.955   8.573  0.7527  1.8332  0.3298
  616MOL0     H83143   2.177   7.051   8.732 -0.9538 -0.1474  0.5441
  616MOL0     H83144   2.431   6.983   9.168  0.9094  0.1056 -0.3371
  616MOL0     H83145   2.638   7.048   9.283 -0.7901  1.0266 -0.5913
  616MOL0     H83146   4.798   6.663   9.243  1.2655  0.0247  2.3971
  616MOL0     H83147   5.001   6.773   9.209 -0.1592  1.1695 -0.7762
  616MOL0     H83148   5.481   6.884   9.277 -2.1923 -0.0324  1.0148
  616MOL0     H83149   5.670   7.028   9.260 -0.3468 -2.8991  1.9272
  616MOL0     H83150   5.797   7.205   9.217  3.5767  0.6140  0.1921
  616MOL0     H83151   5.823   7.386   9.231 -1.9519  0.3129 -0.7395
  616MOL0     H83152   5.993   7.236   9.360 -0.1577  1.6087 -0.6072
  616MOL0     H83153   5.861   7.143   9.432 -0.6057  1.4081  1.7685
  616MOL0     H83154   5.789   7.302   9.574 -0.8406  2.1159 -1.3368
  616MOL0     H83155   5.861   7.434   9.497 -1.2821  0.0893  0.8380
  616MOL0     H83156   5.995   7.207   9.655 -2.7085 -0.1886  0.1786
  616MOL0     H83157   5.979   7.371   9.724 -0.2661  2.1965 -0.2160
  616MOL0     H83158   6.321   7.421   9.475 -0.3560  0.4717  1.2051
  616MOL0     H83159   5.418   7.367   9.358  0.5853  0.9360 -1.9538
  616MOL0     H83160   5.224   7.218   9.340 -0.7943 -2.9478  2.2941
  617MOL0     O83161   6.232   9.539   5.721 -0.0230 -0.8951  0.2915
  617MOL0     C83162   6.253   9.479   5.613  0.1193  0.1929  0.8793
  617MOL0     O83163   6.188   9.498   5.496 -0.6910 -0.3012 -0.1001
  617MOL0     C83164   6.102   9.605   5.487 -0.2590 -0.5519  0.2397
  617MOL0     C83165   6.112   9.684   5.367  0.3976  0.7089 -0.3630
  617MOL0     C83166   6.022   9.786   5.337 -0.0621 -0.2417 -0.4895
  617MOL0     C83167   5.923   9.813   5.426 -0.7634 -0.1079  0.3089
  617MOL0     O83168   5.839   9.906   5.391  0.3280 -0.5962  0.0650
  617MOL0     C83169   5.713   9.936   5.466 -0.4711  0.0426 -0.1152
  617MOL0     C83170   5.629  10.039   5.390  0.5382  0.8460  0.0128
  617MOL0     C83171   5.518  10.108   5.467 -0.1503  0.4053  0.8163
  617MOL0     C83172   5.453  10.215   5.388  0.0044 -0.3571 -0.1344
  617MOL0     C83173   5.331  10.259   5.461  0.4655 -0.4039 -0.5989
  617MOL0     C83174   5.278  10.390   5.400  0.3531 -0.5321  0.3999
  617MOL0     C83175   5.151  10.442   5.462  0.3998  0.4966  0.6636
  617MOL0     C83176   5.110  10.577   5.404  0.0789 -0.2334  1.1364
  617MOL0     N83177   4.980  10.634   5.444 -0.0817  0.3406 -0.7829
  617MOL0     C83178   4.960  10.758   5.500  0.0301 -1.0055  0.1889
  617MOL0     C83179   4.829  10.751   5.543 -0.4237 -0.4318  0.5140
  617MOL0     C83180   4.758  10.864   5.614  0.3640  0.6346  0.4657
  617MOL0     C83181   4.612  10.894   5.570  0.9524  0.2649 -0.0184
  617MOL0     C83182   4.523  10.777   5.610 -0.7624 -0.4919 -0.2322
  617MOL0     C83183   4.377  10.822   5.601  0.7428  0.2082 -0.1794
  617MOL0     O83184   4.300  10.703   5.644 -0.5444  0.1032 -0.0591
  617MOL0     C83185   4.163  10.701   5.640  0.5799 -0.9074 -0.3201
  617MOL0     C83186   4.082  10.811   5.603  0.9531  0.6794 -0.3074
  617MOL0     C83187   3.944  10.797   5.581  0.3922 -0.0427 -0.1742
  617MOL0     C83188   3.877  10.908   5.503 -0.0018  0.6173 -0.6486
  617MOL0     C83189   3.876  10.679   5.614  0.0876  0.7062 -0.3676
  617MOL0     C83190   3.720  10.653   5.606 -0.4882  0.7353  1.3158
  617MOL0     O83191   3.684  10.526   5.625  0.7142 -0.3230 -0.0400
  617MOL0     C83192   3.578  10.477   5.556 -0.7964  0.4641 -0.1174
  617MOL0     C83193   3.502  10.375   5.615  0.0738  1.0183  0.4430
  617MOL0     C83194   3.390  10.317   5.550  0.3983  0.1316  1.1810
  617MOL0     C83195   3.359  10.352   5.416 -0.0454 -0.2783 -0.5386
  617MOL0     O83196   3.250  10.315   5.347 -0.6229 -0.5477 -0.4762
  617MOL0     C83197   3.129  10.282   5.416 -0.6498  0.8248  0.2288
  617MOL0     C83198   3.034  10.286   5.300 -0.4190  0.2468  0.2017
  617MOL0     C83199   3.044  10.163   5.216  0.1340  0.0765 -0.0079
  617MOL0     C83200   2.916  10.152   5.129 -0.2335  0.1270  0.5306
  617MOL0     C83201   2.940  10.084   4.996  0.7159  0.0183  0.4777
  617MOL0     C83202   2.814  10.025   4.937 -1.1559  0.6044 -0.2983
  617MOL0     C83203   2.840   9.946   4.815  0.2557 -0.1105  0.2377
  617MOL0     C83204   2.717   9.899   4.747 -0.1626 -0.5536  0.9186
  617MOL0    Cl83205   2.624  10.044   4.698  0.0725 -0.1919 -0.0790
  617MOL0     C83206   3.444  10.442   5.353 -0.5047  1.1400 -0.2252
  617MOL0     C83207   3.553  10.496   5.421 -0.3876 -0.5043  0.5331
  617MOL0     O83208   3.644  10.747   5.584 -0.3653  0.1232  0.0101
  617MOL0     C83209   3.958  10.570   5.649 -0.1366 -0.3976  0.9033
  617MOL0     C83210   4.095  10.580   5.661 -0.5970  0.3508 -0.0249
  617MOL0     N83211   4.774  10.629   5.504 -0.5100 -0.0819 -0.5287
  617MOL0     N83212   4.868  10.556   5.456 -0.1662 -0.6118  0.0042
  617MOL0     C83213   5.911   9.739   5.546  0.3718  0.4016 -0.1984
  617MOL0     C83214   5.995   9.634   5.571 -1.1869 -0.9653 -0.5977
  617MOL0     C83215   6.339   9.355   5.631 -0.4632  0.0474  0.5260
  617MOL0     C83216   6.323   9.243   5.547  0.2667  0.0123 -0.5413
  617MOL0     C83217   6.393   9.129   5.562  0.5949 -0.2302 -0.3044
  617MOL0     C83218   6.489   9.114   5.666 -0.8900 -0.1140 -0.0812
  617MOL0     O83219   6.560   9.002   5.696 -0.4463  0.5205 -0.2134
  617MOL0     C83220   6.565   8.887   5.610  0.2726  0.6267 -0.9582
  617MOL0     C83221   6.643   8.907   5.488  1.0340 -0.4476  0.2439
  617MOL0     C83222   6.789   8.925   5.509 -0.4090 -0.4062 -0.6763
  617MOL0     C83223   6.867   8.802   5.558  0.0230  0.7282 -0.6344
  617MOL0     C83224   6.882   8.690   5.464 -0.0321  0.5529 -0.0422
  617MOL0     C83225   6.895   8.601   5.383 -0.1443 -0.7695 -0.4560
  617MOL0     C83226   6.516   9.232   5.739 -0.0868 -0.3934  0.6543
  617MOL0     C83227   6.436   9.345   5.728  0.1133  0.1416 -0.3172
  617MOL0     H83228   6.194   9.652   5.304 -1.3896 -3.5561 -0.9231
  617MOL0     H83229   6.022   9.851   5.250  1.9433 -1.4410 -1.4468
  617MOL0     H83230   5.651   9.850   5.493  0.2723 -0.3101  0.5042
  617MOL0     H83231   5.734   9.990   5.559 -3.4067  1.9456 -0.4474
  617MOL0     H83232   5.698  10.120   5.365  2.1311 -0.3602  0.3126
  617MOL0     H83233   5.591   9.989   5.300 -0.6162  0.1857  0.8458
  617MOL0     H83234   5.453  10.026   5.501 -0.5698  0.9221  1.2885
  617MOL0     H83235   5.566  10.158   5.552  2.3065  1.2680 -0.9940
  617MOL0     H83236   5.523  10.298   5.381 -1.3719  0.7596 -1.1702
  617MOL0     H83237   5.438  10.175   5.287 -0.3944  2.2218 -1.1633
  617MOL0     H83238   5.261  10.176   5.471  0.2635 -0.5014 -2.4243
  617MOL0     H83239   5.362  10.287   5.562 -1.3243  0.6323 -0.2908
  617MOL0     H83240   5.355  10.467   5.410  2.3708 -2.7075  3.2442
  617MOL0     H83241   5.257  10.373   5.294 -2.9156 -0.7237  0.9534
  617MOL0     H83242   5.070  10.370   5.448  0.1521  0.5430  1.7249
  617MOL0     H83243   5.163  10.457   5.570 -3.0108  2.1610  0.9382
  617MOL0     H83244   5.112  10.564   5.296 -0.5647 -1.0353  1.2061
  617MOL0     H83245   5.177  10.657   5.436 -2.8898  3.6532 -1.4484
  617MOL0     H83246   5.028  10.842   5.510 -2.5854  1.2592  0.1102
  617MOL0     H83247   4.756  10.863   5.724 -3.6548 -0.5176  0.5582
  617MOL0     H83248   4.813  10.956   5.591  1.2722  0.0731  0.3608
  617MOL0     H83249   4.600  10.919   5.464  1.2737  0.4397 -0.0169
  617MOL0     H83250   4.581  10.981   5.628 -2.9138 -2.2008  2.0104
  617MOL0     H83251   4.554  10.751   5.712 -2.4199 -0.0024  0.4291
  617MOL0     H83252   4.526  10.687   5.548  1.2957 -2.4356  2.4702
  617MOL0     H83253   4.349  10.851   5.499 -1.2201  0.5303  0.4062
  617MOL0     H83254   4.359  10.908   5.666 -2.7655 -0.4391 -0.0520
  617MOL0     H83255   4.134  10.897   5.561  1.0625  0.2130 -1.1628
  617MOL0     H83256   3.949  10.973   5.452 -0.4659  1.8551  0.2304
  617MOL0     H83257   3.821  10.865   5.420 -1.6903 -0.6417  1.0501
  617MOL0     H83258   3.818  10.962   5.578 -1.4148  0.1021 -1.3525
  617MOL0     H83259   3.525  10.340   5.716 -1.9102 -4.7858 -0.7457
  617MOL0     H83260   3.324  10.242   5.593 -3.1154  1.8296 -0.7313
  617MOL0     H83261   3.135  10.187   5.471 -1.3245  0.7376  0.1633
  617MOL0     H83262   3.104  10.362   5.487 -2.1271  1.2901 -0.7810
  617MOL0     H83263   2.932  10.291   5.339 -0.1708 -1.2758  1.1116
  617MOL0     H83264   3.065  10.375   5.244  2.2153  1.1915  2.8581
  617MOL0     H83265   3.061  10.070   5.272  0.2030  0.2836  0.3135
  617MOL0     H83266   3.127  10.175   5.146 -0.5198 -1.2366 -1.0669
  617MOL0     H83267   2.830  10.115   5.184 -0.9600  1.5960  0.4305
  617MOL0     H83268   2.889  10.255   5.103 -1.4052  0.2271  2.0479
  617MOL0     H83269   3.004   9.995   5.000  0.0098 -0.5379 -0.1818
  617MOL0     H83270   2.983  10.166   4.938 -0.6135  3.0552  3.4441
  617MOL0     H83271   2.757   9.969   5.011 -2.4288  2.1708 -0.0169
  617MOL0     H83272   2.754  10.115   4.916  1.5987  2.7705  0.5644
  617MOL0     H83273   2.898   9.854   4.830  1.0329  0.4540  0.8210
  617MOL0     H83274   2.909  10.008   4.758  0.4160 -0.2467  0.2806
  617MOL0     H83275   2.647   9.837   4.803  0.8658 -1.1977  1.5388
  617MOL0     H83276   2.756   9.846   4.659  0.2369  0.7920  0.2596
  617MOL0     H83277   3.415  10.472   5.253  3.3515 -0.5626 -2.0693
  617MOL0     H83278   3.618  10.560   5.362  0.3030 -0.8397  0.9235
  617MOL0     H83279   3.913  10.473   5.665 -0.1509 -0.4503  0.5527
  617MOL0     H83280   4.149  10.491   5.688 -0.0884  1.0850  1.4966
  617MOL0     H83281   5.833   9.759   5.619 -0.3384  2.0826 -1.3633
  617MOL0     H83282   5.981   9.582   5.666  0.8231 -0.8628 -0.2048
  617MOL0     H83283   6.249   9.233   5.468 -2.9152 -0.2590  2.2648
  617MOL0     H83284   6.357   9.042   5.507  0.4081 -1.3719  1.5157
  617MOL0     H83285   6.609   8.809   5.673  1.3227  1.6280 -0.4085
  617MOL0     H83286   6.459   8.860   5.600  0.6043 -1.4499  0.3867
  617MOL0     H83287   6.600   8.994   5.438 -1.8506 -2.9027 -1.9799
  617MOL0     H83288   6.634   8.822   5.420  1.6059  1.0664 -1.8035
  617MOL0     H83289   6.798   8.997   5.591  0.8191 -0.7858 -0.4513
  617MOL0     H83290   6.832   8.958   5.413  0.9969 -1.4958 -0.4623
  617MOL0     H83291   6.819   8.767   5.650  2.9020  0.3759  0.8506
  617MOL0     H83292   6.970   8.834   5.572 -0.0543  0.8976 -0.4356
  617MOL0     H83293   6.901   8.525   5.309 -0.0806 -2.0383  0.8153
  617MOL0     H83294   6.580   9.244   5.826  4.0297 -2.3355 -1.7762
  617MOL0     H83295   6.473   9.430   5.785 -1.0297  0.3223  0.1888
  618MOL0     O83296   4.294   1.247   2.715  0.0770 -0.0736  0.5065
  618MOL0     C83297   4.323   1.132   2.698 -0.1806  0.5288 -0.3062
  618MOL0     O83298   4.255   1.044   2.620  0.4599 -0.5780  0.0251
  618MOL0     C83299   4.131   1.076   2.578 -0.4640  0.8325 -0.3298
  618MOL0     C83300   4.019   1.032   2.648 -0.7021 -0.6349 -0.7482
  618MOL0     C83301   3.885   1.050   2.591 -1.0145 -0.4093 -0.4177
  618MOL0     C83302   3.871   1.108   2.467 -0.3610 -0.5909 -0.6454
  618MOL0     O83303   3.746   1.127   2.403  0.1323  0.3568 -0.4486
  618MOL0     C83304   3.637   1.049   2.450  0.0725  0.0948  0.2924
  618MOL0     C83305   3.524   1.085   2.359  0.7837 -0.8290  0.2098
  618MOL0     C83306   3.398   1.020   2.408  1.0896 -0.2331 -0.8386
  618MOL0     C83307   3.281   1.052   2.317 -0.4544 -0.1935  0.1247
  618MOL0     C83308   3.166   0.956   2.344 -0.0912  0.4400 -0.6052
  618MOL0     C83309   3.042   1.000   2.261 -0.3759  0.5466 -0.1431
  618MOL0     C83310   2.939   0.888   2.249  0.5232 -0.1721 -0.9507
  618MOL0     C83311   2.965   0.791   2.129  0.5586  0.1696 -0.9224
  618MOL0     N83312   2.842   0.766   2.045 -0.5786  0.1525 -0.1080
  618MOL0     C83313   2.763   0.648   2.038 -0.4174 -0.4053 -0.0003
  618MOL0     C83314   2.657   0.670   1.951 -0.0440 -0.7156  0.1759
  618MOL0     C83315   2.556   0.573   1.899 -0.4989  0.5654 -0.0594
  618MOL0     C83316   2.429   0.568   1.982  0.0670 -0.3088 -0.0868
  618MOL0     C83317   2.438   0.482   2.114  0.3222  0.4316 -0.1327
  618MOL0     C83318   2.312   0.485   2.206 -0.1099  0.1546 -0.3194
  618MOL0     O83319   2.335   0.395   2.321 -0.0455  0.5080 -0.3001
  618MOL0     C83320   2.237   0.348   2.399  0.6276 -0.3169  0.4141
  618MOL0     C83321   2.265   0.261   2.504 -0.3369 -0.1897 -0.3784
  618MOL0     C83322   2.171   0.190   2.583 -0.5112 -0.0288  0.0701
  618MOL0     C83323   2.220   0.114   2.705 -0.4793  0.3587 -0.3258
  618MOL0     C83324   2.031   0.205   2.539 -0.8639 -0.1725  0.0305
  618MOL0     C83325   1.915   0.133   2.604 -0.2033  0.3679 -0.0079
  618MOL0     O83326   1.825   0.206   2.662 -0.1321 -1.0302  0.1435
  618MOL0     C83327   1.707   0.149   2.700 -0.4671 -0.2416  0.1707
  618MOL0     C83328   1.687   0.129   2.840 -0.8101 -0.3534 -0.1323
  618MOL0     C83329   1.563   0.076   2.884 -0.3913 -0.0794  0.4844
  618MOL0     C83330   1.465   0.052   2.789  0.0472  0.1404 -0.3098
  618MOL0     O83331   1.343   0.001   2.833  0.0211  0.3005  0.1311
  618MOL0     C83332   1.228  -0.015   2.741 -0.1021  0.0993 -0.7753
  618MOL0     C83333   1.116  -0.073   2.827  0.5443  0.4775 -0.9763
  618MOL0     C83334   0.986  -0.131   2.748  0.0559  0.3077 -0.6105
  618MOL0     C83335   0.880  -0.181   2.853  0.0223  0.8163  0.2843
  618MOL0     C83336   0.771  -0.277   2.803  0.1605 -0.1843  0.2493
  618MOL0     C83337   0.659  -0.295   2.913  0.5576  0.6258 -0.4341
  618MOL0     C83338   0.538  -0.379   2.854 -0.1888 -0.5721  0.0855
  618MOL0     C83339   0.427  -0.417   2.952  0.2908  0.7584 -0.1558
  618MOL0    Cl83340   0.314  -0.549   2.904 -0.1598 -0.0840  0.1028
  618MOL0     C83341   1.481   0.087   2.653 -0.0408 -1.1720 -0.7967
  618MOL0     C83342   1.602   0.149   2.612  0.4190 -0.0710  1.2646
  618MOL0     O83343   1.910   0.012   2.591  0.5285  0.1057  0.4133
  618MOL0     C83344   2.000   0.280   2.429 -0.2378  0.4733  0.2693
  618MOL0     C83345   2.104   0.344   2.352 -0.2199 -0.3344 -0.0355
  618MOL0     N83346   2.677   0.807   1.906 -0.2945  0.6947 -0.2346
  618MOL0     N83347   2.781   0.856   1.970  0.3485 -0.4700  0.2324
  618MOL0     C83348   3.985   1.147   2.396 -0.0066  0.0353  0.9564
  618MOL0     C83349   4.114   1.127   2.449  0.4692 -0.1101  0.6758
  618MOL0     C83350   4.460   1.095   2.745 -0.1894 -0.3364  0.5484
  618MOL0     C83351   4.517   1.163   2.843  0.0150 -0.5851 -0.2536
  618MOL0     C83352   4.655   1.164   2.859 -0.5793 -0.3487  0.3659
  618MOL0     C83353   4.726   1.075   2.786 -0.1700 -0.3068 -0.1624
  618MOL0     O83354   4.856   1.073   2.817  0.1646 -0.3397  0.0612
  618MOL0     C83355   4.962   0.991   2.757  0.2315  0.1072 -0.3318
  618MOL0     C83356   5.070   1.078   2.696  0.7220 -0.2395  0.5481
  618MOL0     C83357   5.170   0.991   2.625  0.1958 -0.4606 -0.5365
  618MOL0     C83358   5.297   1.055   2.571  0.6438 -0.1396  0.1473
  618MOL0     C83359   5.400   1.045   2.672  0.1297 -0.0415 -0.4871
  618MOL0     C83360   5.486   1.020   2.758  0.1872  0.8518 -0.4092
  618MOL0     C83361   4.668   0.985   2.689 -0.6410  0.0611 -0.6603
  618MOL0     C83362   4.530   1.000   2.670 -0.3547  0.9862 -0.6538
  618MOL0     H83363   4.040   0.989   2.746 -0.2336 -1.0439 -1.0267
  618MOL0     H83364   3.801   1.018   2.652 -1.6795  0.2112 -0.9912
  618MOL0     H83365   3.673   0.949   2.427  1.4167  0.5958  0.1306
  618MOL0     H83366   3.614   1.068   2.555 -1.3176 -0.4821  0.1179
  618MOL0     H83367   3.512   1.193   2.351 -0.5601 -0.8345  1.5975
  618MOL0     H83368   3.550   1.058   2.256  1.2280  1.3242 -0.2948
  618MOL0     H83369   3.423   0.913   2.407 -0.2852 -0.6260 -3.1158
  618MOL0     H83370   3.371   1.051   2.509 -1.6590  2.6853 -2.2783
  618MOL0     H83371   3.240   1.153   2.324  3.0960  1.6440 -2.2966
  618MOL0     H83372   3.319   1.031   2.216  3.2154  0.3773  1.2551
  618MOL0     H83373   3.190   0.852   2.317  2.0557  0.7570 -0.1402
  618MOL0     H83374   3.146   0.959   2.451 -2.2707  1.7115 -1.0079
  618MOL0     H83375   2.997   1.083   2.315 -2.3368 -1.4232  1.4252
  618MOL0     H83376   3.062   1.026   2.157 -0.0604 -0.4996 -0.3525
  618MOL0     H83377   2.936   0.821   2.336 -0.5779  0.2641 -0.6366
  618MOL0     H83378   2.837   0.927   2.250  0.7401  0.4046 -0.2449
  618MOL0     H83379   2.994   0.699   2.180 -1.7968 -0.4363 -0.5465
  618MOL0     H83380   3.051   0.818   2.067  1.9173 -0.9098  0.4110
  618MOL0     H83381   2.785   0.557   2.093 -0.0276 -2.2376 -2.9519
  618MOL0     H83382   2.521   0.607   1.801 -2.4724 -0.3002  0.2961
  618MOL0     H83383   2.596   0.471   1.899 -0.0671  0.6518  3.0353
  618MOL0     H83384   2.344   0.531   1.924  0.5836 -0.9327 -0.4585
  618MOL0     H83385   2.405   0.671   2.008  0.9627 -0.4768  1.5302
  618MOL0     H83386   2.529   0.514   2.165  0.4096 -2.5783  1.8443
  618MOL0     H83387   2.461   0.380   2.081 -1.5720 -0.3904  0.8949
  618MOL0     H83388   2.231   0.453   2.139 -0.6389 -0.1467  0.4527
  618MOL0     H83389   2.294   0.590   2.230  0.3128  0.6524 -2.0437
  618MOL0     H83390   2.369   0.242   2.531 -0.2484 -0.3887 -0.8328
  618MOL0     H83391   2.255   0.019   2.664  1.6158  0.8398  0.2588
  618MOL0     H83392   2.298   0.170   2.756  0.6830  0.7429 -2.4027
  618MOL0     H83393   2.133   0.103   2.771 -0.9345  0.7356 -0.8488
  618MOL0     H83394   1.769   0.133   2.910  0.0978 -0.0003 -1.1870
  618MOL0     H83395   1.543   0.054   2.989 -1.0978  2.3572  0.9215
  618MOL0     H83396   1.197   0.082   2.701 -0.4119  0.5012  0.3887
  618MOL0     H83397   1.238  -0.070   2.647  1.8879 -0.3710 -0.3209
  618MOL0     H83398   1.160  -0.154   2.885  0.4299  0.9061 -0.2870
  618MOL0     H83399   1.092   0.005   2.899  0.6826  0.7150 -1.1822
  618MOL0     H83400   1.021  -0.213   2.685  0.0399  0.3513 -0.6756
  618MOL0     H83401   0.942  -0.050   2.690  0.2917  1.3562  0.6150
  618MOL0     H83402   0.940  -0.235   2.927  1.5970  0.7285 -1.0002
  618MOL0     H83403   0.833  -0.098   2.906 -1.5947 -1.1700  2.1213
  618MOL0     H83404   0.815  -0.370   2.767  2.1812  1.3900 -1.6356
  618MOL0     H83405   0.721  -0.232   2.717  0.2599  0.4724  0.5282
  618MOL0     H83406   0.688  -0.345   3.006  0.9841 -0.9848 -1.3879
  618MOL0     H83407   0.622  -0.196   2.941  1.1249  0.1444  2.2005
  618MOL0     H83408   0.584  -0.467   2.807 -1.2371  0.0075 -2.1231
  618MOL0     H83409   0.482  -0.323   2.779  0.2541 -0.8362 -0.4504
  618MOL0     H83410   0.371  -0.334   2.995 -0.7315 -0.0431  0.0938
  618MOL0     H83411   0.474  -0.469   3.036  1.6012  1.8480 -0.1957
  618MOL0     H83412   1.413   0.063   2.572 -0.6539  0.5329 -0.8132
  618MOL0     H83413   1.603   0.188   2.511 -0.9808 -1.6266  0.6004
  618MOL0     H83414   1.896   0.274   2.398  0.6101 -1.6837 -2.5668
  618MOL0     H83415   2.068   0.398   2.265  1.2094 -0.6751 -0.8765
  618MOL0     H83416   3.976   1.192   2.297 -1.0006  2.4794  2.0763
  618MOL0     H83417   4.211   1.152   2.406 -0.7344 -1.1628 -3.0595
  618MOL0     H83418   4.462   1.236   2.901 -1.0182 -0.1446 -1.7295
  618MOL0     H83419   4.698   1.233   2.932  2.1593  1.4452 -2.7011
  618MOL0     H83420   4.995   0.925   2.838  0.7488 -1.5659 -1.8507
  618MOL0     H83421   4.925   0.934   2.672 -2.1319  3.0702 -1.4715
  618MOL0     H83422   5.116   1.143   2.771 -0.6473  0.5843  0.7120
  618MOL0     H83423   5.030   1.151   2.625  3.9138  1.8230  0.7094
  618MOL0     H83424   5.121   0.957   2.533  0.5483  1.5071 -1.5044
  618MOL0     H83425   5.206   0.909   2.687  1.3143 -1.0691 -1.9400
  618MOL0     H83426   5.289   1.161   2.545  0.7956  0.1985  1.4104
  618MOL0     H83427   5.319   0.996   2.481 -0.8901 -3.3908  1.7553
  618MOL0     H83428   5.551   1.006   2.842  0.8924 -1.7078 -1.2842
  618MOL0     H83429   4.723   0.917   2.625 -0.0283  0.9811 -1.1421
  618MOL0     H83430   4.474   0.947   2.593 -0.2103  1.8976 -1.4133
  619MOL0     O83431  10.318   3.843  10.009 -0.0052  0.0136  0.1451
  619MOL0     C83432  10.396   3.887  10.096 -0.1926 -0.9717  0.5116
  619MOL0     O83433  10.347   3.932  10.215  0.5809 -0.2635 -0.7732
  619MOL0     C83434  10.214   3.939  10.258  0.2218 -0.8520  0.4993
  619MOL0     C83435  10.102   3.950  10.171  0.4858 -0.7761  0.5294
  619MOL0     C83436   9.971   3.961  10.226  0.1103 -0.9550  0.0975
  619MOL0     C83437   9.945   3.966  10.365  0.5353  0.4656  1.0535
  619MOL0     O83438   9.819   3.993  10.406 -0.1433 -0.0762 -1.1932
  619MOL0     C83439   9.732   4.077  10.332  0.3182 -0.1237  1.1004
  619MOL0     C83440   9.620   4.138  10.420  0.8547  0.5729 -0.7409
  619MOL0     C83441   9.558   4.265  10.362 -0.1975  0.0079  0.7489
  619MOL0     C83442   9.464   4.326  10.459 -0.4680 -0.1932 -0.1733
  619MOL0     C83443   9.395   4.457  10.410 -0.2690  0.0977  0.0201
  619MOL0     C83444   9.270   4.496  10.502  0.0477  0.4159  0.6132
  619MOL0     C83445   9.191   4.620  10.435 -0.1183  0.4557  0.3720
  619MOL0     C83446   9.077   4.667  10.524 -0.3542 -0.5243  0.1327
  619MOL0     N83447   9.024   4.789  10.466 -0.0187 -0.4640  0.0244
  619MOL0     C83448   8.891   4.809  10.455  0.1138  0.0491  0.2832
  619MOL0     C83449   8.884   4.927  10.389  0.0634 -1.2397  0.2905
  619MOL0     C83450   8.755   4.997  10.341  0.8732 -0.1771 -0.2469
  619MOL0     C83451   8.622   4.927  10.355  0.2057 -0.0124 -0.9280
  619MOL0     C83452   8.510   5.026  10.330 -0.0136 -0.5265 -0.8834
  619MOL0     C83453   8.370   4.970  10.351 -0.4261  0.5940  0.1569
  619MOL0     O83454   8.282   5.081  10.358  0.4114  0.4873 -0.0911
  619MOL0     C83455   8.143   5.062  10.374 -0.0617  0.3784 -0.3355
  619MOL0     C83456   8.086   4.935  10.360 -0.6637 -0.4776  0.1998
  619MOL0     C83457   7.948   4.923  10.373  0.1431 -0.2220 -0.0382
  619MOL0     C83458   7.900   4.782  10.392  0.3444 -0.5182  1.5175
  619MOL0     C83459   7.865   5.027  10.411 -1.0229  0.8578 -0.8332
  619MOL0     C83460   7.725   5.009  10.443  0.5671 -0.8102  0.0025
  619MOL0     O83461   7.689   4.912  10.538  0.0564  0.1705  0.2204
  619MOL0     C83462   7.556   4.906  10.565  0.2319  0.5141  0.0209
  619MOL0     C83463   7.476   4.802  10.503  1.1250  0.2662 -0.0038
  619MOL0     C83464   7.349   4.787  10.559 -0.6516 -0.3691 -0.3463
  619MOL0     C83465   7.294   4.878  10.650  0.5121 -0.0899 -0.1814
  619MOL0     O83466   7.168   4.870  10.692  0.3445  0.4771 -0.2612
  619MOL0     C83467   7.079   4.768  10.636  0.1661  0.0471 -0.2114
  619MOL0     C83468   6.937   4.773  10.684 -0.6682  1.1996 -0.0961
  619MOL0     C83469   6.855   4.895  10.644 -0.3933  0.0055  0.6572
  619MOL0     C83470   6.743   4.905  10.748 -0.1591  0.2397 -0.1760
  619MOL0     C83471   6.656   5.026  10.701  0.1431  0.6503  0.1402
  619MOL0     C83472   6.723   5.158  10.737 -0.8983 -0.2554 -0.6172
  619MOL0     C83473   6.659   5.287  10.689  0.8240 -0.3191  0.6730
  619MOL0     C83474   6.750   5.403  10.705  0.8552  0.4838 -0.1959
  619MOL0    Cl83475   6.879   5.398  10.581  0.1039 -1.0832  0.2745
  619MOL0     C83476   7.369   4.983  10.698 -0.7043  0.1233 -0.6766
  619MOL0     C83477   7.498   4.997  10.657 -0.2189  0.2844 -0.2727
  619MOL0     O83478   7.646   5.076  10.373  0.3980 -0.1544  0.4904
  619MOL0     C83479   7.924   5.156  10.426 -0.1524  0.1776 -0.4110
  619MOL0     C83480   8.062   5.169  10.401  0.0437 -0.4900 -0.2600
  619MOL0     N83481   9.002   4.979  10.367 -0.6017  0.1436  0.5893
  619MOL0     N83482   9.087   4.887  10.407 -0.4914 -0.1799  1.1721
  619MOL0     C83483  10.060   3.967  10.447  0.1549  0.6190  0.6394
  619MOL0     C83484  10.187   3.938  10.392 -0.3022 -0.4042 -0.6509
  619MOL0     C83485  10.547   3.870  10.085 -0.4057  0.7313 -0.3663
  619MOL0     C83486  10.636   3.923  10.189 -0.1557 -0.4255  0.0588
  619MOL0     C83487  10.767   3.902  10.179 -0.0395  0.1172 -0.2333
  619MOL0     C83488  10.828   3.833  10.078  0.0355 -0.3458  0.1772
  619MOL0     O83489  10.957   3.796  10.084 -0.2315  0.1132  0.3341
  619MOL0     C83490  11.030   3.787  10.210 -1.0797 -0.3245  0.3394
  619MOL0     C83491  10.965   3.713  10.328 -0.5898 -0.4321 -0.6048
  619MOL0     C83492  10.998   3.789  10.454  1.3585 -0.0765  0.1017
  619MOL0     C83493  10.961   3.710  10.584  0.8055 -1.1863  0.3575
  619MOL0     C83494  11.046   3.607  10.638  0.0648 -0.1143 -0.1604
  619MOL0     C83495  11.114   3.520  10.683  0.3469  0.1194  0.6593
  619MOL0     C83496  10.747   3.784   9.972 -0.1964 -0.5743 -0.3991
  619MOL0     C83497  10.607   3.798   9.984  1.0502  0.2880  0.9435
  619MOL0     H83498  10.120   3.957  10.064  2.0793  2.1865  0.8889
  619MOL0     H83499   9.893   3.975  10.152  0.4887  0.5469 -0.0587
  619MOL0     H83500   9.795   4.159  10.294  3.0088 -2.2417  0.6642
  619MOL0     H83501   9.687   4.029  10.245 -1.0415  4.2317 -0.8582
  619MOL0     H83502   9.543   4.063  10.440  0.6066  0.2564 -2.6407
  619MOL0     H83503   9.671   4.170  10.511 -2.6531  2.4202  0.7737
  619MOL0     H83504   9.634   4.339  10.335 -2.6093  4.5758  4.9854
  619MOL0     H83505   9.505   4.238  10.271  0.2311  0.2996  0.4078
  619MOL0     H83506   9.391   4.251  10.489  0.3302 -1.5381 -1.4585
  619MOL0     H83507   9.517   4.370  10.545  0.1894 -0.3321 -0.5035
  619MOL0     H83508   9.475   4.529  10.395  1.5916 -1.5935  1.2953
  619MOL0     H83509   9.359   4.438  10.308  0.3596 -3.1825  0.3003
  619MOL0     H83510   9.202   4.412  10.513 -2.5538  2.2775 -0.2004
  619MOL0     H83511   9.309   4.522  10.601  1.8169  3.1194 -0.6573
  619MOL0     H83512   9.255   4.708  10.426 -0.7839  0.9052 -0.0863
  619MOL0     H83513   9.149   4.580  10.342  2.0754 -2.2542  0.4356
  619MOL0     H83514   9.118   4.688  10.623 -2.3978  0.2648  0.8615
  619MOL0     H83515   8.998   4.592  10.533 -0.3925 -0.7115 -1.4060
  619MOL0     H83516   8.806   4.753  10.492 -0.4337  1.5587  1.4600
  619MOL0     H83517   8.741   5.090  10.395 -0.0452 -1.1681  1.2955
  619MOL0     H83518   8.774   5.022  10.236  1.0916 -2.8360 -0.9231
  619MOL0     H83519   8.617   4.873  10.450 -2.1172 -1.8900 -2.0226
  619MOL0     H83520   8.605   4.849  10.281 -2.6814  1.0645 -1.5280
  619MOL0     H83521   8.510   5.073  10.231 -0.6820  2.7813  0.5492
  619MOL0     H83522   8.532   5.096  10.411 -0.7976 -3.2155  1.8502
  619MOL0     H83523   8.379   4.913  10.444  2.7961  0.7049  0.0469
  619MOL0     H83524   8.336   4.902  10.272 -0.0623  0.1879  0.3397
  619MOL0     H83525   8.137   4.842  10.338 -2.1238 -0.8531 -1.9000
  619MOL0     H83526   7.802   4.770  10.346 -0.4045 -0.2417  2.9722
  619MOL0     H83527   7.972   4.709  10.355 -0.3933 -2.3472  3.4823
  619MOL0     H83528   7.893   4.769  10.501  0.3632  2.0293  1.8934
  619MOL0     H83529   7.514   4.731  10.430  0.7800 -0.1064  0.1757
  619MOL0     H83530   7.287   4.705  10.524  1.6502 -0.5204 -4.8283
  619MOL0     H83531   7.077   4.792  10.529 -0.3573  1.5814  0.1142
  619MOL0     H83532   7.125   4.669  10.648 -0.0231 -0.0673 -0.4053
  619MOL0     H83533   6.885   4.681  10.654 -0.0399  1.2395 -1.3382
  619MOL0     H83534   6.949   4.787  10.792  2.0747  0.6346 -0.2582
  619MOL0     H83535   6.807   4.881  10.547 -1.1363 -1.3687  1.2037
  619MOL0     H83536   6.916   4.986  10.639 -0.9094  0.2821 -2.1640
  619MOL0     H83537   6.687   4.811  10.751  0.1189 -0.0436 -2.3959
  619MOL0     H83538   6.787   4.916  10.848  2.4674  0.6412 -1.2952
  619MOL0     H83539   6.559   5.014  10.750  1.0276 -1.5875  1.4741
  619MOL0     H83540   6.633   5.020  10.594 -2.2354 -2.4295  0.6960
  619MOL0     H83541   6.742   5.157  10.845 -0.2008 -2.8245 -0.6970
  619MOL0     H83542   6.826   5.158  10.699 -0.3274 -0.7768  0.8526
  619MOL0     H83543   6.575   5.308  10.756 -0.2697 -1.4743 -0.3002
  619MOL0     H83544   6.630   5.283  10.584 -0.6978  4.1289  0.7144
  619MOL0     H83545   6.800   5.401  10.802  1.8800  2.0340 -0.6576
  619MOL0     H83546   6.692   5.496  10.701  0.8697  0.4458 -2.1307
  619MOL0     H83547   7.333   5.057  10.768 -1.5156  1.1695 -2.1189
  619MOL0     H83548   7.564   5.069  10.703  1.0538 -1.7227  1.2567
  619MOL0     H83549   7.857   5.236  10.457  1.7157  1.1618  1.2783
  619MOL0     H83550   8.110   5.266  10.406  0.0267 -0.5277  2.7877
  619MOL0     H83551  10.055   3.975  10.555 -0.2805  1.3312  0.5690
  619MOL0     H83552  10.261   3.930  10.472 -0.7754 -3.9482 -0.4104
  619MOL0     H83553  10.599   3.969  10.280  1.1365  2.0949 -0.6067
  619MOL0     H83554  10.818   3.932  10.271 -0.8610  1.4613 -0.1764
  619MOL0     H83555  11.123   3.733  10.191 -1.4869 -0.6812 -0.7562
  619MOL0     H83556  11.052   3.889  10.242  1.0058 -0.7658  0.4155
  619MOL0     H83557  11.004   3.611  10.339  0.7521  0.2634  2.1271
  619MOL0     H83558  10.861   3.689  10.305 -1.5281  2.1509  0.6542
  619MOL0     H83559  10.934   3.877  10.458 -0.7628 -1.5596  1.9425
  619MOL0     H83560  11.102   3.821  10.465  0.8728  2.4534 -1.8489
  619MOL0     H83561  10.860   3.669  10.573  1.3888 -2.4344 -0.5612
  619MOL0     H83562  10.966   3.785  10.663 -2.9348  0.8307 -1.0719
  619MOL0     H83563  11.182   3.439  10.703  0.1886 -0.9210 -2.5097
  619MOL0     H83564  10.790   3.731   9.887 -2.0481 -2.0442 -0.4780
  619MOL0     H83565  10.543   3.757   9.907  0.6300  0.3854  1.2396
  620MOL0     O83566   0.092   1.913   9.737 -0.8065 -0.2624 -0.0485
  620MOL0     C83567   0.152   2.015   9.713  1.0361  0.0306  0.2462
  620MOL0     O83568   0.090   2.140   9.727 -0.0278  0.1110 -0.0228
  620MOL0     C83569  -0.037   2.169   9.759  0.1464 -1.2174 -0.3978
  620MOL0     C83570  -0.068   2.295   9.811  0.0342  0.1046  0.2440
  620MOL0     C83571  -0.199   2.333   9.840  0.5967  0.0085  0.0756
  620MOL0     C83572  -0.309   2.243   9.841 -0.4810 -0.6720  0.6047
  620MOL0     O83573  -0.414   2.290   9.910  0.3983 -0.2474  0.1737
  620MOL0     C83574  -0.509   2.204   9.978 -0.3656 -0.8578 -0.7586
  620MOL0     C83575  -0.584   2.288  10.081 -0.5857  0.4042  0.1969
  620MOL0     C83576  -0.727   2.238  10.071  0.2062 -0.2247  0.1768
  620MOL0     C83577  -0.811   2.268  10.191  1.0330 -0.1827  0.0841
  620MOL0     C83578  -0.958   2.230  10.186  0.3077  0.6426  0.1801
  620MOL0     C83579  -1.043   2.271  10.301 -0.1512  0.6847 -0.4263
  620MOL0     C83580  -1.189   2.224  10.287  0.3336 -0.3469 -0.3112
  620MOL0     C83581  -1.259   2.228  10.419 -0.3034 -0.0591 -0.1846
  620MOL0     N83582  -1.398   2.203  10.408  0.3371 -0.0131 -0.0188
  620MOL0     C83583  -1.463   2.088  10.370 -0.2493 -0.0226 -0.2773
  620MOL0     C83584  -1.585   2.125  10.338 -0.0964 -0.9394  0.0498
  620MOL0     C83585  -1.702   2.044  10.284  0.9407  0.0340  0.8222
  620MOL0     C83586  -1.730   1.920  10.371 -0.1800  0.0180 -0.8067
  620MOL0     C83587  -1.820   1.826  10.293  0.9321  0.1780  0.5699
  620MOL0     C83588  -1.965   1.862  10.300  0.3356 -0.5084  0.1871
  620MOL0     O83589  -2.010   1.891  10.432  0.3447 -0.3882 -0.1885
  620MOL0     C83590  -2.148   1.927  10.443  0.1024 -0.3916 -0.7088
  620MOL0     C83591  -2.237   1.922  10.340  0.3175 -0.0808  0.8514
  620MOL0     C83592  -2.371   1.947  10.362  0.9086  0.3481 -0.3208
  620MOL0     C83593  -2.456   1.944  10.240 -1.0040  0.2729  0.2493
  620MOL0     C83594  -2.414   1.999  10.490  0.2882 -0.2233  0.3224
  620MOL0     C83595  -2.559   2.026  10.516  0.1045 -0.5410 -0.7968
  620MOL0     O83596  -2.594   2.080  10.638 -0.3624 -0.8460 -0.1317
  620MOL0     C83597  -2.723   2.129  10.655  1.2058 -0.3323  0.2516
  620MOL0     C83598  -2.803   2.075  10.764 -0.4667 -1.0571 -0.1571
  620MOL0     C83599  -2.929   2.132  10.789 -0.0964 -0.4340  0.4058
  620MOL0     C83600  -2.986   2.218  10.689  0.4142 -0.0994  0.8451
  620MOL0     O83601  -3.115   2.260  10.689 -0.6366  0.5437 -0.2584
  620MOL0     C83602  -3.215   2.160  10.717 -0.9256 -0.6428  0.1025
  620MOL0     C83603  -3.338   2.190  10.627  0.6601  0.0446  0.2204
  620MOL0     C83604  -3.412   2.319  10.652  0.3201  0.5045 -0.1882
  620MOL0     C83605  -3.556   2.325  10.625  0.2147 -0.3926 -0.8886
  620MOL0     C83606  -3.607   2.466  10.653 -1.0004  0.0004  0.7804
  620MOL0     C83607  -3.759   2.482  10.650 -0.2772  0.5219 -0.4587
  620MOL0     C83608  -3.815   2.491  10.798 -0.9306  0.7665 -0.5583
  620MOL0     C83609  -3.820   2.617  10.863  0.4968  0.2209 -0.4254
  620MOL0    Cl83610  -3.926   2.611  11.016 -0.2869 -0.0353  0.2117
  620MOL0     C83611  -2.903   2.270  10.586 -1.4472 -0.0933  0.2360
  620MOL0     C83612  -2.767   2.236  10.576 -0.2646 -0.6791  0.0641
  620MOL0     O83613  -2.644   1.998  10.430  0.1897 -0.2021  0.7694
  620MOL0     C83614  -2.324   2.019  10.587  0.4287  0.1454 -0.6735
  620MOL0     C83615  -2.188   1.992  10.566  0.4883  0.2403  0.0816
  620MOL0     N83616  -1.600   2.265  10.350 -0.7667  0.7223  0.1949
  620MOL0     N83617  -1.482   2.308  10.383  0.2416  0.8361  0.0147
  620MOL0     C83618  -0.273   2.115   9.791 -0.0844  0.6551  0.6040
  620MOL0     C83619  -0.148   2.079   9.740  0.6526  0.0459  0.1481
  620MOL0     C83620   0.295   2.018   9.686 -0.6329  0.2918  0.5672
  620MOL0     C83621   0.368   1.896   9.681  0.2385  0.5445 -0.7826
  620MOL0     C83622   0.500   1.900   9.653  0.3667  0.3688  0.8198
  620MOL0     C83623   0.575   2.023   9.634 -0.0376  0.1889  0.0507
  620MOL0     O83624   0.709   2.005   9.605  0.1716  0.6336 -0.0762
  620MOL0     C83625   0.790   2.120   9.576  0.0282 -1.2219  0.3968
  620MOL0     C83626   0.936   2.079   9.578  0.4660  0.2013 -0.5567
  620MOL0     C83627   1.002   2.108   9.717  0.9368 -0.7020 -0.1815
  620MOL0     C83628   1.147   2.088   9.726 -0.0270 -1.1882 -0.4532
  620MOL0     C83629   1.173   1.953   9.774 -0.3664  0.0123  0.2328
  620MOL0     C83630   1.199   1.844   9.818 -0.0721  0.6740  0.5636
  620MOL0     C83631   0.505   2.142   9.640  0.5395 -0.1635  0.8119
  620MOL0     C83632   0.365   2.141   9.665  0.8593  0.1244 -0.2633
  620MOL0     H83633   0.019   2.360   9.816  2.7287 -2.6003 -4.2738
  620MOL0     H83634  -0.221   2.431   9.881 -0.6090 -0.6181  1.0077
  620MOL0     H83635  -0.578   2.166   9.902 -0.3031  2.3379 -2.5897
  620MOL0     H83636  -0.466   2.124  10.039 -0.1004  0.7942  1.3338
  620MOL0     H83637  -0.551   2.284  10.185 -3.1700  2.0580  1.1655
  620MOL0     H83638  -0.568   2.393  10.058  3.7262 -0.1421 -0.1363
  620MOL0     H83639  -0.756   2.286   9.976  0.1582  0.7995  0.6916
  620MOL0     H83640  -0.746   2.131  10.059 -1.1130  0.0406 -0.2909
  620MOL0     H83641  -0.755   2.230  10.277 -0.2120  1.9831  1.9844
  620MOL0     H83642  -0.804   2.377  10.202 -0.1771  0.2294 -2.5669
  620MOL0     H83643  -1.011   2.276  10.102 -1.5738 -0.9756  0.4148
  620MOL0     H83644  -0.973   2.122  10.178  2.6995  0.2941 -0.3570
  620MOL0     H83645  -0.997   2.225  10.389  0.4608  1.7987 -0.1410
  620MOL0     H83646  -1.041   2.380  10.314  1.9621  0.4431  2.0415
  620MOL0     H83647  -1.237   2.289  10.214  0.5775  0.2759  0.0813
  620MOL0     H83648  -1.206   2.124  10.244 -3.0358  0.1091 -0.3220
  620MOL0     H83649  -1.250   2.329  10.461 -0.9779  0.2475 -0.7606
  620MOL0     H83650  -1.223   2.147  10.483  0.2164 -1.4842 -2.1784
  620MOL0     H83651  -1.415   1.991  10.366 -0.0390  0.1172 -2.9355
  620MOL0     H83652  -1.785   2.113  10.272  0.4062 -0.6023  0.8240
  620MOL0     H83653  -1.682   2.010  10.182  1.0889  0.3511  0.7471
  620MOL0     H83654  -1.760   1.940  10.474  0.3981  1.8594 -0.9574
  620MOL0     H83655  -1.635   1.868  10.387 -0.2864 -0.0695 -0.4523
  620MOL0     H83656  -1.801   1.723  10.325  0.6928 -0.4614 -1.2521
  620MOL0     H83657  -1.798   1.814  10.187  0.9166  0.0998  0.5752
  620MOL0     H83658  -2.021   1.786  10.244 -0.6554  0.9767 -0.9064
  620MOL0     H83659  -1.977   1.958  10.249  0.9735 -1.2765 -1.4855
  620MOL0     H83660  -2.206   1.883  10.243  3.9278  1.7920  1.0880
  620MOL0     H83661  -2.387   1.951  10.155 -2.8424  3.5024 -1.1909
  620MOL0     H83662  -2.518   1.855  10.229 -1.7521  0.7303  0.6402
  620MOL0     H83663  -2.517   2.035  10.245 -0.0132  0.9383  0.6127
  620MOL0     H83664  -2.752   2.002  10.826  2.6738 -0.7458 -2.1565
  620MOL0     H83665  -2.982   2.085  10.872 -0.7565 -1.5614 -0.6155
  620MOL0     H83666  -3.176   2.061  10.693  1.2838  0.1822  0.0797
  620MOL0     H83667  -3.250   2.158  10.820  0.5627 -1.0007  0.6139
  620MOL0     H83668  -3.294   2.181  10.527  0.5008  0.9000  0.0670
  620MOL0     H83669  -3.412   2.110  10.636 -0.2277  0.9229  1.0151
  620MOL0     H83670  -3.372   2.399  10.588  2.0904 -1.8849 -2.2956
  620MOL0     H83671  -3.387   2.348  10.754  3.6194 -0.7433 -0.4942
  620MOL0     H83672  -3.580   2.287  10.525 -0.2586 -0.5840 -0.7062
  620MOL0     H83673  -3.616   2.260  10.690 -0.6363  1.5001  0.3097
  620MOL0     H83674  -3.561   2.535  10.582 -0.3835 -0.2899  0.8940
  620MOL0     H83675  -3.567   2.481  10.754  0.0805  2.8021  0.0244
  620MOL0     H83676  -3.780   2.575  10.598  3.4271  2.0371  0.4458
  620MOL0     H83677  -3.809   2.401  10.595 -0.6204  0.9254 -0.7390
  620MOL0     H83678  -3.768   2.411  10.855 -1.9021 -0.6917 -1.7531
  620MOL0     H83679  -3.922   2.466  10.794 -1.0321  0.7681  1.2095
  620MOL0     H83680  -3.864   2.694  10.798  1.0978  1.2930  0.3883
  620MOL0     H83681  -3.720   2.649  10.895 -0.5540  1.6609  1.6882
  620MOL0     H83682  -2.937   2.337  10.507  1.3770 -0.2320 -1.2054
  620MOL0     H83683  -2.699   2.277  10.502 -0.7066 -2.6798 -1.5467
  620MOL0     H83684  -2.349   2.052  10.687 -1.6901  0.3659 -1.2354
  620MOL0     H83685  -2.110   2.014  10.639  3.1154 -2.5600 -1.6223
  620MOL0     H83686  -0.348   2.039   9.768  2.8705 -1.9560 -1.2421
  620MOL0     H83687  -0.135   1.985   9.688 -2.4990 -0.5380  0.2494
  620MOL0     H83688   0.333   1.794   9.697  1.5295  0.5371  2.8396
  620MOL0     H83689   0.561   1.810   9.646  0.4502  0.5319 -0.7832
  620MOL0     H83690   0.764   2.153   9.475 -0.0684 -0.1984  0.7487
  620MOL0     H83691   0.771   2.206   9.640  2.1274  2.2723 -3.1991
  620MOL0     H83692   0.993   2.124   9.496 -1.1581  0.3960 -1.6075
  620MOL0     H83693   0.956   1.975   9.549 -0.9570 -0.4217  0.5928
  620MOL0     H83694   0.948   2.049   9.792  1.6970 -1.0023  0.1305
  620MOL0     H83695   0.976   2.213   9.731 -1.6288 -1.3725  0.6427
  620MOL0     H83696   1.195   2.162   9.791  2.5645 -1.4708 -1.8802
  620MOL0     H83697   1.197   2.096   9.629  0.0456 -2.3193 -0.5190
  620MOL0     H83698   1.231   1.745   9.843  0.7125  0.5505 -0.8319
  620MOL0     H83699   0.557   2.237   9.634 -0.9823  0.6208 -2.7971
  620MOL0     H83700   0.311   2.234   9.647  1.2613  0.4026 -0.0656
  621MOL0     O83701   6.578   6.628   2.758 -0.2274 -0.0220  0.1922
  621MOL0     C83702   6.677   6.560   2.746  0.7405  0.7789 -0.0630
  621MOL0     O83703   6.699   6.437   2.807  0.2938 -0.5079 -0.5286
  621MOL0     C83704   6.609   6.374   2.892 -0.4190  0.0362  0.7025
  621MOL0     C83705   6.470   6.365   2.871  0.8164 -0.7800 -0.3390
  621MOL0     C83706   6.380   6.300   2.964 -0.6259 -0.4470  0.5435
  621MOL0     C83707   6.436   6.217   3.065 -0.2500 -1.3912  0.3261
  621MOL0     O83708   6.365   6.151   3.163  0.3326  0.3324  0.8448
  621MOL0     C83709   6.242   6.218   3.210 -0.3052  0.5622 -0.9136
  621MOL0     C83710   6.190   6.149   3.339  0.7592 -0.3604  0.1396
  621MOL0     C83711   6.049   6.199   3.359 -0.6876 -0.3738 -0.7051
  621MOL0     C83712   5.955   6.121   3.261 -0.3420 -0.1876 -0.0108
  621MOL0     C83713   5.810   6.164   3.293 -1.1156  0.1720 -0.6785
  621MOL0     C83714   5.757   6.106   3.423 -0.6192  0.8120  0.2490
  621MOL0     C83715   5.618   6.156   3.460 -0.7122 -0.6172 -0.3930
  621MOL0     C83716   5.572   6.102   3.594  0.3971 -0.1218 -0.7791
  621MOL0     N83717   5.438   6.160   3.631  0.8125  0.3529 -0.8001
  621MOL0     C83718   5.322   6.089   3.625  0.9611 -0.3097 -0.4484
  621MOL0     C83719   5.225   6.170   3.685 -0.6726 -0.2045 -0.0061
  621MOL0     C83720   5.082   6.148   3.697 -0.1323  0.2552  0.1040
  621MOL0     C83721   5.033   6.089   3.824  0.3692 -0.2164 -0.0336
  621MOL0     C83722   5.068   6.170   3.946  0.8021  0.3590 -0.0417
  621MOL0     C83723   5.004   6.301   3.955  0.2562  0.4966  1.0042
  621MOL0     O83724   4.994   6.361   4.084 -0.1859 -0.7287  0.0182
  621MOL0     C83725   5.090   6.443   4.129  0.4915 -0.0801  0.2405
  621MOL0     C83726   5.077   6.514   4.252  0.3146  0.8654  0.5808
  621MOL0     C83727   5.178   6.597   4.302 -0.4946  0.6738 -0.1641
  621MOL0     C83728   5.156   6.646   4.446 -0.9834 -0.3300  0.8690
  621MOL0     C83729   5.297   6.627   4.219  0.9817  0.2402 -1.1150
  621MOL0     C83730   5.403   6.718   4.251 -0.7064 -0.4469 -0.5569
  621MOL0     O83731   5.480   6.754   4.147 -0.0229  0.0239  1.2502
  621MOL0     C83732   5.608   6.804   4.175  0.5563  0.2941  0.5286
  621MOL0     C83733   5.718   6.715   4.196  0.0100 -0.2716 -0.3127
  621MOL0     C83734   5.849   6.765   4.226  0.4194  0.3873  0.5429
  621MOL0     C83735   5.866   6.899   4.238  0.3345 -0.2720 -0.3445
  621MOL0     O83736   5.992   6.963   4.238  0.2690  0.5444  0.0983
  621MOL0     C83737   6.042   7.001   4.364 -0.7792 -0.0114  0.4169
  621MOL0     C83738   6.146   6.908   4.428  0.2082  0.2892 -0.7266
  621MOL0     C83739   6.277   6.900   4.350 -0.1377  0.8268 -0.3755
  621MOL0     C83740   6.334   7.047   4.327  0.3347 -0.3103  0.3278
  621MOL0     C83741   6.489   7.069   4.324  0.9274 -0.3755  1.1908
  621MOL0     C83742   6.564   6.971   4.230  1.8213 -0.3395  0.3503
  621MOL0     C83743   6.712   7.003   4.226 -0.6887 -1.1657  0.0767
  621MOL0     C83744   6.787   6.896   4.147  0.7580 -0.8728  0.9575
  621MOL0    Cl83745   6.732   6.898   3.977 -0.0359 -0.4217  0.0442
  621MOL0     C83746   5.760   6.991   4.205 -0.4475 -0.4208 -0.2333
  621MOL0     C83747   5.635   6.941   4.172 -0.5518 -0.5781  0.2087
  621MOL0     O83748   5.427   6.748   4.370  0.3672 -0.0313 -0.2902
  621MOL0     C83749   5.309   6.558   4.107  0.1669  0.5695  0.1646
  621MOL0     C83750   5.209   6.467   4.065 -0.0330  0.1150 -0.3826
  621MOL0     N83751   5.298   6.283   3.739 -0.2707  0.5051  0.6381
  621MOL0     N83752   5.420   6.281   3.700  0.0142  1.0185 -0.5688
  621MOL0     C83753   6.572   6.220   3.077  0.0967  0.5905  0.1332
  621MOL0     C83754   6.661   6.292   2.990  0.6432  0.4668  0.0696
  621MOL0     C83755   6.787   6.605   2.654  0.7636 -1.2125  0.3037
  621MOL0     C83756   6.786   6.731   2.585 -0.4231 -0.2638 -0.3366
  621MOL0     C83757   6.888   6.766   2.497 -0.7343 -1.0286  0.1159
  621MOL0     C83758   6.996   6.680   2.476  0.7206  0.1826 -0.0745
  621MOL0     O83759   7.086   6.724   2.383  0.9992  0.0169 -0.2807
  621MOL0     C83760   7.189   6.638   2.343 -0.1975 -0.2114 -0.5388
  621MOL0     C83761   7.251   6.704   2.220  0.1677  0.0218 -0.3128
  621MOL0     C83762   7.399   6.664   2.201 -0.2568 -0.5234 -0.1468
  621MOL0     C83763   7.446   6.729   2.071 -0.0410  0.0497 -0.0922
  621MOL0     C83764   7.567   6.654   2.032  0.5967  0.8003  0.8432
  621MOL0     C83765   7.674   6.611   2.003 -0.2375 -0.3770 -1.1609
  621MOL0     C83766   6.999   6.556   2.538  0.8219 -0.6202  0.4247
  621MOL0     C83767   6.892   6.524   2.624  0.0411 -0.4515  0.1213
  621MOL0     H83768   6.442   6.416   2.779 -3.0799 -2.2298 -0.1372
  621MOL0     H83769   6.274   6.313   2.943 -0.8070 -0.3408  1.4424
  621MOL0     H83770   6.266   6.322   3.234  0.9297 -0.2889  2.0186
  621MOL0     H83771   6.168   6.202   3.131  2.0693  0.4129 -3.2566
  621MOL0     H83772   6.178   6.040   3.331  0.4051 -0.3695  0.7456
  621MOL0     H83773   6.238   6.171   3.434 -3.7439  1.7593  2.2097
  621MOL0     H83774   6.013   6.191   3.462 -0.2218  2.6208 -0.2281
  621MOL0     H83775   6.052   6.302   3.324  1.8848  1.2054  3.4758
  621MOL0     H83776   5.969   6.131   3.153  0.2325 -3.6253 -0.3566
  621MOL0     H83777   5.967   6.014   3.282  3.5020  0.4009  1.7367
  621MOL0     H83778   5.806   6.273   3.285 -0.5621  0.2575  0.0802
  621MOL0     H83779   5.740   6.131   3.216 -1.0779 -0.2199 -0.5496
  621MOL0     H83780   5.754   5.997   3.415 -0.3067  0.7445  0.9790
  621MOL0     H83781   5.827   6.120   3.506  0.5431 -2.5504  0.0005
  621MOL0     H83782   5.619   6.265   3.470  0.6810 -0.5480 -1.1390
  621MOL0     H83783   5.547   6.132   3.380 -3.0973  1.7350  0.8210
  621MOL0     H83784   5.644   6.135   3.669 -1.4838  1.3878  0.4624
  621MOL0     H83785   5.557   5.994   3.602 -3.9130  0.4016  1.0427
  621MOL0     H83786   5.302   5.995   3.575 -0.2484 -0.6610  0.6368
  621MOL0     H83787   5.028   6.240   3.673 -1.3786 -0.6490 -0.6896
  621MOL0     H83788   5.066   6.069   3.623 -0.0579 -0.5179  0.9014
  621MOL0     H83789   5.066   5.985   3.829  0.4934 -0.1828 -0.1554
  621MOL0     H83790   4.924   6.077   3.817  0.6142 -1.6479 -2.6495
  621MOL0     H83791   5.175   6.194   3.950  1.4968 -2.4997  1.0598
  621MOL0     H83792   5.044   6.106   4.032  1.5639  2.0423  1.4875
  621MOL0     H83793   4.904   6.282   3.913  2.2751 -2.3952 -3.1788
  621MOL0     H83794   5.049   6.372   3.885 -0.0912  1.6576  1.9117
  621MOL0     H83795   4.995   6.492   4.320  0.7428  0.7538  1.0706
  621MOL0     H83796   5.221   6.596   4.518 -1.0162  1.3828  2.1579
  621MOL0     H83797   5.176   6.754   4.449 -0.5515 -0.0337 -4.2277
  621MOL0     H83798   5.057   6.624   4.487 -2.3119  0.7068 -1.5755
  621MOL0     H83799   5.694   6.610   4.186 -4.0157  0.6641 -2.4401
  621MOL0     H83800   5.932   6.695   4.237 -0.9366 -1.2271  0.8941
  621MOL0     H83801   6.081   7.101   4.345  0.3507 -0.8151 -1.8725
  621MOL0     H83802   5.962   7.004   4.439 -0.1537  1.9093  1.0661
  621MOL0     H83803   6.177   6.944   4.527  2.4255 -0.5849 -1.0608
  621MOL0     H83804   6.107   6.809   4.452  1.2717  0.6390  3.2188
  621MOL0     H83805   6.265   6.847   4.255  2.8772 -1.8532  0.5622
  621MOL0     H83806   6.352   6.835   4.397 -0.5370 -0.6447 -1.6592
  621MOL0     H83807   6.287   7.088   4.237 -0.4030 -0.1795  0.7596
  621MOL0     H83808   6.300   7.108   4.411  1.7125 -0.6065  1.1341
  621MOL0     H83809   6.526   7.052   4.426  2.2620 -0.3473  0.7263
  621MOL0     H83810   6.513   7.172   4.296 -0.1748 -0.0336  1.4219
  621MOL0     H83811   6.546   6.871   4.270 -1.6225 -0.4669 -1.1478
  621MOL0     H83812   6.519   6.976   4.130  0.2225  2.1560  1.1010
  621MOL0     H83813   6.762   7.013   4.323  0.9245 -0.5371 -0.7656
  621MOL0     H83814   6.720   7.101   4.176  0.8408 -1.4470 -0.2713
  621MOL0     H83815   6.762   6.803   4.200 -2.6766 -2.1589 -2.4834
  621MOL0     H83816   6.891   6.929   4.149  0.3090  0.6870  0.0442
  621MOL0     H83817   5.782   7.097   4.194  2.4756 -1.0249 -0.9146
  621MOL0     H83818   5.562   7.007   4.126 -0.3270 -1.0507 -0.8563
  621MOL0     H83819   5.388   6.571   4.034 -0.0053 -0.2760 -0.1821
  621MOL0     H83820   5.222   6.417   3.969 -1.2493 -3.6578  1.2374
  621MOL0     H83821   6.608   6.155   3.157 -2.2112 -0.4688  0.3939
  621MOL0     H83822   6.764   6.294   3.024  0.2638 -0.6946  1.3716
  621MOL0     H83823   6.702   6.799   2.593  1.7168  2.4445  1.0546
  621MOL0     H83824   6.895   6.856   2.438 -0.5049 -0.3895  1.1047
  621MOL0     H83825   7.264   6.617   2.420  1.4383  0.4719 -1.8842
  621MOL0     H83826   7.151   6.541   2.310 -0.0442  0.2147 -2.0374
  621MOL0     H83827   7.248   6.812   2.236  0.4872  0.1390 -1.0109
  621MOL0     H83828   7.188   6.672   2.136  0.6628  2.7588 -1.8358
  621MOL0     H83829   7.409   6.555   2.200  1.1550 -0.4124  0.3311
  621MOL0     H83830   7.467   6.701   2.278 -1.3371  0.7313  0.2402
  621MOL0     H83831   7.470   6.836   2.071 -2.4817  0.6999  1.4037
  621MOL0     H83832   7.373   6.707   1.993  0.7924 -1.5948 -0.4431
  621MOL0     H83833   7.772   6.576   1.975 -0.0928 -0.1834 -0.9031
  621MOL0     H83834   7.071   6.478   2.514  0.1226 -1.4243  0.8716
  621MOL0     H83835   6.900   6.423   2.665  2.7216 -0.5249 -0.4322
  622MOL0     O83836   3.878   8.570   2.120 -0.8274  0.5195 -0.7848
  622MOL0     C83837   3.894   8.490   2.028  0.3887  0.0346 -0.2699
  622MOL0     O83838   3.810   8.385   2.003 -0.6852  0.4609  0.0848
  622MOL0     C83839   3.702   8.354   2.079  0.7015 -0.4334 -0.4190
  622MOL0     C83840   3.675   8.219   2.097 -0.1304  0.4143 -0.9461
  622MOL0     C83841   3.579   8.179   2.194 -0.1169  0.6544  0.2904
  622MOL0     C83842   3.498   8.270   2.258  0.6080  0.3915  0.2349
  622MOL0     O83843   3.388   8.240   2.337 -0.4256  0.4996  0.0372
  622MOL0     C83844   3.356   8.110   2.381 -1.2009 -0.8652  0.7795
  622MOL0     C83845   3.252   8.100   2.493  0.2735 -0.1397 -0.1304
  622MOL0     C83846   3.129   8.174   2.471  0.5839  0.1005  0.6374
  622MOL0     C83847   3.059   8.186   2.613  0.4799  0.4235  1.0988
  622MOL0     C83848   2.925   8.260   2.621 -0.0508  0.0970  0.4391
  622MOL0     C83849   2.881   8.282   2.769 -1.7380  0.2335  0.7559
  622MOL0     C83850   2.823   8.155   2.829 -0.0215 -0.4401  0.8529
  622MOL0     C83851   2.785   8.196   2.962  0.4382  0.3662 -0.2019
  622MOL0     N83852   2.709   8.092   3.033 -0.1921 -0.3057 -0.3933
  622MOL0     C83853   2.577   8.104   3.068 -0.1616  0.1198 -0.0632
  622MOL0     C83854   2.559   7.995   3.148  0.4388  0.5977  0.3307
  622MOL0     C83855   2.432   7.949   3.212 -0.4399 -0.3168 -0.5561
  622MOL0     C83856   2.368   7.832   3.137 -0.0938 -0.4585  0.4721
  622MOL0     C83857   2.270   7.867   3.020  0.5555  0.2169  0.3755
  622MOL0     C83858   2.155   7.946   3.068  0.2909 -0.5979 -0.5688
  622MOL0     O83859   2.071   7.868   3.157 -0.1115 -0.6116 -0.4714
  622MOL0     C83860   1.946   7.917   3.182  0.4733 -0.3335 -0.8656
  622MOL0     C83861   1.887   8.032   3.138 -0.3752 -0.0849  0.4951
  622MOL0     C83862   1.758   8.065   3.173 -0.0653  0.0079 -0.2343
  622MOL0     C83863   1.706   8.194   3.114 -0.1076 -0.1729  0.1058
  622MOL0     C83864   1.679   7.975   3.257  0.6156 -0.4431 -0.3302
  622MOL0     C83865   1.534   7.987   3.295  0.5522 -0.1193  0.3528
  622MOL0     O83866   1.483   7.904   3.394 -0.3005 -0.1471  0.0761
  622MOL0     C83867   1.350   7.893   3.416  0.2589  0.5397 -0.3275
  622MOL0     C83868   1.326   7.772   3.485  0.2623 -1.0768 -0.3966
  622MOL0     C83869   1.193   7.745   3.532 -0.3301  0.1890  0.4103
  622MOL0     C83870   1.085   7.836   3.504 -0.3013  0.5174 -0.5347
  622MOL0     O83871   0.965   7.803   3.558 -0.7568  0.2462  0.0071
  622MOL0     C83872   0.888   7.906   3.613  0.1794 -0.4739 -0.2195
  622MOL0     C83873   0.782   7.854   3.712  0.4364 -0.5513  0.3233
  622MOL0     C83874   0.697   7.747   3.644  0.0334 -0.0336 -0.1332
  622MOL0     C83875   0.624   7.660   3.743 -0.2935  0.5307 -0.3484
  622MOL0     C83876   0.524   7.577   3.673 -0.6591 -0.4147 -0.9826
  622MOL0     C83877   0.393   7.663   3.642 -0.2888  0.4314  0.5129
  622MOL0     C83878   0.300   7.681   3.759  0.6141  0.1972  0.2977
  622MOL0     C83879   0.155   7.709   3.706 -0.4060 -0.0619  0.9337
  622MOL0    Cl83880   0.065   7.769   3.852 -0.1664  0.0162  0.2932
  622MOL0     C83881   1.107   7.953   3.430 -0.4518  0.1478  0.3722
  622MOL0     C83882   1.242   7.979   3.391  0.4383 -0.1712 -0.5378
  622MOL0     O83883   1.474   8.062   3.226  0.5201  0.3981  0.2307
  622MOL0     C83884   1.746   7.866   3.315  0.3044  0.0448  0.1972
  622MOL0     C83885   1.874   7.842   3.279  0.3617 -0.0584  0.6535
  622MOL0     N83886   2.680   7.931   3.171  0.0087  0.0388 -0.3934
  622MOL0     N83887   2.771   7.995   3.114  0.4594 -0.2574 -0.3118
  622MOL0     C83888   3.515   8.407   2.228  0.5062  0.1645 -0.4276
  622MOL0     C83889   3.624   8.445   2.142  0.7691  0.2550 -0.0360
  622MOL0     C83890   4.004   8.506   1.934 -0.1725  0.2127  0.6080
  622MOL0     C83891   4.108   8.594   1.961  0.0162 -0.6858  0.5441
  622MOL0     C83892   4.207   8.611   1.860 -0.0435  0.6545 -0.3094
  622MOL0     C83893   4.209   8.533   1.745  0.9886 -0.1836  0.2090
  622MOL0     O83894   4.314   8.565   1.660  0.3779  0.0127 -0.3963
  622MOL0     C83895   4.306   8.503   1.527 -0.2298  0.3298  0.4423
  622MOL0     C83896   4.191   8.564   1.434 -1.0138  0.2377  0.2437
  622MOL0     C83897   4.206   8.518   1.289  1.0122  0.1353 -0.6945
  622MOL0     C83898   4.242   8.631   1.196  0.0033  0.8378 -0.8901
  622MOL0     C83899   4.285   8.591   1.058  0.3282 -0.7501  0.1614
  622MOL0     C83900   4.304   8.553   0.944  0.6676  0.6978 -1.0416
  622MOL0     C83901   4.109   8.438   1.723 -0.8856  0.6713 -0.3063
  622MOL0     C83902   4.005   8.432   1.815 -0.0709  0.6855 -0.6165
  622MOL0     H83903   3.738   8.146   2.048 -0.5840 -1.9451  1.7195
  622MOL0     H83904   3.550   8.075   2.207 -3.2869  1.4487  0.1822
  622MOL0     H83905   3.315   8.056   2.295 -3.0335  3.3399 -1.2680
  622MOL0     H83906   3.446   8.054   2.408  1.6016  2.2416 -1.3624
  622MOL0     H83907   3.225   7.999   2.527  3.0201 -1.3502 -1.2954
  622MOL0     H83908   3.301   8.128   2.586  2.0494  1.2336 -1.4273
  622MOL0     H83909   3.151   8.272   2.428 -1.4404 -0.3044 -1.4896
  622MOL0     H83910   3.063   8.121   2.402  0.7066  2.2646 -1.2688
  622MOL0     H83911   3.039   8.081   2.638  1.4871 -0.7363 -2.4562
  622MOL0     H83912   3.132   8.232   2.680  1.4374 -0.4678  0.6993
  622MOL0     H83913   2.938   8.360   2.577 -0.4745  0.0344  0.1645
  622MOL0     H83914   2.844   8.219   2.561 -1.5573  1.6751  1.3118
  622MOL0     H83915   2.968   8.306   2.831 -0.6013 -1.2014 -0.2224
  622MOL0     H83916   2.805   8.361   2.767 -3.2951 -1.1510 -2.5296
  622MOL0     H83917   2.735   8.132   2.769  0.7361 -3.5234  0.7578
  622MOL0     H83918   2.889   8.068   2.824 -0.2917 -0.5619 -1.2325
  622MOL0     H83919   2.720   8.283   2.951 -0.3980 -0.0256  1.5141
  622MOL0     H83920   2.876   8.209   3.022  0.6458  0.6005 -0.5604
  622MOL0     H83921   2.510   8.180   3.029  1.1708  1.2768 -0.1860
  622MOL0     H83922   2.451   7.927   3.317 -2.7983  1.9621  0.4660
  622MOL0     H83923   2.366   8.036   3.219  1.1939  0.8325  2.3901
  622MOL0     H83924   2.309   7.766   3.201  0.1864  1.1601  2.4905
  622MOL0     H83925   2.455   7.778   3.098  1.2664 -0.2843  3.0371
  622MOL0     H83926   2.239   7.778   2.965 -1.7381  0.2795  1.4102
  622MOL0     H83927   2.332   7.933   2.960 -1.2742  1.8201  0.1540
  622MOL0     H83928   2.097   7.986   2.984  0.4220  2.9929  0.8747
  622MOL0     H83929   2.192   8.035   3.121  0.3604 -1.0402  0.1321
  622MOL0     H83930   1.939   8.088   3.062  0.0696 -1.9820 -0.6521
  622MOL0     H83931   1.641   8.249   3.182 -0.4945 -0.6177  0.0965
  622MOL0     H83932   1.788   8.266   3.106  0.3257 -0.2111  3.2467
  622MOL0     H83933   1.653   8.175   3.020 -0.4299  0.5570  0.1356
  622MOL0     H83934   1.408   7.703   3.504  0.7102 -0.8296 -1.3307
  622MOL0     H83935   1.173   7.648   3.578 -2.0660 -0.4483 -1.4980
  622MOL0     H83936   0.966   7.967   3.660  0.8080 -0.6099 -1.0688
  622MOL0     H83937   0.851   7.972   3.534  0.2961  1.2194  1.0637
  622MOL0     H83938   0.828   7.798   3.794 -2.8443  1.3244  3.8152
  622MOL0     H83939   0.723   7.932   3.762  3.2056  0.8986  1.5188
  622MOL0     H83940   0.748   7.684   3.570 -1.3866 -1.4637  0.0502
  622MOL0     H83941   0.628   7.804   3.583  0.1659  1.6009  1.1509
  622MOL0     H83942   0.692   7.606   3.809 -1.5323  0.5610  1.0058
  622MOL0     H83943   0.567   7.719   3.815  0.8904 -2.3763  3.2727
  622MOL0     H83944   0.503   7.496   3.742  0.6996  0.6762  0.8178
  622MOL0     H83945   0.563   7.533   3.581  1.3457 -0.9998  0.0860
  622MOL0     H83946   0.407   7.765   3.603  0.1076 -0.1617 -0.9681
  622MOL0     H83947   0.352   7.609   3.557 -0.8622 -0.2236  1.1970
  622MOL0     H83948   0.322   7.770   3.819 -1.1566  0.8121  0.0883
  622MOL0     H83949   0.296   7.593   3.824 -1.6365 -0.1047 -0.1509
  622MOL0     H83950   0.109   7.624   3.654 -3.3009  2.0459 -0.2209
  622MOL0     H83951   0.165   7.790   3.633 -2.6283  1.4082  2.1530
  622MOL0     H83952   1.027   8.024   3.409  0.3053  1.9315  2.9300
  622MOL0     H83953   1.262   8.076   3.348  1.4980 -0.0114  0.2672
  622MOL0     H83954   1.696   7.797   3.382 -2.6806  1.4880 -0.3797
  622MOL0     H83955   1.904   7.751   3.331 -1.2475  0.0302  1.8145
  622MOL0     H83956   3.444   8.477   2.271 -0.8361 -2.1063  1.2864
  622MOL0     H83957   3.640   8.552   2.139  3.5866 -0.0715  0.3594
  622MOL0     H83958   4.121   8.656   2.049 -1.0273 -1.0010  0.9333
  622MOL0     H83959   4.288   8.682   1.872  1.8795 -1.2778 -1.1866
  622MOL0     H83960   4.403   8.535   1.487  1.6712 -0.7168  3.8360
  622MOL0     H83961   4.307   8.394   1.524  0.7778  0.3592 -0.9219
  622MOL0     H83962   4.209   8.671   1.443  0.2908 -0.0231  0.9747
  622MOL0     H83963   4.089   8.542   1.467 -1.0453 -1.1855 -0.7013
  622MOL0     H83964   4.111   8.470   1.260  0.9357 -1.0100  1.2975
  622MOL0     H83965   4.289   8.446   1.286  0.9346  0.0289 -0.3225
  622MOL0     H83966   4.323   8.685   1.247  1.2071 -0.9157 -0.8582
  622MOL0     H83967   4.153   8.694   1.193 -3.2456 -3.2525  0.0555
  622MOL0     H83968   4.327   8.512   0.847  1.6731 -2.0517  0.2310
  622MOL0     H83969   4.109   8.363   1.645 -0.0882  0.1808  0.1482
  622MOL0     H83970   3.934   8.351   1.799  2.5068 -1.9718  0.3541
  623MOL0     O83971  11.136   2.470   0.250 -0.2518  0.5279 -0.2812
  623MOL0     C83972  11.189   2.556   0.317 -0.6602 -0.8534  0.2893
  623MOL0     O83973  11.126   2.650   0.401  0.2175  0.3926 -0.3449
  623MOL0     C83974  10.997   2.641   0.446 -0.3823  0.6397  1.2385
  623MOL0     C83975  10.960   2.743   0.539 -0.9985  0.0571 -0.2942
  623MOL0     C83976  10.822   2.758   0.574 -1.2207 -0.2644 -0.0853
  623MOL0     C83977  10.724   2.683   0.518  0.4259 -0.7354 -0.2644
  623MOL0     O83978  10.595   2.705   0.569 -0.6139  0.7740 -0.6117
  623MOL0     C83979  10.484   2.632   0.526  0.6522  0.5379 -0.6867
  623MOL0     C83980  10.462   2.495   0.604  0.1036 -0.1761  0.5295
  623MOL0     C83981  10.322   2.444   0.603  0.4566  0.6360 -0.4065
  623MOL0     C83982  10.317   2.336   0.714 -0.9115 -0.2747 -0.0860
  623MOL0     C83983  10.183   2.261   0.726 -0.0372  0.0135  0.3754
  623MOL0     C83984  10.145   2.176   0.605  0.2841  0.3064  0.5579
  623MOL0     C83985  10.026   2.070   0.628 -0.0793  0.6455  0.0385
  623MOL0     C83986  10.061   1.925   0.642  0.5308 -0.5966 -0.4168
  623MOL0     N83987   9.939   1.850   0.681 -0.6332 -0.1795 -0.3822
  623MOL0     C83988   9.820   1.822   0.611  0.1186 -0.3970  1.1415
  623MOL0     C83989   9.738   1.793   0.708  0.2503 -0.0689 -0.7163
  623MOL0     C83990   9.590   1.761   0.679 -0.1534 -0.2611  0.4043
  623MOL0     C83991   9.504   1.858   0.769  0.6564 -0.3926  0.5467
  623MOL0     C83992   9.495   2.008   0.727  0.3635  0.6223  1.1245
  623MOL0     C83993   9.365   2.078   0.754  0.3873  0.0297 -0.4527
  623MOL0     O83994   9.346   2.100   0.896 -0.3098 -0.2801  0.2152
  623MOL0     C83995   9.252   2.196   0.940 -0.4969  0.2483 -0.0717
  623MOL0     C83996   9.231   2.216   1.077 -0.1443 -0.6235  0.2215
  623MOL0     C83997   9.128   2.304   1.127  1.3679 -0.1393  1.5079
  623MOL0     C83998   9.145   2.334   1.267  0.4370 -0.0536  0.3897
  623MOL0     C83999   9.039   2.361   1.034 -0.4421 -0.3519  0.2915
  623MOL0     C84000   8.935   2.461   1.066  0.3250  0.3440 -1.1463
  623MOL0     O84001   8.897   2.480   1.203 -0.0508  0.7241 -0.7005
  623MOL0     C84002   8.789   2.559   1.218  0.1942  0.4294  1.0639
  623MOL0     C84003   8.801   2.677   1.293  0.2405  0.3076  0.3783
  623MOL0     C84004   8.690   2.756   1.314 -0.2501  0.5081 -1.1563
  623MOL0     C84005   8.562   2.719   1.271  0.3382 -0.0180 -0.0760
  623MOL0     O84006   8.463   2.790   1.331  0.0063  0.3053 -0.0094
  623MOL0     C84007   8.336   2.724   1.335  0.4682  0.6587 -0.4987
  623MOL0     C84008   8.217   2.817   1.376  0.0736  0.2428  0.3717
  623MOL0     C84009   8.095   2.759   1.459  1.8619 -0.3502 -0.7235
  623MOL0     C84010   8.009   2.651   1.398 -0.1454  0.1443  0.8355
  623MOL0     C84011   7.924   2.718   1.285 -0.2164 -0.1208 -0.2806
  623MOL0     C84012   7.807   2.633   1.235 -0.3139  0.5208  1.0940
  623MOL0     C84013   7.783   2.690   1.089  0.0002 -0.1261 -0.4694
  623MOL0     C84014   7.664   2.614   1.015  0.2051  0.1235 -0.0876
  623MOL0    Cl84015   7.621   2.695   0.855  0.1912  0.3553 -0.2444
  623MOL0     C84016   8.542   2.604   1.191 -0.0486 -0.9552 -0.1671
  623MOL0     C84017   8.656   2.524   1.176 -0.1284  0.4218  1.1119
  623MOL0     O84018   8.902   2.539   0.975 -0.2254  0.1775 -0.0731
  623MOL0     C84019   9.062   2.337   0.897 -0.8984 -0.3665  0.2686
  623MOL0     C84020   9.159   2.260   0.848 -0.1108  1.2626  0.2363
  623MOL0     N84021   9.798   1.802   0.836 -0.1324  0.2652  0.6875
  623MOL0     N84022   9.915   1.839   0.814  0.0888  0.5220  0.0686
  623MOL0     C84023  10.763   2.572   0.440  0.3810 -0.0238  0.8911
  623MOL0     C84024  10.894   2.551   0.402 -1.4688 -0.4246 -1.0620
  623MOL0     C84025  11.334   2.569   0.301 -0.2880  0.0978 -0.2628
  623MOL0     C84026  11.399   2.671   0.360 -0.4707 -0.3919  0.2323
  623MOL0     C84027  11.530   2.693   0.354  0.2472 -0.1199 -0.0803
  623MOL0     C84028  11.610   2.605   0.281  0.1987  0.8546  1.1057
  623MOL0     O84029  11.749   2.621   0.281  0.2601  0.3073 -0.9958
  623MOL0     C84030  11.833   2.520   0.223 -0.6466  0.1964 -1.0166
  623MOL0     C84031  11.849   2.551   0.080  0.3053 -0.2705  0.2970
  623MOL0     C84032  11.903   2.685   0.047  0.4696 -0.2297 -0.9031
  623MOL0     C84033  11.935   2.710  -0.104 -0.5211 -0.5867 -0.0540
  623MOL0     C84034  12.062   2.656  -0.144  0.1595  0.1040  0.3885
  623MOL0     C84035  12.159   2.606  -0.196  0.1622  1.4907 -0.0029
  623MOL0     C84036  11.550   2.507   0.199  0.5619  0.6467 -0.2151
  623MOL0     C84037  11.407   2.487   0.213  0.3277  0.3427  0.1836
  623MOL0     H84038  11.038   2.809   0.577  1.0023 -1.0553 -2.2111
  623MOL0     H84039  10.797   2.845   0.633 -0.7295  1.3184 -2.1340
  623MOL0     H84040  10.393   2.688   0.553  0.6493  0.7835 -1.1952
  623MOL0     H84041  10.492   2.611   0.419 -2.6734 -0.3219 -0.8733
  623MOL0     H84042  10.523   2.415   0.561  3.6129  1.7212  1.5611
  623MOL0     H84043  10.498   2.506   0.706  1.9746  2.2845 -0.2976
  623MOL0     H84044  10.257   2.529   0.621  0.0835 -0.1829  2.6521
  623MOL0     H84045  10.297   2.406   0.503  0.5755 -0.0809 -0.1761
  623MOL0     H84046  10.389   2.255   0.704  1.4260  1.7914 -1.1496
  623MOL0     H84047  10.340   2.385   0.810 -1.6781  0.9494 -0.4951
  623MOL0     H84048  10.185   2.196   0.814 -3.1890  0.5356  0.9577
  623MOL0     H84049  10.093   2.322   0.735 -1.8002 -2.2170 -0.9427
  623MOL0     H84050  10.108   2.244   0.527 -3.0437 -0.8567  0.9598
  623MOL0     H84051  10.231   2.126   0.561 -0.3565 -1.1988  0.9558
  623MOL0     H84052   9.981   2.096   0.725  1.8620  0.9094  0.9240
  623MOL0     H84053   9.959   2.078   0.542  0.3245 -1.0392 -0.4701
  623MOL0     H84054  10.136   1.899   0.717 -0.5808  0.0875  0.9654
  623MOL0     H84055  10.097   1.894   0.543  0.0834  2.7964 -1.7580
  623MOL0     H84056   9.802   1.843   0.506 -0.5904  0.0793  1.3446
  623MOL0     H84057   9.575   1.754   0.571 -0.5016 -2.2874  0.5518
  623MOL0     H84058   9.566   1.661   0.717 -2.2363 -0.1155 -0.4434
  623MOL0     H84059   9.549   1.856   0.869 -2.5325  1.7879  2.2551
  623MOL0     H84060   9.405   1.812   0.778  0.8289 -1.4425 -2.1502
  623MOL0     H84061   9.506   2.014   0.618 -4.4436  0.4321  0.4108
  623MOL0     H84062   9.584   2.062   0.760  1.3098  0.3783 -0.8474
  623MOL0     H84063   9.283   2.018   0.711  0.0245  2.6624 -3.8376
  623MOL0     H84064   9.368   2.170   0.696 -0.6457 -0.0903 -0.7114
  623MOL0     H84065   9.281   2.144   1.141 -2.3752 -2.9867 -0.5199
  623MOL0     H84066   9.106   2.435   1.282  1.4395  0.4149 -0.1210
  623MOL0     H84067   9.086   2.262   1.325 -0.6011  0.3145 -0.1655
  623MOL0     H84068   9.244   2.322   1.311 -1.2678 -1.2903  4.3973
  623MOL0     H84069   8.899   2.702   1.331  0.1099  0.4767  0.6046
  623MOL0     H84070   8.709   2.850   1.366  3.0696 -0.2346 -0.7568
  623MOL0     H84071   8.311   2.693   1.234  1.1639 -1.0987 -0.1677
  623MOL0     H84072   8.350   2.642   1.407 -1.4864  1.9365  1.4723
  623MOL0     H84073   8.255   2.904   1.431 -1.3249  1.1195 -0.0073
  623MOL0     H84074   8.179   2.857   1.281 -0.8623  2.0546  1.4396
  623MOL0     H84075   8.028   2.838   1.493  3.4910  0.6236  0.3665
  623MOL0     H84076   8.140   2.707   1.544  0.1389  0.1927  0.5786
  623MOL0     H84077   8.077   2.574   1.361  0.9232  1.8992 -1.0821
  623MOL0     H84078   7.949   2.607   1.478 -1.0100  1.1810  0.7696
  623MOL0     H84079   7.997   2.733   1.205 -1.3541  0.7409 -1.1887
  623MOL0     H84080   7.886   2.815   1.319  1.5300 -0.0328  1.5631
  623MOL0     H84081   7.837   2.528   1.223 -1.0338  0.5986 -2.4184
  623MOL0     H84082   7.735   2.647   1.315 -0.7429 -0.0794  0.8246
  623MOL0     H84083   7.874   2.692   1.028 -0.8776  0.6175 -1.8307
  623MOL0     H84084   7.759   2.795   1.109 -0.8624 -0.6887  1.6307
  623MOL0     H84085   7.584   2.604   1.088  0.2542 -0.1885 -0.0747
  623MOL0     H84086   7.704   2.516   0.989 -2.2712 -1.0697  0.2604
  623MOL0     H84087   8.458   2.560   1.137  0.6227 -0.5693 -1.5953
  623MOL0     H84088   8.655   2.437   1.110 -0.3920  0.1275  1.5005
  623MOL0     H84089   9.002   2.378   0.817 -0.7079 -0.6334 -0.0149
  623MOL0     H84090   9.153   2.231   0.743 -1.2901 -0.3691  0.7219
  623MOL0     H84091  10.683   2.510   0.400  0.9190 -1.6209  2.1358
  623MOL0     H84092  10.917   2.463   0.344 -0.9563 -0.3700 -0.9504
  623MOL0     H84093  11.350   2.740   0.428  1.9131 -0.6707  2.4100
  623MOL0     H84094  11.571   2.772   0.416 -1.6346  0.5796  0.3453
  623MOL0     H84095  11.929   2.538   0.271 -1.8358  1.0335  1.1865
  623MOL0     H84096  11.800   2.417   0.236  0.8531 -0.1091  0.6620
  623MOL0     H84097  11.754   2.546   0.026  2.0683 -1.3421 -2.9926
  623MOL0     H84098  11.913   2.477   0.031 -1.5939 -0.8335 -1.4752
  623MOL0     H84099  11.985   2.694   0.118 -1.0785  0.0532  0.9380
  623MOL0     H84100  11.823   2.752   0.080 -0.0276 -1.6802  1.0140
  623MOL0     H84101  11.944   2.818  -0.121 -1.1622 -0.5528 -0.1979
  623MOL0     H84102  11.856   2.665  -0.165 -3.1544  0.2923  2.4285
  623MOL0     H84103  12.239   2.568  -0.256  0.3595  4.8465 -2.1530
  623MOL0     H84104  11.611   2.447   0.132  0.0025  2.2706 -2.2736
  623MOL0     H84105  11.358   2.417   0.147 -1.1236  1.2962  0.1766
  624MOL0     O84106   4.155   7.436  10.676 -0.9640  0.1928 -0.4412
  624MOL0     C84107   4.254   7.508  10.655 -0.0518 -0.2992  0.1158
  624MOL0     O84108   4.290   7.621  10.715  0.7544 -0.6944 -0.1097
  624MOL0     C84109   4.202   7.661  10.815 -0.1954 -0.5400 -0.1156
  624MOL0     C84110   4.226   7.644  10.950 -0.7280  0.2290 -0.5155
  624MOL0     C84111   4.132   7.692  11.044  0.8171  0.1608 -0.8462
  624MOL0     C84112   4.021   7.768  11.008  0.1911  0.3724 -0.4089
  624MOL0     O84113   3.932   7.788  11.103  0.7560 -0.3079  0.1953
  624MOL0     C84114   3.901   7.922  11.124  0.9230  0.3337  0.4714
  624MOL0     C84115   3.768   7.933  11.202  0.3185  0.1517 -0.1924
  624MOL0     C84116   3.788   7.904  11.354  0.3584  0.0206  1.2306
  624MOL0     C84117   3.649   7.905  11.422 -0.9806  0.1482  0.0895
  624MOL0     C84118   3.655   7.864  11.572  0.0228  1.4096  0.1572
  624MOL0     C84119   3.527   7.846  11.650  0.6812  0.3912  0.2012
  624MOL0     C84120   3.432   7.734  11.597 -0.4124 -0.5927  0.1351
  624MOL0     C84121   3.297   7.727  11.660 -0.6420  0.0825 -0.0537
  624MOL0     N84122   3.227   7.599  11.633 -0.2542 -0.3426 -0.1762
  624MOL0     C84123   3.281   7.477  11.602  0.5207  0.2944 -0.5792
  624MOL0     C84124   3.174   7.398  11.587  0.4293 -0.9483  0.3501
  624MOL0     C84125   3.193   7.269  11.509  0.0684  0.4865 -0.1773
  624MOL0     C84126   3.313   7.180  11.559 -0.1458 -0.3746  0.3672
  624MOL0     C84127   3.343   7.169  11.709 -0.2350 -0.4761  0.0957
  624MOL0     C84128   3.225   7.098  11.790 -0.2706 -0.4403 -0.2487
  624MOL0     O84129   3.229   7.161  11.919  0.3305 -0.0276 -0.0979
  624MOL0     C84130   3.108   7.205  11.968 -0.4175 -0.1561 -0.4579
  624MOL0     C84131   3.034   7.318  11.921 -0.7366  0.6358  0.7223
  624MOL0     C84132   2.910   7.362  11.961  0.4471  1.1836 -1.4593
  624MOL0     C84133   2.847   7.481  11.890 -0.3052  0.2198  0.6449
  624MOL0     C84134   2.854   7.302  12.076  0.1722  0.6921 -0.2527
  624MOL0     C84135   2.721   7.343  12.147  0.7885  0.4129  0.8906
  624MOL0     O84136   2.664   7.454  12.086 -0.5329 -0.2927  0.7498
  624MOL0     C84137   2.541   7.497  12.129 -0.2948  0.3016 -0.4551
  624MOL0     C84138   2.500   7.530  12.255 -0.0795  0.3963  0.8833
  624MOL0     C84139   2.371   7.576  12.278 -0.2871 -0.1318  0.5301
  624MOL0     C84140   2.277   7.585  12.176 -0.5192 -0.4047 -0.8964
  624MOL0     O84141   2.149   7.634  12.196 -0.4569 -0.0809 -0.6334
  624MOL0     C84142   2.076   7.563  12.301 -0.1590 -0.6278  1.0078
  624MOL0     C84143   1.945   7.504  12.252  0.2582 -0.0972 -0.4460
  624MOL0     C84144   1.844   7.597  12.183  0.3735  0.0704  0.4533
  624MOL0     C84145   1.797   7.722  12.239 -0.3300 -0.4639 -0.2439
  624MOL0     C84146   1.754   7.711  12.388 -0.1334  0.2747  0.6340
  624MOL0     C84147   1.596   7.698  12.386 -0.2502 -0.5115 -0.1463
  624MOL0     C84148   1.546   7.709  12.530  0.1697 -0.2576 -0.4757
  624MOL0     C84149   1.391   7.680  12.542 -0.1351  0.2767  0.2748
  624MOL0    Cl84150   1.299   7.789  12.440  0.0398  0.2642 -0.0228
  624MOL0     C84151   2.322   7.538  12.053 -0.0864 -0.2792  0.2667
  624MOL0     C84152   2.450   7.497  12.024  0.0171 -0.1672 -0.0788
  624MOL0     O84153   2.689   7.286  12.253 -0.0016 -0.2361 -0.4333
  624MOL0     C84154   2.929   7.191  12.129  0.5752 -0.5537 -0.7188
  624MOL0     C84155   3.050   7.146  12.075 -0.6716 -0.0157  0.0921
  624MOL0     N84156   3.054   7.474  11.602  0.3381  0.0047 -0.5790
  624MOL0     N84157   3.087   7.590  11.635 -0.1803 -0.2233  0.4408
  624MOL0     C84158   4.002   7.780  10.869  0.5614 -0.3146 -0.1924
  624MOL0     C84159   4.089   7.728  10.782  0.2940 -0.2527  0.4231
  624MOL0     C84160   4.365   7.443  10.574  0.4857  0.3475 -1.0157
  624MOL0     C84161   4.386   7.299  10.599  0.4836  0.0229  0.4346
  624MOL0     C84162   4.484   7.229  10.528  0.4290 -0.1056 -0.3705
  624MOL0     C84163   4.578   7.296  10.448 -0.3333  0.4127  0.3838
  624MOL0     O84164   4.678   7.240  10.382 -0.3520 -0.7785 -0.0900
  624MOL0     C84165   4.768   7.151  10.449 -0.7739 -0.0476 -0.4501
  624MOL0     C84166   4.875   7.097  10.364  0.7496  0.1039  0.3377
  624MOL0     C84167   4.800   6.993  10.266 -0.3334  0.0669 -0.5229
  624MOL0     C84168   4.743   6.860  10.338 -0.1237 -0.2305  0.5937
  624MOL0     C84169   4.596   6.873  10.362  0.3921 -0.0961  0.7999
  624MOL0     C84170   4.478   6.860  10.390 -0.6537 -0.4233 -0.1719
  624MOL0     C84171   4.562   7.439  10.431 -0.1936  0.3783  0.3463
  624MOL0     C84172   4.459   7.510  10.489 -0.1669  0.0608 -0.1431
  624MOL0     H84173   4.323   7.597  10.966 -0.6231  1.2563  2.6922
  624MOL0     H84174   4.159   7.693  11.149  0.3089  1.8812 -0.7030
  624MOL0     H84175   3.975   7.978  11.181 -2.8843  5.2411  1.3253
  624MOL0     H84176   3.880   7.983  11.036  0.0062  1.6871  1.5844
  624MOL0     H84177   3.732   8.036  11.193 -3.8969 -1.1078  0.3562
  624MOL0     H84178   3.690   7.871  11.157 -1.2509  0.9342  1.3417
  624MOL0     H84179   3.845   7.810  11.364  0.3714 -0.5924 -2.7324
  624MOL0     H84180   3.846   7.983  11.401  1.9743 -1.7733  2.4369
  624MOL0     H84181   3.608   8.007  11.419 -2.6949 -0.5353 -1.6057
  624MOL0     H84182   3.576   7.844  11.368  0.2161  0.1631 -1.6112
  624MOL0     H84183   3.707   7.769  11.590 -2.9784 -0.2691  0.5435
  624MOL0     H84184   3.720   7.929  11.630  0.9017 -0.3016  1.1854
  624MOL0     H84185   3.552   7.819  11.752 -0.2538  1.0883  0.6298
  624MOL0     H84186   3.475   7.942  11.656 -0.2466  0.0040 -1.0884
  624MOL0     H84187   3.410   7.750  11.491  1.1831 -1.9008 -0.4383
  624MOL0     H84188   3.482   7.638  11.615 -1.1475 -0.9883  0.0959
  624MOL0     H84189   3.236   7.813  11.630 -0.2498  0.4589  0.2219
  624MOL0     H84190   3.300   7.742  11.768  2.9812  1.2107 -0.1748
  624MOL0     H84191   3.385   7.444  11.602 -0.5077 -3.4558  0.9726
  624MOL0     H84192   3.097   7.219  11.526  2.3766 -4.2398  0.7389
  624MOL0     H84193   3.197   7.293  11.402  0.3313 -0.7675 -0.4719
  624MOL0     H84194   3.403   7.202  11.501  0.6562  0.6077  1.9184
  624MOL0     H84195   3.297   7.074  11.533  1.5533 -0.1838 -1.7639
  624MOL0     H84196   3.347   7.269  11.753 -0.6086  0.0199 -0.9552
  624MOL0     H84197   3.438   7.120  11.730  0.1483  0.9292  1.8669
  624MOL0     H84198   3.252   6.992  11.791  0.5885 -0.2729 -1.9638
  624MOL0     H84199   3.127   7.099  11.740 -1.3807  0.9131  1.8164
  624MOL0     H84200   3.079   7.359  11.831  1.2048  0.6089  1.6312
  624MOL0     H84201   2.751   7.461  11.841  0.8448 -2.8573 -0.6328
  624MOL0     H84202   2.834   7.571  11.951  2.1438  1.1200 -0.0517
  624MOL0     H84203   2.902   7.513  11.802 -3.7356  0.2334 -1.6892
  624MOL0     H84204   2.579   7.538  12.329 -0.9061  0.9632  1.7273
  624MOL0     H84205   2.348   7.619  12.375 -0.5216 -0.1968  0.5025
  624MOL0     H84206   2.144   7.484  12.334  1.3709 -0.0137 -0.5083
  624MOL0     H84207   2.053   7.633  12.382  1.9635  1.9532 -0.4556
  624MOL0     H84208   1.963   7.438  12.166  0.2424 -1.7160  0.7513
  624MOL0     H84209   1.907   7.440  12.331  0.8565  1.5857  1.2793
  624MOL0     H84210   1.753   7.542  12.158  1.0205 -0.6883 -0.2839
  624MOL0     H84211   1.873   7.621  12.080  0.6141  1.6684  0.8659
  624MOL0     H84212   1.876   7.798  12.242 -1.0800  0.2914  2.0075
  624MOL0     H84213   1.723   7.757  12.167 -0.6675 -3.5394 -1.5245
  624MOL0     H84214   1.783   7.804  12.439 -3.3242  0.8113  1.7242
  624MOL0     H84215   1.805   7.634  12.446 -1.0936 -1.0031 -0.1830
  624MOL0     H84216   1.553   7.775  12.321 -0.6631 -1.1609 -0.6624
  624MOL0     H84217   1.565   7.597  12.355  0.6316 -1.1901  1.0736
  624MOL0     H84218   1.566   7.806  12.577  0.1791 -0.4477 -0.0865
  624MOL0     H84219   1.596   7.637  12.594 -1.0214 -0.4500  0.2815
  624MOL0     H84220   1.363   7.691  12.647 -0.5891 -0.2330  0.2105
  624MOL0     H84221   1.379   7.577  12.507 -1.8528  0.5419  0.0348
  624MOL0     H84222   2.251   7.546  11.971  0.8546 -0.8739 -0.6330
  624MOL0     H84223   2.488   7.466  11.927 -0.7633  0.2043 -0.5062
  624MOL0     H84224   2.893   7.138  12.217  0.0402 -2.5255 -2.0515
  624MOL0     H84225   3.107   7.065  12.120 -0.1720 -0.3422 -1.1053
  624MOL0     H84226   3.907   7.819  10.834  0.1206 -1.4672 -0.3602
  624MOL0     H84227   4.083   7.757  10.677 -0.5698 -1.9487 -0.0227
  624MOL0     H84228   4.314   7.241  10.657 -0.8635 -1.4287 -2.4788
  624MOL0     H84229   4.495   7.122  10.534  1.0878 -0.0398 -0.3464
  624MOL0     H84230   4.815   7.213  10.526  1.8049  1.2572 -2.9280
  624MOL0     H84231   4.712   7.071  10.499 -4.6477  1.3237 -2.1760
  624MOL0     H84232   4.957   7.049  10.418  0.5289  0.2389  0.7929
  624MOL0     H84233   4.930   7.165  10.299  1.5757 -3.3030 -2.8611
  624MOL0     H84234   4.866   6.964  10.184  1.7312 -0.1684  1.1396
  624MOL0     H84235   4.713   7.036  10.216 -1.7979 -1.6194  0.4525
  624MOL0     H84236   4.790   6.839  10.434 -1.5731  1.8183  1.8358
  624MOL0     H84237   4.762   6.786  10.260  0.4668 -0.0398  0.5507
  624MOL0     H84238   4.376   6.842  10.417 -0.1822 -1.5681  0.9497
  624MOL0     H84239   4.627   7.481  10.356 -0.0048  0.2664  0.4442
  624MOL0     H84240   4.441   7.616  10.476 -2.3442  0.5293  4.4270
  625MOL0     O84241   8.089   9.044   6.440  0.5932 -0.1075 -0.7982
  625MOL0     C84242   8.065   9.135   6.362  0.5310 -0.0037 -0.4207
  625MOL0     O84243   7.944   9.145   6.295 -0.1172 -0.3297  0.0350
  625MOL0     C84244   7.853   9.041   6.327  0.2768 -0.1730 -0.3200
  625MOL0     C84245   7.790   9.031   6.452  0.2252  0.2786  0.7429
  625MOL0     C84246   7.700   8.933   6.477  0.1315  0.0356 -0.5298
  625MOL0     C84247   7.648   8.855   6.373 -0.6286 -0.0742  0.1097
  625MOL0     O84248   7.547   8.770   6.409 -0.3266  0.2941 -0.3377
  625MOL0     C84249   7.466   8.711   6.305  0.3167  1.2359 -1.0492
  625MOL0     C84250   7.350   8.627   6.373 -0.5667 -0.9669 -0.5878
  625MOL0     C84251   7.264   8.569   6.257  0.4394 -1.2673  0.5904
  625MOL0     C84252   7.159   8.487   6.314  0.7246 -0.6133 -0.3897
  625MOL0     C84253   7.100   8.389   6.213  0.5294  0.3906 -1.0929
  625MOL0     C84254   6.997   8.297   6.280 -0.4179  0.8400 -0.4650
  625MOL0     C84255   6.914   8.203   6.181  0.1782  0.1628 -0.4118
  625MOL0     C84256   6.878   8.066   6.240  0.1818  0.4737 -0.5471
  625MOL0     N84257   6.754   8.081   6.326 -0.0175 -0.5415  0.6165
  625MOL0     C84258   6.746   8.160   6.439 -0.0617 -0.8930 -0.1243
  625MOL0     C84259   6.608   8.172   6.457  0.3856  0.4582 -0.5807
  625MOL0     C84260   6.562   8.250   6.579 -0.3445  0.0479 -0.2695
  625MOL0     C84261   6.493   8.379   6.535 -0.2839  0.3267 -0.3330
  625MOL0     C84262   6.453   8.471   6.646 -0.1970 -0.0674 -0.8647
  625MOL0     C84263   6.358   8.576   6.597  0.0615 -0.3759  0.7364
  625MOL0     O84264   6.243   8.510   6.550  0.2002 -0.4056 -0.2721
  625MOL0     C84265   6.146   8.571   6.475 -0.6901  0.3335 -0.8607
  625MOL0     C84266   6.157   8.702   6.433 -0.1344 -0.4706  0.3458
  625MOL0     C84267   6.051   8.771   6.378 -0.5056  0.2687 -0.9605
  625MOL0     C84268   6.065   8.914   6.344 -1.1138 -0.2282  0.2852
  625MOL0     C84269   5.936   8.702   6.354 -0.4419 -0.8251  0.1539
  625MOL0     C84270   5.820   8.764   6.285 -0.3988  0.1025  1.0098
  625MOL0     O84271   5.699   8.719   6.311  0.3044 -0.1974  0.0780
  625MOL0     C84272   5.587   8.754   6.235  0.0011 -0.1208  1.0402
  625MOL0     C84273   5.567   8.887   6.198  0.7162 -0.6610  0.3878
  625MOL0     C84274   5.461   8.910   6.103 -0.5265  0.1036  0.8165
  625MOL0     C84275   5.373   8.810   6.062 -1.2537  0.2835 -0.7313
  625MOL0     O84276   5.276   8.839   5.971  0.5269  0.5767 -0.0423
  625MOL0     C84277   5.192   8.736   5.912 -0.4583  0.3762 -0.2944
  625MOL0     C84278   5.158   8.793   5.778 -0.5582 -0.0796 -0.1254
  625MOL0     C84279   5.065   8.915   5.794  0.2199 -0.1508  0.0268
  625MOL0     C84280   4.932   8.883   5.860  0.5944  0.8337  0.0773
  625MOL0     C84281   4.829   8.995   5.852  0.2939  1.1324 -0.1243
  625MOL0     C84282   4.880   9.128   5.895  0.6672  0.0716 -0.5377
  625MOL0     C84283   4.775   9.225   5.939 -0.6376 -0.7818 -0.5734
  625MOL0     C84284   4.837   9.361   5.913 -0.0223  1.8728 -0.8390
  625MOL0    Cl84285   4.722   9.482   5.956 -0.5548 -0.5964  0.1834
  625MOL0     C84286   5.391   8.682   6.108  0.2310 -0.1101  0.2309
  625MOL0     C84287   5.492   8.654   6.199 -0.5679  0.3899 -0.3471
  625MOL0     O84288   5.847   8.838   6.196 -0.1122  0.1138 -0.4861
  625MOL0     C84289   5.926   8.563   6.384 -1.0716 -0.1734 -0.0163
  625MOL0     C84290   6.033   8.500   6.445 -0.2493  0.1294  0.2100
  625MOL0     N84291   6.545   8.103   6.352 -0.3875 -0.4718  0.0615
  625MOL0     N84292   6.630   8.049   6.275 -0.8793 -0.0149  0.1996
  625MOL0     C84293   7.699   8.877   6.243 -0.7037  0.6959  0.5721
  625MOL0     C84294   7.803   8.965   6.216  0.9261 -0.0866  0.3530
  625MOL0     C84295   8.178   9.231   6.340  0.2215  0.2737  0.4383
  625MOL0     C84296   8.264   9.280   6.439  0.2303  0.0519 -0.5758
  625MOL0     C84297   8.359   9.377   6.407  0.2105 -0.5344 -0.0009
  625MOL0     C84298   8.389   9.415   6.276 -0.6685  0.7062  0.3276
  625MOL0     O84299   8.477   9.515   6.255 -0.0528 -0.2857  0.2013
  625MOL0     C84300   8.555   9.521   6.137 -0.9594  0.3072  0.1774
  625MOL0     C84301   8.686   9.605   6.148 -0.4392 -0.0653 -0.5526
  625MOL0     C84302   8.672   9.743   6.213  0.1070  0.0395 -0.3544
  625MOL0     C84303   8.808   9.817   6.227 -0.6661 -0.2262 -0.6042
  625MOL0     C84304   8.908   9.732   6.297 -0.0324  0.2170  0.2720
  625MOL0     C84305   8.994   9.667   6.346 -0.4791  0.2886 -0.4753
  625MOL0     C84306   8.305   9.356   6.179 -0.5865 -0.5218  0.5116
  625MOL0     C84307   8.197   9.273   6.210 -0.4749  0.9219 -0.2929
  625MOL0     H84308   7.821   9.089   6.539 -0.5967  1.0051  0.5672
  625MOL0     H84309   7.662   8.911   6.576 -4.6728 -0.7105 -2.2678
  625MOL0     H84310   7.423   8.785   6.237 -2.4601  0.2337 -0.5241
  625MOL0     H84311   7.522   8.633   6.253 -0.6694 -0.6951  0.6247
  625MOL0     H84312   7.391   8.555   6.444  2.1603 -0.1010 -1.1645
  625MOL0     H84313   7.286   8.696   6.429  0.3982 -0.9516  0.5178
  625MOL0     H84314   7.216   8.644   6.194 -0.9351 -0.6973  2.2727
  625MOL0     H84315   7.333   8.513   6.192  0.0193  0.1031 -1.1215
  625MOL0     H84316   7.209   8.435   6.397 -0.5130  2.2903  2.3661
  625MOL0     H84317   7.081   8.554   6.351  0.0382  0.6069 -3.6957
  625MOL0     H84318   7.058   8.445   6.129  0.4776  1.8627 -0.1155
  625MOL0     H84319   7.183   8.331   6.169  1.5711  1.3318 -0.4121
  625MOL0     H84320   7.041   8.222   6.346 -0.2059 -0.6275 -2.1895
  625MOL0     H84321   6.929   8.354   6.344  0.0145 -1.1280  1.9006
  625MOL0     H84322   6.823   8.246   6.139 -0.0883 -0.4413 -0.4653
  625MOL0     H84323   6.975   8.190   6.090 -2.2151 -1.3258 -1.9021
  625MOL0     H84324   6.963   8.018   6.289 -0.8411 -3.1595 -1.9378
  625MOL0     H84325   6.859   7.988   6.166 -0.4251 -1.7893  1.8295
  625MOL0     H84326   6.812   8.201   6.514 -0.6450 -1.6740  0.8431
  625MOL0     H84327   6.506   8.179   6.641  1.2468 -0.9160  0.1087
  625MOL0     H84328   6.648   8.278   6.641 -1.3690  0.1680  1.1492
  625MOL0     H84329   6.402   8.351   6.482 -0.9025  1.1190  0.2806
  625MOL0     H84330   6.561   8.429   6.465  4.1084 -2.7550  1.3387
  625MOL0     H84331   6.537   8.530   6.684 -1.4107  2.6794 -2.1913
  625MOL0     H84332   6.401   8.420   6.728  0.7557  1.8402  1.0174
  625MOL0     H84333   6.399   8.617   6.504 -1.5774  3.1807  1.3938
  625MOL0     H84334   6.331   8.653   6.670 -2.7365  0.6353 -1.1976
  625MOL0     H84335   6.253   8.748   6.455 -0.5266  0.5817 -0.1149
  625MOL0     H84336   6.148   8.957   6.400  0.2729  0.6856 -2.2801
  625MOL0     H84337   6.074   8.924   6.235 -2.7405 -0.5497  0.1009
  625MOL0     H84338   5.971   8.964   6.368 -0.7367  0.2790  0.7400
  625MOL0     H84339   5.628   8.969   6.235  0.7550 -1.3981  2.0299
  625MOL0     H84340   5.452   9.010   6.063  1.5268 -0.3715 -1.0364
  625MOL0     H84341   5.255   8.648   5.895 -1.0565 -0.7469  2.6502
  625MOL0     H84342   5.102   8.710   5.970  0.4941  0.4219  1.2653
  625MOL0     H84343   5.249   8.830   5.730 -0.0112  0.4817  1.2953
  625MOL0     H84344   5.103   8.721   5.717 -0.0762 -0.8654  0.3508
  625MOL0     H84345   5.044   8.959   5.696 -0.8602 -0.2599  0.1919
  625MOL0     H84346   5.121   8.989   5.852  3.7098 -2.1054 -0.5771
  625MOL0     H84347   4.890   8.795   5.811  2.6735  1.4647 -3.2034
  625MOL0     H84348   4.956   8.857   5.963 -1.4836  2.9617  1.1942
  625MOL0     H84349   4.747   8.957   5.914  0.5874 -2.6960 -1.7980
  625MOL0     H84350   4.794   9.002   5.749 -1.5767  1.5577  0.5036
  625MOL0     H84351   4.940   9.107   5.984  1.0745 -1.9593 -1.2412
  625MOL0     H84352   4.943   9.167   5.815  1.4279 -3.3981 -1.7824
  625MOL0     H84353   4.748   9.209   6.044 -0.7416 -2.2065 -0.7959
  625MOL0     H84354   4.690   9.202   5.873  0.0660  1.0034 -2.1985
  625MOL0     H84355   4.853   9.369   5.805  1.9992  0.1343 -0.7365
  625MOL0     H84356   4.934   9.379   5.958 -0.4187  1.0849  0.3933
  625MOL0     H84357   5.330   8.596   6.082  1.8478 -2.2133  2.8666
  625MOL0     H84358   5.500   8.551   6.232 -1.5931  0.8288  1.3570
  625MOL0     H84359   5.836   8.512   6.350  0.3528 -0.2194 -4.1502
  625MOL0     H84360   6.023   8.394   6.468  0.5580  0.4328  2.1629
  625MOL0     H84361   7.667   8.831   6.149  0.6209 -0.9393  0.8708
  625MOL0     H84362   7.853   8.986   6.122 -0.7160  2.8438  0.0147
  625MOL0     H84363   8.237   9.266   6.543 -1.9324 -2.3854 -1.3333
  625MOL0     H84364   8.415   9.423   6.488 -0.4987  0.1438  0.1113
  625MOL0     H84365   8.583   9.417   6.116  0.8290  0.6701  0.5608
  625MOL0     H84366   8.497   9.565   6.057 -0.4991  0.2003 -0.2214
  625MOL0     H84367   8.733   9.612   6.050 -1.9880 -1.4012 -1.4399
  625MOL0     H84368   8.752   9.548   6.215 -1.2420  0.6158  0.8829
  625MOL0     H84369   8.628   9.732   6.312 -1.1964 -3.5387 -1.1688
  625MOL0     H84370   8.608   9.809   6.154 -1.5083 -1.8611 -0.8199
  625MOL0     H84371   8.783   9.909   6.281 -1.1164 -0.4133 -0.4853
  625MOL0     H84372   8.851   9.855   6.134 -1.4962  2.5877  0.0725
  625MOL0     H84373   9.072   9.613   6.394  0.3851  2.8819  1.2637
  625MOL0     H84374   8.307   9.402   6.080 -1.0114  2.0377  1.5973
  625MOL0     H84375   8.131   9.250   6.127 -1.4258 -0.1415  0.7202
  626MOL0     O84376   4.911   9.616   5.442 -0.3572  0.4321 -0.5534
  626MOL0     C84377   5.030   9.638   5.426  0.8067 -0.0803 -0.4179
  626MOL0     O84378   5.081   9.748   5.366  0.2251  0.1758  0.1705
  626MOL0     C84379   4.991   9.846   5.340 -0.5797  0.5062 -0.3197
  626MOL0     C84380   4.890   9.824   5.243  0.8480  0.6434  0.0736
  626MOL0     C84381   4.822   9.938   5.207 -0.3558 -0.8964 -0.1836
  626MOL0     C84382   4.826  10.051   5.285 -1.0293 -0.2351  0.7293
  626MOL0     O84383   4.748  10.159   5.245 -0.1194 -0.3196  0.5932
  626MOL0     C84384   4.800  10.216   5.130 -0.7782 -0.9898  1.1567
  626MOL0     C84385   4.707  10.320   5.074 -0.2298  0.3677  0.2465
  626MOL0     C84386   4.557  10.301   5.067  0.4644 -0.1690  0.2330
  626MOL0     C84387   4.516  10.171   4.990 -0.5907 -0.3714 -0.0530
  626MOL0     C84388   4.363  10.137   4.984 -1.0163  0.6995 -0.0549
  626MOL0     C84389   4.274  10.247   4.902 -0.1835  0.0140  0.4798
  626MOL0     C84390   4.128  10.194   4.892  0.0403  0.6434 -0.0722
  626MOL0     C84391   4.074  10.170   5.037  0.9800  0.0870  0.5104
  626MOL0     N84392   3.928  10.165   5.042  0.3122  0.4195  0.0558
  626MOL0     C84393   3.839  10.271   5.014  0.4630  0.0682  0.4909
  626MOL0     C84394   3.708  10.229   5.036 -0.2319  1.0098  0.0389
  626MOL0     C84395   3.576  10.293   5.023 -0.2308  0.9208 -0.3037
  626MOL0     C84396   3.458  10.193   4.971 -0.3313 -0.2265  0.4785
  626MOL0     C84397   3.316  10.261   4.978  0.1627 -0.5818  0.1901
  626MOL0     C84398   3.280  10.366   4.867 -0.1170 -0.0326  0.6138
  626MOL0     O84399   3.288  10.313   4.732  0.0157  0.6676  0.0108
  626MOL0     C84400   3.243  10.381   4.618 -0.8499  1.6471 -0.9170
  626MOL0     C84401   3.254  10.316   4.493 -0.3917  0.1230  0.9803
  626MOL0     C84402   3.227  10.379   4.373  0.0088 -0.6692  0.3907
  626MOL0     C84403   3.276  10.325   4.240 -0.3979  0.5024  0.3682
  626MOL0     C84404   3.144  10.504   4.378  0.5069 -0.2831  0.5364
  626MOL0     C84405   3.063  10.569   4.270  0.2103 -0.6872  0.1646
  626MOL0     O84406   2.990  10.683   4.299  0.1925  0.3530 -0.2762
  626MOL0     C84407   2.901  10.723   4.208  0.1668  0.2841 -0.0184
  626MOL0     C84408   2.908  10.856   4.163 -0.0418 -0.7870  0.3826
  626MOL0     C84409   2.795  10.893   4.082  0.0461  0.2065  0.0118
  626MOL0     C84410   2.695  10.809   4.041  0.2012 -0.0832  0.2516
  626MOL0     O84411   2.591  10.879   3.979 -0.6625 -0.0171  0.1415
  626MOL0     C84412   2.512  10.806   3.879  0.7322  0.2800 -1.0241
  626MOL0     C84413   2.415  10.904   3.802  0.6474  0.1473  0.1497
  626MOL0     C84414   2.325  10.990   3.899 -0.2545 -0.2449 -0.7511
  626MOL0     C84415   2.213  11.052   3.818 -0.1593  0.1020 -0.0117
  626MOL0     C84416   2.102  10.952   3.785 -1.2921  0.2621  0.3268
  626MOL0     C84417   1.967  11.023   3.799  0.2843  0.2931 -0.4143
  626MOL0     C84418   1.859  10.925   3.771  0.4152  0.4739 -0.7447
  626MOL0     C84419   1.723  10.987   3.805 -0.0568 -0.5244  0.1806
  626MOL0    Cl84420   1.701  11.138   3.715  0.0288 -0.7678 -0.1110
  626MOL0     C84421   2.699  10.675   4.083  0.4790 -0.5928  1.0474
  626MOL0     C84422   2.797  10.629   4.167  0.5920 -0.4454 -0.4959
  626MOL0     O84423   3.065  10.514   4.162  0.4443 -0.3030  0.0762
  626MOL0     C84424   3.124  10.553   4.514 -0.4634  0.2984 -0.4630
  626MOL0     C84425   3.177  10.496   4.633  0.5525 -0.5870  0.5656
  626MOL0     N84426   3.729  10.098   5.079  0.1091 -0.5378  0.3457
  626MOL0     N84427   3.855  10.055   5.076  0.7075 -0.2115 -0.0233
  626MOL0     C84428   4.914  10.069   5.386 -0.1799 -0.0379 -0.2053
  626MOL0     C84429   5.001   9.966   5.408 -0.0764 -0.9633  0.0971
  626MOL0     C84430   5.110   9.523   5.461  0.4162  0.4598  0.0713
  626MOL0     C84431   5.060   9.413   5.531 -0.0314 -0.1662 -0.1176
  626MOL0     C84432   5.139   9.305   5.569  0.3401 -0.1169 -0.1680
  626MOL0     C84433   5.270   9.302   5.519  0.8158 -0.7477 -0.1464
  626MOL0     O84434   5.336   9.181   5.518 -0.3358 -0.0511  0.3377
  626MOL0     C84435   5.405   9.151   5.644  0.2589  0.5508  0.5535
  626MOL0     C84436   5.450   9.006   5.637 -0.0079  0.2359  0.8978
  626MOL0     C84437   5.549   8.996   5.520  0.1905 -0.3992 -0.7921
  626MOL0     C84438   5.688   9.001   5.569 -0.1468 -0.5598 -0.0242
  626MOL0     C84439   5.734   8.868   5.601 -0.0601  0.0227 -0.1368
  626MOL0     C84440   5.771   8.758   5.634  0.9304 -0.1884 -0.1660
  626MOL0     C84441   5.326   9.412   5.456 -0.1089  0.2694  0.2227
  626MOL0     C84442   5.243   9.519   5.421  0.1291  0.1381 -0.2472
  626MOL0     H84443   4.896   9.727   5.194 -0.2929  0.9050 -0.6045
  626MOL0     H84444   4.758   9.930   5.120  0.3271 -1.2307 -0.6654
  626MOL0     H84445   4.896  10.263   5.152 -0.4343 -1.9540  1.7653
  626MOL0     H84446   4.804  10.141   5.051  1.6191 -0.2706  0.5208
  626MOL0     H84447   4.713  10.403   5.145 -0.9036  0.5938  0.0471
  626MOL0     H84448   4.740  10.347   4.973 -2.7339 -1.6224 -1.2497
  626MOL0     H84449   4.511  10.288   5.165 -0.3765 -3.8781 -0.4712
  626MOL0     H84450   4.505  10.389   5.029 -2.5539 -1.8939  0.0437
  626MOL0     H84451   4.561  10.183   4.891 -1.5953  0.5106 -0.4208
  626MOL0     H84452   4.566  10.088   5.041  1.3401  0.7412 -0.0335
  626MOL0     H84453   4.357  10.038   4.939 -1.5027  0.5920  0.2390
  626MOL0     H84454   4.331  10.148   5.088  1.4522  0.2542  0.8150
  626MOL0     H84455   4.292  10.341   4.956  3.4765 -0.5637  0.5119
  626MOL0     H84456   4.317  10.266   4.803 -0.9041 -0.5625  0.0494
  626MOL0     H84457   4.060  10.259   4.835 -2.5714 -2.1537 -0.3986
  626MOL0     H84458   4.133  10.104   4.830  1.9997  1.3714 -1.0557
  626MOL0     H84459   4.101  10.249   5.107 -0.3804  0.8617  0.2012
  626MOL0     H84460   4.113  10.080   5.085  2.0864 -0.0635 -0.6117
  626MOL0     H84461   3.866  10.372   4.982 -0.5820  0.0794 -0.4216
  626MOL0     H84462   3.542  10.346   5.112 -0.5315  1.7420 -0.8823
  626MOL0     H84463   3.581  10.381   4.958  0.9844  2.7140  2.0643
  626MOL0     H84464   3.461  10.099   5.026  2.7143 -1.1915 -1.0643
  626MOL0     H84465   3.467  10.149   4.871  2.7729 -2.0680  1.4096
  626MOL0     H84466   3.304  10.300   5.079  1.1308 -1.5465  0.7005
  626MOL0     H84467   3.253  10.172   4.969  0.6246 -0.8602 -0.4478
  626MOL0     H84468   3.363  10.437   4.876  0.0959  0.1632 -1.9974
  626MOL0     H84469   3.188  10.412   4.903 -1.2658 -0.8857 -1.0698
  626MOL0     H84470   3.300  10.218   4.490 -0.2901 -0.0182  3.8919
  626MOL0     H84471   3.347  10.243   4.255  0.2342  0.9427 -0.1681
  626MOL0     H84472   3.191  10.278   4.189  1.4676 -1.2778 -1.2473
  626MOL0     H84473   3.323  10.398   4.175 -0.6100  0.3449  0.0371
  626MOL0     H84474   2.988  10.917   4.204 -1.5370 -0.5927  3.2515
  626MOL0     H84475   2.802  10.997   4.051  0.6568  0.3158  0.4950
  626MOL0     H84476   2.572  10.746   3.810 -0.1137 -0.1484 -1.4033
  626MOL0     H84477   2.447  10.731   3.926  0.4692  1.7611  1.1442
  626MOL0     H84478   2.479  10.969   3.741  2.0036 -0.7271  0.5935
  626MOL0     H84479   2.358  10.836   3.739  1.2088 -1.6927  1.5401
  626MOL0     H84480   2.371  11.074   3.950 -0.6138  0.4479 -1.5377
  626MOL0     H84481   2.279  10.928   3.977  0.3780 -0.5110 -0.5847
  626MOL0     H84482   2.167  11.134   3.874 -2.7333 -1.4546  0.2848
  626MOL0     H84483   2.244  11.092   3.721 -0.9997  2.2047  0.5334
  626MOL0     H84484   2.104  10.864   3.849 -4.3245  1.3860  2.1953
  626MOL0     H84485   2.099  10.926   3.678 -0.7052  4.4663 -0.9151
  626MOL0     H84486   1.954  11.061   3.901 -1.2705  1.7646 -1.1150
  626MOL0     H84487   1.956  11.111   3.735 -2.7451  1.2336  1.1923
  626MOL0     H84488   1.875  10.841   3.840 -1.6638 -0.8385 -1.7610
  626MOL0     H84489   1.858  10.898   3.665  0.9857  0.7337 -0.8206
  626MOL0     H84490   1.733  11.014   3.911  1.4203  1.1012 -0.3260
  626MOL0     H84491   1.640  10.917   3.789 -0.1206 -0.5824  0.7394
  626MOL0     H84492   2.617  10.612   4.051 -0.8553 -0.0950  3.2910
  626MOL0     H84493   2.805  10.523   4.189  0.2331 -0.4069 -0.1931
  626MOL0     H84494   3.067  10.643   4.535  1.3487  0.6792  3.9616
  626MOL0     H84495   3.160  10.557   4.722 -1.3072  0.1929 -0.2509
  626MOL0     H84496   4.918  10.161   5.443 -0.5368  0.3630 -0.8178
  626MOL0     H84497   5.082   9.982   5.478  0.6426  1.2990 -1.1692
  626MOL0     H84498   4.955   9.410   5.559 -0.1106 -0.5666 -0.4423
  626MOL0     H84499   5.090   9.235   5.636  0.2905  1.0766  1.0783
  626MOL0     H84500   5.485   9.222   5.664  0.8301  0.7958 -2.1340
  626MOL0     H84501   5.340   9.156   5.732  1.1816 -1.1449  1.3835
  626MOL0     H84502   5.371   8.943   5.597  0.3129  2.4546 -4.0103
  626MOL0     H84503   5.478   8.952   5.728  3.8138 -2.2150 -1.4262
  626MOL0     H84504   5.549   9.070   5.439  1.7362 -1.2213 -1.5828
  626MOL0     H84505   5.524   8.901   5.473 -1.6519  0.0093 -0.6981
  626MOL0     H84506   5.702   9.074   5.649  2.1189  0.2937 -1.0958
  626MOL0     H84507   5.754   9.036   5.488  0.6048 -0.7684  0.4898
  626MOL0     H84508   5.804   8.659   5.660  1.1138 -0.5752 -1.7830
  626MOL0     H84509   5.427   9.424   5.419 -0.1807  0.3067  0.0360
  626MOL0     H84510   5.276   9.604   5.363  0.4951 -0.2608 -0.6285
  627MOL0     O84511   4.976   9.533   2.285  0.1391  0.3566 -0.3365
  627MOL0     C84512   5.005   9.408   2.279 -0.6419  0.3798  1.3025
  627MOL0     O84513   4.915   9.304   2.274 -0.2185  0.6199  1.1763
  627MOL0     C84514   4.777   9.334   2.274 -0.6595 -1.0711 -0.3457
  627MOL0     C84515   4.729   9.429   2.360  1.1252 -0.5874  0.4715
  627MOL0     C84516   4.592   9.458   2.365  0.3175  0.0854  0.6484
  627MOL0     C84517   4.508   9.394   2.268  0.2240 -0.9105  0.5120
  627MOL0     O84518   4.372   9.435   2.271 -0.2261 -0.0203  0.0525
  627MOL0     C84519   4.322   9.455   2.143  0.0213  0.0631 -0.1148
  627MOL0     C84520   4.189   9.528   2.147 -0.5163 -0.0251  0.3897
  627MOL0     C84521   4.096   9.482   2.034  1.1403 -0.5877  0.0832
  627MOL0     C84522   3.962   9.561   2.053  0.3500 -0.0766  0.1670
  627MOL0     C84523   3.845   9.539   1.949 -0.2518 -0.2399  0.9539
  627MOL0     C84524   3.704   9.591   1.978 -0.0358  0.1151 -0.3923
  627MOL0     C84525   3.629   9.600   1.847 -0.2201 -1.1520 -0.4318
  627MOL0     C84526   3.599   9.468   1.782 -0.6128 -0.3172 -0.2499
  627MOL0     N84527   3.459   9.420   1.796 -0.0468  0.1700  0.0108
  627MOL0     C84528   3.378   9.439   1.902  0.3310  1.0209  0.0784
  627MOL0     C84529   3.262   9.383   1.858  0.1559 -0.6506  0.6585
  627MOL0     C84530   3.126   9.372   1.939 -0.4270 -0.1665  0.2270
  627MOL0     C84531   3.122   9.231   2.003  0.0336  0.4865 -0.1052
  627MOL0     C84532   2.997   9.211   2.086  0.7772  0.4369  1.0123
  627MOL0     C84533   2.972   9.056   2.115  0.4034  0.0808 -0.9796
  627MOL0     O84534   2.836   9.007   2.102  0.0069 -0.2842 -0.2306
  627MOL0     C84535   2.746   8.988   2.210 -0.4150 -0.6868 -0.0448
  627MOL0     C84536   2.768   9.030   2.338  0.9992 -0.1942  0.7676
  627MOL0     C84537   2.677   8.999   2.442  0.8082 -0.1365  0.5458
  627MOL0     C84538   2.691   9.072   2.580 -0.3069 -1.0481 -0.5781
  627MOL0     C84539   2.564   8.916   2.402 -0.2211  0.3844  0.9870
  627MOL0     C84540   2.450   8.880   2.499 -0.1284  0.1339 -0.8173
  627MOL0     O84541   2.369   8.783   2.455  0.5839 -0.4520  0.2099
  627MOL0     C84542   2.264   8.720   2.527  0.6663  0.0253 -0.9810
  627MOL0     C84543   2.221   8.594   2.501 -0.4306  0.2370  0.4904
  627MOL0     C84544   2.114   8.526   2.557  0.9287 -0.3132  0.1370
  627MOL0     C84545   2.039   8.593   2.658 -0.9103 -0.0382  0.2804
  627MOL0     O84546   1.936   8.526   2.720 -0.4708  0.2942 -0.3744
  627MOL0     C84547   1.831   8.610   2.770  0.2238  0.0143  1.0568
  627MOL0     C84548   1.710   8.517   2.775  0.7180 -0.1446 -0.0940
  627MOL0     C84549   1.580   8.600   2.773 -0.2948 -1.4100 -0.4019
  627MOL0     C84550   1.456   8.525   2.797 -0.5434  0.9350 -1.4660
  627MOL0     C84551   1.435   8.478   2.944  0.0704 -0.9366 -0.3725
  627MOL0     C84552   1.293   8.421   2.962  0.5435 -0.5970 -0.2432
  627MOL0     C84553   1.269   8.347   3.090  0.7021  0.4283 -0.3669
  627MOL0     C84554   1.157   8.240   3.092 -0.5873 -0.3279 -0.0601
  627MOL0    Cl84555   0.999   8.327   3.064 -0.3505 -0.2756  0.2358
  627MOL0     C84556   2.085   8.722   2.688  0.6449  0.3631  0.0607
  627MOL0     C84557   2.192   8.786   2.618  0.6284 -0.7000  0.3864
  627MOL0     O84558   2.446   8.936   2.611  0.1062  0.1749  0.5253
  627MOL0     C84559   2.554   8.859   2.270  0.0019  0.1566 -0.5729
  627MOL0     C84560   2.643   8.902   2.175  0.0118  1.2246  0.1534
  627MOL0     N84561   3.280   9.327   1.731  0.0909  0.1561  0.1334
  627MOL0     N84562   3.400   9.352   1.700  0.5884 -0.5940  0.7478
  627MOL0     C84563   4.559   9.299   2.186 -0.2597 -0.4351 -0.2421
  627MOL0     C84564   4.695   9.264   2.191  0.7028  0.3401  0.2412
  627MOL0     C84565   5.143   9.364   2.241 -0.4817  0.4657  0.2198
  627MOL0     C84566   5.222   9.454   2.164  0.0084 -0.3325 -0.9214
  627MOL0     C84567   5.353   9.430   2.123 -0.7657  0.5095  0.3782
  627MOL0     C84568   5.411   9.309   2.163 -0.2890  0.5110  0.9756
  627MOL0     O84569   5.545   9.275   2.156 -0.5666 -0.4546 -0.4233
  627MOL0     C84570   5.632   9.347   2.075  0.4035 -0.6849  0.4127
  627MOL0     C84571   5.779   9.302   2.103  0.4727  0.4508 -0.6552
  627MOL0     C84572   5.889   9.349   2.005 -0.2476  0.1579  0.1591
  627MOL0     C84573   5.899   9.500   2.013  0.7271  0.4974  0.2731
  627MOL0     C84574   6.019   9.540   1.930  0.6674  0.0130  0.1920
  627MOL0     C84575   6.093   9.587   1.851 -1.1037 -0.2257  0.2536
  627MOL0     C84576   5.334   9.218   2.231  0.3107 -0.0901  0.4207
  627MOL0     C84577   5.200   9.239   2.265  0.3332  0.0952 -0.1343
  627MOL0     H84578   4.794   9.473   2.436  0.6530  0.7486  0.1320
  627MOL0     H84579   4.548   9.518   2.444  0.1242 -0.3289  0.8634
  627MOL0     H84580   4.398   9.511   2.087  0.3745 -0.8294 -0.5647
  627MOL0     H84581   4.306   9.366   2.081  2.1335 -1.1824  1.0224
  627MOL0     H84582   4.147   9.504   2.245 -4.3747 -2.4928 -1.6092
  627MOL0     H84583   4.213   9.631   2.120 -1.3555 -0.8315 -4.2163
  627MOL0     H84584   4.151   9.508   1.943  1.4466  0.8267  0.6526
  627MOL0     H84585   4.066   9.378   2.054  0.3123  0.0540  2.5465
  627MOL0     H84586   3.919   9.524   2.147 -1.4954  3.5345  0.9435
  627MOL0     H84587   3.977   9.669   2.063  2.0454 -0.4091  1.9557
  627MOL0     H84588   3.877   9.593   1.859  0.6424 -0.6363  1.0218
  627MOL0     H84589   3.838   9.432   1.929  0.2908 -0.7263  3.1064
  627MOL0     H84590   3.660   9.515   2.043  0.2028 -2.1537 -2.7205
  627MOL0     H84591   3.705   9.690   2.025  1.6864 -0.1121  0.1155
  627MOL0     H84592   3.534   9.652   1.856  0.1940  0.2673 -3.0436
  627MOL0     H84593   3.687   9.662   1.777  0.0681  1.6956  2.1436
  627MOL0     H84594   3.665   9.390   1.822 -0.8000 -1.8910 -2.8070
  627MOL0     H84595   3.625   9.469   1.676 -2.2965  0.4041 -0.6799
  627MOL0     H84596   3.390   9.483   2.000 -1.6816  0.6231  0.5472
  627MOL0     H84597   3.130   9.454   2.012  0.9543  0.9393 -1.0302
  627MOL0     H84598   3.038   9.377   1.874 -0.3502 -2.5419 -0.1342
  627MOL0     H84599   3.207   9.224   2.070  1.0780  3.1908 -0.9824
  627MOL0     H84600   3.120   9.157   1.922  2.2137 -0.0119  0.2386
  627MOL0     H84601   2.913   9.252   2.030  0.7790  0.7841  1.2590
  627MOL0     H84602   3.010   9.272   2.176 -0.1161  0.2756  1.2553
  627MOL0     H84603   3.009   9.043   2.217 -1.9392  0.5128 -0.0009
  627MOL0     H84604   3.037   9.006   2.042  1.9951  0.3054  0.2470
  627MOL0     H84605   2.849   9.098   2.361  0.0040  1.0473  0.6874
  627MOL0     H84606   2.608   9.142   2.597 -1.4540 -2.0022 -1.9694
  627MOL0     H84607   2.704   8.996   2.657 -2.6729 -1.0747 -0.1259
  627MOL0     H84608   2.774   9.143   2.587 -1.7785  0.5662  2.2269
  627MOL0     H84609   2.284   8.541   2.431 -0.7736 -0.9608  1.0531
  627MOL0     H84610   2.102   8.420   2.534 -1.7055 -0.3296  1.1828
  627MOL0     H84611   1.863   8.655   2.865  1.1270 -0.3529  0.9397
  627MOL0     H84612   1.814   8.693   2.701  2.2601 -2.2486 -2.4413
  627MOL0     H84613   1.713   8.457   2.684  0.7382  1.1414 -0.9566
  627MOL0     H84614   1.705   8.445   2.858 -0.0456 -0.5339 -0.4783
  627MOL0     H84615   1.582   8.655   2.678  0.9767 -1.8746 -0.6548
  627MOL0     H84616   1.595   8.680   2.846  2.2731  0.0656 -2.3489
  627MOL0     H84617   1.369   8.590   2.790 -0.6900  1.3812  2.3971
  627MOL0     H84618   1.454   8.437   2.732 -1.1887 -1.9951  2.1693
  627MOL0     H84619   1.451   8.561   3.014 -0.1175 -2.2873  1.3296
  627MOL0     H84620   1.506   8.399   2.971  1.0904  0.5513  1.6148
  627MOL0     H84621   1.216   8.498   2.952 -2.0148 -2.9902 -0.6113
  627MOL0     H84622   1.288   8.352   2.876  3.7103 -0.3184 -0.7453
  627MOL0     H84623   1.252   8.418   3.172 -1.0565 -0.5589  0.1718
  627MOL0     H84624   1.356   8.282   3.104 -0.9311 -2.2388 -1.9244
  627MOL0     H84625   1.141   8.199   3.192 -3.1509 -1.5053 -0.8961
  627MOL0     H84626   1.161   8.157   3.021 -3.4462 -1.8493  1.4104
  627MOL0     H84627   2.044   8.770   2.776 -1.9036 -1.1783 -0.1945
  627MOL0     H84628   2.224   8.889   2.633  1.1853 -1.0150  1.4518
  627MOL0     H84629   2.467   8.799   2.247 -3.0873  3.7824  0.5273
  627MOL0     H84630   2.622   8.875   2.072 -3.2672 -1.3766  1.2784
  627MOL0     H84631   4.493   9.231   2.133  0.0817 -2.2806  1.5606
  627MOL0     H84632   4.740   9.190   2.125  0.4890  0.6025 -0.2066
  627MOL0     H84633   5.174   9.547   2.135 -0.2670  0.1783  1.0308
  627MOL0     H84634   5.412   9.508   2.077 -1.4310 -1.0497 -3.4757
  627MOL0     H84635   5.604   9.324   1.972 -0.4133  1.1034  0.2000
  627MOL0     H84636   5.616   9.455   2.079 -0.1763 -0.7544  0.0927
  627MOL0     H84637   5.786   9.193   2.106  0.3035  0.3610 -2.4726
  627MOL0     H84638   5.807   9.342   2.201  1.9613 -1.9621  0.0147
  627MOL0     H84639   5.860   9.321   1.903  0.0786 -1.3255  0.4462
  627MOL0     H84640   5.986   9.308   2.034  1.4361  2.9459 -1.1679
  627MOL0     H84641   5.901   9.536   2.116  0.7832 -2.7186  1.4891
  627MOL0     H84642   5.823   9.551   1.953  0.5947 -0.7581 -0.6785
  627MOL0     H84643   6.153   9.654   1.794 -0.5248 -0.6076  0.4004
  627MOL0     H84644   5.387   9.131   2.268  0.9806 -0.4632 -1.3297
  627MOL0     H84645   5.138   9.164   2.315 -1.7939  0.9359 -1.3749
  628MOL0     O84646   2.323   4.112   0.550  0.4478 -0.2415  0.4563
  628MOL0     C84647   2.364   3.997   0.519  0.5984 -0.6714 -0.2458
  628MOL0     O84648   2.290   3.908   0.445 -0.1971  0.9114 -0.1741
  628MOL0     C84649   2.159   3.944   0.431 -0.3669  0.5709 -0.4035
  628MOL0     C84650   2.069   3.860   0.490 -0.2928  0.3103  0.5298
  628MOL0     C84651   1.930   3.880   0.480  0.2713 -0.1268  1.0606
  628MOL0     C84652   1.880   3.986   0.399  0.3019 -0.0046  0.1374
  628MOL0     O84653   1.742   3.975   0.371  0.3344 -0.1617  0.5373
  628MOL0     C84654   1.691   4.065   0.269  0.1554  0.0558 -0.0163
  628MOL0     C84655   1.538   4.062   0.277 -0.5283 -0.3473 -0.2664
  628MOL0     C84656   1.482   4.168   0.181  0.0111 -0.5287  0.0602
  628MOL0     C84657   1.337   4.122   0.180  0.6335 -0.3874 -0.9812
  628MOL0     C84658   1.253   4.234   0.120  0.1459 -0.0409  0.0496
  628MOL0     C84659   1.104   4.207   0.073 -0.4984  0.7548  0.7166
  628MOL0     C84660   1.062   4.305  -0.042 -0.2842  0.3788  0.1404
  628MOL0     C84661   1.013   4.441   0.004  0.4739  0.4035 -0.3329
  628MOL0     N84662   0.904   4.459   0.100  0.1823  0.3812 -0.4504
  628MOL0     C84663   0.915   4.441   0.235 -0.3304 -0.0349 -0.6379
  628MOL0     C84664   0.785   4.442   0.285 -0.4186 -0.9610 -0.2040
  628MOL0     C84665   0.745   4.416   0.417 -0.3394  0.3053 -1.6863
  628MOL0     C84666   0.746   4.260   0.445  0.5847  0.0581 -0.5777
  628MOL0     C84667   0.634   4.176   0.378 -0.4251  0.4300  0.9935
  628MOL0     C84668   0.492   4.234   0.390 -0.2335 -0.4554 -0.0273
  628MOL0     O84669   0.394   4.125   0.384 -0.4520 -0.3737 -0.4635
  628MOL0     C84670   0.264   4.155   0.408 -0.0686  0.5873 -0.1354
  628MOL0     C84671   0.191   4.233   0.326 -0.0717  0.1768  0.4199
  628MOL0     C84672   0.059   4.261   0.344 -0.2321  0.8986  0.1026
  628MOL0     C84673  -0.001   4.365   0.254  0.3021 -0.5590  0.9628
  628MOL0     C84674  -0.012   4.183   0.444 -0.0988 -0.0408  0.6100
  628MOL0     C84675  -0.158   4.190   0.466  0.3285 -0.6308 -0.0521
  628MOL0     O84676  -0.204   4.141   0.587 -0.5291  0.5912 -0.0973
  628MOL0     C84677  -0.319   4.168   0.645 -0.1531  0.7029 -0.1583
  628MOL0     C84678  -0.358   4.086   0.753 -0.2013  0.4659  0.2102
  628MOL0     C84679  -0.466   4.125   0.833  1.0848  0.2166  0.0494
  628MOL0     C84680  -0.549   4.229   0.803 -0.1173 -0.4305  0.4130
  628MOL0     O84681  -0.663   4.257   0.875 -0.1497  0.1403 -0.0055
  628MOL0     C84682  -0.716   4.162   0.977 -0.2990  0.0854 -0.3423
  628MOL0     C84683  -0.649   4.188   1.112 -0.4033 -0.3942 -0.4238
  628MOL0     C84684  -0.641   4.062   1.194 -0.1668 -0.0986  0.3941
  628MOL0     C84685  -0.535   4.077   1.308  0.3138 -0.9488 -0.8765
  628MOL0     C84686  -0.598   4.145   1.429  0.2103 -0.1751  0.7709
  628MOL0     C84687  -0.493   4.171   1.547 -1.1153  0.9201  0.0768
  628MOL0     C84688  -0.566   4.170   1.676  0.2152  0.0875 -0.2895
  628MOL0     C84689  -0.628   4.303   1.712  0.0010  0.0102 -0.0553
  628MOL0    Cl84690  -0.794   4.329   1.636  0.0506  0.4869  0.1024
  628MOL0     C84691  -0.517   4.320   0.699 -0.2545 -0.2356 -1.4068
  628MOL0     C84692  -0.400   4.282   0.622 -0.5344 -1.0300 -0.3645
  628MOL0     O84693  -0.227   4.258   0.391 -0.5015  0.2193 -0.0186
  628MOL0     C84694   0.057   4.090   0.525  0.6600 -0.4414 -0.0404
  628MOL0     C84695   0.193   4.075   0.507  0.2547 -0.1985  0.3083
  628MOL0     N84696   0.700   4.471   0.180  0.1309  0.5816 -0.3010
  628MOL0     N84697   0.773   4.468   0.074  0.0099  0.2474  0.5557
  628MOL0     C84698   1.975   4.079   0.341  0.1088 -0.2229 -0.2033
  628MOL0     C84699   2.111   4.056   0.363  0.5406  0.6604  0.0540
  628MOL0     C84700   2.497   3.949   0.563  0.0042 -1.1329  0.0349
  628MOL0     C84701   2.562   3.842   0.500 -0.1772 -0.0461  0.2741
  628MOL0     C84702   2.685   3.800   0.545 -0.5974 -0.2175 -0.5479
  628MOL0     C84703   2.749   3.870   0.647  0.5245  0.2303  0.6109
  628MOL0     O84704   2.877   3.839   0.666 -0.6358 -0.9734  0.7453
  628MOL0     C84705   2.956   3.905   0.770  0.5178 -0.8888  0.8305
  628MOL0     C84706   3.106   3.864   0.767 -0.5924  0.2577 -0.4659
  628MOL0     C84707   3.121   3.727   0.825  0.1549  1.1828  0.1294
  628MOL0     C84708   3.266   3.664   0.786  0.1626 -0.1759 -0.7547
  628MOL0     C84709   3.258   3.608   0.648  0.4064  0.3369 -0.4489
  628MOL0     C84710   3.268   3.574   0.533  0.3686 -0.0467 -0.4057
  628MOL0     C84711   2.679   3.966   0.717 -0.5402  0.3056  0.1736
  628MOL0     C84712   2.549   4.004   0.676  0.0664  0.5659  0.5173
  628MOL0     H84713   2.101   3.767   0.535 -1.0012 -1.0415 -1.6114
  628MOL0     H84714   1.856   3.808   0.514  0.0141 -2.5368 -3.8450
  628MOL0     H84715   1.706   4.173   0.274 -3.5726  0.8662 -2.1057
  628MOL0     H84716   1.736   4.046   0.171 -2.1865  1.6480 -1.5217
  628MOL0     H84717   1.498   3.963   0.254 -2.4251 -0.2189  2.1276
  628MOL0     H84718   1.501   4.085   0.377 -1.0113  1.3150 -0.8092
  628MOL0     H84719   1.494   4.269   0.222  1.3953 -1.0849  1.1033
  628MOL0     H84720   1.525   4.167   0.081  1.2238  0.2610  0.5508
  628MOL0     H84721   1.329   4.026   0.127  0.0685 -0.7801 -0.2047
  628MOL0     H84722   1.303   4.111   0.283  1.9357  0.1740 -0.4806
  628MOL0     H84723   1.248   4.320   0.188 -1.5413 -0.1367  0.0983
  628MOL0     H84724   1.304   4.257   0.026 -0.1481  1.1782  0.1659
  628MOL0     H84725   1.105   4.105   0.032 -1.3170  0.4016  1.5339
  628MOL0     H84726   1.029   4.211   0.152 -0.3467  2.1518  0.8125
  628MOL0     H84727   1.149   4.323  -0.106  1.5570 -1.1234  2.0698
  628MOL0     H84728   0.978   4.259  -0.094 -1.1923  2.8804 -0.7348
  628MOL0     H84729   0.979   4.491  -0.086  1.8491  0.7545 -0.6816
  628MOL0     H84730   1.097   4.498   0.046 -0.0589 -0.8599  2.7409
  628MOL0     H84731   1.006   4.425   0.291 -0.3609  4.9339  1.2841
  628MOL0     H84732   0.805   4.471   0.489 -4.0012  2.1753  0.2050
  628MOL0     H84733   0.643   4.455   0.429 -0.7205  1.4394 -6.4632
  628MOL0     H84734   0.748   4.248   0.554  4.0061  0.0802 -0.5085
  628MOL0     H84735   0.842   4.222   0.409  0.3728  2.0112 -3.5739
  628MOL0     H84736   0.643   4.076   0.420 -1.6843  0.2870  0.9604
  628MOL0     H84737   0.647   4.183   0.270 -0.7356  4.5058  1.0450
  628MOL0     H84738   0.472   4.298   0.304  0.0679 -0.7056 -0.2868
  628MOL0     H84739   0.484   4.285   0.487 -1.6847 -0.3710 -0.1684
  628MOL0     H84740   0.240   4.278   0.240 -0.5008  1.4625  0.8199
  628MOL0     H84741   0.084   4.425   0.218  0.8883 -1.5245  0.7045
  628MOL0     H84742  -0.074   4.313   0.191  0.0639  0.0514  0.7223
  628MOL0     H84743  -0.074   4.434   0.298 -0.3574 -0.5544 -0.0961
  628MOL0     H84744  -0.300   3.996   0.772 -1.9979 -0.3693  2.1444
  628MOL0     H84745  -0.483   4.065   0.921 -3.8676  2.8503  1.2659
  628MOL0     H84746  -0.825   4.169   0.980 -0.2898  0.8048 -1.2580
  628MOL0     H84747  -0.691   4.063   0.937  0.0566  0.8586 -2.1679
  628MOL0     H84748  -0.549   4.230   1.095 -1.1246  1.0226 -1.4296
  628MOL0     H84749  -0.693   4.275   1.162 -1.3807 -0.6923 -0.7529
  628MOL0     H84750  -0.607   3.980   1.130  3.4426  0.4820  1.3268
  628MOL0     H84751  -0.740   4.039   1.234 -0.6124  0.9813 -0.0551
  628MOL0     H84752  -0.510   3.972   1.327  0.7844 -0.8245 -0.7856
  628MOL0     H84753  -0.443   4.125   1.273 -1.3796  0.4256 -3.7876
  628MOL0     H84754  -0.680   4.082   1.464 -1.6028  1.6826  0.0735
  628MOL0     H84755  -0.638   4.239   1.390 -0.6002 -0.8055  0.0518
  628MOL0     H84756  -0.420   4.090   1.547 -0.9585  1.0578  0.7237
  628MOL0     H84757  -0.442   4.267   1.537 -0.9527  1.3775  3.7662
  628MOL0     H84758  -0.489   4.147   1.751  0.4990  0.3237 -0.5024
  628MOL0     H84759  -0.636   4.088   1.692  1.3018 -1.0184 -1.0063
  628MOL0     H84760  -0.570   4.391   1.684 -1.0434  0.3018 -1.4082
  628MOL0     H84761  -0.651   4.296   1.819  0.3448  2.0280  0.1867
  628MOL0     H84762  -0.570   4.413   0.681  1.2073  0.3708 -2.8210
  628MOL0     H84763  -0.366   4.354   0.549  1.6895 -1.5141  0.0952
  628MOL0     H84764   0.010   4.048   0.613 -0.8457  0.0294 -0.5755
  628MOL0     H84765   0.235   4.005   0.578 -0.6497 -0.2951  0.7601
  628MOL0     H84766   1.937   4.161   0.280  0.5727 -0.0214 -0.2283
  628MOL0     H84767   2.179   4.129   0.321 -0.3812  3.1952  2.6389
  628MOL0     H84768   2.518   3.790   0.415 -4.1090  1.8744  0.9320
  628MOL0     H84769   2.733   3.724   0.486 -2.4900 -0.2200 -2.1807
  628MOL0     H84770   2.954   4.013   0.753  1.2835 -0.9038  0.5939
  628MOL0     H84771   2.914   3.878   0.867 -0.7582 -0.4985  0.3983
  628MOL0     H84772   3.181   3.929   0.814  1.5119 -0.8112 -2.1681
  628MOL0     H84773   3.124   3.860   0.660 -2.9801  0.2622 -0.9328
  628MOL0     H84774   3.040   3.661   0.793  1.0288 -0.1933  0.6877
  628MOL0     H84775   3.103   3.733   0.932 -1.6206  0.3707 -0.0801
  628MOL0     H84776   3.296   3.594   0.865  0.9585  1.3755  0.3855
  628MOL0     H84777   3.345   3.740   0.792 -0.4210  0.3488  0.9406
  628MOL0     H84778   3.268   3.541   0.430  2.7056 -1.8113  0.0651
  628MOL0     H84779   2.705   4.022   0.806  0.3582  2.3696 -1.3093
  628MOL0     H84780   2.509   4.082   0.739  2.6197  0.2256  2.7410
  629MOL0     O84781   7.257   7.927   5.545 -0.2636 -0.3539 -0.3757
  629MOL0     C84782   7.353   7.866   5.592 -1.1160 -0.3628  0.0967
  629MOL0     O84783   7.359   7.736   5.629  0.0169  0.0456 -0.1327
  629MOL0     C84784   7.244   7.669   5.615  0.3523 -0.1547 -0.1305
  629MOL0     C84785   7.182   7.604   5.726  0.9603  0.1708  0.1880
  629MOL0     C84786   7.065   7.529   5.722  0.1371  0.5721 -0.3887
  629MOL0     C84787   7.004   7.514   5.596  0.0144 -0.7199 -0.9650
  629MOL0     O84788   6.889   7.437   5.584  0.4413  0.3250 -0.5042
  629MOL0     C84789   6.783   7.472   5.501 -0.2160  0.0328  0.3684
  629MOL0     C84790   6.665   7.472   5.588  0.3282 -0.2882 -0.4597
  629MOL0     C84791   6.535   7.509   5.521 -0.3148 -0.0911 -0.0768
  629MOL0     C84792   6.420   7.546   5.620 -0.2689 -0.3002 -0.4346
  629MOL0     C84793   6.298   7.580   5.543  0.0790  0.1922 -0.0274
  629MOL0     C84794   6.176   7.613   5.620 -0.3941 -0.5069 -0.6864
  629MOL0     C84795   6.057   7.631   5.535 -0.0075 -0.6024 -0.8175
  629MOL0     C84796   5.945   7.667   5.638 -0.9423  0.3421  0.2591
  629MOL0     N84797   5.805   7.657   5.583 -0.1478  0.9192 -0.0817
  629MOL0     C84798   5.752   7.541   5.527  0.1790 -0.4149 -0.0360
  629MOL0     C84799   5.624   7.577   5.495  0.9198 -0.4967  0.4434
  629MOL0     C84800   5.515   7.502   5.436 -0.1341  0.2805 -1.0713
  629MOL0     C84801   5.555   7.399   5.330  0.2427 -0.2574  0.7920
  629MOL0     C84802   5.457   7.294   5.307 -1.1570  0.0253 -0.5887
  629MOL0     C84803   5.318   7.347   5.274 -0.1353  0.2823 -0.0907
  629MOL0     O84804   5.239   7.390   5.389 -0.6302  0.5516  0.2649
  629MOL0     C84805   5.115   7.432   5.372  0.2306  0.3146  0.4903
  629MOL0     C84806   5.055   7.505   5.475 -0.7633  0.8791 -0.5859
  629MOL0     C84807   4.930   7.568   5.464 -0.1791 -0.1406  0.4629
  629MOL0     C84808   4.894   7.646   5.592  0.5117  1.2057 -0.4547
  629MOL0     C84809   4.854   7.538   5.353 -0.0990 -0.4827 -0.5536
  629MOL0     C84810   4.720   7.586   5.326  0.3461 -0.5074 -0.5491
  629MOL0     O84811   4.653   7.517   5.229  0.4148 -0.3898 -0.0916
  629MOL0     C84812   4.511   7.522   5.209  0.2348  0.3594 -0.0936
  629MOL0     C84813   4.469   7.522   5.074  1.1919 -0.6672 -0.9486
  629MOL0     C84814   4.328   7.526   5.041  0.0606  0.6603 -0.2158
  629MOL0     C84815   4.231   7.539   5.134 -0.2552 -0.3774  0.1698
  629MOL0     O84816   4.100   7.558   5.103 -0.2067  0.5981  0.1519
  629MOL0     C84817   4.054   7.523   4.975 -0.4618 -0.0119 -0.3641
  629MOL0     C84818   3.896   7.525   4.979 -0.0156  0.3164 -0.6042
  629MOL0     C84819   3.831   7.458   5.097  0.6844  0.3462 -0.2337
  629MOL0     C84820   3.682   7.413   5.077 -0.8518  0.9327  0.1152
  629MOL0     C84821   3.629   7.331   5.195  1.2288  0.5886  0.3074
  629MOL0     C84822   3.659   7.176   5.185  0.2203  0.0774 -0.0044
  629MOL0     C84823   3.561   7.105   5.081  0.4687  0.2105 -0.1309
  629MOL0     C84824   3.577   6.951   5.118 -0.1592  0.0532 -0.8015
  629MOL0    Cl84825   3.754   6.921   5.126  0.3637  0.3454  0.1349
  629MOL0     C84826   4.276   7.549   5.268 -0.1692 -0.4995  0.3616
  629MOL0     C84827   4.417   7.542   5.305  0.5241  1.0894 -0.2797
  629MOL0     O84828   4.669   7.678   5.389 -1.0045  0.2387 -0.8758
  629MOL0     C84829   4.916   7.476   5.244 -0.0710 -0.3059  0.6038
  629MOL0     C84830   5.038   7.415   5.256  0.5803  0.4903 -0.5112
  629MOL0     N84831   5.605   7.709   5.532 -0.8562  0.0537 -0.3535
  629MOL0     N84832   5.712   7.751   5.594  0.9495 -0.0118  0.2252
  629MOL0     C84833   7.061   7.576   5.485  0.2942  0.3525 -0.7003
  629MOL0     C84834   7.177   7.660   5.489 -0.7266  0.4255  0.0174
  629MOL0     C84835   7.485   7.939   5.587 -0.6178 -0.2922  0.7462
  629MOL0     C84836   7.578   7.901   5.682  0.0493 -0.1813 -0.7999
  629MOL0     C84837   7.700   7.982   5.701 -0.5921  0.1605  0.5412
  629MOL0     C84838   7.720   8.098   5.616  0.0408  0.9649 -0.6231
  629MOL0     O84839   7.831   8.174   5.595 -0.0680  0.3853 -0.4567
  629MOL0     C84840   7.959   8.131   5.643 -0.3533  0.1424 -0.0279
  629MOL0     C84841   7.978   8.186   5.788  0.9730 -0.2719 -0.0568
  629MOL0     C84842   8.099   8.119   5.843  0.0850 -0.1548 -0.8117
  629MOL0     C84843   8.228   8.129   5.766  0.1174 -0.1006 -0.9392
  629MOL0     C84844   8.345   8.080   5.838  0.4965  0.3848  0.1117
  629MOL0     C84845   8.453   8.042   5.883 -0.0807 -0.5383  0.7296
  629MOL0     C84846   7.622   8.123   5.520 -0.4842 -0.6364  0.0542
  629MOL0     C84847   7.506   8.056   5.511  0.7899  0.0406 -0.1376
  629MOL0     H84848   7.247   7.606   5.813  1.0598 -0.8049  0.1410
  629MOL0     H84849   7.025   7.491   5.815 -1.3578  0.9040 -0.8768
  629MOL0     H84850   6.794   7.570   5.452 -0.5811 -0.3057 -0.4098
  629MOL0     H84851   6.770   7.387   5.434  0.0111  0.8234 -0.7126
  629MOL0     H84852   6.648   7.374   5.634 -0.5586 -0.7905 -1.8066
  629MOL0     H84853   6.675   7.551   5.664 -1.0619  1.1648 -1.7126
  629MOL0     H84854   6.539   7.582   5.439  0.2185 -3.0046 -2.8388
  629MOL0     H84855   6.494   7.424   5.466 -1.4258  0.7687 -0.6208
  629MOL0     H84856   6.394   7.463   5.686 -3.0120  0.7534 -0.0549
  629MOL0     H84857   6.445   7.637   5.675  1.0061  0.3685 -2.0364
  629MOL0     H84858   6.313   7.669   5.481 -0.4305 -1.5821 -2.8988
  629MOL0     H84859   6.272   7.492   5.484  1.4455  1.0015 -1.9416
  629MOL0     H84860   6.168   7.540   5.702  2.5812 -3.1419 -2.4578
  629MOL0     H84861   6.192   7.712   5.662 -1.2409 -0.4577 -0.4635
  629MOL0     H84862   6.053   7.710   5.460  0.3177 -1.9243 -2.2770
  629MOL0     H84863   6.033   7.538   5.483 -1.5424 -0.0563 -1.1131
  629MOL0     H84864   5.974   7.770   5.659  1.3408 -0.4167  1.1199
  629MOL0     H84865   5.961   7.609   5.729  1.7054  1.5447  0.6472
  629MOL0     H84866   5.802   7.445   5.514  0.4249 -0.5977  1.9800
  629MOL0     H84867   5.483   7.443   5.522  1.5822 -0.2363 -0.7466
  629MOL0     H84868   5.437   7.573   5.407 -0.9903  0.3128  1.0728
  629MOL0     H84869   5.644   7.345   5.366 -1.3308 -4.4038 -0.9190
  629MOL0     H84870   5.579   7.452   5.238  1.3680 -1.7276  0.1964
  629MOL0     H84871   5.459   7.217   5.385  0.9760 -1.2610 -1.8185
  629MOL0     H84872   5.492   7.252   5.212 -2.6919 -0.7131 -0.8631
  629MOL0     H84873   5.261   7.266   5.227 -0.5822  0.1153  0.7075
  629MOL0     H84874   5.330   7.437   5.213  0.2848 -0.6415 -1.4025
  629MOL0     H84875   5.115   7.525   5.563 -2.1564  1.6059  0.2326
  629MOL0     H84876   4.787   7.635   5.611  0.9493 -1.4437  0.9145
  629MOL0     H84877   4.958   7.616   5.676  0.8814 -0.8390 -1.4069
  629MOL0     H84878   4.915   7.752   5.577  0.9731  1.3181  0.8170
  629MOL0     H84879   4.549   7.515   5.001  1.5789 -3.5093 -0.3744
  629MOL0     H84880   4.306   7.544   4.936  1.4780 -1.8287 -1.0234
  629MOL0     H84881   4.092   7.595   4.902  1.3830  0.2384  0.7854
  629MOL0     H84882   4.096   7.423   4.960  2.9680  0.3565  4.4025
  629MOL0     H84883   3.869   7.631   4.984  1.4115  0.6335  1.5737
  629MOL0     H84884   3.845   7.494   4.888 -0.5539  1.1530 -0.5993
  629MOL0     H84885   3.844   7.515   5.189 -2.4307 -0.0274  0.5492
  629MOL0     H84886   3.894   7.370   5.118 -0.2700 -0.1663  0.6074
  629MOL0     H84887   3.623   7.505   5.076  2.0202  2.9560  1.9334
  629MOL0     H84888   3.674   7.358   4.983 -2.7340 -1.6612  1.6370
  629MOL0     H84889   3.522   7.351   5.200  1.2587  1.0358 -0.6295
  629MOL0     H84890   3.678   7.373   5.284 -1.7113  1.0300  1.8422
  629MOL0     H84891   3.755   7.160   5.135  0.4566  2.1730 -0.3146
  629MOL0     H84892   3.660   7.139   5.288 -1.5877 -0.6512 -0.2166
  629MOL0     H84893   3.597   7.130   4.981 -3.5396  2.0855 -1.3214
  629MOL0     H84894   3.458   7.140   5.072  0.4844  0.0045 -1.2106
  629MOL0     H84895   3.531   6.901   5.032  0.5959  1.0328 -1.8107
  629MOL0     H84896   3.518   6.916   5.203  2.9081 -3.0480  0.2839
  629MOL0     H84897   4.205   7.557   5.350  2.2836 -1.9324  2.8320
  629MOL0     H84898   4.443   7.559   5.409 -0.3226  1.2926 -0.0907
  629MOL0     H84899   4.873   7.454   5.147 -0.5540 -1.8531  1.1319
  629MOL0     H84900   5.070   7.370   5.163 -1.5865  1.0582 -1.5950
  629MOL0     H84901   7.009   7.558   5.392 -0.3976 -1.1065 -0.0614
  629MOL0     H84902   7.215   7.717   5.405 -1.9616 -0.6741 -1.3422
  629MOL0     H84903   7.547   7.825   5.752 -0.8810  1.6528  0.8528
  629MOL0     H84904   7.778   7.961   5.774 -0.5621 -0.2994  0.3784
  629MOL0     H84905   7.966   8.023   5.659  0.4838  0.3275  0.9246
  629MOL0     H84906   8.042   8.154   5.576 -0.3324  0.3017  0.0514
  629MOL0     H84907   7.890   8.159   5.847 -0.4242 -2.4402 -2.8559
  629MOL0     H84908   7.986   8.294   5.796 -1.3935 -0.1971  2.9042
  629MOL0     H84909   8.075   8.015   5.867 -0.2989 -0.2807 -1.6857
  629MOL0     H84910   8.102   8.166   5.942 -4.3269  2.1590 -1.4971
  629MOL0     H84911   8.246   8.231   5.733 -2.4647  1.3622  1.7199
  629MOL0     H84912   8.212   8.069   5.675  1.3568  1.0664 -1.9662
  629MOL0     H84913   8.548   8.006   5.917  0.7460  0.2207 -0.7061
  629MOL0     H84914   7.634   8.195   5.440 -0.3794 -1.3753 -0.6048
  629MOL0     H84915   7.429   8.096   5.445 -1.1502 -3.0786  0.0506
  630MOL0     O84916   0.236   7.740   6.853  0.0545  1.0008  0.1104
  630MOL0     C84917   0.302   7.659   6.771  0.0485  0.0948 -0.4321
  630MOL0     O84918   0.246   7.587   6.672  0.0793  0.2466  0.3540
  630MOL0     C84919   0.108   7.583   6.667 -0.2599 -0.8569  0.5108
  630MOL0     C84920   0.028   7.512   6.758 -0.1565  0.4951  0.4256
  630MOL0     C84921  -0.115   7.505   6.750 -0.7718 -0.2126  0.3270
  630MOL0     C84922  -0.174   7.587   6.643 -0.2276 -0.7131 -0.2433
  630MOL0     O84923  -0.313   7.614   6.639 -0.2313  1.1804  0.2704
  630MOL0     C84924  -0.390   7.565   6.746 -0.4705  0.4659  0.1391
  630MOL0     C84925  -0.534   7.602   6.715  0.3461  0.1470  0.4320
  630MOL0     C84926  -0.625   7.564   6.828 -0.3651  0.0353  0.0601
  630MOL0     C84927  -0.771   7.530   6.777  0.3178  0.1704  0.1386
  630MOL0     C84928  -0.858   7.453   6.878  0.2519 -0.1558 -0.9036
  630MOL0     C84929  -1.008   7.453   6.828  0.2033 -0.6181  0.1762
  630MOL0     C84930  -1.097   7.379   6.924  0.3142  0.9724  0.2736
  630MOL0     C84931  -1.241   7.430   6.912 -0.5125  0.8374  0.0886
  630MOL0     N84932  -1.288   7.427   6.781 -0.1058 -0.1828  0.9662
  630MOL0     C84933  -1.269   7.532   6.695  0.3258 -0.3145 -0.2168
  630MOL0     C84934  -1.343   7.497   6.585  0.5062 -0.7379  0.1871
  630MOL0     C84935  -1.380   7.584   6.463 -0.3379  0.1123 -0.7284
  630MOL0     C84936  -1.537   7.597   6.439 -0.8054  0.3312 -0.6916
  630MOL0     C84937  -1.565   7.696   6.330 -0.4216  0.1474 -0.1760
  630MOL0     C84938  -1.708   7.696   6.277 -0.3301 -0.2489 -0.2535
  630MOL0     O84939  -1.720   7.788   6.169 -0.3373  0.1388  0.3473
  630MOL0     C84940  -1.840   7.797   6.109 -0.5743 -0.4532  0.1277
  630MOL0     C84941  -1.833   7.866   5.992 -0.6777 -0.4604  0.1620
  630MOL0     C84942  -1.928   7.870   5.888 -0.7298 -0.6222 -0.5730
  630MOL0     C84943  -1.884   7.948   5.769  0.3848 -0.3410 -0.1388
  630MOL0     C84944  -2.054   7.813   5.912  0.2552 -0.2154  0.5912
  630MOL0     C84945  -2.165   7.819   5.814  0.6085  0.2893  0.0507
  630MOL0     O84946  -2.274   7.738   5.848  0.4957 -0.1502 -0.6487
  630MOL0     C84947  -2.380   7.729   5.766  0.5085 -0.2672 -0.0123
  630MOL0     C84948  -2.474   7.832   5.754  0.2441  0.7633  0.0482
  630MOL0     C84949  -2.585   7.809   5.670 -0.4568 -0.2593  0.0788
  630MOL0     C84950  -2.606   7.678   5.610 -1.1765  0.2068 -0.3683
  630MOL0     O84951  -2.708   7.656   5.524 -0.0638  0.1933 -0.7431
  630MOL0     C84952  -2.838   7.715   5.542 -0.5039  0.1866 -0.0485
  630MOL0     C84953  -2.923   7.673   5.420  0.4973 -0.2947 -0.7737
  630MOL0     C84954  -2.927   7.515   5.403  0.2090 -0.4254 -0.6892
  630MOL0     C84955  -2.975   7.465   5.266 -0.7370 -0.6277 -0.7012
  630MOL0     C84956  -2.872   7.488   5.154  0.8252 -0.7976  0.8649
  630MOL0     C84957  -2.937   7.469   5.014 -0.3523  0.0608  0.8046
  630MOL0     C84958  -3.032   7.586   4.979 -1.0097 -0.1652 -0.1004
  630MOL0     C84959  -3.093   7.569   4.837 -0.8469  0.7538  0.0558
  630MOL0    Cl84960  -2.966   7.550   4.724 -0.0765 -0.1472  0.0380
  630MOL0     C84961  -2.514   7.578   5.630 -0.2497 -0.1635  0.3038
  630MOL0     C84962  -2.400   7.607   5.707 -0.5555 -0.5130 -0.0907
  630MOL0     O84963  -2.172   7.903   5.727  0.1860  0.0038 -0.7221
  630MOL0     C84964  -2.078   7.758   6.046  0.0753  0.7383  0.0555
  630MOL0     C84965  -1.967   7.744   6.136 -0.5486  0.1245  1.1549
  630MOL0     N84966  -1.399   7.373   6.609 -0.2897 -0.2027 -0.5289
  630MOL0     N84967  -1.366   7.328   6.715 -0.0320 -1.3807 -1.1052
  630MOL0     C84968  -0.093   7.663   6.555 -0.7962  1.1433  0.2203
  630MOL0     C84969   0.047   7.651   6.562  0.5307 -0.1110 -0.0921
  630MOL0     C84970   0.447   7.657   6.781 -0.2919  0.1458 -0.1217
  630MOL0     C84971   0.523   7.569   6.707  0.3183  0.3332 -0.7864
  630MOL0     C84972   0.653   7.538   6.750 -0.1990 -0.0723  0.5552
  630MOL0     C84973   0.717   7.594   6.859 -0.8327 -0.5362  1.1984
  630MOL0     O84974   0.843   7.548   6.895 -0.2001  0.6270  0.2931
  630MOL0     C84975   0.893   7.601   7.027  0.6133 -0.5937  0.1838
  630MOL0     C84976   1.038   7.565   7.038  0.4620  0.0906 -0.5519
  630MOL0     C84977   1.104   7.506   6.906  0.3653  0.3811  1.0240
  630MOL0     C84978   1.238   7.450   6.937 -0.5417 -1.2207  0.1812
  630MOL0     C84979   1.234   7.322   7.011 -0.0866  0.3906  0.1113
  630MOL0     C84980   1.230   7.216   7.071 -0.4009  1.3406  0.6084
  630MOL0     C84981   0.643   7.703   6.914 -0.5271  0.2675  0.8224
  630MOL0     C84982   0.513   7.736   6.874 -0.1318 -1.0759 -0.1852
  630MOL0     H84983   0.075   7.449   6.834 -0.4775  1.9376  1.8786
  630MOL0     H84984  -0.164   7.454   6.833 -1.3295  2.1949  1.5713
  630MOL0     H84985  -0.377   7.462   6.780  0.2737  0.8732  1.1695
  630MOL0     H84986  -0.352   7.628   6.828  0.2807  0.5589 -0.2708
  630MOL0     H84987  -0.550   7.709   6.701 -1.6653 -0.4847 -3.5323
  630MOL0     H84988  -0.572   7.556   6.623  2.2504 -2.8102  1.0097
  630MOL0     H84989  -0.584   7.477   6.879  0.4682  0.6183  0.4038
  630MOL0     H84990  -0.634   7.641   6.905  1.3519  0.9618 -0.6078
  630MOL0     H84991  -0.816   7.625   6.746  2.4614  0.9551 -0.7770
  630MOL0     H84992  -0.763   7.457   6.696  0.5605 -0.1630  0.4613
  630MOL0     H84993  -0.811   7.354   6.888 -1.5729 -0.9525  0.3651
  630MOL0     H84994  -0.851   7.509   6.971 -3.4042  1.8596 -1.6763
  630MOL0     H84995  -1.027   7.560   6.826  0.0507 -0.6498 -1.1946
  630MOL0     H84996  -1.015   7.393   6.736 -2.0168 -2.6409  1.5530
  630MOL0     H84997  -1.092   7.272   6.905  1.8083  0.8570  1.1164
  630MOL0     H84998  -1.058   7.397   7.025 -1.0722 -0.4439  1.1093
  630MOL0     H84999  -1.254   7.526   6.962 -0.6144  1.0261 -0.2964
  630MOL0     H85000  -1.307   7.364   6.969 -1.1826 -0.0875 -1.6751
  630MOL0     H85001  -1.239   7.636   6.699 -1.3923  0.3753 -2.6743
  630MOL0     H85002  -1.339   7.685   6.470 -3.0012  1.2131  0.1296
  630MOL0     H85003  -1.332   7.528   6.382  0.5303 -1.1478  0.5931
  630MOL0     H85004  -1.594   7.635   6.524 -2.0218  0.7935 -1.6854
  630MOL0     H85005  -1.560   7.497   6.402  1.3959 -0.1250 -0.9937
  630MOL0     H85006  -1.505   7.666   6.243  0.4221  0.6727  0.2070
  630MOL0     H85007  -1.530   7.797   6.358 -2.8022  0.7634  0.8130
  630MOL0     H85008  -1.772   7.743   6.353  1.5747  0.5817  0.9030
  630MOL0     H85009  -1.736   7.594   6.250 -1.9157 -0.5607  2.2030
  630MOL0     H85010  -1.736   7.913   5.977 -1.4004  0.3254 -2.7564
  630MOL0     H85011  -1.942   8.040   5.761  0.6524 -0.0661  0.9124
  630MOL0     H85012  -1.780   7.980   5.778  0.6405 -1.5486  1.8915
  630MOL0     H85013  -1.900   7.893   5.675  0.5104  0.5733 -0.7060
  630MOL0     H85014  -2.462   7.931   5.799  1.8116  0.6393 -0.0208
  630MOL0     H85015  -2.643   7.899   5.652 -0.5818 -0.3827 -0.1393
  630MOL0     H85016  -2.871   7.687   5.642  2.9183  2.5333  1.9590
  630MOL0     H85017  -2.832   7.824   5.538 -1.3223  0.2821  0.9051
  630MOL0     H85018  -3.022   7.713   5.441  1.5484  3.0992 -1.5657
  630MOL0     H85019  -2.885   7.717   5.327  3.4579  0.1672  0.5426
  630MOL0     H85020  -3.006   7.493   5.475  0.4560  2.7028  0.7107
  630MOL0     H85021  -2.837   7.456   5.421  0.0030 -1.9002 -3.7991
  630MOL0     H85022  -3.014   7.365   5.286 -1.5510  0.2341  2.7480
  630MOL0     H85023  -3.064   7.524   5.243 -1.0620 -0.9132 -0.1841
  630MOL0     H85024  -2.792   7.415   5.173 -0.7072 -2.7587  0.1391
  630MOL0     H85025  -2.835   7.591   5.153  1.4526 -0.9456 -2.4950
  630MOL0     H85026  -2.855   7.456   4.943  1.2510  2.8418  1.9777
  630MOL0     H85027  -3.000   7.380   5.004 -2.0932  1.3281 -0.1580
  630MOL0     H85028  -2.991   7.687   4.987 -1.9699  0.2826 -0.7315
  630MOL0     H85029  -3.110   7.585   5.056  0.0797 -2.6404  1.0878
  630MOL0     H85030  -3.145   7.661   4.810 -2.5262 -0.2517 -0.2457
  630MOL0     H85031  -3.165   7.487   4.837 -2.9328  2.4764  0.4792
  630MOL0     H85032  -2.529   7.479   5.588  3.0487 -1.0904  1.0144
  630MOL0     H85033  -2.326   7.529   5.726 -2.4237 -1.7935  2.5534
  630MOL0     H85034  -2.167   7.711   6.088  1.2317 -0.0279  1.7779
  630MOL0     H85035  -1.982   7.688   6.227  1.8630 -3.4961 -0.4280
  630MOL0     H85036  -0.144   7.725   6.482 -1.1412 -1.2284 -1.6375
  630MOL0     H85037   0.112   7.703   6.492  1.8368  0.4563  1.4922
  630MOL0     H85038   0.488   7.527   6.614 -0.0703  0.2711 -0.6116
  630MOL0     H85039   0.699   7.454   6.698  1.2365  0.2909  1.1954
  630MOL0     H85040   0.890   7.709   7.011  0.2244 -0.7835 -1.1213
  630MOL0     H85041   0.832   7.582   7.116 -0.8434  0.6303 -0.5097
  630MOL0     H85042   1.039   7.484   7.112  1.1405  0.6794  0.1068
  630MOL0     H85043   1.094   7.649   7.081  1.8015 -1.5245  1.0260
  630MOL0     H85044   1.110   7.584   6.829 -0.5442  0.3407  0.8955
  630MOL0     H85045   1.040   7.429   6.861  1.0545  0.2888  0.1738
  630MOL0     H85046   1.304   7.522   6.985 -1.0196  1.5843 -2.9843
  630MOL0     H85047   1.294   7.426   6.846  1.0414 -0.8060  1.0164
  630MOL0     H85048   1.211   7.133   7.135  1.1421 -2.2108 -3.0924
  630MOL0     H85049   0.678   7.772   6.990 -2.8917  0.5194  1.7603
  630MOL0     H85050   0.452   7.811   6.925  0.7746  0.5617 -1.4161
  631MOL0     O85051   1.704   7.756  10.857 -0.5905 -0.2406 -0.2080
  631MOL0     C85052   1.810   7.692  10.901  0.0133 -0.0787 -0.0079
  631MOL0     O85053   1.821   7.615  11.012  0.1118 -0.6715 -0.7605
  631MOL0     C85054   1.724   7.622  11.111  0.5878  0.9726 -0.1488
  631MOL0     C85055   1.584   7.602  11.081 -0.2280 -0.5438 -0.2654
  631MOL0     C85056   1.488   7.604  11.180  0.2931 -0.1972  0.2061
  631MOL0     C85057   1.526   7.602  11.314  0.0141 -0.8549 -0.1282
  631MOL0     O85058   1.431   7.598  11.412  0.2862  0.8604  0.6685
  631MOL0     C85059   1.448   7.486  11.506 -0.2687  0.1802  0.0911
  631MOL0     C85060   1.311   7.487  11.581 -0.7910  0.2146  0.1718
  631MOL0     C85061   1.204   7.438  11.482  1.0526  0.6173  0.1199
  631MOL0     C85062   1.068   7.484  11.530  0.4140  0.0801 -0.5558
  631MOL0     C85063   1.020   7.409  11.645  0.1784 -0.7471 -1.1120
  631MOL0     C85064   0.870   7.441  11.675 -0.5062  0.3568 -0.4377
  631MOL0     C85065   0.834   7.389  11.816  0.5548 -0.3905  0.7666
  631MOL0     C85066   0.688   7.403  11.845 -0.0477  0.0689 -0.6131
  631MOL0     N85067   0.679   7.408  11.990  0.0519  0.0542  0.4937
  631MOL0     C85068   0.646   7.519  12.068  0.2647  0.4043  0.2948
  631MOL0     C85069   0.630   7.481  12.198  0.7007  0.3485  0.4081
  631MOL0     C85070   0.587   7.578  12.312  0.0718  0.5029  0.4781
  631MOL0     C85071   0.450   7.539  12.376  0.8153 -0.5557  0.5596
  631MOL0     C85072   0.337   7.517  12.274  0.0523 -0.1819  0.5329
  631MOL0     C85073   0.227   7.429  12.344 -0.1265  0.1750  0.1265
  631MOL0     O85074   0.182   7.492  12.458 -0.2522  0.4097  0.2191
  631MOL0     C85075   0.048   7.500  12.485 -0.2163 -0.5253  0.6342
  631MOL0     C85076  -0.039   7.390  12.458  0.3846  0.3061 -0.0898
  631MOL0     C85077  -0.174   7.390  12.493  0.1177  0.9384  0.2422
  631MOL0     C85078  -0.255   7.275  12.446 -0.5419  0.7243  0.2202
  631MOL0     C85079  -0.228   7.498  12.558 -0.6122  0.9188 -0.2702
  631MOL0     C85080  -0.373   7.512  12.595 -0.6203  0.2396 -0.2937
  631MOL0     O85081  -0.391   7.611  12.680  0.2726 -0.4803  0.1453
  631MOL0     C85082  -0.515   7.636  12.731  0.3503 -0.2867 -0.2169
  631MOL0     C85083  -0.583   7.753  12.710 -0.4791  0.4272 -0.5545
  631MOL0     C85084  -0.702   7.787  12.766  0.8494 -0.2766 -0.3365
  631MOL0     C85085  -0.767   7.700  12.850  0.3756 -0.3567 -0.6201
  631MOL0     O85086  -0.892   7.715  12.899 -0.1666 -0.5515 -0.0506
  631MOL0     C85087  -0.989   7.721  12.786  0.0248 -0.9404 -0.5314
  631MOL0     C85088  -1.124   7.710  12.857  0.8235  1.4088  0.5419
  631MOL0     C85089  -1.158   7.566  12.855  0.5410 -0.5675  0.1588
  631MOL0     C85090  -1.314   7.539  12.889 -0.3640  1.2264  0.0905
  631MOL0     C85091  -1.342   7.387  12.873 -0.4304 -0.1580  0.7396
  631MOL0     C85092  -1.459   7.329  12.947 -0.3761 -0.4926 -0.6729
  631MOL0     C85093  -1.461   7.174  12.940 -1.0177  1.2974 -1.2173
  631MOL0     C85094  -1.587   7.117  13.012 -0.3179  0.4276  0.8438
  631MOL0    Cl85095  -1.729   7.175  12.931  0.0076 -0.0457  0.0395
  631MOL0     C85096  -0.695   7.585  12.894  0.1429  0.0467  0.1957
  631MOL0     C85097  -0.571   7.552  12.830 -0.4741  0.0915  0.8013
  631MOL0     O85098  -0.464   7.446  12.533 -0.6804  0.0011 -0.3173
  631MOL0     C85099  -0.137   7.598  12.592  0.0902  0.2031  0.3415
  631MOL0     C85100  -0.006   7.604  12.554  0.3346 -0.1598  1.1534
  631MOL0     N85101   0.636   7.340  12.201 -0.4346 -0.1104 -0.3999
  631MOL0     N85102   0.673   7.308  12.082 -0.4154  0.8776  0.6495
  631MOL0     C85103   1.664   7.601  11.338 -0.1717 -0.7159  0.2636
  631MOL0     C85104   1.758   7.625  11.243  0.0455  0.4020 -0.5619
  631MOL0     C85105   1.934   7.701  10.823  0.0803 -0.4114 -0.3498
  631MOL0     C85106   1.937   7.735  10.692 -0.1102 -0.2031  0.6712
  631MOL0     C85107   2.058   7.743  10.618 -0.0839 -0.3195 -0.0725
  631MOL0     C85108   2.179   7.727  10.685  0.5400 -0.4572  0.1960
  631MOL0     O85109   2.301   7.727  10.631  0.2382 -0.1433 -0.2802
  631MOL0     C85110   2.309   7.825  10.523  0.5097 -0.1857 -0.1320
  631MOL0     C85111   2.457   7.848  10.496 -0.2461  0.5072 -0.1415
  631MOL0     C85112   2.525   7.716  10.456 -0.2790 -0.0318  0.2999
  631MOL0     C85113   2.681   7.733  10.452  1.3331  0.1512 -0.1688
  631MOL0     C85114   2.750   7.605  10.418  0.4517 -0.5073  0.7787
  631MOL0     C85115   2.813   7.503  10.395 -0.1169 -0.4388  1.3615
  631MOL0     C85116   2.176   7.696  10.819  0.7355 -0.2501 -0.2608
  631MOL0     C85117   2.057   7.680  10.891  0.0093  1.3398  1.3723
  631MOL0     H85118   1.541   7.582  10.983 -1.1006 -3.3081  0.5692
  631MOL0     H85119   1.380   7.590  11.172  0.0351  0.7732  1.5311
  631MOL0     H85120   1.462   7.390  11.457  0.0905  0.9128 -1.2846
  631MOL0     H85121   1.524   7.501  11.583  2.3423  0.1701 -2.3604
  631MOL0     H85122   1.319   7.420  11.667  1.6114 -0.7182 -0.7046
  631MOL0     H85123   1.281   7.581  11.629 -1.3821 -0.6461  1.5776
  631MOL0     H85124   1.213   7.488  11.385  2.2815  2.7849  1.2805
  631MOL0     H85125   1.206   7.329  11.480  0.2910  0.5468  1.8420
  631MOL0     H85126   1.060   7.592  11.548 -2.8565 -0.0153 -0.9223
  631MOL0     H85127   0.999   7.459  11.449 -1.3683 -2.9856  1.7231
  631MOL0     H85128   1.044   7.304  11.624 -0.1764 -1.1640  0.4262
  631MOL0     H85129   1.087   7.429  11.730 -3.2054 -0.6500  1.7879
  631MOL0     H85130   0.850   7.548  11.681 -3.1261 -0.0424 -0.8832
  631MOL0     H85131   0.805   7.411  11.593 -1.4338  2.4959 -0.5440
  631MOL0     H85132   0.851   7.281  11.818 -1.3259 -0.7952 -1.4452
  631MOL0     H85133   0.894   7.428  11.899 -1.6029 -0.1789  2.3136
  631MOL0     H85134   0.625   7.322  11.807 -0.7529  1.5988 -2.8917
  631MOL0     H85135   0.650   7.496  11.803  2.9508  0.8692 -1.7915
  631MOL0     H85136   0.619   7.619  12.036 -1.0852 -1.1422 -4.1599
  631MOL0     H85137   0.663   7.571  12.390 -0.8814 -0.0298  1.3932
  631MOL0     H85138   0.585   7.681  12.276  2.9861  0.5718  0.2586
  631MOL0     H85139   0.421   7.610  12.454  4.2344  0.1048  1.4151
  631MOL0     H85140   0.472   7.445  12.428  0.4101 -1.2556 -0.4958
  631MOL0     H85141   0.371   7.481  12.177  0.1116 -0.6988  0.7398
  631MOL0     H85142   0.281   7.610  12.262  0.4178 -0.0619 -0.2934
  631MOL0     H85143   0.262   7.327  12.359  0.9446  0.3698 -0.9455
  631MOL0     H85144   0.148   7.423  12.268  0.7948 -0.1497 -0.8333
  631MOL0     H85145   0.013   7.306  12.413 -0.3698 -2.1044  3.1641
  631MOL0     H85146  -0.282   7.287  12.341 -0.1008  0.7329  0.1033
  631MOL0     H85147  -0.191   7.186  12.455  0.6707  1.7131  2.0637
  631MOL0     H85148  -0.337   7.241  12.509  1.0790 -1.3883  1.3315
  631MOL0     H85149  -0.526   7.831  12.659  0.3568  0.3022  0.1501
  631MOL0     H85150  -0.757   7.876  12.736 -1.5379 -1.7999 -0.7887
  631MOL0     H85151  -0.985   7.822  12.743 -0.2707 -0.9333 -0.5468
  631MOL0     H85152  -0.969   7.645  12.710 -1.3895 -4.2223  2.1260
  631MOL0     H85153  -1.109   7.735  12.962  2.2361 -1.5802  1.1879
  631MOL0     H85154  -1.199   7.764  12.799  0.7258  0.8759  0.1578
  631MOL0     H85155  -1.104   7.522  12.939  1.6968 -0.1730 -0.3594
  631MOL0     H85156  -1.135   7.515  12.761 -2.0250  0.0177 -0.8714
  631MOL0     H85157  -1.347   7.576  12.986 -0.0294 -0.2091  0.7747
  631MOL0     H85158  -1.386   7.581  12.818 -2.3447 -3.5888 -1.0909
  631MOL0     H85159  -1.255   7.330  12.905 -0.3683 -2.4820 -2.9529
  631MOL0     H85160  -1.353   7.371  12.765  1.9565  3.2539 -0.1883
  631MOL0     H85161  -1.447   7.376  13.045  0.5015 -0.0151 -0.9933
  631MOL0     H85162  -1.550   7.370  12.901 -0.8917  0.5345  1.1876
  631MOL0     H85163  -1.369   7.131  12.981  0.2216  1.9588 -3.1583
  631MOL0     H85164  -1.460   7.139  12.836 -0.1536 -1.3040 -0.4241
  631MOL0     H85165  -1.588   7.144  13.118 -1.7928 -0.9206  1.2166
  631MOL0     H85166  -1.584   7.007  13.009  0.6587  0.3670  2.7662
  631MOL0     H85167  -0.735   7.530  12.978 -0.8389  2.5262  1.4592
  631MOL0     H85168  -0.515   7.461  12.850  1.3837  0.6444 -1.4353
  631MOL0     H85169  -0.183   7.679  12.648  2.8061  2.5358 -0.5312
  631MOL0     H85170   0.059   7.687  12.581  0.1196 -0.8978  4.3444
  631MOL0     H85171   1.703   7.579  11.437  0.7470 -1.1046 -0.1691
  631MOL0     H85172   1.862   7.628  11.275 -0.7410  1.2243  2.2780
  631MOL0     H85173   1.841   7.766  10.654  0.2697  0.3148  0.1099
  631MOL0     H85174   2.050   7.770  10.513  1.6419 -1.0822 -0.4407
  631MOL0     H85175   2.258   7.790  10.433 -0.8972 -1.0113  0.9462
  631MOL0     H85176   2.270   7.919  10.563 -0.8910 -0.8441  0.0912
  631MOL0     H85177   2.489   7.872  10.598  0.9579 -2.7560  0.3527
  631MOL0     H85178   2.476   7.933  10.429  4.3350  1.0355  1.4591
  631MOL0     H85179   2.490   7.676  10.360 -2.6178 -1.7790  1.7702
  631MOL0     H85180   2.486   7.637  10.520 -2.2589 -2.6897 -3.7241
  631MOL0     H85181   2.717   7.774  10.548 -0.0805 -2.1963  1.4746
  631MOL0     H85182   2.708   7.806  10.375  0.2885  0.7527  0.0079
  631MOL0     H85183   2.872   7.417  10.374 -1.7973 -2.2817  3.6211
  631MOL0     H85184   2.272   7.664  10.860  0.3378  1.2083  2.0567
  631MOL0     H85185   2.049   7.643  10.993 -0.9316  0.4302  0.9877
  632MOL0     O85186   3.812   8.635   4.343  0.1589 -0.1235  0.8657
  632MOL0     C85187   3.802   8.690   4.232 -0.2125  0.4240 -0.5444
  632MOL0     O85188   3.696   8.758   4.182  0.6875 -0.2239 -0.5927
  632MOL0     C85189   3.578   8.746   4.255  0.6419 -0.1893 -0.0259
  632MOL0     C85190   3.498   8.634   4.243  0.7378  0.8528  0.1081
  632MOL0     C85191   3.385   8.617   4.320  0.2928  0.4544 -0.0473
  632MOL0     C85192   3.341   8.712   4.413 -0.6975  0.4199 -0.5414
  632MOL0     O85193   3.237   8.703   4.506 -0.5097 -0.3992 -0.4962
  632MOL0     C85194   3.111   8.728   4.448  0.5232  0.0483  0.1437
  632MOL0     C85195   3.010   8.634   4.531  0.4776 -0.5142 -0.4490
  632MOL0     C85196   2.868   8.655   4.470 -0.6657 -0.3383  0.7499
  632MOL0     C85197   2.779   8.570   4.546  0.2995  0.4822 -0.3071
  632MOL0     C85198   2.636   8.606   4.501 -0.0222  0.9546 -0.6238
  632MOL0     C85199   2.534   8.515   4.575  0.3926 -0.2120 -0.4853
  632MOL0     C85200   2.384   8.534   4.538 -0.0799  0.4141 -1.0984
  632MOL0     C85201   2.342   8.683   4.538 -0.0572 -0.0130 -0.4925
  632MOL0     N85202   2.204   8.696   4.524 -0.4277 -0.9287  0.3750
  632MOL0     C85203   2.136   8.671   4.411 -0.3302 -0.3994 -0.3572
  632MOL0     C85204   2.006   8.701   4.437  0.0133 -0.0027  0.5707
  632MOL0     C85205   1.888   8.719   4.339 -0.4843 -0.4588  0.3824
  632MOL0     C85206   1.767   8.787   4.406 -0.4343 -0.1996 -0.5112
  632MOL0     C85207   1.644   8.807   4.316 -0.2594 -0.2261  0.1337
  632MOL0     C85208   1.548   8.874   4.403 -0.8691 -0.2727 -0.9882
  632MOL0     O85209   1.441   8.920   4.319 -0.4920 -0.1784 -0.8130
  632MOL0     C85210   1.395   9.044   4.340  0.3715 -0.2647 -0.2479
  632MOL0     C85211   1.401   9.122   4.455  1.2507  0.5759 -0.0221
  632MOL0     C85212   1.335   9.251   4.464  0.1481 -0.1958  0.7956
  632MOL0     C85213   1.342   9.312   4.601  0.5666 -0.8978  0.1233
  632MOL0     C85214   1.271   9.298   4.347  0.1428 -0.3489 -0.2408
  632MOL0     C85215   1.203   9.433   4.343 -0.0027 -0.4107  0.0039
  632MOL0     O85216   1.197   9.486   4.217  0.5152 -0.1638  0.1412
  632MOL0     C85217   1.113   9.596   4.203  0.1736 -0.4756 -0.2364
  632MOL0     C85218   1.165   9.723   4.226  0.6563  0.4846  0.4045
  632MOL0     C85219   1.077   9.830   4.196 -0.1125  0.9872 -0.3730
  632MOL0     C85220   0.942   9.818   4.154 -0.1669 -0.1385 -0.1754
  632MOL0     O85221   0.870   9.935   4.137  0.2735  0.2507 -0.4305
  632MOL0     C85222   0.742   9.937   4.060  0.2300  0.5047 -0.3757
  632MOL0     C85223   0.629   9.933   4.166 -0.3063 -0.3373 -0.7585
  632MOL0     C85224   0.490   9.957   4.106  0.5405  0.3530  0.3188
  632MOL0     C85225   0.465  10.104   4.072 -0.7991 -0.4483  0.4698
  632MOL0     C85226   0.329  10.119   4.001  0.6309 -0.2121 -0.6584
  632MOL0     C85227   0.207  10.113   4.095  0.0978 -0.3344 -0.3913
  632MOL0     C85228   0.079  10.142   4.026 -0.4121  0.1480 -0.5761
  632MOL0     C85229  -0.049  10.155   4.117 -0.2106 -0.4891 -0.3837
  632MOL0    Cl85230  -0.097  10.022   4.221  0.4020  0.2618  0.2585
  632MOL0     C85231   0.895   9.690   4.153 -0.2335 -0.5047  0.1229
  632MOL0     C85232   0.978   9.584   4.172  0.0132 -1.0084 -0.1948
  632MOL0     O85233   1.168   9.489   4.442  0.9651 -1.1173  0.1718
  632MOL0     C85234   1.271   9.222   4.229  0.5654  0.3456  0.3378
  632MOL0     C85235   1.333   9.100   4.228 -0.6357 -0.3790  0.5808
  632MOL0     N85236   1.996   8.732   4.573  0.8034 -0.2451 -0.6640
  632MOL0     N85237   2.117   8.737   4.621 -0.1922 -0.1784 -0.1698
  632MOL0     C85238   3.420   8.827   4.426  0.5610  0.2186  0.8242
  632MOL0     C85239   3.535   8.843   4.346  0.6622 -0.0919  0.3822
  632MOL0     C85240   3.915   8.666   4.149 -0.3346 -0.5275  0.4579
  632MOL0     C85241   3.940   8.747   4.034  0.2855  0.5416 -0.4375
  632MOL0     C85242   4.048   8.718   3.948 -0.3796 -0.1817 -0.1793
  632MOL0     C85243   4.144   8.620   3.978 -0.2051 -0.0760 -0.4765
  632MOL0     O85244   4.258   8.581   3.905  0.3814 -0.1008  0.5342
  632MOL0     C85245   4.304   8.680   3.813 -0.7441  0.2364 -0.3809
  632MOL0     C85246   4.296   8.629   3.669  0.0160  0.3807 -0.9819
  632MOL0     C85247   4.354   8.732   3.578  0.4416  0.3650 -0.0020
  632MOL0     C85248   4.385   8.690   3.437 -0.1892 -0.2185  0.0897
  632MOL0     C85249   4.259   8.654   3.365  0.0263 -0.2861 -0.2386
  632MOL0     C85250   4.165   8.619   3.296  0.1312 -0.2824  0.4642
  632MOL0     C85251   4.122   8.545   4.087 -0.4696 -0.2197  0.7857
  632MOL0     C85252   4.014   8.567   4.172  0.4156  0.0795 -0.0870
  632MOL0     H85253   3.538   8.552   4.185 -1.1485 -2.1374  2.7149
  632MOL0     H85254   3.331   8.523   4.327  0.7974  0.1466 -0.2455
  632MOL0     H85255   3.092   8.835   4.455  1.0709  0.2092 -0.6172
  632MOL0     H85256   3.112   8.706   4.340  0.4660  2.7167 -0.4602
  632MOL0     H85257   3.048   8.531   4.536 -2.6672 -2.0880 -3.9902
  632MOL0     H85258   3.017   8.664   4.635  1.3664 -3.0127  0.2982
  632MOL0     H85259   2.841   8.760   4.483 -0.4532 -0.3703  1.4651
  632MOL0     H85260   2.868   8.629   4.364 -0.5988  2.0077  0.1149
  632MOL0     H85261   2.790   8.464   4.521 -4.3689 -0.2912 -0.0116
  632MOL0     H85262   2.807   8.578   4.652  1.0263  1.9217 -0.5865
  632MOL0     H85263   2.616   8.712   4.517 -6.4981 -0.0575  0.7231
  632MOL0     H85264   2.604   8.579   4.400 -0.9242  0.6078 -0.2518
  632MOL0     H85265   2.561   8.411   4.556  1.4242 -0.1468  0.5424
  632MOL0     H85266   2.547   8.532   4.682 -0.1693 -1.4619 -0.1969
  632MOL0     H85267   2.365   8.488   4.441 -0.8647 -0.5637 -0.5012
  632MOL0     H85268   2.321   8.485   4.613 -1.3237  1.5023 -1.3952
  632MOL0     H85269   2.392   8.750   4.467 -0.7006  2.9383  1.6510
  632MOL0     H85270   2.375   8.727   4.633 -2.2328  0.2159  0.2187
  632MOL0     H85271   2.176   8.630   4.319 -1.5850  1.3783 -1.7629
  632MOL0     H85272   1.935   8.782   4.264  0.1186  3.3527  3.6530
  632MOL0     H85273   1.860   8.619   4.301 -0.5981  0.2970 -1.6552
  632MOL0     H85274   1.808   8.881   4.442 -1.2912 -0.2820  0.7184
  632MOL0     H85275   1.741   8.726   4.493  2.7577 -0.1690  0.6094
  632MOL0     H85276   1.612   8.709   4.279 -0.2230  0.0461 -0.6311
  632MOL0     H85277   1.671   8.869   4.230  1.4807  0.1819  0.9265
  632MOL0     H85278   1.594   8.955   4.460 -1.3778 -0.9392  0.4073
  632MOL0     H85279   1.514   8.802   4.478 -1.6496  0.0617 -1.0133
  632MOL0     H85280   1.445   9.087   4.547  0.3309 -2.3231 -0.5914
  632MOL0     H85281   1.433   9.371   4.612 -0.9883  1.4534  1.3183
  632MOL0     H85282   1.265   9.387   4.622  2.0231 -0.0937  3.1889
  632MOL0     H85283   1.342   9.234   4.678  0.6328 -0.5621  0.4717
  632MOL0     H85284   1.270   9.728   4.253  0.7483 -2.3808  0.8754
  632MOL0     H85285   1.135   9.922   4.202  1.9897 -0.3828  1.8745
  632MOL0     H85286   0.748  10.024   3.995 -1.5358  0.2381 -0.9522
  632MOL0     H85287   0.734   9.855   3.988  1.8327  0.1431 -0.1776
  632MOL0     H85288   0.629   9.838   4.221  3.0462  0.6420  1.2805
  632MOL0     H85289   0.647  10.011   4.240 -2.9106 -0.2172 -0.1823
  632MOL0     H85290   0.420   9.940   4.189  0.9270  0.3974  0.6595
  632MOL0     H85291   0.466   9.886   4.027  2.1654  0.1143  0.0092
  632MOL0     H85292   0.470  10.163   4.165 -3.2771 -1.3768  1.2679
  632MOL0     H85293   0.539  10.136   3.998 -0.7879  1.1547  1.1325
  632MOL0     H85294   0.333  10.041   3.924  3.6525  0.7877 -1.6371
  632MOL0     H85295   0.325  10.219   3.958  1.2308  1.6534  3.2261
  632MOL0     H85296   0.206  10.016   4.145 -1.6331  0.1516  0.6095
  632MOL0     H85297   0.213  10.195   4.167  0.1307  2.8357 -3.7427
  632MOL0     H85298   0.057  10.065   3.952  2.6716  1.2485 -2.8488
  632MOL0     H85299   0.094  10.230   3.962 -0.0025 -0.1217 -0.8523
  632MOL0     H85300  -0.138  10.181   4.059 -1.8788  1.1797  2.6748
  632MOL0     H85301  -0.021  10.235   4.186 -0.6224 -0.7354  0.0751
  632MOL0     H85302   0.793   9.666   4.123 -0.4608  1.8483 -1.2547
  632MOL0     H85303   0.922   9.492   4.156 -0.7569 -0.9030  1.6962
  632MOL0     H85304   1.216   9.246   4.139  0.5164 -0.0506  0.2618
  632MOL0     H85305   1.340   9.042   4.136 -3.6456 -0.1027  0.0866
  632MOL0     H85306   3.401   8.904   4.501 -1.2927 -0.9280  1.6153
  632MOL0     H85307   3.603   8.927   4.348 -0.2372  0.6847 -0.7167
  632MOL0     H85308   3.871   8.825   4.003 -0.0285 -0.6604 -3.0388
  632MOL0     H85309   4.069   8.777   3.860  0.7493  0.2925  0.3826
  632MOL0     H85310   4.269   8.784   3.821  1.6962  1.1300 -0.3466
  632MOL0     H85311   4.409   8.693   3.843 -1.6275  2.5409  2.1151
  632MOL0     H85312   4.190   8.614   3.647  0.2063 -0.8930 -1.0861
  632MOL0     H85313   4.359   8.540   3.677  4.6396  2.7757 -5.1611
  632MOL0     H85314   4.450   8.770   3.615  0.7771  4.7102 -4.3102
  632MOL0     H85315   4.304   8.829   3.571 -0.2299  0.0738  0.6143
  632MOL0     H85316   4.453   8.604   3.444 -0.4623 -0.2757  2.8893
  632MOL0     H85317   4.431   8.776   3.387 -0.3945  0.9289  1.8026
  632MOL0     H85318   4.083   8.576   3.242 -0.1800  0.3456  0.4313
  632MOL0     H85319   4.192   8.467   4.115 -1.3081 -1.1796  0.2837
  632MOL0     H85320   4.008   8.502   4.259 -1.8441 -1.0652 -1.0059
  633MOL0     O85321  10.945   4.876   3.464  0.2721 -0.3329 -0.1143
  633MOL0     C85322  11.006   4.783   3.421  0.7588  1.4010 -0.3646
  633MOL0     O85323  10.952   4.689   3.325  0.2805  0.5273  0.2857
  633MOL0     C85324  10.821   4.688   3.314 -0.1240  0.1989  0.6613
  633MOL0     C85325  10.734   4.800   3.278  0.0818  0.4120 -0.3477
  633MOL0     C85326  10.595   4.781   3.263  0.4019 -0.3396 -0.6678
  633MOL0     C85327  10.538   4.655   3.253 -0.8381 -0.4750 -0.1817
  633MOL0     O85328  10.407   4.637   3.220 -0.0570 -0.1052 -0.7645
  633MOL0     C85329  10.314   4.735   3.269  0.3158  0.5186 -0.0219
  633MOL0     C85330  10.175   4.682   3.244 -0.3838 -0.7893  0.1520
  633MOL0     C85331  10.066   4.746   3.335  0.2270 -0.3336 -0.7978
  633MOL0     C85332  10.089   4.698   3.478 -0.2146  0.3421 -0.7957
  633MOL0     C85333   9.963   4.710   3.570  0.7564  0.9016  0.1781
  633MOL0     C85334   9.852   4.616   3.529  0.0417  0.9273  0.7347
  633MOL0     C85335   9.751   4.585   3.643 -0.1850 -0.1000 -0.3084
  633MOL0     C85336   9.641   4.506   3.582 -0.0458  0.5307 -0.3373
  633MOL0     N85337   9.590   4.417   3.685  0.4881 -0.1521  0.4244
  633MOL0     C85338   9.463   4.413   3.733  0.4944 -0.6010  0.8230
  633MOL0     C85339   9.452   4.310   3.822 -0.5068 -0.2864 -0.0140
  633MOL0     C85340   9.328   4.259   3.908 -1.4665 -0.6365  0.0943
  633MOL0     C85341   9.208   4.359   3.915 -0.6179  0.0558 -0.0031
  633MOL0     C85342   9.102   4.329   3.813 -0.1519  0.7849 -0.5201
  633MOL0     C85343   8.968   4.416   3.791 -0.5205 -0.1436 -0.2156
  633MOL0     O85344   8.860   4.384   3.890 -0.4036 -0.2115 -0.3887
  633MOL0     C85345   8.850   4.453   4.013  0.0848 -0.1879  0.0598
  633MOL0     C85346   8.945   4.545   4.058  0.3621 -0.4700  0.4901
  633MOL0     C85347   8.924   4.608   4.177  0.3794 -0.4636  0.5590
  633MOL0     C85348   9.030   4.706   4.233  0.2280  0.5965 -0.1626
  633MOL0     C85349   8.809   4.585   4.248 -0.4057 -0.1360  0.2916
  633MOL0     C85350   8.780   4.665   4.373 -0.4080  0.6490  0.1716
  633MOL0     O85351   8.729   4.591   4.479 -0.3952  0.0431 -0.0438
  633MOL0     C85352   8.707   4.657   4.601  0.4423  0.4270  1.6309
  633MOL0     C85353   8.800   4.649   4.704  1.1932  0.7705 -0.2116
  633MOL0     C85354   8.776   4.716   4.827  0.3215  0.5844  0.6458
  633MOL0     C85355   8.659   4.785   4.845 -0.2946 -0.3161  0.1673
  633MOL0     O85356   8.637   4.860   4.957  0.2131 -0.3468 -0.1656
  633MOL0     C85357   8.614   5.006   4.930  0.0990  0.1224  0.0794
  633MOL0     C85358   8.560   5.068   5.068 -0.6243 -0.2367  0.1235
  633MOL0     C85359   8.686   5.059   5.158  0.7201 -0.4861  0.6735
  633MOL0     C85360   8.670   5.139   5.286  0.0415 -0.7802 -0.1358
  633MOL0     C85361   8.787   5.112   5.380 -0.5232  0.1994  0.1171
  633MOL0     C85362   8.811   5.233   5.469 -0.3493  0.2472 -0.6540
  633MOL0     C85363   8.916   5.201   5.573  0.3330  0.0551 -0.5066
  633MOL0     C85364   8.949   5.315   5.663  0.1061 -0.9220 -0.0042
  633MOL0    Cl85365   9.053   5.260   5.800 -0.2896  0.1517 -0.0680
  633MOL0     C85366   8.561   4.769   4.751  0.7927 -0.4439  0.2275
  633MOL0     C85367   8.588   4.716   4.632 -0.1667 -0.4678  0.4644
  633MOL0     O85368   8.794   4.785   4.370  0.5666 -0.2076 -0.7269
  633MOL0     C85369   8.717   4.487   4.202 -0.1265  0.5434  0.2754
  633MOL0     C85370   8.740   4.418   4.080 -1.1535  0.0203  0.1728
  633MOL0     N85371   9.573   4.248   3.822  0.5347  0.4375  0.4001
  633MOL0     N85372   9.647   4.311   3.738  0.1308 -0.1051 -0.0285
  633MOL0     C85373  10.619   4.546   3.280  0.1682 -0.0300  0.1632
  633MOL0     C85374  10.754   4.557   3.312 -0.1794 -0.9435 -0.3228
  633MOL0     C85375  11.151   4.778   3.441 -0.5651 -0.9845  0.1045
  633MOL0     C85376  11.216   4.653   3.425  0.1315 -0.4132  1.0207
  633MOL0     C85377  11.352   4.637   3.440  0.3814  0.5518 -0.5970
  633MOL0     C85378  11.429   4.744   3.493 -0.3729  0.0787 -0.5559
  633MOL0     O85379  11.567   4.728   3.507 -0.0173 -0.3129 -0.2015
  633MOL0     C85380  11.644   4.821   3.585 -0.2676  0.7663  0.2418
  633MOL0     C85381  11.773   4.765   3.640 -0.1546 -0.2155 -0.0206
  633MOL0     C85382  11.897   4.788   3.555  0.7567  0.4029  0.2433
  633MOL0     C85383  12.024   4.744   3.633 -0.9478 -0.5457 -0.6098
  633MOL0     C85384  12.048   4.605   3.635 -0.9766 -0.3286  0.6745
  633MOL0     C85385  12.086   4.488   3.627  0.3468 -0.3758  0.0464
  633MOL0     C85386  11.365   4.870   3.514  0.1272  1.0987 -0.8236
  633MOL0     C85387  11.229   4.889   3.488  0.2863  0.6730  0.4530
  633MOL0     H85388  10.787   4.894   3.267  2.2674 -0.7319 -0.0841
  633MOL0     H85389  10.550   4.878   3.248  2.1049  0.5439 -0.3651
  633MOL0     H85390  10.327   4.744   3.377 -1.5796 -0.0413  0.2864
  633MOL0     H85391  10.329   4.824   3.208  0.2269 -1.3054 -2.9130
  633MOL0     H85392  10.145   4.721   3.146  0.0330 -0.4136  0.1747
  633MOL0     H85393  10.173   4.572   3.242  5.4053 -1.1839  1.0058
  633MOL0     H85394  10.083   4.854   3.331  1.2729 -0.4049  0.6940
  633MOL0     H85395   9.966   4.719   3.302 -2.0100 -0.0139  4.6883
  633MOL0     H85396  10.128   4.596   3.481 -2.6680 -0.6719 -0.1468
  633MOL0     H85397  10.157   4.768   3.528  0.1725 -1.2478  1.0064
  633MOL0     H85398   9.987   4.697   3.676  0.9695  0.0808  0.0345
  633MOL0     H85399   9.921   4.810   3.557  1.0360  1.1472  1.1157
  633MOL0     H85400   9.805   4.654   3.437  1.5001 -2.3334 -1.5560
  633MOL0     H85401   9.893   4.518   3.504 -1.9064 -0.1818  1.6982
  633MOL0     H85402   9.804   4.532   3.722 -1.0737 -1.3758 -0.5338
  633MOL0     H85403   9.712   4.679   3.683  2.0299  1.6535 -2.0128
  633MOL0     H85404   9.676   4.447   3.497  1.4386  0.1033  0.5404
  633MOL0     H85405   9.564   4.569   3.537  0.6347 -0.0337 -2.4277
  633MOL0     H85406   9.380   4.475   3.700  0.6184 -0.5949  0.5137
  633MOL0     H85407   9.294   4.162   3.870  0.3156 -1.5902  0.8331
  633MOL0     H85408   9.365   4.232   4.008  4.9730  0.8566 -1.4620
  633MOL0     H85409   9.235   4.463   3.893 -1.0124 -0.0286 -0.9228
  633MOL0     H85410   9.164   4.355   4.015  0.5619  1.4025  0.6117
  633MOL0     H85411   9.084   4.222   3.828  4.2700 -0.0140  0.4643
  633MOL0     H85412   9.155   4.339   3.718  0.8905  1.5583  0.1208
  633MOL0     H85413   8.941   4.377   3.693 -1.7319 -0.1562  0.1074
  633MOL0     H85414   8.992   4.522   3.790  0.2029 -0.3032 -0.2863
  633MOL0     H85415   9.010   4.590   3.984 -1.2770  0.4903 -0.4504
  633MOL0     H85416   9.002   4.810   4.211 -0.5429  0.2084 -1.0726
  633MOL0     H85417   9.042   4.686   4.340 -4.5611 -3.7579 -0.0660
  633MOL0     H85418   9.117   4.691   4.169 -1.3257  0.1274 -2.2729
  633MOL0     H85419   8.890   4.591   4.685  0.7918  0.1938 -0.3925
  633MOL0     H85420   8.851   4.715   4.905 -0.7499 -0.1948  1.7046
  633MOL0     H85421   8.704   5.056   4.894  0.6970 -1.1511 -0.2686
  633MOL0     H85422   8.540   5.021   4.851  0.4755 -0.6603 -0.4275
  633MOL0     H85423   8.522   5.168   5.048  1.5063  0.2483 -1.9295
  633MOL0     H85424   8.480   5.001   5.102 -1.3879  0.1567 -0.8372
  633MOL0     H85425   8.785   5.084   5.118 -0.2588  0.9242 -1.0025
  633MOL0     H85426   8.689   4.959   5.201  1.2438 -0.9756 -0.4365
  633MOL0     H85427   8.672   5.243   5.254  1.5576 -0.8705 -0.4395
  633MOL0     H85428   8.573   5.121   5.331 -0.1598  2.2893  0.8835
  633MOL0     H85429   8.882   5.097   5.327 -0.3216  3.5280 -0.6543
  633MOL0     H85430   8.771   5.030   5.451  0.1814  0.8135  1.0166
  633MOL0     H85431   8.853   5.314   5.408 -2.6321  2.6812  0.8084
  633MOL0     H85432   8.718   5.259   5.521  0.5115 -0.2720  1.2138
  633MOL0     H85433   9.012   5.170   5.530  0.9418  0.8497  0.2382
  633MOL0     H85434   8.893   5.116   5.639  2.7805 -0.2162  0.1023
  633MOL0     H85435   8.861   5.358   5.712  1.4770  1.6492  0.3785
  633MOL0     H85436   8.996   5.396   5.606 -0.1956 -0.1976  0.7438
  633MOL0     H85437   8.460   4.794   4.782  0.7915 -0.3302  0.1330
  633MOL0     H85438   8.506   4.713   4.561  0.5850 -0.2288 -0.4337
  633MOL0     H85439   8.636   4.458   4.268  2.2482 -1.7431  2.4055
  633MOL0     H85440   8.673   4.340   4.046 -1.5729 -0.6925  2.4475
  633MOL0     H85441  10.571   4.450   3.264 -0.7865  0.5613 -0.6797
  633MOL0     H85442  10.826   4.482   3.345  0.1376  0.6680  3.1019
  633MOL0     H85443  11.162   4.560   3.407 -2.5019  1.2077 -0.1857
  633MOL0     H85444  11.397   4.540   3.421  0.7378  0.4114  0.8639
  633MOL0     H85445  11.658   4.920   3.539 -1.0138  0.5206 -0.5318
  633MOL0     H85446  11.579   4.839   3.671 -0.2115  0.2580  0.3901
  633MOL0     H85447  11.757   4.660   3.663 -0.1822  0.1383  1.6580
  633MOL0     H85448  11.801   4.814   3.734  0.4541  0.2202 -0.4171
  633MOL0     H85449  11.911   4.896   3.542  1.2650  0.2507 -0.5849
  633MOL0     H85450  11.896   4.738   3.458  2.2547  1.3122 -0.2695
  633MOL0     H85451  12.003   4.771   3.737 -0.1097 -0.0125 -0.5695
  633MOL0     H85452  12.114   4.794   3.594 -0.0638 -2.0289 -0.5458
  633MOL0     H85453  12.115   4.385   3.631 -0.2403 -0.4942  1.8139
  633MOL0     H85454  11.422   4.957   3.544 -0.7505  2.1546 -2.1013
  633MOL0     H85455  11.189   4.989   3.505  0.1084  0.4997  1.0761
  634MOL0     O85456   7.938   2.275   0.615 -1.2499 -0.0846  0.2781
  634MOL0     C85457   7.950   2.187   0.704  0.5870 -0.0220 -0.6505
  634MOL0     O85458   7.853   2.149   0.797 -0.4239 -0.0666  0.4608
  634MOL0     C85459   7.724   2.197   0.805  0.2329  0.4685 -0.1709
  634MOL0     C85460   7.660   2.284   0.717 -0.2382  0.5213 -0.5282
  634MOL0     C85461   7.544   2.354   0.751  0.2654 -1.1148  0.4458
  634MOL0     C85462   7.491   2.330   0.878  1.1060  0.1133  0.2170
  634MOL0     O85463   7.379   2.404   0.911 -0.0587 -0.5327  0.1347
  634MOL0     C85464   7.314   2.397   1.040 -0.2857  0.3322  0.2912
  634MOL0     C85465   7.214   2.507   1.037 -0.1020 -1.0747  0.2346
  634MOL0     C85466   7.282   2.638   1.006  0.3607 -1.1683 -0.0863
  634MOL0     C85467   7.162   2.742   0.994 -0.7503  0.9187  0.4596
  634MOL0     C85468   7.116   2.800   1.130 -0.0002 -0.6646 -0.3877
  634MOL0     C85469   7.001   2.740   1.205 -0.3292  0.2409 -0.0123
  634MOL0     C85470   6.965   2.810   1.339  0.0882 -0.1996  0.4067
  634MOL0     C85471   6.920   2.962   1.326  0.1645  0.9695 -0.2723
  634MOL0     N85472   6.849   3.007   1.449 -0.2264  0.3349 -0.0791
  634MOL0     C85473   6.728   3.079   1.453  0.3719  0.6640 -0.1317
  634MOL0     C85474   6.710   3.121   1.577 -0.0763 -0.4247 -0.3364
  634MOL0     C85475   6.597   3.222   1.601  0.5632  0.2811 -0.3854
  634MOL0     C85476   6.453   3.152   1.603 -0.1541 -0.9889  0.6702
  634MOL0     C85477   6.347   3.253   1.644  0.1451 -0.5825  0.2497
  634MOL0     C85478   6.318   3.358   1.542  0.4885 -0.5267  0.6214
  634MOL0     O85479   6.261   3.298   1.428 -1.5722  0.3647  0.1738
  634MOL0     C85480   6.161   3.353   1.367  0.7635 -1.2315 -0.3682
  634MOL0     C85481   6.078   3.267   1.305  0.1297  0.4775  0.8957
  634MOL0     C85482   5.960   3.309   1.235  0.9122 -0.2401 -1.2803
  634MOL0     C85483   5.879   3.192   1.184  0.2178 -0.9490 -0.4388
  634MOL0     C85484   5.923   3.445   1.237 -0.0316 -0.7029 -0.0838
  634MOL0     C85485   5.783   3.500   1.190  0.3368  0.9875  0.0401
  634MOL0     O85486   5.749   3.629   1.230 -0.0450 -0.3272 -0.2966
  634MOL0     C85487   5.630   3.695   1.196  0.7338  0.3732 -0.1080
  634MOL0     C85488   5.650   3.830   1.202  0.1866 -0.3233 -0.2285
  634MOL0     C85489   5.559   3.919   1.158 -0.3623  0.2940 -1.1203
  634MOL0     C85490   5.435   3.868   1.118  0.8014  0.4744  0.1402
  634MOL0     O85491   5.347   3.970   1.080  0.2733 -0.2490 -0.1305
  634MOL0     C85492   5.208   3.940   1.045  0.4380 -0.4375 -0.0202
  634MOL0     C85493   5.201   3.894   0.903 -0.0527  0.1392  0.3468
  634MOL0     C85494   5.217   4.006   0.799 -0.2929 -0.0011 -0.1700
  634MOL0     C85495   5.171   3.963   0.664 -0.1133  0.6743 -0.4802
  634MOL0     C85496   5.189   4.078   0.560  0.4396 -0.2391 -0.2708
  634MOL0     C85497   5.164   4.011   0.423 -0.3809  0.1712  0.4642
  634MOL0     C85498   5.173   4.118   0.306 -0.3033  0.8492 -0.7100
  634MOL0     C85499   5.295   4.099   0.215 -0.0983 -0.3721  0.7465
  634MOL0    Cl85500   5.297   3.941   0.143 -0.2527  0.2393 -0.4007
  634MOL0     C85501   5.405   3.730   1.118  0.3662  0.4668  0.0210
  634MOL0     C85502   5.506   3.639   1.156 -0.6514 -0.4106  0.1357
  634MOL0     O85503   5.716   3.430   1.104 -0.5044  0.8098  0.1438
  634MOL0     C85504   6.015   3.531   1.301  0.6706 -0.5050  0.3958
  634MOL0     C85505   6.134   3.492   1.367  0.1309 -0.7995  0.3913
  634MOL0     N85506   6.817   3.075   1.655 -0.7315  0.1575  0.4213
  634MOL0     N85507   6.905   3.005   1.580 -0.1688 -0.2246 -0.2066
  634MOL0     C85508   7.544   2.232   0.962 -0.4762 -0.2600  0.5611
  634MOL0     C85509   7.663   2.166   0.930  0.0882  0.9418  1.1898
  634MOL0     C85510   8.078   2.119   0.712  0.4056  0.5407  0.5757
  634MOL0     C85511   8.087   2.000   0.786 -0.3040  0.0478  1.2684
  634MOL0     C85512   8.211   1.934   0.803  0.1127  1.0140  0.2060
  634MOL0     C85513   8.331   1.988   0.746 -1.0571 -0.2864 -0.3399
  634MOL0     O85514   8.457   1.932   0.758  0.2529  0.3327  0.3726
  634MOL0     C85515   8.480   1.806   0.809  0.1701  0.2398 -0.8058
  634MOL0     C85516   8.615   1.755   0.750 -0.5792 -0.4616 -0.3610
  634MOL0     C85517   8.605   1.716   0.603  0.2716  0.5306 -0.4008
  634MOL0     C85518   8.587   1.820   0.496  0.5293 -0.3136 -0.6996
  634MOL0     C85519   8.583   1.764   0.358  0.1913 -0.3613  0.2544
  634MOL0     C85520   8.575   1.720   0.242  0.2527  1.0907  0.3936
  634MOL0     C85521   8.323   2.101   0.663 -0.1382 -0.5302 -0.2456
  634MOL0     C85522   8.196   2.160   0.652  0.1229 -0.8689  0.3850
  634MOL0     H85523   7.714   2.298   0.624 -0.4087 -0.4661 -0.7864
  634MOL0     H85524   7.499   2.423   0.681  2.4831  1.3618  1.2940
  634MOL0     H85525   7.281   2.294   1.050 -0.0643  0.2119 -0.2043
  634MOL0     H85526   7.384   2.430   1.117  4.4059  0.0109 -3.4126
  634MOL0     H85527   7.139   2.484   0.960 -3.5957  2.9867  1.9868
  634MOL0     H85528   7.173   2.509   1.138  1.3034 -4.9400  1.0247
  634MOL0     H85529   7.358   2.677   1.074 -0.0592  2.2202 -1.3438
  634MOL0     H85530   7.333   2.640   0.909  1.2983  1.3231  0.3895
  634MOL0     H85531   7.214   2.824   0.944 -0.9492  1.3900  1.0120
  634MOL0     H85532   7.083   2.703   0.929 -0.1920  2.7980 -1.4555
  634MOL0     H85533   7.197   2.806   1.203 -0.6285  1.1156  0.2169
  634MOL0     H85534   7.086   2.903   1.109  0.8928 -0.3388 -0.1097
  634MOL0     H85535   6.910   2.755   1.146  0.3537 -0.4489 -1.2860
  634MOL0     H85536   7.014   2.633   1.220 -3.8048 -0.2549  0.4421
  634MOL0     H85537   6.880   2.752   1.377 -0.4999  1.6316  2.0227
  634MOL0     H85538   7.046   2.813   1.412 -1.0432  1.0810  1.6721
  634MOL0     H85539   6.858   2.958   1.236  0.5313 -0.2005 -0.4887
  634MOL0     H85540   7.006   3.026   1.301  0.3258  0.0791 -2.1232
  634MOL0     H85541   6.658   3.100   1.372 -1.9320 -0.8282  1.3670
  634MOL0     H85542   6.617   3.258   1.702 -0.2979 -0.3937  0.0455
  634MOL0     H85543   6.606   3.301   1.526  1.6125  1.2585  0.7396
  634MOL0     H85544   6.448   3.069   1.674  0.3446 -1.2158  0.4461
  634MOL0     H85545   6.432   3.113   1.503  0.0058  0.2850  0.1243
  634MOL0     H85546   6.383   3.282   1.743  4.8496 -2.0221 -0.7871
  634MOL0     H85547   6.248   3.210   1.664 -0.5865  1.6804  1.9918
  634MOL0     H85548   6.412   3.407   1.514  0.1601  0.7554  1.6704
  634MOL0     H85549   6.261   3.442   1.583  0.7724  0.5187 -1.0308
  634MOL0     H85550   6.106   3.162   1.307  1.7466  0.8191 -1.1771
  634MOL0     H85551   5.853   3.198   1.078 -2.0130 -1.1155  0.0624
  634MOL0     H85552   5.923   3.092   1.190  0.0076 -0.9747  0.9918
  634MOL0     H85553   5.792   3.190   1.250  2.1083 -1.3289  2.1835
  634MOL0     H85554   5.745   3.867   1.239  0.0416  1.0974 -1.1776
  634MOL0     H85555   5.568   4.027   1.159  1.0942  0.2094 -2.1537
  634MOL0     H85556   5.158   3.875   1.117  1.3245 -0.3390  0.7153
  634MOL0     H85557   5.149   4.031   1.057 -0.5731 -0.4538 -3.6343
  634MOL0     H85558   5.278   3.818   0.883  0.4856  0.4281  1.2317
  634MOL0     H85559   5.099   3.856   0.896 -0.6953  1.8863 -0.2950
  634MOL0     H85560   5.319   4.048   0.800 -0.5101  0.6506 -1.9135
  634MOL0     H85561   5.146   4.086   0.821 -1.4865 -1.0256 -0.2461
  634MOL0     H85562   5.227   3.875   0.630  0.1615  0.4207  0.5834
  634MOL0     H85563   5.064   3.948   0.681  0.3367 -0.9855  1.2204
  634MOL0     H85564   5.290   4.117   0.544 -0.4060  2.6690  0.9056
  634MOL0     H85565   5.120   4.161   0.577  0.0108 -0.7858  0.7860
  634MOL0     H85566   5.239   3.934   0.404 -0.4775  0.3490 -0.7340
  634MOL0     H85567   5.070   3.957   0.413 -0.1106  0.0018 -1.4587
  634MOL0     H85568   5.165   4.221   0.343 -1.5049 -0.0071  1.6942
  634MOL0     H85569   5.078   4.118   0.251 -0.3811  0.1282 -0.5899
  634MOL0     H85570   5.376   4.125   0.284 -1.2564  0.8845  1.7077
  634MOL0     H85571   5.291   4.178   0.139  0.4336  0.6103  1.7154
  634MOL0     H85572   5.303   3.700   1.095  0.7212 -0.3590 -0.5074
  634MOL0     H85573   5.492   3.531   1.150  3.2634 -1.0359 -0.0781
  634MOL0     H85574   5.992   3.637   1.309  2.1795 -0.2453  2.4144
  634MOL0     H85575   6.202   3.568   1.403  0.5428 -1.2976  0.6708
  634MOL0     H85576   7.503   2.212   1.061  1.3299 -0.3565  1.3209
  634MOL0     H85577   7.695   2.090   0.999 -0.2940 -0.3272  0.0227
  634MOL0     H85578   8.001   1.949   0.830 -0.5794 -1.9915 -1.3446
  634MOL0     H85579   8.209   1.851   0.873  0.5772  1.4507  0.7411
  634MOL0     H85580   8.476   1.808   0.918 -0.2723  1.5981 -0.8374
  634MOL0     H85581   8.404   1.738   0.770  2.3651 -2.1218 -1.2538
  634MOL0     H85582   8.643   1.671   0.814 -0.8765  2.6806  4.4117
  634MOL0     H85583   8.694   1.831   0.760 -1.1487  0.3696 -1.8623
  634MOL0     H85584   8.512   1.658   0.594 -0.2007  1.4652 -1.7716
  634MOL0     H85585   8.682   1.644   0.576  2.0122  1.4404  1.7832
  634MOL0     H85586   8.658   1.901   0.514  1.3081 -0.4884 -2.6783
  634MOL0     H85587   8.489   1.866   0.509  1.7078  2.7700 -1.7574
  634MOL0     H85588   8.572   1.686   0.140 -0.5748  3.0262 -0.2651
  634MOL0     H85589   8.416   2.139   0.622 -0.2960 -0.3591 -0.4464
  634MOL0     H85590   8.186   2.254   0.599  2.3325  0.0873  1.5726
  635MOL0     O85591   5.471   6.662   6.901  0.3147 -0.2368  0.5299
  635MOL0     C85592   5.423   6.592   6.983  0.0564  0.7791 -1.3561
  635MOL0     O85593   5.482   6.485   7.044  0.6605 -0.4612 -0.0594
  635MOL0     C85594   5.600   6.445   6.994  0.6181 -0.3465 -1.1325
  635MOL0     C85595   5.715   6.469   7.066  0.4745  0.1395  0.3342
  635MOL0     C85596   5.836   6.421   7.015  0.4904  0.2410 -0.7191
  635MOL0     C85597   5.843   6.351   6.893 -0.8744  0.6631 -0.5255
  635MOL0     O85598   5.968   6.301   6.876  0.6441  0.0022  0.0028
  635MOL0     C85599   5.984   6.235   6.749 -0.4009  0.1567  0.0185
  635MOL0     C85600   6.131   6.202   6.736  0.1858  0.3048  0.1158
  635MOL0     C85601   6.226   6.320   6.750  0.5376  0.0164  0.0270
  635MOL0     C85602   6.370   6.274   6.718 -0.1725 -0.4849  0.2362
  635MOL0     C85603   6.458   6.400   6.711  0.4279  0.3707 -0.3883
  635MOL0     C85604   6.604   6.363   6.684  1.3675 -0.4402 -0.6607
  635MOL0     C85605   6.628   6.323   6.536  0.1511  0.4613 -0.4843
  635MOL0     C85606   6.782   6.293   6.528  0.7400 -0.0315  0.6172
  635MOL0     N85607   6.814   6.258   6.387  0.4350  0.1376 -0.4676
  635MOL0     C85608   6.871   6.346   6.292  0.4334 -0.2570 -0.4044
  635MOL0     C85609   6.894   6.270   6.180  0.4869  0.6303  0.6636
  635MOL0     C85610   6.942   6.317   6.048  0.1136  0.1570 -0.6523
  635MOL0     C85611   6.857   6.436   5.994  0.1634  1.1160  0.1802
  635MOL0     C85612   6.736   6.394   5.905  0.1825  0.2110  0.1524
  635MOL0     C85613   6.628   6.494   5.883  0.4812 -0.4219  0.8599
  635MOL0     O85614   6.538   6.433   5.798 -0.2464 -0.2731 -0.0236
  635MOL0     C85615   6.420   6.492   5.752  0.4058 -0.1350 -0.2959
  635MOL0     C85616   6.379   6.633   5.772 -0.1021 -0.2736  0.3238
  635MOL0     C85617   6.249   6.670   5.730  0.6781  0.3156  0.4579
  635MOL0     C85618   6.216   6.806   5.780  0.4000  0.8588 -0.1004
  635MOL0     C85619   6.149   6.583   5.673  0.2769 -0.6132  0.3770
  635MOL0     C85620   6.007   6.615   5.656 -0.3811  0.0439  0.2101
  635MOL0     O85621   5.927   6.504   5.621 -0.4622 -0.4705 -0.1744
  635MOL0     C85622   5.802   6.526   5.582  0.2977  0.2540 -0.5936
  635MOL0     C85623   5.763   6.572   5.463  0.3916 -0.9498  0.4436
  635MOL0     C85624   5.632   6.583   5.426 -0.9560 -0.0176 -0.9812
  635MOL0     C85625   5.529   6.555   5.518  0.0320 -0.4234  0.0211
  635MOL0     O85626   5.400   6.573   5.486  0.0977  0.5123  0.1709
  635MOL0     C85627   5.337   6.481   5.400 -0.6710  0.8527 -0.1165
  635MOL0     C85628   5.280   6.369   5.486  0.1992  0.2197  0.1064
  635MOL0     C85629   5.166   6.422   5.571  0.2392  0.8532  0.5319
  635MOL0     C85630   5.114   6.298   5.652 -0.1982 -0.5351 -0.2442
  635MOL0     C85631   4.977   6.340   5.707 -0.4179  0.1786  0.0492
  635MOL0     C85632   4.952   6.269   5.839 -0.2523 -0.0084  0.0811
  635MOL0     C85633   4.804   6.255   5.885 -0.2794 -0.6007 -0.3981
  635MOL0     C85634   4.751   6.109   5.849 -0.0030 -0.0715  0.0832
  635MOL0    Cl85635   4.822   5.992   5.974 -0.0903  0.0774  0.2694
  635MOL0     C85636   5.558   6.519   5.647 -0.2163  0.1765  0.6758
  635MOL0     C85637   5.700   6.501   5.677  0.1859  0.2244 -0.4935
  635MOL0     O85638   5.968   6.731   5.662  0.7360 -0.1900  0.5289
  635MOL0     C85639   6.199   6.457   5.648  0.6129  0.0204  0.0859
  635MOL0     C85640   6.326   6.412   5.684 -0.5761  0.5222 -0.1717
  635MOL0     N85641   6.845   6.138   6.200 -0.4383  0.3724 -0.1862
  635MOL0     N85642   6.802   6.138   6.320  0.2356  0.7273 -0.0030
  635MOL0     C85643   5.724   6.322   6.826  0.4827 -0.3555 -0.1510
  635MOL0     C85644   5.606   6.378   6.870  0.0264  0.4086  1.0474
  635MOL0     C85645   5.286   6.611   7.032  0.8413  0.3712 -0.2554
  635MOL0     C85646   5.234   6.545   7.145  0.4412  0.5561  0.9439
  635MOL0     C85647   5.105   6.576   7.198  0.2107  0.1814 -0.6662
  635MOL0     C85648   5.030   6.666   7.130  0.0648 -0.1898  0.8143
  635MOL0     O85649   4.898   6.690   7.158 -0.1206 -0.0533  0.3695
  635MOL0     C85650   4.837   6.616   7.267  0.1442  0.3511 -0.1117
  635MOL0     C85651   4.688   6.652   7.281 -0.2639  0.1473  0.2292
  635MOL0     C85652   4.627   6.552   7.377  1.0038  0.6391 -0.0540
  635MOL0     C85653   4.600   6.608   7.519 -0.1028 -0.5396  0.4062
  635MOL0     C85654   4.725   6.657   7.581  0.8103 -0.5115  0.4535
  635MOL0     C85655   4.821   6.694   7.647 -0.8027  0.0278  0.4591
  635MOL0     C85656   5.073   6.720   7.012  0.1630 -0.6208  0.3648
  635MOL0     C85657   5.200   6.703   6.964 -0.6057 -0.1578 -0.2793
  635MOL0     H85658   5.726   6.521   7.160  3.4122 -0.5852  0.4677
  635MOL0     H85659   5.920   6.458   7.073 -0.0501  1.4290 -0.6534
  635MOL0     H85660   5.918   6.148   6.747 -1.0160  0.6243 -0.8341
  635MOL0     H85661   5.957   6.300   6.666 -0.0286 -1.8765 -1.7690
  635MOL0     H85662   6.152   6.140   6.823 -0.9656  1.6414  1.3926
  635MOL0     H85663   6.145   6.149   6.641 -3.5401  0.4260 -0.6313
  635MOL0     H85664   6.202   6.402   6.682  2.3739  1.1970  0.7381
  635MOL0     H85665   6.215   6.374   6.844  1.9597  0.3438  0.0335
  635MOL0     H85666   6.399   6.206   6.798 -1.2729 -0.5617  0.5900
  635MOL0     H85667   6.377   6.225   6.620  1.3628 -0.2812  0.2143
  635MOL0     H85668   6.415   6.467   6.636 -0.7573 -0.7482 -0.7518
  635MOL0     H85669   6.442   6.445   6.809 -0.4999  0.3812 -0.5326
  635MOL0     H85670   6.668   6.449   6.706 -0.9574  0.7937  1.8529
  635MOL0     H85671   6.633   6.282   6.753  3.0992  2.2343  1.9859
  635MOL0     H85672   6.567   6.236   6.509 -0.4006  0.2841  1.1696
  635MOL0     H85673   6.596   6.399   6.465  1.6352  0.8403 -0.7659
  635MOL0     H85674   6.820   6.209   6.588  1.5776  0.1204  0.3144
  635MOL0     H85675   6.835   6.384   6.558  0.0206  0.6494 -0.1676
  635MOL0     H85676   6.892   6.453   6.301 -1.0190 -0.1143  2.0181
  635MOL0     H85677   7.044   6.341   6.077 -0.6912 -0.5720  3.4072
  635MOL0     H85678   6.954   6.240   5.971  0.9646 -0.9360  0.5339
  635MOL0     H85679   6.935   6.494   5.944  1.7147 -0.8458  0.2213
  635MOL0     H85680   6.820   6.493   6.080 -0.1610 -0.2881  0.9921
  635MOL0     H85681   6.689   6.307   5.952 -2.6146  2.0423  0.9812
  635MOL0     H85682   6.767   6.371   5.803 -0.0153  0.6685 -0.0160
  635MOL0     H85683   6.662   6.578   5.822 -2.5915 -0.2858 -0.8707
  635MOL0     H85684   6.585   6.527   5.978  0.9687  1.5330  0.4569
  635MOL0     H85685   6.443   6.695   5.834 -1.8785  0.4492  1.4922
  635MOL0     H85686   6.152   6.782   5.866  0.4898  0.5081 -0.1303
  635MOL0     H85687   6.296   6.866   5.825  0.0773  0.0359  1.6821
  635MOL0     H85688   6.155   6.859   5.708 -0.8834  2.4870  2.0630
  635MOL0     H85689   5.829   6.609   5.385 -3.3866 -2.2571 -3.7693
  635MOL0     H85690   5.601   6.625   5.331  0.1690 -0.6227 -1.6188
  635MOL0     H85691   5.248   6.526   5.355 -1.2936 -0.8025 -0.6291
  635MOL0     H85692   5.403   6.444   5.321  2.0305 -0.0376  2.4086
  635MOL0     H85693   5.238   6.292   5.419 -1.9369  2.1499 -0.9230
  635MOL0     H85694   5.359   6.336   5.554 -0.7963 -0.5077  0.9455
  635MOL0     H85695   5.078   6.459   5.517  0.8079  2.7399  0.8313
  635MOL0     H85696   5.197   6.502   5.638 -0.5489  1.1667  0.5327
  635MOL0     H85697   5.109   6.212   5.586 -1.5004 -0.8320  0.2204
  635MOL0     H85698   5.191   6.276   5.727  1.0911 -0.2434 -1.4439
  635MOL0     H85699   4.905   6.306   5.631  2.4223  1.6666 -3.6032
  635MOL0     H85700   4.968   6.447   5.726  0.0518  0.2844 -0.3201
  635MOL0     H85701   5.004   6.173   5.838  0.5616  0.4279 -1.4095
  635MOL0     H85702   4.993   6.338   5.914 -3.0183  1.6096  0.2666
  635MOL0     H85703   4.731   6.324   5.842  0.3390 -0.4697 -1.2574
  635MOL0     H85704   4.802   6.263   5.994 -4.1141  0.3872 -0.4191
  635MOL0     H85705   4.762   6.081   5.743  2.0217 -1.4131  0.5823
  635MOL0     H85706   4.642   6.107   5.856  0.0216 -2.2504  0.6427
  635MOL0     H85707   5.474   6.514   5.715 -1.8265  1.1090 -1.1593
  635MOL0     H85708   5.732   6.472   5.776 -1.7379 -0.3339  0.0024
  635MOL0     H85709   6.129   6.384   5.608  0.0887 -0.5269  1.8981
  635MOL0     H85710   6.348   6.308   5.662  4.3612  1.6176 -1.6113
  635MOL0     H85711   5.711   6.261   6.737 -0.4361 -1.9752  1.0261
  635MOL0     H85712   5.518   6.366   6.808  0.6500  0.9778  0.0131
  635MOL0     H85713   5.296   6.474   7.197  1.6650 -0.1204 -1.3035
  635MOL0     H85714   5.070   6.520   7.284  0.1022  1.7932  0.3801
  635MOL0     H85715   4.838   6.511   7.237 -1.8324  0.1941  0.2495
  635MOL0     H85716   4.899   6.632   7.356  0.2962  0.4720 -0.2392
  635MOL0     H85717   4.646   6.645   7.180  0.7296  1.4252 -0.2871
  635MOL0     H85718   4.681   6.757   7.311 -1.7282  1.1196 -2.9759
  635MOL0     H85719   4.692   6.465   7.390  0.8895 -0.0087 -3.1237
  635MOL0     H85720   4.533   6.516   7.333  0.3234  2.6498 -0.3637
  635MOL0     H85721   4.553   6.538   7.589  0.5792 -0.2431  1.1721
  635MOL0     H85722   4.532   6.691   7.499 -1.9709 -2.2736 -0.8783
  635MOL0     H85723   4.904   6.721   7.708 -0.4975 -1.5694  0.8166
  635MOL0     H85724   5.015   6.792   6.955  1.9774  0.5021 -0.1495
  635MOL0     H85725   5.229   6.767   6.881 -3.2478  1.3925 -0.0955
  636MOL0     O85726   4.164   4.496   7.708  0.1403  0.0205  0.8345
  636MOL0     C85727   4.200   4.475   7.593  0.3993  0.4697 -0.0918
  636MOL0     O85728   4.129   4.479   7.473  0.9400  0.6048  0.4360
  636MOL0     C85729   3.997   4.499   7.471  0.4335  0.2586  0.3315
  636MOL0     C85730   3.908   4.562   7.568 -0.3787  0.1679 -0.1642
  636MOL0     C85731   3.771   4.576   7.543  0.1875  0.0570 -0.2924
  636MOL0     C85732   3.716   4.529   7.422 -0.5252  0.3914 -0.7652
  636MOL0     O85733   3.579   4.536   7.423 -0.0216 -0.1599  0.1627
  636MOL0     C85734   3.507   4.522   7.302 -0.4730 -0.0413  0.2632
  636MOL0     C85735   3.359   4.513   7.333 -0.0971  0.7716 -0.0028
  636MOL0     C85736   3.332   4.386   7.408  0.4651 -0.5644  0.0310
  636MOL0     C85737   3.187   4.372   7.452  0.9206  0.8820 -0.2893
  636MOL0     C85738   3.165   4.222   7.489 -0.5994  0.1089  0.3117
  636MOL0     C85739   3.019   4.198   7.541  0.0380 -0.7257 -0.3923
  636MOL0     C85740   2.946   4.086   7.467  0.8406  0.3519  0.0237
  636MOL0     C85741   2.883   3.978   7.566 -0.0618 -0.2162 -1.1968
  636MOL0     N85742   2.794   3.890   7.487 -1.0451  0.1776 -0.7763
  636MOL0     C85743   2.663   3.920   7.453 -0.1269  0.6717 -1.0850
  636MOL0     C85744   2.613   3.806   7.394 -0.1732  0.1775  0.8401
  636MOL0     C85745   2.480   3.787   7.332 -0.5033 -0.5490  0.5192
  636MOL0     C85746   2.371   3.778   7.435 -0.0583  0.7049  0.1904
  636MOL0     C85747   2.291   3.908   7.455 -0.8450  0.3902  0.1762
  636MOL0     C85748   2.170   3.871   7.543  0.0438 -0.4293 -0.3246
  636MOL0     O85749   2.075   3.812   7.459  0.0332  0.3363  0.3378
  636MOL0     C85750   1.948   3.779   7.506  0.2156  0.0506  0.7700
  636MOL0     C85751   1.905   3.797   7.636 -0.5213 -0.6339  0.2190
  636MOL0     C85752   1.781   3.756   7.680 -0.8291  0.4639  0.1166
  636MOL0     C85753   1.740   3.801   7.821 -0.9012 -0.5914 -0.5333
  636MOL0     C85754   1.697   3.683   7.589 -0.3790 -0.1107 -0.4554
  636MOL0     C85755   1.552   3.641   7.626 -0.8837 -0.9271  0.1521
  636MOL0     O85756   1.481   3.593   7.522 -0.1153  0.0477  0.1382
  636MOL0     C85757   1.341   3.573   7.539 -0.0715 -0.7872  0.2903
  636MOL0     C85758   1.252   3.592   7.434 -0.5225  0.6926 -0.8345
  636MOL0     C85759   1.125   3.535   7.435 -0.4724  0.1564  0.2147
  636MOL0     C85760   1.065   3.461   7.531 -0.0119  0.4301 -0.2152
  636MOL0     O85761   0.936   3.412   7.512  0.1802  0.7171  1.2359
  636MOL0     C85762   0.888   3.325   7.616  0.5230  0.2453 -0.6694
  636MOL0     C85763   0.739   3.301   7.570 -0.1993  0.7452 -0.4464
  636MOL0     C85764   0.650   3.430   7.595 -0.0173  0.0578  0.1568
  636MOL0     C85765   0.511   3.409   7.516 -0.2780  0.6642  0.4725
  636MOL0     C85766   0.405   3.509   7.573  0.5106  0.4966 -0.0748
  636MOL0     C85767   0.275   3.506   7.476 -0.3583 -0.8058  0.1694
  636MOL0     C85768   0.290   3.599   7.348  0.1287 -0.4259  0.4534
  636MOL0     C85769   0.170   3.680   7.310 -0.3959 -0.1739  0.0948
  636MOL0    Cl85770   0.034   3.568   7.285 -0.3254 -0.4039  0.1068
  636MOL0     C85771   1.149   3.445   7.645  0.4645 -0.5788  0.2438
  636MOL0     C85772   1.282   3.500   7.643  0.6840 -0.2090 -0.7389
  636MOL0     O85773   1.513   3.655   7.737  0.3833  0.3936 -0.9200
  636MOL0     C85774   1.740   3.671   7.455 -0.7698 -0.1724  0.3246
  636MOL0     C85775   1.867   3.720   7.407 -0.6804 -0.2298  0.1711
  636MOL0     N85776   2.718   3.714   7.384  0.2428  0.2856  0.0671
  636MOL0     N85777   2.820   3.761   7.446 -0.1994  0.0696 -0.1374
  636MOL0     C85778   3.798   4.478   7.325  0.0491 -0.2646 -0.3722
  636MOL0     C85779   3.935   4.463   7.352  0.6583 -0.6516 -0.1676
  636MOL0     C85780   4.343   4.441   7.574  0.6406  0.0654 -0.1765
  636MOL0     C85781   4.383   4.380   7.460 -0.4062  0.6163  0.5695
  636MOL0     C85782   4.521   4.352   7.427  1.0335 -0.2429 -1.1766
  636MOL0     C85783   4.619   4.369   7.521 -0.4250  0.3091  0.6295
  636MOL0     O85784   4.745   4.338   7.488  0.4923  0.0551  0.1985
  636MOL0     C85785   4.855   4.398   7.558 -0.5025 -0.3870  0.3328
  636MOL0     C85786   4.993   4.370   7.496 -0.5765  0.0193  0.4270
  636MOL0     C85787   5.102   4.410   7.601  0.1051 -0.3606 -0.0814
  636MOL0     C85788   5.233   4.461   7.537  0.3726  0.3253 -0.2263
  636MOL0     C85789   5.334   4.514   7.632  0.4391  0.2141 -0.7949
  636MOL0     C85790   5.422   4.548   7.707  0.7374  0.3514 -0.0995
  636MOL0     C85791   4.581   4.429   7.645 -0.7658  0.0085 -0.0037
  636MOL0     C85792   4.448   4.452   7.673  0.3104 -0.5096 -0.5956
  636MOL0     H85793   3.943   4.595   7.665 -1.5116  1.2713 -0.1071
  636MOL0     H85794   3.708   4.625   7.616 -1.0304  0.8688 -1.8390
  636MOL0     H85795   3.514   4.619   7.252 -0.0216 -0.9690 -1.5610
  636MOL0     H85796   3.543   4.439   7.241  2.6162 -1.5086  3.6833
  636MOL0     H85797   3.329   4.600   7.392 -0.6529 -1.2808  2.9652
  636MOL0     H85798   3.300   4.507   7.241  3.1217  1.5094 -2.2870
  636MOL0     H85799   3.365   4.302   7.347  0.0917 -1.2225  0.7124
  636MOL0     H85800   3.388   4.387   7.502 -1.7052  1.4903  1.4295
  636MOL0     H85801   3.171   4.436   7.540 -0.4559 -1.2104  1.0862
  636MOL0     H85802   3.121   4.410   7.374  1.5562 -0.7541 -1.6674
  636MOL0     H85803   3.188   4.166   7.398 -0.6106 -0.3516  0.5828
  636MOL0     H85804   3.240   4.185   7.561 -1.5686 -2.0596  0.2952
  636MOL0     H85805   3.013   4.183   7.649  3.0059  0.3708  0.0328
  636MOL0     H85806   2.970   4.294   7.519  1.6327  0.3102  0.3554
  636MOL0     H85807   2.870   4.125   7.399  0.7220 -1.7000 -1.0812
  636MOL0     H85808   3.010   4.039   7.392 -2.0311 -3.4303 -0.3713
  636MOL0     H85809   2.832   4.031   7.646  0.4822  0.7296 -1.4612
  636MOL0     H85810   2.966   3.925   7.614  1.0758  1.9438 -0.6243
  636MOL0     H85811   2.600   4.006   7.477 -1.7799 -0.5166 -0.9367
  636MOL0     H85812   2.474   3.880   7.275  0.2107 -0.3494  0.7661
  636MOL0     H85813   2.478   3.698   7.268 -1.5097  0.4149 -0.8727
  636MOL0     H85814   2.412   3.738   7.529  3.4078  3.4140  0.0113
  636MOL0     H85815   2.303   3.701   7.397 -2.7445  1.3618  3.2418
  636MOL0     H85816   2.261   3.947   7.358  1.4429 -0.8164 -1.0943
  636MOL0     H85817   2.361   3.981   7.498 -1.6108  2.4472 -1.9190
  636MOL0     H85818   2.119   3.957   7.587 -3.1054 -2.2179 -0.1698
  636MOL0     H85819   2.197   3.808   7.628 -0.3483  1.7184  1.4775
  636MOL0     H85820   1.964   3.849   7.710 -1.0382 -1.4000  1.1915
  636MOL0     H85821   1.663   3.879   7.821 -0.7936 -0.4860  0.0251
  636MOL0     H85822   1.710   3.719   7.885  1.0077 -0.0247  1.1877
  636MOL0     H85823   1.825   3.850   7.869 -1.1365 -0.3263 -0.3754
  636MOL0     H85824   1.290   3.648   7.349 -0.0474  1.0281 -0.4077
  636MOL0     H85825   1.077   3.557   7.341  3.1002  0.7298 -1.6624
  636MOL0     H85826   0.943   3.231   7.615  1.0419  0.4699  1.3909
  636MOL0     H85827   0.904   3.368   7.716  2.1934  0.6419 -1.0775
  636MOL0     H85828   0.741   3.269   7.465 -2.4031 -3.5667  0.5762
  636MOL0     H85829   0.702   3.212   7.622  4.4326 -2.9435 -2.6580
  636MOL0     H85830   0.697   3.519   7.552 -0.3523 -0.2686 -0.9281
  636MOL0     H85831   0.643   3.436   7.704  0.2266  1.2846  0.1208
  636MOL0     H85832   0.537   3.432   7.412  1.3098 -0.8974  0.4878
  636MOL0     H85833   0.467   3.310   7.525 -0.2525  0.5526 -0.5503
  636MOL0     H85834   0.436   3.614   7.573  0.0101  0.6566 -1.2457
  636MOL0     H85835   0.380   3.473   7.673 -1.4778  0.7017 -0.4482
  636MOL0     H85836   0.252   3.406   7.438 -1.5779  0.0427 -1.4464
  636MOL0     H85837   0.194   3.534   7.544 -1.0900 -1.2824 -0.4878
  636MOL0     H85838   0.338   3.537   7.273 -0.2035 -0.9270  0.6451
  636MOL0     H85839   0.361   3.680   7.363 -0.7005  0.2918  0.5734
  636MOL0     H85840   0.182   3.732   7.215  1.7991 -0.3958  0.1775
  636MOL0     H85841   0.148   3.761   7.380 -2.8523  1.4786 -2.3903
  636MOL0     H85842   1.111   3.386   7.727 -0.6548 -2.9587 -1.8361
  636MOL0     H85843   1.352   3.484   7.725  2.3905  0.9301 -1.8874
  636MOL0     H85844   1.687   3.613   7.380 -0.7241 -0.3137  0.4031
  636MOL0     H85845   1.884   3.711   7.300 -0.0464  1.6911  0.0693
  636MOL0     H85846   3.768   4.436   7.229  2.2084 -2.5407 -0.1643
  636MOL0     H85847   3.989   4.421   7.268 -0.2608 -0.1251 -1.0563
  636MOL0     H85848   4.315   4.368   7.377  1.1379 -1.1103 -0.5226
  636MOL0     H85849   4.540   4.314   7.327 -0.3244  0.1892 -1.6188
  636MOL0     H85850   4.830   4.504   7.569  3.1291  0.5347  0.8719
  636MOL0     H85851   4.853   4.350   7.656 -0.2252 -0.0033  0.5290
  636MOL0     H85852   4.991   4.442   7.414  3.2193 -0.2306 -0.0903
  636MOL0     H85853   5.016   4.270   7.457 -0.0069  1.0555 -2.0634
  636MOL0     H85854   5.133   4.328   7.666 -1.0269  0.3351  1.4029
  636MOL0     H85855   5.057   4.499   7.648  0.9989 -0.2586  0.6164
  636MOL0     H85856   5.203   4.533   7.461  0.9308 -0.9185 -1.6816
  636MOL0     H85857   5.284   4.382   7.481  0.5286 -0.7328  1.3555
  636MOL0     H85858   5.498   4.588   7.770 -0.3184 -0.3630  1.7123
  636MOL0     H85859   4.653   4.435   7.726 -0.0144 -0.7313 -0.5964
  636MOL0     H85860   4.423   4.490   7.772 -0.2239 -1.8235 -0.2019
  637MOL0     O85861  11.072   5.081   2.264  0.1040  0.5122  0.5852
  637MOL0     C85862  11.112   4.972   2.294  0.1327  0.6535  0.8980
  637MOL0     O85863  11.053   4.851   2.259 -0.5997  0.5285 -0.2136
  637MOL0     C85864  10.939   4.832   2.174 -0.3991  0.3974  0.5840
  637MOL0     C85865  10.921   4.702   2.121 -0.1122 -0.1325  0.2426
  637MOL0     C85866  10.807   4.670   2.054 -0.2398 -0.2902  0.5507
  637MOL0     C85867  10.695   4.757   2.040 -0.2187 -0.2376 -0.2254
  637MOL0     O85868  10.578   4.712   1.983  0.2430  0.3214  0.4738
  637MOL0     C85869  10.453   4.761   2.025 -0.3711  1.7271 -0.1800
  637MOL0     C85870  10.338   4.688   1.973 -0.2532 -0.4985 -0.2400
  637MOL0     C85871  10.303   4.725   1.826  0.0127  0.1296  0.8056
  637MOL0     C85872  10.232   4.614   1.758 -0.5839  0.8760 -1.3123
  637MOL0     C85873  10.177   4.650   1.617  0.4090 -0.1077 -0.3218
  637MOL0     C85874  10.077   4.539   1.585  0.3804 -0.2729  0.7967
  637MOL0     C85875  10.140   4.399   1.554  0.0421  0.0797  0.1663
  637MOL0     C85876  10.212   4.402   1.423  0.1280  0.3796 -0.6311
  637MOL0     N85877  10.257   4.269   1.367  0.2357  0.0163 -0.6278
  637MOL0     C85878  10.272   4.151   1.440 -0.6365 -0.8406  0.0461
  637MOL0     C85879  10.272   4.060   1.341  0.0191 -0.0236 -0.2113
  637MOL0     C85880  10.290   3.912   1.356  0.2764 -0.2261  0.0269
  637MOL0     C85881  10.324   3.863   1.492  0.0480 -0.5889  0.6773
  637MOL0     C85882  10.339   3.712   1.512  1.4364 -0.4949  0.5674
  637MOL0     C85883  10.221   3.625   1.525  1.1894  0.2313  0.1383
  637MOL0     O85884  10.147   3.625   1.406 -0.4808  0.0760  0.0095
  637MOL0     C85885  10.019   3.587   1.404 -0.4275  0.0262 -0.4394
  637MOL0     C85886   9.956   3.544   1.516 -0.0960 -0.0467 -0.0116
  637MOL0     C85887   9.822   3.517   1.527 -0.2378  0.1019 -0.1312
  637MOL0     C85888   9.776   3.468   1.659  0.2926  0.0143 -0.1101
  637MOL0     C85889   9.743   3.544   1.418  0.0238 -0.3874 -0.2124
  637MOL0     C85890   9.596   3.540   1.429 -0.6639  0.3283  0.4272
  637MOL0     O85891   9.534   3.573   1.550 -0.3208  0.1426  0.2206
  637MOL0     C85892   9.403   3.553   1.555 -0.6299  0.5070  0.4719
  637MOL0     C85893   9.352   3.430   1.601 -0.7489  0.4012  0.7828
  637MOL0     C85894   9.219   3.409   1.615 -0.4904  0.3090 -0.5963
  637MOL0     C85895   9.132   3.522   1.597  0.0847 -0.4925 -1.0033
  637MOL0     O85896   8.996   3.513   1.609  0.2776  0.0180  0.0970
  637MOL0     C85897   8.933   3.391   1.637 -0.4664 -0.4534 -0.1329
  637MOL0     C85898   8.916   3.309   1.510  0.2020  0.2077 -0.4791
  637MOL0     C85899   8.835   3.376   1.396 -1.0042  0.5803  0.5786
  637MOL0     C85900   8.875   3.306   1.260 -0.2541 -0.2991  0.3825
  637MOL0     C85901   8.781   3.346   1.155 -0.1310 -0.8380  0.4794
  637MOL0     C85902   8.636   3.289   1.157 -0.3777  0.3437 -0.2133
  637MOL0     C85903   8.631   3.142   1.122 -0.5541 -0.1232  1.1497
  637MOL0     C85904   8.490   3.094   1.119  0.1412  0.0980 -0.5157
  637MOL0    Cl85905   8.405   3.093   1.262 -0.1261 -0.0009  0.0189
  637MOL0     C85906   9.181   3.650   1.569  0.0038  0.0328 -0.1855
  637MOL0     C85907   9.316   3.662   1.537 -1.0860  0.4819 -0.0869
  637MOL0     O85908   9.539   3.507   1.322 -0.0453  0.4743 -0.0581
  637MOL0     C85909   9.803   3.569   1.296 -0.4373  0.6676  0.6638
  637MOL0     C85910   9.942   3.591   1.287 -0.2398  0.2824  0.2344
  637MOL0     N85911  10.278   4.118   1.217  0.5117  0.2605 -0.0325
  637MOL0     N85912  10.262   4.243   1.234 -0.5366 -0.3665 -0.2704
  637MOL0     C85913  10.719   4.891   2.092 -0.1377  0.0622 -0.4794
  637MOL0     C85914  10.842   4.932   2.153  0.8965  0.0308  0.1377
  637MOL0     C85915  11.236   4.976   2.377 -1.2037 -0.5205  0.4849
  637MOL0     C85916  11.335   5.087   2.377  1.2311 -0.6261  0.6204
  637MOL0     C85917  11.451   5.082   2.451  0.1289 -0.3473 -0.0033
  637MOL0     C85918  11.465   4.970   2.542 -0.1470 -0.7547 -0.9979
  637MOL0     O85919  11.581   4.937   2.614  0.1669  0.2595 -0.5598
  637MOL0     C85920  11.680   5.047   2.620 -0.5710 -0.7369 -0.9175
  637MOL0     C85921  11.787   4.983   2.716 -0.8173 -0.5230 -1.6611
  637MOL0     C85922  11.880   4.883   2.644  0.7765  0.7085 -0.0529
  637MOL0     C85923  12.006   4.847   2.728 -0.2034 -1.0259  0.4491
  637MOL0     C85924  12.116   4.949   2.694 -0.3041 -0.4520 -0.5073
  637MOL0     C85925  12.206   5.023   2.676  0.2706 -0.3940 -0.0495
  637MOL0     C85926  11.364   4.877   2.558  0.0404  0.1794  0.8753
  637MOL0     C85927  11.253   4.882   2.478 -0.5236  0.4825  1.3664
  637MOL0     H85928  11.010   4.641   2.127  0.4554  0.6447 -0.1306
  637MOL0     H85929  10.808   4.576   2.001  1.0355 -0.4990  0.9139
  637MOL0     H85930  10.446   4.775   2.133  1.5910  0.5081  0.1424
  637MOL0     H85931  10.451   4.862   1.982  2.0944  1.4702 -1.0307
  637MOL0     H85932  10.338   4.580   1.994 -0.5214 -0.2748  1.0084
  637MOL0     H85933  10.256   4.734   2.027 -0.5669 -1.5724  0.2358
  637MOL0     H85934  10.239   4.813   1.835  0.4679  0.3322  2.3283
  637MOL0     H85935  10.392   4.740   1.764  1.3279 -0.9754  2.3613
  637MOL0     H85936  10.308   4.536   1.743 -0.1692  1.4760 -2.4778
  637MOL0     H85937  10.154   4.576   1.825 -0.6714 -0.2001 -1.9948
  637MOL0     H85938  10.130   4.749   1.625  4.1503  1.6889  2.3905
  637MOL0     H85939  10.258   4.664   1.546  1.3140 -0.8278  0.5496
  637MOL0     H85940  10.009   4.529   1.670 -1.3000  1.9641 -0.2102
  637MOL0     H85941  10.020   4.573   1.498  1.0608  5.2205  2.1770
  637MOL0     H85942  10.198   4.359   1.638  0.9593 -2.6339 -1.6305
  637MOL0     H85943  10.056   4.329   1.553 -0.3255  0.5109 -0.5891
  637MOL0     H85944  10.297   4.465   1.448  1.8430 -2.2318  0.6161
  637MOL0     H85945  10.160   4.452   1.341  3.0561 -0.1153 -2.9184
  637MOL0     H85946  10.267   4.141   1.548  1.3835 -0.9505  0.1604
  637MOL0     H85947  10.210   3.855   1.306  1.4100 -1.4370 -0.4699
  637MOL0     H85948  10.382   3.889   1.302  0.4168  2.7149 -1.1318
  637MOL0     H85949  10.244   3.896   1.559  1.3887  1.6674  1.2660
  637MOL0     H85950  10.420   3.909   1.516 -0.2566 -0.0876  0.9480
  637MOL0     H85951  10.392   3.707   1.608  2.2678 -2.0095  0.0775
  637MOL0     H85952  10.396   3.666   1.430 -2.2073 -1.5959 -1.5585
  637MOL0     H85953  10.153   3.668   1.600  0.1690 -0.8369 -0.1470
  637MOL0     H85954  10.244   3.523   1.555 -0.1484 -1.0198 -2.6730
  637MOL0     H85955  10.008   3.524   1.609  0.8595  2.2576  0.0012
  637MOL0     H85956   9.860   3.435   1.721 -0.2891 -2.4746 -0.5241
  637MOL0     H85957   9.728   3.550   1.713  0.4245  0.4990 -0.7160
  637MOL0     H85958   9.714   3.378   1.648  0.0695  0.0999  0.4315
  637MOL0     H85959   9.424   3.351   1.620  1.4295  1.8305 -0.8954
  637MOL0     H85960   9.185   3.310   1.644 -0.3307  0.1997 -0.7792
  637MOL0     H85961   8.976   3.328   1.716  0.8174 -3.0652 -2.7521
  637MOL0     H85962   8.840   3.424   1.684  0.2533  0.9544  0.3649
  637MOL0     H85963   9.018   3.281   1.483 -0.2366 -2.1677  0.1534
  637MOL0     H85964   8.862   3.217   1.533  0.8269  0.1389  0.7867
  637MOL0     H85965   8.866   3.481   1.397 -0.3965  0.4046  0.7313
  637MOL0     H85966   8.729   3.369   1.421 -0.9618 -0.4125  0.5069
  637MOL0     H85967   8.980   3.330   1.237 -0.1671 -1.3403 -0.3278
  637MOL0     H85968   8.871   3.197   1.267  0.1049 -0.2824  0.9226
  637MOL0     H85969   8.827   3.306   1.064 -1.7628 -0.3352 -0.6148
  637MOL0     H85970   8.765   3.452   1.133 -1.8802 -1.2231 -0.2855
  637MOL0     H85971   8.593   3.304   1.256 -1.1562  3.4505 -0.9065
  637MOL0     H85972   8.570   3.353   1.098  0.6097  2.6281  1.0323
  637MOL0     H85973   8.690   3.090   1.199  1.0120  1.8861  1.3942
  637MOL0     H85974   8.679   3.133   1.024 -0.2958  1.3004  1.1284
  637MOL0     H85975   8.497   2.990   1.085  3.1104 -0.2218  0.7421
  637MOL0     H85976   8.424   3.143   1.047 -0.4528 -0.3181 -0.2653
  637MOL0     H85977   9.113   3.735   1.568 -1.1471 -0.7810  2.1714
  637MOL0     H85978   9.353   3.758   1.502 -0.8021  0.7658  0.9634
  637MOL0     H85979   9.737   3.588   1.212  0.4931 -0.8262 -0.4589
  637MOL0     H85980   9.991   3.624   1.196 -0.3310  3.0915  1.1216
  637MOL0     H85981  10.629   4.950   2.081 -0.6407 -0.3598  1.1045
  637MOL0     H85982  10.851   5.033   2.193  0.5465 -1.1046  3.3376
  637MOL0     H85983  11.306   5.181   2.331 -1.4623 -1.6268  0.1187
  637MOL0     H85984  11.521   5.164   2.438  1.6240 -1.5991 -0.2672
  637MOL0     H85985  11.726   5.079   2.526 -0.7199 -1.5216 -1.2686
  637MOL0     H85986  11.623   5.127   2.668 -0.7951 -2.1921  1.4364
  637MOL0     H85987  11.750   4.934   2.806  1.5595 -0.0855 -0.3596
  637MOL0     H85988  11.842   5.069   2.757 -1.5404 -1.3305  1.2042
  637MOL0     H85989  11.915   4.924   2.549 -0.1342 -2.3428 -1.8539
  637MOL0     H85990  11.822   4.795   2.615  0.7882  0.4032  0.8055
  637MOL0     H85991  12.046   4.750   2.696 -1.1489 -1.6532  1.1228
  637MOL0     H85992  11.992   4.838   2.836 -0.8705  0.1679  0.4767
  637MOL0     H85993  12.291   5.085   2.658  0.3701  0.2360  2.2232
  637MOL0     H85994  11.377   4.801   2.634 -2.9307  1.1534  2.5226
  637MOL0     H85995  11.182   4.800   2.478  3.0346 -2.9431 -0.1740
  638MOL0     O85996   1.583   5.693   6.866  0.0334 -0.1923  0.2155
  638MOL0     C85997   1.588   5.600   6.789  0.6490 -0.5853  0.1404
  638MOL0     O85998   1.485   5.551   6.714  0.0505  0.0342 -0.1193
  638MOL0     C85999   1.363   5.623   6.718 -0.2347 -0.2654  0.2219
  638MOL0     C86000   1.330   5.725   6.626 -1.1569  1.0524 -0.2607
  638MOL0     C86001   1.206   5.787   6.630 -0.9971 -1.0041 -0.6411
  638MOL0     C86002   1.108   5.755   6.721  0.0228 -0.3189 -0.0468
  638MOL0     O86003   0.993   5.833   6.718 -0.5169  1.0071 -0.1850
  638MOL0     C86004   0.935   5.862   6.849  0.0144 -0.5162  0.7252
  638MOL0     C86005   0.813   5.779   6.868 -0.1021  0.1347 -0.5173
  638MOL0     C86006   0.737   5.826   6.999 -0.6278 -0.3597 -0.8805
  638MOL0     C86007   0.617   5.733   7.019 -0.1935  0.3212 -0.0694
  638MOL0     C86008   0.512   5.783   7.123 -0.2274 -0.3250  1.0139
  638MOL0     C86009   0.570   5.797   7.265  0.0064 -0.5415  0.4096
  638MOL0     C86010   0.456   5.822   7.369  0.0013  0.5727 -0.3755
  638MOL0     C86011   0.408   5.695   7.425  0.3844  0.8038 -0.5425
  638MOL0     N86012   0.294   5.720   7.519  0.2355  0.2373  0.2378
  638MOL0     C86013   0.184   5.799   7.494  0.6212  0.1282  0.4952
  638MOL0     C86014   0.117   5.804   7.618 -0.1965  0.4461 -0.1290
  638MOL0     C86015  -0.009   5.880   7.651  0.0717  0.0591  0.4190
  638MOL0     C86016  -0.141   5.817   7.597 -0.2603 -0.4513  0.3807
  638MOL0     C86017  -0.269   5.872   7.665 -0.6406  0.8213  0.4269
  638MOL0     C86018  -0.384   5.783   7.621 -0.2172  0.5233 -1.0374
  638MOL0     O86019  -0.511   5.838   7.649  0.2813  0.2846 -0.5550
  638MOL0     C86020  -0.627   5.770   7.615 -0.3650 -0.0987 -0.3570
  638MOL0     C86021  -0.736   5.824   7.674 -0.0886 -0.3261  0.9493
  638MOL0     C86022  -0.871   5.770   7.662  0.6725  0.3027  0.0378
  638MOL0     C86023  -0.973   5.835   7.734  0.9568 -0.4981  0.0481
  638MOL0     C86024  -0.881   5.647   7.593  0.5375  0.5866 -0.0334
  638MOL0     C86025  -0.999   5.568   7.590 -0.4728  0.6775  0.0650
  638MOL0     O86026  -1.046   5.508   7.709 -0.2937  0.3624 -0.7650
  638MOL0     C86027  -1.177   5.474   7.720 -1.0006 -0.1035 -0.4131
  638MOL0     C86028  -1.222   5.356   7.661 -0.9256  0.3895  0.2792
  638MOL0     C86029  -1.345   5.310   7.688 -0.1514  0.3061 -0.6226
  638MOL0     C86030  -1.440   5.368   7.774  0.1280 -0.1102 -0.0336
  638MOL0     O86031  -1.572   5.311   7.791 -0.3647 -0.1376 -0.3011
  638MOL0     C86032  -1.576   5.171   7.822 -0.5085  0.2754  0.8782
  638MOL0     C86033  -1.692   5.148   7.932 -0.3989  0.2635  0.0735
  638MOL0     C86034  -1.650   5.230   8.058 -0.2389  0.4386 -0.0304
  638MOL0     C86035  -1.760   5.220   8.158  0.2529  1.0343 -0.1450
  638MOL0     C86036  -1.890   5.296   8.127 -1.2387 -0.5566  0.7390
  638MOL0     C86037  -1.994   5.288   8.237 -0.2094  0.1482 -0.8255
  638MOL0     C86038  -2.042   5.148   8.251 -0.8710 -0.6073  0.0081
  638MOL0     C86039  -2.163   5.131   8.332  0.1781 -0.5585 -0.4929
  638MOL0    Cl86040  -2.160   5.233   8.489 -0.4092  0.1778 -0.1570
  638MOL0     C86041  -1.402   5.493   7.824  0.1366  0.0427 -0.0336
  638MOL0     C86042  -1.263   5.542   7.807 -0.5275  0.1765 -0.6888
  638MOL0     O86043  -1.044   5.546   7.476 -0.1950  0.1500  0.4780
  638MOL0     C86044  -0.772   5.596   7.525  0.5958  0.0114  0.3233
  638MOL0     C86045  -0.642   5.658   7.524  0.9621 -0.5824 -0.8378
  638MOL0     N86046   0.186   5.722   7.708  0.0341  0.5914  0.6444
  638MOL0     N86047   0.293   5.677   7.650  0.0589 -0.9276  0.4708
  638MOL0     C86048   1.133   5.650   6.810  0.1484 -0.2269 -0.5476
  638MOL0     C86049   1.264   5.593   6.815  0.5681  0.1115  0.3752
  638MOL0     C86050   1.721   5.535   6.777  0.2228 -0.2499 -0.3960
  638MOL0     C86051   1.735   5.417   6.707 -0.1261  0.4081  0.1296
  638MOL0     C86052   1.853   5.347   6.695 -0.1165 -0.7752 -0.0623
  638MOL0     C86053   1.962   5.393   6.768  0.1068 -0.0176 -1.0314
  638MOL0     O86054   2.087   5.336   6.766 -1.0056 -0.5599 -0.7498
  638MOL0     C86055   2.182   5.405   6.688  0.7003  0.5718 -0.5628
  638MOL0     C86056   2.263   5.300   6.623 -0.4013 -0.0869  0.2892
  638MOL0     C86057   2.183   5.209   6.520  0.3519 -0.7699 -0.5281
  638MOL0     C86058   2.177   5.273   6.378 -0.0181 -0.1530 -0.6067
  638MOL0     C86059   2.063   5.358   6.364  0.1685  0.8496  1.2267
  638MOL0     C86060   1.978   5.438   6.344 -0.4248  0.2350 -0.1177
  638MOL0     C86061   1.946   5.496   6.858 -0.2715 -0.2631  0.4686
  638MOL0     C86062   1.833   5.579   6.857 -0.1157 -0.8941  0.3510
  638MOL0     H86063   1.398   5.752   6.546 -1.5560  1.8175 -0.3468
  638MOL0     H86064   1.193   5.864   6.555  1.7322  0.2280  0.0277
  638MOL0     H86065   1.003   5.865   6.935  2.3779  0.8192 -1.0538
  638MOL0     H86066   0.902   5.965   6.832  1.3592  0.3417  2.9352
  638MOL0     H86067   0.745   5.780   6.782 -0.7772  0.7653  0.0023
  638MOL0     H86068   0.851   5.677   6.876  2.1954  0.8967 -1.0056
  638MOL0     H86069   0.806   5.816   7.083 -0.9966  3.1224 -0.0160
  638MOL0     H86070   0.706   5.931   6.991  1.6247  0.2532 -2.4089
  638MOL0     H86071   0.563   5.731   6.923 -1.3403  0.7290  0.5401
  638MOL0     H86072   0.645   5.631   7.047  0.4988 -0.0770 -2.0583
  638MOL0     H86073   0.469   5.878   7.089 -0.1067 -0.8417 -0.6702
  638MOL0     H86074   0.427   5.715   7.132  1.3803 -2.8815 -1.4676
  638MOL0     H86075   0.623   5.704   7.283  3.4212  1.0821 -0.4258
  638MOL0     H86076   0.649   5.873   7.265  0.8768 -1.4053  2.1051
  638MOL0     H86077   0.492   5.882   7.453  0.9283 -0.3940 -0.0538
  638MOL0     H86078   0.384   5.889   7.321  1.8835  0.3378 -3.9280
  638MOL0     H86079   0.488   5.649   7.484  0.3649 -0.6694 -1.5937
  638MOL0     H86080   0.383   5.621   7.348 -4.0719  0.0337  1.3549
  638MOL0     H86081   0.158   5.853   7.404  1.8477  0.8894  0.5820
  638MOL0     H86082  -0.023   5.894   7.759 -1.0900  3.7077 -0.0479
  638MOL0     H86083   0.002   5.985   7.623 -1.5602  0.5502  1.4733
  638MOL0     H86084  -0.136   5.708   7.601  0.4458 -0.5558 -1.8788
  638MOL0     H86085  -0.148   5.844   7.491  0.3242  0.4691  0.5588
  638MOL0     H86086  -0.290   5.972   7.627  1.2495  0.7683 -0.9030
  638MOL0     H86087  -0.263   5.871   7.774 -0.6238 -3.1732  0.5350
  638MOL0     H86088  -0.378   5.695   7.686  1.4782  3.4396  3.1678
  638MOL0     H86089  -0.373   5.756   7.516  0.3838 -2.6367 -0.2558
  638MOL0     H86090  -0.724   5.894   7.756  0.1744 -1.3132  1.7689
  638MOL0     H86091  -0.956   5.943   7.740  0.5170 -0.4107 -0.2269
  638MOL0     H86092  -1.069   5.821   7.682  0.9146  0.2196 -0.0841
  638MOL0     H86093  -0.975   5.787   7.832  3.1887 -0.6057  0.0809
  638MOL0     H86094  -1.151   5.316   7.590 -0.8694  1.2974 -0.2048
  638MOL0     H86095  -1.394   5.225   7.641 -1.3241  0.2674  0.6128
  638MOL0     H86096  -1.599   5.112   7.733 -0.1707 -1.1184  1.6911
  638MOL0     H86097  -1.485   5.135   7.871  1.4682  1.0492 -1.9433
  638MOL0     H86098  -1.789   5.184   7.895 -1.6863 -3.3500 -0.4764
  638MOL0     H86099  -1.705   5.040   7.944  0.3664  0.3459  1.9074
  638MOL0     H86100  -1.643   5.338   8.042 -0.9528  1.1469  3.5256
  638MOL0     H86101  -1.559   5.186   8.099  0.5051  1.7600 -0.2246
  638MOL0     H86102  -1.775   5.113   8.176 -1.2378  1.1263 -0.7417
  638MOL0     H86103  -1.720   5.257   8.254 -0.2101 -1.5053  1.1126
  638MOL0     H86104  -1.932   5.262   8.032 -2.3222 -1.7525  1.6165
  638MOL0     H86105  -1.870   5.403   8.123  0.8446 -0.9221  0.3161
  638MOL0     H86106  -1.939   5.317   8.327 -1.2318 -0.0661 -0.1094
  638MOL0     H86107  -2.081   5.353   8.224 -1.0901 -0.3636  1.9275
  638MOL0     H86108  -1.966   5.083   8.295 -0.9572 -2.1047 -1.9292
  638MOL0     H86109  -2.051   5.098   8.155  2.5804 -1.4577 -0.0046
  638MOL0     H86110  -2.191   5.025   8.342 -2.9477 -0.2462 -3.8250
  638MOL0     H86111  -2.240   5.176   8.268  0.9656  0.7928 -0.5288
  638MOL0     H86112  -1.481   5.541   7.881 -0.4929 -0.2149 -0.6705
  638MOL0     H86113  -1.222   5.625   7.865  1.5040  0.8948 -2.9790
  638MOL0     H86114  -0.780   5.501   7.474 -0.1977  0.4008 -0.3043
  638MOL0     H86115  -0.550   5.628   7.476  2.4460  1.5072  0.5036
  638MOL0     H86116   1.065   5.615   6.887  1.4227 -0.5143  0.4868
  638MOL0     H86117   1.292   5.511   6.880  1.2771 -1.1757 -1.4656
  638MOL0     H86118   1.652   5.374   6.652  1.8063 -3.9964  0.2010
  638MOL0     H86119   1.858   5.266   6.622 -0.0838  0.5861 -1.6469
  638MOL0     H86120   2.135   5.468   6.612  3.4219  1.2072 -1.8461
  638MOL0     H86121   2.237   5.483   6.741  0.3475  0.7682 -0.4789
  638MOL0     H86122   2.301   5.234   6.701  0.5000  1.0309  0.8219
  638MOL0     H86123   2.346   5.353   6.576 -1.7888 -0.0050 -2.2753
  638MOL0     H86124   2.088   5.168   6.556 -0.0279  1.1025  0.6999
  638MOL0     H86125   2.240   5.115   6.510 -0.6761 -1.5737  0.7861
  638MOL0     H86126   2.169   5.198   6.299 -2.3688  0.3377 -0.8955
  638MOL0     H86127   2.265   5.333   6.349  0.0251  0.0637 -0.0467
  638MOL0     H86128   1.892   5.495   6.315  0.0071  1.8201  1.5665
  638MOL0     H86129   2.038   5.524   6.907  1.2721  1.1914 -2.9336
  638MOL0     H86130   1.820   5.662   6.927 -3.4346  0.4385 -1.5910
  639MOL0     O86131   0.329   9.380  10.940 -0.1347  0.3072 -0.1648
  639MOL0     C86132   0.369   9.281  10.883 -0.2142  0.8688  0.3640
  639MOL0     O86133   0.297   9.178  10.829 -0.3140 -0.2966 -0.0155
  639MOL0     C86134   0.164   9.182  10.851  0.2061  0.5588  0.1516
  639MOL0     C86135   0.082   9.211  10.741 -0.7793  0.2568  0.3304
  639MOL0     C86136  -0.053   9.239  10.761 -0.4800  0.1880 -1.1832
  639MOL0     C86137  -0.114   9.208  10.880  0.2883 -0.5246  0.2679
  639MOL0     O86138  -0.255   9.225  10.886 -0.3138  0.9843 -0.0797
  639MOL0     C86139  -0.321   9.153  10.995  0.4329 -0.0887  0.1375
  639MOL0     C86140  -0.468   9.145  10.956 -0.3155  0.1826  0.3434
  639MOL0     C86141  -0.540   9.287  10.960  0.0380 -0.6226 -0.0129
  639MOL0     C86142  -0.689   9.261  10.961  0.2251 -0.2142  0.2147
  639MOL0     C86143  -0.773   9.390  10.969  0.9622 -0.5868  0.0326
  639MOL0     C86144  -0.744   9.504  10.871 -0.1306 -0.0723  0.6299
  639MOL0     C86145  -0.828   9.630  10.890  0.5579 -0.7533  0.1025
  639MOL0     C86146  -0.806   9.729  10.774  0.0154  0.1333  0.0916
  639MOL0     N86147  -0.920   9.822  10.763  0.1629 -0.9882  0.2834
  639MOL0     C86148  -1.024   9.808  10.676  0.3982 -0.1211  0.3395
  639MOL0     C86149  -1.099   9.926  10.691 -0.4080 -0.5436  0.8891
  639MOL0     C86150  -1.246   9.931  10.643  0.3144 -0.2516 -0.7350
  639MOL0     C86151  -1.332  10.047  10.699 -0.1728 -0.5568  0.6546
  639MOL0     C86152  -1.365  10.017  10.849 -1.1952  0.7371  0.1382
  639MOL0     C86153  -1.418  10.143  10.921  0.1368 -0.6920 -0.1553
  639MOL0     O86154  -1.518  10.200  10.842 -0.0840  0.4756 -0.2941
  639MOL0     C86155  -1.656  10.169  10.862  0.1060 -0.2132  0.5267
  639MOL0     C86156  -1.754  10.260  10.820  0.0002 -0.6368 -0.4322
  639MOL0     C86157  -1.893  10.237  10.836  0.0238 -0.2214 -0.5187
  639MOL0     C86158  -1.990  10.328  10.777  0.6615 -0.9885  0.6708
  639MOL0     C86159  -1.934  10.118  10.897  0.6387 -0.3918 -0.4476
  639MOL0     C86160  -2.077  10.100  10.934  0.3069  0.4012 -0.4777
  639MOL0     O86161  -2.138   9.983  10.900  0.2824  0.3468  0.4719
  639MOL0     C86162  -2.270   9.985  10.931 -0.6219 -0.4680  0.5599
  639MOL0     C86163  -2.360  10.004  10.830 -0.2325  0.9686  0.1473
  639MOL0     C86164  -2.496  10.045  10.854  0.4400 -0.4500 -1.1750
  639MOL0     C86165  -2.532  10.069  10.990 -0.4067 -0.9471  0.5898
  639MOL0     O86166  -2.651  10.132  11.020  0.1972  0.4715  0.1188
  639MOL0     C86167  -2.753  10.160  10.920  1.2152  0.1337  0.2668
  639MOL0     C86168  -2.862  10.230  10.996  0.7037  0.7086 -0.4501
  639MOL0     C86169  -2.976  10.292  10.914  0.3696  0.3726 -0.6960
  639MOL0     C86170  -2.955  10.440  10.889 -0.2868 -0.8590  0.7581
  639MOL0     C86171  -3.055  10.497  10.780  0.3200  0.4799 -0.0432
  639MOL0     C86172  -3.204  10.520  10.825 -0.6926  0.0020 -0.1675
  639MOL0     C86173  -3.285  10.620  10.752  0.5967 -0.1915  0.5218
  639MOL0     C86174  -3.212  10.729  10.682 -0.2195  0.4725  0.0025
  639MOL0    Cl86175  -3.138  10.846  10.794  0.5484  0.4391 -0.2117
  639MOL0     C86176  -2.447  10.027  11.095 -0.7706 -0.5772 -0.1265
  639MOL0     C86177  -2.317   9.988  11.067 -0.6436 -0.6735  0.5885
  639MOL0     O86178  -2.130  10.193  10.995  0.2889  0.2097 -0.2401
  639MOL0     C86179  -1.839  10.028  10.940  0.3414  0.1138 -0.1672
  639MOL0     C86180  -1.699  10.055  10.922  0.4865 -0.0624 -0.5788
  639MOL0     N86181  -1.038  10.011  10.771  0.5149  0.3187 -0.3566
  639MOL0     N86182  -0.933   9.952  10.815  0.0978  0.7537 -0.6161
  639MOL0     C86183  -0.036   9.162  10.981  0.4476  0.1870 -0.4931
  639MOL0     C86184   0.104   9.155  10.978  0.0833  0.1772 -0.0671
  639MOL0     C86185   0.517   9.260  10.881 -0.8476 -0.1195  0.2977
  639MOL0     C86186   0.594   9.314  10.983  0.0035 -0.1836 -0.2987
  639MOL0     C86187   0.732   9.299  10.986  1.1701 -0.3257  0.0391
  639MOL0     C86188   0.801   9.221  10.892  0.3233 -0.4030  0.2675
  639MOL0     O86189   0.936   9.195  10.896  0.3294  0.5251  0.2229
  639MOL0     C86190   1.019   9.256  10.991  0.1144  0.0727 -0.5286
  639MOL0     C86191   1.007   9.190  11.130  0.3513 -0.6790  0.5104
  639MOL0     C86192   1.084   9.257  11.243  0.0650  0.2502  0.3657
  639MOL0     C86193   1.060   9.182  11.380  0.4624  0.0019 -0.4124
  639MOL0     C86194   0.916   9.145  11.403  0.2074 -0.0316  0.2803
  639MOL0     C86195   0.809   9.102  11.420  0.1565 -0.2760 -0.3357
  639MOL0     C86196   0.722   9.167  10.784 -0.3941  0.3710  0.1726
  639MOL0     C86197   0.584   9.186  10.780 -0.5338 -0.5871  0.6823
  639MOL0     H86198   0.115   9.226  10.638  2.0554 -0.9939  0.9698
  639MOL0     H86199  -0.097   9.280  10.671  0.0818  0.7226 -1.2251
  639MOL0     H86200  -0.272   9.056  11.009 -0.0886 -0.6244 -1.5239
  639MOL0     H86201  -0.318   9.204  11.092  1.5775 -1.4589  0.8749
  639MOL0     H86202  -0.474   9.107  10.854  1.9508  2.1584 -0.6152
  639MOL0     H86203  -0.519   9.077  11.025  1.0466 -2.3369 -0.9826
  639MOL0     H86204  -0.519   9.339  11.054 -1.5765 -1.7516  1.0053
  639MOL0     H86205  -0.510   9.352  10.877  0.2341 -1.9306 -0.9957
  639MOL0     H86206  -0.723   9.215  10.868  0.2757 -0.2460  0.2115
  639MOL0     H86207  -0.711   9.202  11.051 -0.3953 -1.1915 -0.5638
  639MOL0     H86208  -0.870   9.364  10.924  1.6472 -0.0956 -1.8520
  639MOL0     H86209  -0.791   9.426  11.070 -1.1550 -1.5521  0.0647
  639MOL0     H86210  -0.642   9.532  10.901 -0.6901  0.5441  2.0655
  639MOL0     H86211  -0.744   9.465  10.769 -0.0199  1.2664  0.1001
  639MOL0     H86212  -0.930   9.593  10.900  1.6209 -3.1944  3.7349
  639MOL0     H86213  -0.794   9.678  10.982  1.0531  3.5042 -2.0712
  639MOL0     H86214  -0.803   9.674  10.680  0.4265  1.9362 -0.9884
  639MOL0     H86215  -0.714   9.785  10.788 -0.8366  1.5156  0.3432
  639MOL0     H86216  -1.057   9.731  10.607 -1.8049  1.1298 -0.1265
  639MOL0     H86217  -1.257   9.930  10.534 -1.8961  1.0318 -0.5803
  639MOL0     H86218  -1.288   9.842  10.689 -0.2506  1.1665  1.6331
  639MOL0     H86219  -1.416  10.065  10.632  1.1861  0.0737 -0.9508
  639MOL0     H86220  -1.268  10.135  10.708  0.3433 -0.3724 -3.3637
  639MOL0     H86221  -1.280   9.975  10.904 -1.6415  1.2654  1.2765
  639MOL0     H86222  -1.432   9.930  10.851 -1.5227  0.9767 -0.3460
  639MOL0     H86223  -1.342  10.220  10.935 -1.7917  0.7595  3.6020
  639MOL0     H86224  -1.455  10.112  11.019 -1.3922 -3.2461 -1.4194
  639MOL0     H86225  -1.716  10.344  10.763 -0.6425 -0.0182  0.0309
  639MOL0     H86226  -2.061  10.278  10.710 -1.0635  3.3568 -1.1292
  639MOL0     H86227  -2.045  10.384  10.852 -0.0568  0.2129 -0.7093
  639MOL0     H86228  -1.944  10.400  10.707 -0.5606  0.5669  1.4094
  639MOL0     H86229  -2.332   9.997  10.725 -1.0622  0.9907 -0.0882
  639MOL0     H86230  -2.561  10.078  10.774 -2.8632 -0.3749  1.3090
  639MOL0     H86231  -2.720  10.234  10.847  1.7721  0.1449  0.5258
  639MOL0     H86232  -2.788  10.069  10.872  1.9691 -0.6761  1.2065
  639MOL0     H86233  -2.903  10.164  11.074 -0.6461  0.0279 -1.6896
  639MOL0     H86234  -2.807  10.307  11.051  0.1086  0.2765  0.8156
  639MOL0     H86235  -3.076  10.277  10.955 -0.5042  1.3483 -2.3482
  639MOL0     H86236  -2.982  10.227  10.826 -2.3060 -3.2859  1.8617
  639MOL0     H86237  -2.957  10.495  10.984  1.5155  0.0834  0.2889
  639MOL0     H86238  -2.853  10.456  10.853 -1.1420 -0.3859 -1.5838
  639MOL0     H86239  -3.051  10.440  10.687  0.5795  0.8514 -0.2629
  639MOL0     H86240  -3.006  10.591  10.753  0.3599  0.1426 -1.2117
  639MOL0     H86241  -3.258  10.425  10.817 -1.4077  0.4791 -1.2988
  639MOL0     H86242  -3.212  10.541  10.932 -2.6622  0.2379 -0.3161
  639MOL0     H86243  -3.372  10.652  10.811 -0.2225 -0.1345 -0.6804
  639MOL0     H86244  -3.336  10.570  10.669  2.0818  1.3798 -1.4257
  639MOL0     H86245  -3.287  10.793  10.635 -1.3605  0.5358  1.8161
  639MOL0     H86246  -3.136  10.695  10.610  0.7928  1.9098  0.3603
  639MOL0     H86247  -2.471  10.051  11.198  0.6021 -1.3803  0.4166
  639MOL0     H86248  -2.242   9.964  11.142 -0.0958  2.9548  1.3940
  639MOL0     H86249  -1.890   9.944  10.988 -0.4522 -0.6976 -2.3164
  639MOL0     H86250  -1.622   9.998  10.974  2.9981  1.5742 -2.3093
  639MOL0     H86251  -0.090   9.142  11.073 -0.5880  1.7272 -0.7344
  639MOL0     H86252   0.163   9.117  11.061  0.1436  0.6528  0.1091
  639MOL0     H86253   0.544   9.380  11.053  0.5433  3.0437 -2.6684
  639MOL0     H86254   0.779   9.355  11.067 -2.2282  4.0837 -0.6267
  639MOL0     H86255   1.120   9.236  10.953 -0.3845  1.2245 -2.5751
  639MOL0     H86256   1.022   9.365  10.984 -1.4964  0.2640  0.9479
  639MOL0     H86257   1.048   9.090  11.112 -0.3116 -0.3909 -3.5406
  639MOL0     H86258   0.902   9.179  11.156  1.2532 -5.0715  3.3257
  639MOL0     H86259   1.047   9.360  11.246 -1.9442 -0.3892 -0.2328
  639MOL0     H86260   1.190   9.267  11.220 -0.0106  1.9678  0.6140
  639MOL0     H86261   1.083   9.249  11.463 -1.4683 -0.1603  0.3042
  639MOL0     H86262   1.117   9.089  11.381 -0.7164 -0.7443  0.7707
  639MOL0     H86263   0.705   9.082  11.436 -0.0691  2.3541  2.3443
  639MOL0     H86264   0.776   9.107  10.711 -0.1382  0.9454 -0.1154
  639MOL0     H86265   0.523   9.138  10.704 -2.3944  0.4226  1.4694
  640MOL0     O86266   0.645   2.047   8.495  0.3041  0.3367  0.5336
  640MOL0     C86267   0.687   2.041   8.608 -0.1001 -0.4595 -0.0848
  640MOL0     O86268   0.611   2.059   8.725  0.2746  0.4313 -0.3382
  640MOL0     C86269   0.484   2.100   8.719  1.1788 -0.0303 -0.4856
  640MOL0     C86270   0.407   2.029   8.800 -0.1524 -1.1894 -0.3800
  640MOL0     C86271   0.271   2.046   8.816 -0.1278  0.0815 -0.0921
  640MOL0     C86272   0.205   2.147   8.748  0.1541 -0.1080  0.2266
  640MOL0     O86273   0.079   2.185   8.760 -0.4153  0.1457  0.1673
  640MOL0     C86274  -0.017   2.108   8.825  0.1553 -0.0396 -0.0903
  640MOL0     C86275  -0.150   2.181   8.800  0.6078  0.4568  0.3619
  640MOL0     C86276  -0.263   2.122   8.878  0.2541 -0.2656  0.0248
  640MOL0     C86277  -0.375   2.227   8.867  0.5292  1.1503 -0.6025
  640MOL0     C86278  -0.500   2.172   8.939 -0.3977 -0.1966  0.2424
  640MOL0     C86279  -0.608   2.284   8.962  0.0592 -0.6518  0.1769
  640MOL0     C86280  -0.654   2.356   8.830  0.5159 -0.5036  0.4474
  640MOL0     C86281  -0.731   2.251   8.737 -0.0482 -0.1042  0.8035
  640MOL0     N86282  -0.800   2.329   8.635  0.0521 -0.5860  0.3864
  640MOL0     C86283  -0.742   2.404   8.531 -0.6422  0.3951  0.1307
  640MOL0     C86284  -0.849   2.458   8.464 -0.1055 -0.0252 -0.0942
  640MOL0     C86285  -0.847   2.518   8.323  0.7151  1.1387 -0.3115
  640MOL0     C86286  -0.843   2.413   8.209 -0.2268 -0.3732 -1.0543
  640MOL0     C86287  -0.942   2.434   8.092 -0.1179 -0.1721 -0.4204
  640MOL0     C86288  -1.083   2.378   8.109  0.6174  0.2236  0.5828
  640MOL0     O86289  -1.170   2.399   7.996 -0.2189 -0.0253  0.1701
  640MOL0     C86290  -1.300   2.348   8.001 -0.3782  0.0839  0.3717
  640MOL0     C86291  -1.347   2.263   8.103 -0.7706 -0.1489 -0.2954
  640MOL0     C86292  -1.479   2.214   8.101 -0.5814  0.1150 -0.0278
  640MOL0     C86293  -1.510   2.139   8.224  1.1849  0.1107 -0.3632
  640MOL0     C86294  -1.573   2.242   8.000  0.0809 -1.3450 -0.1096
  640MOL0     C86295  -1.715   2.210   8.007  0.7583  0.5726  0.5359
  640MOL0     O86296  -1.758   2.156   8.118 -0.5449  0.6086 -0.5798
  640MOL0     C86297  -1.892   2.153   8.141  0.0176 -0.3572 -0.0810
  640MOL0     C86298  -1.947   2.225   8.253  0.0386 -0.2946  0.5044
  640MOL0     C86299  -2.082   2.218   8.273  0.3285 -0.1439 -0.3251
  640MOL0     C86300  -2.166   2.148   8.188 -0.2121 -0.0210  0.5375
  640MOL0     O86301  -2.301   2.165   8.203  0.2800 -0.3373  0.4596
  640MOL0     C86302  -2.367   2.195   8.331 -0.9844  0.1552  0.2692
  640MOL0     C86303  -2.516   2.169   8.322  0.2894 -0.2088 -0.1109
  640MOL0     C86304  -2.564   2.054   8.234 -0.2603 -0.4437  0.0969
  640MOL0     C86305  -2.712   2.013   8.260 -0.2381 -0.2694  0.9110
  640MOL0     C86306  -2.731   1.871   8.220  0.7793 -0.7192 -0.0531
  640MOL0     C86307  -2.872   1.817   8.244  0.2454  0.2670  0.4598
  640MOL0     C86308  -2.890   1.672   8.168  0.4918  0.5924  0.1143
  640MOL0     C86309  -3.030   1.625   8.166  0.2554  0.7631  0.1187
  640MOL0    Cl86310  -3.145   1.743   8.091  0.3405 -0.0647 -0.1193
  640MOL0     C86311  -2.115   2.071   8.088 -0.4402 -0.7739  0.0209
  640MOL0     C86312  -1.976   2.073   8.073  0.4947 -0.7854  0.0604
  640MOL0     O86313  -1.789   2.251   7.917 -0.0108 -0.3629  0.2534
  640MOL0     C86314  -1.532   2.341   7.914 -0.3772 -0.4134  0.2671
  640MOL0     C86315  -1.394   2.380   7.911 -0.3662 -0.6178 -0.6367
  640MOL0     N86316  -0.966   2.429   8.529 -0.3039  0.1613  0.3003
  640MOL0     N86317  -0.940   2.349   8.635 -0.2076 -0.3886 -0.5234
  640MOL0     C86318   0.282   2.218   8.650  0.2963  0.4811 -0.2786
  640MOL0     C86319   0.422   2.192   8.636  0.4041  0.9334 -0.2696
  640MOL0     C86320   0.834   2.011   8.627 -0.0082  0.1989  0.4346
  640MOL0     C86321   0.887   1.948   8.744  0.5305 -0.0904  0.3075
  640MOL0     C86322   1.022   1.923   8.771  0.1034  0.1596  0.2031
  640MOL0     C86323   1.108   1.965   8.677 -0.0130  0.0065 -0.2609
  640MOL0     O86324   1.240   1.944   8.710  0.1708  0.3019 -0.3687
  640MOL0     C86325   1.334   2.045   8.655  0.1377  0.9461  0.2329
  640MOL0     C86326   1.469   2.053   8.725  0.5619  0.0964 -0.0284
  640MOL0     C86327   1.460   2.094   8.872 -0.1848  0.8246 -0.5171
  640MOL0     C86328   1.597   2.129   8.934  0.1388  0.3833  0.1371
  640MOL0     C86329   1.575   2.228   9.040 -0.8558  0.8037  0.0458
  640MOL0     C86330   1.561   2.321   9.122 -0.1956 -0.1773 -0.0465
  640MOL0     C86331   1.066   2.030   8.564  0.2883  0.2837  0.1747
  640MOL0     C86332   0.931   2.050   8.533 -0.3606  0.3389 -0.3945
  640MOL0     H86333   0.450   1.950   8.861 -0.1162 -1.0131 -0.1726
  640MOL0     H86334   0.219   1.984   8.888 -0.5741 -0.8135 -1.1421
  640MOL0     H86335  -0.019   2.007   8.785 -0.4186 -0.0690  0.0035
  640MOL0     H86336   0.010   2.103   8.931 -0.6503 -0.6409  0.0958
  640MOL0     H86337  -0.147   2.290   8.805  2.8519  0.4867 -0.2578
  640MOL0     H86338  -0.180   2.152   8.699  0.9138 -0.8059  0.6094
  640MOL0     H86339  -0.298   2.028   8.834  0.0282 -0.0709 -0.2105
  640MOL0     H86340  -0.234   2.102   8.982 -2.0624 -0.6398  0.6734
  640MOL0     H86341  -0.343   2.320   8.915  0.5721  0.7121  0.2444
  640MOL0     H86342  -0.398   2.236   8.760  2.9732  0.6183 -1.2287
  640MOL0     H86343  -0.546   2.095   8.876 -0.1293  1.9067 -2.6919
  640MOL0     H86344  -0.478   2.120   9.033  1.6071 -0.1893 -0.1752
  640MOL0     H86345  -0.701   2.248   9.007 -2.7538  3.3444 -1.7756
  640MOL0     H86346  -0.565   2.358   9.030 -1.5929 -0.2183  0.7971
  640MOL0     H86347  -0.712   2.440   8.869  2.1403  0.8263  0.1217
  640MOL0     H86348  -0.565   2.404   8.788  0.7944 -0.0279  1.5449
  640MOL0     H86349  -0.802   2.193   8.796 -2.0336 -0.2229 -1.5678
  640MOL0     H86350  -0.665   2.180   8.685 -2.5330  0.0082 -2.8582
  640MOL0     H86351  -0.639   2.410   8.500 -0.5946 -2.0114 -0.3940
  640MOL0     H86352  -0.931   2.587   8.320  0.0857  0.3647 -0.6917
  640MOL0     H86353  -0.756   2.580   8.319  1.8571 -0.3525  1.1354
  640MOL0     H86354  -0.861   2.313   8.250 -1.5892 -0.3418 -1.5360
  640MOL0     H86355  -0.743   2.425   8.166  0.3818  1.0638  0.6496
  640MOL0     H86356  -0.901   2.382   8.004  0.7821 -1.6327  0.8111
  640MOL0     H86357  -0.936   2.541   8.071 -0.2023 -0.2916 -1.0875
  640MOL0     H86358  -1.120   2.422   8.201  1.7742  0.9844  0.7018
  640MOL0     H86359  -1.060   2.271   8.112 -3.4697 -0.9426 -1.5430
  640MOL0     H86360  -1.274   2.235   8.179 -0.1415  0.0837 -0.8021
  640MOL0     H86361  -1.579   2.199   8.283  0.4266  0.4061 -1.5227
  640MOL0     H86362  -1.563   2.045   8.206 -0.4274  0.2147  3.0637
  640MOL0     H86363  -1.425   2.126   8.292  0.5726  1.1246  0.6416
  640MOL0     H86364  -1.885   2.296   8.308  1.8971 -1.5860  0.1853
  640MOL0     H86365  -2.116   2.286   8.351  1.7067  2.1786 -1.6216
  640MOL0     H86366  -2.321   2.112   8.386  3.5081  0.7424 -2.1128
  640MOL0     H86367  -2.341   2.297   8.359  0.3601 -0.0116 -0.3018
  640MOL0     H86368  -2.565   2.167   8.420  0.1061  2.8940 -0.0490
  640MOL0     H86369  -2.571   2.254   8.280 -1.0856 -1.6952 -1.4584
  640MOL0     H86370  -2.498   1.969   8.255 -2.6977 -2.8432 -1.2511
  640MOL0     H86371  -2.548   2.067   8.126  1.1046 -0.9106  0.2310
  640MOL0     H86372  -2.738   2.019   8.366 -3.4694 -0.6512  0.2540
  640MOL0     H86373  -2.787   2.071   8.205 -0.0291  1.4358  2.3284
  640MOL0     H86374  -2.661   1.800   8.266 -2.6964 -2.5527  2.9576
  640MOL0     H86375  -2.716   1.862   8.112 -1.0973 -2.1549 -0.2554
  640MOL0     H86376  -2.892   1.796   8.350 -1.3866  0.0391  0.1385
  640MOL0     H86377  -2.946   1.893   8.218 -0.5076  0.2703  2.4238
  640MOL0     H86378  -2.822   1.595   8.205 -2.1070 -0.3327  3.3769
  640MOL0     H86379  -2.866   1.685   8.062 -2.5539 -0.6868 -0.8356
  640MOL0     H86380  -3.057   1.602   8.270  0.8460 -1.1791 -0.1123
  640MOL0     H86381  -3.035   1.527   8.116  2.0090  1.3794 -1.3919
  640MOL0     H86382  -2.181   2.023   8.017  0.1484 -2.3845  0.5186
  640MOL0     H86383  -1.920   2.014   8.001  0.9939  0.2398 -0.4220
  640MOL0     H86384  -1.595   2.382   7.836  1.9676 -0.0045 -1.5523
  640MOL0     H86385  -1.354   2.452   7.840  1.8487 -0.9426  0.1776
  640MOL0     H86386   0.232   2.297   8.595 -0.1377 -0.7826 -1.7412
  640MOL0     H86387   0.477   2.247   8.560 -0.6947 -0.3194 -2.0656
  640MOL0     H86388   0.826   1.931   8.832 -0.6461  1.6812 -0.1182
  640MOL0     H86389   1.058   1.871   8.859  2.3813 -0.5010 -1.0421
  640MOL0     H86390   1.346   2.019   8.549 -1.8710  1.2510 -0.1053
  640MOL0     H86391   1.288   2.144   8.660 -1.5207  0.2267 -0.1247
  640MOL0     H86392   1.517   2.141   8.679 -2.2018  1.4127 -0.5821
  640MOL0     H86393   1.536   1.967   8.716 -0.2679 -0.6782  0.8996
  640MOL0     H86394   1.424   2.012   8.935 -0.7017  1.0778 -0.4773
  640MOL0     H86395   1.387   2.174   8.888  0.1372  0.6597  2.3502
  640MOL0     H86396   1.658   2.173   8.855  0.5010  1.3448  0.9234
  640MOL0     H86397   1.642   2.034   8.965  1.1563  0.7555 -0.1674
  640MOL0     H86398   1.554   2.396   9.198 -4.0797  0.9458 -1.3101
  640MOL0     H86399   1.135   2.074   8.492 -0.2734  1.6442  0.4482
  640MOL0     H86400   0.893   2.102   8.447 -2.1227  2.3641  1.4952
  641MOL0     O86401   3.058   5.427   2.434 -0.1441  0.2392  0.3110
  641MOL0     C86402   3.101   5.516   2.505  0.2707  0.3128 -0.3574
  641MOL0     O86403   3.019   5.586   2.595  1.0066  0.5321  0.2438
  641MOL0     C86404   2.881   5.553   2.590  0.3843 -0.5713 -0.4590
  641MOL0     C86405   2.822   5.454   2.661 -0.6384 -0.7955  0.0451
  641MOL0     C86406   2.686   5.425   2.666 -0.5806 -0.0086  0.2779
  641MOL0     C86407   2.597   5.514   2.594 -0.4456 -1.0234 -0.0510
  641MOL0     O86408   2.464   5.508   2.591 -0.1553  0.1367  0.0064
  641MOL0     C86409   2.407   5.471   2.724  0.3484 -0.0181 -1.1289
  641MOL0     C86410   2.256   5.492   2.726 -0.3461  0.0378  0.3450
  641MOL0     C86411   2.191   5.473   2.864  0.5159  0.0362  0.1097
  641MOL0     C86412   2.038   5.479   2.838  0.5960  0.1891  0.3611
  641MOL0     C86413   1.958   5.487   2.973 -1.1071 -0.8511  0.5123
  641MOL0     C86414   1.819   5.563   2.956  0.4871  0.0981 -0.3178
  641MOL0     C86415   1.758   5.580   3.095  0.2033 -0.8326 -0.4037
  641MOL0     C86416   1.657   5.693   3.076  0.4322 -0.7012 -0.1783
  641MOL0     N86417   1.556   5.678   2.975 -0.3284  0.2343 -0.3021
  641MOL0     C86418   1.459   5.577   2.966 -0.2206 -0.0004  0.4987
  641MOL0     C86419   1.377   5.604   2.858 -0.0609 -0.6083  0.1799
  641MOL0     C86420   1.255   5.532   2.821  0.0395  0.7122 -0.2979
  641MOL0     C86421   1.236   5.382   2.881  0.3983  0.5154  0.1963
  641MOL0     C86422   1.192   5.360   3.026 -0.2866 -0.2561 -0.2651
  641MOL0     C86423   1.054   5.411   3.064 -0.1352  0.1595  1.2957
  641MOL0     O86424   0.950   5.316   3.014  0.2041  0.1071  0.2601
  641MOL0     C86425   0.821   5.338   3.049 -0.0138  0.3621  0.5744
  641MOL0     C86426   0.726   5.232   3.036 -0.7598 -0.6170  0.1400
  641MOL0     C86427   0.587   5.245   3.061  0.0129  0.2207 -0.5255
  641MOL0     C86428   0.499   5.128   3.053  0.0037  0.7665 -0.9350
  641MOL0     C86429   0.544   5.377   3.100  0.0715  0.7328  0.3106
  641MOL0     C86430   0.405   5.413   3.118  0.5828  0.1506 -0.2248
  641MOL0     O86431   0.309   5.316   3.090 -0.2695  0.5950  0.0844
  641MOL0     C86432   0.176   5.320   3.121 -0.3919  0.4212 -0.0145
  641MOL0     C86433   0.095   5.428   3.137  0.8502  0.1275 -0.4799
  641MOL0     C86434  -0.040   5.410   3.172 -0.2653 -0.6887  0.4862
  641MOL0     C86435  -0.095   5.288   3.202 -0.3248 -0.2771 -0.5150
  641MOL0     O86436  -0.232   5.295   3.226 -0.2409  0.1294 -0.5466
  641MOL0     C86437  -0.310   5.202   3.146  0.6944 -0.1951 -0.6887
  641MOL0     C86438  -0.437   5.283   3.110 -0.7522  0.2520  0.0079
  641MOL0     C86439  -0.503   5.222   2.985  0.7813  0.4160 -0.1683
  641MOL0     C86440  -0.653   5.205   3.019 -0.2092 -0.5571  0.5191
  641MOL0     C86441  -0.721   5.170   2.887 -0.4460  0.3862 -0.2842
  641MOL0     C86442  -0.873   5.176   2.888 -0.3832 -0.1069  0.2269
  641MOL0     C86443  -0.921   5.120   2.747 -0.2518  0.4662 -0.6886
  641MOL0     C86444  -1.072   5.133   2.726  0.4805 -0.1414  0.1874
  641MOL0    Cl86445  -1.156   5.008   2.811  0.1963  0.1254 -0.0161
  641MOL0     C86446  -0.015   5.172   3.204  0.7346  0.6559 -0.0044
  641MOL0     C86447   0.117   5.191   3.151 -0.1874 -0.1144  0.2983
  641MOL0     O86448   0.374   5.525   3.154  0.4056  0.4648  0.4849
  641MOL0     C86449   0.640   5.479   3.131  0.2478 -0.5251 -0.3163
  641MOL0     C86450   0.771   5.453   3.106 -0.8644 -0.9235 -0.0990
  641MOL0     N86451   1.424   5.723   2.811  0.3010  1.0233  0.8599
  641MOL0     N86452   1.529   5.756   2.867 -0.1618  0.2051 -0.6044
  641MOL0     C86453   2.656   5.624   2.524 -0.1332  0.9367 -0.0913
  641MOL0     C86454   2.795   5.637   2.528  0.3100 -0.4931  0.0191
  641MOL0     C86455   3.240   5.551   2.500  0.4421 -0.5213 -0.9830
  641MOL0     C86456   3.339   5.477   2.435  1.2426  0.5186 -0.2441
  641MOL0     C86457   3.471   5.518   2.417  0.1282 -0.5139  0.5920
  641MOL0     C86458   3.507   5.644   2.450 -0.2568 -0.7180 -0.7442
  641MOL0     O86459   3.623   5.706   2.426 -0.1608 -0.1211  0.8919
  641MOL0     C86460   3.705   5.652   2.316 -0.0981 -0.2548 -0.3254
  641MOL0     C86461   3.829   5.742   2.286 -0.6135  0.0201  0.1558
  641MOL0     C86462   3.910   5.771   2.412 -0.3126 -0.2570  0.0700
  641MOL0     C86463   4.039   5.845   2.372  0.6364  0.3537 -0.2663
  641MOL0     C86464   4.122   5.880   2.492 -0.3117 -0.4885 -0.1100
  641MOL0     C86465   4.186   5.897   2.591  0.1118 -0.2078 -0.7745
  641MOL0     C86466   3.416   5.716   2.536 -0.8801 -1.2443 -0.5789
  641MOL0     C86467   3.287   5.665   2.551  0.0871 -0.3199  0.3257
  641MOL0     H86468   2.896   5.397   2.717 -0.3636  1.5262  2.1991
  641MOL0     H86469   2.640   5.350   2.730 -1.0225 -0.0962 -0.1432
  641MOL0     H86470   2.426   5.364   2.736  3.4682  0.1782 -3.2371
  641MOL0     H86471   2.463   5.527   2.800  3.6774 -2.6359 -1.3895
  641MOL0     H86472   2.245   5.596   2.695  1.7703  0.3106  0.3332
  641MOL0     H86473   2.204   5.423   2.659  0.9188 -3.9016  3.0035
  641MOL0     H86474   2.212   5.377   2.913 -2.7625  0.7903  3.4043
  641MOL0     H86475   2.235   5.543   2.936  0.2203  1.9183 -1.4508
  641MOL0     H86476   2.011   5.569   2.782  0.1840  0.2936  0.7176
  641MOL0     H86477   2.002   5.397   2.777 -0.2240  0.1724  0.8513
  641MOL0     H86478   1.943   5.388   3.016 -0.8732 -1.4122 -0.6811
  641MOL0     H86479   2.017   5.548   3.042 -2.3227  0.9414  0.0535
  641MOL0     H86480   1.840   5.662   2.914  1.1076  0.3776  0.6233
  641MOL0     H86481   1.753   5.503   2.892 -0.6692  1.2956 -0.3031
  641MOL0     H86482   1.695   5.494   3.120 -4.0971  0.8428 -4.1141
  641MOL0     H86483   1.831   5.609   3.172  1.4059  1.5193 -2.3055
  641MOL0     H86484   1.712   5.786   3.056  1.3920 -1.5572 -1.6811
  641MOL0     H86485   1.595   5.708   3.165  1.0414  2.8037 -0.1987
  641MOL0     H86486   1.449   5.494   3.036  2.6936 -0.6890  0.2117
  641MOL0     H86487   1.174   5.593   2.861  0.8128  1.1428  0.6534
  641MOL0     H86488   1.242   5.526   2.712 -1.7504 -0.9791 -0.0555
  641MOL0     H86489   1.326   5.321   2.875 -0.4734 -0.7045 -1.4077
  641MOL0     H86490   1.153   5.340   2.822 -0.5612  1.3295  0.9168
  641MOL0     H86491   1.262   5.414   3.092 -2.4505  1.7388  0.5491
  641MOL0     H86492   1.200   5.253   3.047 -1.4698 -1.0503 -3.3504
  641MOL0     H86493   1.052   5.512   3.021  0.5830 -1.1155 -1.9660
  641MOL0     H86494   1.046   5.420   3.173  2.8342 -2.0390  1.8045
  641MOL0     H86495   0.781   5.144   3.003  0.8036  0.2451  0.3481
  641MOL0     H86496   0.551   5.032   3.053 -0.3678  0.4938  1.4137
  641MOL0     H86497   0.438   5.131   3.144  0.1029  0.0484 -0.8386
  641MOL0     H86498   0.431   5.126   2.968 -1.7975  3.3475  0.2800
  641MOL0     H86499   0.131   5.529   3.118  0.2516  0.9507  2.3798
  641MOL0     H86500  -0.110   5.493   3.180 -0.1036 -0.6016  1.0622
  641MOL0     H86501  -0.256   5.167   3.058 -2.3449 -3.0316 -1.6164
  641MOL0     H86502  -0.331   5.123   3.219  0.3277  1.7600  1.4242
  641MOL0     H86503  -0.496   5.308   3.199  0.1020 -1.3751  1.0685
  641MOL0     H86504  -0.401   5.383   3.082  1.5922  0.0619  2.0115
  641MOL0     H86505  -0.471   5.119   2.967 -2.4808 -0.8722  0.7097
  641MOL0     H86506  -0.486   5.290   2.902 -0.1854  2.7213  1.4154
  641MOL0     H86507  -0.670   5.117   3.080 -0.6112 -1.6003 -1.0319
  641MOL0     H86508  -0.701   5.297   3.053 -0.9930 -0.2700 -1.2414
  641MOL0     H86509  -0.707   5.063   2.868  3.9719  0.6814  0.2549
  641MOL0     H86510  -0.672   5.215   2.800 -1.0954  0.3865 -0.6546
  641MOL0     H86511  -0.912   5.115   2.970  0.7711  0.3733  1.1717
  641MOL0     H86512  -0.913   5.275   2.910  0.6668  0.6644 -1.1534
  641MOL0     H86513  -0.894   5.014   2.735  3.3298  0.9589  1.5016
  641MOL0     H86514  -0.866   5.171   2.668  1.8006 -0.7546 -0.1437
  641MOL0     H86515  -1.091   5.118   2.620 -0.1222  2.2010 -0.0868
  641MOL0     H86516  -1.104   5.234   2.754  0.6378 -0.3297  1.0945
  641MOL0     H86517  -0.026   5.069   3.235  1.2232  0.9121  1.0562
  641MOL0     H86518   0.178   5.102   3.137 -0.4322 -0.1640 -0.5376
  641MOL0     H86519   0.606   5.575   3.168 -1.8881 -0.9102 -1.1376
  641MOL0     H86520   0.839   5.530   3.140 -0.9812 -0.7423 -0.2732
  641MOL0     H86521   2.580   5.684   2.475 -1.1854  0.6766  1.1663
  641MOL0     H86522   2.835   5.728   2.483 -2.7624  1.0160  0.0931
  641MOL0     H86523   3.302   5.382   2.397  0.1247  1.6038 -2.0288
  641MOL0     H86524   3.533   5.461   2.350 -1.4003  0.5832 -1.8926
  641MOL0     H86525   3.741   5.557   2.358 -2.5018 -2.4481 -2.7931
  641MOL0     H86526   3.649   5.640   2.223 -1.3761  1.8417  0.1037
  641MOL0     H86527   3.797   5.827   2.224  2.0291  0.9838 -0.0175
  641MOL0     H86528   3.900   5.701   2.215 -0.2455 -1.7483  1.4960
  641MOL0     H86529   3.939   5.684   2.472 -0.0233 -1.1637 -1.3531
  641MOL0     H86530   3.848   5.836   2.475  1.2529 -1.2538  2.8653
  641MOL0     H86531   4.019   5.933   2.311 -0.9070 -0.8267 -1.5311
  641MOL0     H86532   4.087   5.781   2.297  1.1455  0.6426 -0.1968
  641MOL0     H86533   4.248   5.901   2.679  0.0919 -0.8888 -0.7249
  641MOL0     H86534   3.450   5.811   2.575  2.3699 -3.3982  2.5128
  641MOL0     H86535   3.217   5.723   2.610 -0.8626 -1.0501 -0.0533
  642MOL0     O86536  10.574  10.668  10.584  0.1503  0.6506 -0.5602
  642MOL0     C86537  10.576  10.548  10.595  0.0055  0.0687  0.2673
  642MOL0     O86538  10.479  10.472  10.653  0.3732 -0.2491 -0.5870
  642MOL0     C86539  10.355  10.513  10.707  0.6719 -0.8771 -0.2995
  642MOL0     C86540  10.305  10.645  10.721  0.8018  0.3056  0.7687
  642MOL0     C86541  10.193  10.677  10.792 -0.8222  0.1411 -0.0403
  642MOL0     C86542  10.124  10.575  10.851  0.8762 -0.5634 -0.2894
  642MOL0     O86543  10.020  10.614  10.943  0.0161 -0.6512  0.6319
  642MOL0     C86544   9.992  10.521  11.041  0.5596  0.2558  1.0901
  642MOL0     C86545   9.977  10.607  11.167  0.0997 -0.0800  0.9384
  642MOL0     C86546   9.848  10.701  11.154  0.2661  0.3788 -0.0609
  642MOL0     C86547   9.882  10.848  11.170  0.5053  0.2919 -0.2137
  642MOL0     C86548   9.760  10.942  11.174  0.2236  0.1751 -0.4733
  642MOL0     C86549   9.678  10.938  11.046  1.5508  0.3371  0.2176
  642MOL0     C86550   9.538  11.002  11.063  0.8902  0.3609  0.0276
  642MOL0     C86551   9.535  11.135  11.135  0.0339 -0.2118  0.6019
  642MOL0     N86552   9.404  11.202  11.126 -0.5957  0.2900 -1.1559
  642MOL0     C86553   9.287  11.131  11.097  0.0229  0.1674 -0.0127
  642MOL0     C86554   9.196  11.230  11.066 -0.1723  0.7857  0.6414
  642MOL0     C86555   9.055  11.211  11.015 -0.7920  0.1474 -0.3734
  642MOL0     C86556   8.946  11.278  11.097  0.3273 -0.1539 -0.4703
  642MOL0     C86557   8.822  11.312  11.011 -1.2053 -0.2497 -0.7776
  642MOL0     C86558   8.760  11.195  10.943 -0.0002 -0.0468  0.1399
  642MOL0     O86559   8.714  11.085  11.028  0.0465 -0.4082 -0.2171
  642MOL0     C86560   8.589  11.096  11.080  0.6897 -0.8557 -0.1156
  642MOL0     C86561   8.558  11.150  11.203  0.4941 -0.7054 -0.0798
  642MOL0     C86562   8.422  11.165  11.250  0.0025  0.3698  0.5849
  642MOL0     C86563   8.400  11.213  11.395 -0.3497  0.1949  0.4435
  642MOL0     C86564   8.317  11.117  11.160  0.4707 -0.2213 -0.1947
  642MOL0     C86565   8.174  11.117  11.197 -0.4079 -0.1169 -0.3767
  642MOL0     O86566   8.084  11.023  11.145 -0.3223  0.0326  0.1457
  642MOL0     C86567   7.952  11.041  11.158 -0.0965  0.3243 -0.5632
  642MOL0     C86568   7.884  11.090  11.274  0.9626 -0.9674 -0.5657
  642MOL0     C86569   7.742  11.080  11.279  1.3672 -0.2690  0.3954
  642MOL0     C86570   7.667  11.047  11.165 -0.1680 -0.2135 -0.5626
  642MOL0     O86571   7.528  11.026  11.164  0.2495  0.8785 -0.5143
  642MOL0     C86572   7.448  11.115  11.241  0.0728 -0.2363 -0.5100
  642MOL0     C86573   7.403  11.049  11.366  0.4630  0.0255  0.2154
  642MOL0     C86574   7.321  10.917  11.346  0.0380  0.3659  0.2973
  642MOL0     C86575   7.244  10.878  11.474  0.1268 -0.2361  0.1189
  642MOL0     C86576   7.144  10.766  11.450  0.0384  0.6982  0.3121
  642MOL0     C86577   7.058  10.731  11.583 -0.7224  0.1336  0.3961
  642MOL0     C86578   6.940  10.834  11.606  0.5345  0.5002 -0.2463
  642MOL0     C86579   6.879  10.821  11.743 -0.0517 -0.2943 -0.3117
  642MOL0    Cl86580   6.811  10.667  11.795  0.0524  0.0420  0.1590
  642MOL0     C86581   7.730  11.008  11.052 -0.0048  0.5461  0.1687
  642MOL0     C86582   7.871  10.997  11.047 -0.7320 -0.3429  0.1639
  642MOL0     O86583   8.150  11.203  11.286 -0.2761  0.0441 -0.1197
  642MOL0     C86584   8.347  11.050  11.037 -0.1857  0.5734  0.2956
  642MOL0     C86585   8.481  11.049  11.000 -1.1283  0.6195 -0.2064
  642MOL0     N86586   9.265  11.353  11.086 -0.2624  0.2900  0.5139
  642MOL0     N86587   9.384  11.336  11.132 -0.3385 -0.0784  0.2217
  642MOL0     C86588  10.155  10.443  10.820 -0.5129  0.7444  0.0671
  642MOL0     C86589  10.280  10.417  10.757 -0.2061 -0.2840  0.6081
  642MOL0     C86590  10.697  10.474  10.550  0.0802  0.3003 -0.3011
  642MOL0     C86591  10.810  10.544  10.514 -0.1486  0.6331 -0.0577
  642MOL0     C86592  10.930  10.470  10.477  0.0678 -0.8222  0.3734
  642MOL0     C86593  10.933  10.333  10.483 -0.8424  0.0634  0.3351
  642MOL0     O86594  11.050  10.264  10.449  0.4237 -0.7055 -0.3945
  642MOL0     C86595  11.041  10.181  10.331 -0.2985 -0.3558 -0.1059
  642MOL0     C86596  11.150  10.083  10.344 -0.7902  0.5004  0.4183
  642MOL0     C86597  11.158   9.994  10.229  0.5527 -0.0886  0.4892
  642MOL0     C86598  11.296   9.920  10.216 -0.2877  1.3074 -0.4197
  642MOL0     C86599  11.418  10.006  10.199  0.2601 -0.0337  0.0785
  642MOL0     C86600  11.507  10.084  10.179  0.2339 -0.2392 -0.9271
  642MOL0     C86601  10.821  10.263  10.518 -0.5919  0.2191 -0.6549
  642MOL0     C86602  10.705  10.334  10.556  0.3101  0.1064  0.7321
  642MOL0     H86603  10.346  10.737  10.680 -0.9862  0.9335  0.2509
  642MOL0     H86604  10.162  10.781  10.797  0.7799  0.7229 -1.2534
  642MOL0     H86605   9.899  10.465  11.030  0.7831 -0.0547  0.7716
  642MOL0     H86606  10.078  10.455  11.058  0.2509 -0.3082  0.4711
  642MOL0     H86607   9.959  10.538  11.249 -1.0970 -0.5039  0.3463
  642MOL0     H86608  10.062  10.672  11.192 -1.6347  1.8802  2.0275
  642MOL0     H86609   9.802  10.696  11.055  1.0832  0.7797 -0.4638
  642MOL0     H86610   9.771  10.677  11.228  0.4186  0.9302  0.2800
  642MOL0     H86611   9.947  10.880  11.252 -0.8495  1.8770  0.2797
  642MOL0     H86612   9.951  10.875  11.090  0.5959 -1.2575 -0.6914
  642MOL0     H86613   9.711  10.918  11.269  0.4051  0.5221 -0.2884
  642MOL0     H86614   9.804  11.038  11.203 -2.6434  1.5026 -0.0908
  642MOL0     H86615   9.720  10.989  10.958  1.6222  1.2985  0.7896
  642MOL0     H86616   9.662  10.835  11.014 -1.5901  0.4827  0.9551
  642MOL0     H86617   9.501  11.015  10.960 -2.9531 -0.2585  1.1446
  642MOL0     H86618   9.478  10.930  11.120  0.5334  0.1762 -0.5720
  642MOL0     H86619   9.625  11.195  11.120  0.3399 -0.7839  0.0923
  642MOL0     H86620   9.536  11.108  11.240 -1.7819 -0.1312  0.6807
  642MOL0     H86621   9.271  11.024  11.087 -0.2954  0.4214 -5.1011
  642MOL0     H86622   9.054  11.247  10.911  2.0465 -3.4349 -1.8734
  642MOL0     H86623   9.032  11.104  11.006 -1.8338  0.0483  2.4835
  642MOL0     H86624   8.992  11.364  11.146  0.9540 -0.9705  0.3963
  642MOL0     H86625   8.922  11.205  11.175  1.8123  1.3804  1.5315
  642MOL0     H86626   8.848  11.388  10.937 -3.7762  1.5954  0.0312
  642MOL0     H86627   8.745  11.360  11.073 -0.5263 -0.6279  0.4010
  642MOL0     H86628   8.833  11.163  10.869  2.7652  0.9437  2.2654
  642MOL0     H86629   8.673  11.224  10.883 -1.2648 -2.6011  0.5833
  642MOL0     H86630   8.637  11.194  11.263  0.7228  0.2302 -1.0381
  642MOL0     H86631   8.347  11.135  11.450 -0.5833 -0.3826 -0.5763
  642MOL0     H86632   8.500  11.222  11.440  0.2478  5.6284 -1.2343
  642MOL0     H86633   8.357  11.313  11.401  3.6540  2.1642 -0.1851
  642MOL0     H86634   7.939  11.113  11.364 -0.0458  1.1222 -0.4421
  642MOL0     H86635   7.685  11.080  11.372  0.5461 -3.2860 -0.0052
  642MOL0     H86636   7.500  11.203  11.278 -2.3021  0.6855  0.8343
  642MOL0     H86637   7.360  11.138  11.181 -0.0074  1.4251  0.1849
  642MOL0     H86638   7.484  11.026  11.435 -0.7697  0.0053  1.7189
  642MOL0     H86639   7.330  11.110  11.420 -2.9076 -2.0908 -1.6032
  642MOL0     H86640   7.377  10.828  11.318 -1.1100 -0.5132  0.7310
  642MOL0     H86641   7.248  10.941  11.268 -1.0964 -0.6949  1.0032
  642MOL0     H86642   7.326  10.851  11.541  0.1469 -0.9482 -0.1774
  642MOL0     H86643   7.204  10.965  11.527  0.0991 -1.9444  3.1410
  642MOL0     H86644   7.196  10.672  11.428 -1.0291 -0.5290  2.6169
  642MOL0     H86645   7.083  10.786  11.361 -0.0189  4.2603  1.0257
  642MOL0     H86646   7.022  10.628  11.573  0.8719 -0.4591  0.3662
  642MOL0     H86647   7.116  10.737  11.676  0.3467  3.6383 -0.3513
  642MOL0     H86648   6.860  10.824  11.532  0.1641 -1.1636  0.3334
  642MOL0     H86649   6.992  10.930  11.604 -0.8827  1.4684  2.9370
  642MOL0     H86650   6.804  10.901  11.752 -0.2220 -0.6726  3.3930
  642MOL0     H86651   6.961  10.843  11.813 -0.8806 -1.2278  1.0043
  642MOL0     H86652   7.686  10.965  10.963 -0.6768  1.4801  0.0389
  642MOL0     H86653   7.924  10.955  10.962 -1.3505 -0.0680 -0.3642
  642MOL0     H86654   8.263  11.009  10.982  0.5021 -1.0056  0.3652
  642MOL0     H86655   8.512  10.995  10.911 -0.6757  1.6589 -0.6911
  642MOL0     H86656  10.091  10.358  10.840  1.3818 -1.7292 -3.3526
  642MOL0     H86657  10.319  10.316  10.748  0.7913  0.1470 -0.1444
  642MOL0     H86658  10.827  10.650  10.501  2.7910  0.2196 -0.2925
  642MOL0     H86659  11.009  10.529  10.432  0.6887 -0.3826  1.9779
  642MOL0     H86660  10.943  10.131  10.334 -0.8413  0.6324 -0.6875
  642MOL0     H86661  11.052  10.230  10.234  3.4636 -2.0475 -0.7053
  642MOL0     H86662  11.136  10.011  10.426  1.5711 -0.4261  0.1052
  642MOL0     H86663  11.242  10.142  10.356 -0.7743  0.7501 -0.8360
  642MOL0     H86664  11.115  10.044  10.142 -0.4767  0.3342  1.2167
  642MOL0     H86665  11.085   9.915  10.250 -2.3415  1.9192 -1.2945
  642MOL0     H86666  11.285   9.857  10.127 -1.0488  0.9749 -0.0987
  642MOL0     H86667  11.314   9.843  10.291  0.8131  1.5098 -0.4600
  642MOL0     H86668  11.570  10.170  10.167  2.3522 -1.4195  1.0075
  642MOL0     H86669  10.831  10.156  10.537  2.8469  1.1789  5.3871
  642MOL0     H86670  10.622  10.269  10.582 -0.0851 -0.2371 -1.2222
  643MOL0     O86671   3.599   7.568   2.405  0.8217 -0.2816 -0.0938
  643MOL0     C86672   3.652   7.685   2.406 -1.1244 -0.1320 -0.2825
  643MOL0     O86673   3.611   7.796   2.481  0.4378 -0.0824 -0.2282
  643MOL0     C86674   3.502   7.790   2.561 -0.4079 -0.1899 -0.0335
  643MOL0     C86675   3.498   7.876   2.665 -0.1339 -0.9072 -0.0380
  643MOL0     C86676   3.390   7.885   2.752 -0.0635  0.4609  0.3362
  643MOL0     C86677   3.278   7.802   2.739  0.6493 -0.9450 -0.1824
  643MOL0     O86678   3.168   7.807   2.821  0.1898  0.0683 -0.5698
  643MOL0     C86679   3.159   7.902   2.930  0.2605 -0.1062 -0.3900
  643MOL0     C86680   3.050   7.847   3.026  0.1362 -0.6494 -0.2828
  643MOL0     C86681   3.100   7.737   3.121  0.7662  0.3157 -0.3612
  643MOL0     C86682   2.987   7.668   3.200 -1.1417 -0.2386 -0.8068
  643MOL0     C86683   3.041   7.543   3.286 -0.8773  0.0699 -0.1446
  643MOL0     C86684   2.928   7.487   3.355 -0.8174  0.8615 -0.1002
  643MOL0     C86685   2.968   7.367   3.442  0.1881  0.2758 -0.5406
  643MOL0     C86686   3.032   7.413   3.579  0.3735 -0.3262  0.8297
  643MOL0     N86687   2.979   7.327   3.683  0.5799  0.2064 -0.4994
  643MOL0     C86688   2.851   7.330   3.728  1.0325  0.9503 -0.8312
  643MOL0     C86689   2.834   7.214   3.794 -0.2737 -0.3259 -0.2463
  643MOL0     C86690   2.723   7.161   3.870  0.6190 -0.7141 -0.3717
  643MOL0     C86691   2.591   7.228   3.836  0.1847 -0.7188  0.0984
  643MOL0     C86692   2.468   7.153   3.880 -0.2777  0.3297 -0.4768
  643MOL0     C86693   2.340   7.237   3.870  0.1804 -1.0670 -0.6635
  643MOL0     O86694   2.292   7.251   3.734  0.3754  0.0693  0.1990
  643MOL0     C86695   2.197   7.344   3.728  0.6359 -0.2436 -0.0397
  643MOL0     C86696   2.207   7.453   3.646  0.0760 -0.1726 -0.0847
  643MOL0     C86697   2.120   7.556   3.633  0.2455 -1.2495 -0.3508
  643MOL0     C86698   2.146   7.674   3.539 -0.1675 -0.3712  0.9684
  643MOL0     C86699   1.996   7.552   3.711 -0.5703 -0.6179 -0.0009
  643MOL0     C86700   1.883   7.648   3.698  0.1416 -0.1650 -0.6296
  643MOL0     O86701   1.784   7.634   3.795 -0.8026  0.4091 -0.4296
  643MOL0     C86702   1.670   7.712   3.802  0.7517  0.0370  1.3221
  643MOL0     C86703   1.620   7.803   3.707  0.4171 -0.3602  0.2932
  643MOL0     C86704   1.511   7.873   3.738  0.3609 -0.7003 -0.7001
  643MOL0     C86705   1.444   7.851   3.859  0.0257 -0.6320 -0.4580
  643MOL0     O86706   1.339   7.940   3.891 -1.3460 -0.1519  0.5228
  643MOL0     C86707   1.308   7.988   4.017 -0.3609  0.2165  0.5766
  643MOL0     C86708   1.241   8.126   3.996 -0.1302  0.1029 -0.1790
  643MOL0     C86709   1.112   8.147   3.909  0.2933 -0.1558  0.1732
  643MOL0     C86710   1.026   8.268   3.951  0.0219  0.2642  0.4636
  643MOL0     C86711   0.903   8.282   3.869 -0.4882 -0.6826  0.2548
  643MOL0     C86712   0.828   8.420   3.891  1.0725  0.0699  0.3653
  643MOL0     C86713   0.690   8.409   3.814 -0.1575 -0.4376 -0.1642
  643MOL0     C86714   0.633   8.552   3.804 -0.0123  0.1770  0.0422
  643MOL0    Cl86715   0.477   8.541   3.722  0.0377  0.1609  0.5295
  643MOL0     C86716   1.490   7.761   3.952 -0.5125 -0.2915 -0.2496
  643MOL0     C86717   1.601   7.690   3.920 -0.7169  0.0913  0.2721
  643MOL0     O86718   1.877   7.724   3.602 -0.1043 -0.3400  0.0642
  643MOL0     C86719   1.984   7.443   3.800  0.5752  0.0853  1.0285
  643MOL0     C86720   2.082   7.344   3.807  0.8622 -0.4019  1.0919
  643MOL0     N86721   2.956   7.144   3.794 -0.1293 -0.1853  1.1443
  643MOL0     N86722   3.035   7.205   3.714 -0.3741 -0.4082 -0.0617
  643MOL0     C86723   3.280   7.715   2.624  0.5665  0.1429  0.0774
  643MOL0     C86724   3.390   7.720   2.536 -0.2611  0.4346 -0.0253
  643MOL0     C86725   3.758   7.712   2.302  0.3016  0.9147 -0.7731
  643MOL0     C86726   3.789   7.842   2.255 -0.3189  0.1392 -0.0148
  643MOL0     C86727   3.896   7.862   2.167  0.5106 -0.6345  0.8589
  643MOL0     C86728   3.954   7.751   2.100 -0.0777 -0.3753 -0.6334
  643MOL0     O86729   4.050   7.774   2.002 -0.3996 -0.0379 -0.2158
  643MOL0     C86730   4.009   7.704   1.878  0.2174  0.5518 -2.2178
  643MOL0     C86731   4.098   7.753   1.769 -0.6947  0.8347 -0.2300
  643MOL0     C86732   4.248   7.761   1.794 -0.2476 -0.6287  0.6715
  643MOL0     C86733   4.332   7.836   1.674  0.2117 -0.7805  0.1766
  643MOL0     C86734   4.469   7.783   1.671 -0.0058 -0.3768  0.1615
  643MOL0     C86735   4.581   7.743   1.644  0.2864  0.1739  1.0067
  643MOL0     C86736   3.921   7.628   2.147 -0.3651  1.3393 -0.1241
  643MOL0     C86737   3.821   7.602   2.241  0.1799 -0.2270  0.1666
  643MOL0     H86738   3.581   7.945   2.678  0.4881 -1.6368 -0.0786
  643MOL0     H86739   3.407   7.945   2.841 -1.1061 -0.6934  1.3468
  643MOL0     H86740   3.252   7.930   2.981 -0.6715  1.2354  0.6551
  643MOL0     H86741   3.124   7.994   2.882 -1.0725  0.3424  1.3910
  643MOL0     H86742   3.017   7.927   3.093  2.5798  0.0886  0.1148
  643MOL0     H86743   2.959   7.823   2.970  1.4556  2.2004 -4.0884
  643MOL0     H86744   3.153   7.674   3.049 -0.8931 -0.1325 -1.2624
  643MOL0     H86745   3.179   7.768   3.190  0.3253  0.7087 -0.0284
  643MOL0     H86746   2.952   7.740   3.275 -2.5715 -1.9316  0.2284
  643MOL0     H86747   2.913   7.639   3.125 -1.2359 -0.2176 -0.7220
  643MOL0     H86748   3.092   7.475   3.217 -0.5361 -0.0501  0.2227
  643MOL0     H86749   3.111   7.587   3.358 -2.0219  3.2774 -0.7992
  643MOL0     H86750   2.884   7.557   3.427 -0.3502  2.0414 -0.9229
  643MOL0     H86751   2.852   7.468   3.279  1.9932  1.2570 -3.2552
  643MOL0     H86752   2.879   7.305   3.452 -0.4092  1.5148  3.3041
  643MOL0     H86753   3.039   7.310   3.381 -1.2180 -0.4376 -1.5579
  643MOL0     H86754   3.017   7.518   3.606 -3.5487 -0.9000  1.5017
  643MOL0     H86755   3.137   7.385   3.575  0.0045 -2.0645  2.2210
  643MOL0     H86756   2.771   7.403   3.719  0.2971  0.2663 -0.0642
  643MOL0     H86757   2.715   7.054   3.849 -1.0313 -0.4835 -1.0750
  643MOL0     H86758   2.749   7.163   3.976  0.3430  0.2296 -0.3144
  643MOL0     H86759   2.576   7.248   3.729 -0.6451 -2.7358 -0.2269
  643MOL0     H86760   2.581   7.321   3.892 -1.6656 -0.0288 -1.2525
  643MOL0     H86761   2.478   7.124   3.986  4.6248 -1.7798 -1.2391
  643MOL0     H86762   2.462   7.057   3.829 -1.6476 -0.8352  1.6772
  643MOL0     H86763   2.363   7.337   3.907 -0.4553 -1.3478  0.5281
  643MOL0     H86764   2.265   7.194   3.937 -0.3984  1.4150  0.3707
  643MOL0     H86765   2.292   7.457   3.579 -0.3778  0.3101 -0.6448
  643MOL0     H86766   2.100   7.772   3.558 -2.2940 -0.9033 -0.9281
  643MOL0     H86767   2.255   7.684   3.536 -0.2545  0.5682 -1.1439
  643MOL0     H86768   2.120   7.652   3.435  2.5578  3.8688 -0.8474
  643MOL0     H86769   1.655   7.823   3.606 -1.2028  1.9228  0.0942
  643MOL0     H86770   1.469   7.949   3.673 -0.8571 -1.3729 -0.7199
  643MOL0     H86771   1.222   7.936   4.060 -0.6893  0.1029 -0.1881
  643MOL0     H86772   1.391   8.002   4.087 -1.8149 -2.6763  3.1116
  643MOL0     H86773   1.212   8.156   4.098  3.4878  1.2120  0.6921
  643MOL0     H86774   1.327   8.185   3.964 -0.0565 -0.3377 -0.8139
  643MOL0     H86775   1.046   8.060   3.917 -0.1834  0.3012  1.5530
  643MOL0     H86776   1.150   8.154   3.806 -0.8038  2.5850 -0.1330
  643MOL0     H86777   1.001   8.276   4.057 -0.1650  5.4352  0.2651
  643MOL0     H86778   1.090   8.355   3.934  1.3027 -1.1042 -2.6311
  643MOL0     H86779   0.839   8.197   3.895 -1.0183  0.4402  3.0709
  643MOL0     H86780   0.925   8.288   3.762 -3.5532  2.4821 -0.3553
  643MOL0     H86781   0.818   8.441   3.998  0.8641 -1.5296  0.6877
  643MOL0     H86782   0.890   8.494   3.839 -0.4443  0.1176 -1.5060
  643MOL0     H86783   0.625   8.338   3.866 -1.6194  1.0729  0.1540
  643MOL0     H86784   0.712   8.372   3.713 -2.2342 -3.1352  0.2652
  643MOL0     H86785   0.701   8.619   3.749 -0.4958  1.6802  1.1949
  643MOL0     H86786   0.624   8.603   3.900  3.3320  4.2665 -1.4725
  643MOL0     H86787   1.453   7.769   4.054  2.7340  1.5741  0.8986
  643MOL0     H86788   1.655   7.640   4.000  1.1593  1.4927 -0.0464
  643MOL0     H86789   1.902   7.428   3.869 -0.9111  0.6817 -0.5319
  643MOL0     H86790   2.060   7.257   3.868 -1.1924 -2.0461 -1.7877
  643MOL0     H86791   3.195   7.652   2.598  0.8800 -1.2330  2.0737
  643MOL0     H86792   3.373   7.667   2.443 -1.1859 -0.2061  0.4984
  643MOL0     H86793   3.741   7.929   2.298  0.0823  0.3682 -0.0206
  643MOL0     H86794   3.928   7.960   2.133  2.8312 -0.3709  3.5313
  643MOL0     H86795   4.022   7.595   1.879 -0.8697  0.4168 -1.7867
  643MOL0     H86796   3.905   7.729   1.860 -1.4540 -2.0636  2.1523
  643MOL0     H86797   4.074   7.855   1.737 -0.1504  0.9241 -0.3604
  643MOL0     H86798   4.085   7.695   1.677  2.0609  0.6724 -0.5993
  643MOL0     H86799   4.283   7.657   1.804  0.0278 -0.3508  3.1678
  643MOL0     H86800   4.271   7.804   1.891  1.2693 -0.0748  0.0996
  643MOL0     H86801   4.313   7.942   1.695 -0.7692 -1.2856  2.1302
  643MOL0     H86802   4.285   7.810   1.579 -0.1681 -1.3071  0.4985
  643MOL0     H86803   4.679   7.710   1.619 -0.9360 -3.5462  0.5018
  643MOL0     H86804   3.973   7.544   2.101 -2.1107 -0.5974  1.2532
  643MOL0     H86805   3.797   7.500   2.270  0.7209  0.0680  1.7823
  644MOL0     O86806   2.491   0.546   4.221 -0.1857  0.0444  0.4573
  644MOL0     C86807   2.503   0.455   4.298  0.2947 -0.0891  0.4203
  644MOL0     O86808   2.396   0.400   4.374 -0.6376  0.3213 -0.4089
  644MOL0     C86809   2.265   0.424   4.361 -0.5178 -0.6435  0.0940
  644MOL0     C86810   2.182   0.323   4.399  0.0163 -0.1919 -0.6146
  644MOL0     C86811   2.050   0.332   4.387  1.3627 -0.2363  0.1627
  644MOL0     C86812   1.990   0.456   4.353 -0.0591  0.3485 -0.0543
  644MOL0     O86813   1.853   0.444   4.334 -0.7797 -0.7671 -0.2708
  644MOL0     C86814   1.784   0.560   4.291 -0.2381  0.5534  0.2382
  644MOL0     C86815   1.640   0.527   4.271  0.2791  0.5651  0.1863
  644MOL0     C86816   1.620   0.436   4.152 -0.1749 -0.4512 -0.7016
  644MOL0     C86817   1.462   0.435   4.139  0.2998 -0.8794 -0.0438
  644MOL0     C86818   1.398   0.333   4.043  0.3798 -0.8186  0.2705
  644MOL0     C86819   1.256   0.376   4.026  1.0348 -0.6698  0.0414
  644MOL0     C86820   1.180   0.355   4.160  0.0825  0.1542 -0.1503
  644MOL0     C86821   1.032   0.345   4.150 -0.6420  0.4066  1.0076
  644MOL0     N86822   0.969   0.236   4.072  0.1885  0.6578  0.2583
  644MOL0     C86823   0.942   0.105   4.117  0.2476  0.3934  0.4595
  644MOL0     C86824   0.868   0.042   4.020  0.1201  0.2898  0.0803
  644MOL0     C86825   0.811  -0.095   4.031  0.3398  0.0921 -0.1500
  644MOL0     C86826   0.885  -0.194   3.949  0.2056  0.0431  0.6853
  644MOL0     C86827   0.809  -0.198   3.812 -0.5097  0.2163  0.2500
  644MOL0     C86828   0.874  -0.299   3.719  0.2955 -0.4042 -0.2673
  644MOL0     O86829   0.887  -0.427   3.779  0.2678  0.7349  0.5470
  644MOL0     C86830   0.768  -0.495   3.809 -0.5505  0.3647 -0.1665
  644MOL0     C86831   0.776  -0.608   3.889 -0.1663  0.0372 -0.5130
  644MOL0     C86832   0.663  -0.682   3.932  0.7362  0.3435 -0.8388
  644MOL0     C86833   0.670  -0.755   4.063 -0.6770 -0.1561  0.1246
  644MOL0     C86834   0.536  -0.656   3.869  0.5532 -0.0806  0.0114
  644MOL0     C86835   0.407  -0.734   3.888  0.2553 -0.7033 -0.9275
  644MOL0     O86836   0.291  -0.677   3.857  0.2519 -0.5321  0.6673
  644MOL0     C86837   0.174  -0.751   3.878 -0.4415  0.2589 -0.5124
  644MOL0     C86838   0.109  -0.762   4.003  0.0443  1.2599 -0.0019
  644MOL0     C86839  -0.014  -0.836   4.010 -0.1623 -0.2194 -0.3531
  644MOL0     C86840  -0.076  -0.880   3.902  0.3642  0.7507  0.0687
  644MOL0     O86841  -0.191  -0.948   3.916  0.7114 -0.5393 -0.0119
  644MOL0     C86842  -0.227  -1.055   3.827 -0.0471  0.2158  0.7020
  644MOL0     C86843  -0.352  -1.128   3.875  0.0472  0.4988  0.3297
  644MOL0     C86844  -0.397  -1.221   3.759  0.6397 -0.9415 -0.1743
  644MOL0     C86845  -0.460  -1.139   3.641 -0.1939 -0.8251 -0.0758
  644MOL0     C86846  -0.524  -1.232   3.535 -0.5344  0.3045 -0.4587
  644MOL0     C86847  -0.644  -1.307   3.589 -0.0780 -0.2575 -0.5908
  644MOL0     C86848  -0.733  -1.350   3.474  0.8843  0.2336 -0.1506
  644MOL0     C86849  -0.848  -1.242   3.446  0.0852 -0.4669  0.5044
  644MOL0    Cl86850  -0.978  -1.264   3.561  0.3421 -0.0494  0.2393
  644MOL0     C86851  -0.017  -0.855   3.778  0.2632 -0.2454  0.5890
  644MOL0     C86852   0.104  -0.791   3.766 -0.2620 -0.2801 -0.8996
  644MOL0     O86853   0.417  -0.842   3.945  0.3675 -0.1501  0.5556
  644MOL0     C86854   0.532  -0.554   3.770 -0.3204 -0.6500 -0.3730
  644MOL0     C86855   0.646  -0.475   3.745 -0.6793  0.6398  0.5188
  644MOL0     N86856   0.867   0.132   3.916  0.5271  0.2989 -0.0641
  644MOL0     N86857   0.929   0.246   3.944 -0.2750  0.2839 -0.4603
  644MOL0     C86858   2.075   0.565   4.322  0.8757 -0.8520 -0.2088
  644MOL0     C86859   2.211   0.547   4.323  0.3095  0.8126 -0.7670
  644MOL0     C86860   2.637   0.400   4.328 -0.3211  0.6796 -0.8428
  644MOL0     C86861   2.657   0.280   4.407 -0.7839  0.6873  0.7474
  644MOL0     C86862   2.786   0.230   4.418  0.2463 -0.2122  0.8842
  644MOL0     C86863   2.899   0.300   4.369  0.1526  0.5358 -0.1659
  644MOL0     O86864   3.026   0.260   4.395  0.0809 -0.4243  0.1717
  644MOL0     C86865   3.054   0.220   4.539  0.4808 -0.0865 -0.1499
  644MOL0     C86866   3.203   0.241   4.577 -0.1558 -0.4821 -0.7006
  644MOL0     C86867   3.291   0.133   4.524  0.7972  0.2755  0.3971
  644MOL0     C86868   3.438   0.151   4.566  0.2030 -0.5510 -0.5380
  644MOL0     C86869   3.462   0.117   4.709 -0.5506  0.2550 -0.0161
  644MOL0     C86870   3.498   0.085   4.818  0.2763  0.3311 -0.3498
  644MOL0     C86871   2.880   0.426   4.305  0.7679  0.3480 -0.2766
  644MOL0     C86872   2.753   0.461   4.271  0.3919 -0.2564  0.3425
  644MOL0     H86873   2.214   0.226   4.437 -1.2294 -0.1699  0.5389
  644MOL0     H86874   1.973   0.260   4.413 -1.9189  2.5313 -1.0735
  644MOL0     H86875   1.795   0.641   4.363 -2.2801  1.1245 -0.0408
  644MOL0     H86876   1.829   0.599   4.199 -1.8261 -1.3944 -1.4459
  644MOL0     H86877   1.606   0.485   4.367  1.1668 -1.9114 -0.5054
  644MOL0     H86878   1.584   0.621   4.267  0.8185  0.8673 -0.2254
  644MOL0     H86879   1.683   0.476   4.072  1.3985  0.9130  1.1236
  644MOL0     H86880   1.656   0.333   4.165 -4.6653 -2.6083 -2.9861
  644MOL0     H86881   1.422   0.415   4.238 -4.3544 -0.5541 -1.6184
  644MOL0     H86882   1.422   0.532   4.108 -2.7950 -1.5096  1.5667
  644MOL0     H86883   1.448   0.339   3.946  0.1177  1.0715  0.2330
  644MOL0     H86884   1.397   0.229   4.078 -1.0707 -2.1203 -3.2094
  644MOL0     H86885   1.248   0.481   3.999 -1.9004 -0.6151  0.8218
  644MOL0     H86886   1.214   0.321   3.942 -1.2125  0.9540  0.0240
  644MOL0     H86887   1.214   0.260   4.201  0.4919 -0.9748 -2.8923
  644MOL0     H86888   1.179   0.443   4.226 -1.2585  0.1858 -0.1829
  644MOL0     H86889   0.993   0.432   4.096  1.3602  0.7546  0.0433
  644MOL0     H86890   0.985   0.328   4.247  2.6930 -2.2351  2.3314
  644MOL0     H86891   0.970   0.060   4.212 -0.2279  0.4245  0.6175
  644MOL0     H86892   0.822  -0.123   4.136  0.1542 -0.9196 -0.3856
  644MOL0     H86893   0.703  -0.101   4.016  0.4808  1.4080 -2.0302
  644MOL0     H86894   0.866  -0.290   3.999  0.7866  0.1291  1.0819
  644MOL0     H86895   0.992  -0.171   3.944  0.7356 -1.7213  2.3999
  644MOL0     H86896   0.811  -0.100   3.763  0.2951  0.2434  0.3369
  644MOL0     H86897   0.703  -0.223   3.825 -0.1338 -0.4726  2.2315
  644MOL0     H86898   0.973  -0.264   3.688 -0.6748  0.9217 -2.1030
  644MOL0     H86899   0.820  -0.302   3.624  0.0702 -0.1613 -0.1509
  644MOL0     H86900   0.879  -0.630   3.917  0.5212  1.0062 -2.1820
  644MOL0     H86901   0.673  -0.861   4.039  0.2788 -0.3216  0.9654
  644MOL0     H86902   0.763  -0.724   4.110 -1.4559  2.5122  0.1241
  644MOL0     H86903   0.590  -0.721   4.130 -0.5389  2.2305 -0.8033
  644MOL0     H86904   0.161  -0.729   4.092  1.1746  1.9312 -0.8854
  644MOL0     H86905  -0.052  -0.863   4.108  2.1494  2.2631  1.3659
  644MOL0     H86906  -0.245  -1.012   3.728  0.7289 -2.2792 -0.5880
  644MOL0     H86907  -0.140  -1.122   3.822  0.0498  0.0494  3.2932
  644MOL0     H86908  -0.322  -1.194   3.957 -1.5005 -0.8689 -0.1376
  644MOL0     H86909  -0.430  -1.061   3.911  0.5399 -0.0954  2.6530
  644MOL0     H86910  -0.480  -1.279   3.800 -1.8358  2.2825 -0.1818
  644MOL0     H86911  -0.314  -1.286   3.730  4.0809  1.8239  2.5641
  644MOL0     H86912  -0.544  -1.077   3.677 -0.7534  0.4503 -3.1981
  644MOL0     H86913  -0.382  -1.077   3.596  0.0056 -0.5079  0.6952
  644MOL0     H86914  -0.455  -1.305   3.492  1.4680  1.8654 -0.0592
  644MOL0     H86915  -0.547  -1.171   3.447 -0.0266  1.1615 -0.0139
  644MOL0     H86916  -0.621  -1.398   3.645 -3.6103 -0.4844  0.7312
  644MOL0     H86917  -0.692  -1.242   3.663  5.3757  0.8824  2.4832
  644MOL0     H86918  -0.771  -1.450   3.497 -3.0063  1.7940  1.0255
  644MOL0     H86919  -0.680  -1.363   3.379  1.4583 -0.0049  0.1985
  644MOL0     H86920  -0.893  -1.254   3.347 -1.7695  0.7922  1.1270
  644MOL0     H86921  -0.815  -1.138   3.450 -0.0675 -0.4488  1.3837
  644MOL0     H86922  -0.066  -0.897   3.690 -0.4419  0.5125  0.6041
  644MOL0     H86923   0.147  -0.777   3.667 -0.5418  1.7359 -0.7810
  644MOL0     H86924   0.441  -0.519   3.722 -1.0616 -1.2163  0.5722
  644MOL0     H86925   0.638  -0.399   3.668 -0.4849  1.6265  1.4504
  644MOL0     H86926   2.038   0.659   4.283  1.2250 -0.9511 -0.7970
  644MOL0     H86927   2.287   0.623   4.310  0.1405  1.3338  0.9822
  644MOL0     H86928   2.581   0.211   4.445  0.3252 -1.3427 -0.5326
  644MOL0     H86929   2.797   0.137   4.473  1.1665  0.0710  1.1850
  644MOL0     H86930   2.984   0.263   4.611 -1.1361  0.0689 -1.7154
  644MOL0     H86931   3.038   0.111   4.541  1.3213 -0.2767 -1.7321
  644MOL0     H86932   3.211   0.231   4.685 -0.3334  1.3049 -0.4956
  644MOL0     H86933   3.230   0.343   4.546 -1.8795  0.4329  0.6497
  644MOL0     H86934   3.274   0.126   4.416 -2.1437  3.3601  0.5305
  644MOL0     H86935   3.253   0.036   4.557  0.4793  1.0626  2.4427
  644MOL0     H86936   3.473   0.247   4.527  0.9911 -1.1878 -1.4509
  644MOL0     H86937   3.503   0.078   4.517  1.0475 -1.1898  1.4059
  644MOL0     H86938   3.538   0.079   4.917  2.6346  1.8649 -1.1447
  644MOL0     H86939   2.966   0.482   4.269  0.0825  1.4780 -0.1911
  644MOL0     H86940   2.748   0.548   4.206 -0.5579 -0.4980  0.0776
  645MOL0     O86941   6.058   7.238   2.050 -0.4995  0.0265  0.0791
  645MOL0     C86942   6.108   7.150   2.124  0.2737 -0.2776  0.2492
  645MOL0     O86943   6.041   7.075   2.219 -0.6087 -0.5245 -0.4224
  645MOL0     C86944   5.919   7.115   2.257 -0.2384 -0.8222 -0.3986
  645MOL0     C86945   5.813   7.021   2.251  0.6683 -0.2754  0.3715
  645MOL0     C86946   5.679   7.063   2.276 -0.7659  0.3305  0.1684
  645MOL0     C86947   5.656   7.196   2.318  0.1931  0.6847 -0.0275
  645MOL0     O86948   5.529   7.230   2.345 -0.4693  0.0575 -0.2918
  645MOL0     C86949   5.511   7.368   2.392 -0.5638  1.1645 -0.3310
  645MOL0     C86950   5.374   7.376   2.451 -0.0107  0.5149  0.7930
  645MOL0     C86951   5.254   7.311   2.387  0.4108  0.6803 -0.5727
  645MOL0     C86952   5.122   7.338   2.460 -0.2549 -0.4943 -0.1529
  645MOL0     C86953   5.007   7.318   2.361  0.3540 -0.2712 -0.1802
  645MOL0     C86954   4.874   7.361   2.413  0.1079  0.8397  0.1024
  645MOL0     C86955   4.813   7.253   2.493 -0.2399 -0.0069 -0.1236
  645MOL0     C86956   4.663   7.270   2.513  0.2702 -0.1175 -0.1013
  645MOL0     N86957   4.603   7.153   2.584 -0.3875 -0.0780  0.1479
  645MOL0     C86958   4.470   7.152   2.598  0.1206 -0.6951 -0.3766
  645MOL0     C86959   4.450   7.040   2.676 -0.2648 -0.0669 -0.0505
  645MOL0     C86960   4.317   6.982   2.723 -0.1357 -0.0310 -0.3309
  645MOL0     C86961   4.217   6.958   2.610  0.4747  0.1261 -0.1579
  645MOL0     C86962   4.092   6.891   2.671 -0.2409  0.7658 -0.3956
  645MOL0     C86963   3.979   6.872   2.577 -0.3109  0.8012 -0.1866
  645MOL0     O86964   3.888   6.777   2.634  0.1525 -0.9302  0.4134
  645MOL0     C86965   3.771   6.749   2.568  0.4332 -0.6308  0.1156
  645MOL0     C86966   3.734   6.808   2.444 -0.4526  0.6971  0.3768
  645MOL0     C86967   3.608   6.785   2.384 -0.5832 -0.3319  0.1983
  645MOL0     C86968   3.581   6.860   2.257 -0.2069 -0.1124 -0.3122
  645MOL0     C86969   3.520   6.701   2.458  0.1191 -0.6355 -1.1519
  645MOL0     C86970   3.384   6.669   2.417 -0.2228 -0.2663 -0.2634
  645MOL0     O86971   3.314   6.565   2.474 -0.8035  0.0082  0.0140
  645MOL0     C86972   3.199   6.516   2.431 -0.3777 -0.0570  0.2793
  645MOL0     C86973   3.110   6.471   2.525 -0.6275  0.2833 -0.3067
  645MOL0     C86974   2.981   6.418   2.498 -0.1047  1.0713 -0.1309
  645MOL0     C86975   2.942   6.410   2.362 -0.9906  0.1391  0.5541
  645MOL0     O86976   2.828   6.333   2.334 -0.3991 -0.3364  0.2226
  645MOL0     C86977   2.768   6.335   2.202 -0.1861 -0.5289  0.5414
  645MOL0     C86978   2.629   6.291   2.230  0.1138 -0.8412 -1.2344
  645MOL0     C86979   2.616   6.142   2.238  1.4744  0.4296  0.5888
  645MOL0     C86980   2.469   6.092   2.244  0.0231 -0.1572 -0.2476
  645MOL0     C86981   2.450   5.951   2.193  0.0965  0.3971 -0.1773
  645MOL0     C86982   2.316   5.880   2.237  0.2071 -0.0212 -0.0129
  645MOL0     C86983   2.295   5.837   2.380  0.1484 -0.7689 -0.1812
  645MOL0     C86984   2.158   5.803   2.418 -0.3472 -0.1668 -0.2756
  645MOL0    Cl86985   2.101   5.647   2.338 -0.2948 -0.3774 -0.4601
  645MOL0     C86986   3.030   6.453   2.264 -0.1652 -0.0947  0.4202
  645MOL0     C86987   3.154   6.511   2.300  0.0034 -0.2823 -0.6435
  645MOL0     O86988   3.332   6.756   2.349 -0.5291 -0.0923 -0.1496
  645MOL0     C86989   3.565   6.638   2.578  0.1169 -0.3789 -0.4524
  645MOL0     C86990   3.684   6.673   2.637 -0.4577  0.1178  0.0196
  645MOL0     N86991   4.569   6.986   2.711 -0.7222  0.2346  0.1302
  645MOL0     N86992   4.664   7.051   2.655 -0.7144  0.3803 -0.0707
  645MOL0     C86993   5.763   7.289   2.323  0.5946  0.0769 -0.9569
  645MOL0     C86994   5.895   7.246   2.300  0.4820  0.4146  0.2020
  645MOL0     C86995   6.259   7.130   2.112  0.5424  0.4691  0.1843
  645MOL0     C86996   6.341   7.218   2.036  0.1302  0.3402  1.1951
  645MOL0     C86997   6.473   7.223   2.055 -0.1958  0.2860  0.4788
  645MOL0     C86998   6.536   7.130   2.135 -0.0054  0.4732 -0.5158
  645MOL0     O86999   6.671   7.119   2.138 -1.2761 -0.1121  0.0990
  645MOL0     C87000   6.741   6.993   2.183  0.8207 -0.2006  0.0584
  645MOL0     C87001   6.871   6.977   2.098 -0.6594  0.0060  0.7117
  645MOL0     C87002   6.992   7.055   2.150  0.4218 -0.4298  0.9117
  645MOL0     C87003   7.102   7.046   2.049 -0.0331 -0.2903 -0.1108
  645MOL0     C87004   7.222   7.122   2.089  0.5942 -1.0266 -0.0314
  645MOL0     C87005   7.317   7.194   2.124  0.2550  0.6439 -0.2865
  645MOL0     C87006   6.458   7.034   2.199  0.9279  0.8855 -0.3088
  645MOL0     C87007   6.319   7.033   2.190  0.1623 -0.2858 -0.1519
  645MOL0     H87008   5.831   6.916   2.231  0.4996 -0.8199  2.8206
  645MOL0     H87009   5.612   6.980   2.254 -1.2597  0.5656  0.7575
  645MOL0     H87010   5.581   7.400   2.470 -1.0783 -0.9062  1.0395
  645MOL0     H87011   5.518   7.440   2.310  0.2715  0.3921 -0.9442
  645MOL0     H87012   5.388   7.334   2.551  3.4754  2.0394  1.0919
  645MOL0     H87013   5.349   7.482   2.466  1.0027  1.1026 -1.3173
  645MOL0     H87014   5.240   7.349   2.286 -0.6895  0.0637 -0.6629
  645MOL0     H87015   5.274   7.204   2.387 -0.5311  0.4664  1.3475
  645MOL0     H87016   5.118   7.265   2.542 -1.9285 -1.7119 -1.2593
  645MOL0     H87017   5.116   7.440   2.496 -0.8706 -0.6630  0.2207
  645MOL0     H87018   5.037   7.372   2.271 -0.3858 -2.1319 -1.6056
  645MOL0     H87019   4.990   7.216   2.324  0.0677 -0.9216  1.6145
  645MOL0     H87020   4.888   7.448   2.478 -3.0453  2.0543 -0.6860
  645MOL0     H87021   4.809   7.384   2.329  1.3223 -1.0895 -1.4624
  645MOL0     H87022   4.822   7.162   2.433 -0.0750 -0.4470  0.5499
  645MOL0     H87023   4.849   7.232   2.594 -0.6930 -0.2224 -0.0028
  645MOL0     H87024   4.615   7.279   2.415 -0.1332  2.9612  0.2598
  645MOL0     H87025   4.638   7.358   2.573  0.6773 -0.7180  0.9664
  645MOL0     H87026   4.399   7.223   2.556  2.2604  1.2484 -0.9164
  645MOL0     H87027   4.326   6.893   2.786 -0.0064 -0.0006 -0.3058
  645MOL0     H87028   4.264   7.053   2.788 -3.5471 -1.8050 -0.9251
  645MOL0     H87029   4.251   6.900   2.524 -2.4518 -4.0547  1.2269
  645MOL0     H87030   4.188   7.060   2.580 -2.5071  0.1976  2.3887
  645MOL0     H87031   4.053   6.939   2.762 -1.0221 -2.0932  0.8903
  645MOL0     H87032   4.118   6.787   2.693 -0.9194  0.2980 -1.6461
  645MOL0     H87033   4.018   6.833   2.482  0.1785 -2.4934  1.2247
  645MOL0     H87034   3.932   6.970   2.566 -2.2573  0.1939  1.9244
  645MOL0     H87035   3.799   6.881   2.396  0.4307 -0.9249 -1.0198
  645MOL0     H87036   3.508   6.939   2.281  0.7660  0.7396 -0.0770
  645MOL0     H87037   3.663   6.907   2.202 -0.8375  0.3449 -0.8777
  645MOL0     H87038   3.543   6.789   2.183 -0.4631 -3.4767  2.8131
  645MOL0     H87039   3.132   6.475   2.632 -0.6587  0.4585 -0.3047
  645MOL0     H87040   2.924   6.382   2.583  0.1455  0.2138 -0.3075
  645MOL0     H87041   2.761   6.433   2.154 -2.0390  0.1112  1.9760
  645MOL0     H87042   2.806   6.265   2.127 -2.4003 -1.9171  0.6279
  645MOL0     H87043   2.596   6.336   2.324 -2.9555  2.6857 -3.6784
  645MOL0     H87044   2.556   6.324   2.155 -0.8453 -3.5003 -1.5729
  645MOL0     H87045   2.662   6.098   2.327  0.6301 -1.5272  0.1030
  645MOL0     H87046   2.667   6.104   2.150  0.3496  1.3754 -0.5075
  645MOL0     H87047   2.439   6.096   2.349 -2.6062 -1.6591 -0.8655
  645MOL0     H87048   2.400   6.163   2.198 -1.0603  1.3718  3.3553
  645MOL0     H87049   2.543   5.901   2.222  0.5130  0.1039 -1.9526
  645MOL0     H87050   2.466   5.951   2.085  0.0927 -0.7798 -0.1924
  645MOL0     H87051   2.245   5.956   2.205  2.0178  1.3926 -0.8840
  645MOL0     H87052   2.295   5.791   2.177  1.4947 -1.7613  1.9577
  645MOL0     H87053   2.321   5.919   2.447 -2.3889  0.1648 -0.2298
  645MOL0     H87054   2.374   5.764   2.401  0.7026  0.1521  1.0360
  645MOL0     H87055   2.089   5.882   2.385 -0.2863 -0.1354 -0.3290
  645MOL0     H87056   2.157   5.795   2.527 -1.5909 -0.5461 -0.3033
  645MOL0     H87057   3.012   6.462   2.158  1.3082  1.4124  0.2655
  645MOL0     H87058   3.217   6.559   2.226  1.6247 -2.3363 -0.6952
  645MOL0     H87059   3.509   6.564   2.633  2.6583 -0.3042  2.5012
  645MOL0     H87060   3.728   6.636   2.729 -2.0207 -1.9836 -0.0250
  645MOL0     H87061   5.739   7.391   2.351 -2.7867 -0.7563 -0.3686
  645MOL0     H87062   5.980   7.314   2.300 -1.8234  3.5622 -1.2103
  645MOL0     H87063   6.295   7.284   1.964  1.0029  1.2400  1.4398
  645MOL0     H87064   6.525   7.297   1.993  1.5693  0.7226  2.3676
  645MOL0     H87065   6.776   7.008   2.286  0.0255 -2.4073  0.7063
  645MOL0     H87066   6.674   6.907   2.176 -2.0309  1.2630  4.5924
  645MOL0     H87067   6.854   6.999   1.992  0.7987  1.3110  0.7067
  645MOL0     H87068   6.907   6.873   2.098  1.9494  0.8321  0.2874
  645MOL0     H87069   7.017   7.028   2.253 -1.6861  1.9254  2.1669
  645MOL0     H87070   6.964   7.160   2.165  1.4393 -0.3391  2.3413
  645MOL0     H87071   7.073   7.097   1.957  1.9942 -0.7992 -1.1064
  645MOL0     H87072   7.121   6.940   2.028 -0.7248 -0.9619  2.4090
  645MOL0     H87073   7.416   7.235   2.125 -0.1212  1.6028  1.3100
  645MOL0     H87074   6.503   6.958   2.261 -0.3435 -1.4270 -2.0658
  645MOL0     H87075   6.263   6.961   2.249  1.6633 -1.4464 -0.0999
  646MOL0     O87076   7.263  10.980   8.809  0.5160  0.1659  0.2683
  646MOL0     C87077   7.279  11.019   8.692  0.4836 -0.0363 -0.1795
  646MOL0     O87078   7.192  11.012   8.593  1.1810 -0.2480 -0.5561
  646MOL0     C87079   7.054  10.996   8.625 -0.0835 -0.3177  0.4387
  646MOL0     C87080   6.999  11.068   8.734 -0.5246  0.6641  1.2097
  646MOL0     C87081   6.861  11.048   8.766 -0.4060 -1.3505  0.1851
  646MOL0     C87082   6.779  10.972   8.685 -0.2975  0.6333 -0.7530
  646MOL0     O87083   6.650  10.945   8.710  1.4278  0.4378  0.2642
  646MOL0     C87084   6.581  11.018   8.810  0.4157 -0.4916 -0.2790
  646MOL0     C87085   6.593  10.933   8.934 -0.1494  0.4484 -0.0245
  646MOL0     C87086   6.479  10.962   9.032  0.3556 -0.2660  0.4727
  646MOL0     C87087   6.361  10.860   9.011  0.5347 -0.1369  0.8466
  646MOL0     C87088   6.233  10.935   9.055 -0.4808 -0.0398  0.4653
  646MOL0     C87089   6.106  10.865   9.012  0.6775 -0.0619  0.4731
  646MOL0     C87090   6.076  10.733   9.094  0.0165  0.4525 -0.3939
  646MOL0     C87091   5.935  10.680   9.050  0.0677 -1.0254 -0.0904
  646MOL0     N87092   5.833  10.762   9.117 -0.4145 -0.1189  0.3236
  646MOL0     C87093   5.791  10.747   9.249 -0.2155  0.0819  0.3327
  646MOL0     C87094   5.709  10.847   9.285  0.2469 -0.2901  0.4843
  646MOL0     C87095   5.619  10.855   9.408 -0.4889  0.1021  0.2656
  646MOL0     C87096   5.501  10.759   9.412  1.0432  0.1133 -0.4298
  646MOL0     C87097   5.454  10.760   9.553  0.1679  0.3771 -0.2246
  646MOL0     C87098   5.313  10.697   9.559 -0.2504 -0.1373 -0.2792
  646MOL0     O87099   5.321  10.558   9.524  0.2753 -0.4388  0.7157
  646MOL0     C87100   5.205  10.493   9.542 -0.7658 -0.1740  0.9079
  646MOL0     C87101   5.078  10.550   9.552  0.7387  0.0315  0.1766
  646MOL0     C87102   4.956  10.477   9.594 -0.9531  0.3233 -0.9803
  646MOL0     C87103   4.836  10.556   9.635 -0.5008  0.6177 -0.4067
  646MOL0     C87104   4.974  10.331   9.609 -0.3774 -0.4676  1.2039
  646MOL0     C87105   4.864  10.236   9.619 -0.6282 -0.5284  0.8441
  646MOL0     O87106   4.758  10.266   9.558 -0.5306 -1.0103 -0.2128
  646MOL0     C87107   4.647  10.196   9.565  0.0468  1.8451 -0.2849
  646MOL0     C87108   4.608  10.109   9.464 -0.3617  0.0223 -0.0142
  646MOL0     C87109   4.499  10.016   9.482  0.5463 -0.5562 -0.3194
  646MOL0     C87110   4.423  10.016   9.601  0.9482  0.6017  0.6310
  646MOL0     O87111   4.306   9.940   9.612  0.5340 -0.0729 -0.7121
  646MOL0     C87112   4.286   9.839   9.506  0.1868 -0.4768 -0.4161
  646MOL0     C87113   4.183   9.745   9.559  0.5694  0.0761 -0.2097
  646MOL0     C87114   4.139   9.654   9.443 -0.2451 -0.1337 -0.4662
  646MOL0     C87115   4.014   9.579   9.479 -0.4932  0.4682  0.6704
  646MOL0     C87116   3.972   9.488   9.368  0.1635 -0.0383  0.0051
  646MOL0     C87117   3.849   9.402   9.413 -0.1283 -0.9971  0.9456
  646MOL0     C87118   3.821   9.300   9.302 -0.3875  0.0791 -0.5321
  646MOL0     C87119   3.677   9.253   9.286 -0.0014  0.2889 -0.3264
  646MOL0    Cl87120   3.563   9.383   9.253 -0.3750 -0.3380  0.1348
  646MOL0     C87121   4.453  10.110   9.690  0.5898 -0.3608  0.1942
  646MOL0     C87122   4.561  10.200   9.679  0.1427 -0.5556 -1.0335
  646MOL0     O87123   4.880  10.137   9.692 -0.4464 -0.2390  0.4793
  646MOL0     C87124   5.104  10.276   9.582  0.2370  0.3521  1.0364
  646MOL0     C87125   5.219  10.355   9.551  0.3813 -0.0817  0.5683
  646MOL0     N87126   5.697  10.921   9.166  0.2446  0.0744 -0.0896
  646MOL0     N87127   5.787  10.886   9.075 -0.0511  0.4657 -0.4563
  646MOL0     C87128   6.838  10.908   8.572  0.3418 -0.2714 -0.4230
  646MOL0     C87129   6.965  10.930   8.533 -0.0105 -0.0858  0.2300
  646MOL0     C87130   7.421  11.052   8.659 -0.9848 -1.0394 -0.2025
  646MOL0     C87131   7.503  11.083   8.767 -0.4878  0.9391  0.6207
  646MOL0     C87132   7.638  11.111   8.754  0.1953 -0.4113 -0.2156
  646MOL0     C87133   7.695  11.119   8.626 -0.3154 -0.4329  0.5646
  646MOL0     O87134   7.827  11.150   8.611  0.4025  0.3338  0.0918
  646MOL0     C87135   7.910  11.033   8.581  0.0283  0.5232  0.1449
  646MOL0     C87136   8.050  11.079   8.562 -0.2648  0.3167  0.5377
  646MOL0     C87137   8.111  11.112   8.698 -0.7531  0.1408 -0.6286
  646MOL0     C87138   8.245  11.183   8.685  0.1431  0.9285 -0.3399
  646MOL0     C87139   8.352  11.092   8.644  0.3315 -0.0456 -0.7698
  646MOL0     C87140   8.425  11.005   8.607  0.2994 -0.6122 -1.1667
  646MOL0     C87141   7.615  11.099   8.514 -0.3657  0.3737  0.6798
  646MOL0     C87142   7.480  11.057   8.533 -0.5832 -0.8482  0.3764
  646MOL0     H87143   7.052  11.137   8.799  0.8410  0.2083  0.6007
  646MOL0     H87144   6.818  11.104   8.848 -1.1335 -0.4034 -0.7989
  646MOL0     H87145   6.616  11.120   8.827 -2.4797  0.3800  1.0261
  646MOL0     H87146   6.476  11.028   8.780  0.0723 -1.8743  0.3739
  646MOL0     H87147   6.585  10.827   8.905  3.3784  0.2237 -0.6737
  646MOL0     H87148   6.691  10.956   8.977  0.9520 -1.2045 -1.5046
  646MOL0     H87149   6.505  10.946   9.137 -0.9211 -1.8437  0.5815
  646MOL0     H87150   6.438  11.062   9.015  0.8902 -0.2874 -1.0534
  646MOL0     H87151   6.346  10.840   8.905  0.5767 -1.1871  1.0292
  646MOL0     H87152   6.373  10.761   9.056  0.5064 -1.1820 -1.3371
  646MOL0     H87153   6.233  10.942   9.164 -1.1856 -0.3691  0.4947
  646MOL0     H87154   6.223  11.038   9.022 -1.5897  0.1126  1.2298
  646MOL0     H87155   6.034  10.947   9.023  0.7070 -0.0870  0.8808
  646MOL0     H87156   6.112  10.845   8.905 -1.1097  1.7341 -0.0363
  646MOL0     H87157   6.134  10.648   9.057 -0.6311  0.0174 -0.4284
  646MOL0     H87158   6.083  10.753   9.201 -1.8058 -0.8661 -0.0010
  646MOL0     H87159   5.928  10.575   9.081 -0.8002 -0.8137  0.4726
  646MOL0     H87160   5.925  10.670   8.942  0.8418  0.4532 -0.3249
  646MOL0     H87161   5.827  10.673   9.320  0.2156  0.4486  0.4981
  646MOL0     H87162   5.690  10.822   9.485  1.0846 -0.0891 -1.2114
  646MOL0     H87163   5.583  10.958   9.419  0.5913  0.5313 -0.0552
  646MOL0     H87164   5.532  10.655   9.401 -0.7078 -0.7689  2.1756
  646MOL0     H87165   5.418  10.780   9.344 -3.4992 -2.6043  3.7105
  646MOL0     H87166   5.445  10.864   9.586 -0.6760  0.9842 -2.2128
  646MOL0     H87167   5.521  10.712   9.625 -3.3985 -1.9309  1.8683
  646MOL0     H87168   5.248  10.745   9.485 -1.0426 -1.8523 -0.7409
  646MOL0     H87169   5.265  10.712   9.657  1.4001  2.6554  0.2222
  646MOL0     H87170   5.070  10.657   9.533 -1.4846  0.1320  1.3893
  646MOL0     H87171   4.795  10.603   9.545 -1.4193 -1.7320 -1.3119
  646MOL0     H87172   4.758  10.495   9.682 -0.8014  2.1045  1.1185
  646MOL0     H87173   4.864  10.637   9.702  1.4912 -0.8356  0.6295
  646MOL0     H87174   4.665  10.118   9.372  0.0449 -1.9108  0.0073
  646MOL0     H87175   4.473   9.954   9.397  0.9967 -2.0858  0.6102
  646MOL0     H87176   4.259   9.888   9.412 -1.6867  0.1749  0.4314
  646MOL0     H87177   4.372   9.777   9.478  1.1303  0.8892 -0.6482
  646MOL0     H87178   4.213   9.686   9.646 -1.6302 -3.0874 -1.4079
  646MOL0     H87179   4.092   9.802   9.580 -0.3830 -1.3020 -0.4501
  646MOL0     H87180   4.225   9.596   9.409  1.7176  2.8119 -0.9339
  646MOL0     H87181   4.112   9.717   9.358 -2.2305  0.6328  0.6784
  646MOL0     H87182   4.032   9.527   9.574  0.3163  3.3286  2.1898
  646MOL0     H87183   3.931   9.646   9.501  0.3851  1.9510 -0.3579
  646MOL0     H87184   4.056   9.418   9.354  1.9565  1.1669  3.4023
  646MOL0     H87185   3.950   9.544   9.277 -0.7983  2.8591  1.8995
  646MOL0     H87186   3.870   9.344   9.503  3.5911 -0.8796  0.3115
  646MOL0     H87187   3.769   9.475   9.424 -0.4026 -1.1098 -0.1837
  646MOL0     H87188   3.891   9.217   9.314  2.6649  2.7341  1.6286
  646MOL0     H87189   3.845   9.353   9.209 -2.0572  3.1066  0.6346
  646MOL0     H87190   3.645   9.208   9.381 -1.3940  0.5902 -0.6231
  646MOL0     H87191   3.669   9.173   9.212  3.4451  1.3431 -2.0150
  646MOL0     H87192   4.377  10.120   9.767 -1.7285 -1.1279 -1.8376
  646MOL0     H87193   4.575  10.276   9.756  1.7309 -0.7849 -1.0567
  646MOL0     H87194   5.112  10.168   9.581 -1.9767  0.0183 -2.7432
  646MOL0     H87195   5.314  10.309   9.527  0.4763  0.4680 -0.1409
  646MOL0     H87196   6.768  10.863   8.502 -0.0879 -3.3595  1.7822
  646MOL0     H87197   7.002  10.889   8.440  1.9413  0.3720  0.7680
  646MOL0     H87198   7.479  11.063   8.871  2.7768 -0.1248  1.3176
  646MOL0     H87199   7.705  11.121   8.839 -2.6223  0.9066  1.9931
  646MOL0     H87200   7.897  10.954   8.656 -0.2868 -1.4746 -1.9044
  646MOL0     H87201   7.883  10.979   8.490 -1.4536 -0.5789  1.1709
  646MOL0     H87202   8.044  11.167   8.498 -0.4049  1.0412  1.5203
  646MOL0     H87203   8.109  11.004   8.508 -0.2483 -0.6384  1.8134
  646MOL0     H87204   8.131  11.022   8.757  1.5058  1.0943  0.1811
  646MOL0     H87205   8.044  11.177   8.755  0.5848  2.2822 -1.3754
  646MOL0     H87206   8.274  11.224   8.782 -1.5335  1.5783 -0.0840
  646MOL0     H87207   8.229  11.261   8.609  0.0110  1.3248  0.0874
  646MOL0     H87208   8.494  10.929   8.577  0.8839  0.4852 -2.7805
  646MOL0     H87209   7.640  11.117   8.409  0.7369  1.4795  1.1067
  646MOL0     H87210   7.416  11.043   8.447  0.7665  0.0201 -0.8186
  647MOL0     O87211   7.898   8.003   9.175  0.1273 -0.0146 -0.4025
  647MOL0     C87212   7.982   7.988   9.261 -0.2291 -0.3429 -0.5417
  647MOL0     O87213   7.961   7.996   9.407  0.0667  0.5265  0.2084
  647MOL0     C87214   7.839   7.992   9.470  0.9726 -0.2679  1.0809
  647MOL0     C87215   7.836   8.022   9.605 -0.5945 -0.5438 -0.3255
  647MOL0     C87216   7.716   8.016   9.676 -0.0111 -0.6727  0.9607
  647MOL0     C87217   7.598   7.970   9.615  0.4149  0.6701  0.9469
  647MOL0     O87218   7.482   7.934   9.679  0.2752 -0.3948 -0.7363
  647MOL0     C87219   7.458   8.010   9.800 -0.7046  0.2235  0.4626
  647MOL0     C87220   7.332   7.951   9.865 -0.5188  0.1678 -0.2248
  647MOL0     C87221   7.202   7.987   9.798 -0.6503  0.5110 -0.2882
  647MOL0     C87222   7.087   7.928   9.873 -0.1962  0.5297  0.1774
  647MOL0     C87223   6.952   7.991   9.824  0.5861  1.0661  0.7161
  647MOL0     C87224   6.839   7.906   9.881 -0.1537  0.7322  0.3343
  647MOL0     C87225   6.706   7.917   9.810  0.1583  0.2666 -0.4265
  647MOL0     C87226   6.607   7.814   9.871  0.1174  0.9545  0.1068
  647MOL0     N87227   6.483   7.815   9.790  0.3880  0.5488 -0.4049
  647MOL0     C87228   6.372   7.898   9.811 -0.1874 -0.1887  0.0370
  647MOL0     C87229   6.277   7.863   9.722 -0.0283  0.4066 -0.8086
  647MOL0     C87230   6.154   7.947   9.708  0.7084  0.0177  0.6967
  647MOL0     C87231   6.028   7.861   9.745  0.1153 -0.6979 -0.4874
  647MOL0     C87232   6.008   7.852   9.898 -0.1209 -0.0145  0.2199
  647MOL0     C87233   5.875   7.793   9.936 -0.0254  0.6237  0.2631
  647MOL0     O87234   5.763   7.863   9.888 -0.8259 -0.1102 -0.3641
  647MOL0     C87235   5.642   7.835   9.948 -0.0504  0.1043 -0.9982
  647MOL0     C87236   5.615   7.727  10.037 -1.0747  0.1414  0.0682
  647MOL0     C87237   5.486   7.703  10.103 -0.4247 -0.1002 -0.2030
  647MOL0     C87238   5.475   7.601  10.204  0.1605 -0.5907  0.0032
  647MOL0     C87239   5.388   7.811  10.087 -0.5052  0.1101 -0.0017
  647MOL0     C87240   5.261   7.805  10.163 -0.8858  0.0928  0.5551
  647MOL0     O87241   5.184   7.905  10.140  0.7251  0.2676 -0.2346
  647MOL0     C87242   5.059   7.908  10.187  0.1029  0.3217  0.3456
  647MOL0     C87243   5.028   8.024  10.263 -0.3028  0.3552  0.9035
  647MOL0     C87244   4.912   8.032  10.339 -0.1292  0.6043 -0.3890
  647MOL0     C87245   4.826   7.925  10.328 -0.0215 -0.0926  0.4162
  647MOL0     O87246   4.706   7.924  10.402  0.3362  0.7388 -0.3366
  647MOL0     C87247   4.618   8.033  10.364  0.1779  0.4831  0.0909
  647MOL0     C87248   4.485   8.030  10.434  0.0920  0.6543 -0.1625
  647MOL0     C87249   4.372   8.119  10.387  0.2352  0.5206  0.0881
  647MOL0     C87250   4.422   8.258  10.352 -0.4545 -0.9069 -0.4669
  647MOL0     C87251   4.307   8.354  10.337  0.3042 -0.5710 -0.0194
  647MOL0     C87252   4.178   8.329  10.410 -0.3572  0.2215 -0.1509
  647MOL0     C87253   4.077   8.448  10.379  0.3795  0.1289  0.1417
  647MOL0     C87254   3.949   8.444  10.459 -0.4489  0.3773  0.1809
  647MOL0    Cl87255   3.842   8.324  10.390 -0.3989 -0.4312 -0.5132
  647MOL0     C87256   4.851   7.814  10.256  0.3782  0.5050  0.4569
  647MOL0     C87257   4.967   7.801  10.181  0.1227  0.7416  0.4584
  647MOL0     O87258   5.234   7.711  10.229 -0.5811  0.3692 -0.1209
  647MOL0     C87259   5.409   7.906   9.990 -0.5505  0.4144  0.7845
  647MOL0     C87260   5.540   7.929   9.941  0.3280  0.3931 -0.0601
  647MOL0     N87261   6.327   7.753   9.653 -0.3367  0.6934  0.2955
  647MOL0     N87262   6.447   7.722   9.700  0.1623 -0.6485  0.2976
  647MOL0     C87263   7.606   7.924   9.485 -0.3357 -0.1173  0.0636
  647MOL0     C87264   7.721   7.939   9.411 -0.8464 -0.5823 -0.8802
  647MOL0     C87265   8.133   7.990   9.218  0.0657  1.2093 -0.2463
  647MOL0     C87266   8.242   7.980   9.306  0.0501  0.1528 -0.3432
  647MOL0     C87267   8.377   7.982   9.266  0.6737  0.7490 -0.2532
  647MOL0     C87268   8.410   8.013   9.137  0.1612  0.1490  1.2607
  647MOL0     O87269   8.537   8.031   9.082  0.3895  0.5349 -0.0537
  647MOL0     C87270   8.662   7.987   9.135  0.0037 -0.1814 -0.4470
  647MOL0     C87271   8.780   7.999   9.037 -0.2932 -0.0765 -0.2592
  647MOL0     C87272   8.756   7.913   8.908  0.3419  0.3324  0.5350
  647MOL0     C87273   8.635   7.947   8.820 -0.0185 -1.3468 -0.2909
  647MOL0     C87274   8.649   8.082   8.762 -0.5315 -0.0650  0.3218
  647MOL0     C87275   8.682   8.188   8.714 -0.6331  0.4852  0.6050
  647MOL0     C87276   8.306   8.016   9.050  1.3467  0.0676  0.3110
  647MOL0     C87277   8.172   8.011   9.091  1.1787 -0.2355 -0.1569
  647MOL0     H87278   7.927   8.051   9.656  0.9363 -0.8851 -2.6986
  647MOL0     H87279   7.723   8.036   9.782 -3.6627  2.5809  0.7954
  647MOL0     H87280   7.541   7.988   9.868 -2.3578  3.1024  3.6928
  647MOL0     H87281   7.447   8.117   9.785  1.9850  0.8555  2.2199
  647MOL0     H87282   7.343   7.843   9.851 -0.5395  0.3197 -1.5831
  647MOL0     H87283   7.335   7.972   9.972 -2.5456 -4.9947  1.1774
  647MOL0     H87284   7.190   8.096   9.809 -1.8857  0.2370  1.6692
  647MOL0     H87285   7.196   7.957   9.693 -2.5059 -1.3075  0.2729
  647MOL0     H87286   7.080   7.822   9.847 -2.4631  0.8823 -0.9383
  647MOL0     H87287   7.108   7.934   9.980  0.5308  1.1784  0.0150
  647MOL0     H87288   6.948   8.096   9.856 -1.0650  1.6726 -1.2699
  647MOL0     H87289   6.931   7.999   9.717  0.2806 -2.1048  0.4459
  647MOL0     H87290   6.861   7.799   9.872 -0.1824  0.7962 -0.5662
  647MOL0     H87291   6.833   7.924   9.989 -0.5633 -1.2001  0.6748
  647MOL0     H87292   6.680   8.023   9.805  0.7277  0.3897 -0.7995
  647MOL0     H87293   6.717   7.898   9.703 -1.5399 -0.8828 -0.4452
  647MOL0     H87294   6.589   7.836   9.976  1.6762  2.7312  0.0719
  647MOL0     H87295   6.643   7.712   9.857  0.1532  0.8664  0.8224
  647MOL0     H87296   6.370   7.986   9.875  0.4515 -1.9459  2.6113
  647MOL0     H87297   6.155   8.041   9.765  0.4768  0.5122 -0.0871
  647MOL0     H87298   6.145   7.973   9.602 -0.6370  1.5464  1.1482
  647MOL0     H87299   6.032   7.764   9.694  0.4457 -0.7582 -0.3527
  647MOL0     H87300   5.946   7.921   9.705  2.5680  1.7272 -2.2154
  647MOL0     H87301   6.019   7.954   9.937  2.0092  1.9992 -4.8226
  647MOL0     H87302   6.087   7.791   9.943 -0.3626 -1.2805 -1.0121
  647MOL0     H87303   5.872   7.781  10.045  0.9814  0.7328  0.3168
  647MOL0     H87304   5.867   7.694   9.892  0.4787 -0.1358  1.8143
  647MOL0     H87305   5.698   7.657  10.047 -2.3671 -1.5463 -0.5108
  647MOL0     H87306   5.566   7.539  10.206 -1.2831 -2.9727 -2.0319
  647MOL0     H87307   5.455   7.645  10.302  1.4589 -1.3503  0.6447
  647MOL0     H87308   5.385   7.543  10.183 -2.5975  2.4717  2.3221
  647MOL0     H87309   5.085   8.116  10.252 -0.3877  0.1825 -1.6526
  647MOL0     H87310   4.882   8.123  10.390  0.3547  0.9991 -0.7981
  647MOL0     H87311   4.665   8.132  10.373  1.5763 -0.2148  0.9308
  647MOL0     H87312   4.597   8.012  10.259 -0.8984 -3.5003  0.9298
  647MOL0     H87313   4.455   7.925  10.426  0.6984  0.6072 -2.9070
  647MOL0     H87314   4.509   8.058  10.537  1.5225 -0.6232 -0.1050
  647MOL0     H87315   4.296   8.115  10.465  0.4029 -0.4796  0.2057
  647MOL0     H87316   4.328   8.081  10.295 -0.7199  2.7786 -0.4555
  647MOL0     H87317   4.484   8.297  10.433 -0.3713  1.8141 -1.7543
  647MOL0     H87318   4.470   8.265  10.254 -0.0467  2.8988 -0.1188
  647MOL0     H87319   4.275   8.371  10.234 -0.7476 -0.3248  0.3378
  647MOL0     H87320   4.337   8.454  10.368  1.2235 -1.1990  1.2220
  647MOL0     H87321   4.131   8.236  10.378  1.7423 -0.0623 -2.8019
  647MOL0     H87322   4.203   8.319  10.516  1.4621  2.4480 -0.2925
  647MOL0     H87323   4.048   8.438  10.274 -2.7118  1.8182  0.6998
  647MOL0     H87324   4.122   8.541  10.412 -2.4372  1.0864  1.6555
  647MOL0     H87325   3.890   8.535  10.461  0.0253  0.7176 -0.7091
  647MOL0     H87326   3.976   8.419  10.562 -0.8666 -0.2925  0.1358
  647MOL0     H87327   4.780   7.732  10.250  1.3511 -0.5009  1.9426
  647MOL0     H87328   4.992   7.713  10.123  0.6875  0.9858  0.3271
  647MOL0     H87329   5.331   7.978   9.966  2.2871  2.6164 -3.0314
  647MOL0     H87330   5.553   8.003   9.863 -2.4823  1.2122  0.1109
  647MOL0     H87331   7.515   7.893   9.436 -0.9050 -1.8228  2.0448
  647MOL0     H87332   7.726   7.908   9.308 -2.5160 -2.6207 -0.4266
  647MOL0     H87333   8.214   7.981   9.411 -0.0202  0.2370 -0.3630
  647MOL0     H87334   8.451   7.995   9.345  0.3099  1.9757 -0.0935
  647MOL0     H87335   8.682   8.049   9.222  0.8557 -2.2986  0.9591
  647MOL0     H87336   8.658   7.885   9.174  3.8642  0.1819  1.3827
  647MOL0     H87337   8.877   7.971   9.078 -0.1824  0.7965  0.1004
  647MOL0     H87338   8.797   8.104   9.013 -1.5928  0.6166  1.6653
  647MOL0     H87339   8.741   7.809   8.939 -2.0176 -1.0003 -4.1378
  647MOL0     H87340   8.844   7.919   8.843 -0.5510 -0.2365 -0.7636
  647MOL0     H87341   8.546   7.934   8.883  0.6820  0.5041  1.1832
  647MOL0     H87342   8.624   7.878   8.736 -0.2627 -2.3705  0.5547
  647MOL0     H87343   8.714   8.278   8.664  1.4965 -1.5325 -1.9751
  647MOL0     H87344   8.324   8.033   8.944  1.4496  0.6944  0.4251
  647MOL0     H87345   8.102   8.017   9.008 -0.2046  0.4274  1.0162
  648MOL0     O87346   3.364   7.745   7.544 -0.2831  0.1843  0.0959
  648MOL0     C87347   3.477   7.789   7.525  0.3528 -0.1224  0.2092
  648MOL0     O87348   3.518   7.922   7.542 -0.2408  0.2393 -0.0496
  648MOL0     C87349   3.416   8.011   7.566  0.3929  0.3797 -0.8610
  648MOL0     C87350   3.332   8.043   7.469 -0.4414 -0.7014 -0.6622
  648MOL0     C87351   3.220   8.130   7.493 -0.4160 -0.5862  0.6440
  648MOL0     C87352   3.206   8.197   7.616 -0.6014 -0.4624 -0.7619
  648MOL0     O87353   3.091   8.265   7.645 -0.3002 -0.0305  0.4322
  648MOL0     C87354   3.123   8.380   7.719  0.1881  0.0301 -0.1662
  648MOL0     C87355   3.031   8.497   7.687  0.2514 -0.2500 -0.8660
  648MOL0     C87356   2.879   8.473   7.702  0.2214  0.2294  0.1576
  648MOL0     C87357   2.807   8.612   7.696  0.7511 -0.2055 -0.2834
  648MOL0     C87358   2.650   8.593   7.705  0.2526 -0.4475  0.6959
  648MOL0     C87359   2.583   8.734   7.708 -0.3653  0.5875 -0.1573
  648MOL0     C87360   2.432   8.735   7.735  0.2785  0.5807 -0.5883
  648MOL0     C87361   2.354   8.676   7.617 -0.0720 -0.0506 -0.7285
  648MOL0     N87362   2.208   8.665   7.641  0.1706  0.0754  0.3584
  648MOL0     C87363   2.120   8.775   7.648 -0.2289 -0.2497  1.1009
  648MOL0     C87364   1.996   8.721   7.659  0.2900  0.3421 -0.8989
  648MOL0     C87365   1.859   8.794   7.681  0.5482  1.1438 -0.1277
  648MOL0     C87366   1.879   8.943   7.671  0.0680 -0.5016  0.4553
  648MOL0     C87367   1.924   8.989   7.523 -0.7136  0.6950 -0.3501
  648MOL0     C87368   1.802   9.021   7.443  0.1165 -0.0047  0.4456
  648MOL0     O87369   1.785   9.156   7.457  0.4800  0.1673 -0.0356
  648MOL0     C87370   1.658   9.193   7.416 -0.6265  0.3164  0.4056
  648MOL0     C87371   1.645   9.261   7.292  1.3683  0.8088 -0.1704
  648MOL0     C87372   1.518   9.278   7.231 -0.0854 -0.0392 -0.5786
  648MOL0     C87373   1.539   9.364   7.108 -0.3935 -0.1015  0.2536
  648MOL0     C87374   1.404   9.240   7.302  0.5243 -0.3509 -0.4887
  648MOL0     C87375   1.271   9.251   7.244 -0.4676  0.5481  0.5784
  648MOL0     O87376   1.233   9.371   7.187  0.0871  0.0868 -0.0751
  648MOL0     C87377   1.111   9.402   7.136  0.4287  0.6854  0.0895
  648MOL0     C87378   0.988   9.385   7.199 -0.1461 -0.1421  0.1089
  648MOL0     C87379   0.866   9.442   7.155  0.0451 -0.6129  0.0156
  648MOL0     C87380   0.864   9.500   7.031  0.1970  0.1872  0.6529
  648MOL0     O87381   0.742   9.560   6.992  0.5010  0.0475  0.3856
  648MOL0     C87382   0.729   9.662   6.882  0.7769 -0.1323 -0.4561
  648MOL0     C87383   0.580   9.677   6.873  0.4278 -0.1432 -0.2166
  648MOL0     C87384   0.549   9.781   6.769 -0.2244 -0.1909  0.6916
  648MOL0     C87385   0.404   9.828   6.771 -0.4781  0.4054 -0.1770
  648MOL0     C87386   0.365   9.949   6.685 -0.6063 -1.3977 -0.3373
  648MOL0     C87387   0.214   9.980   6.697 -0.6298  0.6956  0.4038
  648MOL0     C87388   0.130   9.856   6.656  0.0154  0.5177 -0.2472
  648MOL0     C87389  -0.022   9.888   6.635 -0.7149 -0.4886  0.2287
  648MOL0    Cl87390  -0.021   9.999   6.480  0.3417 -0.7800  0.3280
  648MOL0     C87391   0.987   9.528   6.970  0.8773  0.3439 -0.1794
  648MOL0     C87392   1.110   9.477   7.015  0.6405  0.2883  0.1565
  648MOL0     O87393   1.203   9.154   7.268  1.0105 -0.9229  0.1995
  648MOL0     C87394   1.427   9.184   7.432  0.9702  0.2436  0.1000
  648MOL0     C87395   1.551   9.166   7.487 -0.1928  0.5954 -0.7542
  648MOL0     N87396   2.010   8.576   7.646 -0.4658  0.2558 -0.7205
  648MOL0     N87397   2.138   8.553   7.626 -0.3964  0.0617 -0.7285
  648MOL0     C87398   3.305   8.169   7.714 -0.1997  0.3241 -0.4493
  648MOL0     C87399   3.401   8.072   7.690 -0.0988 -0.1654 -0.8012
  648MOL0     C87400   3.579   7.688   7.494 -0.1922 -0.7874 -0.4920
  648MOL0     C87401   3.701   7.729   7.443  0.5882  0.2777 -0.1483
  648MOL0     C87402   3.801   7.637   7.408 -0.1963  0.1012  0.5183
  648MOL0     C87403   3.790   7.506   7.444  0.1471 -0.0306  0.3296
  648MOL0     O87404   3.891   7.425   7.408 -0.8013 -0.3338  0.5856
  648MOL0     C87405   3.855   7.296   7.351 -0.5371 -0.4689 -0.1841
  648MOL0     C87406   3.984   7.211   7.324  0.7500  0.7934  0.1257
  648MOL0     C87407   4.103   7.285   7.253 -0.4784 -0.2565  0.1349
  648MOL0     C87408   4.175   7.365   7.351 -0.1267  0.3673  0.1883
  648MOL0     C87409   4.312   7.394   7.295  0.0871 -0.2399 -1.1096
  648MOL0     C87410   4.429   7.409   7.257  0.3443  0.5253 -0.4961
  648MOL0     C87411   3.678   7.469   7.505  0.8019  0.5305  0.1178
  648MOL0     C87412   3.563   7.550   7.522  0.1928 -0.6819  0.5650
  648MOL0     H87413   3.332   7.989   7.375  0.9271  0.5518 -1.4162
  648MOL0     H87414   3.150   8.152   7.413  0.5702  0.5835  0.0839
  648MOL0     H87415   3.105   8.345   7.821 -3.3630  2.0741  0.0721
  648MOL0     H87416   3.221   8.423   7.697 -1.2218  3.0597 -0.9112
  648MOL0     H87417   3.046   8.581   7.755  2.4157 -0.5134 -0.9439
  648MOL0     H87418   3.068   8.543   7.595  2.4207  0.1560  0.1650
  648MOL0     H87419   2.837   8.409   7.625  1.4501  0.0484 -0.3756
  648MOL0     H87420   2.848   8.432   7.799 -3.7418  1.9194 -0.1826
  648MOL0     H87421   2.836   8.666   7.787  2.2037 -2.1974  0.5000
  648MOL0     H87422   2.837   8.662   7.604 -0.4573  0.3148 -0.4132
  648MOL0     H87423   2.621   8.538   7.614 -0.2372  0.1703  0.4701
  648MOL0     H87424   2.618   8.538   7.794 -2.9966  2.4131  1.5047
  648MOL0     H87425   2.632   8.795   7.784  0.4231 -0.3904  0.1315
  648MOL0     H87426   2.593   8.798   7.619 -2.0834  3.1717  1.3735
  648MOL0     H87427   2.417   8.681   7.830  2.6252  1.9634  0.6621
  648MOL0     H87428   2.393   8.835   7.751  1.4620  0.8543  0.9093
  648MOL0     H87429   2.392   8.576   7.598  0.7014 -0.0079  0.4293
  648MOL0     H87430   2.366   8.735   7.526 -2.1175 -1.9506 -2.3236
  648MOL0     H87431   2.142   8.880   7.663 -0.5591  0.1120 -0.7453
  648MOL0     H87432   1.792   8.765   7.600 -0.0162  0.8093  0.4508
  648MOL0     H87433   1.818   8.764   7.777  1.4618  2.2618  0.6371
  648MOL0     H87434   1.959   8.974   7.739 -0.1643 -0.2759  0.6242
  648MOL0     H87435   1.798   9.004   7.711 -2.0695 -1.6179 -1.9010
  648MOL0     H87436   1.979   8.917   7.462 -0.7852  0.9027 -0.6582
  648MOL0     H87437   1.986   9.078   7.534  0.8983 -0.2858 -0.9993
  648MOL0     H87438   1.722   8.957   7.484 -0.1082 -0.6719 -0.9524
  648MOL0     H87439   1.810   8.995   7.337 -4.6012 -1.6092  0.2186
  648MOL0     H87440   1.745   9.284   7.256  0.8739  4.3148  0.3420
  648MOL0     H87441   1.467   9.446   7.096  1.1180  1.1741 -0.4901
  648MOL0     H87442   1.639   9.407   7.106 -0.6764  0.5785 -2.2022
  648MOL0     H87443   1.530   9.301   7.019  1.4951 -1.2805  0.8264
  648MOL0     H87444   0.990   9.326   7.290  1.0287  1.4437  1.1620
  648MOL0     H87445   0.772   9.405   7.195  0.3895 -0.7157  0.7423
  648MOL0     H87446   0.777   9.754   6.918  0.7029  0.1180 -0.9991
  648MOL0     H87447   0.773   9.621   6.791  1.1404 -2.8291  0.8427
  648MOL0     H87448   0.530   9.584   6.845 -1.0300  0.4072  0.4614
  648MOL0     H87449   0.547   9.710   6.972  2.0007  0.2050  0.2316
  648MOL0     H87450   0.568   9.741   6.669 -0.5340  1.8471 -0.2287
  648MOL0     H87451   0.615   9.867   6.782 -1.0636  0.3028  1.8848
  648MOL0     H87452   0.338   9.748   6.737 -1.4395  0.6983  0.9186
  648MOL0     H87453   0.378   9.849   6.875  4.2981 -2.8154  2.0580
  648MOL0     H87454   0.392   9.931   6.581  0.2260 -1.1991 -0.1636
  648MOL0     H87455   0.424  10.035   6.716  1.4576 -2.9652  0.3031
  648MOL0     H87456   0.187  10.008   6.800 -0.9144 -0.5740  0.6981
  648MOL0     H87457   0.192  10.060   6.627 -1.8387 -0.2700 -0.3561
  648MOL0     H87458   0.121   9.780   6.734 -1.1520  0.1172 -0.7613
  648MOL0     H87459   0.168   9.810   6.564  2.0746  0.8620  0.3780
  648MOL0     H87460  -0.052   9.947   6.722  1.6185  1.6339 -0.2808
  648MOL0     H87461  -0.081   9.800   6.608 -2.1225  1.2181 -2.7196
  648MOL0     H87462   0.985   9.586   6.878 -2.9092 -0.2997 -0.6873
  648MOL0     H87463   1.196   9.489   6.950  0.8308 -1.0562  0.1374
  648MOL0     H87464   1.345   9.136   7.485  2.0778 -0.2020  1.4355
  648MOL0     H87465   1.552   9.115   7.582 -0.5459  1.7370 -0.1087
  648MOL0     H87466   3.296   8.213   7.813 -0.6153 -0.4351 -0.1344
  648MOL0     H87467   3.467   8.048   7.773 -2.2749  0.4742  1.2007
  648MOL0     H87468   3.711   7.833   7.413 -0.4053  0.6275  0.6522
  648MOL0     H87469   3.890   7.671   7.355  0.7328 -1.2480  1.1316
  648MOL0     H87470   3.784   7.238   7.411 -4.1924  1.1842 -2.5678
  648MOL0     H87471   3.799   7.312   7.258 -1.4835  1.5275  0.6493
  648MOL0     H87472   3.952   7.127   7.263 -0.5216  1.3102  0.0327
  648MOL0     H87473   4.006   7.173   7.424  2.4473 -0.2768 -0.6238
  648MOL0     H87474   4.069   7.350   7.173 -1.9572  0.2457  1.1241
  648MOL0     H87475   4.163   7.202   7.214  0.7598 -0.5411  2.4280
  648MOL0     H87476   4.176   7.305   7.443  0.1477  0.1857  0.0695
  648MOL0     H87477   4.119   7.458   7.365  0.3745  0.6190  0.5693
  648MOL0     H87478   4.530   7.429   7.228  0.4315  0.2928 -0.3570
  648MOL0     H87479   3.675   7.369   7.547 -1.0484  0.1726 -0.7680
  648MOL0     H87480   3.472   7.523   7.574  0.6770 -0.0599  1.7976
  649MOL0     O87481   3.469   9.883   9.327 -0.4953  0.2162 -0.7985
  649MOL0     C87482   3.467   9.806   9.228 -0.2061 -0.5873 -0.2831
  649MOL0     O87483   3.360   9.723   9.198  0.2514  0.0505 -0.0247
  649MOL0     C87484   3.246   9.746   9.266  1.0367 -1.0753 -0.0168
  649MOL0     C87485   3.239   9.705   9.403 -0.4894  0.2118 -0.0603
  649MOL0     C87486   3.113   9.682   9.466 -0.0382 -0.4951 -0.5491
  649MOL0     C87487   2.995   9.701   9.394  0.5059  0.0376 -0.7913
  649MOL0     O87488   2.868   9.675   9.454 -0.2869 -0.1507 -0.1424
  649MOL0     C87489   2.834   9.551   9.518 -0.6538  0.5917 -0.3266
  649MOL0     C87490   2.721   9.598   9.616 -0.1021 -0.6220 -0.2260
  649MOL0     C87491   2.698   9.492   9.718  0.4644 -1.0152 -0.6834
  649MOL0     C87492   2.648   9.560   9.848 -0.6672  0.1262  1.6602
  649MOL0     C87493   2.612   9.466   9.951 -0.5509 -0.2049  0.5490
  649MOL0     C87494   2.737   9.423  10.036  0.4617 -0.1637  0.0119
  649MOL0     C87495   2.682   9.312  10.125 -0.0251  0.5632  0.1567
  649MOL0     C87496   2.797   9.237  10.202 -0.1551  0.9153  0.3388
  649MOL0     N87497   2.748   9.148  10.301  0.2877 -0.1218  0.4074
  649MOL0     C87498   2.684   9.029  10.280  0.1847  0.9658  0.5594
  649MOL0     C87499   2.654   8.973  10.401 -0.5371 -0.6559  0.0373
  649MOL0     C87500   2.588   8.840  10.432  0.0452  0.0574  0.3533
  649MOL0     C87501   2.443   8.851  10.409  0.3433  0.0903  0.3127
  649MOL0     C87502   2.376   8.712  10.422 -0.1811 -0.1163 -0.0344
  649MOL0     C87503   2.225   8.705  10.395  0.1058 -0.0983 -0.2535
  649MOL0     O87504   2.154   8.817  10.459 -0.0414 -0.1159  0.2114
  649MOL0     C87505   2.018   8.849  10.447  0.4276 -0.2397 -0.3510
  649MOL0     C87506   1.963   8.951  10.530 -0.4087 -0.2793  0.3812
  649MOL0     C87507   1.828   8.965  10.552  0.1848  0.8544 -0.7069
  649MOL0     C87508   1.794   9.057  10.669  0.3973  0.2060 -0.0740
  649MOL0     C87509   1.738   8.903  10.470 -0.5383  0.1586 -0.2112
  649MOL0     C87510   1.596   8.926  10.475  0.4574 -0.1251 -1.7640
  649MOL0     O87511   1.522   8.810  10.488  0.1601  0.0741  0.8405
  649MOL0     C87512   1.388   8.799  10.482 -0.1380  0.2725 -0.0372
  649MOL0     C87513   1.305   8.869  10.393  0.6469 -0.6650  0.0429
  649MOL0     C87514   1.168   8.848  10.385  0.2853 -0.6513 -0.2289
  649MOL0     C87515   1.103   8.765  10.477  0.3680 -0.6098 -0.2876
  649MOL0     O87516   0.964   8.753  10.493  0.3845  0.1992 -0.2131
  649MOL0     C87517   0.894   8.844  10.586 -0.0735 -0.1291  0.9513
  649MOL0     C87518   0.905   8.782  10.728  0.0472 -0.3260 -0.5353
  649MOL0     C87519   0.780   8.787  10.813  0.2283 -0.0695  0.9861
  649MOL0     C87520   0.800   8.785  10.964 -0.2907 -0.9140 -0.4076
  649MOL0     C87521   0.678   8.738  11.034 -0.2306 -0.3455 -0.2739
  649MOL0     C87522   0.717   8.703  11.179 -0.3173  0.3360  0.7499
  649MOL0     C87523   0.774   8.557  11.195  0.2462 -0.1510  0.3281
  649MOL0     C87524   0.842   8.544  11.325 -0.4053 -0.6290  0.5178
  649MOL0    Cl87525   0.998   8.629  11.309  0.3557 -0.2348  0.2590
  649MOL0     C87526   1.186   8.703  10.574 -0.7811  0.1673 -0.0394
  649MOL0     C87527   1.325   8.719  10.576  0.2089  0.8017 -0.2227
  649MOL0     O87528   1.559   9.039  10.464  0.5044 -0.2183 -0.2318
  649MOL0     C87529   1.788   8.805  10.380 -0.0372 -0.1740 -0.6075
  649MOL0     C87530   1.931   8.773  10.370 -0.2481 -0.0371 -0.3222
  649MOL0     N87531   2.690   9.067  10.497  0.2806 -0.2483 -0.2108
  649MOL0     N87532   2.746   9.165  10.439 -0.2296  0.7899 -0.2164
  649MOL0     C87533   2.999   9.741   9.263  0.1330 -0.7541  0.1231
  649MOL0     C87534   3.124   9.759   9.195 -0.5855  0.7120  0.5359
  649MOL0     C87535   3.588   9.780   9.151  0.5074 -0.4488  0.1432
  649MOL0     C87536   3.581   9.697   9.038 -0.1755  0.5478  0.2308
  649MOL0     C87537   3.698   9.666   8.960  0.7620  0.4954  0.4304
  649MOL0     C87538   3.825   9.709   8.992 -0.4787 -0.2145  0.3676
  649MOL0     O87539   3.948   9.698   8.924 -0.3062 -0.2127  0.1436
  649MOL0     C87540   3.965   9.588   8.835 -0.3345  0.3954 -1.1485
  649MOL0     C87541   3.973   9.458   8.918 -0.7435 -0.8934 -0.1146
  649MOL0     C87542   4.023   9.336   8.842 -0.3911 -0.2859 -0.2133
  649MOL0     C87543   4.059   9.214   8.933 -1.0073  0.6391 -0.4254
  649MOL0     C87544   4.176   9.239   9.022 -0.2339  0.5969  0.1660
  649MOL0     C87545   4.258   9.259   9.108 -0.6023  0.3115  0.2483
  649MOL0     C87546   3.826   9.797   9.107 -0.1901 -0.8900  0.5420
  649MOL0     C87547   3.720   9.831   9.186  0.2811  0.1094 -0.5016
  649MOL0     H87548   3.327   9.707   9.465 -0.0925 -0.3277 -0.5921
  649MOL0     H87549   3.104   9.660   9.572  2.6582  1.5981  0.2465
  649MOL0     H87550   2.789   9.486   9.443 -2.4558  0.4404  0.8177
  649MOL0     H87551   2.920   9.500   9.562  0.0061  0.8691 -1.2753
  649MOL0     H87552   2.755   9.694   9.655  3.0796 -1.4184 -0.7362
  649MOL0     H87553   2.629   9.621   9.560 -0.9517  2.5023  2.1794
  649MOL0     H87554   2.615   9.435   9.675 -0.9518  0.9137 -0.6265
  649MOL0     H87555   2.782   9.425   9.739  2.4621  1.3228 -0.7677
  649MOL0     H87556   2.727   9.626   9.887 -0.1871  0.1296  0.7013
  649MOL0     H87557   2.563   9.622   9.819  1.1534  0.7529 -3.2434
  649MOL0     H87558   2.538   9.512  10.016 -0.7765 -0.6847  0.6391
  649MOL0     H87559   2.571   9.376   9.904  1.7467 -0.0520 -2.0099
  649MOL0     H87560   2.819   9.392   9.970 -0.0251  1.2227 -1.2897
  649MOL0     H87561   2.764   9.504  10.105 -1.4169 -0.3030  0.9814
  649MOL0     H87562   2.609   9.349  10.198 -1.4025  0.1533 -0.9764
  649MOL0     H87563   2.645   9.234  10.058 -0.7551  0.3190  0.8320
  649MOL0     H87564   2.854   9.313  10.257 -2.0546  2.7948 -0.1480
  649MOL0     H87565   2.852   9.178  10.128  0.3177  0.7262  0.8371
  649MOL0     H87566   2.677   8.986  10.181 -0.8104  2.0449  0.1423
  649MOL0     H87567   2.626   8.755  10.374 -3.0238 -2.1011  1.2226
  649MOL0     H87568   2.607   8.813  10.536  0.3552 -0.7927  0.0826
  649MOL0     H87569   2.431   8.886  10.306 -1.0748 -1.5116 -0.1097
  649MOL0     H87570   2.396   8.906  10.490 -1.3302 -2.3969  1.1674
  649MOL0     H87571   2.402   8.684  10.524  0.7286 -2.1270 -0.7459
  649MOL0     H87572   2.428   8.647  10.350  2.8914 -1.4214  3.0818
  649MOL0     H87573   2.176   8.612  10.426 -0.0854 -0.0762 -0.4777
  649MOL0     H87574   2.195   8.702  10.289 -0.4798 -0.0462 -0.0954
  649MOL0     H87575   2.035   9.005  10.591 -0.3009  0.9293 -0.7785
  649MOL0     H87576   1.799   8.995  10.760  2.2422 -2.9470 -2.1349
  649MOL0     H87577   1.868   9.134  10.694 -1.2398  1.6985  0.4027
  649MOL0     H87578   1.689   9.089  10.668  0.3128 -0.0727 -0.1430
  649MOL0     H87579   1.353   8.948  10.336 -1.6538  0.7366 -0.0961
  649MOL0     H87580   1.107   8.896  10.309  2.5549  0.9502 -1.1601
  649MOL0     H87581   0.934   8.945  10.590  0.7557 -0.4194  0.3542
  649MOL0     H87582   0.789   8.859  10.560  0.1699  1.4366  0.7951
  649MOL0     H87583   0.936   8.678  10.715  0.2614 -0.0362 -2.7465
  649MOL0     H87584   0.988   8.835  10.777 -1.2103  2.3892 -1.1696
  649MOL0     H87585   0.723   8.698  10.782 -0.9508  1.1695 -0.6087
  649MOL0     H87586   0.710   8.869  10.793  0.5494  0.3817  1.6678
  649MOL0     H87587   0.883   8.717  10.983  0.6563  0.2283 -0.3568
  649MOL0     H87588   0.826   8.883  11.006 -2.9717 -0.2966 -0.0313
  649MOL0     H87589   0.634   8.650  10.987 -0.3690 -0.9797  1.0138
  649MOL0     H87590   0.605   8.819  11.032 -1.7909 -1.6759  0.5349
  649MOL0     H87591   0.791   8.770  11.226 -0.4034  0.1712  1.1281
  649MOL0     H87592   0.629   8.723  11.241 -0.8109  1.1821 -0.2016
  649MOL0     H87593   0.847   8.545  11.115  2.3968 -0.0411  2.1846
  649MOL0     H87594   0.693   8.483  11.192 -1.4184  1.5701  0.6418
  649MOL0     H87595   0.862   8.439  11.347  2.6519  0.2110  2.4017
  649MOL0     H87596   0.785   8.597  11.402  1.2825  1.5224  0.3923
  649MOL0     H87597   1.131   8.631  10.634 -0.9831 -0.5221 -1.0252
  649MOL0     H87598   1.380   8.661  10.650 -0.8267  2.1193  1.6586
  649MOL0     H87599   1.729   8.742  10.314  1.3385 -0.2806 -1.7911
  649MOL0     H87600   1.963   8.685  10.314 -1.3564 -0.4891 -0.2913
  649MOL0     H87601   2.912   9.734   9.198  0.8975 -2.5580 -0.7895
  649MOL0     H87602   3.132   9.780   9.089 -0.6655 -0.4755  0.2751
  649MOL0     H87603   3.485   9.652   9.016  0.9906 -2.4918  0.8852
  649MOL0     H87604   3.676   9.606   8.872 -2.6264 -1.1083  2.1316
  649MOL0     H87605   3.884   9.585   8.762 -2.5660 -1.9671  1.2034
  649MOL0     H87606   4.052   9.610   8.773 -1.6043  1.7534 -2.5247
  649MOL0     H87607   3.874   9.439   8.961 -0.0866 -2.0498  0.9763
  649MOL0     H87608   4.041   9.482   9.000 -1.3999 -1.0374  0.4884
  649MOL0     H87609   4.106   9.374   8.782 -1.3187 -0.5781 -1.7407
  649MOL0     H87610   3.948   9.299   8.771  1.6720 -2.1878 -1.5196
  649MOL0     H87611   4.094   9.132   8.869 -3.4788 -0.8506 -0.0024
  649MOL0     H87612   3.969   9.170   8.978 -0.3637 -0.9327 -0.6038
  649MOL0     H87613   4.341   9.265   9.176  0.5696  0.8838 -1.1727
  649MOL0     H87614   3.925   9.834   9.132  0.2349 -1.1579 -0.6672
  649MOL0     H87615   3.736   9.902   9.267  1.7650 -0.6167 -0.1212
  650MOL0     O87616   3.019   3.526   2.121  0.5388 -1.0219 -0.7555
  650MOL0     C87617   3.100   3.555   2.038  0.8658 -0.1505  0.4006
  650MOL0     O87618   3.076   3.592   1.913 -0.2085  0.4204 -0.6301
  650MOL0     C87619   2.957   3.570   1.856 -0.0120  0.2804  0.5484
  650MOL0     C87620   2.834   3.538   1.907  0.2256  0.0653  0.2511
  650MOL0     C87621   2.711   3.563   1.841  0.2241  0.9402  0.0961
  650MOL0     C87622   2.719   3.629   1.722  0.7858 -0.5244  0.3321
  650MOL0     O87623   2.611   3.673   1.640  0.2754  0.1637 -0.0323
  650MOL0     C87624   2.482   3.642   1.685 -0.3406  0.1517 -0.0498
  650MOL0     C87625   2.395   3.687   1.577 -0.6900  0.7498 -0.0575
  650MOL0     C87626   2.242   3.653   1.614  0.4274  0.5557 -1.0626
  650MOL0     C87627   2.183   3.753   1.712  0.0659 -0.0844 -0.5910
  650MOL0     C87628   2.049   3.710   1.764  0.2189  0.0890 -0.3563
  650MOL0     C87629   1.977   3.831   1.821  0.3133  0.3422  0.3212
  650MOL0     C87630   1.838   3.797   1.867 -0.2471 -0.3712  0.1945
  650MOL0     C87631   1.740   3.915   1.856 -0.7017  0.0457 -0.3479
  650MOL0     N87632   1.605   3.862   1.862  0.4651 -1.3238 -0.5754
  650MOL0     C87633   1.531   3.809   1.761 -0.2503 -0.1000  0.3338
  650MOL0     C87634   1.415   3.758   1.816 -0.0928 -0.9712  0.0706
  650MOL0     C87635   1.303   3.676   1.750 -0.5965  0.2842 -0.9747
  650MOL0     C87636   1.352   3.596   1.636  0.4705  0.5778  0.3368
  650MOL0     C87637   1.304   3.447   1.633 -0.7471  0.7142  0.1250
  650MOL0     C87638   1.154   3.425   1.637  0.0409 -0.3144  0.0919
  650MOL0     O87639   1.119   3.301   1.572 -0.2437 -0.6553  0.3800
  650MOL0     C87640   0.986   3.250   1.588  0.1065 -0.0593 -0.1324
  650MOL0     C87641   0.954   3.122   1.548  0.6403  0.1088  0.2409
  650MOL0     C87642   0.814   3.081   1.535 -0.0155  0.0856  0.1466
  650MOL0     C87643   0.792   2.938   1.481  0.6375 -0.0887  0.7435
  650MOL0     C87644   0.712   3.177   1.557  0.0372  0.5137 -0.0454
  650MOL0     C87645   0.565   3.158   1.530 -1.1694  0.4691  0.7473
  650MOL0     O87646   0.517   3.031   1.559 -0.0086  0.5237  0.1097
  650MOL0     C87647   0.381   3.017   1.542  0.3126  0.4398 -0.0208
  650MOL0     C87648   0.341   2.892   1.482  0.2371 -0.3531  0.3764
  650MOL0     C87649   0.198   2.862   1.473  0.0281 -0.4652 -0.5610
  650MOL0     C87650   0.106   2.957   1.522 -0.0954  0.5765 -0.7384
  650MOL0     O87651  -0.027   2.930   1.524 -0.6962 -0.2432 -0.0068
  650MOL0     C87652  -0.089   2.932   1.388 -0.7743 -0.4617  0.0019
  650MOL0     C87653  -0.166   2.804   1.361  0.2265  0.1204 -0.0962
  650MOL0     C87654  -0.263   2.775   1.479 -0.1045  0.0003  0.2946
  650MOL0     C87655  -0.377   2.684   1.435 -0.4276 -0.6642  0.0649
  650MOL0     C87656  -0.478   2.667   1.547 -1.1490 -0.4802  0.6185
  650MOL0     C87657  -0.592   2.580   1.513  0.2949  0.2491 -0.0408
  650MOL0     C87658  -0.677   2.531   1.634 -0.1676  0.6657 -0.8218
  650MOL0     C87659  -0.790   2.434   1.601  0.1420 -0.5386 -0.0009
  650MOL0    Cl87660  -0.743   2.277   1.534  0.3359  0.1999 -0.0632
  650MOL0     C87661   0.149   3.067   1.589 -1.3349 -0.4226 -0.2204
  650MOL0     C87662   0.284   3.104   1.598  0.3246 -0.0043  0.1284
  650MOL0     O87663   0.497   3.250   1.485 -0.1873 -0.1878  0.0678
  650MOL0     C87664   0.752   3.304   1.600  0.8512  0.3406 -0.0301
  650MOL0     C87665   0.888   3.334   1.622  0.1100 -0.0395  0.6755
  650MOL0     N87666   1.421   3.779   1.950 -0.6171 -0.6255  0.0018
  650MOL0     N87667   1.530   3.852   1.976  0.2050 -0.1512  0.6661
  650MOL0     C87668   2.844   3.644   1.662 -0.2265  0.0408  0.3524
  650MOL0     C87669   2.965   3.606   1.722  0.0362 -0.2899 -0.2758
  650MOL0     C87670   3.235   3.524   2.069 -0.2904  0.3789 -0.8023
  650MOL0     C87671   3.280   3.508   2.197  0.0669  0.1046 -0.2610
  650MOL0     C87672   3.411   3.486   2.230  0.0359 -0.1235 -0.1299
  650MOL0     C87673   3.510   3.482   2.137  0.7403  0.1821 -0.6088
  650MOL0     O87674   3.643   3.459   2.170  0.1809  0.1080  0.2958
  650MOL0     C87675   3.695   3.342   2.105 -0.7696 -0.2675  0.5959
  650MOL0     C87676   3.805   3.286   2.200 -0.7842  0.7571  0.3052
  650MOL0     C87677   3.860   3.170   2.122  0.1111  0.9291  0.4055
  650MOL0     C87678   4.006   3.136   2.151  0.9907 -0.6233  0.8497
  650MOL0     C87679   4.037   3.018   2.064 -0.0963 -0.3981 -0.0191
  650MOL0     C87680   4.085   2.929   1.995 -0.6121 -0.3275  0.0920
  650MOL0     C87681   3.473   3.485   2.004  0.3847 -0.3150  0.2270
  650MOL0     C87682   3.339   3.510   1.974  0.4330  0.5611 -0.3393
  650MOL0     H87683   2.832   3.493   2.006  0.2790 -1.6448 -0.4735
  650MOL0     H87684   2.622   3.542   1.899  0.0471  1.4450  0.0137
  650MOL0     H87685   2.460   3.536   1.695 -0.9166  0.2382 -0.3550
  650MOL0     H87686   2.448   3.702   1.770 -2.4779  0.1326 -0.8378
  650MOL0     H87687   2.408   3.796   1.580  1.0117  0.6150 -0.9160
  650MOL0     H87688   2.418   3.653   1.476 -1.7134 -2.3525  0.6566
  650MOL0     H87689   2.180   3.646   1.525  0.0224  2.4195 -0.9719
  650MOL0     H87690   2.240   3.559   1.670 -0.6964  1.7612  1.0815
  650MOL0     H87691   2.251   3.772   1.794  1.4324 -2.2683 -1.1222
  650MOL0     H87692   2.178   3.847   1.656  2.8688  2.0896  2.4252
  650MOL0     H87693   1.986   3.661   1.689  0.5307  0.8827 -1.1485
  650MOL0     H87694   2.071   3.639   1.845 -0.7868 -0.8330 -0.8606
  650MOL0     H87695   2.034   3.876   1.903  1.5934  2.8884 -1.8135
  650MOL0     H87696   1.950   3.898   1.739 -1.1190  0.0203  0.4868
  650MOL0     H87697   1.808   3.709   1.810  1.4606 -1.6680  1.1954
  650MOL0     H87698   1.848   3.767   1.972  0.7472 -0.6316  0.0321
  650MOL0     H87699   1.752   3.969   1.762 -1.8410 -0.1710 -0.6285
  650MOL0     H87700   1.756   3.981   1.942 -2.6709 -0.7159  0.6809
  650MOL0     H87701   1.542   3.823   1.653 -1.8307 -1.4105 -0.0325
  650MOL0     H87702   1.269   3.602   1.823 -0.2766  0.0579 -1.0490
  650MOL0     H87703   1.212   3.733   1.733 -1.4656 -0.1689  1.6470
  650MOL0     H87704   1.461   3.600   1.630  0.6582 -1.7994  1.2979
  650MOL0     H87705   1.311   3.642   1.545 -0.1418 -1.0826 -0.2776
  650MOL0     H87706   1.346   3.388   1.715 -1.1178 -1.6818 -1.3102
  650MOL0     H87707   1.342   3.406   1.538  1.8896  2.9888  0.0787
  650MOL0     H87708   1.095   3.505   1.590 -1.3844 -0.2530  1.8884
  650MOL0     H87709   1.128   3.406   1.741 -1.2261 -3.8212 -0.7422
  650MOL0     H87710   1.029   3.060   1.501  1.1524  3.1312 -3.3757
  650MOL0     H87711   0.813   2.865   1.560 -0.5143  0.7522  1.8515
  650MOL0     H87712   0.690   2.926   1.443 -0.1230  3.1295  1.4375
  650MOL0     H87713   0.863   2.917   1.400  0.5049  1.7129  0.1157
  650MOL0     H87714   0.412   2.822   1.439 -2.1830 -2.1588 -0.8922
  650MOL0     H87715   0.162   2.765   1.441  1.3993 -1.3247  0.3755
  650MOL0     H87716  -0.163   3.011   1.376 -0.9289 -0.6520 -0.3135
  650MOL0     H87717  -0.012   2.947   1.311 -1.4010  4.3979  0.0095
  650MOL0     H87718  -0.215   2.813   1.264  0.9617 -1.6645 -0.6782
  650MOL0     H87719  -0.093   2.724   1.347 -0.8872 -0.9540  0.0440
  650MOL0     H87720  -0.303   2.869   1.519 -1.2004 -1.3305  2.5031
  650MOL0     H87721  -0.219   2.719   1.562  0.1909  2.3639  1.8189
  650MOL0     H87722  -0.427   2.717   1.344 -1.8149  1.1939  1.4452
  650MOL0     H87723  -0.330   2.589   1.406 -1.4717 -0.8012 -1.2606
  650MOL0     H87724  -0.509   2.769   1.567  1.9186  0.7450 -0.2762
  650MOL0     H87725  -0.421   2.627   1.632  0.0766  0.4366  0.2558
  650MOL0     H87726  -0.660   2.635   1.446 -0.0592 -0.4465 -0.2576
  650MOL0     H87727  -0.549   2.494   1.462  1.4752 -0.6708  2.3669
  650MOL0     H87728  -0.710   2.624   1.682 -2.3273 -0.2154 -0.4559
  650MOL0     H87729  -0.612   2.472   1.699 -0.5380  2.0875  0.9159
  650MOL0     H87730  -0.859   2.489   1.536 -0.8121  2.1526  3.0185
  650MOL0     H87731  -0.845   2.412   1.693  0.6641  1.0049  0.7095
  650MOL0     H87732   0.078   3.139   1.628  0.1532 -0.0201  1.9220
  650MOL0     H87733   0.304   3.195   1.654  2.1370 -1.3656  1.8267
  650MOL0     H87734   0.675   3.380   1.605 -0.0463 -0.2998 -2.4746
  650MOL0     H87735   0.909   3.436   1.650 -2.0855  0.6417  0.0275
  650MOL0     H87736   2.832   3.695   1.567  1.6274  2.0755  1.1451
  650MOL0     H87737   3.061   3.607   1.672  2.1229 -2.0160  3.2357
  650MOL0     H87738   3.210   3.515   2.280  0.8889  1.4266  0.3489
  650MOL0     H87739   3.446   3.476   2.332 -0.9345 -0.4659  0.1771
  650MOL0     H87740   3.613   3.269   2.108 -1.2105  0.1794 -0.1596
  650MOL0     H87741   3.735   3.358   2.005  2.3882  1.7034  2.0250
  650MOL0     H87742   3.764   3.244   2.292 -0.5452 -1.1863 -0.4168
  650MOL0     H87743   3.890   3.351   2.225  2.1725 -2.2975 -1.0426
  650MOL0     H87744   3.875   3.211   2.022  0.9726  0.4497  0.3333
  650MOL0     H87745   3.791   3.086   2.112  1.3232  0.1158 -1.7441
  650MOL0     H87746   4.022   3.128   2.259  1.4202  6.0306  1.6791
  650MOL0     H87747   4.065   3.222   2.116 -0.7707 -0.7047 -2.7225
  650MOL0     H87748   4.124   2.840   1.949 -0.9616 -0.7713  0.6338
  650MOL0     H87749   3.540   3.469   1.921 -0.0994 -1.5632  0.0613
  650MOL0     H87750   3.310   3.508   1.869 -1.2117  0.4628  0.0884
  651MOL0     O87751   6.806   4.611   5.099  0.0990  0.3687  0.2203
  651MOL0     C87752   6.882   4.518   5.137  0.3475  1.0226 -0.0808
  651MOL0     O87753   6.952   4.432   5.057  0.2947 -0.5694  0.4877
  651MOL0     C87754   6.896   4.418   4.933 -0.6691  0.2747  0.8318
  651MOL0     C87755   6.832   4.296   4.900  0.0275  0.3137  0.4190
  651MOL0     C87756   6.788   4.292   4.768 -0.5352  0.9070 -0.0037
  651MOL0     C87757   6.798   4.395   4.670 -0.0923 -0.7459 -0.0664
  651MOL0     O87758   6.749   4.375   4.547 -0.0651  1.1450  0.7151
  651MOL0     C87759   6.689   4.483   4.468 -0.3260  0.3264  0.1460
  651MOL0     C87760   6.739   4.447   4.320  0.4646  0.3051 -0.9004
  651MOL0     C87761   6.621   4.435   4.220 -0.1281  0.1414  0.2188
  651MOL0     C87762   6.684   4.384   4.087 -0.1276 -0.9611 -0.6178
  651MOL0     C87763   6.754   4.495   4.009 -0.0013 -0.0393 -0.3190
  651MOL0     C87764   6.812   4.449   3.881 -0.4076 -0.2283 -0.1369
  651MOL0     C87765   6.917   4.544   3.819 -0.2249 -0.1236  0.8094
  651MOL0     C87766   6.979   4.484   3.701 -0.4110 -0.3974 -0.2272
  651MOL0     N87767   6.902   4.467   3.575  0.2586 -0.1022 -0.3369
  651MOL0     C87768   6.822   4.562   3.528 -0.8857 -0.8307 -0.3973
  651MOL0     C87769   6.769   4.508   3.410  0.6593  0.3674 -0.2168
  651MOL0     C87770   6.665   4.584   3.326  0.0338  0.4941  0.6125
  651MOL0     C87771   6.726   4.669   3.215  0.3695 -0.6165 -0.1295
  651MOL0     C87772   6.763   4.816   3.263  0.3786 -0.3995 -0.0969
  651MOL0     C87773   6.648   4.904   3.307  0.4052 -0.8111 -0.4402
  651MOL0     O87774   6.565   4.926   3.193 -0.7929 -0.6264 -0.7535
  651MOL0     C87775   6.430   4.945   3.224  0.1705 -0.2176 -0.2935
  651MOL0     C87776   6.350   4.922   3.117 -0.7567  0.1195  0.1298
  651MOL0     C87777   6.213   4.955   3.131 -0.2158 -1.2775 -0.6163
  651MOL0     C87778   6.133   4.956   3.011  0.0340  0.0603  0.4144
  651MOL0     C87779   6.148   4.989   3.252 -0.1559 -0.8590 -0.4630
  651MOL0     C87780   6.005   5.040   3.271 -0.3749  0.7967 -0.6144
  651MOL0     O87781   5.981   5.097   3.395  0.1003 -0.3205  0.5268
  651MOL0     C87782   5.852   5.121   3.447 -0.2081 -0.2886 -0.4034
  651MOL0     C87783   5.791   5.006   3.511 -0.8754 -0.3674  0.4297
  651MOL0     C87784   5.666   5.028   3.568  0.0301  0.0747  0.5937
  651MOL0     C87785   5.592   5.147   3.543 -0.4189  0.0935  0.0937
  651MOL0     O87786   5.465   5.174   3.588  0.3335  0.5575  0.1591
  651MOL0     C87787   5.460   5.284   3.680  0.1978 -0.3600 -0.5023
  651MOL0     C87788   5.322   5.331   3.701  0.4873 -0.0060 -0.2309
  651MOL0     C87789   5.214   5.217   3.723 -1.1285 -0.6474 -0.0145
  651MOL0     C87790   5.090   5.275   3.784  0.3504  0.5551 -0.4279
  651MOL0     C87791   4.977   5.171   3.796  0.0564  0.5267  0.2490
  651MOL0     C87792   4.852   5.235   3.845 -0.6584 -0.3584 -0.5247
  651MOL0     C87793   4.857   5.316   3.975  0.1174 -0.1779  0.0224
  651MOL0     C87794   4.719   5.380   4.013  0.7708  1.0787 -0.1742
  651MOL0    Cl87795   4.597   5.257   4.052 -0.4991  0.1206 -0.2215
  651MOL0     C87796   5.652   5.246   3.463  0.5545 -0.5255 -0.7161
  651MOL0     C87797   5.783   5.230   3.415  0.8215 -0.3546  0.2502
  651MOL0     O87798   5.923   5.023   3.183 -0.0489 -0.1321  0.6457
  651MOL0     C87799   6.234   5.001   3.368  0.7526  0.8239  0.3024
  651MOL0     C87800   6.377   4.993   3.355  0.3827  0.9650  0.8733
  651MOL0     N87801   6.809   4.372   3.407 -0.6756 -0.3968 -0.4393
  651MOL0     N87802   6.884   4.348   3.510 -0.5235  0.5340  0.1709
  651MOL0     C87803   6.873   4.505   4.708  0.1184  0.2888  0.0376
  651MOL0     C87804   6.919   4.517   4.833  0.2861 -0.3610 -0.3162
  651MOL0     C87805   6.933   4.527   5.280  0.2799  0.0094  0.4659
  651MOL0     C87806   6.869   4.625   5.366  0.3144 -0.2345 -0.5136
  651MOL0     C87807   6.914   4.642   5.497 -0.6652 -0.0555  0.5911
  651MOL0     C87808   7.031   4.573   5.538 -0.0976  0.2047  1.4176
  651MOL0     O87809   7.064   4.584   5.669  0.2309  0.1184  0.2973
  651MOL0     C87810   7.127   4.467   5.724 -0.4172  0.6175  0.7278
  651MOL0     C87811   7.099   4.480   5.876 -0.0316  0.4348 -0.8628
  651MOL0     C87812   7.088   4.338   5.932 -1.1122  0.2102 -0.7222
  651MOL0     C87813   7.124   4.357   6.082  0.1592  0.1366 -0.1647
  651MOL0     C87814   7.083   4.231   6.157 -0.9184 -0.0225 -0.1587
  651MOL0     C87815   7.039   4.126   6.202 -0.1834  0.7193  0.1612
  651MOL0     C87816   7.112   4.499   5.448  0.1664  0.7351 -0.7124
  651MOL0     C87817   7.054   4.469   5.315 -0.1552 -1.5195 -0.7958
  651MOL0     H87818   6.832   4.219   4.977 -0.7798  0.1569  0.2741
  651MOL0     H87819   6.740   4.195   4.757  0.3102  0.0389  2.8869
  651MOL0     H87820   6.580   4.486   4.477 -0.2300  3.9823  1.9996
  651MOL0     H87821   6.724   4.578   4.510  1.6261 -0.8362  1.2956
  651MOL0     H87822   6.818   4.517   4.291 -0.0373  1.5831  0.7071
  651MOL0     H87823   6.792   4.351   4.318  1.6718  0.9241 -3.2553
  651MOL0     H87824   6.550   4.356   4.246 -0.5327 -0.0100 -1.2829
  651MOL0     H87825   6.560   4.525   4.211 -1.7184 -0.7939  1.1919
  651MOL0     H87826   6.741   4.293   4.112 -1.2748 -1.0192  2.1027
  651MOL0     H87827   6.603   4.344   4.025 -2.1424  1.6708  0.1815
  651MOL0     H87828   6.677   4.572   4.000 -1.4712 -1.3869  0.2837
  651MOL0     H87829   6.832   4.530   4.077  0.0310 -1.3843  0.3672
  651MOL0     H87830   6.869   4.358   3.898 -0.1032  0.1478  0.9215
  651MOL0     H87831   6.734   4.429   3.807 -0.7248  2.9310 -0.7897
  651MOL0     H87832   6.870   4.641   3.798  2.2165  1.4401  2.1340
  651MOL0     H87833   6.991   4.579   3.892  0.0182  3.4425 -0.9328
  651MOL0     H87834   7.036   4.398   3.739 -0.2125  0.6162  1.8759
  651MOL0     H87835   7.043   4.570   3.677 -3.8204  2.0136 -1.3297
  651MOL0     H87836   6.808   4.660   3.573  0.9708 -0.3554 -0.7864
  651MOL0     H87837   6.600   4.516   3.269 -0.9005 -0.5645  2.8381
  651MOL0     H87838   6.606   4.651   3.389  0.1814  2.4274 -1.2036
  651MOL0     H87839   6.658   4.681   3.130 -0.9237 -0.1675  0.9201
  651MOL0     H87840   6.816   4.622   3.174  0.0800  0.5693 -2.2595
  651MOL0     H87841   6.816   4.868   3.182  0.7868  0.7870  0.9109
  651MOL0     H87842   6.835   4.809   3.345 -1.8187  0.3876  2.0013
  651MOL0     H87843   6.694   4.998   3.337 -2.0162  1.4302 -3.2166
  651MOL0     H87844   6.593   4.859   3.390 -2.5854  0.2495 -1.7066
  651MOL0     H87845   6.400   4.902   3.023 -2.1556  3.6072 -1.5757
  651MOL0     H87846   6.180   4.911   2.923 -0.7378  2.0636 -1.1124
  651MOL0     H87847   6.047   4.891   3.025  0.2154 -0.0241  1.1524
  651MOL0     H87848   6.099   5.058   2.989  2.0520  1.0320  1.5344
  651MOL0     H87849   5.840   4.909   3.507  1.4170  0.7482  0.0080
  651MOL0     H87850   5.617   4.948   3.623 -0.5239  0.1595  0.2377
  651MOL0     H87851   5.479   5.245   3.780  2.9348  1.0455 -0.3920
  651MOL0     H87852   5.522   5.371   3.659  1.5553 -0.8220  1.3915
  651MOL0     H87853   5.319   5.401   3.785  1.2199  0.0532 -0.2483
  651MOL0     H87854   5.300   5.386   3.609 -1.1830 -0.3635 -0.0712
  651MOL0     H87855   5.252   5.148   3.798 -0.5957 -1.6469 -1.1595
  651MOL0     H87856   5.190   5.157   3.634 -1.1019 -1.1856  0.3377
  651MOL0     H87857   5.111   5.317   3.883  0.6703  0.8896 -0.6366
  651MOL0     H87858   5.057   5.358   3.722  1.8495  1.0910 -0.5361
  651MOL0     H87859   5.008   5.092   3.865  1.7553  2.3177  1.6879
  651MOL0     H87860   4.960   5.119   3.702 -0.4238  0.4272  0.3928
  651MOL0     H87861   4.804   5.287   3.761 -0.0921  2.8853  1.0089
  651MOL0     H87862   4.783   5.151   3.862 -0.8011  0.2609  2.5344
  651MOL0     H87863   4.930   5.397   3.970 -1.2018  1.3070  2.9096
  651MOL0     H87864   4.880   5.241   4.051  0.1309 -0.1590  0.0363
  651MOL0     H87865   4.678   5.434   3.928  2.2223  3.1052  0.3319
  651MOL0     H87866   4.726   5.454   4.093 -0.2195 -0.7375  1.6954
  651MOL0     H87867   5.593   5.336   3.453 -0.6288 -1.2247 -0.2036
  651MOL0     H87868   5.819   5.302   3.343  0.2356  0.5963  0.8796
  651MOL0     H87869   6.195   5.042   3.460  1.2607  0.8708  0.5028
  651MOL0     H87870   6.439   5.017   3.440  1.7926 -1.4383  0.6255
  651MOL0     H87871   6.887   4.586   4.638  0.8484  0.5976  0.5348
  651MOL0     H87872   6.981   4.602   4.860  1.4947 -0.8946 -1.2844
  651MOL0     H87873   6.779   4.677   5.336  0.5219 -0.1734 -1.0383
  651MOL0     H87874   6.857   4.696   5.572 -2.1259 -2.8083  1.6207
  651MOL0     H87875   7.079   4.378   5.682 -0.6091  2.0792 -2.4372
  651MOL0     H87876   7.234   4.463   5.698 -0.6898 -1.5969 -0.3231
  651MOL0     H87877   7.006   4.535   5.893 -0.2505 -0.0977 -0.2765
  651MOL0     H87878   7.179   4.543   5.917 -1.1359  1.0110  0.5245
  651MOL0     H87879   7.169   4.281   5.887 -0.4957  1.1311 -0.8211
  651MOL0     H87880   6.986   4.300   5.923 -2.5477  3.2727  0.9460
  651MOL0     H87881   7.076   4.445   6.127 -0.2729 -0.7444  1.1446
  651MOL0     H87882   7.234   4.357   6.081  0.1651 -0.4997  0.1837
  651MOL0     H87883   6.989   4.044   6.251 -0.1452  0.2099 -0.6335
  651MOL0     H87884   7.194   4.440   5.485  0.5739  4.5409  5.8934
  651MOL0     H87885   7.109   4.406   5.244  1.7563  1.4815 -2.1687
  652MOL0     O87886   3.069   2.519   8.505  0.6259 -0.5666 -0.3211
  652MOL0     C87887   3.125   2.521   8.392 -0.2466  0.8860  0.2061
  652MOL0     O87888   3.063   2.522   8.267  0.5418 -0.1962  0.1453
  652MOL0     C87889   2.932   2.548   8.256 -0.2263 -0.5134  1.0824
  652MOL0     C87890   2.875   2.485   8.140  0.0372  0.4695 -0.5975
  652MOL0     C87891   2.743   2.517   8.107 -0.0513 -1.2119 -0.1838
  652MOL0     C87892   2.670   2.609   8.183 -0.6161  0.2671 -0.8143
  652MOL0     O87893   2.543   2.633   8.141  0.1437  0.1105 -0.0685
  652MOL0     C87894   2.465   2.732   8.197  0.6234 -0.7607  0.5429
  652MOL0     C87895   2.334   2.762   8.123  0.8158 -0.1428 -0.7375
  652MOL0     C87896   2.236   2.645   8.113 -0.3201  0.1276 -0.1263
  652MOL0     C87897   2.092   2.701   8.079  0.1634  0.2418 -0.1364
  652MOL0     C87898   1.997   2.582   8.055 -0.8006 -0.2151 -0.1860
  652MOL0     C87899   1.852   2.619   8.063  0.6373  0.0957 -0.1127
  652MOL0     C87900   1.760   2.507   8.012 -0.9112 -0.0620  0.8437
  652MOL0     C87901   1.700   2.430   8.128  1.1553 -0.7927 -0.2929
  652MOL0     N87902   1.614   2.513   8.215  0.7127 -0.2120  0.7897
  652MOL0     C87903   1.500   2.579   8.169  0.0733 -0.1740  0.0064
  652MOL0     C87904   1.473   2.653   8.282 -0.0614  0.2655 -0.7823
  652MOL0     C87905   1.369   2.762   8.287  0.5179  0.1199 -0.0262
  652MOL0     C87906   1.239   2.710   8.212 -0.3139  0.8621  0.1078
  652MOL0     C87907   1.104   2.791   8.217 -0.7988 -1.3908  0.2106
  652MOL0     C87908   0.984   2.721   8.149 -0.3787 -0.3813  0.6879
  652MOL0     O87909   0.876   2.814   8.133 -0.1018  0.5943 -0.1692
  652MOL0     C87910   0.748   2.758   8.111  0.2304 -0.0110  0.7894
  652MOL0     C87911   0.639   2.854   8.117 -0.7273 -0.1659  0.3000
  652MOL0     C87912   0.501   2.826   8.112 -0.4454  0.1248  0.8424
  652MOL0     C87913   0.403   2.940   8.130 -0.4016  0.0913  0.6970
  652MOL0     C87914   0.470   2.685   8.086  0.7188  0.1321  0.0314
  652MOL0     C87915   0.332   2.628   8.075  0.2838 -0.2908  0.8055
  652MOL0     O87916   0.227   2.712   8.078  0.2694 -0.3526 -0.2148
  652MOL0     C87917   0.098   2.672   8.058 -0.0035 -0.2092  0.2523
  652MOL0     C87918   0.070   2.604   7.943 -0.2864 -0.6075  0.1846
  652MOL0     C87919  -0.059   2.552   7.934  0.6618 -0.2655  0.0999
  652MOL0     C87920  -0.158   2.576   8.032  1.0032  0.4909  0.9884
  652MOL0     O87921  -0.287   2.526   8.026 -0.1228  0.6542  0.1057
  652MOL0     C87922  -0.307   2.421   7.924 -0.0566 -0.0736  0.3094
  652MOL0     C87923  -0.440   2.369   7.923  0.6751  0.3808  0.3934
  652MOL0     C87924  -0.490   2.303   8.050  0.3985 -0.1331  0.3400
  652MOL0     C87925  -0.441   2.159   8.061 -0.3053 -0.1579 -0.1825
  652MOL0     C87926  -0.493   2.103   8.197 -0.3024  0.2972  0.3011
  652MOL0     C87927  -0.487   1.954   8.194 -0.1512  0.2495 -0.4895
  652MOL0     C87928  -0.607   1.885   8.123  0.0559 -0.5109 -0.0158
  652MOL0     C87929  -0.596   1.726   8.100 -0.2257 -0.1907  0.2160
  652MOL0    Cl87930  -0.621   1.634   8.262  0.2215  0.0142  0.1024
  652MOL0     C87931  -0.130   2.664   8.136  0.4157  0.2166 -0.1494
  652MOL0     C87932   0.001   2.707   8.148  0.3889  0.5215 -0.0806
  652MOL0     O87933   0.327   2.503   8.070 -0.4253 -0.2851 -0.3035
  652MOL0     C87934   0.578   2.589   8.090 -0.6263 -0.4206 -0.0073
  652MOL0     C87935   0.711   2.629   8.101 -0.0932  0.9119 -0.1495
  652MOL0     N87936   1.566   2.644   8.384 -0.1243  0.2948  0.5987
  652MOL0     N87937   1.643   2.555   8.343 -0.1817 -0.6061 -0.5769
  652MOL0     C87938   2.725   2.658   8.311  0.1619 -0.1641  0.1188
  652MOL0     C87939   2.852   2.625   8.341  0.7225  0.1557  0.5554
  652MOL0     C87940   3.260   2.471   8.384 -1.9892 -0.2455  0.2323
  652MOL0     C87941   3.330   2.407   8.495 -1.0313  0.4373  0.3423
  652MOL0     C87942   3.463   2.358   8.478  0.8111 -0.1529  0.0847
  652MOL0     C87943   3.534   2.384   8.362  0.2285 -0.1091 -0.1311
  652MOL0     O87944   3.664   2.361   8.339  0.3764  0.3261  0.2208
  652MOL0     C87945   3.720   2.259   8.417 -0.1797 -0.4078  0.4717
  652MOL0     C87946   3.861   2.243   8.364  0.0541  0.3755 -0.7083
  652MOL0     C87947   3.953   2.179   8.468 -0.0364  0.1463  0.2355
  652MOL0     C87948   4.090   2.239   8.447 -1.0926  0.5585  0.5628
  652MOL0     C87949   4.170   2.170   8.549  0.1731 -0.2607 -0.4382
  652MOL0     C87950   4.245   2.124   8.631  0.8538 -0.1451  0.1642
  652MOL0     C87951   3.469   2.456   8.269 -0.5570 -0.5890 -0.2502
  652MOL0     C87952   3.338   2.494   8.268  0.1472  0.4693 -0.4866
  652MOL0     H87953   2.930   2.411   8.083 -1.4504  0.2493 -1.8335
  652MOL0     H87954   2.697   2.468   8.021  0.3208  2.1140 -2.4651
  652MOL0     H87955   2.450   2.700   8.301 -2.2972  1.4339  0.9287
  652MOL0     H87956   2.527   2.821   8.204 -0.0655 -0.2036 -0.3094
  652MOL0     H87957   2.282   2.841   8.176 -2.5761 -3.0604  0.6791
  652MOL0     H87958   2.361   2.793   8.021 -2.9838 -2.7556 -2.7718
  652MOL0     H87959   2.275   2.571   8.042 -0.1860 -1.2702  1.3413
  652MOL0     H87960   2.225   2.597   8.211  0.5135  0.1821 -0.0031
  652MOL0     H87961   2.042   2.756   8.160 -3.5972 -0.6144 -1.6737
  652MOL0     H87962   2.097   2.761   7.988  3.5910 -0.8465 -0.8387
  652MOL0     H87963   2.029   2.531   7.964 -0.9569 -0.6283 -0.0096
  652MOL0     H87964   2.007   2.513   8.140 -2.1902  2.1201  2.0213
  652MOL0     H87965   1.835   2.639   8.169  3.3228 -3.2160  1.1338
  652MOL0     H87966   1.815   2.709   8.013 -1.8496 -1.0228 -0.4585
  652MOL0     H87967   1.679   2.555   7.956 -0.4371  2.1576  1.9534
  652MOL0     H87968   1.806   2.437   7.942 -1.0938  1.3009 -0.7143
  652MOL0     H87969   1.772   2.390   8.200 -0.7720 -1.1233  1.5698
  652MOL0     H87970   1.631   2.357   8.086 -0.1843 -0.1991  0.7753
  652MOL0     H87971   1.437   2.574   8.080  0.9884 -3.0694 -0.5816
  652MOL0     H87972   1.350   2.792   8.390  0.3311 -2.6737  0.8459
  652MOL0     H87973   1.404   2.852   8.236  0.0084  0.6950  0.6239
  652MOL0     H87974   1.218   2.606   8.238  0.6908  0.5431 -0.3283
  652MOL0     H87975   1.263   2.699   8.106  1.2011 -2.2669  0.6569
  652MOL0     H87976   1.122   2.885   8.165 -4.0435 -1.5067 -1.3490
  652MOL0     H87977   1.083   2.826   8.319  1.9155 -0.9253  0.6838
  652MOL0     H87978   0.943   2.645   8.217  0.3536  0.3007  1.9444
  652MOL0     H87979   1.009   2.681   8.051  0.1436 -4.3540  2.2538
  652MOL0     H87980   0.673   2.949   8.156  0.9533 -1.8852  3.4711
  652MOL0     H87981   0.448   3.033   8.166 -2.9091  2.0821 -0.9897
  652MOL0     H87982   0.353   2.955   8.034 -0.7785  1.3046  1.0726
  652MOL0     H87983   0.314   2.920   8.189 -0.7034  1.7569  0.8417
  652MOL0     H87984   0.138   2.579   7.862  0.6890 -0.4422  0.9338
  652MOL0     H87985  -0.072   2.488   7.847  3.4645  0.9147 -1.3214
  652MOL0     H87986  -0.288   2.471   7.829 -0.0504  1.2879  1.0042
  652MOL0     H87987  -0.227   2.347   7.933  0.2735  0.5296  3.1665
  652MOL0     H87988  -0.514   2.444   7.893  1.8473  1.0371 -1.0360
  652MOL0     H87989  -0.439   2.304   7.834 -2.0232  0.4696  0.1948
  652MOL0     H87990  -0.598   2.297   8.039  0.5872  0.1367 -2.3113
  652MOL0     H87991  -0.461   2.358   8.140  0.2302 -2.8824  2.1934
  652MOL0     H87992  -0.481   2.099   7.978  0.8889  1.5010 -2.0403
  652MOL0     H87993  -0.333   2.159   8.051 -0.1142  3.9829  0.4983
  652MOL0     H87994  -0.597   2.125   8.223  0.0364 -0.8631  2.9392
  652MOL0     H87995  -0.438   2.148   8.280 -1.7724  1.4417  0.7047
  652MOL0     H87996  -0.394   1.929   8.142 -0.4087  0.7927 -1.2270
  652MOL0     H87997  -0.476   1.929   8.299  4.0559  0.2087 -0.7809
  652MOL0     H87998  -0.609   1.935   8.026 -1.0760  0.7603  0.6190
  652MOL0     H87999  -0.698   1.914   8.176  0.7795  1.8153  0.0644
  652MOL0     H88000  -0.498   1.695   8.061 -0.3588  0.1182 -0.3900
  652MOL0     H88001  -0.669   1.691   8.027 -1.8945  1.7744  0.8552
  652MOL0     H88002  -0.214   2.677   8.204 -1.1188 -0.1505 -1.8674
  652MOL0     H88003   0.037   2.759   8.236  1.8084 -3.3517  1.8170
  652MOL0     H88004   0.568   2.483   8.071  0.7277 -0.5124 -0.3022
  652MOL0     H88005   0.786   2.550   8.099 -0.3312  0.6815 -0.1197
  652MOL0     H88006   2.674   2.731   8.373  1.3598  0.7025  0.1124
  652MOL0     H88007   2.901   2.674   8.425  1.6331 -0.9454  0.6917
  652MOL0     H88008   3.275   2.396   8.587 -2.3823  1.0044 -0.3812
  652MOL0     H88009   3.496   2.300   8.563 -1.6978 -1.3989  0.3133
  652MOL0     H88010   3.718   2.276   8.525 -3.7011 -2.9925  0.9975
  652MOL0     H88011   3.659   2.169   8.401 -0.2458 -0.4468  0.9484
  652MOL0     H88012   3.910   2.338   8.345  1.0373  0.3300  1.3699
  652MOL0     H88013   3.840   2.188   8.271 -1.9983 -2.5642  1.3107
  652MOL0     H88014   3.942   2.071   8.458 -1.8520  0.4490 -1.7239
  652MOL0     H88015   3.915   2.210   8.566  0.9053  2.4385 -0.0560
  652MOL0     H88016   4.086   2.347   8.466 -1.9733  0.5523  0.4460
  652MOL0     H88017   4.133   2.220   8.348  1.5960  1.4622  1.4688
  652MOL0     H88018   4.310   2.081   8.705 -0.7289 -0.4057  1.4679
  652MOL0     H88019   3.519   2.470   8.174 -0.5836  0.5788 -0.1103
  652MOL0     H88020   3.308   2.532   8.171 -1.2760 -0.6064 -0.5052
  653MOL0     O88021   0.452   1.767   0.757  0.2008  0.1410  0.3135
  653MOL0     C88022   0.549   1.687   0.773 -0.5258 -0.1971 -0.2206
  653MOL0     O88023   0.541   1.550   0.766  0.2559  0.5529 -0.8332
  653MOL0     C88024   0.416   1.488   0.770  0.6059 -0.4584 -0.2830
  653MOL0     C88025   0.384   1.392   0.684  0.7471  0.2740 -0.5006
  653MOL0     C88026   0.262   1.317   0.708  0.3341 -0.7395  0.0562
  653MOL0     C88027   0.180   1.341   0.820  0.2904 -0.7214 -0.5297
  653MOL0     O88028   0.059   1.291   0.829  0.6428  0.3959  0.1414
  653MOL0     C88029   0.041   1.149   0.823  0.5853 -0.0660  0.2965
  653MOL0     C88030  -0.073   1.086   0.900 -0.0141  0.4168  0.8432
  653MOL0     C88031  -0.066   0.930   0.884  0.4081  0.1069  0.6696
  653MOL0     C88032  -0.214   0.892   0.918  0.7526  0.2476 -0.0498
  653MOL0     C88033  -0.229   0.742   0.909 -0.1747  0.5287 -0.4391
  653MOL0     C88034  -0.373   0.693   0.935 -1.2832 -0.0701 -0.4933
  653MOL0     C88035  -0.484   0.730   0.832 -0.8048 -0.5185  0.4330
  653MOL0     C88036  -0.616   0.712   0.900  0.7228 -0.7343  0.4725
  653MOL0     N88037  -0.725   0.703   0.806 -0.4321  0.1023  1.2743
  653MOL0     C88038  -0.758   0.587   0.742 -0.4380 -0.2495  0.4496
  653MOL0     C88039  -0.864   0.630   0.660  0.5487 -0.9938  0.3432
  653MOL0     C88040  -0.951   0.543   0.568 -0.3594  0.4892 -0.0135
  653MOL0     C88041  -1.038   0.451   0.650  1.0361  0.3197 -0.0239
  653MOL0     C88042  -1.178   0.404   0.587 -0.0133 -0.2425 -0.3015
  653MOL0     C88043  -1.269   0.531   0.558 -0.4040  0.6327  0.3105
  653MOL0     O88044  -1.393   0.490   0.512 -0.2230 -0.5295 -0.2314
  653MOL0     C88045  -1.480   0.580   0.443  0.8054  0.4111  0.4433
  653MOL0     C88046  -1.472   0.720   0.460 -0.7038  0.6432 -0.2058
  653MOL0     C88047  -1.574   0.804   0.408  0.3538  0.0888  0.1442
  653MOL0     C88048  -1.559   0.949   0.448  0.5370  0.4566  0.6382
  653MOL0     C88049  -1.681   0.742   0.338  0.0908  0.3825 -0.6797
  653MOL0     C88050  -1.800   0.821   0.285 -0.6413  0.0399 -0.9413
  653MOL0     O88051  -1.893   0.755   0.224  0.7661  0.2516  0.4608
  653MOL0     C88052  -2.010   0.825   0.193 -0.1598 -0.5449  0.5856
  653MOL0     C88053  -2.132   0.762   0.236 -0.3823 -0.1421  0.4483
  653MOL0     C88054  -2.256   0.835   0.233 -0.0563 -0.9627 -0.2366
  653MOL0     C88055  -2.270   0.956   0.155 -0.3154  0.9015  0.7104
  653MOL0     O88056  -2.386   1.034   0.142 -0.6009 -0.1009  0.2757
  653MOL0     C88057  -2.497   0.994   0.213 -0.0840  0.3929 -0.8164
  653MOL0     C88058  -2.498   1.038   0.361 -0.2236  0.7615 -0.1840
  653MOL0     C88059  -2.504   1.194   0.361  0.5072  0.0464  0.2809
  653MOL0     C88060  -2.468   1.263   0.489  0.2220 -1.1778 -0.1476
  653MOL0     C88061  -2.418   1.406   0.481 -0.0371  0.0867  0.4557
  653MOL0     C88062  -2.396   1.470   0.616  0.9383 -0.2833 -0.1670
  653MOL0     C88063  -2.265   1.412   0.684 -0.2595 -0.2460  0.3999
  653MOL0     C88064  -2.222   1.482   0.810  0.5412 -0.3588 -0.0992
  653MOL0    Cl88065  -2.181   1.654   0.779 -0.1243  0.2529 -0.2287
  653MOL0     C88066  -2.147   1.000   0.091  0.4561  0.5381  0.0067
  653MOL0     C88067  -2.020   0.945   0.112 -0.5787 -0.1774 -0.1102
  653MOL0     O88068  -1.807   0.940   0.313 -0.3753  0.1101 -0.6986
  653MOL0     C88069  -1.685   0.601   0.318 -0.1475  0.7973  0.2200
  653MOL0     C88070  -1.589   0.521   0.375  0.2104 -0.9941  0.0965
  653MOL0     N88071  -0.891   0.762   0.694 -0.0893 -1.0840  0.0233
  653MOL0     N88072  -0.811   0.806   0.783 -0.7268  0.6631  0.4285
  653MOL0     C88073   0.217   1.441   0.913 -0.2013 -0.8862 -0.1281
  653MOL0     C88074   0.339   1.510   0.893  0.0115  0.4746 -0.1170
  653MOL0     C88075   0.684   1.743   0.806  0.1557  0.5234 -0.0308
  653MOL0     C88076   0.781   1.660   0.872  0.1024 -0.4314  0.2143
  653MOL0     C88077   0.904   1.711   0.914 -0.5521  0.2612 -0.0922
  653MOL0     C88078   0.927   1.851   0.887  0.5170 -0.2850  0.3413
  653MOL0     O88079   1.052   1.909   0.905 -0.3522 -0.0890  0.3450
  653MOL0     C88080   1.125   1.958   0.788 -0.4419  1.1766 -1.0233
  653MOL0     C88081   1.134   1.846   0.689  0.7818  0.0793  0.6213
  653MOL0     C88082   1.197   1.889   0.557  1.1915 -0.4935 -0.2160
  653MOL0     C88083   1.115   1.994   0.482  0.1998 -0.2462  0.4106
  653MOL0     C88084   1.127   1.977   0.339 -0.0982  0.6251 -0.1209
  653MOL0     C88085   1.132   1.943   0.219 -0.2525 -0.1274 -0.4318
  653MOL0     C88086   0.831   1.932   0.816 -0.3563  0.6996 -0.5978
  653MOL0     C88087   0.711   1.875   0.778  0.5209  0.2041 -0.8328
  653MOL0     H88088   0.439   1.374   0.592 -1.8455  1.4939 -2.4287
  653MOL0     H88089   0.228   1.253   0.627 -1.3630 -0.2168  0.3255
  653MOL0     H88090   0.019   1.135   0.717 -0.3125  0.1358  0.4476
  653MOL0     H88091   0.136   1.107   0.857  0.6990 -0.0414  0.0161
  653MOL0     H88092  -0.068   1.121   1.004  1.2496  3.2857 -0.1098
  653MOL0     H88093  -0.168   1.127   0.866  0.1625  1.6717  1.7783
  653MOL0     H88094  -0.049   0.903   0.779  0.5709  0.1809  0.6780
  653MOL0     H88095   0.005   0.877   0.947  0.8623 -2.3864 -1.7430
  653MOL0     H88096  -0.239   0.919   1.021  2.7928  2.2584  0.0121
  653MOL0     H88097  -0.284   0.952   0.859 -1.0922 -0.2331  1.5559
  653MOL0     H88098  -0.186   0.708   0.814  1.3377 -0.8532  0.6759
  653MOL0     H88099  -0.157   0.699   0.980  0.0271  0.4730 -0.6744
  653MOL0     H88100  -0.378   0.585   0.951  0.2638 -0.2276 -0.9205
  653MOL0     H88101  -0.401   0.732   1.033 -0.9847 -3.0626  0.8980
  653MOL0     H88102  -0.456   0.825   0.785  0.0371 -0.2187  1.4956
  653MOL0     H88103  -0.482   0.649   0.758  1.4771 -2.8282  2.7839
  653MOL0     H88104  -0.633   0.802   0.960 -1.3946 -0.3906 -0.5679
  653MOL0     H88105  -0.618   0.622   0.962 -1.4803 -1.4420 -0.5538
  653MOL0     H88106  -0.721   0.486   0.752  0.6239 -0.0859 -1.4031
  653MOL0     H88107  -1.013   0.592   0.493 -0.7656 -0.4427 -0.2881
  653MOL0     H88108  -0.882   0.490   0.501  2.9438 -1.1254  4.1766
  653MOL0     H88109  -1.069   0.505   0.740 -0.0120 -1.8248  0.9912
  653MOL0     H88110  -0.985   0.358   0.674  2.1056  0.6828 -0.8886
  653MOL0     H88111  -1.231   0.350   0.665  1.9869  0.7084  1.8259
  653MOL0     H88112  -1.163   0.336   0.502 -1.5895  0.1202 -0.9032
  653MOL0     H88113  -1.224   0.597   0.483  1.4887 -0.8821  0.0284
  653MOL0     H88114  -1.275   0.595   0.646  0.2808  1.7843 -0.4520
  653MOL0     H88115  -1.394   0.761   0.523 -0.1709 -0.9706  0.2385
  653MOL0     H88116  -1.634   0.966   0.527 -0.3830 -1.8489  0.3610
  653MOL0     H88117  -1.457   0.966   0.481  0.2810  1.0188  1.1618
  653MOL0     H88118  -1.569   1.005   0.355  0.8588  0.7053  0.7536
  653MOL0     H88119  -2.126   0.666   0.287  1.6940 -0.9228 -1.1144
  653MOL0     H88120  -2.344   0.805   0.289 -0.3334  0.1515 -0.0494
  653MOL0     H88121  -2.581   1.029   0.151 -2.1151 -1.8046  0.5251
  653MOL0     H88122  -2.522   0.888   0.217  1.1029  0.1418  0.5518
  653MOL0     H88123  -2.593   1.004   0.403  0.2969  0.7704  1.0428
  653MOL0     H88124  -2.415   0.996   0.418  0.2907 -1.8504 -2.6313
  653MOL0     H88125  -2.605   1.217   0.326  1.2003  1.9174 -0.6258
  653MOL0     H88126  -2.440   1.216   0.275 -1.4651 -2.6274 -2.0613
  653MOL0     H88127  -2.547   1.250   0.564 -2.1297  0.4662 -2.2108
  653MOL0     H88128  -2.387   1.207   0.537  1.1769  0.1804 -0.1001
  653MOL0     H88129  -2.502   1.460   0.437  0.4304  0.7096  0.3161
  653MOL0     H88130  -2.331   1.419   0.417 -0.6405 -1.8329 -0.8610
  653MOL0     H88131  -2.390   1.579   0.605 -1.9604  0.1033  1.2759
  653MOL0     H88132  -2.480   1.459   0.685 -1.2434  2.7281 -2.1282
  653MOL0     H88133  -2.179   1.414   0.616 -0.1718 -0.4388  0.5065
  653MOL0     H88134  -2.282   1.306   0.705 -0.0147  0.0153  2.0551
  653MOL0     H88135  -2.137   1.430   0.856 -0.1847 -1.5132 -0.0257
  653MOL0     H88136  -2.299   1.483   0.887  1.7467  1.5260  1.1629
  653MOL0     H88137  -2.142   1.086   0.025 -0.1726 -0.3116 -1.1873
  653MOL0     H88138  -1.938   0.990   0.057 -0.8894  1.1357  0.4549
  653MOL0     H88139  -1.765   0.564   0.255 -0.8122  1.0825  0.8936
  653MOL0     H88140  -1.587   0.414   0.354  3.4124 -0.9618 -0.2195
  653MOL0     H88141   0.156   1.455   1.002 -0.8914 -0.2280 -0.6974
  653MOL0     H88142   0.383   1.559   0.980 -1.8666  1.0402  0.5763
  653MOL0     H88143   0.768   1.554   0.893  2.3244 -0.5163  1.5048
  653MOL0     H88144   0.983   1.652   0.958 -1.4909 -1.0979 -0.1551
  653MOL0     H88145   1.077   2.046   0.743  1.7170  1.5388 -2.8108
  653MOL0     H88146   1.224   2.000   0.807 -0.0503  0.4315 -1.3762
  653MOL0     H88147   1.035   1.803   0.671  1.4096 -1.5178  0.8014
  653MOL0     H88148   1.200   1.765   0.723 -1.4172 -2.3492 -0.5694
  653MOL0     H88149   1.216   1.805   0.489  0.7106  0.1926 -1.2271
  653MOL0     H88150   1.289   1.944   0.575  1.2533 -0.0441 -1.7437
  653MOL0     H88151   1.149   2.094   0.511  2.0057 -0.5850 -0.3967
  653MOL0     H88152   1.008   1.979   0.500 -0.1184 -0.2818 -1.3177
  653MOL0     H88153   1.143   1.906   0.119 -0.0461  0.2675 -0.5564
  653MOL0     H88154   0.856   2.034   0.788 -2.2063  1.0204 -1.2147
  653MOL0     H88155   0.644   1.935   0.718  0.2134  0.5574 -0.1439
  654MOL0     O88156   0.941   8.268   1.878  0.2578  0.6858  0.3706
  654MOL0     C88157   1.058   8.229   1.876  0.9760 -0.7317 -0.3853
  654MOL0     O88158   1.107   8.116   1.931  0.4276 -0.0868 -0.5587
  654MOL0     C88159   1.015   8.042   2.006 -0.6056  0.3821 -1.0979
  654MOL0     C88160   1.030   8.036   2.144 -0.2438 -0.3300  0.0392
  654MOL0     C88161   0.944   7.964   2.218  0.3734 -0.8284 -0.3195
  654MOL0     C88162   0.836   7.907   2.160 -0.8034  0.6102  0.9221
  654MOL0     O88163   0.743   7.825   2.229 -0.2109  0.1014  0.1009
  654MOL0     C88164   0.605   7.848   2.211  0.0164 -0.1608  0.0392
  654MOL0     C88165   0.526   7.831   2.337  0.3571 -0.3816 -0.5334
  654MOL0     C88166   0.372   7.878   2.316 -0.5136 -0.5157  0.6371
  654MOL0     C88167   0.297   7.831   2.433  0.0947  0.9874 -0.5896
  654MOL0     C88168   0.156   7.884   2.433  0.2269  0.1846 -0.1170
  654MOL0     C88169   0.087   7.852   2.566 -0.5531  1.1338  0.6718
  654MOL0     C88170  -0.059   7.883   2.558 -0.4340 -0.0460 -0.4554
  654MOL0     C88171  -0.131   7.811   2.668 -0.7060  0.0090  0.3560
  654MOL0     N88172  -0.273   7.835   2.661 -0.6322  0.3847 -0.2252
  654MOL0     C88173  -0.330   7.946   2.720  0.9759  0.3303 -0.4069
  654MOL0     C88174  -0.470   7.913   2.715 -0.6632 -0.1346 -1.0505
  654MOL0     C88175  -0.579   7.992   2.768  0.9367 -0.2727  0.9254
  654MOL0     C88176  -0.606   7.992   2.921  0.7820  0.7163 -0.5600
  654MOL0     C88177  -0.697   7.879   2.962  0.2168  0.3700 -0.5965
  654MOL0     C88178  -0.844   7.892   2.915 -1.2424  0.4000 -0.4068
  654MOL0     O88179  -0.921   7.774   2.962  0.6585  0.1541  0.8573
  654MOL0     C88180  -1.051   7.758   2.914 -0.2118  0.0074 -0.7666
  654MOL0     C88181  -1.122   7.846   2.841  0.4172  0.4010  0.1269
  654MOL0     C88182  -1.258   7.817   2.817 -0.0111 -0.0309  0.2528
  654MOL0     C88183  -1.322   7.919   2.737  0.7230 -0.1202 -0.4681
  654MOL0     C88184  -1.322   7.702   2.882  0.4743  0.6325 -0.2423
  654MOL0     C88185  -1.465   7.679   2.872  0.4859 -0.5274  0.0786
  654MOL0     O88186  -1.534   7.624   2.978 -0.3955  0.3288 -0.4320
  654MOL0     C88187  -1.666   7.587   2.975  0.0043  0.2876  0.8959
  654MOL0     C88188  -1.710   7.470   3.033  0.7195 -0.7404  1.0563
  654MOL0     C88189  -1.843   7.422   3.012  0.0282  0.3271  0.0022
  654MOL0     C88190  -1.939   7.495   2.936  0.2698 -0.4753 -0.7840
  654MOL0     O88191  -2.065   7.468   2.913  0.2782  0.4529 -0.0376
  654MOL0     C88192  -2.123   7.361   2.984  1.1369 -0.3100 -0.1931
  654MOL0     C88193  -2.237   7.317   2.892  0.8890  0.0543  0.5654
  654MOL0     C88194  -2.350   7.433   2.860  0.4464  0.1022 -0.9446
  654MOL0     C88195  -2.459   7.395   2.755 -0.2488 -0.0641  0.0240
  654MOL0     C88196  -2.561   7.495   2.743  0.5663 -0.0313  0.3943
  654MOL0     C88197  -2.682   7.438   2.655  0.5811  0.3323 -0.4556
  654MOL0     C88198  -2.794   7.530   2.662  0.4407 -0.8094 -0.1942
  654MOL0     C88199  -2.909   7.486   2.570  0.1407 -0.6020  0.1256
  654MOL0    Cl88200  -2.985   7.335   2.624 -0.1339 -0.0192  0.1407
  654MOL0     C88201  -1.893   7.606   2.869  0.1085 -0.1729  0.3253
  654MOL0     C88202  -1.762   7.647   2.891  0.2275  0.0200 -0.0426
  654MOL0     O88203  -1.514   7.693   2.760 -0.1413  0.2072  0.2349
  654MOL0     C88204  -1.250   7.616   2.954 -0.1432 -0.2016  0.1285
  654MOL0     C88205  -1.116   7.651   2.985 -0.3185 -0.4191 -0.1176
  654MOL0     N88206  -0.474   7.780   2.675  0.4236 -0.1002 -0.4258
  654MOL0     N88207  -0.363   7.736   2.631 -0.5242 -0.0413 -0.3467
  654MOL0     C88208   0.826   7.906   2.017 -0.7946 -0.0187  0.1735
  654MOL0     C88209   0.917   7.966   1.937 -1.0903 -0.9930  0.1799
  654MOL0     C88210   1.147   8.303   1.780 -0.4860 -0.2385  0.1612
  654MOL0     C88211   1.103   8.377   1.663  0.1454 -0.3566  0.2317
  654MOL0     C88212   1.198   8.439   1.572  0.2992  0.0955  0.4443
  654MOL0     C88213   1.338   8.408   1.592 -0.2557 -0.2135 -0.0574
  654MOL0     O88214   1.425   8.449   1.492  0.6516  0.8093 -0.3922
  654MOL0     C88215   1.565   8.444   1.513 -0.0602  0.2456 -0.1099
  654MOL0     C88216   1.594   8.556   1.616  0.1108  0.0357  0.3542
  654MOL0     C88217   1.713   8.638   1.582 -0.5708  0.9313 -0.2954
  654MOL0     C88218   1.780   8.719   1.696  0.1518  0.3987 -0.5840
  654MOL0     C88219   1.883   8.795   1.634  0.6179 -0.4818 -0.2841
  654MOL0     C88220   1.980   8.843   1.579  0.4879  0.1352  0.2350
  654MOL0     C88221   1.376   8.332   1.700 -0.2225 -0.5574  0.5157
  654MOL0     C88222   1.284   8.281   1.789 -0.1540  0.4030  0.1597
  654MOL0     H88223   1.122   8.077   2.185 -1.0835  0.6526  1.0083
  654MOL0     H88224   0.973   7.958   2.323 -2.4265  2.6100  0.8825
  654MOL0     H88225   0.570   7.944   2.171 -2.4700 -0.6598  0.8383
  654MOL0     H88226   0.561   7.777   2.141 -1.2418  2.5481 -2.1458
  654MOL0     H88227   0.531   7.723   2.353 -1.9947 -0.3455  0.9027
  654MOL0     H88228   0.565   7.884   2.425 -0.6413 -0.7667  0.1513
  654MOL0     H88229   0.362   7.986   2.311  0.8056 -0.4424 -2.5442
  654MOL0     H88230   0.336   7.836   2.222  1.6974 -2.4975  0.5610
  654MOL0     H88231   0.295   7.722   2.435  2.1006  0.9313  0.1802
  654MOL0     H88232   0.347   7.863   2.525  1.4449 -2.5513  0.0554
  654MOL0     H88233   0.163   7.993   2.426  1.9609  0.0451 -1.0362
  654MOL0     H88234   0.114   7.846   2.339  0.2858  0.6923 -0.3512
  654MOL0     H88235   0.092   7.746   2.590 -0.6384  0.5105 -1.7946
  654MOL0     H88236   0.144   7.903   2.645 -0.7896  0.5000  1.2614
  654MOL0     H88237  -0.076   7.990   2.574  2.8281  0.4896  0.0936
  654MOL0     H88238  -0.098   7.857   2.459  0.7773 -3.1354 -0.2308
  654MOL0     H88239  -0.087   7.840   2.764  2.2810  0.5811 -1.0786
  654MOL0     H88240  -0.112   7.703   2.660  0.7372  0.2839 -0.3042
  654MOL0     H88241  -0.279   8.035   2.755  0.1893  0.5863  0.1299
  654MOL0     H88242  -0.545   8.094   2.749  2.6517 -1.1317 -1.0118
  654MOL0     H88243  -0.668   7.981   2.705  0.5266  0.5687  1.3387
  654MOL0     H88244  -0.644   8.086   2.963 -0.1723 -0.7184  2.0243
  654MOL0     H88245  -0.513   7.973   2.975 -1.4202  0.6722  3.6134
  654MOL0     H88246  -0.689   7.871   3.071 -1.1856 -2.9937 -0.6134
  654MOL0     H88247  -0.660   7.779   2.937 -2.2861 -0.5384 -1.0248
  654MOL0     H88248  -0.849   7.886   2.806  1.7307  1.2938 -0.6868
  654MOL0     H88249  -0.891   7.987   2.942 -1.2191  0.7165 -1.4572
  654MOL0     H88250  -1.066   7.932   2.805  1.0813 -0.4103 -0.8324
  654MOL0     H88251  -1.376   7.875   2.652 -0.3554 -1.8958  1.0579
  654MOL0     H88252  -1.399   7.972   2.794 -0.2803 -2.5896  0.5791
  654MOL0     H88253  -1.256   8.000   2.704 -0.0690  0.5290 -0.4926
  654MOL0     H88254  -1.648   7.415   3.103 -1.1870 -3.8206  0.5014
  654MOL0     H88255  -1.872   7.334   3.068  0.2729  0.8598  0.9828
  654MOL0     H88256  -2.064   7.271   3.001  0.8112 -0.7676 -1.4279
  654MOL0     H88257  -2.165   7.390   3.081 -1.5206  0.5736 -1.4858
  654MOL0     H88258  -2.189   7.277   2.802 -0.7984 -3.5134  1.0534
  654MOL0     H88259  -2.287   7.229   2.935  0.8936 -0.3313 -0.2117
  654MOL0     H88260  -2.300   7.524   2.826 -0.2439  0.8391 -0.0484
  654MOL0     H88261  -2.405   7.456   2.952 -1.4987 -0.4329 -1.9101
  654MOL0     H88262  -2.406   7.383   2.660  0.0625  0.5299  0.1118
  654MOL0     H88263  -2.504   7.300   2.785 -1.7009 -0.1811 -2.2856
  654MOL0     H88264  -2.532   7.593   2.704 -0.6418  0.2956  0.2695
  654MOL0     H88265  -2.597   7.505   2.846  0.2853 -2.5725  0.6089
  654MOL0     H88266  -2.649   7.443   2.550  0.2397  1.0099 -0.5360
  654MOL0     H88267  -2.700   7.333   2.676 -0.1499  0.4593 -0.4245
  654MOL0     H88268  -2.761   7.630   2.631 -1.1514 -1.0952 -3.1808
  654MOL0     H88269  -2.833   7.542   2.764  1.9833 -0.5447  0.3962
  654MOL0     H88270  -2.879   7.479   2.465 -1.6458 -1.2562 -0.3761
  654MOL0     H88271  -2.987   7.563   2.576  1.9611  1.2502  1.7921
  654MOL0     H88272  -1.951   7.674   2.808 -3.7211 -2.7521  0.7843
  654MOL0     H88273  -1.748   7.731   2.824  0.3720  1.4992  1.7694
  654MOL0     H88274  -1.296   7.520   2.975 -0.9428 -0.3732 -2.1329
  654MOL0     H88275  -1.062   7.587   3.054 -0.9971 -0.8244  0.0517
  654MOL0     H88276   0.749   7.845   1.969 -2.1298  1.0671  0.8687
  654MOL0     H88277   0.923   7.976   1.829  0.8281  3.3043  0.5119
  654MOL0     H88278   0.997   8.401   1.660 -0.4094 -2.6390 -1.2578
  654MOL0     H88279   1.164   8.493   1.484 -3.8447 -2.0394  0.5024
  654MOL0     H88280   1.609   8.351   1.548  0.4318  1.2224  2.0067
  654MOL0     H88281   1.599   8.469   1.412 -2.9683  1.8543 -0.8145
  654MOL0     H88282   1.617   8.515   1.714  4.6056  1.5190  0.1714
  654MOL0     H88283   1.507   8.622   1.627  0.7917  0.7042  1.9480
  654MOL0     H88284   1.689   8.709   1.502 -0.8901  2.4904  1.1252
  654MOL0     H88285   1.795   8.583   1.535 -0.8150  1.8528 -1.8558
  654MOL0     H88286   1.822   8.647   1.767  1.1436  2.5661  1.1445
  654MOL0     H88287   1.707   8.785   1.744 -1.2187 -0.9321 -0.7768
  654MOL0     H88288   2.073   8.887   1.547  2.4231 -0.9087  3.8083
  654MOL0     H88289   1.480   8.308   1.721 -0.7192 -1.5719  1.9478
  654MOL0     H88290   1.327   8.212   1.862  0.7246 -1.0293 -1.6479
  655MOL0     O88291   3.130   9.568   8.509 -0.0072  0.3191  0.0150
  655MOL0     C88292   3.171   9.626   8.609 -0.0279  0.0609  0.3943
  655MOL0     O88293   3.081   9.665   8.716 -0.8115 -0.4586 -0.3320
  655MOL0     C88294   2.956   9.613   8.716 -0.1593 -1.7124  0.2687
  655MOL0     C88295   2.847   9.700   8.715 -0.3015 -0.0427 -0.0403
  655MOL0     C88296   2.715   9.647   8.708  0.6098  0.6981  0.6684
  655MOL0     C88297   2.694   9.509   8.695 -0.1235 -0.3309  0.8030
  655MOL0     O88298   2.571   9.449   8.669 -0.3736 -0.2070 -0.0676
  655MOL0     C88299   2.485   9.469   8.786  0.0188 -0.0427 -0.0451
  655MOL0     C88300   2.334   9.444   8.758 -0.0578  0.5903 -0.4826
  655MOL0     C88301   2.286   9.527   8.636 -0.2638 -0.4246  0.3166
  655MOL0     C88302   2.134   9.511   8.614 -0.9077 -0.4023 -0.1681
  655MOL0     C88303   2.096   9.565   8.478  0.6984  0.1523 -0.0517
  655MOL0     C88304   1.945   9.573   8.448 -0.8896  0.4130  0.2875
  655MOL0     C88305   1.877   9.675   8.536  0.1064  0.0052  0.2288
  655MOL0     C88306   1.803   9.620   8.663  0.7931 -0.5654 -0.6394
  655MOL0     N88307   1.671   9.567   8.627 -0.2859 -0.3747 -1.4811
  655MOL0     C88308   1.640   9.507   8.509  0.8571  0.8056 -0.0355
  655MOL0     C88309   1.510   9.464   8.522 -0.5476 -1.2179 -0.0079
  655MOL0     C88310   1.445   9.393   8.412 -0.2800 -0.4202 -0.0796
  655MOL0     C88311   1.304   9.321   8.432 -0.0459  0.1002  0.6416
  655MOL0     C88312   1.192   9.416   8.442 -0.0800 -0.2561 -0.4873
  655MOL0     C88313   1.074   9.355   8.506  0.2771  1.6100 -0.0399
  655MOL0     O88314   0.952   9.428   8.465  0.0898 -0.0076  0.2770
  655MOL0     C88315   0.881   9.406   8.343 -0.1077  1.5449  0.0690
  655MOL0     C88316   0.922   9.331   8.230  0.4223 -0.0141  0.3529
  655MOL0     C88317   0.841   9.320   8.110 -0.3517  0.2600  0.5621
  655MOL0     C88318   0.902   9.252   7.990  0.0520 -0.4963 -0.0562
  655MOL0     C88319   0.710   9.384   8.109 -1.1343  0.1572 -0.2205
  655MOL0     C88320   0.600   9.380   8.007  0.6257  0.1476 -0.3960
  655MOL0     O88321   0.475   9.369   8.052  0.4381 -0.6344 -0.0811
  655MOL0     C88322   0.378   9.383   7.952  0.5476 -0.3675  0.3936
  655MOL0     C88323   0.365   9.495   7.874 -0.1699  0.2262 -0.2516
  655MOL0     C88324   0.253   9.503   7.792 -0.0622 -0.0837  0.4304
  655MOL0     C88325   0.159   9.406   7.799  0.3450 -0.2051 -0.8420
  655MOL0     O88326   0.042   9.441   7.740 -0.2777  0.0796 -0.1261
  655MOL0     C88327  -0.022   9.323   7.681 -0.3379 -0.3027 -0.5988
  655MOL0     C88328  -0.109   9.369   7.564 -1.1412  1.1192  0.0009
  655MOL0     C88329  -0.242   9.415   7.609  0.2175 -0.3496  0.5870
  655MOL0     C88330  -0.343   9.416   7.498 -0.1837 -0.1270 -0.5444
  655MOL0     C88331  -0.322   9.531   7.395 -0.2949 -0.0482 -0.4770
  655MOL0     C88332  -0.436   9.553   7.300  0.6433 -0.6228  0.1938
  655MOL0     C88333  -0.420   9.682   7.208 -0.1389 -0.1150  0.9635
  655MOL0     C88334  -0.509   9.664   7.083  0.2842 -0.0608 -0.3444
  655MOL0    Cl88335  -0.469   9.536   6.977 -0.2254  0.1621 -0.4447
  655MOL0     C88336   0.171   9.298   7.888 -0.0617 -0.3744 -0.0139
  655MOL0     C88337   0.280   9.289   7.966 -0.9691  0.8421 -0.4826
  655MOL0     O88338   0.640   9.388   7.893  0.4811  0.2770 -1.0652
  655MOL0     C88339   0.677   9.446   8.225 -0.4081 -0.1709 -0.5501
  655MOL0     C88340   0.762   9.463   8.336 -0.2495 -0.3645  0.2887
  655MOL0     N88341   1.461   9.498   8.645 -0.1418  0.1064  0.4426
  655MOL0     N88342   1.562   9.556   8.709 -0.4258  0.6045  0.3590
  655MOL0     C88343   2.809   9.427   8.689  0.4605  0.0807 -0.2650
  655MOL0     C88344   2.933   9.475   8.701 -0.1186 -0.1849 -0.0454
  655MOL0     C88345   3.307   9.669   8.609 -0.7492  0.2207  0.4568
  655MOL0     C88346   3.359   9.749   8.717  0.0702 -0.8017 -0.2130
  655MOL0     C88347   3.494   9.794   8.705  0.2316  0.7611  0.3002
  655MOL0     C88348   3.573   9.769   8.588  0.2210 -0.0978 -0.3043
  655MOL0     O88349   3.695   9.825   8.577 -0.7510  0.8564 -0.1239
  655MOL0     C88350   3.770   9.835   8.458  0.2619 -0.8218  0.3349
  655MOL0     C88351   3.843   9.709   8.425 -0.3827 -0.0586 -0.4885
  655MOL0     C88352   3.999   9.718   8.413  0.2753  0.3707  0.0308
  655MOL0     C88353   4.051   9.825   8.304 -0.2871 -0.1099 -0.6104
  655MOL0     C88354   3.983   9.831   8.175 -0.9027  0.3681 -0.3666
  655MOL0     C88355   3.921   9.832   8.066 -0.6929  0.3185 -0.6384
  655MOL0     C88356   3.516   9.699   8.481 -0.1692  0.7271 -0.6212
  655MOL0     C88357   3.383   9.653   8.488 -0.6794  0.4446 -0.2422
  655MOL0     H88358   2.862   9.807   8.728 -0.2475 -0.1911  1.3075
  655MOL0     H88359   2.630   9.714   8.698 -1.6241 -2.2277 -1.6823
  655MOL0     H88360   2.531   9.416   8.870  2.2510 -0.4685 -1.4481
  655MOL0     H88361   2.474   9.572   8.821 -0.0516  0.6021 -1.8450
  655MOL0     H88362   2.336   9.338   8.730  2.6559  0.4960 -0.1140
  655MOL0     H88363   2.282   9.471   8.850  1.0656 -0.4134  0.4771
  655MOL0     H88364   2.307   9.632   8.657 -0.4497  0.1564 -2.1529
  655MOL0     H88365   2.354   9.505   8.553  1.1866  2.0256  0.7743
  655MOL0     H88366   2.105   9.406   8.622  0.5066 -0.7710  0.2751
  655MOL0     H88367   2.087   9.582   8.684 -0.0977  3.4717 -3.1742
  655MOL0     H88368   2.134   9.666   8.457 -0.6161  0.6237 -0.2862
  655MOL0     H88369   2.138   9.498   8.402  0.8671  1.7133 -1.3948
  655MOL0     H88370   1.941   9.596   8.341  4.5085  1.4734 -0.0056
  655MOL0     H88371   1.910   9.472   8.470  0.4993 -0.3268 -0.6952
  655MOL0     H88372   1.954   9.748   8.561  0.0849  0.3589 -0.7019
  655MOL0     H88373   1.801   9.727   8.476  2.0701  0.9424 -1.5946
  655MOL0     H88374   1.793   9.700   8.737 -2.3441 -1.9971  0.6657
  655MOL0     H88375   1.867   9.542   8.704  0.0870 -1.0023 -0.3408
  655MOL0     H88376   1.702   9.487   8.423  0.9542  1.0925 -0.0346
  655MOL0     H88377   1.437   9.464   8.329 -0.2715 -1.6982 -1.2163
  655MOL0     H88378   1.506   9.307   8.384  0.7799 -0.0824  1.1380
  655MOL0     H88379   1.321   9.254   8.517  2.6917 -1.8409 -1.2793
  655MOL0     H88380   1.280   9.254   8.349 -1.8960 -0.8493  1.8922
  655MOL0     H88381   1.163   9.441   8.339 -0.8792  0.3845 -0.1173
  655MOL0     H88382   1.218   9.503   8.503 -3.3988  0.2804  0.3362
  655MOL0     H88383   1.091   9.339   8.613 -2.2569  4.8579  1.0044
  655MOL0     H88384   1.058   9.252   8.471  1.2053  1.0261  1.1675
  655MOL0     H88385   1.016   9.281   8.251  0.3689  0.8032  2.8765
  655MOL0     H88386   0.858   9.152   7.980 -3.8997  0.9375  1.0004
  655MOL0     H88387   0.874   9.304   7.899 -4.7636 -1.9787  0.2893
  655MOL0     H88388   1.011   9.251   8.001 -0.0136 -0.6508  0.6685
  655MOL0     H88389   0.441   9.572   7.869  0.0262 -0.0055 -1.1851
  655MOL0     H88390   0.241   9.591   7.730 -1.9350  0.2167  1.1524
  655MOL0     H88391   0.053   9.256   7.639 -0.6379  0.5726 -2.6161
  655MOL0     H88392  -0.082   9.272   7.757 -1.3772  3.9438  1.7639
  655MOL0     H88393  -0.059   9.451   7.510  0.7627 -0.0590 -0.1201
  655MOL0     H88394  -0.107   9.287   7.492  0.0664  0.0096  1.2540
  655MOL0     H88395  -0.232   9.516   7.648  0.9919  0.2199 -0.9826
  655MOL0     H88396  -0.283   9.352   7.688  0.0735 -1.9226 -0.6739
  655MOL0     H88397  -0.350   9.318   7.450  1.4313 -0.2986 -0.4834
  655MOL0     H88398  -0.435   9.444   7.551  0.1016  0.5664 -0.3991
  655MOL0     H88399  -0.228   9.507   7.344  0.4781  2.8711 -0.6126
  655MOL0     H88400  -0.308   9.624   7.451 -0.8682  1.8874 -3.3528
  655MOL0     H88401  -0.454   9.464   7.238 -0.5135 -0.1566 -0.1631
  655MOL0     H88402  -0.528   9.578   7.352  0.2825 -3.3134  0.9850
  655MOL0     H88403  -0.317   9.683   7.169 -0.5178  0.5851 -0.0597
  655MOL0     H88404  -0.447   9.774   7.261 -0.8232 -0.6153  1.4980
  655MOL0     H88405  -0.515   9.756   7.024 -4.9032  1.0118  1.3242
  655MOL0     H88406  -0.610   9.650   7.122 -0.0857  0.4709 -1.1014
  655MOL0     H88407   0.094   9.222   7.896 -0.8401  0.4191  0.2229
  655MOL0     H88408   0.288   9.208   8.039 -4.4322  0.5980 -0.2346
  655MOL0     H88409   0.573   9.472   8.241 -0.9006 -2.6916  0.9641
  655MOL0     H88410   0.732   9.530   8.416 -1.0124 -1.7177  1.1768
  655MOL0     H88411   2.781   9.328   8.654  1.5571  0.9410 -4.0701
  655MOL0     H88412   3.018   9.408   8.706 -0.4554 -0.5191  1.9237
  655MOL0     H88413   3.297   9.763   8.805  0.0037 -1.7392 -0.1053
  655MOL0     H88414   3.539   9.843   8.791  1.7969  1.7597 -1.0096
  655MOL0     H88415   3.700   9.862   8.377 -1.6619 -0.5608  2.0086
  655MOL0     H88416   3.834   9.922   8.473 -1.0077  0.2861 -0.3646
  655MOL0     H88417   3.797   9.667   8.336 -2.9871  1.0957  0.2062
  655MOL0     H88418   3.820   9.633   8.501  2.2585  0.6728  1.1868
  655MOL0     H88419   4.039   9.619   8.392 -1.7082 -0.3161 -0.8275
  655MOL0     H88420   4.038   9.744   8.512  1.0640 -4.1872  1.1370
  655MOL0     H88421   4.158   9.809   8.288 -0.4513 -0.0587 -1.8399
  655MOL0     H88422   4.044   9.924   8.350 -0.7632 -0.7509  0.7672
  655MOL0     H88423   3.858   9.831   7.980  2.5059  0.9517 -3.2168
  655MOL0     H88424   3.571   9.680   8.389  0.5349 -3.7526  0.4593
  655MOL0     H88425   3.343   9.595   8.405 -0.4966 -1.2577  0.8301
  656MOL0     O88426   2.233   3.607   2.561  0.3181 -0.1401  0.1222
  656MOL0     C88427   2.230   3.634   2.676 -0.0791  0.3085  0.3900
  656MOL0     O88428   2.144   3.582   2.768  0.2214 -0.2348 -0.2030
  656MOL0     C88429   2.036   3.515   2.731 -0.3172  0.4132 -0.7424
  656MOL0     C88430   2.048   3.380   2.689  0.7932  0.0168 -0.4327
  656MOL0     C88431   1.932   3.311   2.648 -0.5426 -0.2459  0.6298
  656MOL0     C88432   1.808   3.381   2.649 -0.6105 -0.3802 -0.1815
  656MOL0     O88433   1.701   3.318   2.584  0.1990  0.4559 -0.4582
  656MOL0     C88434   1.578   3.322   2.660  0.0548 -0.0958  0.5443
  656MOL0     C88435   1.485   3.202   2.640  0.1044 -0.0692  0.2852
  656MOL0     C88436   1.549   3.067   2.673 -0.2717  0.5590 -0.9376
  656MOL0     C88437   1.443   2.955   2.700 -0.4505  0.1049  0.8315
  656MOL0     C88438   1.491   2.814   2.711  0.2236  0.1609  0.4571
  656MOL0     C88439   1.567   2.770   2.578 -0.8254  0.3676 -0.7496
  656MOL0     C88440   1.629   2.633   2.615 -0.1895  0.4005 -0.3045
  656MOL0     C88441   1.706   2.568   2.501 -0.0425  0.0274 -0.0832
  656MOL0     N88442   1.626   2.527   2.385  0.4780  0.1454 -0.0038
  656MOL0     C88443   1.486   2.510   2.383 -0.1124  0.3684  0.0766
  656MOL0     C88444   1.461   2.438   2.271  0.0261  0.1299 -0.3947
  656MOL0     C88445   1.323   2.406   2.210  0.2566  0.4507 -0.9321
  656MOL0     C88446   1.247   2.306   2.299  0.6581 -0.0365 -0.3517
  656MOL0     C88447   1.107   2.278   2.231 -0.4898  0.1915  0.6607
  656MOL0     C88448   1.031   2.199   2.337 -0.1872  0.1853  0.1105
  656MOL0     O88449   0.908   2.151   2.281  0.0546 -0.1849 -0.6967
  656MOL0     C88450   0.818   2.098   2.368 -0.5073  0.2547 -1.5148
  656MOL0     C88451   0.850   2.055   2.503  0.0709  0.1463  0.0374
  656MOL0     C88452   0.760   1.980   2.576  0.0271 -0.4836 -0.3897
  656MOL0     C88453   0.808   1.940   2.715  0.5569  0.3152  0.7866
  656MOL0     C88454   0.622   1.953   2.533 -0.5497 -0.2284  0.3713
  656MOL0     C88455   0.515   1.894   2.612  0.5647 -0.3560 -0.6561
  656MOL0     O88456   0.538   1.846   2.740  0.4881 -0.0952 -0.4848
  656MOL0     C88457   0.444   1.773   2.808  0.0403  0.0032 -0.0548
  656MOL0     C88458   0.395   1.649   2.755 -0.2610 -0.8348  0.3568
  656MOL0     C88459   0.297   1.574   2.823  0.6434  0.9075 -0.0495
  656MOL0     C88460   0.264   1.607   2.952  0.6272 -0.4674  0.7056
  656MOL0     O88461   0.182   1.542   3.031  0.2758 -0.3907  0.7437
  656MOL0     C88462   0.081   1.461   2.964 -0.1673  0.5386 -0.3033
  656MOL0     C88463  -0.045   1.447   3.056 -0.5568  0.3300  0.4484
  656MOL0     C88464  -0.114   1.317   3.013 -0.1471  0.0297 -0.1432
  656MOL0     C88465  -0.253   1.306   3.082  0.1541  0.2854 -0.1568
  656MOL0     C88466  -0.336   1.179   3.032  0.6197 -0.4117 -0.3252
  656MOL0     C88467  -0.468   1.167   3.105 -0.7371 -0.6554 -0.5947
  656MOL0     C88468  -0.577   1.207   3.010 -0.2788 -1.0575  0.1078
  656MOL0     C88469  -0.711   1.234   3.066  0.3008  0.4117 -0.3391
  656MOL0    Cl88470  -0.776   1.068   3.114  0.4460 -0.1095  0.2019
  656MOL0     C88471   0.339   1.709   3.013 -0.2212 -0.0090  0.3451
  656MOL0     C88472   0.418   1.799   2.941 -0.0823 -0.4452  0.5593
  656MOL0     O88473   0.400   1.901   2.556 -0.6412 -0.1737 -0.9667
  656MOL0     C88474   0.608   1.992   2.398 -0.2766 -0.3954 -0.7632
  656MOL0     C88475   0.695   2.061   2.320  0.2837 -0.3797  0.3167
  656MOL0     N88476   1.583   2.406   2.217 -0.2972  0.3650  0.4371
  656MOL0     N88477   1.682   2.462   2.281  0.7388 -0.2177  0.2880
  656MOL0     C88478   1.797   3.516   2.695 -0.0414 -0.1047  0.8659
  656MOL0     C88479   1.917   3.584   2.734  0.5035  0.5031  1.2418
  656MOL0     C88480   2.351   3.708   2.726  0.0419 -0.4571 -0.1795
  656MOL0     C88481   2.465   3.723   2.648  0.0785 -0.1356 -0.3469
  656MOL0     C88482   2.578   3.796   2.683  0.3302 -0.1203  0.5053
  656MOL0     C88483   2.577   3.869   2.805  0.8928 -0.5308 -0.3708
  656MOL0     O88484   2.682   3.960   2.848  0.4014  0.1521  0.3789
  656MOL0     C88485   2.808   3.967   2.782  1.3101  0.4419  0.7235
  656MOL0     C88486   2.794   4.060   2.665 -0.4503 -0.1600 -0.8267
  656MOL0     C88487   2.926   4.105   2.613  0.3447  0.5141 -0.0302
  656MOL0     C88488   2.906   4.214   2.508 -0.3131  0.7078  0.1861
  656MOL0     C88489   3.038   4.265   2.471  0.7775 -0.3701 -0.0730
  656MOL0     C88490   3.156   4.298   2.454  0.2662  0.5819  0.3256
  656MOL0     C88491   2.465   3.866   2.884  0.5439 -0.6379 -0.4954
  656MOL0     C88492   2.354   3.790   2.846 -0.2705  0.3383 -0.5107
  656MOL0     H88493   2.144   3.329   2.682  1.9252  1.9503  0.1499
  656MOL0     H88494   1.925   3.213   2.603  1.0890  0.2499 -0.8152
  656MOL0     H88495   1.593   3.325   2.768  2.3048 -2.7186  0.4137
  656MOL0     H88496   1.521   3.409   2.626 -0.7307 -1.9536 -3.4017
  656MOL0     H88497   1.394   3.214   2.700  0.6944 -1.9529  1.6506
  656MOL0     H88498   1.455   3.198   2.534  1.5067  1.3088 -0.1934
  656MOL0     H88499   1.613   3.040   2.588 -0.0593 -0.0300 -0.5910
  656MOL0     H88500   1.615   3.069   2.760 -0.5528 -1.5191 -0.6408
  656MOL0     H88501   1.393   2.987   2.792  1.2326  2.1570  1.1015
  656MOL0     H88502   1.376   2.976   2.617  2.2681  5.6877 -0.4448
  656MOL0     H88503   1.564   2.809   2.793 -0.9008 -3.2063  1.3900
  656MOL0     H88504   1.408   2.747   2.733  0.2268 -0.0138 -0.0546
  656MOL0     H88505   1.491   2.780   2.499 -1.2823  4.9310  0.0225
  656MOL0     H88506   1.655   2.832   2.561 -1.9996  2.4253  0.3035
  656MOL0     H88507   1.702   2.650   2.694  0.6720  1.6009 -1.3318
  656MOL0     H88508   1.553   2.562   2.650  2.3069 -2.8223 -0.9190
  656MOL0     H88509   1.765   2.487   2.545  3.1077  1.8271 -0.6886
  656MOL0     H88510   1.787   2.634   2.467 -1.5602  2.1793  0.2889
  656MOL0     H88511   1.411   2.549   2.451 -0.7099 -0.1787 -0.2543
  656MOL0     H88512   1.280   2.505   2.225 -0.2946 -0.2021  2.9886
  656MOL0     H88513   1.328   2.366   2.108 -3.1272  1.2007 -1.5022
  656MOL0     H88514   1.231   2.358   2.394  0.3584 -0.6408 -0.0665
  656MOL0     H88515   1.304   2.216   2.318 -1.1009 -0.7181  2.1889
  656MOL0     H88516   1.123   2.223   2.138  2.4343  2.4231 -0.2983
  656MOL0     H88517   1.054   2.365   2.191  0.5009  0.3088 -0.4377
  656MOL0     H88518   1.009   2.269   2.417  2.1361  3.2337 -1.7122
  656MOL0     H88519   1.096   2.118   2.372  0.6273  0.1594 -1.3473
  656MOL0     H88520   0.951   2.061   2.540 -0.1567 -0.2262  0.7442
  656MOL0     H88521   0.801   1.831   2.714 -1.1846  0.3891 -1.0305
  656MOL0     H88522   0.913   1.967   2.725  0.3248  1.0997  1.1795
  656MOL0     H88523   0.744   1.994   2.785  0.1798  0.1681  0.5572
  656MOL0     H88524   0.417   1.630   2.651 -0.7880  0.4381 -0.0099
  656MOL0     H88525   0.240   1.499   2.771 -0.4594  0.6746  1.4213
  656MOL0     H88526   0.051   1.516   2.874  4.4600  0.0842 -2.4228
  656MOL0     H88527   0.118   1.360   2.949 -0.2641  0.8324 -3.0331
  656MOL0     H88528  -0.011   1.423   3.157  0.8961  1.1574  0.1888
  656MOL0     H88529  -0.108   1.537   3.060  0.4104  0.9758  3.2401
  656MOL0     H88530  -0.059   1.227   3.044 -3.5827 -2.4336 -0.6770
  656MOL0     H88531  -0.106   1.312   2.904  3.3667 -1.2519  0.0298
  656MOL0     H88532  -0.241   1.311   3.191  1.6068 -1.8430 -0.1447
  656MOL0     H88533  -0.300   1.401   3.059 -1.6096  0.1329  2.3330
  656MOL0     H88534  -0.266   1.097   3.047  0.9495  0.3010  2.6825
  656MOL0     H88535  -0.359   1.205   2.928  0.0249  0.1155 -0.0667
  656MOL0     H88536  -0.490   1.061   3.121  1.7105 -1.5118 -2.3043
  656MOL0     H88537  -0.463   1.221   3.200 -0.3015 -0.5321 -0.6853
  656MOL0     H88538  -0.590   1.133   2.931 -1.6031  1.0961 -1.8401
  656MOL0     H88539  -0.543   1.297   2.958 -0.5657 -1.9455 -1.6933
  656MOL0     H88540  -0.777   1.270   2.987  0.2226 -0.9654 -0.9210
  656MOL0     H88541  -0.700   1.314   3.140  1.7805  0.9592 -1.1071
  656MOL0     H88542   0.317   1.700   3.119  0.2305 -4.8855  0.2802
  656MOL0     H88543   0.464   1.887   2.986  3.0523 -1.9761  0.6052
  656MOL0     H88544   0.513   1.962   2.353  0.3504 -3.3732 -0.3253
  656MOL0     H88545   0.672   2.086   2.217  2.0526 -1.2919 -0.3578
  656MOL0     H88546   1.705   3.574   2.688 -0.8345 -1.0038  3.0382
  656MOL0     H88547   1.916   3.687   2.769  0.3549  0.5626  1.0670
  656MOL0     H88548   2.468   3.676   2.551  0.7549  0.0284 -0.4035
  656MOL0     H88549   2.664   3.799   2.617 -0.5099 -1.3442 -0.6777
  656MOL0     H88550   2.885   4.004   2.851 -0.4990  2.9461  1.5504
  656MOL0     H88551   2.837   3.869   2.743 -3.0651 -0.3052 -1.2554
  656MOL0     H88552   2.742   4.148   2.704  0.5817 -0.2144  0.7960
  656MOL0     H88553   2.740   4.012   2.583  1.0955 -1.4045 -1.1636
  656MOL0     H88554   2.977   4.017   2.574  2.6882  0.9688  1.7635
  656MOL0     H88555   2.992   4.139   2.694  1.6808 -0.3355 -0.7200
  656MOL0     H88556   2.848   4.301   2.541  0.5573  1.3597  0.0348
  656MOL0     H88557   2.847   4.175   2.425  1.6933 -0.2893 -0.8241
  656MOL0     H88558   3.256   4.332   2.435  1.3429 -2.7323 -0.5184
  656MOL0     H88559   2.454   3.921   2.977  1.9577  0.9293 -1.2006
  656MOL0     H88560   2.264   3.802   2.906  0.8427  1.5423  1.0199
  657MOL0     O88561   9.541   0.552  10.525 -0.4529  0.0512 -0.2322
  657MOL0     C88562   9.655   0.497  10.520  0.4527 -0.2015  0.4040
  657MOL0     O88563   9.684   0.383  10.452  0.4175 -0.6308 -0.2979
  657MOL0     C88564   9.592   0.326  10.373 -1.1983 -0.3290  0.1817
  657MOL0     C88565   9.628   0.289  10.244  0.1774  0.1208 -0.1366
  657MOL0     C88566   9.527   0.247  10.160 -0.7785  0.4466 -0.1453
  657MOL0     C88567   9.392   0.234  10.205  0.0844 -0.3756 -0.1720
  657MOL0     O88568   9.300   0.177  10.113 -0.0198  0.2431 -0.7398
  657MOL0     C88569   9.167   0.184  10.147  0.4140  0.2559 -0.0836
  657MOL0     C88570   9.129   0.068  10.245 -0.1075  0.0136 -0.2540
  657MOL0     C88571   8.997   0.115  10.312 -0.3277  0.3792  0.2117
  657MOL0     C88572   8.962   0.006  10.419 -0.4615  0.1706  0.6113
  657MOL0     C88573   8.828   0.008  10.491  0.3554 -0.8258  0.4832
  657MOL0     C88574   8.717  -0.035  10.395  0.0317 -0.0963  0.6419
  657MOL0     C88575   8.587   0.010  10.458  1.2253  0.4181 -0.0118
  657MOL0     C88576   8.472   0.021  10.360  0.4949  0.1627 -0.3444
  657MOL0     N88577   8.403  -0.108  10.328 -0.2592 -0.2613  0.3402
  657MOL0     C88578   8.270  -0.141  10.360 -0.2942 -0.1071  0.0888
  657MOL0     C88579   8.253  -0.260  10.303 -0.1472 -0.2479 -0.4132
  657MOL0     C88580   8.135  -0.354  10.295 -0.5940 -0.0527 -0.3645
  657MOL0     C88581   8.024  -0.327  10.195  0.0817 -0.2104  0.6273
  657MOL0     C88582   7.952  -0.467  10.170 -0.7989  0.1946 -0.1954
  657MOL0     C88583   7.812  -0.460  10.125 -0.1962  0.6287  0.3820
  657MOL0     O88584   7.760  -0.585  10.173  0.6027 -0.0956  0.0804
  657MOL0     C88585   7.620  -0.598  10.183  0.1357 -0.6373 -0.2001
  657MOL0     C88586   7.519  -0.500  10.160  0.1373  0.4698 -1.0926
  657MOL0     C88587   7.385  -0.546  10.152  0.4937 -0.8075  0.5265
  657MOL0     C88588   7.289  -0.439  10.136  0.5223  0.1128  0.3576
  657MOL0     C88589   7.346  -0.680  10.164  0.0588  0.2764 -0.3645
  657MOL0     C88590   7.204  -0.736  10.159  0.4002 -0.0002 -0.5679
  657MOL0     O88591   7.108  -0.654  10.103  0.1055  0.4149  0.3708
  657MOL0     C88592   6.974  -0.684  10.104  0.4127  0.8776 -0.8936
  657MOL0     C88593   6.916  -0.807  10.069 -1.1576  0.0064  0.2800
  657MOL0     C88594   6.781  -0.815  10.045 -0.0166 -0.3752 -0.5739
  657MOL0     C88595   6.695  -0.708  10.077 -0.3585 -0.3728 -0.6395
  657MOL0     O88596   6.556  -0.714  10.044 -0.2892 -0.8731  0.4039
  657MOL0     C88597   6.501  -0.769   9.925  0.6447  1.0750  0.4655
  657MOL0     C88598   6.394  -0.870   9.967  0.2512  0.7769 -0.3547
  657MOL0     C88599   6.326  -0.936   9.845 -0.4425 -0.4763 -0.5391
  657MOL0     C88600   6.207  -1.030   9.886  0.6003 -0.1465  0.3318
  657MOL0     C88601   6.122  -1.089   9.773  0.6828 -0.2287 -0.1921
  657MOL0     C88602   6.039  -1.206   9.822 -0.6164  0.7949  1.2415
  657MOL0     C88603   5.915  -1.180   9.899  0.6362 -0.1287 -0.0543
  657MOL0     C88604   5.843  -1.315   9.929  0.4684  0.4745  0.6452
  657MOL0    Cl88605   5.717  -1.282  10.049 -0.1122 -0.0892  0.3439
  657MOL0     C88606   6.753  -0.593  10.140 -1.2614 -0.1850  0.2985
  657MOL0     C88607   6.888  -0.580  10.157 -0.3028  0.0603 -0.4434
  657MOL0     O88608   7.181  -0.844  10.210 -0.2064  0.4332 -0.2671
  657MOL0     C88609   7.443  -0.771  10.210 -0.5554  0.5056  0.2234
  657MOL0     C88610   7.575  -0.732  10.212  0.2423  0.8002  0.3621
  657MOL0     N88611   8.367  -0.301  10.245  0.2808 -0.1428 -0.1358
  657MOL0     N88612   8.456  -0.208  10.257  0.2843 -0.7783 -0.0248
  657MOL0     C88613   9.362   0.263  10.336 -0.4705  0.4959  0.5809
  657MOL0     C88614   9.461   0.309  10.416 -0.6054 -0.4019 -0.2047
  657MOL0     C88615   9.766   0.566  10.599  0.1924  0.9209 -0.0855
  657MOL0     C88616   9.899   0.554  10.567 -0.3733 -0.3678  0.4543
  657MOL0     C88617   9.996   0.600  10.656  0.3489  0.0315  0.0975
  657MOL0     C88618   9.964   0.675  10.771 -1.2632 -0.6274 -0.5785
  657MOL0     O88619  10.060   0.758  10.830  0.9699 -0.3596 -0.0255
  657MOL0     C88620  10.080   0.877  10.749  0.2164  0.0154 -0.4204
  657MOL0     C88621  10.081   0.992  10.860  0.6204 -0.3167  0.0408
  657MOL0     C88622  10.226   1.026  10.911  0.2019 -0.5466 -0.2747
  657MOL0     C88623  10.261   0.960  11.050 -0.5016 -0.1034  0.2505
  657MOL0     C88624  10.402   0.999  11.090 -0.2513  0.3896  0.9266
  657MOL0     C88625  10.516   0.994  11.126  0.8330 -0.4814  0.3812
  657MOL0     C88626   9.823   0.684  10.806 -0.5178  0.0037 -0.1718
  657MOL0     C88627   9.728   0.631  10.713  0.4665 -0.0753 -0.5567
  657MOL0     H88628   9.732   0.302  10.217  0.9241  1.3817  2.9101
  657MOL0     H88629   9.546   0.215  10.058  6.0223 -1.6551  1.2631
  657MOL0     H88630   9.140   0.280  10.194 -2.1465 -0.6963  0.5842
  657MOL0     H88631   9.103   0.170  10.059 -1.7672  1.4017  1.2064
  657MOL0     H88632   9.107  -0.029  10.200  1.1470  0.6154 -2.2952
  657MOL0     H88633   9.209   0.052  10.317 -1.5060 -2.7483  0.8086
  657MOL0     H88634   9.002   0.208  10.370 -1.3573 -0.1493  1.1898
  657MOL0     H88635   8.928   0.115  10.227  0.4297  0.7281 -0.4249
  657MOL0     H88636   8.976  -0.090  10.369  2.0446 -0.2315  1.9063
  657MOL0     H88637   9.032   0.010  10.503  0.0090  0.2589  0.2153
  657MOL0     H88638   8.845  -0.066  10.570  1.2913 -4.7921 -3.0657
  657MOL0     H88639   8.807   0.110  10.525  1.8481 -1.0417  2.2425
  657MOL0     H88640   8.718   0.015  10.298 -0.6687 -0.6614  0.3270
  657MOL0     H88641   8.729  -0.140  10.368  1.9332  0.4636 -0.9468
  657MOL0     H88642   8.558  -0.048  10.545 -3.0515  1.9418 -0.2011
  657MOL0     H88643   8.609   0.111  10.494 -0.7475  1.4226 -1.3854
  657MOL0     H88644   8.511   0.063  10.267  2.4286  1.6968  1.0683
  657MOL0     H88645   8.390   0.087  10.392 -2.2548 -2.8693 -0.5761
  657MOL0     H88646   8.192  -0.082  10.407 -0.6683  0.2244 -0.9317
  657MOL0     H88647   8.186  -0.449  10.277 -0.2100  0.2022 -0.6036
  657MOL0     H88648   8.092  -0.366  10.395  0.0492 -3.8976 -0.3820
  657MOL0     H88649   8.056  -0.287  10.098 -2.3932 -0.4015 -0.3566
  657MOL0     H88650   7.953  -0.257  10.240  0.5216  1.1440 -0.6900
  657MOL0     H88651   7.949  -0.523  10.264 -1.2798 -0.7314 -0.7397
  657MOL0     H88652   8.010  -0.520  10.094 -0.7247 -0.4391  0.2865
  657MOL0     H88653   7.819  -0.454  10.016 -1.2784  3.0241  0.3897
  657MOL0     H88654   7.772  -0.370  10.173  0.8168  0.7702  0.9864
  657MOL0     H88655   7.553  -0.398  10.172  1.2837  0.1472 -1.3818
  657MOL0     H88656   7.256  -0.438  10.031  0.9904 -1.5210  0.1668
  657MOL0     H88657   7.203  -0.440  10.204  0.5020 -0.3861  0.3326
  657MOL0     H88658   7.334  -0.341  10.150  2.1880 -0.6976  0.8781
  657MOL0     H88659   6.981  -0.892  10.050 -0.0890 -0.4488  4.7273
  657MOL0     H88660   6.735  -0.904  10.003 -1.3653  0.7549 -1.5907
  657MOL0     H88661   6.461  -0.683   9.870 -0.0977 -0.4006 -1.4409
  657MOL0     H88662   6.569  -0.820   9.857 -0.3326 -1.6531  1.4036
  657MOL0     H88663   6.434  -0.946  10.035 -1.1907 -1.1320 -1.5356
  657MOL0     H88664   6.312  -0.818  10.018 -0.9443 -1.1041 -0.2538
  657MOL0     H88665   6.393  -1.000   9.787  1.0855  0.4331  0.1633
  657MOL0     H88666   6.296  -0.853   9.781 -2.5770 -0.7103  0.0843
  657MOL0     H88667   6.252  -1.119   9.932 -1.5477 -2.1477 -1.1999
  657MOL0     H88668   6.143  -0.983   9.961  2.7905  0.4299  1.9357
  657MOL0     H88669   6.186  -1.128   9.694 -0.0388 -0.7286 -0.5460
  657MOL0     H88670   6.056  -1.010   9.735  1.1031 -0.3982 -1.2885
  657MOL0     H88671   6.007  -1.247   9.726  1.1655  1.9724  0.0918
  657MOL0     H88672   6.096  -1.287   9.868 -1.9675 -1.0320 -0.1649
  657MOL0     H88673   5.852  -1.108   9.845  1.3717  0.4851 -0.1032
  657MOL0     H88674   5.935  -1.137   9.998 -1.1992  2.8975 -0.8383
  657MOL0     H88675   5.900  -1.402   9.962 -0.6323 -0.3106  0.5350
  657MOL0     H88676   5.791  -1.344   9.837 -1.4543 -0.1394  1.8611
  657MOL0     H88677   6.690  -0.513  10.178 -1.3516  0.2512 -0.7409
  657MOL0     H88678   6.929  -0.485  10.188 -0.0875 -0.1290 -0.1380
  657MOL0     H88679   7.416  -0.868  10.252  3.0053 -0.8122 -0.1307
  657MOL0     H88680   7.651  -0.809  10.224  1.7614  2.0749 -0.6804
  657MOL0     H88681   9.264   0.263  10.384 -1.0767 -2.5111 -0.4732
  657MOL0     H88682   9.454   0.332  10.522 -0.9126 -0.8443 -0.1234
  657MOL0     H88683   9.926   0.505  10.474  0.4294 -2.3120  1.6700
  657MOL0     H88684  10.098   0.597  10.621 -0.6793 -1.9565 -3.0904
  657MOL0     H88685  10.162   0.876  10.677 -1.1760  0.0988 -2.0536
  657MOL0     H88686   9.995   0.893  10.682  1.0249 -0.4139 -1.5748
  657MOL0     H88687  10.011   0.967  10.940 -0.7987 -0.3710 -1.1688
  657MOL0     H88688  10.031   1.078  10.813 -3.0125 -1.3976  1.6075
  657MOL0     H88689  10.217   1.135  10.925  1.2280 -0.6092  1.0938
  657MOL0     H88690  10.305   1.009  10.837  2.7971 -1.6019  2.5270
  657MOL0     H88691  10.246   0.851  11.056 -1.8171 -0.0117 -0.7662
  657MOL0     H88692  10.195   1.001  11.128 -0.8681 -0.9152  0.3811
  657MOL0     H88693  10.615   1.021  11.158  0.6729  0.9415 -0.2163
  657MOL0     H88694   9.800   0.743  10.894 -1.2730  3.3148 -2.3635
  657MOL0     H88695   9.624   0.653  10.734  0.2736 -0.7138 -0.8152
  658MOL0     O88696   0.397   4.158   6.181 -0.1114  0.4721 -0.2407
  658MOL0     C88697   0.479   4.243   6.149  0.2469  0.1527  0.3000
  658MOL0     O88698   0.460   4.373   6.142 -0.0606 -0.0765 -0.5611
  658MOL0     C88699   0.329   4.420   6.164 -0.9534  0.1333 -0.6480
  658MOL0     C88700   0.211   4.377   6.102  0.0682 -0.0831  0.4974
  658MOL0     C88701   0.089   4.432   6.140 -0.4195 -0.3641  0.0177
  658MOL0     C88702   0.085   4.525   6.244  0.2598 -0.4663 -0.2260
  658MOL0     O88703  -0.042   4.565   6.280 -0.1691  0.1826 -0.7178
  658MOL0     C88704  -0.070   4.677   6.364 -0.0159 -0.7172  0.7740
  658MOL0     C88705  -0.226   4.686   6.391 -0.4205  0.4034 -0.6931
  658MOL0     C88706  -0.324   4.667   6.271  0.6593  0.7610 -0.3274
  658MOL0     C88707  -0.377   4.521   6.245 -0.2903 -0.1698  0.3035
  658MOL0     C88708  -0.510   4.521   6.162 -0.0778 -0.1834 -0.0276
  658MOL0     C88709  -0.582   4.385   6.195 -0.1100  0.0336  0.0092
  658MOL0     C88710  -0.707   4.370   6.108 -0.3659 -0.8479 -0.3080
  658MOL0     C88711  -0.787   4.236   6.117  0.4752 -0.2359 -0.1509
  658MOL0     N88712  -0.923   4.249   6.057 -0.8391  0.7864 -0.2117
  658MOL0     C88713  -0.948   4.319   5.943  0.1269  0.8952 -0.4588
  658MOL0     C88714  -1.079   4.355   5.953 -0.0388 -0.3229 -0.5470
  658MOL0     C88715  -1.153   4.433   5.842 -0.1723  0.6498 -0.1979
  658MOL0     C88716  -1.256   4.340   5.775 -0.6501  0.5821 -0.2784
  658MOL0     C88717  -1.334   4.390   5.660  0.6391 -0.6483  0.4882
  658MOL0     C88718  -1.441   4.297   5.628  0.6069 -0.4195  0.0033
  658MOL0     O88719  -1.547   4.311   5.727  0.1113  0.0027 -0.1758
  658MOL0     C88720  -1.662   4.234   5.719 -0.3046 -0.1779 -0.2450
  658MOL0     C88721  -1.735   4.256   5.831 -0.6895 -0.7597  0.7360
  658MOL0     C88722  -1.860   4.200   5.846  0.6767 -0.0809  0.4333
  658MOL0     C88723  -1.927   4.236   5.977  0.5798 -0.6178 -0.2480
  658MOL0     C88724  -1.916   4.120   5.742  0.6935  0.1653 -0.3049
  658MOL0     C88725  -2.035   4.038   5.758  0.1371 -0.1902 -0.0730
  658MOL0     O88726  -2.040   3.935   5.679  0.5226 -0.1603 -0.1383
  658MOL0     C88727  -2.165   3.880   5.643  0.2513 -0.3225 -0.8204
  658MOL0     C88728  -2.172   3.744   5.623 -0.9397  1.0120  0.0072
  658MOL0     C88729  -2.288   3.675   5.582 -0.1929  0.0482 -0.3265
  658MOL0     C88730  -2.402   3.742   5.576 -0.3793  0.6106  0.7565
  658MOL0     O88731  -2.521   3.680   5.540  0.3678  0.0993  0.4254
  658MOL0     C88732  -2.569   3.553   5.595  0.3167  0.4938  0.3014
  658MOL0     C88733  -2.690   3.582   5.679 -0.0783  0.2914  0.2061
  658MOL0     C88734  -2.693   3.501   5.798  0.1696 -0.0942 -0.3121
  658MOL0     C88735  -2.732   3.359   5.777 -1.1367 -0.7425  0.3962
  658MOL0     C88736  -2.716   3.263   5.898 -0.2703 -0.2244  0.2112
  658MOL0     C88737  -2.730   3.116   5.864  0.1610  0.0041 -0.2106
  658MOL0     C88738  -2.693   3.017   5.981  0.8466 -0.9255  0.6917
  658MOL0     C88739  -2.627   2.895   5.928 -0.1969  1.1957 -0.3452
  658MOL0    Cl88740  -2.724   2.797   5.821 -0.0079  0.0801  0.1371
  658MOL0     C88741  -2.400   3.880   5.599 -0.4390 -0.3018  0.2238
  658MOL0     C88742  -2.287   3.948   5.628  0.4283  0.3095  0.4917
  658MOL0     O88743  -2.115   4.062   5.843  0.4983 -0.0385 -0.2301
  658MOL0     C88744  -1.835   4.106   5.628 -1.1106  0.1842 -0.2727
  658MOL0     C88745  -1.712   4.167   5.608  0.5355 -0.2004  0.6099
  658MOL0     N88746  -1.128   4.292   6.064 -0.0732  0.0045  0.6388
  658MOL0     N88747  -1.037   4.225   6.126  0.5391  0.5572  0.5074
  658MOL0     C88748   0.200   4.566   6.304 -0.6572  0.2950 -0.2165
  658MOL0     C88749   0.314   4.510   6.271 -0.2483  0.7236  0.2488
  658MOL0     C88750   0.612   4.200   6.129 -0.3761  0.5823 -0.4289
  658MOL0     C88751   0.655   4.084   6.193 -0.0570 -0.8094 -0.0579
  658MOL0     C88752   0.788   4.030   6.180 -0.1451 -0.7755 -0.0583
  658MOL0     C88753   0.880   4.096   6.100 -0.2979 -0.0745  0.7273
  658MOL0     O88754   1.006   4.048   6.074 -0.1842  0.3713  0.0535
  658MOL0     C88755   1.086   3.976   6.167  0.7948 -0.0138 -0.5875
  658MOL0     C88756   1.232   4.008   6.136  0.1122  0.4147 -0.1751
  658MOL0     C88757   1.322   3.897   6.192 -0.5776  0.3244 -0.0459
  658MOL0     C88758   1.456   3.925   6.126  0.2792 -0.5365  0.4313
  658MOL0     C88759   1.557   3.872   6.223 -0.6013  0.7222 -0.1073
  658MOL0     C88760   1.642   3.832   6.295  0.0235  0.1257  0.1803
  658MOL0     C88761   0.841   4.215   6.038 -0.3184 -0.1097 -0.7917
  658MOL0     C88762   0.710   4.271   6.056 -0.2527 -0.0593 -0.1667
  658MOL0     H88763   0.214   4.289   6.039 -1.9041  1.4069 -1.8647
  658MOL0     H88764  -0.003   4.400   6.093 -0.8588  0.3007  0.4186
  658MOL0     H88765  -0.022   4.663   6.461 -0.1119 -2.2395  0.6357
  658MOL0     H88766  -0.024   4.761   6.312 -0.6451 -2.5118 -3.0957
  658MOL0     H88767  -0.263   4.616   6.466  0.2998  2.8706  2.1359
  658MOL0     H88768  -0.247   4.788   6.426  0.5494 -0.3872  2.5258
  658MOL0     H88769  -0.413   4.719   6.308 -2.6066 -2.6012 -2.7392
  658MOL0     H88770  -0.297   4.714   6.176  1.3559 -1.3576 -1.2346
  658MOL0     H88771  -0.291   4.460   6.216  0.6843  0.0292  2.5502
  658MOL0     H88772  -0.398   4.474   6.342  2.5702 -1.7423  0.2734
  658MOL0     H88773  -0.579   4.604   6.181 -0.6731 -0.6110 -0.3062
  658MOL0     H88774  -0.479   4.516   6.057  0.0732  0.3820 -0.0143
  658MOL0     H88775  -0.504   4.308   6.197  1.3616  1.4685 -0.7310
  658MOL0     H88776  -0.612   4.396   6.300  0.3815 -2.1181  0.4420
  658MOL0     H88777  -0.766   4.459   6.130  1.4465  0.6063 -1.0703
  658MOL0     H88778  -0.682   4.377   6.002 -2.8375  0.7560 -0.8764
  658MOL0     H88779  -0.792   4.208   6.222 -2.8481  3.7811  1.0523
  658MOL0     H88780  -0.736   4.164   6.052 -2.2699 -0.4523 -2.2830
  658MOL0     H88781  -0.886   4.346   5.858 -0.4880 -1.1506 -1.6250
  658MOL0     H88782  -1.204   4.520   5.885  0.6978 -0.7228  4.1037
  658MOL0     H88783  -1.079   4.463   5.767  1.0861  4.4814  2.2997
  658MOL0     H88784  -1.317   4.294   5.853  1.1166 -2.0947 -0.3132
  658MOL0     H88785  -1.202   4.256   5.729 -0.9305  0.2563 -0.0179
  658MOL0     H88786  -1.270   4.391   5.572  1.2913  2.6472  0.8766
  658MOL0     H88787  -1.373   4.491   5.673  2.8408  0.1274  1.6285
  658MOL0     H88788  -1.395   4.198   5.641  3.6001  1.1586  3.3193
  658MOL0     H88789  -1.482   4.319   5.529  0.9949 -0.7876 -0.2432
  658MOL0     H88790  -1.689   4.317   5.908 -1.6688  1.5549 -0.3946
  658MOL0     H88791  -2.021   4.188   6.006  0.6857 -2.1029 -2.2245
  658MOL0     H88792  -1.867   4.196   6.059  3.4220  0.7279 -1.5263
  658MOL0     H88793  -1.943   4.345   5.976 -1.6151 -0.8784  0.8487
  658MOL0     H88794  -2.076   3.697   5.641 -1.2595  0.3025 -0.1355
  658MOL0     H88795  -2.298   3.568   5.565 -2.9761  0.0224  0.9297
  658MOL0     H88796  -2.594   3.487   5.511 -2.4274  0.9620  0.6665
  658MOL0     H88797  -2.494   3.496   5.650 -0.2671  0.1855  0.7878
  658MOL0     H88798  -2.689   3.688   5.706 -0.4246  0.2630  0.3455
  658MOL0     H88799  -2.776   3.576   5.611 -0.9386  2.1687  1.0476
  658MOL0     H88800  -2.760   3.545   5.873  0.7281  0.3763 -0.0749
  658MOL0     H88801  -2.601   3.501   5.858  0.2432  0.6532 -0.4176
  658MOL0     H88802  -2.834   3.362   5.735 -1.4326  1.2639  1.1781
  658MOL0     H88803  -2.669   3.310   5.702  1.6635  1.8632  0.9008
  658MOL0     H88804  -2.793   3.289   5.971 -1.3787  1.5877 -1.5115
  658MOL0     H88805  -2.622   3.289   5.948 -2.0063  2.2257  2.5026
  658MOL0     H88806  -2.835   3.109   5.835  0.7126  1.7294 -2.8819
  658MOL0     H88807  -2.675   3.088   5.774  0.7866 -0.3951  0.2858
  658MOL0     H88808  -2.790   2.992   6.026 -1.0398  2.5230 -1.0125
  658MOL0     H88809  -2.632   3.076   6.050  1.9688 -0.3211 -0.7651
  658MOL0     H88810  -2.614   2.825   6.011  1.8481 -0.3722 -1.8512
  658MOL0     H88811  -2.527   2.915   5.888  0.5592 -1.0466  0.2633
  658MOL0     H88812  -2.495   3.932   5.600 -0.8485 -0.8505  3.4891
  658MOL0     H88813  -2.282   4.057   5.628  0.0267  0.3402  1.8457
  658MOL0     H88814  -1.878   4.051   5.545  0.3264 -2.0640  0.3782
  658MOL0     H88815  -1.664   4.164   5.511 -3.3023 -0.6302 -1.4747
  658MOL0     H88816   0.207   4.630   6.392  2.4166 -1.4601  0.9805
  658MOL0     H88817   0.406   4.531   6.324 -0.5085 -0.1174  1.0735
  658MOL0     H88818   0.580   4.028   6.248 -0.7265 -0.0327 -0.1565
  658MOL0     H88819   0.823   3.936   6.221 -1.0833 -0.7415  0.8552
  658MOL0     H88820   1.066   4.004   6.271  0.2384  0.9479 -0.9375
  658MOL0     H88821   1.073   3.868   6.160 -1.4340  0.0943  0.7855
  658MOL0     H88822   1.247   4.101   6.191 -3.4267  1.0395 -0.0010
  658MOL0     H88823   1.257   4.019   6.030  2.3561  0.0671  0.2788
  658MOL0     H88824   1.284   3.797   6.168  2.4093 -1.2324  1.2078
  658MOL0     H88825   1.323   3.914   6.300  1.2748 -2.5996  0.4979
  658MOL0     H88826   1.473   4.033   6.126 -0.1849 -0.3815 -2.6051
  658MOL0     H88827   1.457   3.888   6.023 -0.9086  0.4210  0.0631
  658MOL0     H88828   1.725   3.795   6.352 -0.0102 -1.9908 -1.0075
  658MOL0     H88829   0.917   4.262   5.977  0.5126  0.9148  0.9441
  658MOL0     H88830   0.687   4.364   6.003  0.7947 -0.7275 -1.8839
  659MOL0     O88831  10.586   9.162   1.345  0.2129  0.1638 -0.2178
  659MOL0     C88832  10.652   9.263   1.327  0.1187  1.0770  0.8327
  659MOL0     O88833  10.639   9.349   1.221  0.1325 -0.5283  0.0050
  659MOL0     C88834  10.566   9.334   1.104  0.4829  1.1838  0.8166
  659MOL0     C88835  10.471   9.226   1.079 -0.3363 -0.3152 -0.3111
  659MOL0     C88836  10.394   9.229   0.957  0.0515  0.2232 -0.6274
  659MOL0     C88837  10.435   9.321   0.856 -0.0656 -0.1871  0.7468
  659MOL0     O88838  10.382   9.337   0.728  0.0572  0.0571 -0.1570
  659MOL0     C88839  10.303   9.226   0.684  0.0075 -0.4278  0.3686
  659MOL0     C88840  10.254   9.273   0.540 -0.0396  0.1947  0.5404
  659MOL0     C88841  10.203   9.144   0.476  0.3521 -0.1638  0.4120
  659MOL0     C88842  10.119   9.178   0.348  0.3609  1.2153 -0.6418
  659MOL0     C88843  10.035   9.055   0.318  0.4713 -0.1135 -0.1845
  659MOL0     C88844   9.911   9.083   0.225  0.1027  0.6277 -0.8085
  659MOL0     C88845   9.782   9.139   0.303 -0.0571 -0.5420  0.4772
  659MOL0     C88846   9.697   9.224   0.208 -0.5234  0.2758 -0.4320
  659MOL0     N88847   9.633   9.147   0.104 -0.5621  0.0803  0.7177
  659MOL0     C88848   9.526   9.199   0.028 -0.5996 -0.2265 -0.4595
  659MOL0     C88849   9.463   9.090  -0.038  0.4657  0.8816  0.1206
  659MOL0     C88850   9.341   9.093  -0.123 -0.4361 -0.4709  0.4020
  659MOL0     C88851   9.222   9.165  -0.061  0.7074 -0.6277 -0.5941
  659MOL0     C88852   9.152   9.257  -0.156 -0.1009  0.2641 -0.0857
  659MOL0     C88853   9.104   9.210  -0.287  0.4211  0.5096  0.4744
  659MOL0     O88854   9.016   9.097  -0.256 -0.4870  0.0474 -0.0042
  659MOL0     C88855   8.994   9.020  -0.370  0.2128  0.7296 -0.0539
  659MOL0     C88856   9.097   8.920  -0.404  0.3149 -0.2961 -0.7602
  659MOL0     C88857   9.085   8.850  -0.525  0.2331 -0.5462  0.6594
  659MOL0     C88858   9.185   8.742  -0.541  0.3281  0.2058 -0.5176
  659MOL0     C88859   8.977   8.881  -0.617  1.0871  0.4603  0.5312
  659MOL0     C88860   8.959   8.829  -0.754  0.6662 -0.3323  0.0889
  659MOL0     O88861   8.842   8.857  -0.820  0.6619 -0.0024  0.0186
  659MOL0     C88862   8.817   8.853  -0.957 -0.2182 -0.5769 -0.2202
  659MOL0     C88863   8.702   8.922  -0.988 -0.6669 -0.4475 -0.1597
  659MOL0     C88864   8.659   8.938  -1.119 -1.2521  0.0261 -0.2503
  659MOL0     C88865   8.733   8.889  -1.224 -0.1421 -0.6997  0.1068
  659MOL0     O88866   8.692   8.914  -1.347  0.3376  0.5263  0.3886
  659MOL0     C88867   8.626   8.795  -1.412  0.1856  0.2770 -0.4844
  659MOL0     C88868   8.464   8.807  -1.410  0.8780  0.0772 -0.1624
  659MOL0     C88869   8.426   8.935  -1.491  0.5529 -0.2914 -0.2936
  659MOL0     C88870   8.429   8.918  -1.638  0.2981  0.2502  0.2180
  659MOL0     C88871   8.364   9.039  -1.701 -0.2191 -0.5645  1.2110
  659MOL0     C88872   8.212   9.032  -1.700  0.5495 -0.3310 -0.0264
  659MOL0     C88873   8.152   9.133  -1.800  0.7409  0.4187  0.4708
  659MOL0     C88874   8.003   9.146  -1.786  0.3780 -0.4263 -0.0547
  659MOL0    Cl88875   7.910   9.008  -1.864 -0.4834  0.4262 -0.0075
  659MOL0     C88876   8.845   8.809  -1.202  0.0621  0.4777 -0.0916
  659MOL0     C88877   8.890   8.784  -1.066 -0.1030  0.0030 -0.2311
  659MOL0     O88878   9.053   8.775  -0.808 -0.3049 -0.1329  0.7062
  659MOL0     C88879   8.883   8.979  -0.588 -0.6312 -0.1629  0.2625
  659MOL0     C88880   8.895   9.046  -0.463 -0.4495  0.1989  0.8816
  659MOL0     N88881   9.532   8.975   0.004  0.2103 -0.0848  0.2063
  659MOL0     N88882   9.637   9.014   0.069  0.0915 -0.5502  0.0186
  659MOL0     C88883  10.532   9.413   0.878 -0.1228 -0.1186  0.2176
  659MOL0     C88884  10.589   9.423   1.003  0.8407  0.5345 -0.1944
  659MOL0     C88885  10.765   9.286   1.422 -1.0135  0.1212  0.5354
  659MOL0     C88886  10.852   9.397   1.411  0.0725  0.0928 -0.0665
  659MOL0     C88887  10.957   9.415   1.510 -0.0715  0.5868  0.3200
  659MOL0     C88888  10.977   9.316   1.613 -0.0248  0.7891  0.0328
  659MOL0     O88889  11.068   9.334   1.709 -0.0720 -0.4390  0.0711
  659MOL0     C88890  11.150   9.454   1.707 -0.1330  0.0768 -0.6808
  659MOL0     C88891  11.225   9.451   1.850 -0.1647  0.2785 -1.0107
  659MOL0     C88892  11.337   9.343   1.859 -0.8173  1.5095  0.2955
  659MOL0     C88893  11.420   9.355   1.987  0.2923 -0.7057 -0.0022
  659MOL0     C88894  11.343   9.346   2.107  0.3290 -0.3201 -0.4008
  659MOL0     C88895  11.280   9.331   2.210 -0.3779  0.5016 -0.2995
  659MOL0     C88896  10.889   9.202   1.611 -0.1817 -0.0178 -0.3864
  659MOL0     C88897  10.793   9.186   1.519 -0.0829  0.2206  0.2710
  659MOL0     H88898  10.447   9.133   1.129  1.4106  0.8648  3.0052
  659MOL0     H88899  10.318   9.151   0.950 -0.1886  0.4758 -0.8351
  659MOL0     H88900  10.369   9.139   0.676  0.3305 -0.6838  3.9684
  659MOL0     H88901  10.216   9.213   0.749 -0.1522  0.3306  0.3204
  659MOL0     H88902  10.176   9.349   0.550 -1.1920 -0.9494  0.4575
  659MOL0     H88903  10.343   9.305   0.484  2.3053 -0.8222  3.4531
  659MOL0     H88904  10.283   9.077   0.445 -1.0312 -1.0067 -1.5423
  659MOL0     H88905  10.139   9.102   0.554  0.7884  1.0938  1.4842
  659MOL0     H88906  10.045   9.254   0.375 -0.6535 -0.3332  1.2074
  659MOL0     H88907  10.177   9.200   0.258 -0.0706 -0.4889 -1.3814
  659MOL0     H88908  10.095   8.972   0.281  0.3747 -0.3457  0.1854
  659MOL0     H88909   9.993   9.023   0.413  1.3974 -0.4693  0.1178
  659MOL0     H88910   9.932   9.148   0.139 -2.9267 -0.3186 -2.4239
  659MOL0     H88911   9.874   8.991   0.179 -0.2679  0.8765 -1.0109
  659MOL0     H88912   9.715   9.057   0.329 -2.5249  1.2152  0.0522
  659MOL0     H88913   9.816   9.203   0.385 -1.3037  0.6815  0.0935
  659MOL0     H88914   9.757   9.306   0.167  1.2414  0.5079  2.3419
  659MOL0     H88915   9.622   9.263   0.277 -1.2075 -2.0573  0.2422
  659MOL0     H88916   9.480   9.297   0.025 -0.4115 -0.1599 -1.5389
  659MOL0     H88917   9.374   9.148  -0.211  2.7510 -1.0647  1.1089
  659MOL0     H88918   9.318   8.988  -0.144  1.1770 -1.2470  2.2164
  659MOL0     H88919   9.257   9.235   0.016  1.7027  0.9596 -2.3727
  659MOL0     H88920   9.157   9.086  -0.024 -0.6535  1.3296  1.4845
  659MOL0     H88921   9.216   9.345  -0.169 -1.0813  0.9071 -0.7430
  659MOL0     H88922   9.065   9.286  -0.096 -0.6505 -0.6644 -0.4049
  659MOL0     H88923   9.193   9.179  -0.343  0.6004 -0.2750  1.1745
  659MOL0     H88924   9.044   9.276  -0.350 -3.8585 -2.8523  0.6220
  659MOL0     H88925   9.179   8.892  -0.339 -0.2873  1.2930  0.7687
  659MOL0     H88926   9.215   8.698  -0.445  1.6523  0.8352 -0.6251
  659MOL0     H88927   9.144   8.658  -0.599  1.4898 -0.2102 -0.7530
  659MOL0     H88928   9.274   8.768  -0.598  0.5709  0.0972 -0.1867
  659MOL0     H88929   8.657   8.979  -0.908  0.3006  0.0480  0.0503
  659MOL0     H88930   8.585   9.009  -1.154 -0.9334 -0.8504 -2.9166
  659MOL0     H88931   8.663   8.771  -1.512  2.9957  0.2131  0.4715
  659MOL0     H88932   8.644   8.708  -1.348 -0.4466 -0.1730 -0.9055
  659MOL0     H88933   8.411   8.722  -1.454 -1.7537  0.3975  2.1136
  659MOL0     H88934   8.432   8.818  -1.306 -0.1846  0.1996 -0.4877
  659MOL0     H88935   8.496   9.017  -1.470  0.3519 -0.6259  1.9304
  659MOL0     H88936   8.333   8.972  -1.446 -0.2794  0.1879 -2.3072
  659MOL0     H88937   8.530   8.914  -1.680  0.2168  1.0694 -0.0790
  659MOL0     H88938   8.383   8.824  -1.671 -1.5774  0.2770  2.5235
  659MOL0     H88939   8.390   9.060  -1.805 -1.4938  0.6916  1.1204
  659MOL0     H88940   8.401   9.128  -1.650  2.7631 -1.1679  0.2824
  659MOL0     H88941   8.179   8.932  -1.729  0.2953 -0.2406 -0.0530
  659MOL0     H88942   8.183   9.055  -1.597  1.9926 -1.1158  0.5807
  659MOL0     H88943   8.179   9.106  -1.902  0.7950  4.0495 -0.6172
  659MOL0     H88944   8.191   9.235  -1.793  0.9992  0.2196  2.6446
  659MOL0     H88945   7.966   9.237  -1.834  0.6140  0.3005  1.0995
  659MOL0     H88946   7.983   9.153  -1.679  1.2241 -2.4826  0.2844
  659MOL0     H88947   8.897   8.773  -1.291  0.2285  0.2114  0.1116
  659MOL0     H88948   8.979   8.723  -1.049  0.4326  0.8521  0.1194
  659MOL0     H88949   8.813   9.013  -0.664  1.3428 -1.7534 -2.4318
  659MOL0     H88950   8.838   9.136  -0.439 -0.3699  0.6248 -0.4565
  659MOL0     H88951  10.554   9.494   0.810  2.3846 -0.5074  0.4763
  659MOL0     H88952  10.666   9.498   1.018  0.7938  0.8273 -1.3107
  659MOL0     H88953  10.843   9.470   1.331 -3.3614 -1.9520 -1.7616
  659MOL0     H88954  11.032   9.494   1.507  1.1543 -0.5633 -1.2976
  659MOL0     H88955  11.212   9.449   1.617 -1.3072  0.0501 -1.5089
  659MOL0     H88956  11.092   9.546   1.704 -1.9202 -0.9357  0.8208
  659MOL0     H88957  11.147   9.426   1.922 -0.2563 -1.7537 -1.7258
  659MOL0     H88958  11.282   9.543   1.863  2.7559 -1.3570 -1.1215
  659MOL0     H88959  11.404   9.350   1.773  1.6353  1.1717  2.0686
  659MOL0     H88960  11.293   9.243   1.860  0.5424  0.8761 -0.5949
  659MOL0     H88961  11.477   9.449   1.991  0.2847 -0.7014 -0.0047
  659MOL0     H88962  11.493   9.274   1.977  3.7918  2.3554 -1.9554
  659MOL0     H88963  11.220   9.331   2.298  1.1316 -0.2981  0.7786
  659MOL0     H88964  10.898   9.130   1.692  0.9507  2.4859  1.8754
  659MOL0     H88965  10.727   9.101   1.527  2.4121 -1.8230  0.4357
  660MOL0     O88966   9.893   3.133   0.157  0.4120  0.3778 -0.3066
  660MOL0     C88967   9.926   3.238   0.109 -0.7580 -0.0296  0.1780
  660MOL0     O88968   9.849   3.307   0.019 -0.0365  0.3567  0.6320
  660MOL0     C88969   9.726   3.261  -0.015 -0.2028 -0.3608  1.1132
  660MOL0     C88970   9.716   3.228  -0.148  0.5846 -0.4727 -0.1120
  660MOL0     C88971   9.589   3.203  -0.200  0.1623  0.8658 -0.2033
  660MOL0     C88972   9.474   3.210  -0.115  0.0711 -0.6691 -0.0285
  660MOL0     O88973   9.351   3.172  -0.159  0.1196  0.0652 -0.0018
  660MOL0     C88974   9.331   3.117  -0.284 -0.2219 -0.4538 -0.0455
  660MOL0     C88975   9.187   3.140  -0.321  0.1086  0.5198 -0.6764
  660MOL0     C88976   9.100   3.026  -0.275 -0.0135 -0.5623  0.0509
  660MOL0     C88977   8.951   3.056  -0.282 -0.4170 -0.8220 -0.7123
  660MOL0     C88978   8.872   2.937  -0.232  1.3991  0.5761 -0.5535
  660MOL0     C88979   8.718   2.958  -0.272  0.8691 -0.1042 -0.4579
  660MOL0     C88980   8.629   2.856  -0.195 -0.4743  0.0197  0.6107
  660MOL0     C88981   8.479   2.880  -0.220  0.3924  0.1879 -0.0091
  660MOL0     N88982   8.426   2.968  -0.104  0.8379  0.2315  0.3386
  660MOL0     C88983   8.485   3.094  -0.078  0.6510 -0.1067  0.8859
  660MOL0     C88984   8.463   3.107   0.053 -0.2990  0.8586 -0.5814
  660MOL0     C88985   8.534   3.199   0.144 -0.0122 -0.5931  0.0167
  660MOL0     C88986   8.587   3.134   0.270 -0.0068  0.4824 -0.8530
  660MOL0     C88987   8.616   3.231   0.389  0.0276 -0.5120 -0.2349
  660MOL0     C88988   8.652   3.152   0.510  0.8296  0.0807 -0.2481
  660MOL0     O88989   8.695   3.224   0.627  0.5774 -0.0732  0.3089
  660MOL0     C88990   8.816   3.295   0.624  0.1886  0.3912 -0.1390
  660MOL0     C88991   8.933   3.267   0.556  0.0137 -0.8438  0.8921
  660MOL0     C88992   9.046   3.345   0.561 -0.6221  0.5800  0.2992
  660MOL0     C88993   9.157   3.301   0.467  0.5954  0.6745 -0.1158
  660MOL0     C88994   9.051   3.463   0.636  0.1304 -0.3058  0.1009
  660MOL0     C88995   9.171   3.560   0.644 -0.0252 -0.2453  0.1549
  660MOL0     O88996   9.292   3.513   0.617 -0.5909 -0.1769 -0.0304
  660MOL0     C88997   9.405   3.553   0.677  0.7021 -0.2568  0.8068
  660MOL0     C88998   9.533   3.524   0.619  0.2746  0.0221 -0.4179
  660MOL0     C88999   9.650   3.558   0.688 -0.6721  0.4610  0.7619
  660MOL0     C89000   9.648   3.640   0.804  0.0389 -0.2023 -0.0246
  660MOL0     O89001   9.768   3.680   0.848 -0.0560 -0.4187 -0.0694
  660MOL0     C89002   9.780   3.811   0.921 -0.5839  0.0897 -0.1836
  660MOL0     C89003   9.925   3.861   0.926 -0.2499  0.0515  0.2950
  660MOL0     C89004   9.952   3.939   1.051 -0.4995 -0.5733 -0.6292
  660MOL0     C89005   9.861   4.060   1.081  0.3398 -0.6940 -0.0973
  660MOL0     C89006   9.915   4.159   1.181  0.6496  0.8927 -0.3104
  660MOL0     C89007   9.822   4.279   1.185  0.8137  0.7839 -0.9290
  660MOL0     C89008   9.875   4.371   1.296  0.5444  0.4682 -0.2186
  660MOL0     C89009   9.793   4.494   1.314 -0.3609 -0.6565 -0.2508
  660MOL0    Cl89010   9.633   4.463   1.396  0.2562 -0.5775 -0.3221
  660MOL0     C89011   9.529   3.674   0.856  0.1899  0.3334 -1.3025
  660MOL0     C89012   9.414   3.619   0.803  0.1064 -1.3492 -0.8482
  660MOL0     O89013   9.152   3.672   0.678 -0.0661  0.2489  0.5945
  660MOL0     C89014   8.936   3.496   0.712 -0.1941  0.0566 -0.1884
  660MOL0     C89015   8.818   3.413   0.701  0.3206 -0.2175  0.4966
  660MOL0     N89016   8.383   3.001   0.099  0.2616  0.4692 -0.0258
  660MOL0     N89017   8.355   2.925  -0.001  0.3530 -0.3905 -0.5977
  660MOL0     C89018   9.490   3.262   0.010  0.6526 -0.5582  0.0885
  660MOL0     C89019   9.616   3.279   0.062 -0.2389  0.8748  0.4667
  660MOL0     C89020  10.055   3.285   0.143 -0.4428  0.1741 -0.2654
  660MOL0     C89021  10.161   3.203   0.197  0.3396 -0.5350 -0.3108
  660MOL0     C89022  10.289   3.268   0.228  0.8054 -0.3593  0.6669
  660MOL0     C89023  10.323   3.397   0.207  0.6698  0.3229  0.2806
  660MOL0     O89024  10.443   3.440   0.228 -0.0423 -0.1778 -0.6298
  660MOL0     C89025  10.474   3.577   0.201 -0.0473  0.2536  0.2026
  660MOL0     C89026  10.610   3.594   0.240 -0.3608  0.4083 -0.7357
  660MOL0     C89027  10.713   3.556   0.124 -0.3857 -0.7157  0.2404
  660MOL0     C89028  10.856   3.586   0.159  0.0237  1.1541 -0.3699
  660MOL0     C89029  10.883   3.727   0.195 -0.5181 -1.0694 -0.0145
  660MOL0     C89030  10.935   3.832   0.204 -1.0589  0.5499 -0.4265
  660MOL0     C89031  10.216   3.478   0.156 -1.7176  0.0963  0.1755
  660MOL0     C89032  10.095   3.422   0.126  0.7103  0.5345 -0.0669
  660MOL0     H89033   9.805   3.220  -0.209 -0.7705 -0.8178 -2.1438
  660MOL0     H89034   9.578   3.179  -0.306 -0.4906 -0.5806  0.1588
  660MOL0     H89035   9.391   3.178  -0.352 -1.2754  1.5244  0.7157
  660MOL0     H89036   9.360   3.012  -0.293 -1.1866 -0.5634 -2.8571
  660MOL0     H89037   9.143   3.224  -0.268 -1.2408  0.7073 -1.9897
  660MOL0     H89038   9.181   3.154  -0.429  0.3190  0.1411 -0.7409
  660MOL0     H89039   9.107   2.947  -0.349 -2.2350 -0.5420 -0.2677
  660MOL0     H89040   9.128   2.983  -0.179  0.5389 -1.3644 -0.4674
  660MOL0     H89041   8.931   3.144  -0.221 -0.8583 -0.1523 -1.7934
  660MOL0     H89042   8.921   3.078  -0.385  4.8271  0.2347 -2.3089
  660MOL0     H89043   8.900   2.841  -0.277 -1.1845  0.6220 -2.5073
  660MOL0     H89044   8.885   2.928  -0.124  2.1377 -2.1307 -0.7817
  660MOL0     H89045   8.693   3.063  -0.253  1.7479  0.3558 -1.7121
  660MOL0     H89046   8.704   2.939  -0.378 -0.6803 -1.7675 -0.0052
  660MOL0     H89047   8.669   2.756  -0.212  1.0323  0.1868  2.7685
  660MOL0     H89048   8.644   2.861  -0.087  0.7629 -2.7609  0.6427
  660MOL0     H89049   8.416   2.792  -0.224 -2.7670  2.3222 -0.5613
  660MOL0     H89050   8.476   2.927  -0.319  1.9058 -1.0443 -0.6792
  660MOL0     H89051   8.549   3.155  -0.141  1.3711 -0.7485  0.9814
  660MOL0     H89052   8.613   3.253   0.091  0.5259 -0.5296  0.8622
  660MOL0     H89053   8.455   3.269   0.173 -0.4711 -1.9169  2.1147
  660MOL0     H89054   8.675   3.073   0.247 -0.2139 -0.7166  1.2973
  660MOL0     H89055   8.509   3.071   0.313 -1.3013  1.5993 -1.4781
  660MOL0     H89056   8.526   3.288   0.417 -0.1616 -0.8461 -0.1615
  660MOL0     H89057   8.694   3.306   0.369 -2.0678  2.1996  1.0769
  660MOL0     H89058   8.725   3.071   0.497 -1.3924 -2.3563  1.3179
  660MOL0     H89059   8.562   3.096   0.534  0.3161  1.1513  0.3904
  660MOL0     H89060   8.929   3.187   0.482 -1.9358  0.7364 -0.8291
  660MOL0     H89061   9.120   3.253   0.375 -0.4117 -1.1455  1.1604
  660MOL0     H89062   9.221   3.382   0.431  0.9449  0.8071  0.7891
  660MOL0     H89063   9.217   3.228   0.522 -0.9305  0.5040  1.3926
  660MOL0     H89064   9.544   3.467   0.528  1.3846  1.0686 -0.9717
  660MOL0     H89065   9.749   3.529   0.654 -0.7856 -2.8136  2.7870
  660MOL0     H89066   9.709   3.887   0.886  0.1696  0.1842 -1.5551
  660MOL0     H89067   9.742   3.788   1.021 -0.5974  0.7177 -0.0352
  660MOL0     H89068   9.994   3.780   0.899  1.6377  1.8072 -0.3431
  660MOL0     H89069   9.936   3.937   0.848 -2.6443  0.3675  0.1877
  660MOL0     H89070  10.060   3.956   1.045 -0.2029 -2.3177 -0.7017
  660MOL0     H89071   9.946   3.879   1.142  0.3200  0.4455  0.1363
  660MOL0     H89072   9.863   4.118   0.988 -0.7575  0.4821  0.5776
  660MOL0     H89073   9.762   4.039   1.122  0.8760  3.6799  4.4615
  660MOL0     H89074  10.019   4.180   1.157  0.9735  0.4163  0.6149
  660MOL0     H89075   9.911   4.115   1.282 -1.8445  3.7487  0.9953
  660MOL0     H89076   9.830   4.332   1.089  0.4911 -0.4464 -1.6560
  660MOL0     H89077   9.724   4.239   1.211  1.3535  0.5424  0.8328
  660MOL0     H89078   9.980   4.386   1.271  1.5406 -1.2630  2.4828
  660MOL0     H89079   9.865   4.321   1.393 -0.3611  0.9735 -0.0420
  660MOL0     H89080   9.772   4.551   1.223  0.8570  1.5797  0.7910
  660MOL0     H89081   9.848   4.561   1.380 -0.7957 -0.6826  0.1447
  660MOL0     H89082   9.519   3.740   0.941 -1.6191  0.1051 -1.3121
  660MOL0     H89083   9.322   3.628   0.860  1.1584 -0.6776  0.8020
  660MOL0     H89084   8.946   3.586   0.773 -0.1517  1.3671 -2.0601
  660MOL0     H89085   8.733   3.435   0.764  0.1803  2.6882 -0.5526
  660MOL0     H89086   9.414   3.282   0.085  1.0547 -0.2535  0.4199
  660MOL0     H89087   9.620   3.314   0.164 -1.3023  0.6000  0.6136
  660MOL0     H89088  10.146   3.099   0.222  2.6624 -1.1219 -1.0953
  660MOL0     H89089  10.371   3.209   0.266  0.7970 -0.1193  1.0629
  660MOL0     H89090  10.463   3.608   0.096  2.5224  4.4910  0.9466
  660MOL0     H89091  10.409   3.644   0.259 -0.3428  0.8605 -0.7884
  660MOL0     H89092  10.624   3.549   0.339  4.0656  0.9782 -0.8596
  660MOL0     H89093  10.630   3.701   0.243  2.4581  0.0611 -2.5361
  660MOL0     H89094  10.691   3.621   0.039 -0.0630  2.2266  2.2198
  660MOL0     H89095  10.710   3.449   0.103  0.2022 -0.5593 -0.6435
  660MOL0     H89096  10.922   3.548   0.081 -0.0919  0.7540 -0.2752
  660MOL0     H89097  10.874   3.535   0.255 -0.7679  4.5205  1.7465
  660MOL0     H89098  10.982   3.929   0.198  3.3004 -1.1445  1.6400
  660MOL0     H89099  10.224   3.584   0.135 -1.9095  0.6184  2.4788
  660MOL0     H89100  10.020   3.478   0.072  0.7037  1.5099  0.9238
  661MOL0     O89101   2.262   4.265   7.128 -0.3443 -0.9500 -0.4821
  661MOL0     C89102   2.281   4.381   7.168  0.4773 -0.7955 -0.0663
  661MOL0     O89103   2.231   4.438   7.282 -0.4900 -1.1786 -0.0779
  661MOL0     C89104   2.123   4.382   7.347  0.0018  0.1730  1.1289
  661MOL0     C89105   2.107   4.249   7.355  0.6349 -0.8358 -0.2864
  661MOL0     C89106   1.991   4.185   7.402  0.1795 -0.0014  0.6023
  661MOL0     C89107   1.882   4.267   7.447 -0.0054 -0.5298 -0.4397
  661MOL0     O89108   1.755   4.228   7.488 -0.3256  0.0848  0.4478
  661MOL0     C89109   1.729   4.101   7.544 -1.0954  0.6926 -0.3677
  661MOL0     C89110   1.589   4.079   7.598  0.0554 -0.1555  0.4059
  661MOL0     C89111   1.472   4.111   7.520  0.0746  0.0335  0.0828
  661MOL0     C89112   1.342   4.110   7.598 -0.1989  0.1056 -1.0048
  661MOL0     C89113   1.232   4.138   7.499 -0.8276 -0.1174  0.2310
  661MOL0     C89114   1.148   4.021   7.455  0.1747  0.2518  0.1925
  661MOL0     C89115   1.231   3.918   7.370 -0.1657  0.3598  0.3398
  661MOL0     C89116   1.276   3.973   7.220 -0.4965  0.2835 -0.0398
  661MOL0     N89117   1.166   4.047   7.161 -0.1947  0.5792 -0.0591
  661MOL0     C89118   1.035   4.015   7.149  0.6535 -0.1036  0.4176
  661MOL0     C89119   0.982   4.095   7.054  1.0827 -0.3398  0.3408
  661MOL0     C89120   0.833   4.100   7.013 -0.9059 -0.1822 -0.2889
  661MOL0     C89121   0.793   4.253   7.033  0.1500  0.3050  0.4133
  661MOL0     C89122   0.644   4.291   6.998 -0.6287 -0.1263  0.4306
  661MOL0     C89123   0.606   4.431   7.040 -0.0959  0.2829  1.1093
  661MOL0     O89124   0.582   4.437   7.186  0.0261  0.4223  0.5006
  661MOL0     C89125   0.448   4.463   7.219 -0.7353  0.4490  0.2463
  661MOL0     C89126   0.422   4.518   7.341 -0.2159 -0.2642 -0.1447
  661MOL0     C89127   0.290   4.522   7.393 -0.7612 -0.8894  0.0140
  661MOL0     C89128   0.294   4.570   7.537  0.8360  0.0727 -0.3076
  661MOL0     C89129   0.181   4.483   7.314  0.4655  0.3664 -0.6169
  661MOL0     C89130   0.041   4.485   7.359 -0.3651  0.0014 -0.3936
  661MOL0     O89131  -0.036   4.367   7.343  0.1072  0.5782  0.3744
  661MOL0     C89132  -0.171   4.351   7.370  0.4403 -0.9650  0.1542
  661MOL0     C89133  -0.231   4.226   7.353 -0.0906  0.5377 -0.3072
  661MOL0     C89134  -0.373   4.200   7.360  0.1122  0.2458  0.4079
  661MOL0     C89135  -0.456   4.300   7.407  0.1473 -0.6428 -0.4595
  661MOL0     O89136  -0.586   4.263   7.426  0.0154 -0.5985  0.3423
  661MOL0     C89137  -0.683   4.361   7.400  0.4982 -0.4230  0.5093
  661MOL0     C89138  -0.825   4.302   7.414 -0.2542  0.4968 -0.8155
  661MOL0     C89139  -0.863   4.174   7.335  0.1810 -0.0931  0.4908
  661MOL0     C89140  -1.015   4.136   7.329  0.1307  0.9174 -0.2726
  661MOL0     C89141  -1.041   4.018   7.228 -0.0182 -0.2538 -0.3460
  661MOL0     C89142  -1.185   4.010   7.187  1.1543 -0.0335 -0.3440
  661MOL0     C89143  -1.261   3.875   7.200  0.3050 -0.3874  0.6559
  661MOL0     C89144  -1.339   3.870   7.331  0.6242  0.0829 -1.3031
  661MOL0    Cl89145  -1.239   3.911   7.471 -0.3240 -0.2931 -0.1222
  661MOL0     C89146  -0.399   4.431   7.429 -0.0051  0.2575 -0.3903
  661MOL0     C89147  -0.258   4.451   7.409  0.0838  0.8193  0.3813
  661MOL0     O89148   0.000   4.594   7.406  0.0520  0.2934 -0.1364
  661MOL0     C89149   0.209   4.419   7.192  0.1812 -0.1598  0.5984
  661MOL0     C89150   0.341   4.411   7.144  0.0899  0.2561  0.0729
  661MOL0     N89151   1.083   4.180   7.010 -0.1169 -0.7114 -0.0471
  661MOL0     N89152   1.187   4.153   7.082 -0.2068  0.0901 -0.7618
  661MOL0     C89153   1.894   4.404   7.429 -0.6138 -0.1944  0.3385
  661MOL0     C89154   2.016   4.466   7.379  0.9465  0.5181  0.1933
  661MOL0     C89155   2.358   4.473   7.080 -1.0423 -0.8460 -0.2966
  661MOL0     C89156   2.348   4.616   7.094  0.3215  0.7327 -0.4077
  661MOL0     C89157   2.427   4.706   7.021  0.0364 -0.8492 -0.6254
  661MOL0     C89158   2.520   4.653   6.932 -0.4676  0.2613  0.2890
  661MOL0     O89159   2.601   4.751   6.872  0.0739 -0.0578  0.1609
  661MOL0     C89160   2.718   4.723   6.787  0.4857  0.1009 -0.2391
  661MOL0     C89161   2.755   4.845   6.714 -1.0706  0.1687  0.3828
  661MOL0     C89162   2.678   4.858   6.583  0.1171  0.6757  0.1517
  661MOL0     C89163   2.721   4.981   6.504 -0.0912 -0.1889 -1.1804
  661MOL0     C89164   2.651   5.096   6.554 -0.1833  0.4318 -0.3378
  661MOL0     C89165   2.610   5.202   6.602  0.1767  0.2319 -0.1341
  661MOL0     C89166   2.537   4.518   6.924  0.6453 -0.7705  0.6185
  661MOL0     C89167   2.456   4.428   6.987  0.1645  0.5202 -0.5164
  661MOL0     H89168   2.194   4.186   7.338  0.7446 -0.5796 -0.6955
  661MOL0     H89169   2.008   4.079   7.414  2.5973  0.5028  2.3971
  661MOL0     H89170   1.743   4.024   7.467  1.3573  0.6575  0.0307
  661MOL0     H89171   1.796   4.069   7.625 -1.9241 -3.1564 -1.0027
  661MOL0     H89172   1.573   3.976   7.632 -1.1417  0.5123  2.0039
  661MOL0     H89173   1.589   4.137   7.690  1.6056  0.1537  0.2432
  661MOL0     H89174   1.473   4.210   7.474  3.4003  0.0281 -0.0868
  661MOL0     H89175   1.460   4.044   7.434  2.1255 -1.7150  1.0418
  661MOL0     H89176   1.320   4.012   7.643  1.1991  0.4951  0.6715
  661MOL0     H89177   1.335   4.171   7.688 -2.5779 -0.7658 -0.5326
  661MOL0     H89178   1.169   4.217   7.542  1.1619  1.4392  0.4048
  661MOL0     H89179   1.268   4.184   7.406  2.0048  0.0385  1.3238
  661MOL0     H89180   1.115   3.963   7.542 -0.3775  2.2483  1.3733
  661MOL0     H89181   1.060   4.062   7.404  0.3508 -1.1629 -1.3288
  661MOL0     H89182   1.312   3.870   7.425 -3.3170 -5.8548  0.4810
  661MOL0     H89183   1.167   3.834   7.341 -1.9857  1.9667 -0.4925
  661MOL0     H89184   1.297   3.886   7.157  0.4194  0.8750 -0.5674
  661MOL0     H89185   1.371   4.027   7.227 -0.2275 -0.2503  0.6318
  661MOL0     H89186   0.975   3.944   7.206 -1.1204  0.3184 -0.8464
  661MOL0     H89187   0.824   4.065   6.910  0.8389  3.0673 -1.7084
  661MOL0     H89188   0.770   4.040   7.080 -1.8032  0.1541 -0.8277
  661MOL0     H89189   0.861   4.317   6.975  0.9507  0.0578  1.0514
  661MOL0     H89190   0.802   4.275   7.140 -1.8165  1.1143  0.4565
  661MOL0     H89191   0.574   4.220   7.043 -0.2820 -1.1410 -0.5611
  661MOL0     H89192   0.627   4.284   6.890  1.4798  2.4160 -0.1552
  661MOL0     H89193   0.524   4.470   6.979  0.4648  0.2357  0.3257
  661MOL0     H89194   0.690   4.498   7.021 -0.0181  0.1234  0.8933
  661MOL0     H89195   0.497   4.560   7.408  0.6786 -0.3030 -1.0963
  661MOL0     H89196   0.257   4.673   7.530  0.0144 -0.1944  0.0001
  661MOL0     H89197   0.224   4.500   7.584 -0.0043 -0.4719 -2.2477
  661MOL0     H89198   0.395   4.571   7.578  1.0666 -0.6296 -0.8417
  661MOL0     H89199  -0.178   4.134   7.330 -2.7620 -2.0574  2.9130
  661MOL0     H89200  -0.409   4.098   7.350  2.7351 -0.4634 -4.9796
  661MOL0     H89201  -0.681   4.440   7.475 -2.6256 -1.4873  1.8951
  661MOL0     H89202  -0.670   4.401   7.299 -3.2798  1.9607  0.7416
  661MOL0     H89203  -0.841   4.276   7.519 -0.3880 -2.0550 -1.3888
  661MOL0     H89204  -0.887   4.385   7.382 -0.1966  0.3934 -1.1940
  661MOL0     H89205  -0.828   4.079   7.375  0.3838 -0.5624 -0.7703
  661MOL0     H89206  -0.828   4.186   7.232  1.0947  2.9989  1.0575
  661MOL0     H89207  -1.055   4.114   7.428 -0.5575 -0.3746 -0.8106
  661MOL0     H89208  -1.071   4.222   7.290 -0.0002  0.9174 -0.0870
  661MOL0     H89209  -1.020   3.923   7.279 -0.3476 -0.8162 -1.2435
  661MOL0     H89210  -0.979   4.029   7.139  1.9352 -2.2819  0.6525
  661MOL0     H89211  -1.244   4.088   7.238 -0.8759 -2.3961  1.1508
  661MOL0     H89212  -1.197   4.036   7.082  2.6780  1.0515 -0.2731
  661MOL0     H89213  -1.190   3.792   7.194  0.9451  0.2785 -2.5876
  661MOL0     H89214  -1.341   3.855   7.129  1.5440  0.1740 -0.9608
  661MOL0     H89215  -1.377   3.768   7.339  1.4435 -0.0947  0.9979
  661MOL0     H89216  -1.421   3.942   7.328  1.5447  1.5436  2.5102
  661MOL0     H89217  -0.451   4.521   7.461 -0.9549 -0.7578  1.0076
  661MOL0     H89218  -0.222   4.548   7.442 -0.1480  0.6275  1.2074
  661MOL0     H89219   0.130   4.374   7.132  1.3312 -1.4834  0.0142
  661MOL0     H89220   0.358   4.351   7.056  0.7726 -0.1023  0.4332
  661MOL0     H89221   1.808   4.465   7.451 -0.8140  0.4105 -1.8560
  661MOL0     H89222   2.016   4.570   7.347  1.8808  0.0588 -1.4344
  661MOL0     H89223   2.274   4.664   7.157 -2.2945  0.8678 -3.3235
  661MOL0     H89224   2.419   4.813   7.039  2.2071 -0.6929 -0.3728
  661MOL0     H89225   2.803   4.712   6.855  0.0184 -0.3800  0.2761
  661MOL0     H89226   2.719   4.634   6.723 -0.7088 -1.0616  1.2860
  661MOL0     H89227   2.860   4.826   6.690 -1.3758 -1.3182  0.1459
  661MOL0     H89228   2.749   4.929   6.784  1.5327 -1.0303  2.1754
  661MOL0     H89229   2.571   4.857   6.606  0.1718 -0.9710  0.4181
  661MOL0     H89230   2.698   4.762   6.535 -1.6416 -0.8654  2.3213
  661MOL0     H89231   2.697   4.959   6.400  0.8230 -5.8581 -0.5080
  661MOL0     H89232   2.828   4.994   6.523 -0.5193  1.0003  0.5805
  661MOL0     H89233   2.580   5.295   6.646 -3.1823 -1.4738  1.6065
  661MOL0     H89234   2.617   4.488   6.858  1.5189  0.0706  1.2700
  661MOL0     H89235   2.474   4.321   6.981 -0.8022  0.2696  0.6969
  662MOL0     O89236  10.274   8.768   7.576  0.0231 -0.5023 -0.3380
  662MOL0     C89237  10.304   8.883   7.552  0.3275 -0.3228 -0.1250
  662MOL0     O89238  10.309   8.929   7.430 -0.4723 -0.3905 -0.7051
  662MOL0     C89239  10.198   8.938   7.355 -0.3538  0.3908  0.9970
  662MOL0     C89240  10.202   9.038   7.250  0.3346  0.1832  0.5509
  662MOL0     C89241  10.089   9.063   7.165  0.0755  0.0048  0.7982
  662MOL0     C89242   9.973   8.985   7.172  1.1530  0.3124 -0.9546
  662MOL0     O89243   9.862   8.997   7.088  0.5111 -0.5920  0.0529
  662MOL0     C89244   9.860   9.111   6.995 -0.5441 -0.6952 -0.6561
  662MOL0     C89245   9.750   9.106   6.894  0.3759  0.5199 -0.0491
  662MOL0     C89246   9.619   9.052   6.961  0.1293 -0.1917 -0.0177
  662MOL0     C89247   9.524   9.021   6.846  0.5053  0.4268  0.2070
  662MOL0     C89248   9.397   8.950   6.891  0.2521  0.4912 -0.2345
  662MOL0     C89249   9.335   8.874   6.773  0.1540  0.4727  0.6364
  662MOL0     C89250   9.205   8.799   6.835 -0.2988  0.7513  1.1048
  662MOL0     C89251   9.136   8.723   6.719  0.0803 -0.1519  0.1978
  662MOL0     N89252   9.069   8.805   6.616  0.4527  0.6360  0.1119
  662MOL0     C89253   8.995   8.921   6.642 -0.2784  0.2678 -0.4678
  662MOL0     C89254   8.926   8.949   6.527 -0.8780  0.7596  0.0510
  662MOL0     C89255   8.837   9.072   6.518 -0.1606 -0.5530  0.7298
  662MOL0     C89256   8.701   9.044   6.599 -0.5581 -0.4427 -0.0843
  662MOL0     C89257   8.628   8.923   6.540 -0.9391 -0.2487  0.6289
  662MOL0     C89258   8.479   8.914   6.561  0.8208 -0.4291 -0.2280
  662MOL0     O89259   8.455   8.866   6.694 -0.3463 -0.0987 -0.2185
  662MOL0     C89260   8.332   8.813   6.709 -0.1426  0.3110 -0.4791
  662MOL0     C89261   8.307   8.679   6.717  0.1695  0.1241  0.3350
  662MOL0     C89262   8.179   8.618   6.735  0.2482  0.0139  0.1976
  662MOL0     C89263   8.178   8.468   6.782  0.9743 -0.1372  0.2883
  662MOL0     C89264   8.069   8.712   6.742 -0.0836  0.4340 -0.6994
  662MOL0     C89265   7.933   8.668   6.767  1.0443 -0.2417 -0.0888
  662MOL0     O89266   7.839   8.763   6.781 -0.0162  0.0633 -0.2393
  662MOL0     C89267   7.704   8.739   6.820  0.3758 -0.4918  0.5490
  662MOL0     C89268   7.666   8.773   6.952 -0.5305 -0.3056 -0.8389
  662MOL0     C89269   7.534   8.742   6.994 -0.5346  0.0898  0.6136
  662MOL0     C89270   7.435   8.693   6.910  0.3710  0.1722  0.1236
  662MOL0     O89271   7.307   8.650   6.940  0.5318 -0.5269 -0.7049
  662MOL0     C89272   7.267   8.670   7.081 -0.1478  0.4404  0.0056
  662MOL0     C89273   7.125   8.620   7.102 -0.1909 -0.2712 -0.1991
  662MOL0     C89274   7.117   8.467   7.051 -0.4662 -0.3565 -0.4831
  662MOL0     C89275   6.988   8.403   7.099 -0.3284  0.3193  1.5457
  662MOL0     C89276   6.867   8.473   7.029 -0.0758 -0.4274  0.5315
  662MOL0     C89277   6.729   8.429   7.067 -0.1848 -0.2298  0.0489
  662MOL0     C89278   6.633   8.536   7.002  0.0858  0.2012 -0.6842
  662MOL0     C89279   6.487   8.515   7.030 -0.1349  0.3542 -1.2736
  662MOL0    Cl89280   6.403   8.673   7.008  0.3660  0.0385 -0.1186
  662MOL0     C89281   7.480   8.661   6.776 -0.4046  0.2695  0.3311
  662MOL0     C89282   7.614   8.678   6.735 -0.5084 -0.4402  0.4338
  662MOL0     O89283   7.911   8.547   6.773  0.0727  0.3246  0.0173
  662MOL0     C89284   8.100   8.848   6.726 -1.2420 -0.5193 -0.2546
  662MOL0     C89285   8.226   8.898   6.722 -0.2816 -0.0358 -0.6350
  662MOL0     N89286   8.964   8.853   6.434  1.0378  0.0034 -0.3155
  662MOL0     N89287   9.047   8.771   6.486 -0.2409 -0.1359 -0.3857
  662MOL0     C89288   9.972   8.891   7.279 -0.4097  0.4175 -1.1170
  662MOL0     C89289  10.081   8.863   7.368  0.2993  0.5291  0.8645
  662MOL0     C89290  10.367   8.954   7.662  0.7613 -1.0179  0.0094
  662MOL0     C89291  10.400   8.895   7.786 -0.2538 -0.5994  0.4030
  662MOL0     C89292  10.458   8.972   7.886  0.1551  0.2975 -0.5778
  662MOL0     C89293  10.510   9.100   7.864 -0.4131  0.2958  0.4294
  662MOL0     O89294  10.602   9.155   7.948 -0.0821 -0.2103 -0.0306
  662MOL0     C89295  10.675   9.061   8.036 -0.2741 -0.2385 -0.1069
  662MOL0     C89296  10.807   9.133   8.071  0.8540  0.1260 -0.0361
  662MOL0     C89297  10.907   9.024   8.113 -0.5968 -0.6428  0.4466
  662MOL0     C89298  11.014   9.089   8.200 -0.2959  0.3294 -0.3973
  662MOL0     C89299  11.082   9.186   8.116 -0.1053  0.3333  0.7322
  662MOL0     C89300  11.135   9.271   8.044 -0.0234  0.0135 -1.2099
  662MOL0     C89301  10.479   9.158   7.737  0.5230  0.5447 -0.0811
  662MOL0     C89302  10.411   9.085   7.638  0.0798  0.4433  0.9606
  662MOL0     H89303  10.293   9.095   7.235  0.2639 -0.0734 -0.9428
  662MOL0     H89304  10.101   9.144   7.094  2.5503 -1.9837 -1.2692
  662MOL0     H89305   9.852   9.205   7.052 -1.2765 -1.2639  0.2128
  662MOL0     H89306   9.957   9.125   6.947 -0.7522 -1.3001 -1.2575
  662MOL0     H89307   9.734   9.200   6.841  0.2632  1.1114  1.0179
  662MOL0     H89308   9.774   9.036   6.813 -1.5685  1.6337 -1.6801
  662MOL0     H89309   9.635   8.964   7.025 -0.2502  0.0339  0.3987
  662MOL0     H89310   9.573   9.125   7.028  1.5448 -1.1792  2.1758
  662MOL0     H89311   9.488   9.111   6.796 -1.0789 -1.5402 -2.4397
  662MOL0     H89312   9.567   8.960   6.766  1.9873 -1.6236  2.4310
  662MOL0     H89313   9.438   8.887   6.970 -0.3961  1.3065  0.7737
  662MOL0     H89314   9.325   9.021   6.933 -1.8649 -0.4043 -2.1172
  662MOL0     H89315   9.296   8.939   6.694  3.0696 -0.1062 -1.4266
  662MOL0     H89316   9.393   8.806   6.710 -1.7117 -0.7751  0.1599
  662MOL0     H89317   9.230   8.719   6.905 -0.4496 -2.1887 -1.9323
  662MOL0     H89318   9.134   8.869   6.880 -1.5308  1.8081 -2.1725
  662MOL0     H89319   9.054   8.658   6.754 -1.4404  0.7730 -1.5039
  662MOL0     H89320   9.208   8.667   6.659 -0.3355  0.1329 -0.5673
  662MOL0     H89321   8.998   8.977   6.735  0.1567  0.0828 -0.3699
  662MOL0     H89322   8.891   9.159   6.556  0.6098  0.1710 -1.7903
  662MOL0     H89323   8.807   9.091   6.414 -0.0588 -0.5637  0.6973
  662MOL0     H89324   8.639   9.134   6.591 -1.2068 -1.0577 -2.5816
  662MOL0     H89325   8.719   9.031   6.707  0.5574  2.1885  0.1331
  662MOL0     H89326   8.673   8.830   6.577  1.1445  0.4571  0.0286
  662MOL0     H89327   8.641   8.920   6.431  0.5061  1.3396  0.7086
  662MOL0     H89328   8.423   8.851   6.491 -0.5688 -0.4097  0.8182
  662MOL0     H89329   8.441   9.016   6.555  1.5791 -0.1738 -0.8495
  662MOL0     H89330   8.398   8.619   6.724 -0.6671 -1.5491 -1.8938
  662MOL0     H89331   8.132   8.472   6.881 -0.5302  0.4970 -0.4015
  662MOL0     H89332   8.119   8.417   6.705 -4.0147  4.1344  0.6895
  662MOL0     H89333   8.276   8.422   6.797  0.6799 -0.7432  0.3624
  662MOL0     H89334   7.739   8.824   7.014 -2.1705  2.4915 -1.0788
  662MOL0     H89335   7.517   8.750   7.101 -0.1159 -2.2200  0.9126
  662MOL0     H89336   7.337   8.616   7.146  0.7595 -0.1463 -1.4277
  662MOL0     H89337   7.263   8.776   7.107 -0.3331 -0.1046  2.4306
  662MOL0     H89338   7.094   8.628   7.207 -1.5425 -0.6876 -0.5457
  662MOL0     H89339   7.063   8.694   7.050 -1.4101 -0.6150  0.7184
  662MOL0     H89340   7.203   8.410   7.087  0.7126  2.0344  0.7822
  662MOL0     H89341   7.115   8.473   6.941 -2.0658  0.0785 -0.4526
  662MOL0     H89342   7.006   8.301   7.064 -0.7830  1.2597 -1.8005
  662MOL0     H89343   6.972   8.414   7.206 -1.6806  0.5229  1.3428
  662MOL0     H89344   6.863   8.465   6.920 -1.1755  2.5045  0.2682
  662MOL0     H89345   6.887   8.580   7.039  1.9539 -0.3944 -2.6148
  662MOL0     H89346   6.714   8.335   7.013  2.2912 -0.1509 -0.9046
  662MOL0     H89347   6.707   8.414   7.173  2.0212 -3.0098  0.2176
  662MOL0     H89348   6.634   8.533   6.892 -2.7932  0.9038 -0.8158
  662MOL0     H89349   6.657   8.638   7.032 -2.5985  1.0270 -1.0180
  662MOL0     H89350   6.469   8.486   7.134 -0.3147  3.4999 -0.3220
  662MOL0     H89351   6.446   8.437   6.965  1.4081 -1.6609  0.0383
  662MOL0     H89352   7.416   8.628   6.695  1.3248  1.3386 -1.5760
  662MOL0     H89353   7.646   8.648   6.636  1.4653  1.4642  0.4194
  662MOL0     H89354   8.013   8.914   6.724  0.6889  2.2057 -0.3767
  662MOL0     H89355   8.237   9.006   6.713 -0.4373  0.2788  2.1212
  662MOL0     H89356   9.875   8.850   7.308 -0.6776  2.5310  1.2899
  662MOL0     H89357  10.073   8.783   7.441  2.2926 -1.3376 -0.8193
  662MOL0     H89358  10.373   8.792   7.806  1.9484 -1.1618  0.7124
  662MOL0     H89359  10.478   8.914   7.975  1.9647  2.0164  0.2312
  662MOL0     H89360  10.626   9.038   8.132  3.1120  0.7488  2.0170
  662MOL0     H89361  10.699   8.973   7.975  0.0951 -0.7494  0.7582
  662MOL0     H89362  10.809   9.212   8.146  3.0353 -0.6303  0.7956
  662MOL0     H89363  10.828   9.180   7.974 -0.2861 -2.1443 -1.4582
  662MOL0     H89364  10.940   8.980   8.018  0.0375  1.8417 -0.5546
  662MOL0     H89365  10.867   8.947   8.179 -0.2298 -1.4111 -0.2113
  662MOL0     H89366  11.086   9.018   8.241  0.1536  1.3450  0.6426
  662MOL0     H89367  10.975   9.141   8.289  0.4329  1.1515 -0.5404
  662MOL0     H89368  11.187   9.348   7.990  0.0688 -0.8428 -2.3763
  662MOL0     H89369  10.532   9.251   7.720  0.0883  1.0467  1.1867
  662MOL0     H89370  10.380   9.127   7.543 -0.9564 -4.3390 -1.1131
  663MOL0     O89371   7.640   9.393   0.350  0.3109 -0.0691  0.6123
  663MOL0     C89372   7.651   9.512   0.362 -0.0221 -0.0686 -0.6871
  663MOL0     O89373   7.554   9.612   0.358 -0.5487  0.0618  0.1072
  663MOL0     C89374   7.432   9.566   0.333  0.7026 -0.3988 -0.6026
  663MOL0     C89375   7.394   9.532   0.202  0.1604 -0.1169 -0.7057
  663MOL0     C89376   7.272   9.474   0.170  1.0758 -0.0698 -0.4282
  663MOL0     C89377   7.175   9.454   0.273 -0.0072 -0.1045  0.2708
  663MOL0     O89378   7.055   9.402   0.238  0.5471  0.3573  0.1682
  663MOL0     C89379   6.935   9.403   0.320  0.6092  0.2267 -0.2387
  663MOL0     C89380   6.885   9.546   0.300 -0.5392  0.5731 -0.6453
  663MOL0     C89381   6.753   9.567   0.371  0.3711  0.4625  0.0390
  663MOL0     C89382   6.637   9.466   0.334 -0.3618  0.5207 -0.4182
  663MOL0     C89383   6.506   9.481   0.424 -0.3997 -0.0618 -0.9805
  663MOL0     C89384   6.434   9.606   0.374  1.0658 -0.0749  0.5315
  663MOL0     C89385   6.300   9.633   0.445 -0.8310  0.2320  0.6003
  663MOL0     C89386   6.259   9.779   0.457 -0.4270  0.2884  0.3155
  663MOL0     N89387   6.121   9.794   0.510  0.4074  0.5161  0.2444
  663MOL0     C89388   6.015   9.741   0.446 -0.0636  0.3557 -0.5251
  663MOL0     C89389   5.910   9.762   0.526 -0.3373 -1.2982 -0.1881
  663MOL0     C89390   5.765   9.724   0.504 -0.1501  0.1746 -0.2556
  663MOL0     C89391   5.664   9.825   0.459 -0.1297  0.4491 -0.5253
  663MOL0     C89392   5.604   9.915   0.579  0.3114  0.0547  0.3667
  663MOL0     C89393   5.513  10.018   0.525 -0.7783  0.3041  0.5235
  663MOL0     O89394   5.396   9.946   0.475  0.2724 -0.5246 -0.1351
  663MOL0     C89395   5.280  10.015   0.476 -0.2853 -0.8300 -0.0311
  663MOL0     C89396   5.268  10.155   0.478  0.3845  0.1680 -0.3157
  663MOL0     C89397   5.149  10.222   0.472 -0.1955 -1.1342  0.5774
  663MOL0     C89398   5.154  10.372   0.470 -1.0178 -0.5614  0.2175
  663MOL0     C89399   5.036  10.148   0.445 -0.8536  0.1397 -0.8011
  663MOL0     C89400   4.901  10.205   0.450 -0.4182 -1.0073  0.5108
  663MOL0     O89401   4.807  10.158   0.368  0.4333 -0.2400  0.2230
  663MOL0     C89402   4.686  10.219   0.356 -0.1652 -0.3979 -0.1737
  663MOL0     C89403   4.683  10.362   0.344  0.4579 -0.5122  0.1667
  663MOL0     C89404   4.559  10.429   0.330  0.2672 -0.1126 -0.6975
  663MOL0     C89405   4.443  10.350   0.337  0.3658 -0.8711 -0.5906
  663MOL0     O89406   4.326  10.419   0.321  0.2341 -0.0113  0.3126
  663MOL0     C89407   4.200  10.349   0.333 -0.1950  0.5945 -0.9106
  663MOL0     C89408   4.074  10.427   0.282 -0.1559 -0.5331  0.2998
  663MOL0     C89409   3.948  10.346   0.323 -0.9429 -0.6440  0.8604
  663MOL0     C89410   3.825  10.405   0.257 -0.9027  0.3999  0.6470
  663MOL0     C89411   3.698  10.352   0.322 -0.6461  0.0066 -0.1558
  663MOL0     C89412   3.579  10.431   0.279  0.0442  0.0102  0.4325
  663MOL0     C89413   3.460  10.389   0.371 -0.6085 -0.2342  0.7274
  663MOL0     C89414   3.331  10.462   0.328  0.5293  0.0554  0.9638
  663MOL0    Cl89415   3.197  10.368   0.422 -0.2097  0.0526  0.2580
  663MOL0     C89416   4.459  10.215   0.374  0.3821  0.6708  0.4343
  663MOL0     C89417   4.583  10.149   0.377  1.0179  0.1188  0.1678
  663MOL0     O89418   4.877  10.288   0.541  0.2851  0.2836  0.4356
  663MOL0     C89419   5.052  10.007   0.420 -0.4936 -0.9214 -0.2334
  663MOL0     C89420   5.174   9.943   0.430 -0.4551 -0.4496 -0.4190
  663MOL0     N89421   5.957   9.851   0.617  0.0396  0.2376  0.2467
  663MOL0     N89422   6.081   9.865   0.617  0.0069  0.5837  0.2565
  663MOL0     C89423   7.217   9.492   0.405 -0.2569  0.0161 -0.1021
  663MOL0     C89424   7.340   9.538   0.434 -0.6394  0.3416 -0.0108
  663MOL0     C89425   7.790   9.542   0.386  0.3049 -0.7645  0.1438
  663MOL0     C89426   7.816   9.679   0.392  1.2214 -0.1592  0.8739
  663MOL0     C89427   7.948   9.725   0.426  0.8378  0.6090  0.3586
  663MOL0     C89428   8.053   9.644   0.452  0.3696 -0.3606 -0.1194
  663MOL0     O89429   8.174   9.698   0.491 -0.2503  0.4673 -0.5987
  663MOL0     C89430   8.285   9.619   0.542 -0.2206  0.4340  0.1913
  663MOL0     C89431   8.281   9.617   0.690  0.0404 -0.1922 -0.1518
  663MOL0     C89432   8.290   9.751   0.763 -0.6170 -0.5012  0.4147
  663MOL0     C89433   8.424   9.819   0.716 -0.2497 -0.2869  0.7877
  663MOL0     C89434   8.460   9.937   0.795 -0.4327 -0.0556 -0.0757
  663MOL0     C89435   8.481  10.036   0.859 -0.3067 -0.5137  0.3797
  663MOL0     C89436   8.032   9.508   0.427 -0.0652  0.1633 -0.2543
  663MOL0     C89437   7.896   9.457   0.410  0.1925  0.0760  0.1077
  663MOL0     H89438   7.473   9.538   0.127  0.6225  0.0803 -0.2033
  663MOL0     H89439   7.245   9.447   0.068  2.2027 -0.5644 -0.6154
  663MOL0     H89440   6.868   9.332   0.270  2.1340 -0.4024 -1.5064
  663MOL0     H89441   6.957   9.380   0.424  1.4812  1.3437 -0.1556
  663MOL0     H89442   6.960   9.609   0.348 -0.6934 -0.4695  1.0255
  663MOL0     H89443   6.886   9.582   0.197  1.7761  0.2466 -0.7929
  663MOL0     H89444   6.771   9.572   0.479  1.4081  1.2414 -0.1507
  663MOL0     H89445   6.716   9.659   0.324 -1.8865 -0.5038 -0.1871
  663MOL0     H89446   6.618   9.479   0.227 -1.8589  0.6535 -0.1546
  663MOL0     H89447   6.675   9.364   0.346 -0.4353  0.5431  0.0100
  663MOL0     H89448   6.434   9.399   0.427 -2.0679  1.2585 -2.3804
  663MOL0     H89449   6.529   9.504   0.529 -0.6737  0.0783 -0.9499
  663MOL0     H89450   6.499   9.692   0.393  0.5203  0.4282  0.1691
  663MOL0     H89451   6.415   9.599   0.266  0.9912 -1.8348  0.6241
  663MOL0     H89452   6.218   9.570   0.409 -2.8367  1.0075  3.4694
  663MOL0     H89453   6.312   9.590   0.545 -0.9532 -2.8388 -0.5946
  663MOL0     H89454   6.257   9.823   0.356 -1.4742 -1.4475 -0.4722
  663MOL0     H89455   6.323   9.836   0.525 -1.4080  0.9389  0.7167
  663MOL0     H89456   6.020   9.687   0.352  2.4794  0.5772 -0.6001
  663MOL0     H89457   5.745   9.650   0.426 -0.7661  0.7888 -0.6890
  663MOL0     H89458   5.731   9.674   0.596 -0.2547 -2.1023 -1.4556
  663MOL0     H89459   5.575   9.771   0.424  1.5643 -1.2838 -2.4549
  663MOL0     H89460   5.699   9.890   0.379  1.4776  0.7332  0.3681
  663MOL0     H89461   5.680   9.969   0.636 -1.4471  3.8483 -0.6105
  663MOL0     H89462   5.547   9.853   0.649  0.4118 -1.1543 -0.5765
  663MOL0     H89463   5.548  10.074   0.438 -2.3330 -2.4363 -2.0297
  663MOL0     H89464   5.493  10.087   0.608 -2.5068  1.5031 -0.8133
  663MOL0     H89465   5.353  10.215   0.508 -0.4335  1.1924 -0.0084
  663MOL0     H89466   5.094  10.410   0.553 -0.4029 -0.8381  0.8023
  663MOL0     H89467   5.255  10.409   0.489 -1.7352  3.0339 -2.0210
  663MOL0     H89468   5.111  10.404   0.375 -0.0473  0.3263  0.0620
  663MOL0     H89469   4.776  10.418   0.350  1.5781 -2.3888  3.5171
  663MOL0     H89470   4.545  10.534   0.307 -0.1658 -0.2255 -0.9649
  663MOL0     H89471   4.208  10.259   0.272  2.8634 -1.1572  1.7576
  663MOL0     H89472   4.201  10.324   0.439  3.4349  1.4942 -0.5990
  663MOL0     H89473   4.065  10.531   0.315 -2.3634  0.0433 -1.8216
  663MOL0     H89474   4.082  10.416   0.173  0.1957 -1.7200  0.4387
  663MOL0     H89475   3.937  10.358   0.432  2.5252  1.6967  1.1125
  663MOL0     H89476   3.960  10.243   0.289  0.6833  0.8075 -3.7337
  663MOL0     H89477   3.844  10.512   0.267 -0.0110  0.1755  1.6357
  663MOL0     H89478   3.820  10.382   0.150  0.8696  0.0374  0.6156
  663MOL0     H89479   3.718  10.378   0.426  2.4313  1.0283 -0.8951
  663MOL0     H89480   3.678  10.245   0.311  0.5864 -0.3339  0.6626
  663MOL0     H89481   3.600  10.539   0.282  0.6846 -0.0193 -1.6796
  663MOL0     H89482   3.558  10.405   0.175 -0.8592 -2.4087  1.1614
  663MOL0     H89483   3.480  10.418   0.475 -0.1247  1.3911  0.2135
  663MOL0     H89484   3.444  10.281   0.378  1.4579 -0.6800 -0.5781
  663MOL0     H89485   3.315  10.457   0.220 -0.4404  3.8460  0.7799
  663MOL0     H89486   3.338  10.570   0.347  1.1643  0.0668  0.6901
  663MOL0     H89487   4.367  10.162   0.398 -0.1166  2.2412  2.1632
  663MOL0     H89488   4.598  10.045   0.405  0.5500 -0.2604 -0.9416
  663MOL0     H89489   4.964   9.948   0.396 -1.4782  0.3386  0.1551
  663MOL0     H89490   5.182   9.836   0.412  1.0581 -0.5534  0.6496
  663MOL0     H89491   7.154   9.478   0.492 -1.0452 -0.7038 -0.7783
  663MOL0     H89492   7.362   9.560   0.538  0.4204  1.8616 -0.5216
  663MOL0     H89493   7.738   9.752   0.376  0.7602 -0.6767  0.7560
  663MOL0     H89494   7.953   9.832   0.443 -3.4182  0.8896  0.8804
  663MOL0     H89495   8.275   9.519   0.499  1.0581  0.2648  0.2632
  663MOL0     H89496   8.384   9.652   0.509 -0.6154 -0.9441 -2.6975
  663MOL0     H89497   8.361   9.552   0.726  1.9952  1.5755 -1.0225
  663MOL0     H89498   8.184   9.571   0.707  0.3667 -2.4048 -3.2816
  663MOL0     H89499   8.291   9.740   0.871 -2.9330 -0.2137  0.5266
  663MOL0     H89500   8.198   9.806   0.738 -1.0642 -1.4900 -0.1600
  663MOL0     H89501   8.428   9.838   0.608  2.0728 -2.9164  0.3092
  663MOL0     H89502   8.515   9.760   0.729  1.6277  1.6430 -2.1156
  663MOL0     H89503   8.517  10.122   0.912  0.0133 -0.7396  0.5293
  663MOL0     H89504   8.114   9.439   0.445  0.1834  1.0502  2.4657
  663MOL0     H89505   7.875   9.351   0.405 -3.7071  0.7502 -3.3677
  664MOL0     O89506   5.011  11.011  11.309  0.5793 -0.5397  0.0919
  664MOL0     C89507   4.984  10.967  11.199 -0.4802 -0.1872 -0.0187
  664MOL0     O89508   4.867  10.957  11.139 -0.3378  0.3262  0.7496
  664MOL0     C89509   4.747  10.999  11.192 -0.4850  0.1828  0.2590
  664MOL0     C89510   4.723  11.103  11.292  0.0956 -0.0913  0.2368
  664MOL0     C89511   4.594  11.138  11.331 -0.0815 -0.1843  0.0875
  664MOL0     C89512   4.486  11.069  11.279  0.5010  0.6987  0.6334
  664MOL0     O89513   4.357  11.090  11.319 -0.2523  1.1291 -0.3208
  664MOL0     C89514   4.326  11.174  11.424  0.0586 -0.3565 -0.0325
  664MOL0     C89515   4.181  11.164  11.462  0.3232 -0.7086 -0.8075
  664MOL0     C89516   4.168  11.219  11.606 -0.6229 -0.5378 -0.1008
  664MOL0     C89517   4.028  11.196  11.666  0.5709  0.1609  0.1468
  664MOL0     C89518   4.022  11.261  11.801 -0.6776 -0.7989 -0.5535
  664MOL0     C89519   3.881  11.275  11.855  0.1448  1.2345  0.0336
  664MOL0     C89520   3.823  11.147  11.912 -0.7142  0.1552  0.6796
  664MOL0     C89521   3.674  11.141  11.936  0.2214 -0.9362 -0.2362
  664MOL0     N89522   3.603  11.260  11.991  0.1248 -0.6468 -0.4232
  664MOL0     C89523   3.515  11.334  11.925 -0.8802 -0.2938  0.6716
  664MOL0     C89524   3.464  11.406  12.019  0.2156  0.4021 -0.3209
  664MOL0     C89525   3.362  11.522  12.010 -0.2332 -0.2952 -0.6699
  664MOL0     C89526   3.232  11.488  12.073 -1.2653  0.0383 -0.2340
  664MOL0     C89527   3.145  11.382  12.006 -0.3840  0.2776  0.0535
  664MOL0     C89528   3.054  11.317  12.115  0.4683 -0.6721 -0.0342
  664MOL0     O89529   2.975  11.422  12.173 -1.1836  0.7581  0.9128
  664MOL0     C89530   2.854  11.387  12.232  0.2413  1.4397  0.4608
  664MOL0     C89531   2.814  11.260  12.272  1.1314 -0.7740  0.4404
  664MOL0     C89532   2.692  11.243  12.342 -0.2127  0.5197  0.1959
  664MOL0     C89533   2.643  11.101  12.361  0.5981 -0.3975 -1.0817
  664MOL0     C89534   2.613  11.351  12.379 -0.6282  0.4477 -0.0399
  664MOL0     C89535   2.492  11.334  12.476  0.1699  0.0525 -0.4061
  664MOL0     O89536   2.403  11.443  12.469 -0.2057  0.3785  0.2659
  664MOL0     C89537   2.281  11.433  12.533  0.5151  0.8503  0.2246
  664MOL0     C89538   2.212  11.311  12.540  0.7959 -0.0835 -0.1054
  664MOL0     C89539   2.082  11.306  12.595 -0.5168  0.1780  0.4333
  664MOL0     C89540   2.020  11.419  12.644  0.8134 -1.0495 -0.0458
  664MOL0     O89541   1.894  11.430  12.702 -0.4440  0.8844  0.4394
  664MOL0     C89542   1.830  11.300  12.718  0.1348 -0.1600 -0.3719
  664MOL0     C89543   1.710  11.329  12.807 -0.2168 -0.0724  0.1733
  664MOL0     C89544   1.734  11.340  12.957  1.7098  0.5033  0.2376
  664MOL0     C89545   1.611  11.350  13.043  1.2953  0.1806 -0.5691
  664MOL0     C89546   1.577  11.210  13.086  0.5545 -0.3043 -0.0417
  664MOL0     C89547   1.435  11.205  13.150 -0.7894  0.0378 -0.0878
  664MOL0     C89548   1.389  11.061  13.191 -0.7788 -1.0562  0.2653
  664MOL0     C89549   1.457  11.031  13.331 -0.1463  0.8038 -0.3768
  664MOL0    Cl89550   1.365  10.884  13.373 -0.2216  0.0818 -0.7719
  664MOL0     C89551   2.089  11.537  12.643  0.0763 -0.0940 -0.2479
  664MOL0     C89552   2.217  11.539  12.600 -0.1959 -0.0447 -0.1699
  664MOL0     O89553   2.486  11.242  12.555 -0.0149  0.4563 -0.0705
  664MOL0     C89554   2.653  11.478  12.337  0.7187  0.2330  0.7394
  664MOL0     C89555   2.774  11.493  12.264 -0.0614  0.0736 -0.2476
  664MOL0     N89556   3.507  11.372  12.144  0.5361 -0.1848 -0.1130
  664MOL0     N89557   3.598  11.280  12.130 -0.5473 -0.3615  0.1927
  664MOL0     C89558   4.502  10.979  11.171  0.0486 -0.1193  0.5695
  664MOL0     C89559   4.632  10.937  11.139  0.0635 -0.5805 -0.0029
  664MOL0     C89560   5.095  10.918  11.122 -0.0205 -0.1535  0.0196
  664MOL0     C89561   5.103  10.933  10.979 -0.6213 -0.3450 -0.5008
  664MOL0     C89562   5.213  10.879  10.905 -0.7587  0.2221 -0.4943
  664MOL0     C89563   5.324  10.825  10.979 -0.4338 -1.2778  0.2954
  664MOL0     O89564   5.436  10.765  10.922 -0.6038  0.1540  0.2027
  664MOL0     C89565   5.444  10.760  10.779 -0.2748  0.2406 -0.2350
  664MOL0     C89566   5.554  10.666  10.738  0.6194 -0.4464  0.3293
  664MOL0     C89567   5.564  10.650  10.585 -0.6186  0.7762 -0.6967
  664MOL0     C89568   5.613  10.774  10.499  0.6028 -0.1271  0.6685
  664MOL0     C89569   5.502  10.863  10.467  0.3835 -0.2904 -0.5030
  664MOL0     C89570   5.411  10.948  10.438 -0.2531 -0.2351 -0.0275
  664MOL0     C89571   5.312  10.821  11.118 -0.3053 -0.2375  0.4702
  664MOL0     C89572   5.203  10.869  11.192 -0.1043  0.5187 -0.1558
  664MOL0     H89573   4.808  11.162  11.327  2.8451 -3.2923 -0.5577
  664MOL0     H89574   4.590  11.222  11.400  0.5602 -1.2259  1.4315
  664MOL0     H89575   4.386  11.145  11.511 -1.0973 -1.5116  0.4190
  664MOL0     H89576   4.350  11.278  11.399  0.8991  0.3729  3.2891
  664MOL0     H89577   4.119  11.224  11.394 -0.7097  0.9995  1.5101
  664MOL0     H89578   4.138  11.065  11.448  0.8898 -1.0172 -0.4019
  664MOL0     H89579   4.248  11.172  11.664 -0.3180  2.3639  2.0686
  664MOL0     H89580   4.186  11.327  11.604  2.2769 -0.8711  2.0958
  664MOL0     H89581   3.957  11.247  11.600 -0.4774  1.1804  1.9912
  664MOL0     H89582   3.996  11.092  11.682 -1.9130  1.1837  2.4565
  664MOL0     H89583   4.078  11.195  11.867  1.5519  0.5727 -0.9524
  664MOL0     H89584   4.056  11.365  11.801 -0.1965 -0.8769  2.6880
  664MOL0     H89585   3.883  11.359  11.925 -2.4607  0.3744  1.2482
  664MOL0     H89586   3.811  11.300  11.775 -2.2662 -3.3672  0.3713
  664MOL0     H89587   3.845  11.062  11.848  3.7237  1.2490  0.4587
  664MOL0     H89588   3.872  11.128  12.008  0.0298 -0.2634  0.2225
  664MOL0     H89589   3.644  11.058  12.000 -2.0014  1.4429  2.0196
  664MOL0     H89590   3.634  11.129  11.835 -2.1356 -1.3096  0.6896
  664MOL0     H89591   3.486  11.342  11.821 -0.7140  0.9513  0.6990
  664MOL0     H89592   3.398  11.615  12.055  2.5998 -0.1202 -3.0208
  664MOL0     H89593   3.329  11.542  11.907  1.5444  1.8281 -0.9141
  664MOL0     H89594   3.166  11.575  12.062 -0.4954  0.4062 -2.5498
  664MOL0     H89595   3.259  11.476  12.178  1.9001  1.5582 -0.7566
  664MOL0     H89596   3.207  11.296  11.976  0.9667  1.5876 -1.0692
  664MOL0     H89597   3.089  11.420  11.920 -0.0464  2.3220  0.6854
  664MOL0     H89598   3.112  11.279  12.199 -0.1405  1.5941  1.5071
  664MOL0     H89599   2.999  11.233  12.070  0.1069  0.6463 -2.2119
  664MOL0     H89600   2.879  11.182  12.234  0.8839  0.0702 -1.8712
  664MOL0     H89601   2.641  11.073  12.467  0.0693  2.3534 -0.2769
  664MOL0     H89602   2.544  11.086  12.317 -0.0257 -0.4945  0.3065
  664MOL0     H89603   2.711  11.031  12.311 -1.2759 -3.3004  0.1926
  664MOL0     H89604   2.254  11.215  12.510  0.2121  0.1099 -1.5941
  664MOL0     H89605   2.041  11.206  12.610  0.8301 -0.6759 -1.2313
  664MOL0     H89606   1.801  11.256  12.622  2.3505  2.5757 -2.4682
  664MOL0     H89607   1.901  11.235  12.769 -0.0139  0.2600  0.3775
  664MOL0     H89608   1.671  11.424  12.768 -0.0920  1.6026  3.7599
  664MOL0     H89609   1.636  11.251  12.786  0.3547 -1.3087  2.5091
  664MOL0     H89610   1.803  11.425  12.966  1.6580  0.3891  2.2166
  664MOL0     H89611   1.796  11.258  12.993  1.6439 -0.4761 -1.8059
  664MOL0     H89612   1.624  11.424  13.122  0.5499 -1.3461  1.0585
  664MOL0     H89613   1.530  11.397  12.987  0.4231 -0.0952  0.4222
  664MOL0     H89614   1.656  11.172  13.150  0.4145 -0.2898  0.1415
  664MOL0     H89615   1.567  11.150  12.995 -1.8869 -0.2663  0.1317
  664MOL0     H89616   1.423  11.276  13.233 -4.2602  0.3301 -0.6967
  664MOL0     H89617   1.365  11.246  13.076 -1.2897 -1.1352 -0.2879
  664MOL0     H89618   1.423  10.989  13.117  0.7635  0.4775 -0.5807
  664MOL0     H89619   1.280  11.060  13.206 -0.8202  1.9156  0.7419
  664MOL0     H89620   1.438  11.101  13.413 -3.2011  0.5272 -0.7392
  664MOL0     H89621   1.564  11.005  13.330  0.3220  2.6025 -1.8331
  664MOL0     H89622   2.041  11.623  12.690  2.5942  1.4207 -0.2637
  664MOL0     H89623   2.276  11.630  12.609 -0.4160  0.1377 -0.5288
  664MOL0     H89624   2.591  11.561  12.369 -4.0197 -3.7093  2.9587
  664MOL0     H89625   2.810  11.591  12.232  1.0771  0.0623  0.9565
  664MOL0     H89626   4.419  10.933  11.119  1.1942 -0.9429 -0.5953
  664MOL0     H89627   4.635  10.857  11.066 -2.2532 -0.3065 -0.4692
  664MOL0     H89628   5.019  10.975  10.926 -2.2142 -0.6719  1.6425
  664MOL0     H89629   5.201  10.901  10.800 -1.7922 -0.6441 -0.5725
  664MOL0     H89630   5.354  10.718  10.732  1.9736 -0.7850 -4.1079
  664MOL0     H89631   5.458  10.859  10.735 -0.8754 -0.3205 -1.8019
  664MOL0     H89632   5.554  10.567  10.785  1.0892 -0.8688 -0.5346
  664MOL0     H89633   5.638  10.722  10.780 -0.5031  0.0516  2.0371
  664MOL0     H89634   5.463  10.618  10.556 -0.8350 -0.4619  1.2187
  664MOL0     H89635   5.632  10.567  10.563 -1.0703  0.5294 -1.1948
  664MOL0     H89636   5.665  10.739  10.409  1.1413 -0.0766  0.9554
  664MOL0     H89637   5.692  10.827  10.553  2.4308  0.1955 -2.1135
  664MOL0     H89638   5.334  11.021  10.424  0.8377  1.1908  1.1427
  664MOL0     H89639   5.396  10.776  11.170  0.7788  0.8622 -0.2794
  664MOL0     H89640   5.194  10.848  11.298 -3.4218 -2.2421 -0.7992
  665MOL0     O89641   8.999   9.357  10.722  0.4582  0.3173  0.2193
  665MOL0     C89642   9.029   9.334  10.606 -0.1572 -0.1579 -0.2783
  665MOL0     O89643   8.987   9.413  10.500  0.4102  0.3286  0.1215
  665MOL0     C89644   8.892   9.511  10.522  0.8740 -0.3468  0.2640
  665MOL0     C89645   8.912   9.603  10.620  0.2894 -0.3556  0.1241
  665MOL0     C89646   8.818   9.698  10.651  0.5734 -0.5237  0.0728
  665MOL0     C89647   8.708   9.720  10.564  0.0936  0.0110 -0.8417
  665MOL0     O89648   8.616   9.815  10.593  0.8310  0.0478  0.2341
  665MOL0     C89649   8.486   9.759  10.630 -0.5668 -0.6424 -0.2503
  665MOL0     C89650   8.401   9.868  10.689  0.4584 -0.1640 -0.3963
  665MOL0     C89651   8.260   9.811  10.732 -0.4949 -1.8062  0.3695
  665MOL0     C89652   8.158   9.923  10.759  0.1545 -0.5310  0.0262
  665MOL0     C89653   8.058   9.900  10.867  0.1149  0.8127  0.0424
  665MOL0     C89654   7.960   9.799  10.818  0.1692 -0.1664  0.0560
  665MOL0     C89655   7.877   9.745  10.939 -0.0965  0.0668 -0.2052
  665MOL0     C89656   7.763   9.642  10.897  0.3432  0.1417 -0.6262
  665MOL0     N89657   7.630   9.702  10.846 -0.6012  0.3318 -1.0714
  665MOL0     C89658   7.528   9.729  10.928  0.6143 -0.0689  0.0417
  665MOL0     C89659   7.428   9.767  10.847  0.4803 -0.2846  0.4019
  665MOL0     C89660   7.289   9.790  10.894 -0.0011 -0.1761 -0.1929
  665MOL0     C89661   7.187   9.790  10.781  0.0418  0.2242  0.6630
  665MOL0     C89662   7.040   9.803  10.837  0.1417  0.5573 -0.3155
  665MOL0     C89663   6.925   9.820  10.728  0.2807 -0.4193  0.1582
  665MOL0     O89664   6.803   9.844  10.800  0.3793 -0.6726  0.3201
  665MOL0     C89665   6.687   9.879  10.740 -0.2070 -0.3755  0.0181
  665MOL0     C89666   6.660   9.889  10.597 -0.1929  0.2534  0.0659
  665MOL0     C89667   6.530   9.907  10.546  0.5083 -0.4008  0.7009
  665MOL0     C89668   6.503   9.892  10.396  0.1356  0.0790 -0.3496
  665MOL0     C89669   6.420   9.925  10.638  0.6898  0.8138 -0.0082
  665MOL0     C89670   6.284   9.966  10.587  0.3135  0.6501 -0.8117
  665MOL0     O89671   6.177   9.906  10.649  0.4455 -0.6933  0.6162
  665MOL0     C89672   6.043   9.924  10.613 -0.7618 -0.0202 -0.0838
  665MOL0     C89673   6.001   9.931  10.483  0.0496 -0.0331 -0.0421
  665MOL0     C89674   5.873   9.983  10.448 -1.1984  0.6316  1.0284
  665MOL0     C89675   5.776  10.004  10.549 -0.1191  0.1737 -0.0033
  665MOL0     O89676   5.646  10.044  10.533  0.1992 -0.6331  0.5862
  665MOL0     C89677   5.590  10.048  10.401  0.3421 -0.0697 -0.1152
  665MOL0     C89678   5.444  10.110  10.408 -0.0557  0.8959  0.3244
  665MOL0     C89679   5.426  10.216  10.521 -0.0001  0.3924  0.5815
  665MOL0     C89680   5.292  10.284  10.509 -0.9159 -0.4181  0.5253
  665MOL0     C89681   5.261  10.365  10.638  0.2862  0.8598  0.1961
  665MOL0     C89682   5.108  10.396  10.634 -0.4203 -0.8252 -0.0554
  665MOL0     C89683   5.068  10.462  10.504  0.4364  0.2944 -0.0895
  665MOL0     C89684   4.934  10.524  10.530  0.8638  0.0509  0.1332
  665MOL0    Cl89685   4.876  10.632  10.393  0.5898 -0.0426 -0.0408
  665MOL0     C89686   5.825   9.982  10.680 -0.6892 -0.4824 -0.2879
  665MOL0     C89687   5.950   9.940  10.713 -0.6954  0.0278 -0.1626
  665MOL0     O89688   6.282  10.056  10.511  0.5542 -0.7743  0.1437
  665MOL0     C89689   6.446   9.923  10.778 -0.7216  0.0838 -0.0684
  665MOL0     C89690   6.576   9.896  10.827 -0.7489  0.1273  0.0824
  665MOL0     N89691   7.469   9.768  10.718 -0.1444  0.1547  0.1004
  665MOL0     N89692   7.593   9.728  10.719 -0.4923  0.0702  0.4387
  665MOL0     C89693   8.698   9.633  10.451 -0.1165 -0.7299 -0.7738
  665MOL0     C89694   8.793   9.535  10.428 -0.1662  0.3863  0.3271
  665MOL0     C89695   9.122   9.226  10.569 -0.5085  0.0520 -0.1644
  665MOL0     C89696   9.122   9.180  10.430 -0.3389  0.4318  0.2973
  665MOL0     C89697   9.205   9.072  10.385 -0.4647  0.4487  0.2564
  665MOL0     C89698   9.287   9.008  10.477  0.1796  0.3191 -0.4408
  665MOL0     O89699   9.373   8.906  10.465 -0.4975 -0.0926  0.5214
  665MOL0     C89700   9.401   8.870  10.331 -0.1269  0.3082 -0.3237
  665MOL0     C89701   9.498   8.968  10.273  0.2035  0.1534  0.7726
  665MOL0     C89702   9.558   8.937  10.133 -0.1387  0.6482  0.5630
  665MOL0     C89703   9.628   9.053  10.071 -0.4421  0.4948 -0.3615
  665MOL0     C89704   9.531   9.160  10.062  0.1291  0.2771  0.1778
  665MOL0     C89705   9.440   9.231  10.026 -0.2561 -0.3867 -0.2790
  665MOL0     C89706   9.288   9.058  10.609 -0.2412  0.9075  0.6134
  665MOL0     C89707   9.203   9.164  10.658 -0.2057 -0.5216  0.6940
  665MOL0     H89708   9.002   9.592  10.679 -1.6913 -2.4406  3.0143
  665MOL0     H89709   8.829   9.758  10.741  1.3462 -0.8688  0.2150
  665MOL0     H89710   8.447   9.718  10.536 -0.8863 -3.5372  1.0240
  665MOL0     H89711   8.486   9.665  10.688  3.0222 -0.8597 -0.3727
  665MOL0     H89712   8.449   9.919  10.773 -0.5351 -0.4401  0.3577
  665MOL0     H89713   8.380   9.945  10.614  0.3410 -0.5582 -0.7696
  665MOL0     H89714   8.214   9.742  10.660  0.1052 -2.4365  0.5801
  665MOL0     H89715   8.271   9.746  10.819  1.4218 -0.9798  0.7892
  665MOL0     H89716   8.214  10.012  10.789  2.9727 -1.8013 -1.1076
  665MOL0     H89717   8.110   9.958  10.667  2.0116  1.7320 -0.1801
  665MOL0     H89718   8.108   9.867  10.959 -1.9237 -0.7803  0.6591
  665MOL0     H89719   7.998   9.988  10.890 -3.0177 -1.6019  1.8362
  665MOL0     H89720   7.887   9.845  10.750 -1.8118 -1.1994  1.3689
  665MOL0     H89721   8.017   9.717  10.773  1.2374  0.0600  0.9770
  665MOL0     H89722   7.948   9.707  11.014 -1.3488  2.7317  2.5442
  665MOL0     H89723   7.831   9.822  11.002  1.3667 -1.4200  2.9271
  665MOL0     H89724   7.747   9.575  10.983 -0.2447  0.6596 -0.3213
  665MOL0     H89725   7.810   9.588  10.814 -0.2608  0.2718 -1.0546
  665MOL0     H89726   7.527   9.720  11.036  0.8831 -0.9780 -0.0218
  665MOL0     H89727   7.259   9.708  10.960  0.3827 -1.2863 -1.3547
  665MOL0     H89728   7.285   9.882  10.952 -0.6538  1.9575 -3.3746
  665MOL0     H89729   7.204   9.696  10.726 -0.2619 -1.9232  3.9359
  665MOL0     H89730   7.202   9.880  10.722 -0.1807  0.8510  1.5433
  665MOL0     H89731   7.036   9.891  10.902 -0.7902 -0.4279  1.0117
  665MOL0     H89732   7.020   9.717  10.902  0.1204  0.0988 -0.9250
  665MOL0     H89733   6.914   9.728  10.671  0.8868 -2.3470  2.9283
  665MOL0     H89734   6.946   9.904  10.661 -1.0049 -0.0147  0.2438
  665MOL0     H89735   6.740   9.881  10.525 -0.7738  1.5126 -0.7632
  665MOL0     H89736   6.571   9.823  10.345 -2.6364 -2.0506 -1.4293
  665MOL0     H89737   6.406   9.847  10.375 -0.0471 -0.0774  0.7439
  665MOL0     H89738   6.497   9.983  10.337 -0.2267 -0.2793 -0.8744
  665MOL0     H89739   6.070   9.911  10.401  0.0666 -0.5974  0.1097
  665MOL0     H89740   5.851   9.994  10.342  2.5267 -0.1140  0.0463
  665MOL0     H89741   5.654  10.110  10.337 -0.3326  0.7106 -0.0494
  665MOL0     H89742   5.592   9.951  10.351 -0.6306  1.2166 -2.8717
  665MOL0     H89743   5.427  10.161  10.313 -1.2010 -1.0893 -0.5905
  665MOL0     H89744   5.374  10.027  10.418  2.6883 -1.5243  0.7546
  665MOL0     H89745   5.504  10.293  10.525  2.1111 -1.6765  1.5896
  665MOL0     H89746   5.442  10.161  10.614  3.5371  1.6352  0.8460
  665MOL0     H89747   5.299  10.365  10.435  1.5507 -0.4985  0.5834
  665MOL0     H89748   5.221  10.208  10.477 -3.5786  1.5315  1.4396
  665MOL0     H89749   5.334  10.446  10.649  0.2691  0.9069 -0.0235
  665MOL0     H89750   5.275  10.307  10.729  0.2586  1.3202  0.4969
  665MOL0     H89751   5.055  10.300  10.640 -0.6892 -0.8223 -1.7712
  665MOL0     H89752   5.091  10.465  10.716  0.5750  0.1406 -0.6342
  665MOL0     H89753   5.058  10.391  10.421 -1.2788 -0.9721  1.1185
  665MOL0     H89754   5.132  10.544  10.468  1.3064 -0.3637 -0.0473
  665MOL0     H89755   4.955  10.597  10.609  1.8023  3.1022 -2.7204
  665MOL0     H89756   4.866  10.444  10.560  1.6676 -0.3823  0.8470
  665MOL0     H89757   5.755  10.003  10.760 -2.1948 -1.0029 -1.4138
  665MOL0     H89758   5.973   9.933  10.819 -1.2396 -2.1111 -0.1448
  665MOL0     H89759   6.371   9.936  10.856 -0.9492 -2.6425  0.2423
  665MOL0     H89760   6.608   9.890  10.930  2.5623  0.7099 -0.7998
  665MOL0     H89761   8.614   9.630  10.382  1.9781 -2.7975 -3.4918
  665MOL0     H89762   8.771   9.456  10.357 -1.7830 -1.0502  2.3026
  665MOL0     H89763   9.033   9.213  10.377 -1.8334 -0.9653  1.8147
  665MOL0     H89764   9.194   9.030  10.285  1.6375 -0.5625  0.4051
  665MOL0     H89765   9.450   8.773  10.343 -1.9319 -1.0577 -2.8396
  665MOL0     H89766   9.311   8.852  10.272 -1.0054  2.2875  0.3538
  665MOL0     H89767   9.580   8.977  10.345  2.7933  2.6103 -2.2068
  665MOL0     H89768   9.458   9.069  10.277  1.9870  0.8758  1.5794
  665MOL0     H89769   9.477   8.895  10.072  1.2424 -1.5260  0.1142
  665MOL0     H89770   9.634   8.859  10.148 -0.9500  0.4753  5.6467
  665MOL0     H89771   9.666   9.025   9.972  0.9195 -1.2504  0.5971
  665MOL0     H89772   9.708   9.079  10.140 -0.0255 -2.8794  0.6146
  665MOL0     H89773   9.358   9.293   9.996  1.2836  1.4599 -0.7903
  665MOL0     H89774   9.369   9.022  10.673  0.0373  1.9085  0.8373
  665MOL0     H89775   9.213   9.193  10.762 -0.5551  0.9956  0.3363
  666MOL0     O89776  10.089  10.433   5.329  0.5014 -0.2965 -0.0292
  666MOL0     C89777  10.147  10.537   5.297 -0.9674  0.3413 -0.2930
  666MOL0     O89778  10.100  10.658   5.279  0.5716  0.4767  0.9398
  666MOL0     C89779   9.968  10.671   5.245  0.8305  0.6454  0.0891
  666MOL0     C89780   9.903  10.781   5.312 -0.1102  0.7372  0.4575
  666MOL0     C89781   9.767  10.809   5.301 -0.3967  0.9245  0.0575
  666MOL0     C89782   9.696  10.730   5.212  0.1770  0.9196  0.1011
  666MOL0     O89783   9.556  10.731   5.191  0.9298 -0.8177  0.8512
  666MOL0     C89784   9.475  10.822   5.266  0.6579 -0.7676 -0.7455
  666MOL0     C89785   9.323  10.831   5.216  0.0584  0.3596  0.3283
  666MOL0     C89786   9.254  10.958   5.273 -0.4524  0.8679 -0.3576
  666MOL0     C89787   9.106  10.922   5.277  0.7892 -0.4173 -0.4523
  666MOL0     C89788   9.011  11.042   5.304 -0.8175  0.3539  0.2670
  666MOL0     C89789   8.863  10.998   5.338 -0.8405 -0.0442  0.4287
  666MOL0     C89790   8.798  10.917   5.224 -0.2786 -0.4031  0.0299
  666MOL0     C89791   8.654  10.902   5.271 -0.1788  0.8738  0.0882
  666MOL0     N89792   8.557  10.863   5.170  0.2405  0.5622 -0.2243
  666MOL0     C89793   8.539  10.931   5.048 -0.1973  0.7716 -0.3257
  666MOL0     C89794   8.429  10.874   4.993 -0.0617 -0.1519  0.2940
  666MOL0     C89795   8.365  10.902   4.858 -0.1983 -0.6677  0.0570
  666MOL0     C89796   8.287  11.032   4.857  0.3259 -1.2188  0.7633
  666MOL0     C89797   8.252  11.052   4.707 -0.2714 -0.1549 -0.2913
  666MOL0     C89798   8.152  11.169   4.695  0.6943 -0.6181  0.5573
  666MOL0     O89799   8.043  11.150   4.778  0.1600  1.1774 -0.4047
  666MOL0     C89800   7.931  11.083   4.722  0.0964 -0.4333 -0.2040
  666MOL0     C89801   7.933  11.027   4.603  0.5361  0.3520  0.8958
  666MOL0     C89802   7.819  10.966   4.555 -0.5648  0.1496 -0.2125
  666MOL0     C89803   7.843  10.896   4.417 -0.3263 -0.4979 -0.2767
  666MOL0     C89804   7.698  10.958   4.621  0.1920 -0.2725 -0.8478
  666MOL0     C89805   7.578  10.882   4.585 -0.4693  0.4815 -0.1147
  666MOL0     O89806   7.461  10.946   4.591 -0.3522 -0.5889 -0.2261
  666MOL0     C89807   7.348  10.906   4.528 -0.3439 -1.0818  0.1751
  666MOL0     C89808   7.346  10.862   4.402  0.0586 -0.3189  0.0409
  666MOL0     C89809   7.223  10.812   4.350 -0.5960  0.2108 -0.7415
  666MOL0     C89810   7.110  10.800   4.422 -0.6226  0.1793 -0.2107
  666MOL0     O89811   6.997  10.740   4.382 -0.4788  0.6321  0.1832
  666MOL0     C89812   7.002  10.675   4.258 -0.0469  0.6943 -0.3553
  666MOL0     C89813   6.859  10.636   4.227 -0.4612 -0.7321  0.8855
  666MOL0     C89814   6.772  10.764   4.207  0.8719 -0.1334 -0.3851
  666MOL0     C89815   6.626  10.713   4.177 -0.4205 -0.5892  0.6226
  666MOL0     C89816   6.522  10.815   4.226 -0.2113 -0.1134  0.6832
  666MOL0     C89817   6.541  10.958   4.172  0.1620 -0.3588  0.6573
  666MOL0     C89818   6.431  11.053   4.231  0.0550  0.0783  0.0423
  666MOL0     C89819   6.423  11.196   4.165  0.3102  0.1629 -0.3988
  666MOL0    Cl89820   6.367  11.182   3.991  0.4942 -0.3631 -0.1857
  666MOL0     C89821   7.116  10.844   4.555  0.4084  0.2182  1.1623
  666MOL0     C89822   7.236  10.899   4.607  0.4779  0.0400  0.3452
  666MOL0     O89823   7.594  10.769   4.544 -0.8129  0.2922 -0.4837
  666MOL0     C89824   7.698  11.020   4.742  0.3623  0.3051 -0.2838
  666MOL0     C89825   7.810  11.077   4.797 -0.1157 -0.0742 -0.1708
  666MOL0     N89826   8.378  10.780   5.081 -0.7111 -0.4151 -0.0590
  666MOL0     N89827   8.450  10.781   5.189  0.1036 -0.2164  0.9397
  666MOL0     C89828   9.764  10.635   5.127 -0.8809  0.1016  0.3852
  666MOL0     C89829   9.895  10.599   5.151 -0.0313  0.6821 -0.9209
  666MOL0     C89830  10.298  10.513   5.291 -0.0591 -0.7148  0.1463
  666MOL0     C89831  10.392  10.615   5.265  0.3151 -0.2844  0.4312
  666MOL0     C89832  10.531  10.589   5.269 -0.0362 -0.6917 -0.5101
  666MOL0     C89833  10.582  10.460   5.283 -0.5113 -0.0896  0.2688
  666MOL0     O89834  10.718  10.425   5.277  0.0681  0.1735 -0.5027
  666MOL0     C89835  10.819  10.520   5.238  0.6257  0.2779  0.8736
  666MOL0     C89836  10.874  10.588   5.369 -0.1748  0.3240 -0.2295
  666MOL0     C89837  10.968  10.703   5.324  0.6224  0.0079 -0.7457
  666MOL0     C89838  11.037  10.797   5.420  1.4426 -0.9037  0.7875
  666MOL0     C89839  11.111  10.730   5.526 -0.4735 -0.4339 -0.2640
  666MOL0     C89840  11.184  10.658   5.598  0.5523 -0.5504 -0.8590
  666MOL0     C89841  10.493  10.357   5.300  1.2974  0.4459 -0.1304
  666MOL0     C89842  10.357  10.376   5.308  0.1343 -0.6067  0.2330
  666MOL0     H89843   9.960  10.827   5.392  0.5599 -2.2648  1.8481
  666MOL0     H89844   9.729  10.887   5.366 -0.6793  2.4439 -1.8537
  666MOL0     H89845   9.484  10.793   5.371  0.8273  4.1877  0.8412
  666MOL0     H89846   9.510  10.925   5.264 -0.5084 -0.3583 -2.6297
  666MOL0     H89847   9.312  10.826   5.107  1.6536 -1.3360  0.1975
  666MOL0     H89848   9.273  10.741   5.250 -3.2754  1.3825 -1.4208
  666MOL0     H89849   9.301  10.979   5.369  0.1677 -2.3017  0.1261
  666MOL0     H89850   9.276  11.043   5.208  4.1308  1.4353  1.5424
  666MOL0     H89851   9.079  10.881   5.179 -0.2688 -0.3217 -0.2122
  666MOL0     H89852   9.092  10.835   5.342 -1.7626 -1.1653 -1.8525
  666MOL0     H89853   9.056  11.105   5.382  0.4837 -0.3174  0.0944
  666MOL0     H89854   9.019  11.092   5.208  1.2645 -0.1662  0.1143
  666MOL0     H89855   8.873  10.938   5.428  2.8223  0.4669  0.5135
  666MOL0     H89856   8.803  11.085   5.364  0.7247  1.4150 -0.5954
  666MOL0     H89857   8.807  10.968   5.127  0.9841  0.5893  0.6524
  666MOL0     H89858   8.847  10.820   5.222 -0.8164 -0.6728 -1.2098
  666MOL0     H89859   8.615  10.998   5.306  1.5081  0.2797  4.1189
  666MOL0     H89860   8.655  10.834   5.356 -0.1264 -0.1906 -0.7335
  666MOL0     H89861   8.604  11.006   5.005 -0.4453  1.9626  1.2649
  666MOL0     H89862   8.446  10.906   4.785  1.0487  0.5130  1.4285
  666MOL0     H89863   8.300  10.818   4.831  0.5235 -0.3277 -3.0075
  666MOL0     H89864   8.352  11.113   4.890  2.4391 -1.2860 -2.6988
  666MOL0     H89865   8.194  11.020   4.913  0.2363 -1.9526  0.4779
  666MOL0     H89866   8.202  10.965   4.664  1.6997 -1.8166  0.6585
  666MOL0     H89867   8.344  11.076   4.653  0.4648 -2.2353 -0.0184
  666MOL0     H89868   8.126  11.186   4.590 -1.1677 -1.5949  0.8047
  666MOL0     H89869   8.202  11.255   4.741  1.4384 -1.8671  2.2039
  666MOL0     H89870   8.022  11.018   4.542  0.0757  1.6653 -0.0005
  666MOL0     H89871   7.854  10.788   4.430 -3.7212 -1.1047 -1.4234
  666MOL0     H89872   7.771  10.918   4.338  2.0427 -1.0397 -2.7116
  666MOL0     H89873   7.934  10.934   4.371 -2.1238  1.5322 -2.3755
  666MOL0     H89874   7.435  10.864   4.339 -0.5480 -1.0370 -0.8517
  666MOL0     H89875   7.230  10.774   4.248 -4.0704 -1.5729 -0.4890
  666MOL0     H89876   7.039  10.730   4.171 -2.8402 -0.9953 -2.8043
  666MOL0     H89877   7.073  10.593   4.274  1.2938  2.0504  0.8761
  666MOL0     H89878   6.866  10.575   4.136  0.3391  2.0627 -1.0587
  666MOL0     H89879   6.812  10.574   4.305 -2.4694 -0.8895 -0.3655
  666MOL0     H89880   6.805  10.828   4.125  2.1666 -1.2258 -0.7525
  666MOL0     H89881   6.765  10.827   4.296  1.0463 -0.2866 -0.2612
  666MOL0     H89882   6.617  10.685   4.072  0.2493 -1.1403  0.7034
  666MOL0     H89883   6.614  10.621   4.235  0.9715 -0.1342  1.6969
  666MOL0     H89884   6.511  10.806   4.335 -1.0921  1.2545  0.7214
  666MOL0     H89885   6.433  10.787   4.170 -0.2777  0.6641  0.3916
  666MOL0     H89886   6.641  10.998   4.193  1.9918 -1.7456 -4.0056
  666MOL0     H89887   6.533  10.943   4.064 -0.2569  1.4497  0.4096
  666MOL0     H89888   6.468  11.068   4.333  4.5849  0.3091 -1.3961
  666MOL0     H89889   6.331  11.009   4.224 -0.4923  1.5448 -2.3438
  666MOL0     H89890   6.528  11.227   4.162  1.2511 -2.5143  1.3620
  666MOL0     H89891   6.353  11.263   4.218  0.5706  1.4075 -1.5771
  666MOL0     H89892   7.039  10.837   4.630 -1.0702 -2.2290 -0.4446
  666MOL0     H89893   7.243  10.945   4.705  2.1845  1.6272 -0.4639
  666MOL0     H89894   7.610  11.014   4.805 -0.4109  4.3851 -0.7007
  666MOL0     H89895   7.806  11.114   4.899  1.4953 -1.3072  0.3908
  666MOL0     H89896   9.703  10.584   5.053 -1.2258 -1.0425  1.4212
  666MOL0     H89897   9.930  10.515   5.090  0.2898 -1.9441  2.5725
  666MOL0     H89898  10.364  10.719   5.261  1.0688  0.0207  2.0430
  666MOL0     H89899  10.604  10.669   5.263 -0.4702  0.2672  4.0083
  666MOL0     H89900  10.885  10.472   5.165 -2.5674 -3.6326  0.1807
  666MOL0     H89901  10.774  10.598   5.175  0.9402  0.5507  0.9823
  666MOL0     H89902  10.923  10.512   5.431  0.7157  0.5014 -0.6912
  666MOL0     H89903  10.788  10.635   5.417 -0.8813  1.3071 -2.3241
  666MOL0     H89904  10.905  10.770   5.265 -2.5938 -1.9184  0.2634
  666MOL0     H89905  11.046  10.653   5.266  2.7660  1.7154  0.4835
  666MOL0     H89906  10.962  10.852   5.477  1.8152 -0.3428  0.7472
  666MOL0     H89907  11.097  10.872   5.367  0.3442 -0.2061  0.5015
  666MOL0     H89908  11.252  10.603   5.660 -0.6278 -0.3794  0.6784
  666MOL0     H89909  10.526  10.254   5.305 -1.4110 -0.5012 -0.2699
  666MOL0     H89910  10.291  10.290   5.317  0.5067 -0.7078  2.5924
  667MOL0     O89911  10.931  11.305   9.378 -0.5090 -0.4870  0.1103
  667MOL0     C89912  10.945  11.204   9.311 -0.3975 -0.4807 -0.3123
  667MOL0     O89913  10.842  11.125   9.260  0.3275  0.2825  0.2737
  667MOL0     C89914  10.712  11.162   9.272  0.0924  0.1245  0.5755
  667MOL0     C89915  10.629  11.055   9.285  0.4625 -0.5539 -0.1804
  667MOL0     C89916  10.489  11.076   9.269  0.3845 -0.0486 -0.5032
  667MOL0     C89917  10.438  11.209   9.256 -0.2531 -0.4535 -0.4323
  667MOL0     O89918  10.305  11.236   9.233  0.0056 -0.5524  0.5078
  667MOL0     C89919  10.213  11.136   9.270  0.5987  0.4344 -0.0556
  667MOL0     C89920  10.072  11.192   9.281  0.1645 -1.1158 -0.5515
  667MOL0     C89921   9.977  11.090   9.352  0.4281 -0.4571 -0.4244
  667MOL0     C89922   9.939  10.968   9.268 -0.0372 -0.0516 -0.0945
  667MOL0     C89923   9.874  10.876   9.366  0.3010  0.9199 -0.0166
  667MOL0     C89924   9.821  10.746   9.293 -0.0845 -0.2972  0.0787
  667MOL0     C89925   9.767  10.646   9.387  0.6441  0.8171 -0.4133
  667MOL0     C89926   9.622  10.667   9.426  0.1368 -1.0362 -0.0181
  667MOL0     N89927   9.587  10.546   9.509 -0.0734  0.2548 -0.4768
  667MOL0     C89928   9.570  10.420   9.454  0.2276  0.4643  0.7472
  667MOL0     C89929   9.550  10.336   9.562 -0.1853 -1.2842  0.1589
  667MOL0     C89930   9.519  10.186   9.551  0.7979  0.6794 -0.7336
  667MOL0     C89931   9.367  10.167   9.557  0.4406 -0.1824  0.1672
  667MOL0     C89932   9.284  10.248   9.666  0.5859 -0.3755 -0.0798
  667MOL0     C89933   9.130  10.224   9.656  0.4198 -0.2254  0.1314
  667MOL0     O89934   9.074  10.276   9.534  0.2520  0.1434 -0.6980
  667MOL0     C89935   8.942  10.242   9.497 -0.0529  0.0875 -0.6665
  667MOL0     C89936   8.896  10.310   9.384 -0.7113 -0.0925 -0.2205
  667MOL0     C89937   8.765  10.287   9.327 -0.1353 -0.3287  0.3428
  667MOL0     C89938   8.714  10.380   9.217  0.2684  0.3010  0.1589
  667MOL0     C89939   8.690  10.180   9.391  1.3013  0.0565  0.1705
  667MOL0     C89940   8.563  10.127   9.335  0.1406  0.0833 -0.4324
  667MOL0     O89941   8.552   9.994   9.317 -0.6190 -0.5011  0.4669
  667MOL0     C89942   8.440   9.954   9.239  0.3388 -0.4605 -0.2804
  667MOL0     C89943   8.438   9.916   9.109  0.6086  0.5200  0.0951
  667MOL0     C89944   8.320   9.877   9.051  0.7285 -0.3249 -0.1237
  667MOL0     C89945   8.195   9.873   9.120 -0.2515 -0.3197 -0.2113
  667MOL0     O89946   8.074   9.836   9.060 -0.6091  0.0253 -0.0024
  667MOL0     C89947   8.075   9.803   8.923 -0.3390 -0.0587  0.6481
  667MOL0     C89948   7.935   9.782   8.860  0.4843  0.5881 -0.6741
  667MOL0     C89949   7.843   9.703   8.953  0.1736 -0.3817 -0.1833
  667MOL0     C89950   7.703   9.687   8.896  0.0938 -0.2205 -0.3471
  667MOL0     C89951   7.604   9.633   9.006  0.3454 -0.2138  0.2105
  667MOL0     C89952   7.462   9.658   8.965 -0.4234  0.4416  0.6486
  667MOL0     C89953   7.364   9.584   9.048  0.3822  0.6433 -0.1893
  667MOL0     C89954   7.220   9.621   9.014  0.1918 -0.5017 -0.6767
  667MOL0    Cl89955   7.098   9.518   9.104  0.1892 -0.8468 -0.0419
  667MOL0     C89956   8.195   9.922   9.250 -0.6028  0.8347  0.7650
  667MOL0     C89957   8.313   9.958   9.312 -1.1945  0.5866  0.4433
  667MOL0     O89958   8.482  10.215   9.319 -0.0400 -0.1693  0.2898
  667MOL0     C89959   8.734  10.113   9.501  0.6876  0.3126  0.4583
  667MOL0     C89960   8.865  10.141   9.553 -0.1959  0.9475  0.3663
  667MOL0     N89961   9.550  10.420   9.675 -0.0583 -0.0976  0.0467
  667MOL0     N89962   9.583  10.542   9.642  0.3386  0.2327 -0.1892
  667MOL0     C89963  10.527  11.318   9.257 -1.1583  0.1345 -0.3772
  667MOL0     C89964  10.662  11.290   9.261 -0.2422  0.1764  0.4866
  667MOL0     C89965  11.077  11.150   9.318 -0.7944 -0.2243 -0.2252
  667MOL0     C89966  11.185  11.226   9.376  0.2685  0.2726  0.2316
  667MOL0     C89967  11.309  11.178   9.381 -0.9693 -0.3226  1.0140
  667MOL0     C89968  11.340  11.049   9.334 -0.1779  0.1681  0.5353
  667MOL0     O89969  11.467  10.991   9.335  0.0152 -0.0900 -0.1184
  667MOL0     C89970  11.574  11.093   9.318 -0.1967  0.2527  0.2735
  667MOL0     C89971  11.704  11.030   9.269  0.2223  0.4563  0.0272
  667MOL0     C89972  11.810  11.134   9.272  0.1243  0.0991  0.2974
  667MOL0     C89973  11.940  11.087   9.200  0.2749  0.3459  0.3613
  667MOL0     C89974  12.023  11.196   9.147 -0.2232  0.2793 -0.1558
  667MOL0     C89975  12.103  11.280   9.111  0.1439 -0.2859  0.3715
  667MOL0     C89976  11.238  10.967   9.285  0.2357  0.5018  0.3849
  667MOL0     C89977  11.103  11.011   9.280  0.4705  0.3113 -0.4615
  667MOL0     H89978  10.662  10.952   9.289  2.8260  0.1304  0.0490
  667MOL0     H89979  10.435  10.982   9.271 -2.0325  1.2674  0.1273
  667MOL0     H89980  10.193  11.070   9.185 -2.0944 -0.2076  0.9741
  667MOL0     H89981  10.238  11.079   9.360 -3.0163 -0.8438  0.2796
  667MOL0     H89982  10.075  11.288   9.334 -1.8922 -1.1008 -0.3967
  667MOL0     H89983  10.045  11.222   9.179  0.6669  2.2968  0.1975
  667MOL0     H89984  10.031  11.062   9.443 -0.9512 -1.5747  0.0893
  667MOL0     H89985   9.886  11.143   9.384  0.8607  0.6313 -0.9397
  667MOL0     H89986   9.871  10.995   9.186 -1.1620 -2.4136 -0.0158
  667MOL0     H89987  10.027  10.909   9.240 -1.2856 -3.1875  2.0738
  667MOL0     H89988   9.943  10.850   9.447  3.0916  1.8133 -1.9359
  667MOL0     H89989   9.788  10.923   9.415 -1.9027 -1.0207 -1.7631
  667MOL0     H89990   9.745  10.789   9.227 -1.8792 -1.9840  0.9677
  667MOL0     H89991   9.912  10.699   9.255  0.6783  0.3401  1.0302
  667MOL0     H89992   9.769  10.554   9.328  0.1038  1.5007 -1.5170
  667MOL0     H89993   9.829  10.639   9.477 -1.2148 -0.4920  0.8501
  667MOL0     H89994   9.555  10.683   9.341  0.2155  4.1018  0.5685
  667MOL0     H89995   9.620  10.759   9.485 -2.8695  0.4188 -2.1256
  667MOL0     H89996   9.555  10.401   9.348  3.2121  0.4799  0.2418
  667MOL0     H89997   9.550  10.129   9.463 -0.2120 -0.9137 -0.1063
  667MOL0     H89998   9.573  10.130   9.629  0.9254 -0.0076 -1.3083
  667MOL0     H89999   9.346  10.064   9.585 -3.5182  0.7649  1.2700
  667MOL0     H90000   9.316  10.194   9.464 -0.1879  2.2539  1.1262
  667MOL0     H90001   9.304  10.348   9.628  1.2239 -0.7775 -0.8203
  667MOL0     H90002   9.317  10.236   9.770 -1.5887 -0.3543  0.6714
  667MOL0     H90003   9.082  10.271   9.742 -0.7800  0.6081 -0.9698
  667MOL0     H90004   9.109  10.117   9.651 -2.8238  0.2962  0.4624
  667MOL0     H90005   8.954  10.390   9.339  0.3089 -1.3701 -1.2712
  667MOL0     H90006   8.625  10.440   9.238 -0.2657  0.3291 -1.9161
  667MOL0     H90007   8.794  10.451   9.192  0.6806 -0.4430 -0.6990
  667MOL0     H90008   8.689  10.331   9.122 -1.3255  0.9619  0.2064
  667MOL0     H90009   8.526   9.928   9.047  0.5557 -1.1049 -0.3499
  667MOL0     H90010   8.320   9.855   8.945 -3.4500  3.9639 -1.3893
  667MOL0     H90011   8.119   9.875   8.854 -0.8280 -0.1790  0.2089
  667MOL0     H90012   8.123   9.706   8.907  1.8443  1.3573 -2.3629
  667MOL0     H90013   7.887   9.877   8.836 -2.3345 -0.9634 -1.6024
  667MOL0     H90014   7.952   9.725   8.769 -1.5564  0.0286 -0.7438
  667MOL0     H90015   7.823   9.760   9.044  0.8239 -0.9358  0.3135
  667MOL0     H90016   7.890   9.605   8.965  1.2211  0.1396  0.0280
  667MOL0     H90017   7.671   9.787   8.865  0.1019  0.2256  1.0225
  667MOL0     H90018   7.701   9.632   8.801  0.1478 -0.8175 -0.0101
  667MOL0     H90019   7.617   9.676   9.105 -1.8551 -0.5781  0.7187
  667MOL0     H90020   7.610   9.524   9.012  0.1942 -0.1838  0.9850
  667MOL0     H90021   7.445   9.763   8.990  2.9102  0.9058  1.4219
  667MOL0     H90022   7.456   9.642   8.857  2.2260 -0.1812  0.5344
  667MOL0     H90023   7.381   9.583   9.156  1.6805 -0.6518 -0.3654
  667MOL0     H90024   7.383   9.479   9.021 -1.5020  0.2396 -0.0985
  667MOL0     H90025   7.200   9.622   8.907 -1.4226  2.7721 -0.4742
  667MOL0     H90026   7.200   9.718   9.062 -0.6719 -1.8684  1.9349
  667MOL0     H90027   8.102   9.934   9.305 -0.8493  1.0032  0.3171
  667MOL0     H90028   8.292   9.994   9.412 -3.6911  1.1796 -0.2202
  667MOL0     H90029   8.679  10.027   9.538 -1.5318  0.5905 -1.9673
  667MOL0     H90030   8.900  10.097   9.646  1.3852  2.0165  0.3200
  667MOL0     H90031  10.507  11.424   9.247  0.1189  0.1849 -3.0106
  667MOL0     H90032  10.727  11.375   9.246 -0.1674  0.1243  0.5156
  667MOL0     H90033  11.174  11.319   9.430  3.5242  1.4458 -0.8943
  667MOL0     H90034  11.388  11.232   9.432  1.1632 -2.7523  0.5243
  667MOL0     H90035  11.559  11.174   9.246 -0.7631  1.3904  1.6263
  667MOL0     H90036  11.576  11.135   9.419  0.4717 -1.5441  1.0590
  667MOL0     H90037  11.681  11.004   9.165  0.1689  3.1984 -0.7232
  667MOL0     H90038  11.727  10.939   9.326 -1.6632  1.3585  2.3793
  667MOL0     H90039  11.837  11.133   9.378  0.6626  1.5431  0.1911
  667MOL0     H90040  11.776  11.234   9.246 -0.7755 -0.4511 -0.7213
  667MOL0     H90041  11.900  11.030   9.116 -0.1592 -0.1706  0.9087
  667MOL0     H90042  11.996  11.027   9.272 -5.0867 -3.1239  2.2169
  667MOL0     H90043  12.186  11.345   9.090  0.4508 -0.9828 -0.6589
  667MOL0     H90044  11.265  10.866   9.254 -1.7786 -1.4928  4.3827
  667MOL0     H90045  11.022  10.950   9.242 -1.4814  2.4059  0.1652
  668MOL0     O90046   1.930   8.298   0.070  0.1829 -0.1995 -0.0994
  668MOL0     C90047   1.997   8.203   0.110 -0.1527  0.4750 -0.4692
  668MOL0     O90048   1.946   8.082   0.132 -0.3719 -0.5613  0.8131
  668MOL0     C90049   1.808   8.068   0.113  0.0641  0.2966 -0.3625
  668MOL0     C90050   1.728   8.055   0.229 -0.4717 -0.1903  0.5438
  668MOL0     C90051   1.593   8.024   0.213 -0.8423  0.7492 -0.2623
  668MOL0     C90052   1.548   7.984   0.092  0.8741 -0.2598  0.0110
  668MOL0     O90053   1.424   7.924   0.077 -0.9722 -0.2465  0.7160
  668MOL0     C90054   1.334   7.911   0.184 -0.2996  0.0992 -0.5931
  668MOL0     C90055   1.210   7.863   0.113  0.8320  0.1643 -0.9609
  668MOL0     C90056   1.098   7.850   0.206  0.8224  1.0254  0.5388
  668MOL0     C90057   1.045   7.984   0.258  0.0096  0.7726 -0.2846
  668MOL0     C90058   0.905   7.963   0.317  0.2963 -0.0168  0.1092
  668MOL0     C90059   0.904   7.903   0.456  0.7386  0.4655 -0.3159
  668MOL0     C90060   0.774   7.932   0.529 -0.3811  0.3172  0.3448
  668MOL0     C90061   0.660   7.856   0.461  0.3656 -0.1170 -0.1852
  668MOL0     N90062   0.533   7.878   0.540  0.3432 -0.5801 -1.0025
  668MOL0     C90063   0.421   7.944   0.483 -0.3395  0.3711  0.2384
  668MOL0     C90064   0.326   7.918   0.575  0.1618 -0.2808 -0.4882
  668MOL0     C90065   0.185   7.973   0.564  0.7615 -0.4021 -0.8089
  668MOL0     C90066   0.073   7.869   0.541  0.0418 -0.0756  0.5133
  668MOL0     C90067   0.019   7.805   0.665  0.6225 -0.2717 -0.3003
  668MOL0     C90068  -0.083   7.693   0.635  1.2018 -0.1943 -0.4250
  668MOL0     O90069  -0.207   7.763   0.633 -0.3632  0.2734  0.6238
  668MOL0     C90070  -0.308   7.691   0.677  0.7690 -0.4431  0.4880
  668MOL0     C90071  -0.409   7.630   0.592 -0.3454  0.0031 -1.2559
  668MOL0     C90072  -0.511   7.540   0.635 -0.3890  0.5577 -0.0876
  668MOL0     C90073  -0.585   7.474   0.524 -0.7803 -0.3539 -0.1871
  668MOL0     C90074  -0.532   7.521   0.777 -0.2061 -0.0688 -0.3488
  668MOL0     C90075  -0.634   7.425   0.829  0.3555 -0.0676  0.8469
  668MOL0     O90076  -0.708   7.488   0.928 -0.6754 -0.4006  0.1392
  668MOL0     C90077  -0.784   7.413   1.022  0.5124  0.5174 -0.4373
  668MOL0     C90078  -0.804   7.470   1.154  0.4733 -0.2619  0.0167
  668MOL0     C90079  -0.852   7.382   1.251 -0.3242  0.0292 -0.6387
  668MOL0     C90080  -0.893   7.254   1.225  0.1841 -0.3237  0.5157
  668MOL0     O90081  -0.948   7.177   1.322 -0.5617  0.2264 -0.0565
  668MOL0     C90082  -1.080   7.128   1.309  0.7478  0.4816 -0.7986
  668MOL0     C90083  -1.091   6.972   1.299  0.4366 -0.2942  0.4150
  668MOL0     C90084  -1.210   6.908   1.218 -1.1451 -0.0827 -0.0659
  668MOL0     C90085  -1.333   6.986   1.262  1.0213  0.2202 -0.1105
  668MOL0     C90086  -1.465   6.908   1.218 -0.6002 -0.5488 -0.1264
  668MOL0     C90087  -1.585   6.954   1.306 -0.2623 -0.1443  0.8218
  668MOL0     C90088  -1.705   6.874   1.261 -0.1280 -0.4088 -0.0868
  668MOL0     C90089  -1.826   6.956   1.285  0.0128  0.6043 -1.3737
  668MOL0    Cl90090  -1.852   7.098   1.169  0.2031 -0.3652  0.1879
  668MOL0     C90091  -0.899   7.216   1.096 -0.2230 -0.0224 -0.3423
  668MOL0     C90092  -0.838   7.287   0.995 -0.0293 -0.0352 -0.1963
  668MOL0     O90093  -0.631   7.307   0.794 -0.6670  0.7109  0.0763
  668MOL0     C90094  -0.441   7.586   0.863  0.3927  0.1313 -0.4394
  668MOL0     C90095  -0.337   7.673   0.812  0.4976 -0.2342 -0.7726
  668MOL0     N90096   0.369   7.837   0.673  0.5831 -0.1497  0.2409
  668MOL0     N90097   0.492   7.808   0.650  0.1839 -0.2430 -0.7944
  668MOL0     C90098   1.630   7.991  -0.026  0.1242  0.3382  0.2449
  668MOL0     C90099   1.764   8.036  -0.018 -0.3485  1.0744 -0.0215
  668MOL0     C90100   2.145   8.215   0.147  0.1512 -0.2759 -0.1802
  668MOL0     C90101   2.212   8.335   0.118 -0.3340  0.8239  0.3501
  668MOL0     C90102   2.351   8.335   0.134 -0.0624  0.1356  0.4421
  668MOL0     C90103   2.425   8.232   0.193  0.6332 -0.0852  0.0269
  668MOL0     O90104   2.559   8.238   0.218 -0.0207 -0.7840  0.1260
  668MOL0     C90105   2.622   8.357   0.260 -0.7477 -0.4158  0.1519
  668MOL0     C90106   2.768   8.318   0.297  0.0020  0.0866  0.2320
  668MOL0     C90107   2.851   8.237   0.193  0.9592 -0.3012 -0.4657
  668MOL0     C90108   2.999   8.222   0.227 -0.8338  0.4202  0.1493
  668MOL0     C90109   3.098   8.276   0.141  0.3081  0.0027  0.5555
  668MOL0     C90110   3.186   8.295   0.061  1.2877 -0.3862  0.8812
  668MOL0     C90111   2.354   8.115   0.221  0.2865  0.2412 -0.1815
  668MOL0     C90112   2.223   8.110   0.200  0.1272 -0.7444 -0.3054
  668MOL0     H90113   1.777   8.045   0.325  2.0588 -1.8369 -0.8071
  668MOL0     H90114   1.534   8.024   0.304 -2.5302 -1.6371 -1.2633
  668MOL0     H90115   1.367   7.834   0.254  1.4311  0.6574 -0.7420
  668MOL0     H90116   1.334   8.006   0.237 -0.4090  0.8734 -1.9233
  668MOL0     H90117   1.177   7.926   0.030  1.2185 -0.2513 -1.4337
  668MOL0     H90118   1.222   7.759   0.081 -0.1318 -0.1029 -0.4972
  668MOL0     H90119   1.024   7.797   0.146 -0.1300  2.3639  0.4996
  668MOL0     H90120   1.123   7.791   0.295 -2.1026  0.6825  1.2218
  668MOL0     H90121   1.111   8.035   0.329  0.4806 -0.2014 -0.0023
  668MOL0     H90122   1.032   8.040   0.165  1.8423 -1.0277 -1.7404
  668MOL0     H90123   0.866   8.066   0.322  1.8611  0.8160 -2.7190
  668MOL0     H90124   0.845   7.916   0.239  0.9233  0.7563 -0.8647
  668MOL0     H90125   0.931   7.797   0.447  2.2051  0.8937 -1.1794
  668MOL0     H90126   0.981   7.943   0.522  1.2526 -0.2420 -0.4767
  668MOL0     H90127   0.791   7.901   0.633 -0.0586  2.2637  0.9161
  668MOL0     H90128   0.764   8.041   0.524  3.4191  0.7822 -0.4609
  668MOL0     H90129   0.675   7.748   0.448 -1.0306 -0.0014 -4.1669
  668MOL0     H90130   0.644   7.898   0.361  2.5862 -2.1993 -1.5238
  668MOL0     H90131   0.410   7.999   0.390  1.4735  1.8681  0.8361
  668MOL0     H90132   0.170   8.021   0.661  1.4839  1.6641 -1.6528
  668MOL0     H90133   0.189   8.049   0.485  1.7669  0.4049 -0.0153
  668MOL0     H90134   0.110   7.789   0.476  2.0262 -1.4843  3.2017
  668MOL0     H90135  -0.015   7.916   0.495 -1.5446 -4.1207 -1.0530
  668MOL0     H90136  -0.031   7.885   0.721 -0.1625  1.0049 -2.6989
  668MOL0     H90137   0.095   7.764   0.731  0.4546  0.2937  0.2605
  668MOL0     H90138  -0.079   7.618   0.715  1.7049  2.8025  2.5782
  668MOL0     H90139  -0.050   7.642   0.544 -0.3149 -1.6063 -0.2314
  668MOL0     H90140  -0.399   7.644   0.485  2.6038  1.2542 -0.9176
  668MOL0     H90141  -0.692   7.476   0.546 -0.2277 -0.6197  2.9034
  668MOL0     H90142  -0.563   7.514   0.424 -0.2904 -1.3247 -0.4842
  668MOL0     H90143  -0.551   7.370   0.528  3.2460  0.8275  0.8384
  668MOL0     H90144  -0.779   7.575   1.169 -1.1902 -0.0668  1.9095
  668MOL0     H90145  -0.851   7.426   1.350  1.0315  3.6457 -2.0521
  668MOL0     H90146  -1.127   7.166   1.400  1.9020 -2.0161  0.9543
  668MOL0     H90147  -1.124   7.178   1.222 -1.5819 -0.2279 -0.1156
  668MOL0     H90148  -0.997   6.938   1.256 -0.1220  0.1881 -1.2653
  668MOL0     H90149  -1.098   6.940   1.403  0.6961 -0.6542  0.3224
  668MOL0     H90150  -1.217   6.805   1.255 -0.4991 -0.1945 -0.2507
  668MOL0     H90151  -1.190   6.907   1.111  0.7693 -1.5843  0.2554
  668MOL0     H90152  -1.337   6.993   1.371 -4.1255  2.8655 -0.2103
  668MOL0     H90153  -1.336   7.087   1.221 -1.7780  1.0523  1.8585
  668MOL0     H90154  -1.436   6.803   1.234 -0.1354 -0.5474 -0.9072
  668MOL0     H90155  -1.495   6.909   1.113  4.5486 -0.2682 -1.9019
  668MOL0     H90156  -1.564   6.936   1.412 -2.2284 -3.1013  0.8453
  668MOL0     H90157  -1.594   7.063   1.303  1.6052  0.0992  2.2422
  668MOL0     H90158  -1.712   6.777   1.312  0.8902 -1.1018 -1.1916
  668MOL0     H90159  -1.704   6.842   1.156 -0.4300 -0.1198 -0.1777
  668MOL0     H90160  -1.811   6.994   1.387  1.2158  0.0116 -1.3160
  668MOL0     H90161  -1.906   6.882   1.287  2.3243 -2.0497 -0.7627
  668MOL0     H90162  -0.954   7.124   1.080  1.8227 -1.4326  0.3494
  668MOL0     H90163  -0.838   7.250   0.893  0.6364 -3.2203  0.8265
  668MOL0     H90164  -0.446   7.575   0.971 -0.2172  1.5197 -0.3095
  668MOL0     H90165  -0.259   7.714   0.876  0.8008  1.4525 -2.1489
  668MOL0     H90166   1.595   7.957  -0.123 -0.3066  3.6977 -0.8849
  668MOL0     H90167   1.829   8.028  -0.105 -1.7142  1.7086 -1.1526
  668MOL0     H90168   2.167   8.428   0.083 -4.2066 -1.5841 -1.7038
  668MOL0     H90169   2.410   8.423   0.109  3.5107 -2.5995 -1.7705
  668MOL0     H90170   2.620   8.438   0.187  1.1403 -0.3650  0.0968
  668MOL0     H90171   2.561   8.388   0.346 -0.7698  1.7170 -0.5850
  668MOL0     H90172   2.777   8.269   0.395 -0.2805  2.3942  1.4899
  668MOL0     H90173   2.816   8.416   0.310 -1.9672  1.0015  0.9709
  668MOL0     H90174   2.829   8.288   0.098  2.6670 -0.1261 -0.8056
  668MOL0     H90175   2.807   8.138   0.186  0.1690  0.0809 -1.1327
  668MOL0     H90176   3.007   8.113   0.219  0.2720  0.6146 -4.4834
  668MOL0     H90177   3.018   8.253   0.330  0.2665 -0.7995  0.3404
  668MOL0     H90178   3.272   8.316  -0.000  2.2683  0.8398  2.5779
  668MOL0     H90179   2.406   8.032   0.268 -1.0322  0.2606  1.4028
  668MOL0     H90180   2.170   8.016   0.209 -0.7042 -0.5268 -2.3166
  669MOL0     O90181   1.738   0.559   8.628 -0.1108 -0.1333  0.1624
  669MOL0     C90182   1.758   0.645   8.708 -0.8712 -0.1997  0.3077
  669MOL0     O90183   1.665   0.740   8.738 -0.0999 -0.4172 -0.0596
  669MOL0     C90184   1.534   0.746   8.697  0.8216 -0.6944  0.6846
  669MOL0     C90185   1.470   0.873   8.689  0.0341 -0.7510  0.5302
  669MOL0     C90186   1.336   0.895   8.652 -1.0279  0.2384  0.2170
  669MOL0     C90187   1.256   0.781   8.627 -0.8463  0.3816  1.0092
  669MOL0     O90188   1.124   0.797   8.601  0.1710  0.1304  0.7051
  669MOL0     C90189   1.057   0.705   8.509  0.4077  1.1576  0.3466
  669MOL0     C90190   0.912   0.749   8.493 -0.3443 -0.4818 -0.4094
  669MOL0     C90191   0.828   0.666   8.387  0.2406  0.5719  0.2077
  669MOL0     C90192   0.678   0.722   8.374 -0.2321  0.5365 -0.6189
  669MOL0     C90193   0.669   0.876   8.336 -0.0168 -0.0286  0.3924
  669MOL0     C90194   0.527   0.923   8.305  0.9140  0.2542 -0.6134
  669MOL0     C90195   0.483   0.856   8.170  1.3865 -0.1009  0.0439
  669MOL0     C90196   0.339   0.902   8.133 -0.2270 -0.4535 -0.4790
  669MOL0     N90197   0.316   1.048   8.115  0.2282  0.4325  0.3384
  669MOL0     C90198   0.401   1.138   8.061 -0.4171  0.0173  0.3212
  669MOL0     C90199   0.330   1.242   8.026  0.0472 -0.4026  0.2104
  669MOL0     C90200   0.382   1.365   7.945  0.1992 -0.5494 -0.3112
  669MOL0     C90201   0.309   1.386   7.814  0.8325 -0.2894  0.4469
  669MOL0     C90202   0.170   1.453   7.834 -0.0498  0.4706 -0.0237
  669MOL0     C90203   0.128   1.544   7.722  0.3180  0.4296 -0.3496
  669MOL0     O90204   0.045   1.653   7.773  0.5861  0.0601  0.0755
  669MOL0     C90205  -0.085   1.653   7.724  0.7832 -1.0261  0.2139
  669MOL0     C90206  -0.112   1.672   7.593  0.4666  0.3029 -0.3608
  669MOL0     C90207  -0.248   1.677   7.546  0.5781  0.5605  0.5822
  669MOL0     C90208  -0.265   1.693   7.394 -0.3058  0.8293  0.1340
  669MOL0     C90209  -0.358   1.663   7.638  0.4482 -0.5310 -0.1751
  669MOL0     C90210  -0.506   1.659   7.586 -0.2410  0.3162  0.6011
  669MOL0     O90211  -0.600   1.673   7.684 -0.7701 -0.1175  0.6058
  669MOL0     C90212  -0.732   1.696   7.663 -0.2826 -0.9109 -0.4746
  669MOL0     C90213  -0.825   1.636   7.751 -0.4581  0.0214  0.3799
  669MOL0     C90214  -0.959   1.624   7.709 -0.1347 -0.6658 -0.6309
  669MOL0     C90215  -1.011   1.681   7.592  0.3934 -0.2834 -1.1048
  669MOL0     O90216  -1.142   1.671   7.545 -0.4514 -0.2506 -0.3177
  669MOL0     C90217  -1.238   1.625   7.650 -0.8078 -0.1430  0.3348
  669MOL0     C90218  -1.387   1.659   7.621  0.0592  0.2796 -0.4284
  669MOL0     C90219  -1.444   1.559   7.509  0.0909 -0.1191 -0.2941
  669MOL0     C90220  -1.601   1.551   7.523 -0.6039 -0.5346  0.2581
  669MOL0     C90221  -1.669   1.491   7.391  0.4967  0.4413 -0.5261
  669MOL0     C90222  -1.800   1.433   7.423  0.2685 -1.0127 -0.3155
  669MOL0     C90223  -1.877   1.385   7.301 -0.1554  0.3692 -0.4446
  669MOL0     C90224  -2.017   1.343   7.345 -0.1392  0.3443 -0.3128
  669MOL0    Cl90225  -2.040   1.186   7.436 -0.0706 -0.2435  0.2819
  669MOL0     C90226  -0.918   1.752   7.511  0.0167  0.2197  0.6340
  669MOL0     C90227  -0.784   1.760   7.544 -0.4726  0.4110 -0.2243
  669MOL0     O90228  -0.536   1.642   7.471 -0.0322 -0.7319  0.8174
  669MOL0     C90229  -0.328   1.650   7.775 -0.0587  0.3108 -0.2390
  669MOL0     C90230  -0.194   1.643   7.811 -0.0531 -0.1718  0.3936
  669MOL0     N90231   0.201   1.228   8.067  0.3141 -0.4235  1.3177
  669MOL0     N90232   0.201   1.106   8.111  1.0948 -0.2420  0.3455
  669MOL0     C90233   1.317   0.655   8.631 -0.5899  0.7305 -0.8748
  669MOL0     C90234   1.446   0.637   8.681  0.1071  0.9913  0.4458
  669MOL0     C90235   1.886   0.637   8.775 -0.8711 -0.5776 -0.1374
  669MOL0     C90236   1.972   0.525   8.767 -0.1208  0.7217  0.6463
  669MOL0     C90237   2.092   0.534   8.844 -0.1791  0.8859  0.2668
  669MOL0     C90238   2.130   0.647   8.917  0.0460 -0.1156  0.3142
  669MOL0     O90239   2.250   0.632   8.984 -0.8880 -0.3652 -0.0099
  669MOL0     C90240   2.333   0.750   8.991  0.0797 -0.0023  0.8927
  669MOL0     C90241   2.392   0.786   8.847  0.4343  0.3650 -0.8879
  669MOL0     C90242   2.483   0.908   8.865  0.1903 -0.4416 -0.2258
  669MOL0     C90243   2.487   0.988   8.743 -0.3577 -0.2992 -0.2557
  669MOL0     C90244   2.363   1.055   8.705 -0.3786  0.0185  0.1986
  669MOL0     C90245   2.260   1.104   8.672  0.4372  1.7794  0.3609
  669MOL0     C90246   2.050   0.756   8.918  0.8932  0.1136  0.0445
  669MOL0     C90247   1.924   0.750   8.848  0.0492  0.0241 -1.7012
  669MOL0     H90248   1.544   0.953   8.692 -0.8181  0.2259 -1.7938
  669MOL0     H90249   1.292   0.994   8.652 -1.1914  0.1668  0.5963
  669MOL0     H90250   1.104   0.692   8.411 -0.3747  2.7963 -0.2926
  669MOL0     H90251   1.048   0.605   8.551  2.5309  1.2789  1.1799
  669MOL0     H90252   0.869   0.744   8.593  3.8037 -1.0773  1.5235
  669MOL0     H90253   0.923   0.851   8.456  0.7741 -0.2538  0.5397
  669MOL0     H90254   0.875   0.673   8.288 -1.1366  1.9092 -0.3975
  669MOL0     H90255   0.819   0.565   8.427 -1.4775  0.7130  0.2464
  669MOL0     H90256   0.630   0.661   8.296  4.1078 -2.3781 -1.3458
  669MOL0     H90257   0.632   0.708   8.472  0.5742  0.9540 -0.1815
  669MOL0     H90258   0.707   0.934   8.420 -0.5788  0.6750  0.1693
  669MOL0     H90259   0.741   0.894   8.255 -0.7527 -1.2849 -0.5862
  669MOL0     H90260   0.444   0.912   8.375  0.9822  3.3346  0.0734
  669MOL0     H90261   0.536   1.031   8.294  1.9501  0.1806 -0.5480
  669MOL0     H90262   0.557   0.882   8.094  0.9333  2.8271  0.4721
  669MOL0     H90263   0.474   0.749   8.189 -2.6201  0.3472  1.8504
  669MOL0     H90264   0.272   0.873   8.214 -0.9117  0.5811 -0.6454
  669MOL0     H90265   0.301   0.850   8.045  0.7028  1.5986 -2.2023
  669MOL0     H90266   0.509   1.132   8.053 -0.1400 -0.0330  2.9801
  669MOL0     H90267   0.375   1.447   8.018  4.0811 -1.5003  1.3680
  669MOL0     H90268   0.487   1.354   7.917  0.0708  0.5075 -1.2746
  669MOL0     H90269   0.274   1.291   7.774 -2.9714  1.3229 -0.5233
  669MOL0     H90270   0.373   1.433   7.738  2.4975 -2.2078  0.5812
  669MOL0     H90271   0.168   1.507   7.929  0.7973  0.9414 -0.2626
  669MOL0     H90272   0.097   1.375   7.860 -0.3364  0.8896  0.4338
  669MOL0     H90273   0.080   1.492   7.638 -1.5397  0.5326  0.5963
  669MOL0     H90274   0.214   1.596   7.678  0.4006 -1.6664 -2.9742
  669MOL0     H90275  -0.033   1.706   7.527 -1.4450  1.6859 -2.0442
  669MOL0     H90276  -0.335   1.621   7.348 -0.2630  1.5811 -1.1644
  669MOL0     H90277  -0.318   1.787   7.377  0.6083  1.1715 -0.9340
  669MOL0     H90278  -0.174   1.684   7.334  0.3427  0.9397  1.0914
  669MOL0     H90279  -0.797   1.585   7.844  0.5174 -0.0164  0.0827
  669MOL0     H90280  -1.025   1.587   7.786 -0.5725  1.8666  0.2947
  669MOL0     H90281  -1.219   1.519   7.665  2.2736  0.2218 -0.3436
  669MOL0     H90282  -1.220   1.673   7.746 -0.6902 -1.0199  0.7539
  669MOL0     H90283  -1.442   1.637   7.713  2.3322  1.2229  1.2406
  669MOL0     H90284  -1.412   1.762   7.592 -1.2543  0.3450  0.8232
  669MOL0     H90285  -1.394   1.463   7.497  1.2573  0.5924 -1.2849
  669MOL0     H90286  -1.420   1.612   7.417  2.6853 -3.1445 -1.5291
  669MOL0     H90287  -1.624   1.490   7.611 -1.4760  0.1587  0.5174
  669MOL0     H90288  -1.653   1.647   7.530 -1.6183 -1.0456 -0.1464
  669MOL0     H90289  -1.599   1.423   7.342  0.1708  1.2562 -2.2039
  669MOL0     H90290  -1.685   1.572   7.319  1.1268  1.6059  0.6179
  669MOL0     H90291  -1.789   1.345   7.487 -1.3767 -1.3010 -0.3882
  669MOL0     H90292  -1.852   1.506   7.485 -0.6145 -0.4046 -1.7411
  669MOL0     H90293  -1.826   1.299   7.256  2.2378  1.0632  0.7333
  669MOL0     H90294  -1.891   1.459   7.222 -3.4235 -2.6343 -2.9975
  669MOL0     H90295  -2.087   1.342   7.261 -0.8053  2.7744  0.1476
  669MOL0     H90296  -2.068   1.414   7.411 -0.6942 -0.4823  0.1643
  669MOL0     H90297  -0.960   1.799   7.422 -5.0329 -0.8376  2.1567
  669MOL0     H90298  -0.713   1.795   7.470  0.4331  0.3997  0.6064
  669MOL0     H90299  -0.409   1.644   7.847 -0.2317 -0.2383 -0.4757
  669MOL0     H90300  -0.164   1.620   7.913  1.8035 -1.5484 -0.3977
  669MOL0     H90301   1.258   0.567   8.606  0.6980  0.3186 -2.7555
  669MOL0     H90302   1.490   0.537   8.681 -0.7033  0.5606 -2.0320
  669MOL0     H90303   1.942   0.439   8.708  0.7962  1.4619 -0.9610
  669MOL0     H90304   2.151   0.443   8.844 -2.5239 -0.7952 -2.2487
  669MOL0     H90305   2.278   0.834   9.034 -0.4924  0.8130 -1.2765
  669MOL0     H90306   2.412   0.728   9.063  0.6844 -0.7078  0.0481
  669MOL0     H90307   2.310   0.814   8.780  1.1574 -0.9479 -2.4058
  669MOL0     H90308   2.437   0.699   8.798 -0.9618 -1.1873  0.4492
  669MOL0     H90309   2.590   0.897   8.885  0.2461  1.0962  0.5215
  669MOL0     H90310   2.432   0.974   8.936 -1.0374 -3.3918  1.7942
  669MOL0     H90311   2.517   0.930   8.656 -1.6125  0.6213 -1.3483
  669MOL0     H90312   2.560   1.066   8.764  0.1230  0.4635 -4.0418
  669MOL0     H90313   2.157   1.120   8.648  0.3405  1.8525  0.8131
  669MOL0     H90314   2.086   0.843   8.970 -1.0768  2.3349 -2.0442
  669MOL0     H90315   1.861   0.838   8.860  0.9942  0.3968  1.0378
  670MOL0     O90316   3.733   4.151   9.454 -0.0650 -0.7898 -0.6247
  670MOL0     C90317   3.809   4.231   9.515 -0.3723  0.4333  0.9407
  670MOL0     O90318   3.767   4.348   9.583 -0.0657 -0.4442 -0.5234
  670MOL0     C90319   3.635   4.382   9.569 -0.1953  0.3000  0.1711
  670MOL0     C90320   3.562   4.414   9.685 -0.4113  0.3153 -0.7321
  670MOL0     C90321   3.431   4.454   9.671  0.7299 -0.6311 -0.8022
  670MOL0     C90322   3.374   4.479   9.550  0.2166  0.0560 -0.0324
  670MOL0     O90323   3.252   4.533   9.539 -0.7764 -0.3900  0.5094
  670MOL0     C90324   3.158   4.433   9.512  0.9194 -0.2571 -0.3850
  670MOL0     C90325   3.027   4.495   9.463  0.9200  0.1804  0.9076
  670MOL0     C90326   2.914   4.388   9.466 -0.5261 -0.1446 -0.8959
  670MOL0     C90327   2.769   4.443   9.436  0.2505  0.9468  0.6263
  670MOL0     C90328   2.758   4.495   9.289 -0.9115  0.8768 -0.8017
  670MOL0     C90329   2.624   4.545   9.251  0.3197  0.4478  0.0847
  670MOL0     C90330   2.634   4.627   9.128 -0.5796  0.6271 -1.1809
  670MOL0     C90331   2.494   4.677   9.093 -0.2129  0.2477 -0.0204
  670MOL0     N90332   2.399   4.586   9.032  0.0366 -0.0912 -0.1239
  670MOL0     C90333   2.313   4.507   9.106 -0.2413  0.4123  0.2486
  670MOL0     C90334   2.228   4.459   9.019 -0.3730  0.6790 -0.3397
  670MOL0     C90335   2.103   4.379   9.049 -0.8041  0.0032  0.5906
  670MOL0     C90336   1.986   4.474   9.086  0.2305 -0.6012  0.2970
  670MOL0     C90337   1.935   4.572   8.982  0.5566  0.2554  0.5783
  670MOL0     C90338   1.793   4.627   9.024 -0.0450 -0.0669 -0.3907
  670MOL0     O90339   1.788   4.731   9.125  0.2959 -0.7208 -0.0299
  670MOL0     C90340   1.671   4.802   9.144  0.0010 -0.4147  1.1857
  670MOL0     C90341   1.683   4.934   9.179  0.7165 -0.1783  0.1946
  670MOL0     C90342   1.577   5.008   9.222  0.3669  0.6973 -0.1355
  670MOL0     C90343   1.595   5.153   9.253 -0.0113 -0.0263 -0.3990
  670MOL0     C90344   1.460   4.935   9.253  0.0591 -0.2150 -0.7198
  670MOL0     C90345   1.335   4.997   9.312 -0.2378 -0.4701 -0.0109
  670MOL0     O90346   1.250   4.908   9.361 -0.3747 -0.4773 -0.4735
  670MOL0     C90347   1.152   4.958   9.449  0.8636 -0.6365 -0.2960
  670MOL0     C90348   1.109   4.869   9.554 -0.4124 -0.1700 -0.6012
  670MOL0     C90349   1.005   4.892   9.643 -0.2574 -0.6042 -0.3492
  670MOL0     C90350   0.922   4.998   9.617 -0.6311 -0.0721  0.0376
  670MOL0     O90351   0.802   5.024   9.674 -0.1030  0.1326 -0.3308
  670MOL0     C90352   0.734   4.941   9.768  0.9661 -0.2823  0.5168
  670MOL0     C90353   0.608   5.009   9.827 -0.0383 -0.4858 -0.6858
  670MOL0     C90354   0.495   5.052   9.732 -0.4855 -0.6246 -0.1832
  670MOL0     C90355   0.383   5.097   9.828  1.1692 -0.6419 -0.7509
  670MOL0     C90356   0.263   5.146   9.753 -0.4003  0.2426 -0.4500
  670MOL0     C90357   0.169   5.217   9.836  0.4127 -0.6364 -0.5925
  670MOL0     C90358   0.214   5.350   9.898  0.6371 -0.0748  0.4409
  670MOL0     C90359   0.222   5.473   9.797 -0.7804 -0.2312  0.4744
  670MOL0    Cl90360   0.057   5.498   9.730 -0.2518 -0.1382 -0.1491
  670MOL0     C90361   0.946   5.075   9.501 -0.5037 -0.0555  0.0894
  670MOL0     C90362   1.066   5.065   9.425 -0.3677  0.7245  0.1870
  670MOL0     O90363   1.329   5.123   9.324  0.3783 -0.3852  0.1733
  670MOL0     C90364   1.453   4.798   9.227  1.1280  0.4671  0.4520
  670MOL0     C90365   1.556   4.726   9.162  0.3882 -0.9535 -1.0359
  670MOL0     N90366   2.249   4.510   8.896 -0.1257 -0.2280 -1.2363
  670MOL0     N90367   2.362   4.585   8.900  0.0902 -0.1137  0.1009
  670MOL0     C90368   3.445   4.455   9.431 -0.0100 -0.3946 -0.5216
  670MOL0     C90369   3.574   4.405   9.441  0.6735  0.1666 -0.0497
  670MOL0     C90370   3.962   4.206   9.495 -0.5625 -0.1670  0.2315
  670MOL0     C90371   4.064   4.299   9.521  0.3935 -0.0035 -0.1359
  670MOL0     C90372   4.201   4.274   9.495 -0.6658 -0.3425 -0.4010
  670MOL0     C90373   4.237   4.143   9.452  0.3057 -0.0160 -0.2650
  670MOL0     O90374   4.366   4.118   9.425 -0.1519 -0.1752  0.3629
  670MOL0     C90375   4.457   4.117   9.535 -0.1059 -0.5210 -0.4929
  670MOL0     C90376   4.584   4.201   9.512 -0.8667 -0.1844 -0.6500
  670MOL0     C90377   4.558   4.348   9.477  0.0078  0.5580 -0.5100
  670MOL0     C90378   4.686   4.419   9.439 -0.3221 -0.3467  0.1184
  670MOL0     C90379   4.662   4.545   9.366 -0.1546  0.1838  0.2947
  670MOL0     C90380   4.635   4.650   9.318 -0.4361 -0.3943 -0.0678
  670MOL0     C90381   4.140   4.048   9.441  0.2495  0.1675  0.9156
  670MOL0     C90382   4.004   4.071   9.471 -0.2800  0.5427 -0.1372
  670MOL0     H90383   3.623   4.411   9.775  1.3584  0.6952 -1.8582
  670MOL0     H90384   3.377   4.472   9.764 -1.0127 -1.3576 -1.6238
  670MOL0     H90385   3.176   4.365   9.429 -1.6405 -1.7714  0.1867
  670MOL0     H90386   3.136   4.380   9.606  1.6757  0.8121  0.4224
  670MOL0     H90387   2.994   4.570   9.537 -2.3842 -0.6461  0.4483
  670MOL0     H90388   3.032   4.530   9.359  1.3858 -1.5683  0.3151
  670MOL0     H90389   2.944   4.307   9.399 -0.7552 -0.1428 -1.0040
  670MOL0     H90390   2.913   4.350   9.569  0.8570  1.5430 -0.2080
  670MOL0     H90391   2.704   4.358   9.455  3.3728 -1.1515  2.8039
  670MOL0     H90392   2.748   4.527   9.503 -1.3492 -1.6150  3.6278
  670MOL0     H90393   2.834   4.574   9.284 -1.0988  1.5016  3.0594
  670MOL0     H90394   2.796   4.406   9.238 -0.1089  0.6658  0.1380
  670MOL0     H90395   2.563   4.458   9.229  0.0066  0.7844 -0.3988
  670MOL0     H90396   2.583   4.606   9.332 -0.8208  0.2268 -0.3178
  670MOL0     H90397   2.692   4.714   9.159  1.6179 -1.2651  0.3414
  670MOL0     H90398   2.688   4.576   9.047  0.6005  0.5697 -0.3776
  670MOL0     H90399   2.503   4.755   9.016 -0.5720 -0.9554 -1.3322
  670MOL0     H90400   2.444   4.727   9.176 -0.5791  0.7737 -0.5565
  670MOL0     H90401   2.310   4.493   9.214 -0.0649 -2.1791 -0.0143
  670MOL0     H90402   2.087   4.302   8.974 -0.5805 -1.3744  1.9203
  670MOL0     H90403   2.121   4.323   9.141  2.8574  0.7270  0.4846
  670MOL0     H90404   2.017   4.534   9.172  1.1902 -2.3180  1.1991
  670MOL0     H90405   1.904   4.408   9.115 -0.9097  0.3845 -0.5616
  670MOL0     H90406   1.921   4.517   8.888  1.1727  0.2347  0.4976
  670MOL0     H90407   2.012   4.643   8.954  2.1097 -1.8719 -0.8780
  670MOL0     H90408   1.732   4.542   9.058 -0.8414 -0.3461 -2.4034
  670MOL0     H90409   1.735   4.656   8.936 -1.9575 -2.1020  0.0959
  670MOL0     H90410   1.784   4.973   9.171  0.5591 -0.2244 -3.2755
  670MOL0     H90411   1.697   5.192   9.254 -1.1947  3.4451 -1.2072
  670MOL0     H90412   1.550   5.210   9.171  1.8700 -0.3263 -1.7289
  670MOL0     H90413   1.556   5.172   9.353  1.6101 -0.7871  0.4278
  670MOL0     H90414   1.173   4.783   9.570  0.1972  0.3472 -0.2271
  670MOL0     H90415   0.985   4.826   9.727 -5.6981 -0.1064 -0.9046
  670MOL0     H90416   0.714   4.844   9.722 -2.1071  0.4225  0.1759
  670MOL0     H90417   0.804   4.920   9.849  0.9076  0.3379  0.7347
  670MOL0     H90418   0.575   4.932   9.897  1.3123 -0.3204  0.1799
  670MOL0     H90419   0.652   5.092   9.884 -1.2130  0.8565 -1.6565
  670MOL0     H90420   0.466   4.972   9.664 -0.0867 -0.1120 -0.9823
  670MOL0     H90421   0.522   5.133   9.664 -3.8767  0.2747 -0.6141
  670MOL0     H90422   0.344   5.016   9.890  1.0094 -1.8087 -2.3416
  670MOL0     H90423   0.427   5.171   9.896 -1.2817  0.6560 -0.4778
  670MOL0     H90424   0.229   5.059   9.697 -1.2740 -0.0578  0.5132
  670MOL0     H90425   0.296   5.219   9.677 -0.1925  1.1769  0.5181
  670MOL0     H90426   0.089   5.247   9.768  2.7825  1.8837 -2.5305
  670MOL0     H90427   0.132   5.152   9.915 -0.8728  2.0677  1.2008
  670MOL0     H90428   0.314   5.345   9.943  1.9035 -0.6916 -2.2734
  670MOL0     H90429   0.142   5.373   9.978  1.4478  1.3071  0.8025
  670MOL0     H90430   0.295   5.448   9.719 -1.4271 -3.9207  0.9022
  670MOL0     H90431   0.262   5.568   9.835 -1.4506 -0.3103  1.4062
  670MOL0     H90432   0.867   5.140   9.466 -0.1715  0.3969  0.1836
  670MOL0     H90433   1.080   5.131   9.340 -0.6781  1.9332  1.0465
  670MOL0     H90434   1.363   4.740   9.243  0.8838  0.8008  0.3065
  670MOL0     H90435   1.560   4.621   9.133 -0.1870 -2.0248  2.2438
  670MOL0     H90436   3.403   4.495   9.340  0.7614  0.5330 -0.4854
  670MOL0     H90437   3.624   4.385   9.346  0.0012 -1.6931 -0.0654
  670MOL0     H90438   4.033   4.392   9.568  0.6981  0.6162 -1.1128
  670MOL0     H90439   4.281   4.347   9.507 -2.2152  1.0878  2.0065
  670MOL0     H90440   4.407   4.163   9.621 -0.6166  1.4164 -1.7485
  670MOL0     H90441   4.471   4.012   9.562 -1.9177 -0.9858 -1.2146
  670MOL0     H90442   4.640   4.167   9.425 -1.4746 -0.5621 -0.8996
  670MOL0     H90443   4.645   4.191   9.602  0.4595 -2.8911 -1.7462
  670MOL0     H90444   4.508   4.399   9.559 -1.1178 -1.7053  0.2786
  670MOL0     H90445   4.502   4.342   9.383  0.9641 -1.2078 -1.0221
  670MOL0     H90446   4.750   4.355   9.378 -0.4541  0.2136 -0.6270
  670MOL0     H90447   4.739   4.448   9.531 -0.3370  3.4468 -0.8868
  670MOL0     H90448   4.604   4.746   9.281 -1.8604 -0.2499  1.3949
  670MOL0     H90449   4.174   3.951   9.405 -3.2956 -0.6504 -0.6453
  670MOL0     H90450   3.944   3.982   9.455 -0.4751  1.0080 -2.4647
  671MOL0     O90451   3.770   4.881   6.233 -0.1074  1.5165  0.3199
  671MOL0     C90452   3.766   4.790   6.147 -0.3746 -0.2554 -0.2253
  671MOL0     O90453   3.664   4.773   6.067 -0.1255  0.2610  0.6109
  671MOL0     C90454   3.561   4.862   6.065  0.2026 -0.7217  0.6534
  671MOL0     C90455   3.568   4.998   6.027 -0.1607  0.1734 -0.8499
  671MOL0     C90456   3.461   5.083   6.032  0.3131  0.2772 -0.4054
  671MOL0     C90457   3.340   5.051   6.089  0.2495  0.1514 -0.1990
  671MOL0     O90458   3.246   5.147   6.096 -0.0659 -0.2455 -0.1743
  671MOL0     C90459   3.134   5.134   6.186 -0.8423  0.4574 -0.4877
  671MOL0     C90460   3.038   5.243   6.156 -0.5454 -1.0778 -0.0975
  671MOL0     C90461   2.897   5.211   6.214 -0.0237 -1.0872 -0.0383
  671MOL0     C90462   2.783   5.310   6.186 -0.1520 -0.5150 -0.2428
  671MOL0     C90463   2.651   5.254   6.241 -0.0157  0.1226 -0.5810
  671MOL0     C90464   2.523   5.336   6.222 -0.5117 -0.4114 -0.4289
  671MOL0     C90465   2.495   5.373   6.072  1.2214  1.0910  0.4565
  671MOL0     C90466   2.493   5.245   5.982 -0.6482  0.0265  0.8029
  671MOL0     N90467   2.366   5.169   6.004 -0.7125 -0.4500  0.1029
  671MOL0     C90468   2.236   5.193   5.968 -0.1730 -0.0425  0.2372
  671MOL0     C90469   2.160   5.101   6.033 -0.0144 -0.1733  0.1019
  671MOL0     C90470   2.011   5.086   6.007 -0.6483  0.4957  0.4705
  671MOL0     C90471   1.944   5.127   6.125 -0.2887 -0.7977  0.0498
  671MOL0     C90472   1.800   5.099   6.116 -0.1877 -0.6196  0.3770
  671MOL0     C90473   1.726   5.182   6.003 -0.0713 -0.0669 -0.8044
  671MOL0     O90474   1.581   5.155   5.985  0.3136 -0.3199 -0.5276
  671MOL0     C90475   1.489   5.212   6.067  0.3031 -0.2944  0.4730
  671MOL0     C90476   1.518   5.301   6.168  0.1121 -0.5219 -1.0380
  671MOL0     C90477   1.426   5.372   6.251 -0.3624  0.8464 -0.8805
  671MOL0     C90478   1.490   5.452   6.357 -0.0218 -0.7498 -0.2997
  671MOL0     C90479   1.293   5.343   6.215  0.8868 -0.2676 -0.5414
  671MOL0     C90480   1.184   5.416   6.275  0.5722  0.5974 -0.2184
  671MOL0     O90481   1.058   5.354   6.265  0.4918 -0.8155  0.2837
  671MOL0     C90482   0.939   5.415   6.303 -0.2516 -0.7740  0.5461
  671MOL0     C90483   0.816   5.354   6.260 -0.3299 -0.0410 -0.4147
  671MOL0     C90484   0.687   5.406   6.299 -0.3173  0.6917 -0.1788
  671MOL0     C90485   0.677   5.510   6.380 -0.2855  0.2575  0.1686
  671MOL0     O90486   0.555   5.557   6.427  0.0722 -0.5957  0.2380
  671MOL0     C90487   0.437   5.502   6.366 -0.5472 -0.3469 -0.6024
  671MOL0     C90488   0.315   5.578   6.426  0.4437 -0.1436 -0.5539
  671MOL0     C90489   0.267   5.540   6.568  0.2695  0.4112  1.0872
  671MOL0     C90490   0.118   5.553   6.593  0.1583 -0.1368 -0.1816
  671MOL0     C90491   0.080   5.474   6.717  0.1017 -0.3003 -0.6589
  671MOL0     C90492  -0.070   5.486   6.758 -0.3910  0.0383 -0.3766
  671MOL0     C90493  -0.121   5.629   6.781  0.1360 -0.1004  0.8128
  671MOL0     C90494  -0.273   5.614   6.816 -0.7100  0.1570  0.7991
  671MOL0    Cl90495  -0.365   5.537   6.686 -0.3376  0.2782 -0.4148
  671MOL0     C90496   0.794   5.576   6.421 -0.9993  0.0808 -0.1730
  671MOL0     C90497   0.923   5.539   6.384 -0.8903  0.6622  0.4054
  671MOL0     O90498   1.202   5.527   6.330  0.3183  0.3099  0.3623
  671MOL0     C90499   1.263   5.250   6.115 -0.2048 -0.6306  0.9589
  671MOL0     C90500   1.356   5.183   6.039 -0.0756  0.1868 -0.5765
  671MOL0     N90501   2.242   5.024   6.109 -0.2730 -0.2042  0.0095
  671MOL0     N90502   2.360   5.064   6.090  0.4178 -0.0187  0.4135
  671MOL0     C90503   3.322   4.905   6.116  0.5073 -0.6078 -1.0249
  671MOL0     C90504   3.432   4.816   6.103 -0.3591  0.2351  0.0664
  671MOL0     C90505   3.891   4.703   6.146  0.2250  0.1040 -1.1783
  671MOL0     C90506   3.909   4.605   6.047 -0.7205  0.3240  0.4641
  671MOL0     C90507   4.019   4.515   6.054  0.5293  0.3287 -0.6236
  671MOL0     C90508   4.115   4.523   6.155 -1.0518 -0.2744 -0.7952
  671MOL0     O90509   4.222   4.429   6.148  0.2245  0.4516  0.5950
  671MOL0     C90510   4.316   4.424   6.254 -0.3232 -0.1661 -0.9364
  671MOL0     C90511   4.438   4.336   6.233  0.0869 -0.1273  0.3596
  671MOL0     C90512   4.533   4.337   6.351  0.2127 -0.1646  0.1275
  671MOL0     C90513   4.665   4.250   6.318  0.3389  0.4875 -0.2675
  671MOL0     C90514   4.741   4.227   6.438 -0.7552  0.0007 -0.1778
  671MOL0     C90515   4.774   4.203   6.552  0.3481 -1.0334 -0.8023
  671MOL0     C90516   4.097   4.613   6.254 -0.8762  0.0446  0.7396
  671MOL0     C90517   3.993   4.710   6.247  0.2397  0.2243 -0.6485
  671MOL0     H90518   3.663   5.039   5.996  0.2915 -1.5843 -1.9151
  671MOL0     H90519   3.481   5.184   5.998  0.8611  0.6552  0.9559
  671MOL0     H90520   3.086   5.037   6.172 -0.5406 -0.2973  2.7782
  671MOL0     H90521   3.170   5.142   6.289  1.8221 -1.1030 -1.1883
  671MOL0     H90522   3.081   5.328   6.210  1.7608 -3.3212  1.8923
  671MOL0     H90523   3.048   5.269   6.050 -0.8651  1.2052  0.3721
  671MOL0     H90524   2.866   5.118   6.167 -0.6852 -2.2066  2.4196
  671MOL0     H90525   2.897   5.193   6.322 -1.6362  0.6294  0.3033
  671MOL0     H90526   2.803   5.410   6.227  1.5712 -1.3779  1.1504
  671MOL0     H90527   2.782   5.328   6.078  0.8037  0.6710 -0.0813
  671MOL0     H90528   2.637   5.150   6.209 -1.4339  1.0617 -3.3150
  671MOL0     H90529   2.668   5.243   6.349  0.0916  1.9827 -0.3863
  671MOL0     H90530   2.440   5.272   6.255 -1.3938  0.7015 -0.4570
  671MOL0     H90531   2.535   5.427   6.282  2.4104 -1.0757  0.1796
  671MOL0     H90532   2.401   5.428   6.057  0.0823 -0.6709  0.8977
  671MOL0     H90533   2.575   5.436   6.032  0.1814  3.3172  1.7092
  671MOL0     H90534   2.580   5.182   6.002  1.7026  2.5254 -0.7930
  671MOL0     H90535   2.505   5.283   5.880  2.7609 -0.4540  0.9121
  671MOL0     H90536   2.198   5.259   5.890  0.7131  0.7944  0.4989
  671MOL0     H90537   1.981   5.138   5.915  0.3871  0.6078  0.1845
  671MOL0     H90538   1.985   4.982   5.986  1.5923  0.2607 -1.5416
  671MOL0     H90539   1.973   5.232   6.139  3.7409 -1.9443  2.0969
  671MOL0     H90540   1.981   5.074   6.213  0.3666 -0.3432  0.0617
  671MOL0     H90541   1.765   5.125   6.216  1.0418  1.3109  0.3580
  671MOL0     H90542   1.790   4.991   6.108 -1.2817 -0.5935  1.1721
  671MOL0     H90543   1.765   5.160   5.903 -0.4938 -0.2084 -0.9436
  671MOL0     H90544   1.744   5.287   6.025 -0.2889 -0.6163  2.6005
  671MOL0     H90545   1.621   5.334   6.176 -0.6994  2.4647 -1.6307
  671MOL0     H90546   1.437   5.443   6.452  2.6144 -3.3957  1.0641
  671MOL0     H90547   1.584   5.410   6.393  1.0423  2.7490  1.5543
  671MOL0     H90548   1.496   5.550   6.308 -0.2809 -1.7451 -2.4217
  671MOL0     H90549   0.839   5.273   6.192  0.8164  1.2488 -1.6497
  671MOL0     H90550   0.603   5.348   6.262 -0.1514  0.3389 -0.0027
  671MOL0     H90551   0.429   5.522   6.259 -5.8647 -3.2419 -1.1057
  671MOL0     H90552   0.416   5.396   6.380 -2.6852  0.1279  0.2891
  671MOL0     H90553   0.337   5.685   6.423 -4.0840  1.0574  0.6522
  671MOL0     H90554   0.230   5.565   6.357 -1.2021  0.7059  1.2024
  671MOL0     H90555   0.309   5.583   6.659 -2.3141 -2.8457  4.1440
  671MOL0     H90556   0.283   5.431   6.572 -0.3583 -0.0466 -3.3691
  671MOL0     H90557   0.082   5.656   6.594 -2.6046 -0.9127 -2.7947
  671MOL0     H90558   0.069   5.506   6.506 -0.1176  1.7646 -1.1128
  671MOL0     H90559   0.146   5.508   6.798  1.7117 -1.7755 -1.2872
  671MOL0     H90560   0.112   5.371   6.697  0.5963  0.3451 -3.6248
  671MOL0     H90561  -0.123   5.437   6.676  0.4598 -4.0325  1.2803
  671MOL0     H90562  -0.093   5.421   6.842  1.0290 -0.1181 -0.0758
  671MOL0     H90563  -0.118   5.691   6.691 -2.7998 -3.9828 -2.3186
  671MOL0     H90564  -0.054   5.678   6.853 -1.0787  1.0346  1.2104
  671MOL0     H90565  -0.315   5.713   6.836  0.9181  0.7199  1.6627
  671MOL0     H90566  -0.295   5.554   6.905 -2.7186 -1.8711 -0.9391
  671MOL0     H90567   0.784   5.665   6.483 -0.9194 -1.0205  1.5126
  671MOL0     H90568   0.999   5.596   6.438  0.4293 -1.5945  1.0492
  671MOL0     H90569   1.162   5.227   6.084 -0.5300  0.6075  1.0686
  671MOL0     H90570   1.328   5.110   5.963  3.4215  0.5412 -2.4176
  671MOL0     H90571   3.225   4.862   6.138  0.0751  0.2744 -1.1619
  671MOL0     H90572   3.426   4.708   6.112  0.9445 -0.2029 -2.9551
  671MOL0     H90573   3.839   4.591   5.965  1.4076 -0.6680 -1.3006
  671MOL0     H90574   4.041   4.437   5.982  0.9436  2.9702 -3.5789
  671MOL0     H90575   4.349   4.528   6.267  1.3626 -0.3879 -2.8954
  671MOL0     H90576   4.264   4.396   6.346  0.3981 -3.9512 -1.5358
  671MOL0     H90577   4.489   4.356   6.138  0.8014 -0.8993  0.5688
  671MOL0     H90578   4.397   4.235   6.222 -2.8608  0.7878  1.9097
  671MOL0     H90579   4.475   4.292   6.432  0.9933 -0.4033  0.5676
  671MOL0     H90580   4.559   4.442   6.368  1.6383 -0.2626 -1.1607
  671MOL0     H90581   4.726   4.309   6.248  0.5408  1.7253  0.9127
  671MOL0     H90582   4.643   4.154   6.270 -1.6103  1.6810 -1.9605
  671MOL0     H90583   4.820   4.193   6.648  1.2019  3.7481 -0.4714
  671MOL0     H90584   4.166   4.612   6.338  0.8381 -1.2437 -0.6147
  671MOL0     H90585   3.975   4.786   6.322  3.5778  0.8457 -0.3131
  672MOL0     O90586  11.231   6.712   0.023 -0.7777 -0.2438 -0.4797
  672MOL0     C90587  11.186   6.803   0.104 -0.1684  0.2871  0.5234
  672MOL0     O90588  11.228   6.932   0.092 -0.0098  0.1398  0.0774
  672MOL0     C90589  11.326   6.964  -0.007 -0.3192 -0.2757 -0.8596
  672MOL0     C90590  11.425   7.055   0.028  0.6522 -0.2736 -0.3902
  672MOL0     C90591  11.524   7.092  -0.066 -0.6374 -0.0684  0.7087
  672MOL0     C90592  11.529   7.043  -0.199 -0.4367  0.1515  0.2483
  672MOL0     O90593  11.627   7.078  -0.293  0.2828 -0.2219  0.9236
  672MOL0     C90594  11.759   7.107  -0.245 -0.1150 -1.2130  0.0116
  672MOL0     C90595  11.857   7.148  -0.353 -0.4243  1.0846 -0.1626
  672MOL0     C90596  11.887   7.029  -0.436 -0.3094  0.4524  0.6612
  672MOL0     C90597  11.965   7.075  -0.559 -0.2768 -0.4503  0.3777
  672MOL0     C90598  11.999   6.951  -0.655  0.1136 -0.5301  0.4205
  672MOL0     C90599  12.090   7.006  -0.771  0.1161  0.2388 -1.1013
  672MOL0     C90600  12.010   7.099  -0.857 -0.0112  0.2829  0.4719
  672MOL0     C90601  12.082   7.119  -0.994  0.5963 -0.1849 -0.4075
  672MOL0     N90602  12.213   7.176  -0.995  0.1131  1.0109 -0.3586
  672MOL0     C90603  12.315   7.103  -1.040  0.1695 -0.3132  0.2699
  672MOL0     C90604  12.426   7.173  -1.003  0.2749  0.6195  0.2405
  672MOL0     C90605  12.569   7.132  -1.029  0.4005 -0.6310 -0.9643
  672MOL0     C90606  12.605   7.086  -1.170  0.2528 -0.2911 -0.1892
  672MOL0     C90607  12.592   7.187  -1.278  0.8594 -0.6681  0.7216
  672MOL0     C90608  12.455   7.204  -1.350 -0.3116  0.0469 -0.4508
  672MOL0     O90609  12.419   7.069  -1.395  0.1447  0.2370 -0.5207
  672MOL0     C90610  12.280   7.051  -1.419 -0.3959 -0.3976  0.2761
  672MOL0     C90611  12.253   6.943  -1.505 -0.3509 -0.1424  0.5701
  672MOL0     C90612  12.128   6.898  -1.531 -0.2488  0.3706 -0.5751
  672MOL0     C90613  12.120   6.771  -1.614 -0.4593  0.6094  0.7808
  672MOL0     C90614  12.025   6.983  -1.489  0.8376 -0.2608 -0.3793
  672MOL0     C90615  11.885   6.945  -1.511 -0.4094 -0.6280  0.5624
  672MOL0     O90616  11.796   7.046  -1.522 -0.1955  0.1096  0.5223
  672MOL0     C90617  11.666   7.012  -1.558 -0.1163 -0.6475  0.3922
  672MOL0     C90618  11.634   6.924  -1.661 -0.4962 -0.1430  0.6576
  672MOL0     C90619  11.504   6.913  -1.706 -0.3719  0.5692 -0.3380
  672MOL0     C90620  11.403   6.982  -1.647  0.7649  0.0896  0.7438
  672MOL0     O90621  11.276   6.960  -1.698  0.4112 -0.2837 -0.0586
  672MOL0     C90622  11.184   6.903  -1.606  0.3258 -0.3401  0.6427
  672MOL0     C90623  11.047   6.967  -1.625 -0.0656 -0.3376  0.5863
  672MOL0     C90624  11.005   6.923  -1.768 -0.0159 -0.4611  0.0623
  672MOL0     C90625  10.855   6.937  -1.794 -0.4781  0.1313  0.9550
  672MOL0     C90626  10.828   7.083  -1.828  0.0634  0.4215  0.0232
  672MOL0     C90627  10.675   7.101  -1.854 -0.4658  0.4944  0.2468
  672MOL0     C90628  10.632   7.249  -1.883 -0.8423  0.1001  0.1932
  672MOL0     C90629  10.488   7.273  -1.868 -0.2682 -0.0241  0.7158
  672MOL0    Cl90630  10.418   7.171  -2.005 -0.1422 -0.1769 -0.2536
  672MOL0     C90631  11.431   7.068  -1.545 -0.1985 -0.1688  0.2637
  672MOL0     C90632  11.562   7.083  -1.504 -0.2811 -0.0060  0.1760
  672MOL0     O90633  11.848   6.827  -1.501  0.4077 -0.0894  0.3673
  672MOL0     C90634  12.047   7.099  -1.411 -0.1202 -0.2842  0.5252
  672MOL0     C90635  12.171   7.122  -1.362 -0.4576 -0.2635  0.9631
  672MOL0     N90636  12.386   7.294  -0.947 -0.0533 -0.8459  0.2469
  672MOL0     N90637  12.256   7.296  -0.946 -0.4309 -0.0540 -0.1734
  672MOL0     C90638  11.423   6.963  -0.233  0.1728 -0.1834  0.6557
  672MOL0     C90639  11.327   6.917  -0.140  0.0562 -0.2436  0.5636
  672MOL0     C90640  11.102   6.755   0.210  1.1006  0.1821  0.3291
  672MOL0     C90641  11.023   6.636   0.188  0.8230  0.7186  0.3702
  672MOL0     C90642  10.928   6.606   0.290 -0.6972  0.3249  0.0368
  672MOL0     C90643  10.923   6.684   0.406 -0.7167 -0.7634 -0.5089
  672MOL0     O90644  10.839   6.669   0.514  0.0731 -0.1274 -0.0478
  672MOL0     C90645  10.723   6.597   0.488 -0.3037  0.5506  0.7322
  672MOL0     C90646  10.624   6.677   0.407  0.3648  0.6566  0.4158
  672MOL0     C90647  10.496   6.729   0.480 -0.7072 -0.1560 -0.5665
  672MOL0     C90648  10.543   6.822   0.606  0.2553  0.0601 -0.0586
  672MOL0     C90649  10.426   6.886   0.673  0.2775 -0.4305  0.4612
  672MOL0     C90650  10.326   6.949   0.715  0.2121 -0.4321 -0.1142
  672MOL0     C90651  11.013   6.789   0.422 -0.0155  0.4418 -0.9340
  672MOL0     C90652  11.105   6.828   0.329  0.6344 -0.6972 -0.2368
  672MOL0     H90653  11.428   7.110   0.121 -2.4678  0.2057 -0.4586
  672MOL0     H90654  11.592   7.175  -0.045  1.3639 -1.1166 -1.1697
  672MOL0     H90655  11.756   7.186  -0.168 -1.0954 -0.8274 -0.4055
  672MOL0     H90656  11.805   7.020  -0.198  0.6644  0.0787  1.7780
  672MOL0     H90657  11.811   7.225  -0.416 -0.9809  0.2184 -0.8427
  672MOL0     H90658  11.943   7.179  -0.293  0.0140 -0.0254 -0.1927
  672MOL0     H90659  11.949   6.960  -0.378  0.0805 -3.8636 -4.2238
  672MOL0     H90660  11.792   6.982  -0.464 -0.2523  0.9177 -0.3310
  672MOL0     H90661  11.894   7.140  -0.612 -1.7693 -2.6491 -0.4502
  672MOL0     H90662  12.056   7.127  -0.528  0.7846 -1.9230 -0.1969
  672MOL0     H90663  12.073   6.903  -0.591  1.4642  0.9531  0.0378
  672MOL0     H90664  11.909   6.897  -0.686  0.5389 -0.0707 -1.8582
  672MOL0     H90665  12.178   7.058  -0.730 -0.9146  0.4452  0.9648
  672MOL0     H90666  12.125   6.915  -0.820 -0.8328 -0.0312 -1.2825
  672MOL0     H90667  11.905   7.069  -0.864 -0.4329  0.8348  3.2857
  672MOL0     H90668  12.008   7.198  -0.809 -1.9203 -2.0485  5.8994
  672MOL0     H90669  12.023   7.190  -1.053 -1.7125 -0.8475  0.9802
  672MOL0     H90670  12.084   7.021  -1.043  0.0491 -0.5888  0.3581
  672MOL0     H90671  12.318   7.007  -1.090  1.3060  0.5454 -1.3893
  672MOL0     H90672  12.642   7.203  -0.990 -2.9131  1.8175  1.3751
  672MOL0     H90673  12.572   7.046  -0.960 -3.4463  1.0019  1.6027
  672MOL0     H90674  12.551   6.993  -1.189 -2.0607  1.3306 -2.0005
  672MOL0     H90675  12.710   7.053  -1.164  0.6294  0.8490 -0.2909
  672MOL0     H90676  12.672   7.174  -1.351 -0.2954 -0.9329 -0.5314
  672MOL0     H90677  12.605   7.287  -1.235 -0.4359  0.6624 -1.7673
  672MOL0     H90678  12.452   7.273  -1.435 -2.1397  3.5234  2.1379
  672MOL0     H90679  12.391   7.246  -1.272  1.1440 -1.1338  1.4374
  672MOL0     H90680  12.333   6.879  -1.541  2.4928  0.8633  4.4987
  672MOL0     H90681  12.073   6.771  -1.713  3.3110 -3.2413 -1.3388
  672MOL0     H90682  12.221   6.734  -1.632  0.7753  2.9522  2.2474
  672MOL0     H90683  12.066   6.704  -1.547 -2.3663  3.5286  2.4338
  672MOL0     H90684  11.707   6.872  -1.722 -1.0692 -0.0288 -0.1424
  672MOL0     H90685  11.488   6.840  -1.785 -0.3801 -1.2746  1.2855
  672MOL0     H90686  11.194   6.796  -1.627  0.5161 -0.6045  2.0113
  672MOL0     H90687  11.225   6.918  -1.506 -0.1722  0.7337  0.6888
  672MOL0     H90688  10.970   6.934  -1.555 -0.9898  1.2238  0.3637
  672MOL0     H90689  11.060   7.075  -1.611  1.0320 -0.4569  0.5379
  672MOL0     H90690  11.034   6.820  -1.791  0.3639 -0.1822 -0.7434
  672MOL0     H90691  11.064   6.987  -1.834  0.8070 -1.5775 -0.3177
  672MOL0     H90692  10.843   6.881  -1.888  1.9615  0.2070  0.5336
  672MOL0     H90693  10.800   6.905  -1.705  0.5847 -0.8939  1.2763
  672MOL0     H90694  10.897   7.119  -1.905  3.9512 -1.5847  2.2563
  672MOL0     H90695  10.850   7.131  -1.732 -2.3375  0.5111  0.5803
  672MOL0     H90696  10.658   7.034  -1.939  1.3748 -0.7463  0.7856
  672MOL0     H90697  10.616   7.071  -1.767 -1.6269  0.5191 -0.5173
  672MOL0     H90698  10.667   7.295  -1.976 -2.9222  2.9801  0.6886
  672MOL0     H90699  10.679   7.304  -1.802 -0.8239  0.3239  0.0328
  672MOL0     H90700  10.465   7.379  -1.880  1.0743  0.2002 -0.1269
  672MOL0     H90701  10.443   7.240  -1.774 -1.7978  3.4045  1.3186
  672MOL0     H90702  11.352   7.131  -1.504 -1.1917 -0.4321 -1.1593
  672MOL0     H90703  11.582   7.141  -1.414  0.6197  0.1688 -0.1248
  672MOL0     H90704  11.960   7.150  -1.369 -0.9721 -1.1280 -0.1595
  672MOL0     H90705  12.182   7.208  -1.296  1.1433  1.3529 -1.2575
  672MOL0     H90706  11.409   6.923  -0.333 -0.2709 -3.8113  1.9951
  672MOL0     H90707  11.257   6.852  -0.191  2.2297  0.1261 -3.2612
  672MOL0     H90708  11.007   6.581   0.096 -3.5550  0.1645  1.2417
  672MOL0     H90709  10.867   6.517   0.272 -1.5190  0.9752 -0.4656
  672MOL0     H90710  10.750   6.501   0.443 -0.2358 -0.5923  3.0566
  672MOL0     H90711  10.669   6.577   0.581 -1.1124  2.1412  0.6243
  672MOL0     H90712  10.589   6.620   0.320 -2.8213 -0.8436  2.4489
  672MOL0     H90713  10.681   6.758   0.361  3.3459 -1.5671 -0.0744
  672MOL0     H90714  10.440   6.642   0.513  1.2234 -1.2502 -0.0357
  672MOL0     H90715  10.436   6.793   0.414 -0.3164  1.3650  0.4987
  672MOL0     H90716  10.606   6.901   0.563 -1.3411  0.8437 -1.0586
  672MOL0     H90717  10.594   6.758   0.679 -0.7505  1.1276  1.6470
  672MOL0     H90718  10.239   6.991   0.760 -0.7903 -1.4188 -1.0757
  672MOL0     H90719  11.018   6.845   0.515 -1.0489 -0.0753 -0.5460
  672MOL0     H90720  11.173   6.911   0.347  0.3803 -0.4397 -0.4505
  673MOL0     O90721   4.412   9.202   0.149 -0.1896 -0.4779 -0.6965
  673MOL0     C90722   4.526   9.245   0.166 -0.3928  0.5688 -0.1661
  673MOL0     O90723   4.561   9.329   0.267 -0.7159  0.5482 -0.3922
  673MOL0     C90724   4.461   9.348   0.367 -0.0880 -0.2673  0.4894
  673MOL0     C90725   4.353   9.444   0.345  0.2102 -0.6580 -0.4512
  673MOL0     C90726   4.261   9.468   0.445 -0.5253 -0.6252  0.8033
  673MOL0     C90727   4.252   9.388   0.555  0.5588 -0.1013 -0.8389
  673MOL0     O90728   4.167   9.402   0.658  0.0368  0.0488  0.2840
  673MOL0     C90729   4.039   9.455   0.632  0.1016 -0.5695 -0.6582
  673MOL0     C90730   3.952   9.414   0.750  0.9366  0.5320 -0.3432
  673MOL0     C90731   3.823   9.500   0.764 -0.2212 -0.3913 -0.3590
  673MOL0     C90732   3.739   9.459   0.886 -0.5667 -0.4064 -1.0229
  673MOL0     C90733   3.598   9.533   0.905 -0.3191  0.7541  0.7005
  673MOL0     C90734   3.605   9.675   0.946  0.6438  0.7008 -0.0677
  673MOL0     C90735   3.467   9.754   0.924 -0.2656  0.0577  0.0483
  673MOL0     C90736   3.351   9.683   0.987  0.0959 -0.3604  0.6990
  673MOL0     N90737   3.223   9.756   0.985 -0.2537  0.3317 -0.4964
  673MOL0     C90738   3.188   9.858   1.072 -0.2298  0.5074 -0.1228
  673MOL0     C90739   3.058   9.889   1.047 -0.4246  0.5481 -0.0482
  673MOL0     C90740   2.977  10.010   1.098  0.0726  0.1661  0.5521
  673MOL0     C90741   2.871   9.956   1.195  0.5785  0.4277  0.1361
  673MOL0     C90742   2.761  10.061   1.225  0.5649 -0.3292 -0.2409
  673MOL0     C90743   2.618  10.006   1.202 -0.1279  0.1582 -0.3519
  673MOL0     O90744   2.517  10.101   1.242 -0.7124  0.9899 -0.4386
  673MOL0     C90745   2.385  10.088   1.210  0.0036 -0.5859 -0.1296
  673MOL0     C90746   2.290  10.155   1.290  0.2024  0.0649 -0.4030
  673MOL0     C90747   2.153  10.133   1.293  0.4432 -0.9405  0.4546
  673MOL0     C90748   2.069  10.206   1.392  0.2159  0.1638  0.1692
  673MOL0     C90749   2.096  10.056   1.189 -0.5129 -0.0588 -0.2973
  673MOL0     C90750   1.956  10.017   1.180  0.2142 -0.2666  1.0780
  673MOL0     O90751   1.854  10.102   1.224 -0.2005  0.6620  0.5431
  673MOL0     C90752   1.735  10.043   1.247  1.0724 -0.2019 -0.1110
  673MOL0     C90753   1.620  10.115   1.206  0.5864  0.2197  0.2412
  673MOL0     C90754   1.492  10.066   1.258 -0.3066 -1.0144  1.0603
  673MOL0     C90755   1.483   9.962   1.341  0.4711  0.8111 -0.2606
  673MOL0     O90756   1.371   9.896   1.386 -0.2325 -0.5740 -0.5982
  673MOL0     C90757   1.254   9.924   1.306 -0.7102 -0.4699  0.1044
  673MOL0     C90758   1.135   9.839   1.347 -0.0563  0.5656 -0.9042
  673MOL0     C90759   1.029   9.851   1.237  0.2702 -0.0446 -0.5147
  673MOL0     C90760   0.900   9.763   1.244 -0.7875  0.2122  0.8589
  673MOL0     C90761   0.796   9.820   1.343 -0.6265 -0.0624 -0.8457
  673MOL0     C90762   0.711   9.951   1.298 -0.7782 -0.0404 -0.9631
  673MOL0     C90763   0.588   9.965   1.386  0.4022 -0.3019 -0.3803
  673MOL0     C90764   0.509  10.100   1.353 -0.4702  0.1633  0.6894
  673MOL0    Cl90765   0.366  10.082   1.458 -0.1843 -0.2564  0.4163
  673MOL0     C90766   1.599   9.900   1.387  0.4585 -0.1568 -0.1396
  673MOL0     C90767   1.722   9.937   1.339 -0.5281  0.9299 -0.0071
  673MOL0     O90768   1.933   9.909   1.124  0.3947 -0.0764  0.0817
  673MOL0     C90769   2.186   9.984   1.098  0.2270 -0.5287 -0.9140
  673MOL0     C90770   2.326  10.001   1.116 -0.7480 -0.4822  0.3259
  673MOL0     N90771   3.011   9.800   0.952  0.9101 -0.3598  0.2690
  673MOL0     N90772   3.111   9.723   0.917  0.4843  0.2530 -0.3090
  673MOL0     C90773   4.353   9.297   0.582 -0.8568  0.8766  0.3912
  673MOL0     C90774   4.450   9.271   0.484  0.5620 -0.0008  0.2792
  673MOL0     C90775   4.629   9.186   0.082 -0.9533  0.0309  0.6875
  673MOL0     C90776   4.605   9.098  -0.025  0.4438 -0.4374  0.1278
  673MOL0     C90777   4.703   9.059  -0.106 -0.3359  0.2485 -0.2689
  673MOL0     C90778   4.839   9.105  -0.087 -0.5770  1.6004  0.1088
  673MOL0     O90779   4.921   9.068  -0.187 -0.1160 -0.7261  0.3365
  673MOL0     C90780   5.060   9.065  -0.163  0.6242 -0.3186  0.6449
  673MOL0     C90781   5.125   8.993  -0.279  0.4015 -0.0716  0.5417
  673MOL0     C90782   5.279   9.000  -0.277 -1.3169  0.0622  1.3312
  673MOL0     C90783   5.340   8.916  -0.165  0.1024  0.0164 -0.2387
  673MOL0     C90784   5.492   8.912  -0.169  0.3089 -0.4505  0.4470
  673MOL0     C90785   5.612   8.901  -0.188  0.5302  0.7214 -0.9090
  673MOL0     C90786   4.870   9.176   0.025 -0.3806 -1.0404 -0.0496
  673MOL0     C90787   4.765   9.225   0.101  0.2327 -0.0902 -0.0902
  673MOL0     H90788   4.338   9.511   0.261  0.8400  2.7171  1.9319
  673MOL0     H90789   4.185   9.543   0.422 -1.9420 -2.0802  0.5537
  673MOL0     H90790   4.051   9.563   0.636 -0.2623 -0.5514  1.8275
  673MOL0     H90791   3.984   9.428   0.541 -0.1779  1.9432 -1.2962
  673MOL0     H90792   3.918   9.311   0.762 -1.0401  1.0522 -1.0821
  673MOL0     H90793   4.012   9.426   0.841 -0.8340 -2.2164  1.3251
  673MOL0     H90794   3.851   9.606   0.772 -0.4846 -0.4295  1.6019
  673MOL0     H90795   3.757   9.486   0.678 -1.2846  1.3364  0.1145
  673MOL0     H90796   3.719   9.352   0.876  0.5455 -0.6580 -0.7808
  673MOL0     H90797   3.796   9.472   0.978  0.8567 -2.4621 -1.5327
  673MOL0     H90798   3.544   9.534   0.810  1.5907 -0.8755 -0.4842
  673MOL0     H90799   3.534   9.473   0.969  1.4388 -2.9859 -0.7764
  673MOL0     H90800   3.618   9.673   1.055  1.0514 -0.8006 -0.1121
  673MOL0     H90801   3.692   9.720   0.898 -0.7803  1.4367 -2.1067
  673MOL0     H90802   3.476   9.853   0.968  0.8072 -0.8040  1.8796
  673MOL0     H90803   3.451   9.766   0.816  2.3055 -3.0884 -0.8476
  673MOL0     H90804   3.389   9.670   1.089  0.3026 -2.4467  0.4037
  673MOL0     H90805   3.331   9.587   0.938 -0.0222 -0.3492  0.7234
  673MOL0     H90806   3.249   9.913   1.143  1.8965 -0.9325 -0.7669
  673MOL0     H90807   3.051  10.077   1.144 -0.7090  0.6361  1.1713
  673MOL0     H90808   2.924  10.057   1.015  2.2155  1.5414 -0.1153
  673MOL0     H90809   2.916   9.927   1.290  0.1761  1.0436  0.5219
  673MOL0     H90810   2.828   9.870   1.144  0.7102  0.9824 -0.9325
  673MOL0     H90811   2.779  10.149   1.164  0.0307 -0.1953 -0.2083
  673MOL0     H90812   2.760  10.090   1.331 -2.2429  1.7414 -0.7042
  673MOL0     H90813   2.597   9.909   1.248 -1.1222  0.8115  0.6241
  673MOL0     H90814   2.619   9.992   1.093  1.0765  0.5015 -0.3906
  673MOL0     H90815   2.324  10.222   1.369 -4.3444  1.1557  0.9179
  673MOL0     H90816   1.999  10.265   1.332  1.5771 -1.0241 -2.8148
  673MOL0     H90817   2.017  10.137   1.458 -1.9916  1.0144 -0.6003
  673MOL0     H90818   2.125  10.275   1.456  1.5549 -4.2555  4.2920
  673MOL0     H90819   1.638  10.202   1.145  1.2488  0.0441  0.1692
  673MOL0     H90820   1.402  10.115   1.223  1.1286 -0.3921 -2.1077
  673MOL0     H90821   1.226  10.028   1.327  0.3093 -0.2437  0.4137
  673MOL0     H90822   1.269   9.904   1.199 -0.7278  1.9966 -0.4245
  673MOL0     H90823   1.172   9.736   1.359 -0.2952  0.4207 -1.3901
  673MOL0     H90824   1.086   9.862   1.442 -0.0482 -0.2347 -0.6930
  673MOL0     H90825   1.084   9.813   1.150 -1.9231 -1.6017 -1.3227
  673MOL0     H90826   0.999   9.954   1.218  0.2711  0.1332  0.3887
  673MOL0     H90827   0.858   9.749   1.144 -2.4699  0.1829  1.5377
  673MOL0     H90828   0.933   9.667   1.285  1.0428 -1.6338 -4.2399
  673MOL0     H90829   0.842   9.847   1.439  0.0722 -2.2058 -0.5198
  673MOL0     H90830   0.724   9.741   1.366 -0.0919 -0.7653 -1.5399
  673MOL0     H90831   0.769  10.043   1.294 -1.9966  0.7249 -1.6409
  673MOL0     H90832   0.681   9.936   1.194  2.8269  0.3264 -2.1927
  673MOL0     H90833   0.622   9.957   1.489  3.1079 -0.3646 -1.2233
  673MOL0     H90834   0.530   9.879   1.353  0.2935 -0.7352  0.9038
  673MOL0     H90835   0.479  10.094   1.248  0.9036 -0.9023  0.3398
  673MOL0     H90836   0.564  10.191   1.378  3.6014 -1.6547 -0.8031
  673MOL0     H90837   1.576   9.821   1.457 -2.4953 -0.0969 -0.9178
  673MOL0     H90838   1.795   9.869   1.382 -0.2476 -0.0443 -1.9167
  673MOL0     H90839   2.145   9.936   1.010  4.0391 -1.5732 -2.3213
  673MOL0     H90840   2.399   9.945   1.058  2.2436  2.0525  1.3798
  673MOL0     H90841   4.351   9.251   0.680 -1.1901  3.1131  1.4908
  673MOL0     H90842   4.522   9.191   0.492  0.7721  0.1003 -0.5332
  673MOL0     H90843   4.504   9.059  -0.032  1.4668 -3.1629 -0.9516
  673MOL0     H90844   4.685   8.999  -0.195  0.8099  1.0144 -1.0484
  673MOL0     H90845   5.096   9.169  -0.168 -1.6603  0.4517 -1.8763
  673MOL0     H90846   5.077   9.028  -0.062 -0.9080 -1.3476  0.5540
  673MOL0     H90847   5.096   9.033  -0.376 -0.2232  0.5496  0.9790
  673MOL0     H90848   5.089   8.890  -0.280 -0.2450  0.1272  1.4032
  673MOL0     H90849   5.300   9.107  -0.273 -0.5041 -0.0244 -0.1379
  673MOL0     H90850   5.324   8.957  -0.367  1.4015 -1.2391  3.1580
  673MOL0     H90851   5.301   8.814  -0.169  2.1356 -0.8608  1.0293
  673MOL0     H90852   5.309   8.971  -0.076 -0.4698  0.3857 -0.6616
  673MOL0     H90853   5.718   8.893  -0.196  0.4567  0.0203 -1.2478
  673MOL0     H90854   4.969   9.218   0.040 -0.3781 -0.3472 -1.7285
  673MOL0     H90855   4.794   9.284   0.187  0.8543 -1.4244  0.6400
  674MOL0     O90856   1.621   5.550   2.102  1.1075 -0.4025  0.5173
  674MOL0     C90857   1.602   5.459   2.024  0.3031 -0.7152  0.3306
  674MOL0     O90858   1.499   5.365   2.034 -0.0258  0.3757 -0.6324
  674MOL0     C90859   1.390   5.386   2.124 -0.5247 -0.0703 -0.5203
  674MOL0     C90860   1.413   5.414   2.262  0.4367 -0.1625  0.7060
  674MOL0     C90861   1.304   5.428   2.347 -0.2775  0.8000  0.4603
  674MOL0     C90862   1.176   5.410   2.293  0.2994  1.0166 -0.7770
  674MOL0     O90863   1.060   5.404   2.373 -0.4681 -0.4084  0.4179
  674MOL0     C90864   1.044   5.523   2.460 -0.5952  0.3231  0.7105
  674MOL0     C90865   0.945   5.499   2.574 -0.6554 -0.4024 -1.1856
  674MOL0     C90866   0.803   5.450   2.544 -0.6660  0.0362 -0.0801
  674MOL0     C90867   0.722   5.417   2.665 -0.2031  0.2292 -0.6099
  674MOL0     C90868   0.595   5.344   2.633  0.0117  0.7889  0.3267
  674MOL0     C90869   0.489   5.435   2.562  0.2530 -0.8644  0.1697
  674MOL0     C90870   0.441   5.565   2.632  0.0188  0.3115 -0.4033
  674MOL0     C90871   0.368   5.559   2.771 -0.1741 -0.3764 -0.2583
  674MOL0     N90872   0.226   5.533   2.767  0.1177 -0.9133  0.0576
  674MOL0     C90873   0.168   5.403   2.780  0.2598 -0.6419  1.0413
  674MOL0     C90874   0.034   5.434   2.795 -0.4917  0.2212  0.2620
  674MOL0     C90875  -0.067   5.328   2.803  0.5589 -0.1425 -0.9937
  674MOL0     C90876  -0.149   5.326   2.673 -0.4743  0.3422  0.0400
  674MOL0     C90877  -0.254   5.211   2.684  0.2242 -0.2994  0.2828
  674MOL0     C90878  -0.363   5.223   2.593 -0.1761 -0.4495  0.3416
  674MOL0     O90879  -0.458   5.126   2.603 -1.0591 -0.6408  0.1475
  674MOL0     C90880  -0.561   5.123   2.518 -0.2386  0.3024  1.2526
  674MOL0     C90881  -0.626   5.003   2.514 -0.8646  0.1956  0.8154
  674MOL0     C90882  -0.733   4.977   2.436 -1.3762  0.0808 -0.2954
  674MOL0     C90883  -0.777   4.825   2.433  0.2187 -0.0577  0.5271
  674MOL0     C90884  -0.798   5.087   2.378  1.0674  0.7717 -0.5502
  674MOL0     C90885  -0.940   5.082   2.332 -0.4285 -0.0937 -0.1075
  674MOL0     O90886  -1.015   5.199   2.338  0.1231 -0.1679 -0.3088
  674MOL0     C90887  -1.132   5.203   2.267  0.1739 -0.2220 -0.2122
  674MOL0     C90888  -1.256   5.200   2.335  0.1778 -0.4128  0.2279
  674MOL0     C90889  -1.376   5.210   2.265 -0.4078 -0.4026 -0.2889
  674MOL0     C90890  -1.378   5.227   2.127  0.0125  0.5710 -0.3742
  674MOL0     O90891  -1.494   5.233   2.052  0.1272  0.1669  0.1979
  674MOL0     C90892  -1.498   5.228   1.909 -0.1069 -0.3482 -0.4575
  674MOL0     C90893  -1.641   5.223   1.860 -0.2936  0.3620 -0.2602
  674MOL0     C90894  -1.713   5.352   1.896  0.6400  0.5999  0.8696
  674MOL0     C90895  -1.861   5.344   1.869  0.0723  0.5663  1.0436
  674MOL0     C90896  -1.941   5.464   1.921 -0.2123  0.0911  0.9329
  674MOL0     C90897  -2.090   5.453   1.865  0.2341 -0.0830  0.4949
  674MOL0     C90898  -2.174   5.358   1.954  0.1301  0.4304  0.0136
  674MOL0     C90899  -2.317   5.323   1.895 -0.2300  1.0990  0.4594
  674MOL0    Cl90900  -2.419   5.472   1.855 -0.3640  0.3986 -0.0507
  674MOL0     C90901  -1.253   5.247   2.060  0.3089  0.5033  0.5942
  674MOL0     C90902  -1.131   5.230   2.126  0.0819 -0.1330  0.1103
  674MOL0     O90903  -0.972   4.971   2.288 -0.3269 -0.3105 -0.2649
  674MOL0     C90904  -0.742   5.213   2.384  0.4301  1.5198 -0.6059
  674MOL0     C90905  -0.617   5.228   2.447  0.2252  0.2436 -1.0768
  674MOL0     N90906   0.013   5.572   2.779 -0.0413  1.0735  0.7156
  674MOL0     N90907   0.127   5.632   2.767  0.1937 -0.3067  0.6222
  674MOL0     C90908   1.154   5.369   2.160  0.0718  0.3140 -0.7897
  674MOL0     C90909   1.266   5.364   2.077 -0.4550 -0.1876  0.3253
  674MOL0     C90910   1.716   5.430   1.926  0.2655 -0.3359  0.5614
  674MOL0     C90911   1.835   5.505   1.929  0.1944  0.4087 -0.0060
  674MOL0     C90912   1.940   5.460   1.843 -0.4422 -0.3250  0.0892
  674MOL0     C90913   1.919   5.361   1.747 -0.2316 -0.0417 -0.4409
  674MOL0     O90914   2.010   5.325   1.647 -0.0418 -0.0842  0.0036
  674MOL0     C90915   2.118   5.419   1.615  0.3919  0.5071 -0.3234
  674MOL0     C90916   2.203   5.354   1.507 -0.6256 -0.7346 -0.4386
  674MOL0     C90917   2.338   5.422   1.478  0.4562 -0.4113 -0.6780
  674MOL0     C90918   2.335   5.550   1.393  0.7084 -0.2482  0.1333
  674MOL0     C90919   2.473   5.580   1.354  0.3422  0.3587  0.8635
  674MOL0     C90920   2.589   5.616   1.319  0.5641 -0.3688 -0.2811
  674MOL0     C90921   1.798   5.296   1.746  0.0573  0.0337  0.4956
  674MOL0     C90922   1.697   5.320   1.837  0.3438 -0.0576 -0.4580
  674MOL0     H90923   1.517   5.420   2.290  0.6223  2.5561 -0.2453
  674MOL0     H90924   1.318   5.447   2.453 -1.1342 -0.0587  0.7465
  674MOL0     H90925   1.140   5.556   2.501 -0.1959 -0.5835  0.5072
  674MOL0     H90926   0.991   5.597   2.398 -1.4844 -0.8278  0.0611
  674MOL0     H90927   0.986   5.415   2.631 -1.6034  0.3348  0.6589
  674MOL0     H90928   0.955   5.590   2.633  3.4220 -0.2978 -1.7900
  674MOL0     H90929   0.750   5.529   2.489 -1.0081  0.7422  1.2349
  674MOL0     H90930   0.816   5.365   2.476  1.2021  1.1091 -1.1489
  674MOL0     H90931   0.769   5.357   2.744  0.8553  1.1525 -0.5098
  674MOL0     H90932   0.704   5.511   2.718  2.4374  0.0139  0.8504
  674MOL0     H90933   0.611   5.249   2.581  0.1146 -0.2422  2.1656
  674MOL0     H90934   0.549   5.309   2.725  0.8370 -2.8001 -0.4879
  674MOL0     H90935   0.536   5.471   2.470 -0.7376 -0.5328 -0.2167
  674MOL0     H90936   0.406   5.372   2.527 -2.2447  0.7678  2.7003
  674MOL0     H90937   0.526   5.632   2.642 -0.6834  1.2138 -0.2699
  674MOL0     H90938   0.368   5.612   2.566  0.5237 -1.2335 -2.1301
  674MOL0     H90939   0.370   5.657   2.820 -1.0268 -0.3045 -0.3574
  674MOL0     H90940   0.414   5.486   2.838  0.3644  1.6950  1.7549
  674MOL0     H90941   0.211   5.306   2.803 -1.4168 -1.8172 -0.5501
  674MOL0     H90942  -0.017   5.231   2.805  0.7032 -0.0615  0.1197
  674MOL0     H90943  -0.126   5.338   2.895 -0.6706 -0.8317 -1.6741
  674MOL0     H90944  -0.085   5.314   2.585  0.3462 -2.6148  0.9146
  674MOL0     H90945  -0.194   5.424   2.658  1.5768  0.9654 -2.9225
  674MOL0     H90946  -0.289   5.206   2.788  1.1227  1.0352  0.6763
  674MOL0     H90947  -0.207   5.115   2.662 -1.9727 -1.2736 -0.4349
  674MOL0     H90948  -0.320   5.225   2.492  1.0735  0.0384  0.8600
  674MOL0     H90949  -0.405   5.323   2.600  0.1680 -0.4300  3.0673
  674MOL0     H90950  -0.574   4.923   2.565  0.9633 -1.2233 -2.8937
  674MOL0     H90951  -0.778   4.780   2.333 -1.4898  1.3064 -0.1353
  674MOL0     H90952  -0.717   4.762   2.499  1.8112  0.3047 -0.5251
  674MOL0     H90953  -0.881   4.806   2.461  0.3488 -1.8797 -0.1105
  674MOL0     H90954  -1.268   5.188   2.442  3.2574  1.7018  0.9590
  674MOL0     H90955  -1.476   5.197   2.306 -1.4671  0.3027 -2.5208
  674MOL0     H90956  -1.438   5.308   1.865  1.2475 -1.5500 -0.8739
  674MOL0     H90957  -1.454   5.131   1.887  2.7741  0.3307  1.7210
  674MOL0     H90958  -1.650   5.210   1.752 -1.4768  1.5876 -0.3344
  674MOL0     H90959  -1.682   5.145   1.924  2.0594 -0.6701  0.1076
  674MOL0     H90960  -1.674   5.437   1.839 -2.9299  1.5053 -0.4900
  674MOL0     H90961  -1.707   5.380   2.002 -1.0130  0.3880  1.0411
  674MOL0     H90962  -1.863   5.347   1.759  2.7231  0.7181  0.9376
  674MOL0     H90963  -1.900   5.245   1.894 -0.6978  0.3456 -0.8081
  674MOL0     H90964  -1.892   5.554   1.881 -1.1563  0.1105 -0.2621
  674MOL0     H90965  -1.950   5.475   2.029 -4.2458 -0.2879  0.8104
  674MOL0     H90966  -2.125   5.557   1.864  4.2529  1.4376 -0.3474
  674MOL0     H90967  -2.094   5.435   1.757 -2.7194  1.1685  0.2994
  674MOL0     H90968  -2.182   5.401   2.054 -0.4455  1.6195 -0.5186
  674MOL0     H90969  -2.122   5.262   1.961 -0.0333  0.1722 -1.8090
  674MOL0     H90970  -2.366   5.253   1.962  1.8083 -2.0136 -1.0337
  674MOL0     H90971  -2.295   5.267   1.804  0.2756 -1.3368  1.9846
  674MOL0     H90972  -1.256   5.281   1.957 -1.1625 -1.3382 -0.0394
  674MOL0     H90973  -1.034   5.237   2.078  0.0780  2.8667  0.3610
  674MOL0     H90974  -0.788   5.305   2.350 -2.6764  0.5986  0.7218
  674MOL0     H90975  -0.563   5.321   2.435  1.5152 -0.6945 -3.0567
  674MOL0     H90976   1.053   5.348   2.124  0.5070 -2.6198 -0.5281
  674MOL0     H90977   1.255   5.337   1.972 -0.5255  1.3398 -0.0864
  674MOL0     H90978   1.842   5.587   1.999 -0.0965 -0.0093  0.5139
  674MOL0     H90979   2.034   5.514   1.853  1.0365 -3.1347  6.7529
  674MOL0     H90980   2.080   5.516   1.581  1.3727  0.8746 -0.3908
  674MOL0     H90981   2.169   5.432   1.711 -0.4248 -1.3982  0.4354
  674MOL0     H90982   2.141   5.359   1.417 -0.6408  2.7312 -0.3691
  674MOL0     H90983   2.218   5.248   1.528 -3.0547 -1.2719 -1.0702
  674MOL0     H90984   2.393   5.344   1.425  0.2462 -2.6205  2.1439
  674MOL0     H90985   2.387   5.441   1.574  0.5518  2.1048 -1.1519
  674MOL0     H90986   2.279   5.632   1.439 -2.9036 -2.2327 -0.3093
  674MOL0     H90987   2.270   5.535   1.306  1.2111  2.4156 -0.7962
  674MOL0     H90988   2.692   5.630   1.292  0.4783  0.1138 -0.3678
  674MOL0     H90989   1.772   5.213   1.680 -1.7173 -0.9099  2.2672
  674MOL0     H90990   1.605   5.263   1.834 -0.1052  0.4997  1.3914
  675MOL0     O90991   1.102   2.121   4.619  0.2927  0.6258  0.1588
  675MOL0     C90992   1.113   2.240   4.641 -0.0263 -1.0404 -0.8572
  675MOL0     O90993   1.006   2.326   4.646  0.6056  0.3280 -0.1385
  675MOL0     C90994   0.879   2.286   4.679 -0.6732 -0.2787 -0.2120
  675MOL0     C90995   0.770   2.353   4.632  0.5932  0.6886  0.1202
  675MOL0     C90996   0.640   2.318   4.654 -0.2691 -0.1902  0.2918
  675MOL0     C90997   0.617   2.200   4.724  0.5067  0.3090 -0.5523
  675MOL0     O90998   0.493   2.149   4.745  0.0134  0.9453 -0.0913
  675MOL0     C90999   0.384   2.245   4.776 -0.2593  0.3821  0.4493
  675MOL0     C91000   0.298   2.196   4.885  1.0464  0.3595 -0.4656
  675MOL0     C91001   0.384   2.197   5.015  0.1293  0.2180 -0.4475
  675MOL0     C91002   0.308   2.139   5.136 -1.5192 -0.2134 -0.3553
  675MOL0     C91003   0.208   2.234   5.197  0.1743  0.1108 -0.4843
  675MOL0     C91004   0.133   2.161   5.311 -0.1229  0.7344 -1.1136
  675MOL0     C91005   0.002   2.223   5.377 -0.9502 -0.9895 -0.4022
  675MOL0     C91006   0.013   2.379   5.397  0.5721 -0.7980 -0.4928
  675MOL0     N91007  -0.117   2.433   5.442 -0.3335 -0.4968 -0.1093
  675MOL0     C91008  -0.139   2.506   5.552  0.0852 -1.0195 -0.6499
  675MOL0     C91009  -0.274   2.505   5.564  0.4930 -0.2926  0.1533
  675MOL0     C91010  -0.352   2.570   5.666 -0.2137  0.1593  0.1755
  675MOL0     C91011  -0.416   2.459   5.751 -0.6592 -0.6949  0.5958
  675MOL0     C91012  -0.514   2.522   5.846 -1.0798  0.1945 -0.0160
  675MOL0     C91013  -0.612   2.412   5.893  0.3255  0.5162 -0.1889
  675MOL0     O91014  -0.684   2.353   5.780 -0.1707 -0.5648  0.4352
  675MOL0     C91015  -0.819   2.332   5.801  0.0311  0.5351  0.0204
  675MOL0     C91016  -0.876   2.251   5.905 -0.1197 -0.8782 -0.1517
  675MOL0     C91017  -1.009   2.230   5.915 -0.5004 -0.2462 -0.5533
  675MOL0     C91018  -1.043   2.122   6.018  0.2344  0.3922  0.1656
  675MOL0     C91019  -1.099   2.303   5.844  0.7565  0.3558  0.4137
  675MOL0     C91020  -1.251   2.276   5.831  0.0117 -0.7179 -0.0414
  675MOL0     O91021  -1.315   2.349   5.732 -0.7079  0.2425 -0.4800
  675MOL0     C91022  -1.451   2.371   5.747 -0.4802 -0.0811  0.1092
  675MOL0     C91023  -1.493   2.468   5.839  0.8046  0.0413 -0.1128
  675MOL0     C91024  -1.622   2.477   5.884  0.7314 -0.0601 -0.1711
  675MOL0     C91025  -1.722   2.396   5.809 -0.8185  0.1219 -0.1033
  675MOL0     O91026  -1.858   2.399   5.836  0.0754 -0.3968  0.5635
  675MOL0     C91027  -1.908   2.501   5.928  0.6719  0.1891  0.3215
  675MOL0     C91028  -2.060   2.532   5.906 -0.2985  0.5258  0.6282
  675MOL0     C91029  -2.101   2.591   5.775 -0.0548 -0.5064 -0.3525
  675MOL0     C91030  -2.247   2.637   5.772  1.0468 -0.2965 -0.5002
  675MOL0     C91031  -2.271   2.678   5.628 -0.4782  0.6210 -0.3539
  675MOL0     C91032  -2.417   2.722   5.614  0.8794  0.3494  0.2494
  675MOL0     C91033  -2.434   2.781   5.473  0.5238  0.3802 -0.6350
  675MOL0     C91034  -2.578   2.815   5.432 -0.4025 -0.3085  0.0334
  675MOL0    Cl91035  -2.571   2.899   5.273 -0.2841 -0.0847 -0.0749
  675MOL0     C91036  -1.679   2.314   5.704 -0.1444 -0.0729 -0.1958
  675MOL0     C91037  -1.546   2.301   5.676  0.3793 -0.9067 -0.0906
  675MOL0     O91038  -1.308   2.193   5.899  0.2287 -0.1077 -0.7505
  675MOL0     C91039  -1.043   2.396   5.748  0.1708 -0.1132 -0.2898
  675MOL0     C91040  -0.904   2.397   5.719  0.8391 -0.8986 -0.1898
  675MOL0     N91041  -0.323   2.448   5.458 -0.0743  1.0787  0.9800
  675MOL0     N91042  -0.228   2.402   5.380 -0.0611 -0.2371  0.0828
  675MOL0     C91043   0.722   2.133   4.784  0.2382  0.0261  0.0989
  675MOL0     C91044   0.851   2.172   4.763  0.4776 -0.4016 -0.4685
  675MOL0     C91045   1.253   2.299   4.661  0.9703 -0.0512 -0.6292
  675MOL0     C91046   1.262   2.437   4.695  0.4802 -0.4774 -0.7596
  675MOL0     C91047   1.393   2.496   4.692  0.0689  0.3136 -0.1575
  675MOL0     C91048   1.505   2.417   4.659 -0.8915 -0.7427  0.1964
  675MOL0     O91049   1.633   2.469   4.655 -0.4431 -0.2030  0.2490
  675MOL0     C91050   1.663   2.591   4.730 -0.4912  0.4058 -0.1973
  675MOL0     C91051   1.778   2.555   4.822 -0.2030  0.9596 -0.1040
  675MOL0     C91052   1.914   2.542   4.740 -0.4998  0.1215  0.1025
  675MOL0     C91053   2.037   2.516   4.824  0.4102 -0.0249 -0.2718
  675MOL0     C91054   2.156   2.532   4.734  0.3741  0.1281 -0.2058
  675MOL0     C91055   2.249   2.551   4.663  0.1232  0.5576  0.3610
  675MOL0     C91056   1.485   2.290   4.615  0.1142 -0.1667 -0.2630
  675MOL0     C91057   1.363   2.224   4.618 -0.8797  0.2367 -0.1024
  675MOL0     H91058   0.786   2.441   4.571 -2.3424  1.4201  0.2564
  675MOL0     H91059   0.560   2.373   4.605  2.4922  2.7543 -1.3434
  675MOL0     H91060   0.424   2.342   4.807  0.3974 -0.3799  2.0742
  675MOL0     H91061   0.318   2.249   4.688  0.4492  0.9424 -0.0667
  675MOL0     H91062   0.204   2.252   4.889 -0.4769 -2.1134  1.3465
  675MOL0     H91063   0.259   2.095   4.870 -0.9556  1.2370 -1.6532
  675MOL0     H91064   0.469   2.129   5.005  1.6516  1.4831  2.7096
  675MOL0     H91065   0.414   2.300   5.038  1.0842 -0.3522  1.0096
  675MOL0     H91066   0.253   2.048   5.108 -1.9233  0.2740 -1.1966
  675MOL0     H91067   0.372   2.116   5.221 -2.2511  1.4601  0.7135
  675MOL0     H91068   0.266   2.316   5.241  0.2873 -0.4255  0.3742
  675MOL0     H91069   0.135   2.268   5.123 -1.6816 -4.1592 -0.8946
  675MOL0     H91070   0.114   2.060   5.273  0.9223  0.9603 -2.2961
  675MOL0     H91071   0.199   2.149   5.397 -1.3123 -0.2991 -0.3149
  675MOL0     H91072  -0.078   2.202   5.305 -1.0838 -0.3662 -0.4469
  675MOL0     H91073  -0.025   2.177   5.473 -1.9119 -1.4188 -0.8609
  675MOL0     H91074   0.040   2.423   5.300  2.8047  0.7282  0.7229
  675MOL0     H91075   0.093   2.411   5.464 -0.9962  2.9450 -0.1339
  675MOL0     H91076  -0.065   2.541   5.623 -0.1934 -1.8391  0.0639
  675MOL0     H91077  -0.287   2.635   5.725  0.5857  0.4932 -1.0265
  675MOL0     H91078  -0.435   2.624   5.618 -0.9291  0.0706  1.2717
  675MOL0     H91079  -0.339   2.399   5.801  0.3973 -0.4002 -0.6336
  675MOL0     H91080  -0.471   2.387   5.690 -2.4953  1.8033 -0.8704
  675MOL0     H91081  -0.582   2.593   5.798 -2.5741 -1.7632 -0.9561
  675MOL0     H91082  -0.460   2.578   5.922  2.3520  1.8112 -3.3169
  675MOL0     H91083  -0.680   2.464   5.961  1.3670  1.8349 -0.1146
  675MOL0     H91084  -0.572   2.326   5.948 -4.2460 -1.1504  0.9514
  675MOL0     H91085  -0.812   2.190   5.968 -0.9051 -0.9376  0.6188
  675MOL0     H91086  -1.142   2.136   6.060  0.2307 -2.9958  1.5822
  675MOL0     H91087  -1.052   2.029   5.961 -0.4308  1.2226 -1.1530
  675MOL0     H91088  -0.972   2.108   6.100 -0.2138 -0.3673  0.4273
  675MOL0     H91089  -1.418   2.539   5.871  0.7447 -0.8443  2.1855
  675MOL0     H91090  -1.644   2.534   5.974 -0.7912 -0.8274 -0.0280
  675MOL0     H91091  -1.914   2.467   6.031 -1.6734  0.2780  0.2829
  675MOL0     H91092  -1.852   2.593   5.911  1.2012 -0.2652 -0.4681
  675MOL0     H91093  -2.123   2.444   5.920 -1.4972  1.2304 -0.1163
  675MOL0     H91094  -2.095   2.592   5.991 -1.7300  1.2150 -0.3941
  675MOL0     H91095  -2.081   2.521   5.693  0.7688  1.7631 -2.1804
  675MOL0     H91096  -2.047   2.681   5.746 -1.6756  1.2225  1.6748
  675MOL0     H91097  -2.318   2.557   5.796  0.9573 -0.9603 -2.7993
  675MOL0     H91098  -2.265   2.712   5.850  3.7988 -3.6817  3.8497
  675MOL0     H91099  -2.242   2.595   5.563 -0.8269 -0.0100  0.2778
  675MOL0     H91100  -2.195   2.750   5.597  2.3240 -2.0369 -0.2126
  675MOL0     H91101  -2.484   2.637   5.625 -1.0466  1.8892  0.8478
  675MOL0     H91102  -2.445   2.797   5.689 -0.9025  0.5287 -0.5623
  675MOL0     H91103  -2.395   2.712   5.398  0.8592  0.5691 -0.6381
  675MOL0     H91104  -2.364   2.866   5.474  0.5563  0.3986 -2.2138
  675MOL0     H91105  -2.630   2.888   5.495 -0.3243  0.4516 -0.7771
  675MOL0     H91106  -2.642   2.726   5.424 -1.3321  0.4121 -0.7290
  675MOL0     H91107  -1.751   2.255   5.650  0.1088 -2.1054  1.5661
  675MOL0     H91108  -1.519   2.231   5.598  1.6805 -1.5914  0.9256
  675MOL0     H91109  -1.107   2.456   5.683  0.5431 -0.6539 -1.1784
  675MOL0     H91110  -0.877   2.465   5.639  0.1415  0.1525  0.4455
  675MOL0     H91111   0.683   2.046   4.835 -2.3204  0.1263 -1.4762
  675MOL0     H91112   0.931   2.133   4.824  0.4374 -0.6064 -0.5449
  675MOL0     H91113   1.175   2.498   4.719 -1.0760 -3.8530  3.4618
  675MOL0     H91114   1.393   2.601   4.718  0.5235  0.5234 -0.9837
  675MOL0     H91115   1.689   2.676   4.665 -1.5606  0.7791 -0.1642
  675MOL0     H91116   1.581   2.628   4.791  1.0016  0.8340  1.6398
  675MOL0     H91117   1.757   2.453   4.858 -1.6224  1.4769  0.6307
  675MOL0     H91118   1.793   2.621   4.907  0.6477 -0.2934  0.7601
  675MOL0     H91119   1.932   2.640   4.696  1.6207 -0.6301 -0.7873
  675MOL0     H91120   1.906   2.466   4.663  1.4142 -0.5232  0.4921
  675MOL0     H91121   2.029   2.414   4.862 -1.0459  0.0617 -0.2709
  675MOL0     H91122   2.051   2.579   4.913  0.2829  0.0878 -0.3311
  675MOL0     H91123   2.337   2.575   4.607 -0.8026 -1.3230 -2.0945
  675MOL0     H91124   1.570   2.228   4.586  1.5187  2.2204 -1.5594
  675MOL0     H91125   1.365   2.118   4.594  0.6563 -0.2547  1.9662
  676MOL0     O91126   3.281   4.230   2.079  0.5600 -0.2724  0.0894
  676MOL0     C91127   3.293   4.110   2.091 -0.5075 -0.2582 -0.9013
  676MOL0     O91128   3.202   4.016   2.038 -0.5415  0.2718  0.2178
  676MOL0     C91129   3.083   4.051   1.991  0.8839 -0.0361  0.1273
  676MOL0     C91130   3.011   3.952   1.925 -0.2811 -0.2744  0.2837
  676MOL0     C91131   2.890   3.977   1.856 -0.3765 -0.1879 -0.5825
  676MOL0     C91132   2.836   4.097   1.861  0.1798 -0.5529 -0.6214
  676MOL0     O91133   2.713   4.127   1.803 -0.2679 -0.1173 -0.2789
  676MOL0     C91134   2.658   4.057   1.693 -0.3183 -0.0109 -0.5614
  676MOL0     C91135   2.725   4.105   1.567 -0.3696  0.6427 -0.3748
  676MOL0     C91136   2.830   4.019   1.510  0.7759  0.2172 -0.8453
  676MOL0     C91137   2.853   4.052   1.362 -0.6833  0.3574  0.1642
  676MOL0     C91138   2.965   3.961   1.307 -0.1268  0.1392  0.0372
  676MOL0     C91139   2.991   3.959   1.154 -0.3632  0.2998  0.5352
  676MOL0     C91140   3.072   4.088   1.108  0.1008  1.4708 -0.8604
  676MOL0     C91141   3.217   4.075   1.145 -0.3177 -0.3603  0.6909
  676MOL0     N91142   3.288   3.949   1.129  0.9490 -0.4000  0.3684
  676MOL0     C91143   3.393   3.939   1.040  0.7972  0.3345 -0.4814
  676MOL0     C91144   3.437   3.815   1.054 -1.1125  0.6028 -0.5906
  676MOL0     C91145   3.563   3.770   0.985  0.3937  0.0086 -0.7452
  676MOL0     C91146   3.673   3.758   1.090 -0.0372 -0.3429 -0.4752
  676MOL0     C91147   3.804   3.729   1.016 -0.3121  0.0236  0.7415
  676MOL0     C91148   3.857   3.852   0.942  0.1221  0.1799  0.7517
  676MOL0     O91149   3.970   3.820   0.859 -0.5469 -0.3315  0.7484
  676MOL0     C91150   4.093   3.826   0.914 -0.3222 -0.8668 -0.3800
  676MOL0     C91151   4.168   3.942   0.887  0.0161 -0.1032 -0.4645
  676MOL0     C91152   4.306   3.947   0.929  0.0192  0.2571 -1.1619
  676MOL0     C91153   4.394   4.066   0.879 -0.8877 -0.1019  0.2284
  676MOL0     C91154   4.360   3.842   1.006 -0.3578  0.6198 -0.2795
  676MOL0     C91155   4.501   3.840   1.061 -0.1330  0.7886 -0.2699
  676MOL0     O91156   4.543   3.718   1.112 -0.4644 -0.1747 -0.8578
  676MOL0     C91157   4.676   3.706   1.153 -0.0125 -0.3149  0.6686
  676MOL0     C91158   4.712   3.696   1.286  0.1104 -0.8381  0.0890
  676MOL0     C91159   4.844   3.666   1.326  1.2849 -0.6399 -0.1742
  676MOL0     C91160   4.942   3.637   1.227  0.4729 -0.4136  0.6279
  676MOL0     O91161   5.068   3.599   1.252 -0.5927 -0.0390 -0.1752
  676MOL0     C91162   5.130   3.647   1.371 -0.5571 -0.0929 -0.4027
  676MOL0     C91163   5.174   3.537   1.469 -0.3068  0.0026  0.1105
  676MOL0     C91164   5.285   3.452   1.410 -0.1740  0.7192  1.0685
  676MOL0     C91165   5.302   3.330   1.497 -0.3693 -0.0785  0.0546
  676MOL0     C91166   5.416   3.239   1.440  0.1932  0.9635 -1.0999
  676MOL0     C91167   5.561   3.286   1.438  0.3062  0.0361 -0.9614
  676MOL0     C91168   5.607   3.307   1.585  0.4971 -0.6192 -0.2727
  676MOL0     C91169   5.753   3.352   1.580  0.0869 -0.2964 -0.4441
  676MOL0    Cl91170   5.862   3.224   1.511  0.0477  0.0775 -0.2740
  676MOL0     C91171   4.907   3.654   1.095  0.5325  0.7286  0.2399
  676MOL0     C91172   4.776   3.683   1.061  0.1425  0.1487 -0.3679
  676MOL0     O91173   4.561   3.941   1.073  0.1572  0.5895  1.2143
  676MOL0     C91174   4.279   3.737   1.032 -0.4698 -0.2372 -0.2309
  676MOL0     C91175   4.147   3.724   0.991  0.1018 -0.3363 -0.0028
  676MOL0     N91176   3.371   3.753   1.159 -0.1620  0.2428  0.3823
  676MOL0     N91177   3.285   3.840   1.211 -0.2034  0.2670 -0.2839
  676MOL0     C91178   2.897   4.203   1.933  0.4602 -0.1276 -0.6340
  676MOL0     C91179   3.022   4.181   1.996 -0.2814 -0.3813  0.8814
  676MOL0     C91180   3.413   4.051   2.164  0.1562 -0.1938 -0.3694
  676MOL0     C91181   3.499   4.126   2.236 -0.0955  0.4972  0.0989
  676MOL0     C91182   3.609   4.062   2.299  0.3198  0.7102  0.7325
  676MOL0     C91183   3.640   3.936   2.272  0.8367  1.1244 -0.2220
  676MOL0     O91184   3.754   3.880   2.326 -0.2867  0.3830  0.5184
  676MOL0     C91185   3.797   3.744   2.302  0.3954  0.8211  0.0277
  676MOL0     C91186   3.927   3.731   2.369 -0.5824 -0.6542  0.1107
  676MOL0     C91187   3.974   3.591   2.375 -0.3609  0.0370 -0.0547
  676MOL0     C91188   4.099   3.582   2.461  0.0559  0.3879 -0.1041
  676MOL0     C91189   4.150   3.444   2.453  0.5425 -0.5334 -0.4752
  676MOL0     C91190   4.202   3.334   2.436  0.1029 -0.4346 -0.3117
  676MOL0     C91191   3.545   3.853   2.207 -0.7679  0.5417 -0.4717
  676MOL0     C91192   3.427   3.909   2.155  0.2184  0.5288 -0.2478
  676MOL0     H91193   3.037   3.847   1.930 -1.3480 -0.6394 -0.9870
  676MOL0     H91194   2.830   3.894   1.819 -1.3695  0.8918 -1.4573
  676MOL0     H91195   2.670   3.948   1.699  0.4930  0.1025  0.0321
  676MOL0     H91196   2.551   4.074   1.681 -0.9452 -4.0999 -2.6188
  676MOL0     H91197   2.653   4.126   1.487 -0.8125  1.8323  0.3246
  676MOL0     H91198   2.776   4.197   1.596 -0.0765  0.7662 -1.2499
  676MOL0     H91199   2.920   4.039   1.568 -0.5471  0.1940  1.3328
  676MOL0     H91200   2.801   3.915   1.528 -1.2429  1.0994  1.4912
  676MOL0     H91201   2.759   4.031   1.309 -0.1417  0.4828 -0.8680
  676MOL0     H91202   2.878   4.158   1.353  0.6052  0.0325 -0.2936
  676MOL0     H91203   3.065   3.967   1.350  2.1101  1.4226 -4.6112
  676MOL0     H91204   2.929   3.858   1.321  1.6605 -0.4184  0.7669
  676MOL0     H91205   3.055   3.872   1.138 -2.4383 -1.4793  1.3570
  676MOL0     H91206   2.898   3.948   1.096  0.1821  1.2512 -0.5658
  676MOL0     H91207   3.050   4.101   1.002 -1.4253 -1.1524 -0.9445
  676MOL0     H91208   3.023   4.176   1.149 -2.0314 -0.8716  2.0963
  676MOL0     H91209   3.236   4.095   1.251  0.7274  1.0194  0.2842
  676MOL0     H91210   3.275   4.150   1.090 -1.3620 -1.0200 -1.4147
  676MOL0     H91211   3.427   4.017   0.972  1.2257  0.5002 -0.0809
  676MOL0     H91212   3.550   3.670   0.944  1.5674 -1.9284  3.0683
  676MOL0     H91213   3.583   3.842   0.905  1.2377  0.0117 -0.5495
  676MOL0     H91214   3.647   3.673   1.153 -0.8446  1.5940  1.9953
  676MOL0     H91215   3.689   3.848   1.151  1.8357 -2.7777  2.9510
  676MOL0     H91216   3.802   3.655   0.935 -1.1727  1.8839 -1.0162
  676MOL0     H91217   3.878   3.704   1.093 -1.4987  0.7819  2.1602
  676MOL0     H91218   3.875   3.924   1.022 -1.4198 -0.6852  1.9479
  676MOL0     H91219   3.785   3.913   0.886  3.1738  3.3865 -0.0458
  676MOL0     H91220   4.123   4.022   0.830  2.0855  1.5660  0.0882
  676MOL0     H91221   4.404   4.137   0.961 -2.1774 -0.2909  0.5714
  676MOL0     H91222   4.488   4.027   0.839 -1.6870 -1.5140 -0.3482
  676MOL0     H91223   4.349   4.118   0.794 -2.4939 -1.5331  0.1555
  676MOL0     H91224   4.631   3.705   1.358 -0.0179  0.7452 -0.2103
  676MOL0     H91225   4.858   3.644   1.431  1.5461 -1.0568 -0.2938
  676MOL0     H91226   5.224   3.699   1.348  0.0192 -1.6715 -1.7536
  676MOL0     H91227   5.069   3.713   1.434 -0.9437 -1.9854  1.3097
  676MOL0     H91228   5.206   3.567   1.569  1.3244 -1.3131  0.0092
  676MOL0     H91229   5.082   3.482   1.493 -1.3892  1.3371 -0.7857
  676MOL0     H91230   5.371   3.520   1.409 -2.0266  3.2222  0.8552
  676MOL0     H91231   5.266   3.422   1.307  0.9860 -1.2688  1.3769
  676MOL0     H91232   5.317   3.363   1.601  2.7218 -2.4943  0.5235
  676MOL0     H91233   5.208   3.276   1.504  0.1405 -1.0861 -0.6803
  676MOL0     H91234   5.395   3.193   1.343 -0.3696 -0.4262 -0.3472
  676MOL0     H91235   5.415   3.151   1.505  0.2398  0.8427 -1.2617
  676MOL0     H91236   5.618   3.201   1.398  0.0167 -2.0500  2.6887
  676MOL0     H91237   5.583   3.372   1.374  0.0874 -0.7822 -2.1791
  676MOL0     H91238   5.593   3.216   1.645 -2.2471 -0.3046 -0.2824
  676MOL0     H91239   5.545   3.383   1.633 -0.5350 -1.4053 -0.3350
  676MOL0     H91240   5.777   3.395   1.678 -0.0348 -1.6488  0.2010
  676MOL0     H91241   5.759   3.441   1.516  1.1751  0.2436  0.3807
  676MOL0     H91242   4.980   3.640   1.016 -1.5054 -2.0703 -1.3599
  676MOL0     H91243   4.731   3.681   0.962  1.9005 -0.6813 -1.1841
  676MOL0     H91244   4.314   3.646   1.079  0.5879 -1.5793 -3.3571
  676MOL0     H91245   4.094   3.635   1.024  0.5348  0.7707  4.2339
  676MOL0     H91246   2.860   4.305   1.922  0.9325  0.6229  3.2668
  676MOL0     H91247   3.067   4.267   2.045 -0.5693  0.1655  0.1976
  676MOL0     H91248   3.469   4.230   2.238 -2.9604 -0.2586  0.4968
  676MOL0     H91249   3.681   4.115   2.360  2.1693 -1.3159  0.4331
  676MOL0     H91250   3.729   3.676   2.354  1.2623 -0.3920 -0.3826
  676MOL0     H91251   3.806   3.739   2.194  2.6743  4.2190 -0.1142
  676MOL0     H91252   3.917   3.758   2.474 -1.7794 -1.2578  0.1761
  676MOL0     H91253   4.005   3.789   2.318 -1.1407 -0.1408 -0.1787
  676MOL0     H91254   4.002   3.558   2.274 -0.7885  1.6892 -0.7542
  676MOL0     H91255   3.891   3.531   2.413 -3.0278  3.4098 -0.1034
  676MOL0     H91256   4.073   3.597   2.566  0.8434  0.0764  0.1368
  676MOL0     H91257   4.178   3.651   2.430 -0.3692  0.6313 -0.6653
  676MOL0     H91258   4.256   3.243   2.421 -0.6578 -0.7784 -0.9735
  676MOL0     H91259   3.558   3.746   2.192 -0.4500  0.8816 -2.9524
  676MOL0     H91260   3.358   3.841   2.107  2.2611 -0.7519 -1.5474
  677MOL0     O91261   2.472  10.377   0.776 -0.3603 -0.2679  0.3560
  677MOL0     C91262   2.458  10.369   0.894  0.2283 -0.4007 -0.1866
  677MOL0     O91263   2.339  10.345   0.962  0.4372 -0.1915 -1.0071
  677MOL0     C91264   2.232  10.290   0.907 -0.4433 -0.0861  0.0844
  677MOL0     C91265   2.110  10.362   0.901 -0.6965  1.7163  0.1871
  677MOL0     C91266   1.998  10.295   0.842  0.0923  0.7750 -0.7421
  677MOL0     C91267   2.004  10.165   0.797 -0.9479  0.3646 -0.0968
  677MOL0     O91268   1.898  10.105   0.727 -0.2841 -0.4422  0.2462
  677MOL0     C91269   1.766  10.099   0.797 -0.0443  0.9712 -0.0946
  677MOL0     C91270   1.662  10.004   0.731 -1.1263 -0.0988  0.4221
  677MOL0     C91271   1.533   9.982   0.808 -0.1450  0.2678 -0.1674
  677MOL0     C91272   1.430   9.907   0.723 -0.2306  0.1210 -0.0899
  677MOL0     C91273   1.282   9.945   0.751 -0.0402  0.0491 -0.1817
  677MOL0     C91274   1.210   9.833   0.836  0.0095  0.6915  0.1169
  677MOL0     C91275   1.067   9.870   0.849  0.3544 -0.8118  0.1306
  677MOL0     C91276   0.991   9.876   0.722  0.1183 -0.3266 -0.4720
  677MOL0     N91277   0.844   9.866   0.764  0.4114  0.2134 -0.4081
  677MOL0     C91278   0.761   9.973   0.765  0.6378  0.2288  0.4729
  677MOL0     C91279   0.640   9.917   0.801 -0.6975 -0.2663 -0.6848
  677MOL0     C91280   0.514   9.995   0.794  0.1100 -0.4206 -0.0638
  677MOL0     C91281   0.425   9.950   0.671 -0.2654  0.6109 -0.7093
  677MOL0     C91282   0.299  10.043   0.676  0.9612  0.3625 -0.3718
  677MOL0     C91283   0.175   9.977   0.627  0.0399  0.0357 -0.3064
  677MOL0     O91284   0.071  10.076   0.610  0.4809  0.1928 -0.2668
  677MOL0     C91285  -0.056  10.027   0.585 -0.2136 -0.3946  0.5074
  677MOL0     C91286  -0.094   9.892   0.571  0.5066  0.7966 -0.6749
  677MOL0     C91287  -0.227   9.852   0.558 -0.4978  0.5807 -0.2867
  677MOL0     C91288  -0.252   9.701   0.577 -0.5444  0.3283  0.2044
  677MOL0     C91289  -0.330   9.944   0.524  0.0388  0.4605  0.1908
  677MOL0     C91290  -0.465   9.905   0.482 -0.6140  1.3249 -1.2449
  677MOL0     O91291  -0.484   9.777   0.437 -0.0503  0.0436  0.1791
  677MOL0     C91292  -0.618   9.747   0.424 -0.2159 -0.2932  0.4794
  677MOL0     C91293  -0.686   9.665   0.513  0.4177 -0.0970 -0.2053
  677MOL0     C91294  -0.819   9.637   0.487  1.0553  0.3903 -0.7333
  677MOL0     C91295  -0.900   9.681   0.382 -0.0074 -0.2203  0.0126
  677MOL0     O91296  -1.032   9.641   0.355  0.2263 -0.0064 -0.5585
  677MOL0     C91297  -1.125   9.682   0.459 -0.2901  0.2934  0.0146
  677MOL0     C91298  -1.258   9.690   0.381  0.0312  0.1089 -0.1949
  677MOL0     C91299  -1.338   9.564   0.369 -0.0167  0.2626  0.3025
  677MOL0     C91300  -1.458   9.563   0.272 -0.3879 -0.7376  0.0066
  677MOL0     C91301  -1.585   9.624   0.333  0.0808 -0.5364 -0.5049
  677MOL0     C91302  -1.696   9.604   0.223  0.1495  0.0689 -1.0010
  677MOL0     C91303  -1.821   9.626   0.305  0.4870 -0.7955  0.7463
  677MOL0     C91304  -1.947   9.616   0.223  0.2853  0.3789  0.4025
  677MOL0    Cl91305  -1.996   9.454   0.170 -0.4288  0.4024 -0.0228
  677MOL0     C91306  -0.827   9.766   0.289 -0.0242  0.0955  0.4613
  677MOL0     C91307  -0.691   9.797   0.312 -0.0541  0.1672 -0.4256
  677MOL0     O91308  -0.560   9.985   0.505  0.1910  0.5133 -0.3269
  677MOL0     C91309  -0.290  10.083   0.519  0.2261  0.0415 -0.0281
  677MOL0     C91310  -0.162  10.120   0.557  0.8211  0.1766 -0.4274
  677MOL0     N91311   0.660   9.786   0.838  0.4776  0.4420  0.1516
  677MOL0     N91312   0.781   9.760   0.817 -0.0707  0.6089  0.3961
  677MOL0     C91313   2.134  10.104   0.783  0.0902 -0.9032  0.0449
  677MOL0     C91314   2.245  10.164   0.842 -0.7092 -0.0168  0.4798
  677MOL0     C91315   2.577  10.364   0.976 -0.7531 -1.3506 -0.6403
  677MOL0     C91316   2.565  10.397   1.115 -1.0750 -0.1034  0.0677
  677MOL0     C91317   2.670  10.419   1.199 -0.2771  0.3386 -0.0668
  677MOL0     C91318   2.800  10.425   1.142 -0.1063  0.3543 -0.9646
  677MOL0     O91319   2.919  10.466   1.203 -0.6623 -0.5724 -0.5434
  677MOL0     C91320   2.913  10.507   1.347 -0.1054 -0.1480  0.2802
  677MOL0     C91321   2.934  10.378   1.429 -0.5366 -1.0127 -0.2433
  677MOL0     C91322   3.063  10.307   1.388 -0.0822  0.5204  0.4911
  677MOL0     C91323   3.076  10.178   1.471 -0.8374  0.1984  0.0742
  677MOL0     C91324   3.174  10.091   1.406 -0.4950 -0.6967 -0.2036
  677MOL0     C91325   3.272  10.029   1.370 -0.0218 -0.2605  0.8660
  677MOL0     C91326   2.815  10.378   1.012 -0.8495 -0.1598  0.2090
  677MOL0     C91327   2.707  10.355   0.927  0.9663 -0.4922 -0.5558
  677MOL0     H91328   2.100  10.462   0.944 -0.1915  1.5420  0.7229
  677MOL0     H91329   1.898  10.337   0.841 -1.7025 -3.0419 -1.1942
  677MOL0     H91330   1.795  10.057   0.894 -3.0349  1.2718  1.0368
  677MOL0     H91331   1.721  10.199   0.795 -1.6231  0.3083 -2.6547
  677MOL0     H91332   1.640  10.039   0.629  1.5723  0.1274 -0.1497
  677MOL0     H91333   1.706   9.904   0.725 -0.8384  0.0133  0.6692
  677MOL0     H91334   1.555   9.935   0.904 -1.7962  0.7913  0.4958
  677MOL0     H91335   1.492  10.075   0.848 -0.1330 -0.5904  1.9630
  677MOL0     H91336   1.453   9.936   0.620  1.5670  2.0764  0.7768
  677MOL0     H91337   1.443   9.799   0.734  1.1775  0.4036  1.4015
  677MOL0     H91338   1.264  10.046   0.790  2.0253  0.6439 -0.6159
  677MOL0     H91339   1.243   9.936   0.650 -0.2132 -5.7173  0.0787
  677MOL0     H91340   1.230   9.734   0.793 -0.1463 -0.5591  2.7583
  677MOL0     H91341   1.256   9.826   0.935 -0.4532  0.2306  0.3028
  677MOL0     H91342   1.023   9.798   0.919 -2.1657  1.0491  0.6256
  677MOL0     H91343   1.055   9.965   0.902 -1.2296 -0.9466  0.0756
  677MOL0     H91344   1.013   9.783   0.667 -1.4926  0.4821 -2.6416
  677MOL0     H91345   1.006   9.956   0.650 -0.9382  0.8585  0.5845
  677MOL0     H91346   0.776  10.075   0.731  1.3982 -0.5656 -1.7517
  677MOL0     H91347   0.454   9.983   0.884  1.3768  3.1419  1.4480
  677MOL0     H91348   0.537  10.102   0.793  2.4577 -0.7472 -4.0811
  677MOL0     H91349   0.397   9.844   0.678  0.2579  0.4883 -0.3584
  677MOL0     H91350   0.479   9.954   0.576 -1.6503 -0.0151 -1.5574
  677MOL0     H91351   0.318  10.139   0.626  1.5062 -0.2829 -1.4469
  677MOL0     H91352   0.288  10.074   0.780  1.7978  1.1512 -0.5062
  677MOL0     H91353   0.135   9.900   0.693 -1.4050  1.2012  0.2360
  677MOL0     H91354   0.193   9.934   0.528 -2.5195 -2.3006  0.1220
  677MOL0     H91355  -0.026   9.807   0.577 -1.5369 -0.9112 -0.7310
  677MOL0     H91356  -0.351   9.687   0.622  0.1449 -0.0971  1.6307
  677MOL0     H91357  -0.246   9.650   0.480 -0.8067  0.5483  0.0711
  677MOL0     H91358  -0.181   9.648   0.640  0.9870  2.4798  0.4065
  677MOL0     H91359  -0.628   9.622   0.594 -0.5056  0.0163  0.5338
  677MOL0     H91360  -0.860   9.568   0.560  3.8622  1.0163  1.5945
  677MOL0     H91361  -1.132   9.604   0.536  0.6741 -0.3762 -0.5432
  677MOL0     H91362  -1.102   9.783   0.493 -1.0488 -0.9602  5.0268
  677MOL0     H91363  -1.328   9.757   0.431 -0.8013 -1.5182  0.9104
  677MOL0     H91364  -1.231   9.724   0.281  3.3666 -0.2715  0.4617
  677MOL0     H91365  -1.376   9.546   0.470 -0.2399  2.5508  0.6738
  677MOL0     H91366  -1.263   9.489   0.340 -0.1961  0.0870  0.2917
  677MOL0     H91367  -1.424   9.612   0.181 -1.6428 -0.5771 -0.3983
  677MOL0     H91368  -1.476   9.459   0.247 -0.8884 -0.2120 -1.9646
  677MOL0     H91369  -1.568   9.730   0.355 -0.2664 -0.0373 -2.4344
  677MOL0     H91370  -1.615   9.570   0.424 -1.4298  3.8363  1.8960
  677MOL0     H91371  -1.677   9.676   0.143  0.0864  1.1017 -0.1011
  677MOL0     H91372  -1.697   9.503   0.181 -1.9673  0.0217 -0.9655
  677MOL0     H91373  -1.816   9.725   0.351 -0.6270 -1.0731  1.4993
  677MOL0     H91374  -1.821   9.552   0.386  2.3379 -2.1700 -0.4384
  677MOL0     H91375  -1.936   9.685   0.139  1.7945  3.6579  3.0589
  677MOL0     H91376  -2.036   9.647   0.279 -0.6007 -0.4889 -0.4664
  677MOL0     H91377  -0.883   9.802   0.204 -0.7735  0.5193  1.1194
  677MOL0     H91378  -0.640   9.872   0.253 -1.2299  1.2311 -0.1532
  677MOL0     H91379  -0.373  10.146   0.488 -0.1286 -1.0391 -1.3871
  677MOL0     H91380  -0.149  10.225   0.579 -1.5807  0.4513 -0.0446
  677MOL0     H91381   2.152  10.004   0.745  1.5723 -0.0433 -1.6852
  677MOL0     H91382   2.341  10.115   0.849  1.4116  3.6586 -0.4164
  677MOL0     H91383   2.471  10.405   1.169  0.1823  0.2483  2.3286
  677MOL0     H91384   2.631  10.445   1.297 -1.4856 -1.5910  0.0181
  677MOL0     H91385   2.991  10.582   1.360  1.1779 -1.4532  0.3531
  677MOL0     H91386   2.818  10.558   1.368 -0.9605 -1.6799  0.2710
  677MOL0     H91387   2.852  10.309   1.412 -3.3550  1.9975  0.1578
  677MOL0     H91388   2.931  10.400   1.536 -0.0593  0.6885 -0.5420
  677MOL0     H91389   3.153  10.366   1.406 -0.4123  0.9166  0.8882
  677MOL0     H91390   3.057  10.281   1.282  2.8328  1.2606  0.0702
  677MOL0     H91391   2.978  10.129   1.463 -0.5866 -0.3215  0.1178
  677MOL0     H91392   3.097  10.200   1.576  0.6650 -0.0019 -0.1616
  677MOL0     H91393   3.341   9.968   1.315 -1.6766 -2.2032  0.8125
  677MOL0     H91394   2.917  10.358   0.979 -0.2470 -1.3890  2.5814
  677MOL0     H91395   2.713  10.325   0.822  0.7856 -2.4046 -0.0618
  678MOL0     O91396   0.475   3.444   8.775  0.2651  0.0093 -0.3187
  678MOL0     C91397   0.517   3.529   8.856  0.2253  0.2222 -0.0577
  678MOL0     O91398   0.441   3.604   8.937  0.4450  0.1568  1.2816
  678MOL0     C91399   0.300   3.597   8.938 -0.6169 -0.6132  0.2655
  678MOL0     C91400   0.216   3.571   8.826  1.1173  0.1376 -0.8779
  678MOL0     C91401   0.086   3.576   8.840  0.0618 -0.4088 -0.5188
  678MOL0     C91402   0.025   3.612   8.960  0.6129  0.6279  1.2374
  678MOL0     O91403  -0.109   3.631   8.973 -0.4573  0.3857 -0.7643
  678MOL0     C91404  -0.177   3.665   8.851 -0.5548  0.9512 -0.1367
  678MOL0     C91405  -0.316   3.697   8.900 -0.6207 -0.1832  0.1025
  678MOL0     C91406  -0.396   3.717   8.775  0.9197 -0.5827  0.1574
  678MOL0     C91407  -0.544   3.729   8.807  0.2059 -0.4566 -0.1273
  678MOL0     C91408  -0.641   3.715   8.682  0.1598  0.1988 -0.2446
  678MOL0     C91409  -0.780   3.774   8.713 -0.1918 -0.8850  0.4281
  678MOL0     C91410  -0.878   3.743   8.598 -0.3213 -0.1221 -0.3973
  678MOL0     C91411  -0.983   3.853   8.583  0.3024  0.1534 -0.0498
  678MOL0     N91412  -1.089   3.819   8.491 -0.4774  0.2053 -0.2288
  678MOL0     C91413  -1.067   3.753   8.373  0.2035 -0.3606  0.3360
  678MOL0     C91414  -1.185   3.715   8.339  0.1641 -0.5725  0.1004
  678MOL0     C91415  -1.212   3.620   8.228  0.0247  0.1039 -0.1110
  678MOL0     C91416  -1.143   3.478   8.234  0.0947 -0.3726 -0.0594
  678MOL0     C91417  -1.188   3.394   8.354  0.2191  0.4173  0.1515
  678MOL0     C91418  -1.300   3.294   8.319  0.4834 -1.0462 -0.4045
  678MOL0     O91419  -1.420   3.344   8.251  0.4203 -0.3879  0.1310
  678MOL0     C91420  -1.531   3.361   8.332 -1.1607  0.3701 -0.5472
  678MOL0     C91421  -1.608   3.248   8.376 -0.2594  0.5627  0.1297
  678MOL0     C91422  -1.729   3.269   8.448  0.4213  0.1553  0.0708
  678MOL0     C91423  -1.794   3.146   8.497 -0.1291  0.8165 -0.3224
  678MOL0     C91424  -1.763   3.403   8.476  0.5364  0.6041 -0.2506
  678MOL0     C91425  -1.887   3.436   8.554  0.3311 -0.1067 -0.5740
  678MOL0     O91426  -1.996   3.344   8.550  0.2871 -0.7393 -0.4095
  678MOL0     C91427  -2.109   3.367   8.624  0.4514 -0.4755 -0.5304
  678MOL0     C91428  -2.130   3.460   8.733  1.1477 -0.0562  0.9609
  678MOL0     C91429  -2.257   3.468   8.792 -0.1873 -0.6510  0.3500
  678MOL0     C91430  -2.364   3.391   8.746  1.0912 -1.1693 -0.2160
  678MOL0     O91431  -2.485   3.410   8.812 -0.3726  0.5477  0.3704
  678MOL0     C91432  -2.596   3.398   8.734  0.6484 -0.1753 -0.7127
  678MOL0     C91433  -2.717   3.421   8.831 -0.1967  0.5167 -0.0858
  678MOL0     C91434  -2.844   3.468   8.764 -0.3802 -0.1828 -0.2609
  678MOL0     C91435  -2.963   3.448   8.857 -0.5503 -0.9196  0.4872
  678MOL0     C91436  -3.075   3.533   8.798  0.1732 -0.6585 -0.6825
  678MOL0     C91437  -3.209   3.490   8.842 -0.3114  0.1853  0.6422
  678MOL0     C91438  -3.306   3.600   8.805 -0.4328 -0.0333  0.2958
  678MOL0     C91439  -3.448   3.552   8.781 -0.4760 -0.3134  0.5295
  678MOL0    Cl91440  -3.513   3.499   8.935  0.0500 -0.3338  0.4038
  678MOL0     C91441  -2.335   3.296   8.649  1.1344  0.4282 -0.5322
  678MOL0     C91442  -2.213   3.281   8.588 -0.7420 -0.4527 -0.2774
  678MOL0     O91443  -1.886   3.537   8.624 -0.1246  0.6588  0.1750
  678MOL0     C91444  -1.681   3.505   8.436  0.0216 -0.4799  0.4574
  678MOL0     C91445  -1.560   3.490   8.370  0.4554 -0.2548 -0.0052
  678MOL0     N91446  -1.278   3.760   8.424  0.0532 -0.0002  0.3173
  678MOL0     N91447  -1.221   3.823   8.520  0.4542  0.9915 -0.7338
  678MOL0     C91448   0.108   3.628   9.073 -0.0922  0.7627  0.7325
  678MOL0     C91449   0.248   3.635   9.065 -0.0302 -0.1906 -0.9209
  678MOL0     C91450   0.662   3.565   8.848 -0.2470 -0.1030 -0.1282
  678MOL0     C91451   0.709   3.692   8.884  0.7757 -0.1443 -0.4918
  678MOL0     C91452   0.847   3.722   8.899 -0.1141 -0.1718 -0.4107
  678MOL0     C91453   0.946   3.631   8.864 -0.3225  0.0918  0.7678
  678MOL0     O91454   1.078   3.657   8.869  0.3071  0.0814 -0.5806
  678MOL0     C91455   1.131   3.783   8.904 -0.0534  0.4940 -1.3243
  678MOL0     C91456   1.277   3.788   8.856 -0.4158  0.5766 -0.5165
  678MOL0     C91457   1.338   3.922   8.900 -0.4562 -0.0680  0.2677
  678MOL0     C91458   1.489   3.936   8.857 -0.0222  0.3311  0.3724
  678MOL0     C91459   1.573   3.845   8.932 -0.1692  0.5968 -0.3161
  678MOL0     C91460   1.646   3.769   8.997 -0.0122 -0.5705 -0.0524
  678MOL0     C91461   0.901   3.505   8.833  0.4470  0.0470 -0.5480
  678MOL0     C91462   0.764   3.468   8.831  0.3754  0.1713  0.4782
  678MOL0     H91463   0.258   3.549   8.728  1.6128  2.6873 -1.3110
  678MOL0     H91464   0.032   3.545   8.751  2.0735 -0.0257 -1.9154
  678MOL0     H91465  -0.134   3.749   8.795  0.0823  1.2911  0.8243
  678MOL0     H91466  -0.182   3.581   8.781 -2.0360  0.1749  0.8360
  678MOL0     H91467  -0.351   3.625   8.975 -1.4513  2.7095  2.7049
  678MOL0     H91468  -0.309   3.798   8.942 -0.4113  0.7785 -2.1264
  678MOL0     H91469  -0.370   3.805   8.715 -3.3404 -1.0120 -2.8244
  678MOL0     H91470  -0.391   3.629   8.710 -0.9114 -0.4741 -0.1941
  678MOL0     H91471  -0.570   3.653   8.882  2.1058  0.2045  1.2701
  678MOL0     H91472  -0.566   3.827   8.850 -1.3477  1.2817 -4.3332
  678MOL0     H91473  -0.595   3.767   8.598 -0.6411  0.2421 -0.6621
  678MOL0     H91474  -0.660   3.609   8.662  0.5289 -0.1494  1.1278
  678MOL0     H91475  -0.816   3.742   8.811 -1.0422  0.8826  0.7184
  678MOL0     H91476  -0.758   3.881   8.713 -0.4565 -0.8218 -0.4154
  678MOL0     H91477  -0.817   3.748   8.507 -0.8102 -1.9987 -0.8814
  678MOL0     H91478  -0.932   3.647   8.602 -0.5104  0.0071  0.3142
  678MOL0     H91479  -0.931   3.941   8.542 -0.8985 -0.5107 -3.2053
  678MOL0     H91480  -1.032   3.871   8.679  0.1268 -0.1144 -0.0898
  678MOL0     H91481  -0.969   3.735   8.330  0.9921  2.3446  0.7934
  678MOL0     H91482  -1.321   3.621   8.232 -0.0070 -1.0594 -0.3804
  678MOL0     H91483  -1.187   3.663   8.131 -2.2257 -3.3575 -2.4217
  678MOL0     H91484  -1.037   3.506   8.235 -1.0114  4.8545 -0.6055
  678MOL0     H91485  -1.159   3.424   8.140  2.1564 -1.4561  0.1561
  678MOL0     H91486  -1.214   3.456   8.440  1.7060  0.2116  0.7826
  678MOL0     H91487  -1.104   3.335   8.394 -0.4763 -0.3098  0.5608
  678MOL0     H91488  -1.318   3.250   8.417 -0.7829  1.2714  0.5049
  678MOL0     H91489  -1.256   3.214   8.260  0.0895 -1.2733 -0.3953
  678MOL0     H91490  -1.571   3.147   8.364  2.4085  1.3321  1.1680
  678MOL0     H91491  -1.866   3.105   8.426  1.8842  1.3053 -2.8027
  678MOL0     H91492  -1.721   3.066   8.503 -0.8066 -0.0221 -2.2819
  678MOL0     H91493  -1.829   3.163   8.599  0.3200  1.6126 -0.2905
  678MOL0     H91494  -2.059   3.539   8.754  3.0783 -0.3787 -3.3692
  678MOL0     H91495  -2.276   3.550   8.861 -0.2513 -1.3919  1.2314
  678MOL0     H91496  -2.594   3.478   8.660 -1.5018  1.1376  0.5384
  678MOL0     H91497  -2.607   3.299   8.689 -1.2841 -0.8884  1.1753
  678MOL0     H91498  -2.744   3.326   8.877 -1.0346  0.1832 -1.2152
  678MOL0     H91499  -2.678   3.494   8.903  2.8469  0.6534 -1.6989
  678MOL0     H91500  -2.859   3.410   8.673 -2.9055 -1.5012  0.8852
  678MOL0     H91501  -2.828   3.570   8.729  2.6230 -0.5731 -0.2926
  678MOL0     H91502  -3.007   3.348   8.850 -0.5062 -0.9551  0.7283
  678MOL0     H91503  -2.946   3.485   8.958 -2.8245 -1.3021  1.0718
  678MOL0     H91504  -3.080   3.533   8.689 -1.4034  1.3078 -0.6806
  678MOL0     H91505  -3.053   3.632   8.839  2.6972 -0.4691 -2.2792
  678MOL0     H91506  -3.239   3.396   8.794 -0.8125  1.1374 -0.9876
  678MOL0     H91507  -3.206   3.478   8.950 -0.0057  0.0772  0.6213
  678MOL0     H91508  -3.279   3.638   8.706 -0.7588 -1.4709 -0.3646
  678MOL0     H91509  -3.294   3.687   8.870  0.2362  1.5378 -1.8225
  678MOL0     H91510  -3.461   3.481   8.698 -2.8700 -1.8515  2.0789
  678MOL0     H91511  -3.502   3.643   8.753 -0.5853  0.3784  2.8014
  678MOL0     H91512  -2.419   3.235   8.618  2.0003  0.3219 -2.9070
  678MOL0     H91513  -2.206   3.197   8.519 -2.6057 -1.4030  0.6083
  678MOL0     H91514  -1.692   3.604   8.479  3.9164  0.4543 -0.2896
  678MOL0     H91515  -1.487   3.569   8.356 -0.3357  0.2872 -1.2429
  678MOL0     H91516   0.063   3.639   9.171 -1.8367 -1.8545  0.3070
  678MOL0     H91517   0.316   3.655   9.147 -1.3767  2.2213 -0.3042
  678MOL0     H91518   0.639   3.770   8.910  1.6694 -0.3016  2.8361
  678MOL0     H91519   0.866   3.827   8.922  2.0564 -0.4658 -0.6924
  678MOL0     H91520   1.073   3.856   8.848 -2.5365 -1.2042 -1.1092
  678MOL0     H91521   1.121   3.802   9.012  0.9008 -1.7277 -0.7848
  678MOL0     H91522   1.294   3.776   8.748 -2.1891 -0.6015 -0.7021
  678MOL0     H91523   1.337   3.710   8.903 -0.4629  0.0978 -1.2323
  678MOL0     H91524   1.331   3.933   9.009  2.2205 -0.5893  0.5338
  678MOL0     H91525   1.287   4.007   8.853 -1.4557 -1.4279 -1.2147
  678MOL0     H91526   1.523   4.038   8.875  3.6406 -0.5268 -0.7106
  678MOL0     H91527   1.499   3.917   8.749 -0.6322  1.4994  0.0930
  678MOL0     H91528   1.715   3.708   9.051 -0.9635 -1.0947  0.6055
  678MOL0     H91529   0.979   3.430   8.819  1.0833  0.3977  0.8637
  678MOL0     H91530   0.727   3.370   8.803 -1.7029  1.0020  0.1576
  679MOL0     O91531   5.268   6.844  11.234  0.2667 -0.5163  0.1217
  679MOL0     C91532   5.280   6.728  11.217  0.8456  0.6689  0.2341
  679MOL0     O91533   5.178   6.634  11.239 -0.2439  0.1292  0.3463
  679MOL0     C91534   5.051   6.685  11.223 -0.0167  0.4760 -0.0091
  679MOL0     C91535   4.957   6.634  11.315 -0.4808 -0.1057 -0.1816
  679MOL0     C91536   4.829   6.680  11.307  0.0345 -0.4569  0.1981
  679MOL0     C91537   4.788   6.773  11.211  0.2669 -0.4575 -0.6261
  679MOL0     O91538   4.655   6.810  11.193  0.1198  0.1383 -0.0406
  679MOL0     C91539   4.560   6.781  11.290 -0.1550  0.3705 -0.2246
  679MOL0     C91540   4.432   6.863  11.263 -0.2436 -0.3560 -0.5328
  679MOL0     C91541   4.309   6.805  11.339 -0.2504 -0.4746 -0.0149
  679MOL0     C91542   4.187   6.891  11.320  0.4415  0.1996  0.2042
  679MOL0     C91543   4.079   6.849  11.424 -0.1301 -0.1462 -0.4656
  679MOL0     C91544   3.941   6.925  11.415  0.3729  0.5053 -0.1522
  679MOL0     C91545   3.840   6.867  11.520 -1.1530  0.0545 -0.6763
  679MOL0     C91546   3.699   6.915  11.484 -0.5675 -0.6347  0.3028
  679MOL0     N91547   3.602   6.842  11.562  0.2473 -0.5413 -0.2021
  679MOL0     C91548   3.485   6.792  11.512 -0.8257  0.2604  0.3958
  679MOL0     C91549   3.433   6.705  11.610  0.8435  0.5056  0.8885
  679MOL0     C91550   3.298   6.638  11.597 -0.2806  0.7616  0.1622
  679MOL0     C91551   3.256   6.577  11.738 -0.7215  0.6343 -1.0415
  679MOL0     C91552   3.241   6.688  11.845  0.2647 -0.0719 -0.0514
  679MOL0     C91553   3.103   6.761  11.868  0.2938  0.7283  0.7859
  679MOL0     O91554   3.004   6.663  11.892 -0.1003 -0.0592  0.1416
  679MOL0     C91555   2.877   6.709  11.910 -0.5415  0.0152 -0.2564
  679MOL0     C91556   2.780   6.675  11.817  0.2280  0.5146 -0.0287
  679MOL0     C91557   2.648   6.723  11.823  0.0141  0.6229  0.2663
  679MOL0     C91558   2.564   6.706  11.694  0.1565  0.9638  0.4777
  679MOL0     C91559   2.612   6.804  11.934 -0.1899  0.9006 -0.3346
  679MOL0     C91560   2.474   6.850  11.972 -0.7779 -0.7245 -0.8336
  679MOL0     O91561   2.457   6.940  12.078 -0.4827  0.4200 -0.0452
  679MOL0     C91562   2.331   6.988  12.113  0.0061 -0.5367 -0.2036
  679MOL0     C91563   2.210   6.920  12.104 -0.0405  0.4447 -0.0360
  679MOL0     C91564   2.086   6.991  12.140 -0.3265  1.6313 -0.0846
  679MOL0     C91565   2.085   7.116  12.197  0.3518 -0.3402 -0.4249
  679MOL0     O91566   1.978   7.195  12.237 -0.7157 -0.3154 -0.5537
  679MOL0     C91567   1.853   7.135  12.221  0.1446  0.4575  0.6138
  679MOL0     C91568   1.812   7.062  12.350  0.8257  0.1837  0.3895
  679MOL0     C91569   1.695   6.966  12.326 -0.4213 -0.2488 -0.0406
  679MOL0     C91570   1.737   6.842  12.249 -0.9676  0.2299 -0.0932
  679MOL0     C91571   1.646   6.723  12.258 -0.2000  0.2587  0.0015
  679MOL0     C91572   1.635   6.656  12.401  0.4592  0.1816  0.2271
  679MOL0     C91573   1.576   6.517  12.397  0.3036 -0.2740 -0.1411
  679MOL0     C91574   1.558   6.464  12.533 -0.2368 -0.0741  0.3919
  679MOL0    Cl91575   1.479   6.297  12.507  0.3522 -0.0263  0.3700
  679MOL0     C91576   2.212   7.184  12.215  0.0947 -0.0891  0.0420
  679MOL0     C91577   2.339   7.119  12.177  1.3958 -0.2033 -0.4991
  679MOL0     O91578   2.386   6.802  11.909  0.2889  0.6881 -0.3489
  679MOL0     C91579   2.714   6.842  12.026 -0.1473 -0.0768  0.5059
  679MOL0     C91580   2.846   6.805  12.007 -0.5109  1.1503  0.0763
  679MOL0     N91581   3.527   6.701  11.713  0.5854  0.2593 -0.3328
  679MOL0     N91582   3.623   6.787  11.682 -1.0162 -0.5527 -0.6621
  679MOL0     C91583   4.883   6.828  11.124 -1.4069  0.3483  0.2289
  679MOL0     C91584   5.015   6.788  11.132  0.1761 -0.0254 -0.7076
  679MOL0     C91585   5.399   6.666  11.160 -0.6017 -0.3236  0.8994
  679MOL0     C91586   5.486   6.740  11.070  0.1771 -0.3051 -0.6273
  679MOL0     C91587   5.610   6.679  11.034 -0.3481 -0.7180 -0.3986
  679MOL0     C91588   5.631   6.542  11.067 -0.2516 -1.2944 -0.3282
  679MOL0     O91589   5.737   6.476  11.018  0.5311 -0.2239 -0.3737
  679MOL0     C91590   5.831   6.543  10.937 -0.4716 -1.3453 -0.0579
  679MOL0     C91591   5.921   6.445  10.859 -0.2508 -0.5670  0.1374
  679MOL0     C91592   5.963   6.314  10.929 -0.2238 -0.3156  0.3984
  679MOL0     C91593   6.011   6.201  10.833  0.0291  0.3429 -0.4129
  679MOL0     C91594   6.125   6.241  10.757 -0.0762 -0.8858  0.3041
  679MOL0     C91595   6.231   6.268  10.699  0.7972 -0.6402  0.0782
  679MOL0     C91596   5.539   6.472  11.146  0.6447  0.4446  0.6315
  679MOL0     C91597   5.425   6.535  11.185 -0.1474  0.7405  0.0213
  679MOL0     H91598   4.990   6.559  11.386 -1.0454  1.1573  1.4806
  679MOL0     H91599   4.759   6.633  11.376  0.5760 -2.3314 -0.4923
  679MOL0     H91600   4.542   6.674  11.288  4.0940 -0.7568  3.3780
  679MOL0     H91601   4.599   6.796  11.392  3.4877 -0.8462 -1.2797
  679MOL0     H91602   4.442   6.968  11.292  1.7206 -0.1299 -1.8465
  679MOL0     H91603   4.410   6.850  11.156 -1.6044  2.0395 -0.6257
  679MOL0     H91604   4.297   6.700  11.308 -1.0603 -1.4270  3.1301
  679MOL0     H91605   4.337   6.802  11.444 -1.4309  2.5363  0.4975
  679MOL0     H91606   4.203   6.999  11.320  0.6666  0.2233 -2.4228
  679MOL0     H91607   4.146   6.867  11.222 -1.2440 -0.2611  0.9820
  679MOL0     H91608   4.071   6.742  11.405 -0.8493 -0.3204  0.6874
  679MOL0     H91609   4.118   6.851  11.526 -3.3111  0.8696  0.8544
  679MOL0     H91610   3.965   7.030  11.437  3.9997 -0.3381  0.6646
  679MOL0     H91611   3.898   6.911  11.316  1.2321 -2.1519 -0.2426
  679MOL0     H91612   3.832   6.759  11.506 -2.6644  0.4831 -4.3388
  679MOL0     H91613   3.866   6.890  11.624  1.8469 -3.5409 -0.4464
  679MOL0     H91614   3.663   6.912  11.380 -1.2528 -0.3662  0.5268
  679MOL0     H91615   3.686   7.016  11.525  1.1096 -1.8198  4.1100
  679MOL0     H91616   3.454   6.812  11.410  0.7623  0.2441 -0.1175
  679MOL0     H91617   3.221   6.709  11.565  0.6932  1.0185 -1.7666
  679MOL0     H91618   3.307   6.552  11.530 -0.4191 -0.2384  1.3668
  679MOL0     H91619   3.346   6.519  11.762 -1.5509 -1.3606 -2.4487
  679MOL0     H91620   3.174   6.506  11.721 -1.8003  1.2245  1.2428
  679MOL0     H91621   3.305   6.775  11.828 -1.6782  1.1984 -1.3653
  679MOL0     H91622   3.272   6.650  11.942  0.6862 -4.1827 -1.5752
  679MOL0     H91623   3.082   6.805  11.770 -0.6902 -3.3558 -1.0457
  679MOL0     H91624   3.119   6.832  11.950  1.7904  0.0842  1.1009
  679MOL0     H91625   2.807   6.614  11.731 -2.6913 -1.0436  0.0347
  679MOL0     H91626   2.473   6.768  11.692 -2.7126 -2.8719 -1.1471
  679MOL0     H91627   2.620   6.721  11.601 -1.7163  2.0595 -0.5566
  679MOL0     H91628   2.515   6.608  11.695 -3.8185  2.7192 -1.1550
  679MOL0     H91629   2.195   6.819  12.067 -0.6874  0.5307 -0.0208
  679MOL0     H91630   1.994   6.934  12.131  0.3159  0.5909 -0.3332
  679MOL0     H91631   1.768   7.200  12.198 -1.5194 -1.6669  0.3624
  679MOL0     H91632   1.852   7.066  12.135  1.9629 -1.8976  2.3541
  679MOL0     H91633   1.892   7.000  12.392  0.0639  0.0236  1.6510
  679MOL0     H91634   1.788   7.142  12.420 -1.5502 -0.9761  1.0184
  679MOL0     H91635   1.613   7.015  12.272 -0.0639 -2.6263 -3.0597
  679MOL0     H91636   1.651   6.937  12.422  0.7010 -1.4686  0.1324
  679MOL0     H91637   1.750   6.861  12.142 -1.4272 -0.0880 -0.2128
  679MOL0     H91638   1.834   6.808  12.286  0.3120 -0.7950 -3.9177
  679MOL0     H91639   1.685   6.656  12.181 -0.9162 -3.0329  2.2993
  679MOL0     H91640   1.549   6.746  12.213 -0.5449 -2.6906 -0.9488
  679MOL0     H91641   1.733   6.643  12.448  0.6326  0.8225  0.0640
  679MOL0     H91642   1.588   6.722  12.474  0.2673 -0.8569  1.0672
  679MOL0     H91643   1.643   6.448  12.345  0.2593  0.0520 -0.6302
  679MOL0     H91644   1.479   6.516  12.346  1.5201  0.8721 -2.6574
  679MOL0     H91645   1.478   6.527  12.573  0.9694  1.6081  0.2742
  679MOL0     H91646   1.647   6.474  12.595 -1.3802  1.3476  1.9032
  679MOL0     H91647   2.219   7.283  12.259  0.4070  0.4801 -1.2680
  679MOL0     H91648   2.434   7.168  12.193  3.8480 -4.5511 -0.2703
  679MOL0     H91649   2.706   6.907  12.113  1.9649  0.0999  0.6189
  679MOL0     H91650   2.923   6.838  12.076 -0.3677  0.6714  0.1500
  679MOL0     H91651   4.855   6.893  11.042  0.9723  1.2705  0.0502
  679MOL0     H91652   5.086   6.837  11.066  0.8173 -1.5516 -1.1964
  679MOL0     H91653   5.457   6.843  11.047 -2.3907 -1.1658 -1.6004
  679MOL0     H91654   5.678   6.736  10.971  1.8224  0.7893  3.0133
  679MOL0     H91655   5.777   6.599  10.861 -2.8122  0.0215  2.4225
  679MOL0     H91656   5.896   6.600  11.005 -2.2642  0.7059  0.0224
  679MOL0     H91657   6.010   6.503  10.835 -1.3942  1.9773  1.5978
  679MOL0     H91658   5.868   6.429  10.765 -0.6568  1.5436 -0.0452
  679MOL0     H91659   5.889   6.281  11.002 -0.9335  1.9890  0.8205
  679MOL0     H91660   6.053   6.340  10.985  0.7784 -1.4266 -0.6439
  679MOL0     H91661   5.937   6.151  10.770  0.0283  0.6944 -0.6942
  679MOL0     H91662   6.037   6.122  10.905 -2.2475 -0.0062  0.0918
  679MOL0     H91663   6.332   6.287  10.667 -0.1209  2.9999 -1.1717
  679MOL0     H91664   5.565   6.368  11.166 -1.0416  0.1482  1.5113
  679MOL0     H91665   5.353   6.475  11.240 -0.9079  1.8358  0.2570
  680MOL0     O91666   1.917   1.958   8.996  0.1965  0.3052  0.6110
  680MOL0     C91667   1.984   1.880   8.923  0.1788  0.5161 -0.7795
  680MOL0     O91668   1.937   1.767   8.862  0.2707  0.2719  0.0164
  680MOL0     C91669   1.800   1.742   8.891 -0.3008 -0.3300  0.3234
  680MOL0     C91670   1.763   1.673   9.012 -0.6155  0.6050 -0.2893
  680MOL0     C91671   1.635   1.634   9.038 -0.2119  0.1033 -0.9116
  680MOL0     C91672   1.534   1.651   8.943 -0.0659  0.0551 -0.0230
  680MOL0     O91673   1.417   1.589   8.977 -0.7787  0.1454 -0.0093
  680MOL0     C91674   1.304   1.628   8.909  0.4987  0.1827 -0.1265
  680MOL0     C91675   1.196   1.539   8.964 -0.4917  0.6195 -0.1225
  680MOL0     C91676   1.202   1.397   8.899 -0.8193 -0.6459 -0.5006
  680MOL0     C91677   1.105   1.298   8.958  0.4038  0.2497  0.0805
  680MOL0     C91678   1.106   1.152   8.897 -0.0410  0.3747 -0.4964
  680MOL0     C91679   1.034   1.149   8.763  0.2645  0.0219 -0.2810
  680MOL0     C91680   0.880   1.185   8.772 -1.0168 -0.2453  0.2589
  680MOL0     C91681   0.814   1.175   8.637 -0.0186  0.2938 -0.6357
  680MOL0     N91682   0.671   1.163   8.639  1.2258 -0.3190 -0.8608
  680MOL0     C91683   0.588   1.278   8.655 -0.2642  0.4489  0.9177
  680MOL0     C91684   0.467   1.225   8.665  0.0475 -0.5100 -0.0163
  680MOL0     C91685   0.336   1.304   8.680 -0.2738  0.1490  0.1520
  680MOL0     C91686   0.236   1.303   8.557 -0.6576  0.1011 -0.3306
  680MOL0     C91687   0.164   1.176   8.531  0.3574  1.1787  0.6690
  680MOL0     C91688   0.068   1.206   8.409 -0.5593  0.1726 -0.5571
  680MOL0     O91689  -0.045   1.270   8.464  0.0784 -0.7228 -0.4482
  680MOL0     C91690  -0.142   1.283   8.371  0.0443  0.1453  0.4871
  680MOL0     C91691  -0.120   1.275   8.230  0.4688 -0.2213  0.0959
  680MOL0     C91692  -0.222   1.307   8.139  0.1904 -0.5097  0.4608
  680MOL0     C91693  -0.201   1.298   8.002 -0.4762  0.2703  0.5014
  680MOL0     C91694  -0.354   1.334   8.188 -0.3153  0.1966 -1.2233
  680MOL0     C91695  -0.475   1.351   8.106 -0.1736  0.6139  0.0097
  680MOL0     O91696  -0.596   1.294   8.148  0.0028  0.1138 -0.7404
  680MOL0     C91697  -0.705   1.278   8.070  0.4429  0.0008 -0.1518
  680MOL0     C91698  -0.714   1.291   7.932 -0.5775 -0.2997 -0.0079
  680MOL0     C91699  -0.832   1.288   7.863  0.4648  0.6907 -0.5225
  680MOL0     C91700  -0.951   1.257   7.924 -0.3743  0.1523 -0.2090
  680MOL0     O91701  -1.052   1.241   7.837  0.3895  0.7331 -0.3203
  680MOL0     C91702  -1.178   1.185   7.884  1.3883 -0.7937  0.0116
  680MOL0     C91703  -1.279   1.302   7.916 -0.1501  0.2737  0.8522
  680MOL0     C91704  -1.406   1.246   7.972 -0.1974  0.0943 -0.6254
  680MOL0     C91705  -1.390   1.241   8.127 -0.2170 -0.2194  0.3831
  680MOL0     C91706  -1.512   1.192   8.202  0.0603  0.7327  0.4445
  680MOL0     C91707  -1.635   1.290   8.197 -0.7207  0.0450 -0.2843
  680MOL0     C91708  -1.753   1.232   8.288  0.5323  0.4584  0.0567
  680MOL0     C91709  -1.874   1.324   8.291 -0.1417 -0.5560  0.9664
  680MOL0    Cl91710  -2.005   1.257   8.386  0.6763  0.0735 -0.0595
  680MOL0     C91711  -0.948   1.230   8.064 -0.1060  0.8039 -0.1710
  680MOL0     C91712  -0.826   1.246   8.130  0.5912 -0.2746 -1.3603
  680MOL0     O91713  -0.464   1.422   8.008 -0.4641  0.2724 -0.3562
  680MOL0     C91714  -0.376   1.340   8.329  0.0437 -0.5555  0.6959
  680MOL0     C91715  -0.269   1.309   8.415  0.4779  0.1138  0.2326
  680MOL0     N91716   0.481   1.088   8.655  0.3663  0.1369  0.3975
  680MOL0     N91717   0.603   1.047   8.642 -0.0554  0.1239  0.4385
  680MOL0     C91718   1.565   1.721   8.828 -0.2431  0.1793 -0.6006
  680MOL0     C91719   1.701   1.761   8.799  0.0320  0.0477  0.5615
  680MOL0     C91720   2.117   1.923   8.899 -0.1928  0.4926 -0.2888
  680MOL0     C91721   2.157   1.935   8.767 -0.3838  0.3399 -0.0880
  680MOL0     C91722   2.291   1.958   8.745 -0.6270  0.4796 -0.2024
  680MOL0     C91723   2.386   1.992   8.852  1.1203  0.2195  0.5705
  680MOL0     O91724   2.519   2.015   8.848 -0.0734  0.0657  0.4538
  680MOL0     C91725   2.585   2.028   8.718  0.3259 -0.1842  0.5633
  680MOL0     C91726   2.594   1.893   8.646 -0.6233  0.1002 -1.1442
  680MOL0     C91727   2.684   1.792   8.725  0.4136  0.8931  0.6618
  680MOL0     C91728   2.835   1.807   8.686 -0.0274  0.1738  0.1223
  680MOL0     C91729   2.915   1.697   8.745  0.2266  0.4628 -0.1344
  680MOL0     C91730   2.980   1.609   8.798  0.0393 -0.4061  0.2554
  680MOL0     C91731   2.337   1.989   8.979  0.1492 -0.4425 -0.2627
  680MOL0     C91732   2.203   1.961   9.005  0.1840  1.2950 -0.3311
  680MOL0     H91733   1.835   1.653   9.090 -1.8383  1.4457  1.0909
  680MOL0     H91734   1.609   1.577   9.127  1.6141  2.9864  1.7002
  680MOL0     H91735   1.279   1.734   8.923  0.7446  0.4641 -1.7095
  680MOL0     H91736   1.314   1.619   8.801  4.0328  2.0473 -0.1101
  680MOL0     H91737   1.191   1.539   9.073  0.6111  0.0101 -0.0583
  680MOL0     H91738   1.099   1.578   8.932 -0.4133  0.6864 -0.2810
  680MOL0     H91739   1.211   1.409   8.791  1.6494  1.5956 -0.1537
  680MOL0     H91740   1.301   1.354   8.916 -0.4624 -0.1071 -1.1709
  680MOL0     H91741   1.133   1.298   9.064 -1.6453 -1.9752  0.7288
  680MOL0     H91742   1.003   1.336   8.972  0.9608  0.9632  3.0001
  680MOL0     H91743   1.209   1.115   8.888 -0.7250 -1.5155 -1.0622
  680MOL0     H91744   1.057   1.083   8.966  0.5978 -1.0814 -1.4403
  680MOL0     H91745   1.087   1.210   8.689  0.3237  0.2625 -0.0411
  680MOL0     H91746   1.042   1.043   8.735 -0.1312 -0.2361  0.5503
  680MOL0     H91747   0.833   1.111   8.837 -1.4999  1.1090  1.4983
  680MOL0     H91748   0.865   1.285   8.813  0.5327  0.6060 -1.1482
  680MOL0     H91749   0.851   1.083   8.590 -1.4009 -0.8214  0.3725
  680MOL0     H91750   0.842   1.259   8.573  1.9117  0.7689  0.7170
  680MOL0     H91751   0.619   1.382   8.665  1.9182 -0.0387 -0.1262
  680MOL0     H91752   0.284   1.250   8.760  0.5839  0.7182  1.1156
  680MOL0     H91753   0.360   1.405   8.715 -1.5044  0.9388 -1.1649
  680MOL0     H91754   0.284   1.348   8.470 -2.2232  1.1549 -0.6884
  680MOL0     H91755   0.153   1.370   8.580  0.2669  1.2062 -0.1518
  680MOL0     H91756   0.112   1.146   8.622 -0.1955 -0.5372 -0.1828
  680MOL0     H91757   0.230   1.094   8.502 -1.5384 -0.6685  1.3847
  680MOL0     H91758   0.049   1.119   8.345  1.0252 -2.0888  1.8384
  680MOL0     H91759   0.122   1.272   8.340 -1.2274 -0.0416 -1.3019
  680MOL0     H91760  -0.023   1.261   8.185 -0.6603 -3.1926 -1.7156
  680MOL0     H91761  -0.285   1.258   7.944 -0.1541 -0.2045  0.3564
  680MOL0     H91762  -0.176   1.393   7.956  0.9418  0.4714  1.6200
  680MOL0     H91763  -0.116   1.231   7.990 -0.9708 -0.2648 -0.0974
  680MOL0     H91764  -0.629   1.301   7.865 -1.7218  1.7109 -1.2590
  680MOL0     H91765  -0.828   1.322   7.760  1.0601  2.6699  0.0990
  680MOL0     H91766  -1.218   1.123   7.803 -0.9121  0.4272  0.1558
  680MOL0     H91767  -1.165   1.132   7.978  1.9855  0.5373  0.7089
  680MOL0     H91768  -1.231   1.377   7.979  1.4023 -0.3669  0.4793
  680MOL0     H91769  -1.308   1.353   7.824  3.3768 -1.4582 -1.4611
  680MOL0     H91770  -1.424   1.144   7.937 -1.5909  0.2979 -0.5374
  680MOL0     H91771  -1.493   1.304   7.940  0.5628  1.6163 -0.0598
  680MOL0     H91772  -1.309   1.173   8.153  0.3590 -0.3706 -1.6359
  680MOL0     H91773  -1.363   1.340   8.167 -2.5579  0.2594  0.9356
  680MOL0     H91774  -1.483   1.189   8.308  1.4570  1.2627  0.0993
  680MOL0     H91775  -1.547   1.098   8.157  1.3810  0.7608 -0.6913
  680MOL0     H91776  -1.608   1.390   8.232 -2.6472  0.5883 -0.2568
  680MOL0     H91777  -1.669   1.298   8.093 -0.3111  0.6071 -0.3801
  680MOL0     H91778  -1.716   1.209   8.388  0.1770 -1.4767 -0.2051
  680MOL0     H91779  -1.788   1.132   8.259  1.5803 -0.2844  1.2900
  680MOL0     H91780  -1.907   1.334   8.187  0.3292  0.0673  0.8695
  680MOL0     H91781  -1.844   1.418   8.338 -3.4653 -0.8330  4.1052
  680MOL0     H91782  -1.034   1.191   8.118  1.1194  1.5498  2.4598
  680MOL0     H91783  -0.813   1.232   8.237 -0.2788  1.2209 -1.0266
  680MOL0     H91784  -0.470   1.368   8.375  0.8289  0.4612  1.7382
  680MOL0     H91785  -0.293   1.332   8.518 -1.3313 -1.1105  0.1186
  680MOL0     H91786   1.490   1.738   8.750  0.0328 -1.0395 -1.1623
  680MOL0     H91787   1.733   1.812   8.709 -0.7392 -1.2008 -0.4542
  680MOL0     H91788   2.093   1.922   8.680  0.7059  1.5768 -1.1215
  680MOL0     H91789   2.326   1.973   8.644 -0.0386 -1.1973 -0.2821
  680MOL0     H91790   2.522   2.092   8.656 -0.2751 -1.5174 -0.2509
  680MOL0     H91791   2.679   2.082   8.711 -0.3957  0.9889 -0.5230
  680MOL0     H91792   2.630   1.923   8.548 -0.2979  1.9860 -0.4828
  680MOL0     H91793   2.497   1.844   8.637 -0.2560 -0.7474 -0.6616
  680MOL0     H91794   2.644   1.692   8.707 -1.0694  1.7813 -1.4740
  680MOL0     H91795   2.672   1.812   8.832  1.6409  1.7866  0.6491
  680MOL0     H91796   2.858   1.910   8.717  1.4184 -0.6024  1.7447
  680MOL0     H91797   2.838   1.806   8.577  0.2158 -2.1837  0.1133
  680MOL0     H91798   3.036   1.527   8.838  0.8399  0.1193  0.2282
  680MOL0     H91799   2.399   2.020   9.064 -1.7878  1.5408  0.5242
  680MOL0     H91800   2.167   1.961   9.108  0.3944  2.8972 -0.2246
  681MOL0     O91801   2.702   3.304   3.849 -0.7782  0.1441 -0.5342
  681MOL0     C91802   2.755   3.223   3.922 -0.7810 -0.1600  1.0466
  681MOL0     O91803   2.704   3.117   3.983  0.1154  0.7688  0.2847
  681MOL0     C91804   2.571   3.096   3.973 -1.4257 -0.5900 -0.0823
  681MOL0     C91805   2.480   3.137   4.072  0.0188  0.9240 -1.2160
  681MOL0     C91806   2.341   3.113   4.069 -0.6126 -0.2716 -0.2124
  681MOL0     C91807   2.290   3.039   3.961 -0.0749 -0.2703 -0.2404
  681MOL0     O91808   2.158   3.015   3.968  0.6677 -0.6055 -0.8464
  681MOL0     C91809   2.111   2.909   3.880  0.5254 -0.9219 -0.0067
  681MOL0     C91810   1.975   2.857   3.915  0.1155 -0.0994  0.1419
  681MOL0     C91811   1.853   2.965   3.899 -0.3579  0.1170 -0.1888
  681MOL0     C91812   1.720   2.897   3.934 -0.8341 -0.3409 -0.9239
  681MOL0     C91813   1.599   2.986   3.900  0.4716 -0.1637  0.2639
  681MOL0     C91814   1.461   2.916   3.918 -0.6424 -0.3255 -0.5650
  681MOL0     C91815   1.444   2.781   3.851 -0.7259 -0.5939 -0.2611
  681MOL0     C91816   1.297   2.738   3.842  0.2705  0.4658  0.2841
  681MOL0     N91817   1.201   2.792   3.938 -0.4329  0.0694 -0.0418
  681MOL0     C91818   1.072   2.796   3.912 -0.8991 -0.5566  0.3313
  681MOL0     C91819   1.010   2.794   4.032 -0.1680 -0.2624  0.6130
  681MOL0     C91820   0.868   2.806   4.059  0.4316  0.3474 -0.2065
  681MOL0     C91821   0.828   2.674   4.125 -0.6993  0.6405  0.3633
  681MOL0     C91822   0.695   2.698   4.203  0.9930  0.2622 -0.1921
  681MOL0     C91823   0.582   2.736   4.097  0.6160 -0.2189  0.0908
  681MOL0     O91824   0.446   2.728   4.157  0.4012  0.7500 -0.8752
  681MOL0     C91825   0.326   2.737   4.091  0.7683  0.2706  0.6937
  681MOL0     C91826   0.318   2.714   3.950  0.4172  0.1428  1.1919
  681MOL0     C91827   0.193   2.708   3.885 -0.5391  0.7606 -0.2183
  681MOL0     C91828   0.203   2.685   3.732 -0.5618  1.0375 -0.5022
  681MOL0     C91829   0.074   2.729   3.963 -0.0055  0.6357  0.4219
  681MOL0     C91830  -0.060   2.711   3.906  0.2379 -0.1893 -0.2453
  681MOL0     O91831  -0.163   2.755   3.977 -0.4901  0.3583 -0.3000
  681MOL0     C91832  -0.289   2.711   3.960  0.8765 -0.1482 -0.1182
  681MOL0     C91833  -0.357   2.655   4.069  0.3346 -1.2301  0.2257
  681MOL0     C91834  -0.497   2.631   4.062 -0.2054  0.2347  0.3655
  681MOL0     C91835  -0.568   2.649   3.948  0.7344 -0.1600  0.4311
  681MOL0     O91836  -0.703   2.623   3.936  0.7907  0.1547 -0.5184
  681MOL0     C91837  -0.776   2.584   4.054 -0.0012  0.6347  0.2399
  681MOL0     C91838  -0.917   2.532   4.022 -0.1187 -0.3334 -0.9183
  681MOL0     C91839  -1.001   2.498   4.152 -0.5688 -0.1675 -0.8338
  681MOL0     C91840  -1.127   2.450   4.110  0.2960 -0.5296 -0.4799
  681MOL0     C91841  -1.213   2.385   4.226 -0.2853 -0.1048 -1.1973
  681MOL0     C91842  -1.358   2.369   4.192  1.7872  0.0162  0.6373
  681MOL0     C91843  -1.436   2.250   4.264  0.0539  0.6029  0.2126
  681MOL0     C91844  -1.463   2.254   4.414 -0.2275 -0.4472  0.0918
  681MOL0    Cl91845  -1.485   2.083   4.473  0.2441 -0.1592 -0.4377
  681MOL0     C91846  -0.506   2.705   3.837 -0.4404 -1.4040 -0.1694
  681MOL0     C91847  -0.367   2.736   3.846 -0.5735  0.2567  0.0749
  681MOL0     O91848  -0.068   2.643   3.804  0.7600 -0.5976 -0.3475
  681MOL0     C91849   0.089   2.766   4.090  0.2225 -0.2556 -0.6149
  681MOL0     C91850   0.207   2.756   4.161 -0.1598  0.2642 -0.1961
  681MOL0     N91851   1.108   2.795   4.134 -0.2207 -0.0272 -0.1986
  681MOL0     N91852   1.221   2.783   4.073 -0.4957 -0.8517  0.2239
  681MOL0     C91853   2.375   2.999   3.861  0.4929  0.1172 -0.0460
  681MOL0     C91854   2.511   3.040   3.861 -0.1845  0.5130 -0.2877
  681MOL0     C91855   2.908   3.232   3.938  0.1034 -0.2819  0.1297
  681MOL0     C91856   2.969   3.346   3.885 -0.6107 -0.0912  0.5509
  681MOL0     C91857   3.107   3.369   3.907  0.4543  0.4589  0.3966
  681MOL0     C91858   3.182   3.275   3.965  0.0609 -0.1775  0.7089
  681MOL0     O91859   3.317   3.303   3.980  0.0853 -0.8597 -0.2352
  681MOL0     C91860   3.411   3.198   3.965 -0.5924 -0.5931  0.5582
  681MOL0     C91861   3.457   3.153   4.110  0.9048 -0.0729  0.2080
  681MOL0     C91862   3.548   3.028   4.097  0.0395  0.0785 -0.7371
  681MOL0     C91863   3.606   3.007   4.238  0.8162 -0.9750 -0.6735
  681MOL0     C91864   3.708   2.902   4.254 -0.1984 -0.0992  1.1966
  681MOL0     C91865   3.779   2.803   4.266  0.0578  0.2299 -0.0569
  681MOL0     C91866   3.122   3.148   3.989  0.2525  0.0686  0.0644
  681MOL0     C91867   2.990   3.128   3.980 -0.3720 -0.0482  0.5088
  681MOL0     H91868   2.512   3.190   4.162  0.1497  0.8798 -1.2360
  681MOL0     H91869   2.279   3.165   4.141  1.4292 -0.8408  2.0832
  681MOL0     H91870   2.111   2.955   3.780 -0.7173  2.4812  1.3865
  681MOL0     H91871   2.180   2.825   3.879 -2.3205 -3.5222  2.4134
  681MOL0     H91872   1.950   2.781   3.840 -0.0617  0.4409 -0.3501
  681MOL0     H91873   1.977   2.807   4.012 -2.4478 -1.7414 -0.5574
  681MOL0     H91874   1.867   3.056   3.958 -0.2209  1.1676 -1.7696
  681MOL0     H91875   1.851   2.997   3.794  0.5252 -0.8869 -0.5322
  681MOL0     H91876   1.708   2.796   3.894 -0.0260  0.4108 -3.2093
  681MOL0     H91877   1.715   2.883   4.042  3.1289 -2.6750 -0.8516
  681MOL0     H91878   1.600   3.072   3.967 -3.0420  0.1498  0.1359
  681MOL0     H91879   1.597   3.031   3.800 -1.4332 -0.9577 -0.1023
  681MOL0     H91880   1.448   2.907   4.026 -0.6953  3.2771 -0.1278
  681MOL0     H91881   1.386   2.992   3.897  0.6301  1.2275  0.2504
  681MOL0     H91882   1.477   2.802   3.749 -2.3253  1.0147 -0.5012
  681MOL0     H91883   1.510   2.709   3.900  0.1007  1.2427  1.5046
  681MOL0     H91884   1.298   2.628   3.844 -0.2744  0.1811 -4.3390
  681MOL0     H91885   1.258   2.763   3.743 -1.5011  2.2421  1.3773
  681MOL0     H91886   1.015   2.800   3.820 -0.6551  0.1597  0.2040
  681MOL0     H91887   0.858   2.894   4.123 -0.1043 -0.5485  0.9867
  681MOL0     H91888   0.819   2.819   3.962 -1.9949  2.7747  1.1727
  681MOL0     H91889   0.901   2.628   4.191  1.0253 -1.9661 -3.0443
  681MOL0     H91890   0.814   2.593   4.053 -2.4360  1.7334 -0.6130
  681MOL0     H91891   0.700   2.777   4.279  2.5723 -1.2442  1.3531
  681MOL0     H91892   0.667   2.604   4.250  2.4702  0.5087  1.2585
  681MOL0     H91893   0.583   2.685   4.000 -1.5816  0.6199 -0.4354
  681MOL0     H91894   0.599   2.836   4.057  1.0364 -0.4891 -0.4179
  681MOL0     H91895   0.407   2.707   3.888  0.1484  0.1419  0.8011
  681MOL0     H91896   0.304   2.705   3.694 -0.3868  1.7255  0.2819
  681MOL0     H91897   0.175   2.582   3.708  0.4495  0.8798 -1.0918
  681MOL0     H91898   0.136   2.752   3.677 -1.1024  2.2068  1.4430
  681MOL0     H91899  -0.310   2.639   4.165 -1.3639 -0.1002  1.3242
  681MOL0     H91900  -0.554   2.622   4.153 -0.6100 -2.2906 -0.0761
  681MOL0     H91901  -0.730   2.506   4.115 -1.0041 -0.7132 -0.6621
  681MOL0     H91902  -0.781   2.668   4.124 -0.1311 -0.0910  1.1152
  681MOL0     H91903  -0.973   2.600   3.958  0.0834  1.5335  0.7652
  681MOL0     H91904  -0.897   2.438   3.971  0.3523 -0.2640 -0.8673
  681MOL0     H91905  -1.000   2.582   4.221  0.8891 -3.3284  3.3697
  681MOL0     H91906  -0.945   2.428   4.214 -2.4245 -0.1631  0.9659
  681MOL0     H91907  -1.180   2.545   4.091 -0.7528 -0.4802  2.2936
  681MOL0     H91908  -1.115   2.375   4.031  0.4280 -1.2817  0.2515
  681MOL0     H91909  -1.193   2.420   4.328 -3.8116 -3.2907  0.8538
  681MOL0     H91910  -1.166   2.286   4.224 -0.3505 -0.1518 -3.8983
  681MOL0     H91911  -1.410   2.461   4.222  1.0614 -0.6091  1.3698
  681MOL0     H91912  -1.359   2.343   4.086 -2.5879 -0.7832  0.6906
  681MOL0     H91913  -1.388   2.156   4.234 -1.7002 -0.2530 -0.0801
  681MOL0     H91914  -1.535   2.256   4.218  0.0261 -0.0534  0.1716
  681MOL0     H91915  -1.546   2.319   4.444  2.2808  2.8449  0.4743
  681MOL0     H91916  -1.371   2.299   4.453  0.8658  0.4020 -3.1762
  681MOL0     H91917  -0.565   2.747   3.756  1.9933  1.6263 -0.5895
  681MOL0     H91918  -0.319   2.788   3.763  1.8249  2.8907  2.8809
  681MOL0     H91919  -0.001   2.791   4.146  1.0414 -1.2465  1.2263
  681MOL0     H91920   0.223   2.777   4.266  3.6663  2.3399 -1.0010
  681MOL0     H91921   2.333   2.939   3.781 -1.0807 -0.9278  1.4768
  681MOL0     H91922   2.567   3.017   3.771  0.9902  0.9356  0.3104
  681MOL0     H91923   2.919   3.438   3.856 -1.9617  0.1265  3.2970
  681MOL0     H91924   3.156   3.466   3.895 -0.0835  0.5155 -1.6667
  681MOL0     H91925   3.363   3.113   3.917 -4.8018  1.7586  0.1112
  681MOL0     H91926   3.497   3.236   3.910 -1.4679 -0.4551 -0.7438
  681MOL0     H91927   3.368   3.114   4.160  0.1689  1.9862  0.6409
  681MOL0     H91928   3.492   3.238   4.169  0.1896 -0.2321  0.8793
  681MOL0     H91929   3.633   3.047   4.030 -0.0067  1.0843 -0.5170
  681MOL0     H91930   3.488   2.945   4.058 -3.1018  1.9903 -0.3160
  681MOL0     H91931   3.528   2.986   4.311  1.7761  0.5637  0.8803
  681MOL0     H91932   3.657   3.099   4.270 -0.3714 -0.9206  1.2231
  681MOL0     H91933   3.840   2.717   4.280 -1.4882 -0.7579  0.8832
  681MOL0     H91934   3.180   3.074   4.043  0.2995  1.2064  1.6522
  681MOL0     H91935   2.934   3.043   4.016 -3.0725 -0.1233 -3.2730
  682MOL0     O91936   3.149   8.992   0.443 -0.2892 -0.2735  0.5278
  682MOL0     C91937   3.112   9.098   0.404 -0.1305  0.5449  0.4150
  682MOL0     O91938   2.995   9.154   0.434  0.7180  0.1530  0.0129
  682MOL0     C91939   2.908   9.113   0.536 -0.2167 -0.2365  0.1741
  682MOL0     C91940   2.766   9.147   0.535 -0.2113  0.1918  0.4741
  682MOL0     C91941   2.686   9.108   0.634 -0.5045  1.0142  0.4191
  682MOL0     C91942   2.733   9.027   0.747 -0.0047  0.0096 -0.2153
  682MOL0     O91943   2.649   8.987   0.845 -0.8331  0.6480 -0.4264
  682MOL0     C91944   2.562   9.088   0.900  0.1414 -0.2839  0.5543
  682MOL0     C91945   2.524   9.053   1.047 -0.3188 -0.6499 -0.3107
  682MOL0     C91946   2.466   9.177   1.115  0.2603  0.2985 -0.1482
  682MOL0     C91947   2.311   9.172   1.103  0.5181 -0.0427  0.7612
  682MOL0     C91948   2.228   9.280   1.166 -1.3817  0.1876 -0.2711
  682MOL0     C91949   2.247   9.288   1.317 -0.3466  0.1381  1.3346
  682MOL0     C91950   2.114   9.329   1.385 -0.4381  0.4450  0.8769
  682MOL0     C91951   2.020   9.208   1.393 -0.1623  0.0516 -0.7115
  682MOL0     N91952   1.891   9.247   1.454 -0.0792  0.2490 -0.6174
  682MOL0     C91953   1.819   9.351   1.397 -0.5786 -0.4646 -0.4514
  682MOL0     C91954   1.726   9.370   1.487 -0.6433 -0.0638 -0.0038
  682MOL0     C91955   1.614   9.462   1.450  0.1378 -0.4500 -0.1926
  682MOL0     C91956   1.491   9.440   1.541  0.5093  0.0858 -0.0720
  682MOL0     C91957   1.424   9.571   1.593 -0.0869  0.9337  0.3743
  682MOL0     C91958   1.301   9.544   1.681  0.1340 -0.2246  0.7503
  682MOL0     O91959   1.209   9.479   1.587  0.4157 -0.1211 -0.5625
  682MOL0     C91960   1.071   9.493   1.598  0.0541  0.0426  0.3922
  682MOL0     C91961   0.997   9.565   1.695  0.3874  0.6816  0.0865
  682MOL0     C91962   0.853   9.571   1.695 -0.0526  0.4302  1.3173
  682MOL0     C91963   0.779   9.653   1.791  0.3593 -0.3672 -0.3574
  682MOL0     C91964   0.794   9.510   1.581 -0.0587  0.0716 -0.0779
  682MOL0     C91965   0.646   9.511   1.558  0.0114  0.6120  0.4671
  682MOL0     O91966   0.612   9.500   1.429 -0.1709 -0.1062 -0.0496
  682MOL0     C91967   0.485   9.520   1.380  0.2059  0.3067  0.0595
  682MOL0     C91968   0.360   9.504   1.452 -1.0768  0.3576  0.8003
  682MOL0     C91969   0.232   9.521   1.396  0.6565 -0.5372 -0.1593
  682MOL0     C91970   0.228   9.567   1.257  0.1005 -0.2721  0.4748
  682MOL0     O91971   0.097   9.586   1.205 -0.1347  0.0626  0.2082
  682MOL0     C91972   0.077   9.624   1.073 -0.3832 -0.7449  0.3491
  682MOL0     C91973  -0.062   9.688   1.062  0.8499  0.4548 -0.1971
  682MOL0     C91974  -0.168   9.576   1.068  0.5118  0.5166 -0.3420
  682MOL0     C91975  -0.185   9.506   0.940 -0.7426 -0.3247 -0.0302
  682MOL0     C91976  -0.318   9.428   0.929 -0.6818 -0.4088 -0.3954
  682MOL0     C91977  -0.326   9.377   0.786  0.5528 -0.8283  0.4113
  682MOL0     C91978  -0.465   9.305   0.763 -0.3293  0.0164 -0.5040
  682MOL0     C91979  -0.470   9.253   0.626 -0.1335  0.0946  0.1926
  682MOL0    Cl91980  -0.641   9.228   0.568 -0.1008 -0.3267  0.0595
  682MOL0     C91981   0.346   9.577   1.188 -0.0180  0.4912  0.3179
  682MOL0     C91982   0.471   9.559   1.249 -0.1103  0.0805  0.1179
  682MOL0     O91983   0.569   9.523   1.655  0.5083  0.2992  0.7061
  682MOL0     C91984   0.875   9.449   1.485  0.0722  0.2604 -0.0979
  682MOL0     C91985   1.011   9.431   1.495 -0.1233 -0.8836 -0.5703
  682MOL0     N91986   1.751   9.304   1.604 -0.3277 -0.7914  0.8299
  682MOL0     N91987   1.853   9.221   1.585 -0.4134 -0.0164 -0.0859
  682MOL0     C91988   2.867   8.990   0.745  0.0876 -0.0706  0.1187
  682MOL0     C91989   2.952   9.034   0.645 -0.6328 -0.0497  0.0052
  682MOL0     C91990   3.216   9.174   0.327 -0.6965 -0.8822  0.2290
  682MOL0     C91991   3.344   9.118   0.305  0.5013 -0.6895  0.1524
  682MOL0     C91992   3.441   9.188   0.235  0.1456  0.4035  0.2058
  682MOL0     C91993   3.412   9.311   0.179 -0.4838 -0.7658  0.3291
  682MOL0     O91994   3.504   9.371   0.093 -0.4751 -0.2376  0.2136
  682MOL0     C91995   3.466   9.490   0.020 -0.2531 -0.1800  0.6910
  682MOL0     C91996   3.593   9.524  -0.049  1.0435 -0.6654  1.2256
  682MOL0     C91997   3.556   9.631  -0.158  0.1633 -0.1172  0.7301
  682MOL0     C91998   3.668   9.655  -0.263 -0.7775 -0.1146  0.0854
  682MOL0     C91999   3.778   9.729  -0.197 -0.5978  0.4228  0.2032
  682MOL0     C92000   3.867   9.784  -0.136  0.0530  0.0118 -0.8048
  682MOL0     C92001   3.282   9.362   0.198  0.8841 -0.4316 -0.0559
  682MOL0     C92002   3.186   9.297   0.265  0.1149  0.6707 -0.3404
  682MOL0     H92003   2.729   9.221   0.465 -0.9509  0.9759  1.6753
  682MOL0     H92004   2.582   9.136   0.632 -1.5278 -2.3388 -0.6244
  682MOL0     H92005   2.607   9.187   0.900 -0.3995 -0.0358  0.7253
  682MOL0     H92006   2.467   9.085   0.846  0.4686 -0.4565 -0.0296
  682MOL0     H92007   2.455   8.970   1.066  1.0762 -1.0913  4.0671
  682MOL0     H92008   2.616   9.024   1.098 -0.1833 -0.1992 -0.2954
  682MOL0     H92009   2.492   9.167   1.221  0.3384 -0.5038 -0.2345
  682MOL0     H92010   2.507   9.268   1.071  0.9752 -0.6964 -1.6211
  682MOL0     H92011   2.280   9.171   0.998  0.4283  1.0051  0.7734
  682MOL0     H92012   2.268   9.076   1.133 -2.1171 -0.1214 -2.6424
  682MOL0     H92013   2.267   9.375   1.129 -0.3963 -0.7136 -1.6482
  682MOL0     H92014   2.122   9.272   1.140 -2.0798  4.7265  0.5171
  682MOL0     H92015   2.280   9.191   1.357  2.8305  0.6386  0.1721
  682MOL0     H92016   2.332   9.356   1.326  1.7504 -1.9239 -1.3855
  682MOL0     H92017   2.137   9.365   1.486  0.7386  0.1062  0.7439
  682MOL0     H92018   2.072   9.409   1.323 -2.0351  0.7993  2.3443
  682MOL0     H92019   2.067   9.129   1.453  0.1520 -0.6373 -1.8127
  682MOL0     H92020   2.005   9.162   1.295  3.0275 -1.5871 -0.5654
  682MOL0     H92021   1.832   9.383   1.294 -0.0519  2.7340  0.5037
  682MOL0     H92022   1.641   9.568   1.451  0.4281 -0.3857 -3.8052
  682MOL0     H92023   1.593   9.437   1.346 -0.9673  1.5458 -0.5026
  682MOL0     H92024   1.510   9.381   1.632  0.8850  1.6752  0.9314
  682MOL0     H92025   1.422   9.389   1.474 -1.6024 -1.3327  2.9080
  682MOL0     H92026   1.409   9.635   1.506  3.1734 -0.7179 -1.5973
  682MOL0     H92027   1.495   9.617   1.662  0.8072 -1.4257  1.1424
  682MOL0     H92028   1.259   9.635   1.724 -2.0589 -1.1369  0.6999
  682MOL0     H92029   1.328   9.485   1.769 -1.6684 -3.3638 -0.6171
  682MOL0     H92030   1.061   9.610   1.771  0.4496  1.4149 -0.3860
  682MOL0     H92031   0.710   9.585   1.843 -2.6754 -0.2910 -3.8446
  682MOL0     H92032   0.851   9.698   1.860 -0.2809 -1.0857  0.8239
  682MOL0     H92033   0.722   9.734   1.744 -0.7680  0.0278  1.5598
  682MOL0     H92034   0.363   9.475   1.557  3.6430 -1.3669  0.4047
  682MOL0     H92035   0.136   9.521   1.446  0.3781  2.2040 -0.5563
  682MOL0     H92036   0.139   9.709   1.043 -1.0985 -0.8967 -1.7263
  682MOL0     H92037   0.097   9.548   0.997  1.6336  1.2704 -1.2530
  682MOL0     H92038  -0.071   9.760   1.143  1.6282 -0.2729  0.5571
  682MOL0     H92039  -0.069   9.743   0.967 -0.0112 -0.1835 -0.5076
  682MOL0     H92040  -0.265   9.624   1.087 -1.5542 -3.2305 -0.6039
  682MOL0     H92041  -0.151   9.508   1.152 -0.6152 -1.0518 -1.3431
  682MOL0     H92042  -0.188   9.585   0.864  0.5984 -1.0111 -0.8467
  682MOL0     H92043  -0.103   9.440   0.908 -0.3677  0.7627 -1.4472
  682MOL0     H92044  -0.405   9.492   0.950  1.6191  1.6538  4.3304
  682MOL0     H92045  -0.312   9.345   1.000  1.2597  0.4198  0.4769
  682MOL0     H92046  -0.318   9.463   0.719  2.4418  0.6003  2.3376
  682MOL0     H92047  -0.245   9.307   0.761  1.9803  0.9133 -0.0735
  682MOL0     H92048  -0.537   9.388   0.765  1.1249  1.3038  1.0633
  682MOL0     H92049  -0.492   9.234   0.841 -0.8809 -1.8946 -2.3152
  682MOL0     H92050  -0.414   9.161   0.607 -1.0273 -0.2180 -1.0197
  682MOL0     H92051  -0.423   9.330   0.565  0.9937  0.5124  1.5243
  682MOL0     H92052   0.341   9.594   1.081  1.1088 -1.6601 -0.1327
  682MOL0     H92053   0.562   9.585   1.196  0.1533 -0.0817  0.4864
  682MOL0     H92054   0.824   9.418   1.394  0.0149 -0.8913  0.3103
  682MOL0     H92055   1.066   9.385   1.414  0.3932 -0.4784 -0.4552
  682MOL0     H92056   2.903   8.936   0.831 -2.8476 -0.6749  1.1011
  682MOL0     H92057   3.054   8.997   0.654 -0.3449  0.7887  0.2172
  682MOL0     H92058   3.374   9.026   0.354  0.1473 -1.9261 -1.8507
  682MOL0     H92059   3.535   9.134   0.223 -1.0808 -1.7523 -0.1816
  682MOL0     H92060   3.384   9.458  -0.046  0.6607 -0.4941 -0.3162
  682MOL0     H92061   3.429   9.574   0.079 -1.0071  0.3724 -0.5187
  682MOL0     H92062   3.638   9.439  -0.100 -0.7549 -1.6652  1.2206
  682MOL0     H92063   3.664   9.562   0.025  0.1906 -2.0550  2.8270
  682MOL0     H92064   3.524   9.722  -0.107 -0.9564  1.1582 -2.0781
  682MOL0     H92065   3.463   9.599  -0.206  0.1435  0.7294  0.1949
  682MOL0     H92066   3.631   9.735  -0.327  0.8782  1.0806  0.5344
  682MOL0     H92067   3.699   9.560  -0.307  2.1936  0.5771  0.4360
  682MOL0     H92068   3.943   9.836  -0.082  0.9057 -1.7311 -0.2182
  682MOL0     H92069   3.260   9.454   0.144  1.9615  0.3117  0.7162
  682MOL0     H92070   3.089   9.343   0.277  0.8796  1.9720  1.3625
  683MOL0     O92071   5.072   0.052   0.563  0.3607  0.3429 -0.5588
  683MOL0     C92072   5.140   0.152   0.574 -0.0112  0.8086  0.1106
  683MOL0     O92073   5.097   0.279   0.604  1.0301 -0.0952  0.0127
  683MOL0     C92074   4.960   0.307   0.630 -0.8397  0.9613 -0.2502
  683MOL0     C92075   4.850   0.239   0.571 -0.6228 -0.8858 -0.5167
  683MOL0     C92076   4.725   0.282   0.601  0.4575  0.4413 -0.3782
  683MOL0     C92077   4.702   0.388   0.690  0.4217  0.0036 -0.1924
  683MOL0     O92078   4.571   0.426   0.695 -0.0437 -0.8516 -0.3579
  683MOL0     C92079   4.537   0.529   0.795  0.7077 -0.2320  0.0807
  683MOL0     C92080   4.386   0.553   0.804 -1.6501  0.2101  0.3018
  683MOL0     C92081   4.345   0.656   0.903 -1.0516  0.5377  0.0879
  683MOL0     C92082   4.194   0.676   0.901  0.5731  0.1328  0.3095
  683MOL0     C92083   4.153   0.785   0.993  0.1253 -0.4291 -1.6886
  683MOL0     C92084   3.998   0.805   0.992 -0.4753 -1.1496 -0.4649
  683MOL0     C92085   3.930   0.777   1.129 -0.5639 -0.0556  0.1398
  683MOL0     C92086   3.773   0.760   1.120  0.1533  0.2397 -0.3112
  683MOL0     N92087   3.702   0.887   1.140 -0.8899 -0.6541  0.3384
  683MOL0     C92088   3.759   1.010   1.118  0.0530 -0.1368 -0.3739
  683MOL0     C92089   3.667   1.102   1.161  0.6234  0.3525  0.0632
  683MOL0     C92090   3.678   1.252   1.174 -1.0081  0.0737  0.7664
  683MOL0     C92091   3.555   1.331   1.148 -0.4349 -0.0515 -0.4300
  683MOL0     C92092   3.542   1.388   1.007 -0.8657  0.1968 -1.6502
  683MOL0     C92093   3.510   1.280   0.911 -0.6749  0.0050 -0.5841
  683MOL0     O92094   3.462   1.345   0.792 -0.1812 -0.4285  0.6464
  683MOL0     C92095   3.334   1.381   0.778  0.0161  0.5727 -0.2242
  683MOL0     C92096   3.296   1.433   0.649  0.8606  0.1110  0.8362
  683MOL0     C92097   3.172   1.491   0.622 -0.7181  0.1055 -0.4688
  683MOL0     C92098   3.154   1.546   0.486 -0.6919  0.6670 -0.3417
  683MOL0     C92099   3.072   1.487   0.720 -0.1323  0.5853  0.2152
  683MOL0     C92100   2.931   1.536   0.706 -0.0034  0.4915  0.5574
  683MOL0     O92101   2.864   1.583   0.819  0.5798 -0.0929  0.2264
  683MOL0     C92102   2.742   1.635   0.789  1.0321 -0.6806 -0.9065
  683MOL0     C92103   2.637   1.544   0.761 -0.2805 -0.4922  0.0842
  683MOL0     C92104   2.509   1.599   0.736 -0.4420  0.5913  0.3371
  683MOL0     C92105   2.485   1.742   0.749  0.3091  0.3882  0.2758
  683MOL0     O92106   2.356   1.780   0.731  0.1587 -0.1931  0.3457
  683MOL0     C92107   2.314   1.897   0.802 -0.2519 -0.5393  0.1301
  683MOL0     C92108   2.168   1.930   0.779 -0.3341  0.7279 -0.3935
  683MOL0     C92109   2.124   2.066   0.851  0.0198 -0.7766 -0.0782
  683MOL0     C92110   1.988   2.101   0.782 -0.3612 -0.2708 -0.1645
  683MOL0     C92111   1.887   2.154   0.886  0.2229  0.4854  0.0809
  683MOL0     C92112   1.754   2.182   0.831  0.8314  0.3847  0.0443
  683MOL0     C92113   1.659   2.258   0.935  0.0795  0.2509  0.9286
  683MOL0     C92114   1.552   2.330   0.859 -0.4425  0.4697 -0.8812
  683MOL0    Cl92115   1.436   2.217   0.781  0.0021 -0.6110  0.1911
  683MOL0     C92116   2.586   1.817   0.806  0.0044  0.4224 -0.4730
  683MOL0     C92117   2.707   1.764   0.816  0.2721 -0.2979  0.9688
  683MOL0     O92118   2.883   1.511   0.594 -0.6072 -0.5143 -0.6613
  683MOL0     C92119   3.107   1.433   0.849  0.4849 -0.0252  0.1425
  683MOL0     C92120   3.232   1.372   0.880 -0.1289 -0.1135 -0.2387
  683MOL0     N92121   3.551   1.034   1.198 -0.4697 -0.0993 -0.4570
  683MOL0     N92122   3.578   0.906   1.183 -1.1080  0.3061 -0.3122
  683MOL0     C92123   4.814   0.459   0.750  0.6394  0.3492 -0.1229
  683MOL0     C92124   4.935   0.411   0.709 -0.5210 -1.0738 -0.5039
  683MOL0     C92125   5.284   0.117   0.559 -0.7059  0.0439  0.1797
  683MOL0     C92126   5.380   0.220   0.559  0.4407 -1.0499 -0.0952
  683MOL0     C92127   5.517   0.194   0.528  0.2765 -0.1513 -0.0397
  683MOL0     C92128   5.560   0.065   0.480 -0.3207 -0.0126 -1.2540
  683MOL0     O92129   5.692   0.034   0.461  0.1817 -0.0048 -0.2620
  683MOL0     C92130   5.794   0.128   0.462 -0.4195  0.1577 -0.3862
  683MOL0     C92131   5.911   0.076   0.386 -0.2663  0.0893 -0.1665
  683MOL0     C92132   5.968  -0.051   0.450  0.0318  0.9140  0.1033
  683MOL0     C92133   6.093  -0.101   0.366  0.2036 -0.6524 -0.2925
  683MOL0     C92134   6.142  -0.234   0.387 -0.0867  0.5381 -0.0326
  683MOL0     C92135   6.180  -0.348   0.421  0.6568 -0.5989  0.2107
  683MOL0     C92136   5.463  -0.030   0.466 -0.3076  0.2022 -0.6011
  683MOL0     C92137   5.334  -0.010   0.510 -0.1099 -0.4237  0.7645
  683MOL0     H92138   4.866   0.166   0.493  0.6006 -2.9475  1.5446
  683MOL0     H92139   4.636   0.235   0.559 -1.5099  1.5403  2.2920
  683MOL0     H92140   4.587   0.492   0.885  0.5953  3.0663  1.6222
  683MOL0     H92141   4.581   0.626   0.770 -1.3090  0.4004 -1.2507
  683MOL0     H92142   4.343   0.567   0.705  0.2581  0.2550 -0.5516
  683MOL0     H92143   4.347   0.455   0.835 -1.7155  0.8771  2.4915
  683MOL0     H92144   4.382   0.625   1.001  1.8145 -0.8060 -1.2618
  683MOL0     H92145   4.403   0.742   0.867 -1.6331 -0.1939 -2.9255
  683MOL0     H92146   4.160   0.710   0.803 -0.5191  1.3261  1.0750
  683MOL0     H92147   4.152   0.580   0.932  0.3205  0.1070 -0.0958
  683MOL0     H92148   4.189   0.777   1.097 -0.7017 -1.0506 -1.4424
  683MOL0     H92149   4.193   0.880   0.956  0.8173  0.1796  0.4264
  683MOL0     H92150   3.975   0.903   0.949 -0.5302 -0.5538  0.8734
  683MOL0     H92151   3.936   0.734   0.938  1.7189 -3.6139  0.0670
  683MOL0     H92152   3.969   0.683   1.168  1.7968  1.0061  0.5088
  683MOL0     H92153   3.956   0.862   1.193  0.5692  1.0843 -1.7319
  683MOL0     H92154   3.751   0.685   1.196  0.5806 -1.5576 -1.8789
  683MOL0     H92155   3.724   0.710   1.036 -2.4762  1.1947  0.5569
  683MOL0     H92156   3.860   1.028   1.082 -0.5612  1.6736 -1.2967
  683MOL0     H92157   3.706   1.272   1.278 -1.4115 -3.4051  1.6903
  683MOL0     H92158   3.757   1.303   1.118  0.3066 -0.4302  2.0991
  683MOL0     H92159   3.553   1.425   1.204 -0.6979  2.0470 -3.7314
  683MOL0     H92160   3.464   1.278   1.179 -0.5295 -0.1028 -0.7842
  683MOL0     H92161   3.629   1.449   0.983 -1.6913  1.1307 -2.3894
  683MOL0     H92162   3.459   1.459   1.000 -0.8105  0.1565 -2.8176
  683MOL0     H92163   3.441   1.210   0.960  1.2341 -0.9413  0.8581
  683MOL0     H92164   3.605   1.229   0.895 -0.2970  0.1074  1.1562
  683MOL0     H92165   3.376   1.427   0.576 -1.1888  0.1643 -1.5223
  683MOL0     H92166   3.099   1.640   0.494 -0.5246  0.7665 -0.3516
  683MOL0     H92167   3.256   1.567   0.453  0.6666 -1.4895  2.1291
  683MOL0     H92168   3.101   1.488   0.410  0.3824  1.0471 -1.4131
  683MOL0     H92169   2.645   1.436   0.758 -0.2587 -0.4825 -0.3113
  683MOL0     H92170   2.417   1.541   0.725  0.1709 -0.3317 -0.0069
  683MOL0     H92171   2.328   1.876   0.908 -1.2798  0.5372  0.4975
  683MOL0     H92172   2.362   1.983   0.753 -2.6853  0.9585  0.2275
  683MOL0     H92173   2.150   1.930   0.671 -1.5437  3.7471 -0.3041
  683MOL0     H92174   2.101   1.852   0.816  1.2499  0.0416  1.1586
  683MOL0     H92175   2.207   2.134   0.826  1.8191 -2.8856 -0.1738
  683MOL0     H92176   2.110   2.069   0.959 -3.3457  0.8883 -0.4298
  683MOL0     H92177   2.006   2.183   0.712  0.6035  0.8000  1.2715
  683MOL0     H92178   1.949   2.015   0.727  0.7457 -0.6229 -0.4154
  683MOL0     H92179   1.934   2.246   0.923  1.1022  0.9171 -2.0039
  683MOL0     H92180   1.875   2.076   0.962 -0.5103 -0.3623 -0.8793
  683MOL0     H92181   1.754   2.219   0.728 -0.5399 -0.7689 -0.4053
  683MOL0     H92182   1.720   2.079   0.821  2.3534 -0.2133  0.6670
  683MOL0     H92183   1.718   2.337   0.982  0.3770  0.5645  0.0600
  683MOL0     H92184   1.613   2.197   1.013 -1.4779 -0.9392 -0.8204
  683MOL0     H92185   1.603   2.391   0.784  1.3399 -1.3852 -1.2479
  683MOL0     H92186   1.494   2.396   0.925  2.1718  0.5263  1.5532
  683MOL0     H92187   2.582   1.923   0.831  0.2882  0.6696 -1.4314
  683MOL0     H92188   2.769   1.836   0.868 -0.8027  4.2429 -3.2852
  683MOL0     H92189   3.036   1.428   0.931  3.1990 -1.7790  2.5604
  683MOL0     H92190   3.243   1.327   0.978 -0.8565 -0.6415 -0.3947
  683MOL0     H92191   4.801   0.552   0.804 -1.3686 -0.0808  0.1820
  683MOL0     H92192   5.024   0.452   0.755 -2.0962 -0.3417  2.1539
  683MOL0     H92193   5.343   0.319   0.587  2.8282  0.2866 -1.3186
  683MOL0     H92194   5.585   0.274   0.556 -0.1001  0.3312 -0.5016
  683MOL0     H92195   5.755   0.218   0.415 -2.6373 -0.4109  0.2706
  683MOL0     H92196   5.813   0.158   0.566 -3.0994  3.0146 -0.5843
  683MOL0     H92197   5.982   0.158   0.374  0.2658 -0.3877 -0.3141
  683MOL0     H92198   5.880   0.050   0.284 -0.9746 -0.6739  0.2313
  683MOL0     H92199   5.892  -0.129   0.462  1.2744 -0.4753 -0.6919
  683MOL0     H92200   6.003  -0.030   0.551 -0.9862  3.2122  0.0434
  683MOL0     H92201   6.180  -0.035   0.370 -1.2457  1.4130 -1.0613
  683MOL0     H92202   6.059  -0.107   0.262  1.2062  0.1483 -0.6842
  683MOL0     H92203   6.212  -0.450   0.429 -0.0864 -0.9727 -1.1466
  683MOL0     H92204   5.494  -0.127   0.430  0.3590  0.2672 -0.2290
  683MOL0     H92205   5.273  -0.100   0.506  0.2702 -0.6264 -0.9473
  684MOL0     O92206   6.307   2.181   8.142 -0.1405  0.3653 -0.0871
  684MOL0     C92207   6.380   2.279   8.120  0.7393  0.5750  0.6009
  684MOL0     O92208   6.354   2.407   8.128 -0.3693 -0.0347 -0.4208
  684MOL0     C92209   6.230   2.461   8.166 -0.6403  0.1390  0.0979
  684MOL0     C92210   6.117   2.397   8.122  0.3041 -0.2020 -0.4452
  684MOL0     C92211   5.999   2.455   8.151 -0.7375 -0.6189 -0.7111
  684MOL0     C92212   5.991   2.586   8.201  0.0380 -0.5541 -0.8917
  684MOL0     O92213   5.873   2.657   8.204  0.6246 -0.4898  0.8437
  684MOL0     C92214   5.752   2.580   8.183  0.5220 -0.0107 -0.0927
  684MOL0     C92215   5.636   2.675   8.180 -0.2217 -0.6593  1.0072
  684MOL0     C92216   5.498   2.606   8.166  0.1827  0.8760 -0.0836
  684MOL0     C92217   5.440   2.540   8.289  0.0864 -1.1652 -0.8597
  684MOL0     C92218   5.300   2.486   8.261 -0.6382  0.1455 -0.0542
  684MOL0     C92219   5.238   2.393   8.369  0.7057 -0.6639  0.6645
  684MOL0     C92220   5.105   2.338   8.325  0.6144  1.1761  0.1638
  684MOL0     C92221   4.996   2.445   8.325 -0.4097 -0.5021  0.7804
  684MOL0     N92222   4.863   2.394   8.294  0.0397  0.4787 -0.0412
  684MOL0     C92223   4.804   2.420   8.170  1.0735 -0.8422 -1.0082
  684MOL0     C92224   4.697   2.347   8.180  1.2081  0.2823 -0.4818
  684MOL0     C92225   4.587   2.346   8.076  0.9044  0.0335  0.5957
  684MOL0     C92226   4.484   2.457   8.089 -0.2254  0.5151 -0.5754
  684MOL0     C92227   4.339   2.405   8.119  0.6060  0.1048  0.3284
  684MOL0     C92228   4.254   2.372   7.988 -0.7737 -0.3270  1.0033
  684MOL0     O92229   4.121   2.363   8.041  0.0248  0.5391  0.0286
  684MOL0     C92230   4.015   2.347   7.957  0.7036 -0.5171  0.7853
  684MOL0     C92231   4.015   2.330   7.814 -0.2530  0.4505  0.9426
  684MOL0     C92232   3.895   2.333   7.741 -0.0875  0.6434 -0.3794
  684MOL0     C92233   3.914   2.319   7.590 -0.2151  0.5013 -0.6945
  684MOL0     C92234   3.774   2.368   7.804  0.1407  0.0573 -0.1083
  684MOL0     C92235   3.651   2.382   7.724  0.9251  0.0560 -0.4128
  684MOL0     O92236   3.585   2.506   7.736 -0.6326  0.5335  0.0300
  684MOL0     C92237   3.449   2.507   7.703 -0.8097  0.2400 -0.8455
  684MOL0     C92238   3.349   2.507   7.799 -0.1037  0.7239  0.8190
  684MOL0     C92239   3.217   2.525   7.768  0.1312 -0.2076  0.5318
  684MOL0     C92240   3.176   2.546   7.631 -0.2870  0.2606  0.0310
  684MOL0     O92241   3.046   2.568   7.609  0.0004  0.0938  0.6462
  684MOL0     C92242   3.012   2.680   7.535 -0.4290 -0.0635  0.5980
  684MOL0     C92243   2.862   2.682   7.513  0.3003  0.4416  0.0079
  684MOL0     C92244   2.808   2.560   7.431  0.7323  0.1093  0.1873
  684MOL0     C92245   2.666   2.521   7.478  0.0668  0.1599  0.1781
  684MOL0     C92246   2.608   2.391   7.413  0.6772  0.0754  0.2074
  684MOL0     C92247   2.461   2.365   7.442  0.3195  0.2251  0.0198
  684MOL0     C92248   2.365   2.444   7.357 -0.6656  0.8311  0.0835
  684MOL0     C92249   2.230   2.371   7.366  1.2349  1.1267 -0.0297
  684MOL0    Cl92250   2.119   2.436   7.244  0.4215  0.3354  0.6038
  684MOL0     C92251   3.276   2.552   7.534  0.1913  0.1316 -0.1365
  684MOL0     C92252   3.411   2.532   7.570 -0.5864 -0.0963  0.2850
  684MOL0     O92253   3.607   2.284   7.668  0.3379  0.3776  0.1525
  684MOL0     C92254   3.773   2.376   7.942  0.3834 -0.3876 -0.2589
  684MOL0     C92255   3.893   2.368   8.015 -0.5201 -0.1598 -0.0665
  684MOL0     N92256   4.682   2.285   8.307  0.8156 -0.2843 -0.6625
  684MOL0     N92257   4.794   2.305   8.370 -0.3927 -0.2695  0.4355
  684MOL0     C92258   6.114   2.659   8.216 -0.1431  0.4700  0.2401
  684MOL0     C92259   6.229   2.593   8.208 -0.2940  0.3563  0.0411
  684MOL0     C92260   6.516   2.246   8.088  0.1651  0.3111  0.7531
  684MOL0     C92261   6.610   2.340   8.037  1.0570 -0.2149  0.4212
  684MOL0     C92262   6.732   2.299   7.982 -0.8091  0.7341 -0.3594
  684MOL0     C92263   6.771   2.166   7.994 -0.1382 -0.6714  0.1919
  684MOL0     O92264   6.894   2.112   7.967  0.3531  0.6534  0.1918
  684MOL0     C92265   6.990   2.214   7.944 -0.1800 -0.0356 -0.0788
  684MOL0     C92266   7.127   2.145   7.953 -0.5942 -0.1966 -0.0159
  684MOL0     C92267   7.233   2.219   7.873  0.5327  0.3091  0.0632
  684MOL0     C92268   7.357   2.135   7.862 -0.5126 -0.6402  0.2083
  684MOL0     C92269   7.470   2.201   7.795 -0.8786 -0.2017  0.6930
  684MOL0     C92270   7.551   2.269   7.738 -0.2990  0.1806  1.4710
  684MOL0     C92271   6.683   2.074   8.050 -0.2257 -0.2736 -0.1120
  684MOL0     C92272   6.558   2.109   8.093 -0.0008  0.6765  0.2539
  684MOL0     H92273   6.120   2.304   8.065 -0.5965  0.6528 -1.9602
  684MOL0     H92274   5.902   2.412   8.128  0.0230 -2.5041 -0.6165
  684MOL0     H92275   5.763   2.541   8.082  3.0836 -1.9055  0.7994
  684MOL0     H92276   5.733   2.511   8.266  0.0100  0.8817  0.5522
  684MOL0     H92277   5.636   2.734   8.272 -0.9700  0.9835 -0.0027
  684MOL0     H92278   5.650   2.756   8.109 -1.7493  2.0728  3.5801
  684MOL0     H92279   5.424   2.681   8.139  0.2309  1.3988  1.1450
  684MOL0     H92280   5.502   2.528   8.089  2.1249 -2.1568  2.7587
  684MOL0     H92281   5.519   2.468   8.310  3.3153  1.9340 -1.3073
  684MOL0     H92282   5.433   2.612   8.371 -1.2454 -1.2209 -0.9049
  684MOL0     H92283   5.229   2.564   8.231 -1.1292 -1.3332 -3.1616
  684MOL0     H92284   5.306   2.420   8.174  2.9284 -1.7129  1.4031
  684MOL0     H92285   5.302   2.305   8.366  1.3506 -0.2263  1.2760
  684MOL0     H92286   5.233   2.445   8.465 -1.2454  3.1549 -1.2517
  684MOL0     H92287   5.113   2.296   8.225 -1.9930 -0.7737  0.6403
  684MOL0     H92288   5.079   2.263   8.401  0.5785  2.7818  1.8227
  684MOL0     H92289   5.008   2.527   8.254 -0.3707 -2.0010 -1.0380
  684MOL0     H92290   4.987   2.479   8.429  0.8989  3.1310 -0.1734
  684MOL0     H92291   4.836   2.477   8.083  1.4764 -0.1457 -0.4050
  684MOL0     H92292   4.623   2.363   7.974  0.9261  1.3487  0.7999
  684MOL0     H92293   4.539   2.248   8.082  1.6016 -0.2833  1.1819
  684MOL0     H92294   4.483   2.522   8.002  2.5715  1.0810 -0.2806
  684MOL0     H92295   4.507   2.516   8.179 -0.3558 -1.8501  1.1213
  684MOL0     H92296   4.277   2.483   8.163 -3.4198 -2.5353 -0.1158
  684MOL0     H92297   4.343   2.322   8.190 -0.3114  0.0858  0.3712
  684MOL0     H92298   4.278   2.275   7.943 -0.9388  0.5495 -1.0537
  684MOL0     H92299   4.277   2.445   7.910  0.2364 -0.1038  1.4892
  684MOL0     H92300   4.112   2.319   7.767 -1.0773  3.2290 -1.7744
  684MOL0     H92301   4.008   2.270   7.566 -1.1161 -2.3148  1.0656
  684MOL0     H92302   3.841   2.258   7.535 -0.8061 -1.2528  1.8675
  684MOL0     H92303   3.910   2.421   7.551 -0.1886  0.7191 -0.1262
  684MOL0     H92304   3.367   2.474   7.901  0.1372  0.6295  0.7463
  684MOL0     H92305   3.134   2.503   7.833  0.9569  1.1835  2.1254
  684MOL0     H92306   3.034   2.770   7.593  0.9713 -1.0418  1.6515
  684MOL0     H92307   3.059   2.674   7.436  3.5699 -3.2385  2.4038
  684MOL0     H92308   2.822   2.685   7.615 -0.3124 -1.2696 -0.1544
  684MOL0     H92309   2.848   2.778   7.462  0.9025  0.5610  0.0582
  684MOL0     H92310   2.878   2.478   7.444  2.0060  0.4119 -3.4668
  684MOL0     H92311   2.809   2.588   7.325  2.8141 -0.6941 -0.0320
  684MOL0     H92312   2.669   2.506   7.586  0.1290 -5.3469 -0.2825
  684MOL0     H92313   2.596   2.602   7.457  1.0847  0.4491 -2.5390
  684MOL0     H92314   2.654   2.302   7.456  1.7115 -1.2830 -3.3225
  684MOL0     H92315   2.625   2.387   7.305 -0.6788 -1.1662  0.0064
  684MOL0     H92316   2.443   2.261   7.413  0.3124  0.0462  0.6577
  684MOL0     H92317   2.442   2.386   7.548 -0.2536 -1.3770  0.2569
  684MOL0     H92318   2.394   2.437   7.252 -0.2217 -0.4604  0.2732
  684MOL0     H92319   2.362   2.548   7.392  1.9967  1.0336 -0.1305
  684MOL0     H92320   2.196   2.371   7.470  1.4062 -2.7427  0.1817
  684MOL0     H92321   2.246   2.266   7.341 -1.5766  0.5458  0.2116
  684MOL0     H92322   3.251   2.576   7.431 -0.1376 -0.8980 -0.3121
  684MOL0     H92323   3.493   2.526   7.499 -1.0650 -0.1222 -0.2762
  684MOL0     H92324   3.680   2.396   7.994  0.4352 -1.4954  0.2915
  684MOL0     H92325   3.895   2.383   8.122  0.0284  1.6753 -0.3030
  684MOL0     H92326   6.116   2.766   8.237  1.8115  0.4990  0.0852
  684MOL0     H92327   6.323   2.648   8.205 -0.9881  1.5745 -0.1678
  684MOL0     H92328   6.580   2.443   8.023  0.9068 -0.4696 -1.2954
  684MOL0     H92329   6.788   2.373   7.926  1.8554 -1.3015 -0.5554
  684MOL0     H92330   6.974   2.261   7.847 -2.7093 -0.0544  0.2486
  684MOL0     H92331   7.004   2.288   8.023 -0.9698  0.6407 -0.5612
  684MOL0     H92332   7.109   2.048   7.906  2.9087 -0.0885 -1.9728
  684MOL0     H92333   7.160   2.124   8.055  0.4514 -1.1804 -0.5272
  684MOL0     H92334   7.247   2.313   7.927 -2.3310 -0.1360  1.7773
  684MOL0     H92335   7.191   2.253   7.778  1.1618  0.0352 -0.3155
  684MOL0     H92336   7.331   2.047   7.802 -3.4364  0.7096 -0.6549
  684MOL0     H92337   7.407   2.105   7.955  0.8123  1.3440  0.1952
  684MOL0     H92338   7.621   2.336   7.693 -0.5416  1.2987  2.6999
  684MOL0     H92339   6.724   1.977   8.079  0.8231 -0.5289 -2.2593
  684MOL0     H92340   6.490   2.035   8.133  1.3312 -0.6196  0.1751
  685MOL0     O92341   9.904   1.188   2.974  0.5733  0.0303  0.1371
  685MOL0     C92342   9.851   1.094   3.038 -0.4857  0.2979 -0.3405
  685MOL0     O92343   9.719   1.063   3.055  0.3213 -0.1665 -0.4208
  685MOL0     C92344   9.622   1.091   2.964 -1.0916 -0.1402 -0.7566
  685MOL0     C92345   9.510   1.169   2.986  0.3024 -0.5566 -0.2319
  685MOL0     C92346   9.405   1.169   2.890  0.3287  0.0671 -0.6254
  685MOL0     C92347   9.424   1.102   2.768 -0.3349  0.7527  0.7491
  685MOL0     O92348   9.319   1.099   2.683  0.4041 -0.3016  0.2561
  685MOL0     C92349   9.355   1.114   2.544  0.1849 -0.1539 -1.1639
  685MOL0     C92350   9.238   1.186   2.476 -0.1990 -0.1172 -0.3908
  685MOL0     C92351   9.109   1.122   2.476  0.6994  0.5836  1.0007
  685MOL0     C92352   9.003   1.229   2.434 -0.2011  0.7650  0.5065
  685MOL0     C92353   8.867   1.164   2.419 -1.1399  0.0067 -0.3421
  685MOL0     C92354   8.757   1.266   2.380 -0.5649 -0.9866 -0.3208
  685MOL0     C92355   8.621   1.201   2.393  0.0491 -0.6514  0.5457
  685MOL0     C92356   8.587   1.109   2.267  0.2807 -0.6864 -0.9259
  685MOL0     N92357   8.448   1.054   2.270 -0.2197 -0.0050  0.1924
  685MOL0     C92358   8.342   1.108   2.206 -0.1677 -0.4357  0.2175
  685MOL0     C92359   8.251   1.009   2.202  0.0699  0.3394  0.3857
  685MOL0     C92360   8.118   1.014   2.138 -0.1292  0.2137 -0.3653
  685MOL0     C92361   8.067   0.878   2.079 -0.4723  0.7149  0.0683
  685MOL0     C92362   7.931   0.900   2.010  0.5368  0.1820 -0.2759
  685MOL0     C92363   7.813   0.925   2.110 -0.1104 -0.3436  0.3353
  685MOL0     O92364   7.702   0.940   2.019 -0.0270 -0.2362 -0.0277
  685MOL0     C92365   7.575   0.943   2.078  0.6134 -1.8207 -1.0869
  685MOL0     C92366   7.547   0.921   2.210 -0.8404  0.2897 -0.3927
  685MOL0     C92367   7.415   0.916   2.257 -0.5537 -0.6863 -0.5873
  685MOL0     C92368   7.397   0.884   2.401 -0.1582 -0.1447 -0.1093
  685MOL0     C92369   7.313   0.937   2.168  0.6246 -0.3130  0.4011
  685MOL0     C92370   7.168   0.927   2.204 -0.2636  0.9548  0.3050
  685MOL0     O92371   7.082   0.921   2.091  0.4094 -0.6150 -0.1518
  685MOL0     C92372   6.950   0.946   2.102 -0.7340 -0.1478 -0.1550
  685MOL0     C92373   6.880   1.061   2.056  0.0702  0.4732  0.2302
  685MOL0     C92374   6.738   1.058   2.078 -0.0454 -1.0769  0.4104
  685MOL0     C92375   6.663   0.952   2.139 -0.0965 -0.7094 -0.3272
  685MOL0     O92376   6.522   0.952   2.144  0.0956 -0.1800 -0.0984
  685MOL0     C92377   6.468   1.073   2.211  0.2144 -0.2611  0.3965
  685MOL0     C92378   6.368   1.050   2.327 -0.0288  0.1255 -0.5940
  685MOL0     C92379   6.240   0.986   2.269 -0.2366  0.0444 -0.1396
  685MOL0     C92380   6.119   1.005   2.371  0.5660 -0.2069  0.6345
  685MOL0     C92381   6.004   0.929   2.312  0.3512 -0.8317 -0.8338
  685MOL0     C92382   5.875   0.962   2.387 -0.2648  0.5242 -0.7484
  685MOL0     C92383   5.767   0.865   2.330  0.2005 -0.4573 -0.0098
  685MOL0     C92384   5.632   0.888   2.407  0.6829 -0.4934 -0.4963
  685MOL0    Cl92385   5.488   0.832   2.314 -0.6234 -0.3699 -0.2202
  685MOL0     C92386   6.736   0.840   2.180  1.0231  0.2721  0.1887
  685MOL0     C92387   6.878   0.842   2.164 -0.5776  0.1706  0.2031
  685MOL0     O92388   7.132   0.922   2.322  0.0125 -0.3173  0.6655
  685MOL0     C92389   7.344   0.953   2.029  0.3680  0.1356 -0.0156
  685MOL0     C92390   7.476   0.964   1.993  0.4125 -0.5705  0.1698
  685MOL0     N92391   8.312   0.885   2.249  0.3603  0.7027  0.3950
  685MOL0     N92392   8.430   0.917   2.279 -0.5132 -0.0893 -0.1239
  685MOL0     C92393   9.525   1.011   2.752 -0.2676  0.1113  0.6992
  685MOL0     C92394   9.618   1.007   2.851 -0.3206  0.2643 -0.5238
  685MOL0     C92395   9.940   1.014   3.125  0.2943 -0.1308 -0.3016
  685MOL0     C92396  10.077   1.012   3.100  0.2225  0.5127  0.6390
  685MOL0     C92397  10.157   0.936   3.185 -0.0732  0.0583 -0.3607
  685MOL0     C92398  10.112   0.878   3.307  0.9122 -0.6108 -0.0511
  685MOL0     O92399  10.190   0.817   3.400  0.4329 -0.2533  0.5884
  685MOL0     C92400  10.328   0.822   3.372 -0.0848  0.2290 -0.1047
  685MOL0     C92401  10.409   0.761   3.483  0.4751  0.6861  0.4297
  685MOL0     C92402  10.484   0.645   3.442 -0.4851  0.0963  0.3864
  685MOL0     C92403  10.592   0.666   3.337 -0.3749 -0.4344  1.1175
  685MOL0     C92404  10.679   0.775   3.369 -0.2936 -0.0823  0.7951
  685MOL0     C92405  10.755   0.863   3.415  0.9498 -0.4044 -0.3959
  685MOL0     C92406   9.976   0.878   3.330  0.2204 -0.0330 -0.0162
  685MOL0     C92407   9.891   0.941   3.247 -0.4575  0.3426  0.3904
  685MOL0     H92408   9.506   1.230   3.075  2.4999  2.2657 -1.8973
  685MOL0     H92409   9.309   1.212   2.917 -0.9100 -3.7920  2.2384
  685MOL0     H92410   9.445   1.175   2.529  1.3653 -1.1401  1.3318
  685MOL0     H92411   9.361   1.019   2.490 -0.8778  0.1595 -1.8667
  685MOL0     H92412   9.228   1.279   2.532 -0.6680  0.1377 -0.8910
  685MOL0     H92413   9.289   1.211   2.382 -1.0061  1.2181 -0.4974
  685MOL0     H92414   9.107   1.040   2.403  0.6333  2.1527 -0.8262
  685MOL0     H92415   9.085   1.076   2.572 -1.5968  0.5448  0.4742
  685MOL0     H92416   8.998   1.312   2.506  2.1635 -1.2193  3.1537
  685MOL0     H92417   9.034   1.271   2.338 -0.4850  0.5905  0.3359
  685MOL0     H92418   8.873   1.074   2.356  0.7001 -1.2231  1.4673
  685MOL0     H92419   8.833   1.138   2.520  0.2515 -0.4429  0.0376
  685MOL0     H92420   8.762   1.346   2.455 -1.2865  0.1187 -1.4139
  685MOL0     H92421   8.771   1.307   2.279 -2.3241 -1.7248 -0.9054
  685MOL0     H92422   8.601   1.134   2.477  0.6584 -2.4216 -0.6802
  685MOL0     H92423   8.540   1.275   2.402 -1.4026 -2.3742  2.8288
  685MOL0     H92424   8.665   1.034   2.254  3.5041  2.5713 -1.9527
  685MOL0     H92425   8.607   1.162   2.173  2.6431  2.7242  1.2678
  685MOL0     H92426   8.334   1.207   2.164  0.6234 -1.3102 -2.1374
  685MOL0     H92427   8.046   1.042   2.215 -0.2895 -1.9728  0.3554
  685MOL0     H92428   8.106   1.087   2.057  0.8515 -0.5615 -1.2463
  685MOL0     H92429   8.069   0.801   2.156  2.0651  1.8735  1.2778
  685MOL0     H92430   8.142   0.845   2.006 -0.2076  3.2563 -0.9539
  685MOL0     H92431   7.908   0.813   1.948 -0.9964 -0.7241  1.4576
  685MOL0     H92432   7.924   0.989   1.947  0.4950  0.6132  0.3237
  685MOL0     H92433   7.830   1.022   2.157  1.8108 -0.9041  0.8959
  685MOL0     H92434   7.802   0.842   2.180 -0.7337 -2.4345 -2.0503
  685MOL0     H92435   7.626   0.925   2.285 -2.3520  0.6903  1.2733
  685MOL0     H92436   7.362   0.783   2.425 -1.1200  0.4525  1.1594
  685MOL0     H92437   7.494   0.867   2.447 -1.0476 -0.1885  1.8454
  685MOL0     H92438   7.342   0.959   2.459  1.7163  1.5345 -0.3778
  685MOL0     H92439   6.935   1.142   2.010 -1.7220  0.7490 -1.5278
  685MOL0     H92440   6.682   1.142   2.038 -1.7575 -3.5785 -2.9489
  685MOL0     H92441   6.552   1.123   2.259 -0.2573 -0.4172  1.4194
  685MOL0     H92442   6.416   1.142   2.144 -3.0937 -2.8255  0.0274
  685MOL0     H92443   6.416   0.980   2.397 -1.8821  0.4741  1.1095
  685MOL0     H92444   6.349   1.147   2.374  0.0529 -1.0530  2.0639
  685MOL0     H92445   6.256   0.879   2.253 -1.0111 -0.2821  1.1347
  685MOL0     H92446   6.212   1.039   2.177  0.9507  0.9178 -0.0094
  685MOL0     H92447   6.140   0.955   2.465  0.7084 -2.2021 -0.4116
  685MOL0     H92448   6.093   1.111   2.376  1.1344 -0.0606  0.5755
  685MOL0     H92449   6.022   0.822   2.312  0.2145 -0.8581  0.0726
  685MOL0     H92450   6.001   0.959   2.207 -0.1152  3.0315  0.1237
  685MOL0     H92451   5.888   0.935   2.493 -1.9445 -0.3833 -0.7418
  685MOL0     H92452   5.863   1.069   2.371  0.6827  1.3529  2.9987
  685MOL0     H92453   5.797   0.760   2.332 -0.8251 -0.7576  0.8708
  685MOL0     H92454   5.750   0.888   2.225 -1.8054  4.2670  1.0838
  685MOL0     H92455   5.617   0.995   2.423 -0.8775 -0.8605  0.6828
  685MOL0     H92456   5.643   0.843   2.506  3.8312 -2.0154 -1.4067
  685MOL0     H92457   6.683   0.755   2.221  0.2254 -0.0054 -1.3286
  685MOL0     H92458   6.928   0.749   2.192 -1.3610  0.2191  1.9076
  685MOL0     H92459   7.267   0.958   1.952  1.8482  2.8630 -1.4395
  685MOL0     H92460   7.506   0.975   1.890  2.4857 -0.2389  0.7599
  685MOL0     H92461   9.539   0.951   2.663  2.2201 -0.1608  1.1874
  685MOL0     H92462   9.700   0.938   2.832 -1.1806 -1.3710  1.4225
  685MOL0     H92463  10.118   1.068   3.017  1.8634  1.0120  1.7397
  685MOL0     H92464  10.264   0.930   3.168 -0.1416 -0.0562 -0.7597
  685MOL0     H92465  10.353   0.772   3.278  0.9489 -1.2569  0.9070
  685MOL0     H92466  10.355   0.927   3.365 -1.1461  0.7574  2.4604
  685MOL0     H92467  10.343   0.724   3.561  0.1570 -0.1811 -0.2295
  685MOL0     H92468  10.484   0.832   3.519  1.0245  1.1073 -1.4290
  685MOL0     H92469  10.407   0.574   3.411  1.0926 -1.8079  0.5884
  685MOL0     H92470  10.535   0.598   3.527  1.3520 -1.7679 -1.6111
  685MOL0     H92471  10.533   0.697   3.250  0.2586  3.8505  2.0251
  685MOL0     H92472  10.643   0.570   3.325 -0.7284 -0.4138 -0.7761
  685MOL0     H92473  10.819   0.928   3.472 -1.3241  1.6419  0.0039
  685MOL0     H92474   9.936   0.829   3.418  0.7861 -0.7852 -0.1586
  685MOL0     H92475   9.785   0.934   3.272 -0.3623 -0.0193  0.6885
  686MOL0     O92476   8.658   8.491   6.747  0.1221 -0.5252 -0.7393
  686MOL0     C92477   8.729   8.462   6.654 -0.2070 -0.4191  0.1448
  686MOL0     O92478   8.701   8.482   6.518 -0.1299  0.4868  0.4998
  686MOL0     C92479   8.583   8.533   6.472 -0.5586 -0.3063  0.7867
  686MOL0     C92480   8.460   8.477   6.510  0.1826 -0.0314  0.7640
  686MOL0     C92481   8.337   8.525   6.449  0.2643  0.2514  0.2906
  686MOL0     C92482   8.335   8.623   6.351 -0.2901  0.0939  0.1489
  686MOL0     O92483   8.219   8.666   6.281 -0.7222 -0.1098 -0.2614
  686MOL0     C92484   8.131   8.739   6.362  0.9163  0.0162  0.0261
  686MOL0     C92485   7.985   8.693   6.333 -0.6498  0.3028  0.1551
  686MOL0     C92486   7.966   8.546   6.393  0.7719 -0.4771 -0.5788
  686MOL0     C92487   7.808   8.515   6.379  0.4371  0.0717 -0.5901
  686MOL0     C92488   7.756   8.360   6.385 -0.7415  0.5519  0.3186
  686MOL0     C92489   7.844   8.267   6.295 -0.7632  0.6817  0.2994
  686MOL0     C92490   7.853   8.315   6.143  0.5010  0.6648 -0.1057
  686MOL0     C92491   7.716   8.343   6.070 -0.5673  0.5464  0.2699
  686MOL0     N92492   7.623   8.232   6.071 -0.1345 -0.2532  0.7947
  686MOL0     C92493   7.482   8.248   6.077  0.7894  0.3643 -0.0197
  686MOL0     C92494   7.432   8.121   6.048  0.8220 -0.0974 -0.6939
  686MOL0     C92495   7.284   8.068   6.043 -0.0698  0.2973 -0.0943
  686MOL0     C92496   7.275   7.923   5.985  0.0095  0.8000  0.4846
  686MOL0     C92497   7.129   7.869   6.008 -0.6489  0.3616 -0.1922
  686MOL0     C92498   7.029   7.930   5.909 -0.4579  0.1037 -0.8181
  686MOL0     O92499   6.904   7.867   5.935 -0.0556 -0.2770 -0.9447
  686MOL0     C92500   6.806   7.878   5.838 -0.0502 -0.2161  0.3759
  686MOL0     C92501   6.688   7.941   5.878  0.2554  0.5029 -0.8011
  686MOL0     C92502   6.575   7.952   5.797  0.3491 -0.5332 -0.2569
  686MOL0     C92503   6.471   8.056   5.838 -0.3222 -0.4284 -0.0715
  686MOL0     C92504   6.579   7.894   5.669  0.8845 -0.2327  0.3795
  686MOL0     C92505   6.465   7.907   5.575  0.5159  0.2108 -0.0402
  686MOL0     O92506   6.499   7.932   5.448  0.5628  0.1186  0.6053
  686MOL0     C92507   6.399   7.938   5.349  1.3554  0.0617  0.1378
  686MOL0     C92508   6.283   8.009   5.354  0.5221  0.7962  0.0644
  686MOL0     C92509   6.196   8.005   5.250 -0.1387 -0.1324  0.6976
  686MOL0     C92510   6.231   7.943   5.132 -0.2968  0.6978  0.3323
  686MOL0     O92511   6.139   7.955   5.027 -0.6377  0.4481  0.2702
  686MOL0     C92512   6.212   7.960   4.899  0.5348  0.4290 -0.0348
  686MOL0     C92513   6.100   7.962   4.797 -0.0737  0.4093 -0.0510
  686MOL0     C92514   6.028   7.823   4.777 -0.1003  0.1113 -0.3488
  686MOL0     C92515   6.114   7.710   4.721 -0.5049 -0.9478  0.2171
  686MOL0     C92516   6.048   7.569   4.701  0.2855 -0.3070  0.2251
  686MOL0     C92517   6.057   7.484   4.824 -0.5604 -0.3783 -0.1712
  686MOL0     C92518   5.986   7.346   4.807 -0.1667 -0.3106 -0.2648
  686MOL0     C92519   6.081   7.232   4.766 -0.3652 -0.2216  0.4746
  686MOL0    Cl92520   5.997   7.085   4.708  0.1555  0.2187  0.3802
  686MOL0     C92521   6.354   7.868   5.125  0.0462 -0.2961  0.4607
  686MOL0     C92522   6.439   7.875   5.234 -0.0237  0.3942  0.7219
  686MOL0     O92523   6.351   7.896   5.615 -0.3045  0.7807 -0.2969
  686MOL0     C92524   6.703   7.838   5.621 -0.4354  0.1682  0.2446
  686MOL0     C92525   6.812   7.828   5.708  0.1285 -0.3142 -0.3794
  686MOL0     N92526   7.537   8.038   6.050  0.5087 -0.3739 -0.0493
  686MOL0     N92527   7.650   8.104   6.075 -0.0764  0.3680  0.1606
  686MOL0     C92528   8.465   8.680   6.313  0.4221 -0.4591 -0.0870
  686MOL0     C92529   8.581   8.631   6.371 -0.8913 -0.3578  0.8277
  686MOL0     C92530   8.870   8.410   6.679  0.4866 -0.4407 -0.0504
  686MOL0     C92531   8.971   8.439   6.593 -0.2489  0.6473  0.4810
  686MOL0     C92532   9.107   8.417   6.618  0.7124  0.3729 -0.0219
  686MOL0     C92533   9.135   8.371   6.748 -0.4716  0.5557 -0.0082
  686MOL0     O92534   9.264   8.357   6.809 -0.3567  0.1593  0.3156
  686MOL0     C92535   9.373   8.385   6.728  0.1990  0.0706  0.5567
  686MOL0     C92536   9.498   8.383   6.800  0.4748 -0.0835 -0.1055
  686MOL0     C92537   9.511   8.505   6.890  0.2139 -0.5268 -0.3910
  686MOL0     C92538   9.484   8.479   7.031  0.2908 -0.0804  0.1522
  686MOL0     C92539   9.535   8.594   7.104 -0.8374  0.1696  0.1582
  686MOL0     C92540   9.581   8.687   7.170 -0.2547 -0.4461  0.4967
  686MOL0     C92541   9.032   8.348   6.842 -0.7248  0.3386  0.6320
  686MOL0     C92542   8.904   8.363   6.807  0.3305 -0.3563  1.0786
  686MOL0     H92543   8.462   8.392   6.578  0.1127 -1.8184 -1.3629
  686MOL0     H92544   8.246   8.471   6.474  1.8728 -1.8600  2.0007
  686MOL0     H92545   8.152   8.727   6.469  2.1191 -1.8806 -0.3635
  686MOL0     H92546   8.139   8.842   6.327  3.6550  0.4046  1.5042
  686MOL0     H92547   7.911   8.753   6.387  0.4333  2.9940 -1.2065
  686MOL0     H92548   7.962   8.680   6.227  0.2819  0.0667 -0.0260
  686MOL0     H92549   8.009   8.472   6.325  2.0195  1.1015 -1.5917
  686MOL0     H92550   8.001   8.535   6.496 -1.2678  1.2091  0.3654
  686MOL0     H92551   7.763   8.567   6.463  0.1722 -1.6290  0.3636
  686MOL0     H92552   7.783   8.552   6.279  1.0117 -0.8336 -1.0804
  686MOL0     H92553   7.748   8.330   6.490 -0.1607 -0.3732  0.1115
  686MOL0     H92554   7.657   8.345   6.343 -0.0659 -1.4503 -0.6981
  686MOL0     H92555   7.942   8.260   6.342 -1.4956 -0.1967  1.7684
  686MOL0     H92556   7.808   8.164   6.300 -3.8018  1.6745  0.8637
  686MOL0     H92557   7.910   8.408   6.141  0.9988  0.3516 -1.5171
  686MOL0     H92558   7.905   8.230   6.097 -0.4015 -0.3336  0.6580
  686MOL0     H92559   7.739   8.351   5.963  1.8869 -2.4484  0.4137
  686MOL0     H92560   7.661   8.426   6.114 -2.0293  1.0743 -2.3428
  686MOL0     H92561   7.422   8.334   6.102  0.3581  0.0652 -0.0269
  686MOL0     H92562   7.241   8.075   6.144  2.7876  0.0542  1.2209
  686MOL0     H92563   7.221   8.138   5.986 -2.5870  1.3625  3.5619
  686MOL0     H92564   7.346   7.855   6.032  0.7677  0.7285 -0.7422
  686MOL0     H92565   7.294   7.933   5.878 -0.7332  2.4437  0.4780
  686MOL0     H92566   7.100   7.890   6.112  1.0602  0.5504  0.2669
  686MOL0     H92567   7.128   7.760   5.997  1.0180  0.4071 -0.9865
  686MOL0     H92568   7.058   7.925   5.804  0.1910  2.7479 -0.8491
  686MOL0     H92569   7.004   8.036   5.918 -2.2488 -0.4138  0.9564
  686MOL0     H92570   6.692   7.993   5.974 -0.6636  0.5104 -0.7585
  686MOL0     H92571   6.509   8.151   5.877 -0.7771 -0.5422  0.6609
  686MOL0     H92572   6.414   8.084   5.750 -0.4122 -0.5195 -0.0420
  686MOL0     H92573   6.405   8.014   5.914 -1.3885 -1.5810 -1.5953
  686MOL0     H92574   6.259   8.054   5.450 -0.3134 -0.6398  0.5601
  686MOL0     H92575   6.105   8.064   5.254  0.0682  0.2117  0.4821
  686MOL0     H92576   6.269   8.053   4.897 -0.9614  1.4557  1.5566
  686MOL0     H92577   6.278   7.877   4.874  1.9054  1.7583 -0.9635
  686MOL0     H92578   6.023   8.033   4.829  0.1403  1.3452 -1.5039
  686MOL0     H92579   6.148   7.989   4.702  0.3537  0.5040  0.1867
  686MOL0     H92580   5.935   7.840   4.722 -0.8754 -1.0879  0.5487
  686MOL0     H92581   5.993   7.789   4.875  3.3221 -0.3143  0.8588
  686MOL0     H92582   6.141   7.740   4.619  0.9466 -1.9324  0.2818
  686MOL0     H92583   6.197   7.697   4.790 -0.7395  1.1703  0.9662
  686MOL0     H92584   6.102   7.522   4.618  0.0241  0.6025 -0.4786
  686MOL0     H92585   5.943   7.584   4.675  0.6952  1.3794 -0.5937
  686MOL0     H92586   6.163   7.475   4.850 -0.7481 -0.6681  0.5088
  686MOL0     H92587   5.997   7.535   4.900 -0.8529 -0.7954 -0.1219
  686MOL0     H92588   5.898   7.344   4.742 -0.2288  2.0702 -0.3389
  686MOL0     H92589   5.940   7.326   4.904 -4.0230  1.5916 -1.5072
  686MOL0     H92590   6.148   7.209   4.849 -1.1335  2.6394  2.0139
  686MOL0     H92591   6.134   7.264   4.676 -1.2124  0.9590  0.3743
  686MOL0     H92592   6.377   7.803   5.040  0.0742  0.5074 -0.1599
  686MOL0     H92593   6.540   7.836   5.233  0.1962  0.9393  1.2721
  686MOL0     H92594   6.712   7.787   5.526  0.8451  1.5510 -0.4308
  686MOL0     H92595   6.909   7.789   5.679  0.9257  1.2611  0.0737
  686MOL0     H92596   8.469   8.736   6.220 -0.5662  1.7059  1.0933
  686MOL0     H92597   8.681   8.671   6.352 -0.6384  0.0745  2.8602
  686MOL0     H92598   8.942   8.472   6.493 -2.0002  0.2209  0.8182
  686MOL0     H92599   9.188   8.451   6.555  0.5498 -0.7666 -0.8733
  686MOL0     H92600   9.377   8.304   6.654 -1.1482 -0.7158  1.3176
  686MOL0     H92601   9.374   8.485   6.682  1.5072  0.5480  1.5511
  686MOL0     H92602   9.571   8.390   6.718  0.8503  1.0638  0.3151
  686MOL0     H92603   9.501   8.286   6.852 -4.1594 -1.3219 -1.6282
  686MOL0     H92604   9.449   8.586   6.848 -0.3675 -1.3165 -1.0956
  686MOL0     H92605   9.614   8.539   6.872  1.0663 -2.9195 -0.3649
  686MOL0     H92606   9.543   8.392   7.061  1.8599  1.0115  0.2997
  686MOL0     H92607   9.380   8.458   7.059 -0.7426  5.0537  1.0852
  686MOL0     H92608   9.618   8.762   7.236  4.4519 -0.0180 -2.1888
  686MOL0     H92609   9.064   8.324   6.942  0.2633 -1.8487 -0.1453
  686MOL0     H92610   8.816   8.340   6.866 -0.2254 -0.2218  0.3201
  687MOL0     O92611   7.635   5.726   3.574 -0.2764  0.3900  0.1964
  687MOL0     C92612   7.723   5.758   3.647 -0.2105  0.2079  0.2184
  687MOL0     O92613   7.706   5.768   3.781  0.2466 -0.3931 -0.5085
  687MOL0     C92614   7.603   5.686   3.835 -0.2105  0.4983 -0.1520
  687MOL0     C92615   7.493   5.755   3.904  0.9640  0.6366  0.3265
  687MOL0     C92616   7.393   5.669   3.961  0.6139  0.0541  0.5303
  687MOL0     C92617   7.398   5.525   3.957 -0.0107  0.5452 -1.0364
  687MOL0     O92618   7.296   5.458   4.015  0.0660  0.3371 -0.1331
  687MOL0     C92619   7.251   5.345   3.933  1.2600 -0.6430  0.6645
  687MOL0     C92620   7.114   5.298   3.974  1.3561  0.1417 -0.3522
  687MOL0     C92621   7.031   5.416   4.027  1.1519 -0.9638  0.5160
  687MOL0     C92622   6.877   5.382   4.016 -0.1653  0.4732 -1.1349
  687MOL0     C92623   6.831   5.274   4.120 -0.2825  0.7253 -0.2340
  687MOL0     C92624   6.672   5.269   4.120  0.0092 -0.0182  0.6150
  687MOL0     C92625   6.629   5.165   4.233 -0.0079 -0.2693  0.9232
  687MOL0     C92626   6.493   5.194   4.298 -0.2556  0.4263  0.2895
  687MOL0     N92627   6.387   5.194   4.193  0.8606  0.4473 -0.4163
  687MOL0     C92628   6.336   5.080   4.141 -0.1389 -0.1440  0.8421
  687MOL0     C92629   6.244   5.126   4.046 -0.3817 -0.4822 -0.0423
  687MOL0     C92630   6.172   5.039   3.951 -0.3788  0.6026  0.6810
  687MOL0     C92631   6.030   5.019   3.984  0.4658 -0.3135  0.5980
  687MOL0     C92632   5.954   4.914   3.895  0.7009  0.1117  0.6431
  687MOL0     C92633   5.808   4.912   3.899 -0.0969 -0.0233 -0.0584
  687MOL0     O92634   5.759   4.892   4.032 -0.1050 -0.4562 -0.3239
  687MOL0     C92635   5.623   4.878   4.061 -0.2060 -0.2774  0.1737
  687MOL0     C92636   5.590   4.866   4.195 -1.2757  0.9388  0.0155
  687MOL0     C92637   5.462   4.837   4.246 -0.4974  0.1270  0.5770
  687MOL0     C92638   5.442   4.831   4.397 -0.8676  0.6264 -0.0720
  687MOL0     C92639   5.359   4.828   4.146 -0.1894  0.4718  0.2854
  687MOL0     C92640   5.216   4.803   4.184 -0.3929  0.5590  0.6048
  687MOL0     O92641   5.175   4.886   4.283 -0.1899  0.2251  0.3775
  687MOL0     C92642   5.039   4.890   4.304 -0.7088 -0.0618 -0.4482
  687MOL0     C92643   4.962   4.990   4.248 -0.4051 -0.9107 -0.0297
  687MOL0     C92644   4.832   5.012   4.298 -0.1669  1.4306 -0.3073
  687MOL0     C92645   4.766   4.925   4.394  0.3004 -0.3111 -0.4788
  687MOL0     O92646   4.638   4.948   4.447 -0.0983 -0.3674 -0.6275
  687MOL0     C92647   4.558   5.049   4.387 -0.1773 -0.2269  0.6896
  687MOL0     C92648   4.418   5.054   4.443  0.0770  0.4362  0.8341
  687MOL0     C92649   4.429   5.073   4.592 -0.8263  0.5795  0.5317
  687MOL0     C92650   4.294   5.110   4.651  0.0413 -1.0737 -0.4555
  687MOL0     C92651   4.314   5.145   4.804 -0.6590 -0.1333  0.0902
  687MOL0     C92652   4.195   5.202   4.884 -0.5901 -0.6060 -0.0891
  687MOL0     C92653   4.076   5.121   4.926  0.1275 -0.3199 -0.0717
  687MOL0     C92654   3.962   5.222   4.979  0.2353  0.3929  0.0127
  687MOL0    Cl92655   3.803   5.129   4.991 -0.3934 -0.1895  0.1698
  687MOL0     C92656   4.847   4.823   4.440  0.5564  0.2366 -0.4375
  687MOL0     C92657   4.976   4.799   4.399 -0.8689 -0.8849  0.2758
  687MOL0     O92658   5.142   4.723   4.122  0.2890  0.6528  0.3065
  687MOL0     C92659   5.395   4.841   4.012  0.5591  0.3712  0.1278
  687MOL0     C92660   5.526   4.866   3.966 -0.2510  0.6710  0.2229
  687MOL0     N92661   6.255   5.269   4.047  0.3156  0.5613 -0.3989
  687MOL0     N92662   6.334   5.308   4.144  0.2955  0.0432  0.2080
  687MOL0     C92663   7.502   5.463   3.897 -0.4104 -0.2777  0.5041
  687MOL0     C92664   7.599   5.541   3.830 -0.0297  0.8898  0.5489
  687MOL0     C92665   7.851   5.810   3.588  0.4871  0.2745 -0.3330
  687MOL0     C92666   7.943   5.876   3.667  0.0075 -0.0642 -0.2603
  687MOL0     C92667   8.062   5.925   3.615 -0.5163  0.6175  0.8095
  687MOL0     C92668   8.103   5.902   3.480 -0.0603 -0.1672 -0.6193
  687MOL0     O92669   8.223   5.937   3.432  0.6010  0.4130 -0.6292
  687MOL0     C92670   8.334   5.897   3.513 -1.3227  0.9775 -0.7060
  687MOL0     C92671   8.456   5.862   3.435  0.5746  0.0789  0.0782
  687MOL0     C92672   8.502   5.977   3.331  0.5841 -0.1215 -0.2589
  687MOL0     C92673   8.546   6.107   3.395  0.2717  0.1428  0.8336
  687MOL0     C92674   8.592   6.196   3.295  0.8827  0.4358  0.3901
  687MOL0     C92675   8.632   6.279   3.216  0.1941 -0.4686 -0.5440
  687MOL0     C92676   8.008   5.824   3.410  0.3959  0.2404  0.7744
  687MOL0     C92677   7.893   5.779   3.462  0.9015  0.1780  0.7539
  687MOL0     H92678   7.483   5.863   3.899  1.1664  0.7035  1.3124
  687MOL0     H92679   7.309   5.713   4.013 -0.1602 -2.9567  2.0746
  687MOL0     H92680   7.234   5.387   3.833 -2.7673  2.5404  2.3893
  687MOL0     H92681   7.322   5.262   3.925  0.7377 -0.9824 -0.6646
  687MOL0     H92682   7.065   5.248   3.890 -0.1953  1.4241 -0.2520
  687MOL0     H92683   7.119   5.222   4.053 -2.0226  1.3389  1.1928
  687MOL0     H92684   7.066   5.440   4.128  3.5184 -0.6974 -0.3093
  687MOL0     H92685   7.054   5.500   3.962  3.1714 -1.5608  0.3929
  687MOL0     H92686   6.819   5.474   4.020 -1.8393 -0.4561 -2.5043
  687MOL0     H92687   6.861   5.346   3.914 -3.0867  0.3911 -0.7315
  687MOL0     H92688   6.868   5.175   4.092  0.1532  0.0759  2.4228
  687MOL0     H92689   6.865   5.313   4.216  0.9348  0.4812 -0.5501
  687MOL0     H92690   6.634   5.366   4.155 -1.2987  0.6982 -2.4994
  687MOL0     H92691   6.636   5.242   4.021 -0.2533 -2.3680  1.2876
  687MOL0     H92692   6.622   5.062   4.198 -2.5992  0.1744 -0.1000
  687MOL0     H92693   6.704   5.174   4.312 -0.0980 -2.7263  1.3902
  687MOL0     H92694   6.496   5.296   4.337 -0.7839  0.0663  1.3152
  687MOL0     H92695   6.451   5.126   4.373 -0.9559 -0.0948 -0.5501
  687MOL0     H92696   6.374   4.981   4.164  0.8553 -0.2208 -0.9749
  687MOL0     H92697   6.169   5.079   3.849 -2.3786  1.0112  0.8556
  687MOL0     H92698   6.218   4.942   3.932 -0.8411  0.4494  0.3233
  687MOL0     H92699   5.974   5.113   3.992 -1.2471 -1.3783  1.9540
  687MOL0     H92700   6.031   4.975   4.084  0.0860 -1.4469  0.1335
  687MOL0     H92701   5.990   4.814   3.919 -0.5806 -0.8391 -1.0953
  687MOL0     H92702   5.987   4.927   3.791  0.8618  0.0148  0.6833
  687MOL0     H92703   5.779   4.835   3.827 -0.1242  2.2679 -2.6810
  687MOL0     H92704   5.769   5.008   3.863  0.0821 -0.4800 -1.5161
  687MOL0     H92705   5.666   4.876   4.272 -1.2497  0.5690  0.0392
  687MOL0     H92706   5.524   4.872   4.457  0.6974 -0.6163 -1.2707
  687MOL0     H92707   5.353   4.887   4.426  0.1908  2.3606 -0.0415
  687MOL0     H92708   5.420   4.727   4.424 -3.4445  0.7507 -1.3439
  687MOL0     H92709   5.007   5.065   4.184  2.0882 -1.3035  1.1460
  687MOL0     H92710   4.778   5.100   4.264  0.9149  3.1052  1.9409
  687MOL0     H92711   4.603   5.149   4.393  0.7196 -0.6619  1.6186
  687MOL0     H92712   4.535   5.032   4.282 -4.0264  0.4516  1.2653
  687MOL0     H92713   4.358   5.126   4.387 -0.8013 -1.4958 -0.8510
  687MOL0     H92714   4.376   4.954   4.432 -1.0772  0.7651  1.9820
  687MOL0     H92715   4.503   5.147   4.621 -1.2682  0.7883  1.1409
  687MOL0     H92716   4.471   4.978   4.629 -2.2903 -1.0640 -1.7449
  687MOL0     H92717   4.246   5.197   4.605  0.2927 -0.6178  0.1295
  687MOL0     H92718   4.218   5.032   4.659 -1.8594  0.7300 -0.0665
  687MOL0     H92719   4.401   5.210   4.809 -0.2372 -0.7733  2.2552
  687MOL0     H92720   4.339   5.057   4.864  0.0041  0.1026  0.1647
  687MOL0     H92721   4.246   5.244   4.971 -2.2614  1.7626 -0.1735
  687MOL0     H92722   4.169   5.292   4.828 -0.6700 -0.5504  0.0361
  687MOL0     H92723   4.099   5.062   5.015  0.1441  3.0461  2.3180
  687MOL0     H92724   4.047   5.071   4.833  0.6166 -0.7412 -0.0019
  687MOL0     H92725   3.943   5.310   4.918 -2.2648  0.4493  0.7742
  687MOL0     H92726   3.997   5.266   5.072  2.6035  0.0940 -0.6746
  687MOL0     H92727   4.806   4.750   4.509  0.4638 -0.9484 -1.7070
  687MOL0     H92728   5.035   4.719   4.442  0.9436  1.4027  2.3343
  687MOL0     H92729   5.313   4.836   3.941  0.1946  0.4992  0.5338
  687MOL0     H92730   5.554   4.869   3.861 -1.2396  0.6406 -0.0503
  687MOL0     H92731   7.496   5.355   3.908 -1.5485 -0.3790 -0.8108
  687MOL0     H92732   7.683   5.489   3.787 -1.3643 -1.7947  0.9767
  687MOL0     H92733   7.923   5.871   3.774  0.7418  0.5477 -0.0817
  687MOL0     H92734   8.130   5.973   3.685 -0.3583 -0.6581  1.5470
  687MOL0     H92735   8.362   5.977   3.583  2.2345 -0.2566 -0.5336
  687MOL0     H92736   8.306   5.809   3.571  1.2182  0.1778 -0.5692
  687MOL0     H92737   8.452   5.765   3.384  1.1247  1.5686 -3.0540
  687MOL0     H92738   8.545   5.848   3.497 -0.8113 -1.3651  1.8700
  687MOL0     H92739   8.419   5.990   3.261 -0.7509  0.9563  1.4324
  687MOL0     H92740   8.593   5.941   3.282 -0.4429 -1.2394 -1.4187
  687MOL0     H92741   8.634   6.094   3.458  0.9074 -1.1026 -0.2541
  687MOL0     H92742   8.459   6.148   3.447  0.8098  0.9217  1.1178
  687MOL0     H92743   8.672   6.360   3.158  3.4801  0.2808  2.4666
  687MOL0     H92744   8.036   5.799   3.308 -1.1571 -0.9119  0.5924
  687MOL0     H92745   7.848   5.694   3.411  0.9146 -0.3195  1.5388
  688MOL0     O92746   7.150   7.303   1.719 -0.2122 -0.6209 -0.2010
  688MOL0     C92747   7.141   7.207   1.645 -0.7775  0.1585  0.3428
  688MOL0     O92748   7.047   7.187   1.545  0.2485 -0.1905 -0.5697
  688MOL0     C92749   6.922   7.248   1.563  0.7803  0.2423  0.7188
  688MOL0     C92750   6.813   7.190   1.629  0.3351 -0.9786 -0.9138
  688MOL0     C92751   6.693   7.256   1.635  0.1416  0.3933 -0.3170
  688MOL0     C92752   6.670   7.385   1.574  0.0428 -1.2287 -0.8109
  688MOL0     O92753   6.550   7.449   1.574 -0.2182 -0.4383 -0.7691
  688MOL0     C92754   6.459   7.408   1.674 -0.0817 -0.8532  0.3143
  688MOL0     C92755   6.334   7.497   1.661  0.3307 -0.3358 -0.7536
  688MOL0     C92756   6.350   7.625   1.748  0.0379  0.3413  0.2902
  688MOL0     C92757   6.320   7.611   1.900 -0.1681 -0.5649  0.2882
  688MOL0     C92758   6.170   7.589   1.913  0.1508  0.6694 -0.1838
  688MOL0     C92759   6.080   7.711   1.896  0.5201 -0.0578 -0.2693
  688MOL0     C92760   5.934   7.692   1.930  0.3058  0.0124 -0.7505
  688MOL0     C92761   5.893   7.791   2.044 -0.7743 -0.2440 -0.1559
  688MOL0     N92762   5.743   7.778   2.069 -0.0885  0.4481  0.3922
  688MOL0     C92763   5.643   7.845   2.004 -0.8569 -0.2706  0.2525
  688MOL0     C92764   5.531   7.797   2.060  0.3120 -0.4592  1.5662
  688MOL0     C92765   5.386   7.807   2.018  1.1034 -0.4207 -0.0663
  688MOL0     C92766   5.279   7.843   2.121 -0.0361  0.4335 -0.8197
  688MOL0     C92767   5.258   7.724   2.221 -0.2100  0.1755 -0.6926
  688MOL0     C92768   5.133   7.733   2.306 -0.0736  0.0375  0.7828
  688MOL0     O92769   5.011   7.778   2.230 -0.3931 -0.4341 -0.2864
  688MOL0     C92770   4.897   7.758   2.304  0.0464  0.3084 -0.5440
  688MOL0     C92771   4.890   7.730   2.437  0.0079 -0.9885 -0.6003
  688MOL0     C92772   4.765   7.712   2.502  0.0103  0.3927 -0.0999
  688MOL0     C92773   4.756   7.700   2.649 -0.8015  0.6027 -1.1296
  688MOL0     C92774   4.650   7.714   2.429  0.3239  0.2653  0.3734
  688MOL0     C92775   4.512   7.703   2.483  0.3900 -0.6495  1.0062
  688MOL0     O92776   4.421   7.791   2.433 -0.3033 -1.2008  0.0573
  688MOL0     C92777   4.301   7.787   2.505  0.7479 -0.4293  0.0836
  688MOL0     C92778   4.183   7.757   2.438 -0.5563 -0.3854  0.5501
  688MOL0     C92779   4.063   7.745   2.503 -0.1915  1.0182 -0.5149
  688MOL0     C92780   4.055   7.759   2.640 -0.0763  0.3627  0.3832
  688MOL0     O92781   3.924   7.745   2.685 -0.5427 -0.5272  0.2088
  688MOL0     C92782   3.902   7.768   2.829  0.7493  0.0504 -0.0210
  688MOL0     C92783   3.747   7.775   2.860  0.1384  0.4394  1.0112
  688MOL0     C92784   3.712   7.735   3.011 -0.6971 -0.2645  0.7958
  688MOL0     C92785   3.565   7.775   3.034  0.8564 -0.0963  0.4826
  688MOL0     C92786   3.512   7.728   3.171  0.5884  0.6671 -0.1340
  688MOL0     C92787   3.488   7.576   3.176 -0.1729 -0.8090 -0.1264
  688MOL0     C92788   3.433   7.523   3.322  0.2628  0.2255  0.5161
  688MOL0     C92789   3.411   7.363   3.316  0.0917 -0.1609 -0.1286
  688MOL0    Cl92790   3.356   7.314   3.480  0.5301  0.2521 -0.3449
  688MOL0     C92791   4.171   7.793   2.708 -0.1475 -0.2493  0.2159
  688MOL0     C92792   4.296   7.806   2.644 -0.3840 -0.2080  0.3182
  688MOL0     O92793   4.484   7.606   2.547  0.3842 -0.5222  0.3770
  688MOL0     C92794   4.654   7.740   2.296  0.2998 -0.6151 -0.6953
  688MOL0     C92795   4.776   7.765   2.229  0.3514 -0.8113  0.3133
  688MOL0     N92796   5.563   7.697   2.147 -0.0584  0.3071 -0.1142
  688MOL0     N92797   5.688   7.679   2.146  0.3631 -0.5785  0.0594
  688MOL0     C92798   6.779   7.446   1.504  1.3840  0.9478  0.9741
  688MOL0     C92799   6.897   7.375   1.504  0.5156 -1.2720 -0.5782
  688MOL0     C92800   7.243   7.097   1.660  0.5976 -0.0226 -0.4183
  688MOL0     C92801   7.358   7.112   1.729  0.0922  0.0901  0.0876
  688MOL0     C92802   7.461   7.016   1.722 -0.0711 -0.5525 -0.1390
  688MOL0     C92803   7.444   6.896   1.652 -0.1802 -0.8449 -0.1207
  688MOL0     O92804   7.544   6.799   1.643 -0.1118 -0.2452  0.0488
  688MOL0     C92805   7.675   6.833   1.700  0.2590 -0.2004  0.9956
  688MOL0     C92806   7.779   6.728   1.638 -0.2473 -0.5571  0.1473
  688MOL0     C92807   7.898   6.713   1.730  0.3169 -0.4894 -0.1648
  688MOL0     C92808   7.989   6.591   1.696  0.8040  0.4609  0.2501
  688MOL0     C92809   8.115   6.635   1.640  1.3014 -0.2331  0.8151
  688MOL0     C92810   8.208   6.702   1.592  0.0525  0.3194 -1.2022
  688MOL0     C92811   7.319   6.871   1.595 -0.1468 -1.0278  0.0384
  688MOL0     C92812   7.221   6.973   1.595 -0.1043 -0.4614  0.4745
  688MOL0     H92813   6.826   7.100   1.688  1.2876 -0.2397  0.0417
  688MOL0     H92814   6.614   7.217   1.699 -0.9497  2.7356 -0.1217
  688MOL0     H92815   6.438   7.302   1.659  1.8564 -1.3366  0.7123
  688MOL0     H92816   6.504   7.414   1.774  2.4957  3.0206 -0.8687
  688MOL0     H92817   6.319   7.525   1.556 -2.9868 -0.9135 -0.5484
  688MOL0     H92818   6.243   7.445   1.693  1.1711 -0.2479  2.0811
  688MOL0     H92819   6.454   7.659   1.745  0.1190  0.3437  2.1184
  688MOL0     H92820   6.293   7.704   1.698  4.0661  3.3437 -0.0973
  688MOL0     H92821   6.375   7.532   1.951  0.6447 -0.0288  0.2688
  688MOL0     H92822   6.352   7.699   1.958 -1.8961 -0.4838  1.1937
  688MOL0     H92823   6.128   7.502   1.862  0.8011  0.3239 -0.1439
  688MOL0     H92824   6.157   7.571   2.021 -0.0930  0.5197 -0.2377
  688MOL0     H92825   6.117   7.785   1.967  0.6282 -1.4473  1.1701
  688MOL0     H92826   6.084   7.744   1.792 -3.4919 -0.3152 -0.6867
  688MOL0     H92827   5.862   7.693   1.848  1.6324 -1.4228 -1.9983
  688MOL0     H92828   5.922   7.587   1.960 -2.1047  0.3274 -0.4508
  688MOL0     H92829   5.912   7.897   2.027  1.5736 -0.7745 -1.2471
  688MOL0     H92830   5.954   7.756   2.129 -0.8265 -1.3430 -0.5508
  688MOL0     H92831   5.648   7.926   1.932  0.7058 -1.2017 -0.7692
  688MOL0     H92832   5.395   7.887   1.943  1.6106  0.1373  0.5731
  688MOL0     H92833   5.355   7.719   1.962  1.3495 -0.7185  0.2611
  688MOL0     H92834   5.187   7.851   2.063  0.8972  0.0650 -2.4214
  688MOL0     H92835   5.293   7.929   2.187  0.4281 -0.7028  0.6220
  688MOL0     H92836   5.338   7.712   2.295 -0.3343  0.4604 -0.5116
  688MOL0     H92837   5.228   7.632   2.169 -0.5387 -0.6234  0.8359
  688MOL0     H92838   5.159   7.787   2.398 -2.5365 -2.1834  2.9785
  688MOL0     H92839   5.115   7.629   2.336 -0.6565  0.1760  0.9188
  688MOL0     H92840   4.978   7.728   2.502 -2.5387 -1.8127  3.1644
  688MOL0     H92841   4.676   7.759   2.694 -1.7143 -0.4550 -1.3277
  688MOL0     H92842   4.749   7.595   2.680  0.6178  1.0152  0.7836
  688MOL0     H92843   4.846   7.728   2.705  0.3848 -0.0395 -2.6588
  688MOL0     H92844   4.180   7.753   2.330  0.8074  1.7519  0.3661
  688MOL0     H92845   3.977   7.734   2.438 -0.3150 -0.1178 -0.1888
  688MOL0     H92846   3.954   7.687   2.881  0.6048  0.8024  1.3539
  688MOL0     H92847   3.953   7.860   2.857 -0.9039  1.5848 -1.7630
  688MOL0     H92848   3.719   7.880   2.851  2.2043  1.1408  2.0332
  688MOL0     H92849   3.685   7.718   2.790  0.6048  0.6125  0.4440
  688MOL0     H92850   3.780   7.779   3.085 -1.0796  0.7252  0.5732
  688MOL0     H92851   3.721   7.626   3.016 -1.2076 -0.3404  0.1194
  688MOL0     H92852   3.543   7.881   3.018 -0.2163 -0.2251  1.0443
  688MOL0     H92853   3.495   7.729   2.965 -0.6317  1.3109  0.9989
  688MOL0     H92854   3.415   7.768   3.203 -1.1157 -2.6496 -0.7031
  688MOL0     H92855   3.576   7.762   3.252  1.8150 -2.7113  0.4573
  688MOL0     H92856   3.409   7.539   3.110 -1.5765 -0.8420  1.5160
  688MOL0     H92857   3.586   7.533   3.152  1.9753  4.4189 -2.4057
  688MOL0     H92858   3.348   7.579   3.360  1.7405  1.7322  1.7284
  688MOL0     H92859   3.516   7.540   3.392 -0.4618  1.2969  1.1332
  688MOL0     H92860   3.501   7.307   3.290  2.3585  2.6042  1.2710
  688MOL0     H92861   3.340   7.356   3.233  1.0664 -3.4772 -0.8241
  688MOL0     H92862   4.174   7.811   2.815 -1.8170  0.3614  0.1915
  688MOL0     H92863   4.380   7.845   2.700  0.5418 -1.5445 -0.1050
  688MOL0     H92864   4.563   7.746   2.237 -0.8522  2.2016  1.1815
  688MOL0     H92865   4.768   7.785   2.123 -1.4627 -2.0314  0.1748
  688MOL0     H92866   6.767   7.533   1.440  1.4018 -1.5172 -2.6939
  688MOL0     H92867   6.978   7.433   1.461 -1.3983  2.2939  0.2683
  688MOL0     H92868   7.367   7.203   1.787  2.2098  0.9708 -1.5115
  688MOL0     H92869   7.550   7.042   1.778 -0.6527  0.0843  0.5015
  688MOL0     H92870   7.705   6.937   1.681 -2.9182  0.6131 -0.1409
  688MOL0     H92871   7.671   6.826   1.809  1.0406  0.2120  1.0612
  688MOL0     H92872   7.809   6.765   1.540  0.3585  1.7958  1.1333
  688MOL0     H92873   7.735   6.628   1.627  1.0492 -1.1010 -0.2048
  688MOL0     H92874   7.851   6.707   1.829 -0.8671  0.9109 -0.6069
  688MOL0     H92875   7.958   6.804   1.726 -0.4818  0.0126 -2.6713
  688MOL0     H92876   7.956   6.518   1.622  0.6989 -0.2447  0.9816
  688MOL0     H92877   8.008   6.543   1.792 -1.7742  0.1049  0.6439
  688MOL0     H92878   8.293   6.749   1.547  0.9316 -1.4056 -1.4432
  688MOL0     H92879   7.314   6.774   1.546  0.8923 -1.0598 -0.0457
  688MOL0     H92880   7.132   6.953   1.536 -0.1360  0.7494  0.0782
  689MOL0     O92881   5.353   9.467   8.099  0.1243  0.2163 -0.3019
  689MOL0     C92882   5.445   9.419   8.034  0.0121 -0.5030 -0.3651
  689MOL0     O92883   5.438   9.330   7.916  0.5543 -0.3965  0.0783
  689MOL0     C92884   5.307   9.315   7.872 -0.2562 -0.2904 -0.8481
  689MOL0     C92885   5.253   9.392   7.775  0.0226  0.1102 -0.2986
  689MOL0     C92886   5.115   9.375   7.736 -0.4545 -0.1049 -0.0539
  689MOL0     C92887   5.033   9.287   7.804  0.5945  0.6282 -0.3880
  689MOL0     O92888   4.900   9.279   7.766  0.6409 -0.2604 -0.6602
  689MOL0     C92889   4.807   9.198   7.828  1.0308 -0.3070 -0.3502
  689MOL0     C92890   4.666   9.212   7.771 -0.2128 -0.0123  0.2550
  689MOL0     C92891   4.549   9.153   7.848  0.1044  0.8464 -0.2125
  689MOL0     C92892   4.426   9.161   7.754  0.2674 -0.3071  0.3597
  689MOL0     C92893   4.307   9.114   7.833  0.8625  0.6934 -0.3295
  689MOL0     C92894   4.168   9.131   7.757  0.7180 -0.3755 -0.0545
  689MOL0     C92895   4.065   9.040   7.820  0.9371  0.0193  0.0136
  689MOL0     C92896   3.919   9.080   7.792 -0.1608  0.5409 -0.4257
  689MOL0     N92897   3.884   9.062   7.654  0.2331 -1.4328  1.0573
  689MOL0     C92898   3.850   8.949   7.596  0.7464  0.0378 -0.1443
  689MOL0     C92899   3.813   8.982   7.468 -0.2343  0.4637  0.3731
  689MOL0     C92900   3.771   8.885   7.359  0.2339 -0.5524  0.2473
  689MOL0     C92901   3.626   8.912   7.299 -0.0466 -0.1347  0.2972
  689MOL0     C92902   3.619   9.041   7.217 -0.3252 -0.3355 -0.0703
  689MOL0     C92903   3.493   9.057   7.141  0.8764  0.4357  0.2754
  689MOL0     O92904   3.375   9.072   7.226  0.2030  0.9543 -0.3434
  689MOL0     C92905   3.256   9.101   7.161  0.8723 -0.2492 -0.4832
  689MOL0     C92906   3.242   9.181   7.044 -0.3808 -0.6736  0.0813
  689MOL0     C92907   3.113   9.230   7.001  0.1126  0.8459 -0.2716
  689MOL0     C92908   3.096   9.312   6.874  0.2724  0.6471 -0.3814
  689MOL0     C92909   2.997   9.172   7.064  0.6914  0.9704 -0.3191
  689MOL0     C92910   2.854   9.205   7.021 -0.1632 -0.7487 -0.2474
  689MOL0     O92911   2.763   9.130   7.082  0.4067  0.4982 -0.0911
  689MOL0     C92912   2.629   9.147   7.061  0.0682  0.3523 -0.3991
  689MOL0     C92913   2.559   9.245   7.126 -0.4306  0.5410  0.4513
  689MOL0     C92914   2.419   9.249   7.110 -0.0560  0.4160  0.3641
  689MOL0     C92915   2.348   9.146   7.063  0.0284  0.5135  0.0545
  689MOL0     O92916   2.208   9.151   7.047 -0.5756  0.2868  0.5119
  689MOL0     C92917   2.139   9.029   7.037 -0.6104  0.1263 -0.3877
  689MOL0     C92918   1.995   9.035   7.098 -0.1346 -1.2619  0.2388
  689MOL0     C92919   1.893   9.116   7.020  0.6604  0.2446  0.3774
  689MOL0     C92920   1.876   9.083   6.872 -0.0252 -0.3516 -0.3108
  689MOL0     C92921   1.766   9.171   6.805  0.0083  0.5414 -0.8616
  689MOL0     C92922   1.747   9.137   6.661 -0.6469 -1.7198 -0.3158
  689MOL0     C92923   1.613   9.182   6.592  0.4333  0.3471 -0.0629
  689MOL0     C92924   1.596   9.123   6.452 -0.7452  0.2942 -0.0015
  689MOL0    Cl92925   1.528   8.956   6.479  0.1040 -0.3615 -0.1469
  689MOL0     C92926   2.418   9.039   7.002  0.1931  0.4170  0.6224
  689MOL0     C92927   2.555   9.040   7.005  0.1828 -0.2686  0.2483
  689MOL0     O92928   2.831   9.286   6.934 -0.1956 -0.0461 -0.3624
  689MOL0     C92929   3.017   9.081   7.175 -1.0008 -0.3310  0.6429
  689MOL0     C92930   3.141   9.057   7.226  0.1153 -0.7353  0.1331
  689MOL0     N92931   3.839   9.117   7.451  0.7211  0.5040 -0.2453
  689MOL0     N92932   3.869   9.162   7.564  0.4088 -0.2298 -0.2617
  689MOL0     C92933   5.086   9.208   7.904  0.0236  0.0276  0.1788
  689MOL0     C92934   5.222   9.227   7.942 -0.8133 -0.7030  0.2824
  689MOL0     C92935   5.579   9.458   8.084 -0.0768  0.5258 -0.2783
  689MOL0     C92936   5.693   9.397   8.026  0.9987  0.5604 -0.1896
  689MOL0     C92937   5.814   9.432   8.056 -0.1825 -0.1139  0.2890
  689MOL0     C92938   5.828   9.538   8.151 -0.6439 -0.6017  0.4814
  689MOL0     O92939   5.956   9.565   8.202  0.0045 -0.4903  0.6689
  689MOL0     C92940   6.061   9.585   8.111 -0.5634 -0.2587  0.5807
  689MOL0     C92941   6.030   9.711   8.027  1.0928 -0.3446 -0.3829
  689MOL0     C92942   6.015   9.845   8.117 -0.3198 -0.4780 -0.5619
  689MOL0     C92943   6.141   9.894   8.192 -0.3690 -0.0277  0.5165
  689MOL0     C92944   6.236   9.968   8.097  0.2096  1.5731  0.3528
  689MOL0     C92945   6.288  10.036   8.012 -0.7661  0.1462 -0.3672
  689MOL0     C92946   5.726   9.599   8.209  0.2004  0.4762 -0.2457
  689MOL0     C92947   5.598   9.556   8.178  1.1919 -0.4701 -1.1927
  689MOL0     H92948   5.323   9.455   7.721 -0.2746  0.3269 -0.4375
  689MOL0     H92949   5.071   9.429   7.652 -1.9543  0.3438  0.9713
  689MOL0     H92950   4.848   9.096   7.827  4.2031  0.8533  0.8729
  689MOL0     H92951   4.798   9.215   7.936  0.8543  0.0248 -0.4154
  689MOL0     H92952   4.653   9.321   7.769 -0.0925 -0.0012 -0.1136
  689MOL0     H92953   4.666   9.175   7.667  2.3868 -1.2660  0.6059
  689MOL0     H92954   4.569   9.050   7.879  2.5727  0.5249 -2.5156
  689MOL0     H92955   4.532   9.219   7.934 -1.5467  2.2060 -1.5067
  689MOL0     H92956   4.413   9.265   7.721  0.2922  0.6890  3.2039
  689MOL0     H92957   4.429   9.102   7.663 -0.6121  0.1398  0.0271
  689MOL0     H92958   4.330   9.010   7.857 -2.0368 -0.4565 -2.0471
  689MOL0     H92959   4.300   9.154   7.935  1.7388 -2.3406  1.0371
  689MOL0     H92960   4.129   9.233   7.751  0.9329 -0.3564 -1.4563
  689MOL0     H92961   4.191   9.083   7.661  3.0055 -3.0359  1.6447
  689MOL0     H92962   4.074   8.943   7.770  1.8069 -0.0655  0.3305
  689MOL0     H92963   4.083   9.027   7.927  4.0704  1.6295 -0.2016
  689MOL0     H92964   3.911   9.187   7.812 -1.0553  0.6899 -1.4711
  689MOL0     H92965   3.857   9.016   7.857 -1.2377  1.8169 -0.1484
  689MOL0     H92966   3.837   8.851   7.643  3.1731  0.7717  2.2834
  689MOL0     H92967   3.843   8.893   7.277 -1.4791 -1.7489 -1.4773
  689MOL0     H92968   3.773   8.782   7.396 -2.4944  0.2905  3.2115
  689MOL0     H92969   3.560   8.897   7.385 -0.8918  0.0960 -0.2951
  689MOL0     H92970   3.597   8.825   7.240  0.3488  0.1085 -0.2688
  689MOL0     H92971   3.710   9.066   7.161 -1.0523  1.8437 -0.3889
  689MOL0     H92972   3.600   9.122   7.288  0.3259 -0.7421  0.5730
  689MOL0     H92973   3.494   8.969   7.076 -3.3267 -0.1209  0.6829
  689MOL0     H92974   3.512   9.150   7.088  2.2305 -1.8315 -3.6268
  689MOL0     H92975   3.329   9.198   6.981  1.1678 -1.2802  1.9271
  689MOL0     H92976   3.038   9.254   6.801 -0.4686 -1.1651  1.5351
  689MOL0     H92977   3.041   9.406   6.884 -0.8940  0.3337 -3.0240
  689MOL0     H92978   3.197   9.331   6.838 -0.3514  2.5770 -1.2334
  689MOL0     H92979   2.616   9.320   7.180 -0.5872  0.2915  0.9580
  689MOL0     H92980   2.376   9.339   7.152  0.8595  1.3096 -0.5608
  689MOL0     H92981   2.140   8.999   6.931 -0.7934 -0.5357 -0.2095
  689MOL0     H92982   2.190   8.951   7.094 -0.5654  0.2519 -0.2597
  689MOL0     H92983   1.956   8.933   7.109 -1.2108 -1.0335 -1.2087
  689MOL0     H92984   1.988   9.087   7.194 -2.7031  2.9141 -1.9254
  689MOL0     H92985   1.914   9.223   7.023  1.7598  0.0148  1.2560
  689MOL0     H92986   1.797   9.091   7.066  0.8720 -1.1345  0.1295
  689MOL0     H92987   1.971   9.097   6.821 -0.1323 -1.5889 -0.8886
  689MOL0     H92988   1.856   8.976   6.859 -0.3392 -0.7154  2.4580
  689MOL0     H92989   1.789   9.277   6.818  0.0288  0.5790 -1.1977
  689MOL0     H92990   1.676   9.149   6.863  1.2911 -1.7490  0.4315
  689MOL0     H92991   1.826   9.179   6.599 -3.5940  2.2760 -1.8586
  689MOL0     H92992   1.745   9.028   6.657  0.9435 -1.7578 -0.4325
  689MOL0     H92993   1.603   9.291   6.581 -3.2443  0.0387 -1.1069
  689MOL0     H92994   1.524   9.155   6.649 -0.1424 -0.9811 -1.5106
  689MOL0     H92995   1.695   9.115   6.405  0.1589 -1.5640  2.0507
  689MOL0     H92996   1.522   9.175   6.391  0.4715  1.9115 -0.1671
  689MOL0     H92997   2.373   8.958   6.946  0.3435  1.3075 -0.8424
  689MOL0     H92998   2.599   8.946   6.973  2.8904  0.7972  0.6001
  689MOL0     H92999   2.938   9.026   7.226  0.0411 -1.0831  1.5003
  689MOL0     H93000   3.157   8.983   7.304  0.1289 -2.8015 -1.7344
  689MOL0     H93001   5.031   9.128   7.953  0.0179  1.3583  2.5294
  689MOL0     H93002   5.258   9.173   8.029  2.5472 -2.3027 -1.8780
  689MOL0     H93003   5.681   9.319   7.952  1.6786  0.4714 -0.2093
  689MOL0     H93004   5.901   9.387   8.008 -0.0682  1.9879 -1.6161
  689MOL0     H93005   6.146   9.608   8.175 -1.2318  0.7931  1.1208
  689MOL0     H93006   6.078   9.501   8.044  0.6631  0.9906 -0.7272
  689MOL0     H93007   5.938   9.700   7.970 -0.6617  1.0005  2.0172
  689MOL0     H93008   6.104   9.732   7.949  0.0142 -2.4753 -2.0734
  689MOL0     H93009   5.947   9.823   8.199  1.0690 -1.3329  0.4070
  689MOL0     H93010   5.967   9.928   8.065 -1.5253  0.9649  2.6190
  689MOL0     H93011   6.186   9.804   8.235  0.3337 -0.1879 -0.5202
  689MOL0     H93012   6.121   9.959   8.277  1.0992 -0.2070  1.0138
  689MOL0     H93013   6.339  10.090   7.934 -0.9516  1.1072  0.1601
  689MOL0     H93014   5.750   9.672   8.286 -1.4392  0.6572  0.1254
  689MOL0     H93015   5.511   9.606   8.220  1.3045 -1.1150 -0.1652
  690MOL0     O93016   7.921   1.831   3.011  0.9892  0.2391 -0.3352
  690MOL0     C93017   7.900   1.912   2.923 -1.0264 -0.7234 -0.0421
  690MOL0     O93018   7.782   1.934   2.860 -0.3088  0.2004  0.0967
  690MOL0     C93019   7.665   1.939   2.933  0.4711  0.6598  0.0126
  690MOL0     C93020   7.544   1.975   2.869  0.3587  0.6526 -0.4399
  690MOL0     C93021   7.415   1.970   2.938 -0.0904  0.0725 -0.1954
  690MOL0     C93022   7.404   1.952   3.077 -0.8047  0.1238  0.6761
  690MOL0     O93023   7.286   1.949   3.145 -0.7145  0.8354  0.2185
  690MOL0     C93024   7.167   1.920   3.074  0.3209  0.3314  0.2558
  690MOL0     C93025   7.049   1.939   3.168  0.3454  0.2386  0.3107
  690MOL0     C93026   6.919   1.868   3.132  0.5033  0.3682  0.0567
  690MOL0     C93027   6.857   1.912   3.001  0.2136 -0.2889  1.9947
  690MOL0     C93028   6.706   1.889   3.006 -0.0488 -0.8127 -0.2938
  690MOL0     C93029   6.643   1.936   2.873 -0.2661 -0.1203 -0.3595
  690MOL0     C93030   6.488   1.968   2.877  0.1462  0.1422 -0.9744
  690MOL0     C93031   6.462   2.087   2.969  0.7552 -0.2211  0.1180
  690MOL0     N93032   6.323   2.126   2.969  0.3821 -0.6089  0.2713
  690MOL0     C93033   6.253   2.160   2.862  1.2789  0.3931  0.4819
  690MOL0     C93034   6.123   2.163   2.901 -0.5291  0.9566 -0.4864
  690MOL0     C93035   5.992   2.178   2.822 -0.2247 -0.2144  0.3098
  690MOL0     C93036   5.999   2.319   2.757 -0.1739  0.7262 -0.2175
  690MOL0     C93037   5.883   2.348   2.663 -0.6252 -0.4665 -0.1797
  690MOL0     C93038   5.882   2.262   2.536  0.2475 -0.1875 -0.1557
  690MOL0     O93039   5.756   2.283   2.480 -0.5214  0.5629  0.0072
  690MOL0     C93040   5.639   2.238   2.550  0.0437  0.5626 -0.3806
  690MOL0     C93041   5.636   2.148   2.660  0.0089  0.1628 -0.2460
  690MOL0     C93042   5.527   2.140   2.748  0.4416  0.9470 -0.1980
  690MOL0     C93043   5.518   2.055   2.878 -0.1405  0.8746 -0.5235
  690MOL0     C93044   5.408   2.216   2.710  0.6507  0.4787 -0.1519
  690MOL0     C93045   5.271   2.209   2.776  0.0276  0.4042  0.1162
  690MOL0     O93046   5.165   2.262   2.705  0.3468 -0.3101  0.8222
  690MOL0     C93047   5.048   2.208   2.716  0.4338 -0.2374  0.3359
  690MOL0     C93048   4.976   2.214   2.838 -0.8243 -0.1607  0.0183
  690MOL0     C93049   4.840   2.178   2.836  1.0083  0.0178 -1.0213
  690MOL0     C93050   4.784   2.113   2.726  0.0755  0.6775 -0.0655
  690MOL0     O93051   4.667   2.044   2.746 -0.5478 -0.6817  0.5384
  690MOL0     C93052   4.568   2.090   2.648  0.2316 -0.7058  0.3731
  690MOL0     C93053   4.436   2.010   2.653  0.5118  0.4185  0.2734
  690MOL0     C93054   4.456   1.864   2.677  0.7209  0.7177  0.5311
  690MOL0     C93055   4.502   1.786   2.559  0.1594 -0.1542 -1.3933
  690MOL0     C93056   4.533   1.637   2.589  0.5746  1.2361  0.1079
  690MOL0     C93057   4.650   1.620   2.690 -1.0193 -0.3609 -0.5335
  690MOL0     C93058   4.695   1.481   2.715  0.0202 -0.1990  0.3776
  690MOL0     C93059   4.835   1.467   2.758  0.1633  0.1287 -0.2284
  690MOL0    Cl93060   4.939   1.464   2.606 -0.3018  0.6083 -0.2353
  690MOL0     C93061   4.858   2.090   2.612 -0.4681 -0.1421 -0.6257
  690MOL0     C93062   4.986   2.142   2.604  0.1612 -0.2975 -0.0460
  690MOL0     O93063   5.256   2.140   2.875 -0.1585 -0.2195 -0.4618
  690MOL0     C93064   5.413   2.293   2.592  0.6407  0.4404 -0.6065
  690MOL0     C93065   5.528   2.305   2.523  0.5952  0.2857 -0.3205
  690MOL0     N93066   6.118   2.140   3.037  0.0438  0.9040 -0.0295
  690MOL0     N93067   6.238   2.117   3.074 -0.4808  0.0840 -0.4304
  690MOL0     C93068   7.525   1.909   3.139 -0.2767  0.6909  0.0374
  690MOL0     C93069   7.647   1.900   3.068 -0.3499 -0.6127  0.5575
  690MOL0     C93070   8.023   1.980   2.879 -0.6696 -0.2707  0.0360
  690MOL0     C93071   8.022   2.039   2.755  0.3160  0.6815 -0.8545
  690MOL0     C93072   8.138   2.106   2.708 -0.5693 -0.1634 -0.3489
  690MOL0     C93073   8.251   2.113   2.789 -0.0437  0.1013 -0.7951
  690MOL0     O93074   8.374   2.158   2.750  0.4233 -0.3120 -0.7524
  690MOL0     C93075   8.366   2.268   2.641  0.0919  0.5277 -0.3917
  690MOL0     C93076   8.392   2.204   2.500  0.3232 -0.1455  0.1513
  690MOL0     C93077   8.541   2.183   2.480 -0.4506 -0.4382 -0.4017
  690MOL0     C93078   8.582   2.100   2.361  0.6817  0.4018 -0.3879
  690MOL0     C93079   8.577   2.183   2.237 -0.3461 -0.0461 -0.0301
  690MOL0     C93080   8.569   2.245   2.133  0.2027 -0.3765 -0.3733
  690MOL0     C93081   8.258   2.046   2.916 -0.2493  0.3243  0.4595
  690MOL0     C93082   8.138   1.986   2.958  0.2214 -0.7574 -0.4875
  690MOL0     H93083   7.547   1.996   2.763  0.4333  1.6935 -0.2473
  690MOL0     H93084   7.323   1.997   2.887 -1.7005 -0.6397  2.1290
  690MOL0     H93085   7.152   1.999   3.000  1.6275  1.5455  1.2502
  690MOL0     H93086   7.164   1.821   3.027  1.5272  0.9898 -1.2824
  690MOL0     H93087   7.074   1.894   3.264 -0.5071 -0.6488  0.1325
  690MOL0     H93088   7.026   2.046   3.180 -1.7612 -0.5404  6.9084
  690MOL0     H93089   6.942   1.762   3.115 -0.4629  0.5144 -2.5716
  690MOL0     H93090   6.852   1.891   3.216  3.0660  3.9283  1.3789
  690MOL0     H93091   6.884   2.017   2.989  1.3584 -0.3479  3.6910
  690MOL0     H93092   6.896   1.853   2.918 -0.3292  3.5788 -1.2657
  690MOL0     H93093   6.672   1.785   3.008  1.4581 -1.3407 -1.1227
  690MOL0     H93094   6.671   1.944   3.094  1.1023 -1.9030  0.8883
  690MOL0     H93095   6.704   2.020   2.837  0.2699 -0.6001 -0.5861
  690MOL0     H93096   6.666   1.863   2.795 -2.2416 -1.2690  0.0813
  690MOL0     H93097   6.467   1.983   2.770  1.6790 -0.9838 -1.4633
  690MOL0     H93098   6.434   1.880   2.913  1.0376  0.3847  1.0311
  690MOL0     H93099   6.527   2.168   2.934  0.1547  0.2462  0.0844
  690MOL0     H93100   6.495   2.068   3.071  0.2959 -1.3429  0.0721
  690MOL0     H93101   6.278   2.181   2.758  3.5769 -0.6335  0.7865
  690MOL0     H93102   5.989   2.105   2.741  1.3829 -0.0779  0.1031
  690MOL0     H93103   5.900   2.157   2.877 -0.2856 -2.5165 -0.5515
  690MOL0     H93104   6.097   2.349   2.718 -1.2433  4.2872 -0.5505
  690MOL0     H93105   5.988   2.396   2.834  1.8415  0.7909  0.0708
  690MOL0     H93106   5.874   2.454   2.640  1.1313  0.1319  1.6327
  690MOL0     H93107   5.798   2.337   2.731 -1.5248  2.5312 -0.6736
  690MOL0     H93108   5.889   2.154   2.551 -1.7577 -0.4746 -0.9366
  690MOL0     H93109   5.965   2.290   2.470 -0.4667 -0.4212 -1.1750
  690MOL0     H93110   5.734   2.111   2.688 -0.2235  0.5441  1.1445
  690MOL0     H93111   5.454   1.967   2.869  1.1083 -0.2559  0.9700
  690MOL0     H93112   5.621   2.018   2.890  0.5095  2.5956 -0.5337
  690MOL0     H93113   5.495   2.112   2.969 -0.1656 -1.1384  0.8074
  690MOL0     H93114   5.027   2.257   2.924  0.0674 -1.9052  0.4142
  690MOL0     H93115   4.771   2.193   2.919  0.2334  4.3478 -2.2249
  690MOL0     H93116   4.542   2.190   2.684  1.1590  0.1084 -1.1240
  690MOL0     H93117   4.612   2.111   2.550 -1.7699  1.9838 -0.0676
  690MOL0     H93118   4.385   2.057   2.738  2.1636  1.3070  0.8259
  690MOL0     H93119   4.373   2.021   2.564 -2.4261 -0.8452  2.0352
  690MOL0     H93120   4.364   1.817   2.713 -0.0907  3.0586  1.6820
  690MOL0     H93121   4.529   1.858   2.758 -1.3414  2.3110  2.6627
  690MOL0     H93122   4.431   1.789   2.476 -0.8830 -2.4935 -0.6551
  690MOL0     H93123   4.592   1.836   2.522 -1.6633  1.7898 -3.5349
  690MOL0     H93124   4.559   1.595   2.492  0.9503 -0.5769  0.9543
  690MOL0     H93125   4.440   1.595   2.629  0.7270  2.7750  2.2233
  690MOL0     H93126   4.733   1.676   2.646 -0.1271 -0.9255  0.4219
  690MOL0     H93127   4.622   1.654   2.790 -1.9417 -2.5797  0.0190
  690MOL0     H93128   4.670   1.422   2.626 -0.0770 -0.3405  0.4968
  690MOL0     H93129   4.637   1.438   2.798 -1.3895 -1.8271 -1.3649
  690MOL0     H93130   4.853   1.372   2.810 -1.2598  1.3268  2.7051
  690MOL0     H93131   4.868   1.541   2.832  1.4839 -0.6097 -0.0423
  690MOL0     H93132   4.822   2.037   2.525  3.5009 -3.4237 -0.5637
  690MOL0     H93133   5.045   2.137   2.513  0.2405  2.9398 -0.2912
  690MOL0     H93134   5.333   2.360   2.559  0.3289 -0.4585 -1.7664
  690MOL0     H93135   5.538   2.378   2.444  1.4545  1.0404  0.4694
  690MOL0     H93136   7.516   1.875   3.242 -0.2033 -2.4521 -0.9071
  690MOL0     H93137   7.724   1.851   3.128 -1.4182 -2.8788  0.2053
  690MOL0     H93138   7.929   2.012   2.707 -1.4320  1.3221  1.8923
  690MOL0     H93139   8.150   2.148   2.609 -3.0922 -1.7942 -1.4464
  690MOL0     H93140   8.270   2.320   2.644 -0.8054 -1.0560 -0.4434
  690MOL0     H93141   8.439   2.346   2.666  0.6995  0.2567 -1.2770
  690MOL0     H93142   8.356   2.266   2.417 -2.7704 -2.6649 -0.5754
  690MOL0     H93143   8.338   2.109   2.498  1.8650 -1.0452 -0.4996
  690MOL0     H93144   8.582   2.126   2.564  1.6300  0.5431 -0.6959
  690MOL0     H93145   8.599   2.275   2.491 -0.8304 -0.2039 -0.3471
  690MOL0     H93146   8.514   2.018   2.335 -1.3464  2.4213 -1.8958
  690MOL0     H93147   8.683   2.074   2.392 -0.4368 -1.0567  2.4006
  690MOL0     H93148   8.548   2.294   2.040 -1.2761  3.4619  1.7785
  690MOL0     H93149   8.346   2.035   2.977 -0.3829  1.6166  0.9222
  690MOL0     H93150   8.143   1.925   3.048  0.0281 -3.2036 -2.0508
  691MOL0     O93151   9.669   5.162   8.521  0.4217 -0.2937  0.7849
  691MOL0     C93152   9.736   5.119   8.610 -0.0126  1.2177 -0.3617
  691MOL0     O93153   9.690   5.064   8.724  0.3518 -0.1610 -0.1765
  691MOL0     C93154   9.556   5.062   8.739  0.5275 -0.0692 -0.8513
  691MOL0     C93155   9.499   4.957   8.803 -0.6330  0.5129 -1.1712
  691MOL0     C93156   9.367   4.948   8.841 -0.6111  0.3858  0.1448
  691MOL0     C93157   9.283   5.062   8.827 -0.1012  0.0423  1.2017
  691MOL0     O93158   9.147   5.072   8.859 -0.1527  0.4018 -0.1952
  691MOL0     C93159   9.078   4.945   8.858  0.2967 -0.0598 -0.8225
  691MOL0     C93160   8.937   4.970   8.907 -0.7207  0.0024 -0.8888
  691MOL0     C93161   8.874   4.845   8.973 -0.6334  0.6170  0.7788
  691MOL0     C93162   8.721   4.857   8.975  0.7971  0.0669 -0.2715
  691MOL0     C93163   8.657   4.742   9.048  0.0472 -0.2742  0.1516
  691MOL0     C93164   8.649   4.616   8.966  0.1045  0.2103 -0.2752
  691MOL0     C93165   8.559   4.505   9.025 -0.4659 -0.2377 -0.2099
  691MOL0     C93166   8.406   4.542   9.015 -0.1089 -0.8706  0.0708
  691MOL0     N93167   8.311   4.443   9.055  0.4588 -0.3194  0.3742
  691MOL0     C93168   8.184   4.464   9.111  0.2172  0.1610 -0.1844
  691MOL0     C93169   8.141   4.339   9.140  0.0045  0.3151 -0.7031
  691MOL0     C93170   8.017   4.307   9.207  0.3685  0.0596 -0.0600
  691MOL0     C93171   7.896   4.348   9.126  0.8347 -0.4301  0.0544
  691MOL0     C93172   7.776   4.283   9.178  0.2770 -0.7931 -0.4862
  691MOL0     C93173   7.648   4.338   9.124 -0.4066  0.4149  0.1325
  691MOL0     O93174   7.534   4.304   9.210  0.0734 -0.1812  0.2244
  691MOL0     C93175   7.408   4.290   9.159  0.1836 -0.1450  0.0956
  691MOL0     C93176   7.368   4.333   9.033 -0.1874  0.1681  0.2724
  691MOL0     C93177   7.235   4.318   8.986  0.0710 -0.4189 -0.4734
  691MOL0     C93178   7.208   4.360   8.845  0.6070  0.1507  0.3768
  691MOL0     C93179   7.139   4.269   9.077  1.3476  0.4262 -0.1665
  691MOL0     C93180   6.991   4.260   9.047 -0.4598 -0.3260  0.1243
  691MOL0     O93181   6.916   4.180   9.126  0.5673 -0.4268 -0.0765
  691MOL0     C93182   6.783   4.164   9.096 -0.0759 -0.3280 -0.3835
  691MOL0     C93183   6.739   4.110   8.969  1.0386  0.1839  0.0530
  691MOL0     C93184   6.610   4.088   8.950  0.8310 -0.1250  0.3365
  691MOL0     C93185   6.518   4.112   9.053  0.4632 -0.1078  0.1903
  691MOL0     O93186   6.392   4.076   9.018 -0.3354  0.3724  0.3878
  691MOL0     C93187   6.285   4.144   9.083  0.4781 -0.3827  0.3230
  691MOL0     C93188   6.149   4.115   9.009 -0.0923 -0.0947  0.4101
  691MOL0     C93189   6.034   4.200   9.067  0.6228 -0.6379  0.3112
  691MOL0     C93190   5.911   4.212   8.972 -0.8769 -0.6016  0.0765
  691MOL0     C93191   5.778   4.249   9.055  0.1479  0.4287 -0.0643
  691MOL0     C93192   5.661   4.281   8.958 -0.1119  0.2491 -0.0191
  691MOL0     C93193   5.524   4.289   9.029 -0.2739 -0.0078 -0.0793
  691MOL0     C93194   5.407   4.320   8.934  0.2479 -0.2173 -0.7017
  691MOL0    Cl93195   5.256   4.302   9.021  0.3107 -0.0744  0.1831
  691MOL0     C93196   6.559   4.175   9.171 -0.1817  0.6345  0.2582
  691MOL0     C93197   6.689   4.194   9.192  0.7858  0.5460 -0.0554
  691MOL0     O93198   6.953   4.319   8.944  0.0703  0.7265  0.3947
  691MOL0     C93199   7.177   4.219   9.203  0.2247  0.4341 -0.1337
  691MOL0     C93200   7.308   4.240   9.246  1.2980  0.2103  0.4153
  691MOL0     N93201   8.246   4.253   9.122  0.2662  0.0300 -0.3374
  691MOL0     N93202   8.345   4.311   9.067  0.2496  0.4036 -0.2545
  691MOL0     C93203   9.333   5.171   8.762  0.1075 -0.0033  0.3942
  691MOL0     C93204   9.468   5.175   8.729 -0.6169  0.7550  0.6428
  691MOL0     C93205   9.878   5.136   8.609 -0.1143 -0.4972 -0.9316
  691MOL0     C93206   9.940   5.122   8.729 -0.0356  0.1418  0.3257
  691MOL0     C93207  10.083   5.136   8.725 -0.0857  0.0015 -0.2625
  691MOL0     C93208  10.156   5.158   8.611  0.8639  0.3771 -0.3385
  691MOL0     O93209  10.292   5.156   8.637  0.2780 -0.6986 -0.4056
  691MOL0     C93210  10.381   5.209   8.537 -0.2476 -0.8546 -0.4815
  691MOL0     C93211  10.527   5.216   8.592  0.3263 -0.1216  0.5081
  691MOL0     C93212  10.594   5.335   8.527  0.1129 -0.6466  0.5413
  691MOL0     C93213  10.731   5.364   8.590 -0.1577  0.7520  0.3688
  691MOL0     C93214  10.787   5.502   8.553  0.2929 -0.4269  0.2082
  691MOL0     C93215  10.833   5.608   8.532 -0.5663 -0.2028 -0.1580
  691MOL0     C93216  10.091   5.182   8.493 -0.7558 -0.3576  0.0488
  691MOL0     C93217   9.951   5.174   8.494  0.4822  0.4050  0.2857
  691MOL0     H93218   9.565   4.876   8.831  0.8755  1.6100 -1.4405
  691MOL0     H93219   9.331   4.854   8.881 -0.1903 -0.0929 -0.5727
  691MOL0     H93220   9.082   4.909   8.755  0.4742 -0.9612 -0.5099
  691MOL0     H93221   9.128   4.884   8.935  2.1595  3.7215  1.2692
  691MOL0     H93222   8.946   5.041   8.990 -0.9483 -1.6347  0.6054
  691MOL0     H93223   8.876   5.012   8.827 -1.1117 -3.1871 -2.4046
  691MOL0     H93224   8.886   4.757   8.909 -1.4435  1.4870 -0.6063
  691MOL0     H93225   8.913   4.825   9.073  0.6917 -2.0038 -0.1632
  691MOL0     H93226   8.690   4.946   9.031 -1.0364 -0.1522 -0.8690
  691MOL0     H93227   8.686   4.863   8.872  1.9531  0.3086 -0.6625
  691MOL0     H93228   8.687   4.729   9.153 -1.3450  1.2965  0.7906
  691MOL0     H93229   8.554   4.779   9.055 -0.6654 -1.5593 -2.3165
  691MOL0     H93230   8.606   4.631   8.867 -0.9631  0.8301  0.2743
  691MOL0     H93231   8.750   4.574   8.957  1.3921  3.2115 -0.7610
  691MOL0     H93232   8.586   4.420   8.962 -1.6321  1.1164 -2.6968
  691MOL0     H93233   8.583   4.485   9.129 -1.2949 -1.9327 -0.3085
  691MOL0     H93234   8.389   4.576   8.913  1.0071 -0.5608 -0.0206
  691MOL0     H93235   8.376   4.627   9.079 -0.8424 -0.9895 -0.1077
  691MOL0     H93236   8.126   4.556   9.103  1.1430  0.6754 -1.2768
  691MOL0     H93237   7.999   4.200   9.221  2.4592 -0.1652  1.3666
  691MOL0     H93238   8.024   4.357   9.304  0.1342  1.1142 -0.5730
  691MOL0     H93239   7.914   4.313   9.023  0.8886  0.8055 -0.3816
  691MOL0     H93240   7.883   4.456   9.122  0.2682 -0.5127 -2.4035
  691MOL0     H93241   7.778   4.297   9.286  1.0663  1.9500 -0.7835
  691MOL0     H93242   7.777   4.174   9.162  2.1623 -0.3859 -4.0262
  691MOL0     H93243   7.646   4.307   9.019  2.7072  3.5454 -1.0268
  691MOL0     H93244   7.647   4.447   9.118 -0.6144  0.4615  0.8715
  691MOL0     H93245   7.429   4.377   8.955 -2.4445  1.2950 -0.9487
  691MOL0     H93246   7.154   4.454   8.826  1.4638  0.8603  1.3524
  691MOL0     H93247   7.301   4.364   8.788  0.7731 -4.0261  0.0698
  691MOL0     H93248   7.157   4.276   8.796  1.8524 -0.0397 -0.6603
  691MOL0     H93249   6.817   4.078   8.901  2.7481 -0.4927  2.2013
  691MOL0     H93250   6.577   4.036   8.860 -0.4568 -2.3911  2.0006
  691MOL0     H93251   6.274   4.106   9.186  2.1347  0.9529  1.0280
  691MOL0     H93252   6.306   4.250   9.091  5.0189 -1.1006  0.2791
  691MOL0     H93253   6.165   4.135   8.903 -1.7022 -0.3326  0.1060
  691MOL0     H93254   6.132   4.008   9.021 -0.3467 -0.0314  0.6198
  691MOL0     H93255   6.069   4.301   9.092 -1.2972 -0.6718  3.8631
  691MOL0     H93256   6.006   4.154   9.163  1.0829 -1.1616  0.2008
  691MOL0     H93257   5.934   4.301   8.912  1.0465 -2.0958 -1.5912
  691MOL0     H93258   5.897   4.127   8.904 -0.4798  0.0939 -0.9006
  691MOL0     H93259   5.800   4.334   9.120 -0.9660  0.3303  0.4751
  691MOL0     H93260   5.757   4.162   9.118  1.1120 -0.9307 -1.5232
  691MOL0     H93261   5.688   4.372   8.903 -0.7988  1.0611  0.9489
  691MOL0     H93262   5.645   4.196   8.891 -2.1362  0.2607  0.3793
  691MOL0     H93263   5.528   4.372   9.100 -3.1512  0.0552  0.1505
  691MOL0     H93264   5.501   4.193   9.077  0.5342  0.4678  1.2964
  691MOL0     H93265   5.407   4.246   8.852  0.0602 -0.5953 -0.3623
  691MOL0     H93266   5.416   4.420   8.892 -0.5335  0.9115  1.6807
  691MOL0     H93267   6.486   4.199   9.248 -1.8236 -3.0580  0.0837
  691MOL0     H93268   6.726   4.234   9.287  0.6393  0.1007  0.1925
  691MOL0     H93269   7.105   4.179   9.273  1.4031 -2.4417 -0.4377
  691MOL0     H93270   7.324   4.216   9.351 -1.7269 -1.6360  0.5676
  691MOL0     H93271   9.263   5.252   8.743  1.8238  1.4071 -0.2416
  691MOL0     H93272   9.508   5.272   8.702 -1.5928  1.5635  1.9781
  691MOL0     H93273   9.892   5.100   8.823 -0.7238  1.9647  0.4488
  691MOL0     H93274  10.142   5.118   8.814  0.4542  0.3440 -0.5408
  691MOL0     H93275  10.371   5.143   8.451  0.9265 -1.3388 -0.2578
  691MOL0     H93276  10.331   5.306   8.526  1.2263  0.3137  2.0791
  691MOL0     H93277  10.579   5.126   8.557  0.7148  0.8631 -1.6147
  691MOL0     H93278  10.542   5.240   8.698  4.0797  3.2972 -0.5351
  691MOL0     H93279  10.526   5.419   8.543  0.6767 -0.7366  4.2099
  691MOL0     H93280  10.599   5.325   8.418 -1.9558  0.2226  0.3216
  691MOL0     H93281  10.805   5.289   8.558 -0.5373  0.0798  1.0500
  691MOL0     H93282  10.719   5.361   8.698 -0.2490 -1.4416  0.3405
  691MOL0     H93283  10.878   5.703   8.510  0.6394 -1.0723 -1.6663
  691MOL0     H93284  10.136   5.212   8.399  1.6800 -2.0129  0.6003
  691MOL0     H93285   9.899   5.182   8.398  0.5446  0.3884  0.2503
  692MOL0     O93286   3.705   6.086   2.464 -0.2358  0.0711 -0.1074
  692MOL0     C93287   3.721   6.194   2.412 -0.0337  0.0696 -0.2483
  692MOL0     O93288   3.628   6.253   2.338 -0.1623 -0.4962 -0.1217
  692MOL0     C93289   3.521   6.188   2.301  0.6290  0.1207  0.6176
  692MOL0     C93290   3.518   6.103   2.187 -0.1400 -0.1399 -0.2263
  692MOL0     C93291   3.397   6.039   2.149 -0.4465 -0.2057 -0.3710
  692MOL0     C93292   3.285   6.062   2.225  0.7046 -0.4948 -0.0701
  692MOL0     O93293   3.164   6.006   2.188  0.1037 -0.4867  0.5925
  692MOL0     C93294   3.156   5.860   2.175 -0.1655 -0.1231  0.5353
  692MOL0     C93295   3.015   5.830   2.127 -0.0187 -0.0090  0.2528
  692MOL0     C93296   2.985   5.842   1.981  0.6578 -0.4055  0.8853
  692MOL0     C93297   2.832   5.853   1.966  0.1495  0.7410  0.0400
  692MOL0     C93298   2.766   5.717   1.986  0.0751  0.3266 -0.4208
  692MOL0     C93299   2.642   5.705   1.898 -0.8023  0.0056  0.5683
  692MOL0     C93300   2.563   5.581   1.941 -0.1888 -0.0337 -0.4665
  692MOL0     C93301   2.423   5.588   1.880  0.4748 -1.0684  0.5176
  692MOL0     N93302   2.334   5.480   1.929 -0.0332 -0.5381  0.0816
  692MOL0     C93303   2.283   5.481   2.056 -0.6520 -0.0852 -0.3118
  692MOL0     C93304   2.243   5.354   2.075 -0.2585  0.0525 -0.3633
  692MOL0     C93305   2.195   5.296   2.214  0.1496  0.2561  0.2283
  692MOL0     C93306   2.042   5.272   2.195 -0.8450  0.4958 -0.3827
  692MOL0     C93307   1.969   5.210   2.313 -0.4303 -0.0562 -0.3528
  692MOL0     C93308   1.830   5.169   2.275  0.3688 -0.2761  0.3417
  692MOL0     O93309   1.759   5.146   2.401  0.2349 -0.7557  0.3320
  692MOL0     C93310   1.626   5.108   2.386 -0.4819  0.9270  0.0307
  692MOL0     C93311   1.528   5.162   2.481 -0.1695  0.4307 -1.0753
  692MOL0     C93312   1.390   5.128   2.479  1.0427  0.7440 -0.9751
  692MOL0     C93313   1.296   5.193   2.580  0.4124  0.4818  0.1920
  692MOL0     C93314   1.352   5.051   2.373 -0.2557 -0.0071 -0.6923
  692MOL0     C93315   1.217   5.005   2.355 -0.4010  0.8081  0.7634
  692MOL0     O93316   1.158   5.047   2.240  0.4332  0.2599 -0.1098
  692MOL0     C93317   1.027   5.043   2.237 -0.8471 -0.2883  0.4080
  692MOL0     C93318   0.946   5.115   2.333  0.6882  0.3007  0.2937
  692MOL0     C93319   0.810   5.096   2.354 -1.5030  0.4595  0.1713
  692MOL0     C93320   0.736   5.039   2.253 -1.5043  0.6850  0.2988
  692MOL0     O93321   0.601   5.038   2.272 -0.1612  0.8434  1.1960
  692MOL0     C93322   0.522   5.035   2.147 -0.8302 -0.0559 -0.6788
  692MOL0     C93323   0.375   5.068   2.167 -0.2915 -0.7104 -0.0880
  692MOL0     C93324   0.297   5.102   2.040 -0.6923 -0.7987  0.5487
  692MOL0     C93325   0.143   5.078   2.075 -0.7714 -0.9238  0.3743
  692MOL0     C93326   0.059   5.095   1.950 -0.2658 -0.7079  0.4333
  692MOL0     C93327  -0.095   5.091   1.975 -0.9095  0.4015  0.1683
  692MOL0     C93328  -0.153   5.092   1.834  0.6398 -0.0283 -0.1810
  692MOL0     C93329  -0.292   5.041   1.833  0.0233  0.6389  0.3651
  692MOL0    Cl93330  -0.383   5.052   1.673 -0.1104  0.1609  0.3246
  692MOL0     C93331   0.803   4.976   2.145  0.3112 -0.9030 -0.6216
  692MOL0     C93332   0.949   4.973   2.143  0.4536  0.0478 -0.1143
  692MOL0     O93333   1.162   4.941   2.448 -0.6707 -0.5022  0.3910
  692MOL0     C93334   1.436   5.009   2.274 -1.3788  0.0581  0.4409
  692MOL0     C93335   1.569   5.033   2.277 -0.5113 -0.4970  0.0447
  692MOL0     N93336   2.264   5.285   1.957 -0.3994  0.2192  0.6563
  692MOL0     N93337   2.341   5.355   1.877 -0.0758  0.1838 -0.5407
  692MOL0     C93338   3.289   6.149   2.332  0.0329 -0.0118  0.1956
  692MOL0     C93339   3.403   6.214   2.362  0.1942  0.1323  0.1483
  692MOL0     C93340   3.848   6.265   2.446  0.5355  0.5256  0.7126
  692MOL0     C93341   3.872   6.402   2.412 -0.6730 -0.3002  0.3257
  692MOL0     C93342   3.999   6.464   2.431 -0.4439 -0.3429  0.1258
  692MOL0     C93343   4.106   6.390   2.488 -0.9845 -0.4982  0.2445
  692MOL0     O93344   4.236   6.440   2.496  0.1202  0.3766  0.2768
  692MOL0     C93345   4.251   6.571   2.547 -0.1127  0.6800 -0.0656
  692MOL0     C93346   4.387   6.613   2.602 -0.3125 -0.5029  0.1491
  692MOL0     C93347   4.429   6.554   2.733 -0.0422  0.0911  0.0493
  692MOL0     C93348   4.529   6.632   2.798  0.5403 -0.5715  0.1160
  692MOL0     C93349   4.585   6.552   2.915 -0.1394  0.4039  0.1665
  692MOL0     C93350   4.628   6.494   3.010 -0.8157 -0.1521 -0.6209
  692MOL0     C93351   4.084   6.257   2.517  0.0420  0.4616 -0.4131
  692MOL0     C93352   3.952   6.193   2.500  0.2701  0.0840 -0.7996
  692MOL0     H93353   3.604   6.092   2.122  1.5637 -0.5428  1.9888
  692MOL0     H93354   3.387   5.981   2.057 -2.3204 -3.8519  1.9000
  692MOL0     H93355   3.232   5.812   2.113  0.3695 -3.5156  3.4729
  692MOL0     H93356   3.167   5.811   2.272  1.8344 -1.3181 -0.2273
  692MOL0     H93357   2.983   5.733   2.164 -0.8328  0.2349  0.2017
  692MOL0     H93358   2.950   5.902   2.178 -0.8302 -0.5618  0.0222
  692MOL0     H93359   3.012   5.941   1.944  1.3083 -0.5960  0.8352
  692MOL0     H93360   3.038   5.768   1.921  2.0277  0.9241  0.3962
  692MOL0     H93361   2.779   5.931   2.023 -0.7006  0.9162 -0.9437
  692MOL0     H93362   2.801   5.889   1.867  0.9549 -1.0816 -0.9321
  692MOL0     H93363   2.831   5.632   1.963 -3.4477 -2.5706 -0.5065
  692MOL0     H93364   2.745   5.708   2.093  1.6483  1.9669  0.0826
  692MOL0     H93365   2.580   5.794   1.893 -0.5607  0.1211 -1.7194
  692MOL0     H93366   2.682   5.683   1.798 -0.6804  0.0975  0.5970
  692MOL0     H93367   2.610   5.485   1.917  0.3292 -0.3067  1.4721
  692MOL0     H93368   2.548   5.575   2.049  2.9881 -0.2884  0.0622
  692MOL0     H93369   2.426   5.595   1.771 -0.5333 -3.0575  0.3069
  692MOL0     H93370   2.377   5.684   1.906  0.5022 -0.5465 -1.2898
  692MOL0     H93371   2.289   5.554   2.137 -1.3896  0.4014 -0.6839
  692MOL0     H93372   2.236   5.199   2.241  0.6664  0.2646 -0.5114
  692MOL0     H93373   2.199   5.371   2.293 -1.1140  0.5933  0.0040
  692MOL0     H93374   2.026   5.211   2.105 -0.1760  3.5247 -2.7578
  692MOL0     H93375   1.997   5.372   2.187 -1.6527  0.2100  0.4810
  692MOL0     H93376   1.978   5.288   2.389  1.3612  0.8245 -1.3703
  692MOL0     H93377   2.026   5.119   2.335 -1.0687 -0.4097 -0.1577
  692MOL0     H93378   1.849   5.076   2.221 -0.0091 -1.2129  1.7479
  692MOL0     H93379   1.790   5.250   2.213  0.7704 -0.6438 -0.4086
  692MOL0     H93380   1.569   5.216   2.566  1.0588  1.9642 -2.5635
  692MOL0     H93381   1.203   5.213   2.525  1.4171  0.6888 -1.4927
  692MOL0     H93382   1.288   5.120   2.662  0.5350 -0.7622 -0.8677
  692MOL0     H93383   1.325   5.288   2.626 -0.8034  0.4678  1.0392
  692MOL0     H93384   0.991   5.177   2.410  0.2664  1.2545 -0.2021
  692MOL0     H93385   0.779   5.137   2.450 -0.7922  0.7442  0.2887
  692MOL0     H93386   0.563   5.104   2.073 -0.2848  1.5378  1.0300
  692MOL0     H93387   0.527   4.936   2.100 -0.8658  0.0644 -0.9351
  692MOL0     H93388   0.332   4.977   2.211 -0.2349  0.3125  2.2226
  692MOL0     H93389   0.372   5.155   2.233  0.8794  0.8496 -1.9720
  692MOL0     H93390   0.333   5.034   1.963 -2.1137 -1.3840  0.3668
  692MOL0     H93391   0.325   5.205   2.016 -0.0933 -1.0417  0.1981
  692MOL0     H93392   0.132   4.986   2.131  4.7351 -1.0707  1.8371
  692MOL0     H93393   0.102   5.155   2.141 -3.7049 -2.4177  0.4543
  692MOL0     H93394   0.096   5.026   1.873 -1.2053  0.0465 -0.7329
  692MOL0     H93395   0.080   5.194   1.908  3.3388 -2.0780 -1.5446
  692MOL0     H93396  -0.119   5.005   2.037 -1.4543 -0.9321 -1.8053
  692MOL0     H93397  -0.130   5.182   2.025 -1.4760  0.7129 -0.7702
  692MOL0     H93398  -0.092   5.033   1.765 -0.7689 -3.0454  1.0122
  692MOL0     H93399  -0.165   5.198   1.807 -3.1982 -0.2239  0.1899
  692MOL0     H93400  -0.352   5.096   1.907  0.6250  0.5641  0.9207
  692MOL0     H93401  -0.280   4.937   1.864 -0.6026  0.7851  1.1463
  692MOL0     H93402   0.748   4.929   2.064 -1.1883 -1.3166  0.6129
  692MOL0     H93403   1.010   4.920   2.070 -0.2038 -1.7279  0.5742
  692MOL0     H93404   1.400   4.954   2.188 -1.0100  3.2800 -1.9731
  692MOL0     H93405   1.636   5.003   2.196  1.1180  0.8872  0.7998
  692MOL0     H93406   3.197   6.159   2.388  0.3060  0.4157  0.5839
  692MOL0     H93407   3.399   6.289   2.441  1.1896 -1.5260  1.8579
  692MOL0     H93408   3.785   6.450   2.367 -1.6420 -3.6484 -1.7341
  692MOL0     H93409   4.012   6.567   2.397 -0.4801  0.0210  1.1705
  692MOL0     H93410   4.236   6.651   2.474 -1.5267  1.0110  0.5542
  692MOL0     H93411   4.184   6.580   2.633 -0.0730 -1.7672  0.2974
  692MOL0     H93412   4.384   6.721   2.618  2.9829 -0.4796  1.5275
  692MOL0     H93413   4.470   6.596   2.532 -2.2743 -1.8183 -1.9958
  692MOL0     H93414   4.475   6.458   2.706  0.0623  0.7895 -2.5756
  692MOL0     H93415   4.351   6.539   2.808  0.9095 -0.3792  0.9688
  692MOL0     H93416   4.485   6.725   2.835  1.2243 -0.6445  1.1388
  692MOL0     H93417   4.616   6.647   2.732  1.1689 -0.8643  0.8616
  692MOL0     H93418   4.663   6.424   3.083 -0.7455 -0.6519 -1.1240
  692MOL0     H93419   4.163   6.193   2.555  0.5132  1.0027 -0.4781
  692MOL0     H93420   3.942   6.094   2.543  0.6142  1.0369  1.6673
  693MOL0     O93421   2.057   0.224  11.101  0.3458  0.5990  0.2652
  693MOL0     C93422   2.057   0.095  11.124  0.1180  0.3027 -0.8415
  693MOL0     O93423   1.954   0.021  11.178  0.2064 -0.2034 -0.3721
  693MOL0     C93424   1.839   0.093  11.211 -0.0833  0.1665 -0.3186
  693MOL0     C93425   1.804   0.117  11.346  0.2010  0.4388  0.2469
  693MOL0     C93426   1.678   0.172  11.384 -0.4665 -0.2100 -0.3631
  693MOL0     C93427   1.584   0.195  11.285  0.5475 -0.7549  0.9513
  693MOL0     O93428   1.465   0.250  11.328 -0.0285 -0.2837  0.0334
  693MOL0     C93429   1.349   0.207  11.257 -0.6084 -0.6989  0.3800
  693MOL0     C93430   1.232   0.245  11.356 -1.0548  0.0601 -0.4816
  693MOL0     C93431   1.099   0.166  11.329 -0.4142  0.3680 -0.1387
  693MOL0     C93432   0.988   0.247  11.375  0.1652 -0.0610 -0.9300
  693MOL0     C93433   0.858   0.161  11.361  0.5264 -0.3874 -0.5113
  693MOL0     C93434   0.748   0.218  11.463  0.2771 -0.5874 -0.4057
  693MOL0     C93435   0.617   0.191  11.390  0.0118 -0.6847 -0.3730
  693MOL0     C93436   0.492   0.222  11.471 -0.9258  0.9182 -0.2042
  693MOL0     N93437   0.366   0.229  11.397 -0.9633 -0.0860  0.8529
  693MOL0     C93438   0.314   0.347  11.333  0.0733  0.0647  0.7333
  693MOL0     C93439   0.202   0.304  11.276 -0.2888 -0.6678  0.0193
  693MOL0     C93440   0.121   0.389  11.183 -0.3651  0.5048  0.2628
  693MOL0     C93441   0.185   0.382  11.044  0.8880  0.2182  0.2013
  693MOL0     C93442   0.149   0.492  10.938 -0.9369  0.5705  0.1718
  693MOL0     C93443   0.004   0.482  10.908 -0.1294 -0.8338  0.5057
  693MOL0     O93444  -0.039   0.360  10.861  0.2120 -0.0439  0.1387
  693MOL0     C93445  -0.175   0.323  10.857 -1.0628 -0.0483 -0.5810
  693MOL0     C93446  -0.187   0.192  10.812  0.8706 -0.3891 -0.1850
  693MOL0     C93447  -0.318   0.138  10.797  0.4136 -0.6234  0.6063
  693MOL0     C93448  -0.334   0.002  10.739 -0.3260  0.3218  1.0579
  693MOL0     C93449  -0.433   0.220  10.813  0.2647 -0.0567  0.2641
  693MOL0     C93450  -0.575   0.172  10.790  0.6173 -0.1225  0.0069
  693MOL0     O93451  -0.667   0.259  10.751  0.3675  0.3502  0.0664
  693MOL0     C93452  -0.798   0.221  10.734  0.1994  0.5687  0.2422
  693MOL0     C93453  -0.896   0.251  10.832 -0.1117  1.0420  0.7518
  693MOL0     C93454  -1.035   0.216  10.808  0.0209 -0.5376 -0.8775
  693MOL0     C93455  -1.068   0.147  10.688 -0.4658  0.4577  0.7754
  693MOL0     O93456  -1.201   0.117  10.669  0.1193  0.5587  0.0521
  693MOL0     C93457  -1.248   0.167  10.543 -0.4433 -0.2240  0.7871
  693MOL0     C93458  -1.400   0.171  10.522  0.2274  0.7679  0.1903
  693MOL0     C93459  -1.454   0.029  10.541  0.6144 -0.1293 -1.0641
  693MOL0     C93460  -1.607   0.019  10.524  0.5586  0.3673 -0.6867
  693MOL0     C93461  -1.654  -0.118  10.570 -0.1009 -0.1988  0.3123
  693MOL0     C93462  -1.805  -0.141  10.558  0.4760 -0.0535 -0.2403
  693MOL0     C93463  -1.888  -0.030  10.633  0.0479  0.2226 -0.2927
  693MOL0     C93464  -2.042  -0.051  10.620  0.4574 -0.1354 -0.3399
  693MOL0    Cl93465  -2.093  -0.196  10.717  0.1219 -0.4211  0.1954
  693MOL0     C93466  -0.972   0.103  10.597 -1.1267  0.6013  0.1828
  693MOL0     C93467  -0.840   0.150  10.619  0.3246 -0.3002  0.5806
  693MOL0     O93468  -0.603   0.063  10.828 -0.6695 -0.3864  0.1805
  693MOL0     C93469  -0.412   0.345  10.855 -0.5447  0.0375  0.8398
  693MOL0     C93470  -0.289   0.400  10.875 -0.3666 -0.0849 -0.3986
  693MOL0     N93471   0.175   0.173  11.309 -0.3102  0.0412 -0.2797
  693MOL0     N93472   0.277   0.128  11.383 -0.0067  0.1955 -1.1162
  693MOL0     C93473   1.612   0.153  11.148 -0.0044 -0.7411 -0.3211
  693MOL0     C93474   1.740   0.117  11.110 -0.4877  0.3441  0.2400
  693MOL0     C93475   2.186   0.023  11.090 -0.1670  0.0712  0.2371
  693MOL0     C93476   2.300   0.099  11.058 -0.2977 -0.4148  0.6987
  693MOL0     C93477   2.419   0.035  11.015 -0.0925 -0.0329  0.8071
  693MOL0     C93478   2.435  -0.106  11.034  0.3532 -0.3740  0.5069
  693MOL0     O93479   2.548  -0.184  11.018 -0.8418  0.0779  0.3384
  693MOL0     C93480   2.678  -0.124  11.036  0.4616 -0.0969 -0.0465
  693MOL0     C93481   2.728  -0.156  11.173 -0.0071  0.3963 -0.9390
  693MOL0     C93482   2.645  -0.109  11.299 -0.2451 -0.5139  0.6581
  693MOL0     C93483   2.723  -0.132  11.432 -0.1714  0.1343 -0.0614
  693MOL0     C93484   2.729  -0.277  11.478  0.7499 -0.0095  0.4290
  693MOL0     C93485   2.722  -0.391  11.517  0.5616 -0.0974 -0.4796
  693MOL0     C93486   2.314  -0.175  11.065  0.3987 -0.7764  0.6707
  693MOL0     C93487   2.189  -0.119  11.084 -0.3154 -0.1440  0.4404
  693MOL0     H93488   1.881   0.088  11.416 -1.0708 -0.0027  1.5105
  693MOL0     H93489   1.669   0.194  11.490  3.0831 -0.7472  0.1938
  693MOL0     H93490   1.338   0.270  11.169  3.4945  0.0887  0.2194
  693MOL0     H93491   1.348   0.100  11.234  1.1997 -0.6609 -0.0546
  693MOL0     H93492   1.263   0.232  11.460  1.4438 -0.1428 -1.2035
  693MOL0     H93493   1.206   0.350  11.340 -0.4994  0.4107  0.7984
  693MOL0     H93494   1.091   0.155  11.221  0.6837 -1.3791 -0.0902
  693MOL0     H93495   1.096   0.073  11.387 -1.0129  1.5915  1.9019
  693MOL0     H93496   0.995   0.271  11.482 -1.8785 -0.1530 -0.7407
  693MOL0     H93497   0.981   0.342  11.321 -2.3180 -0.3651 -1.2627
  693MOL0     H93498   0.829   0.156  11.256 -0.3233  1.2781 -0.3742
  693MOL0     H93499   0.880   0.061  11.401 -2.3121 -0.6605  0.5611
  693MOL0     H93500   0.755   0.161  11.556  1.0457  1.5260  0.9072
  693MOL0     H93501   0.755   0.327  11.477 -2.7277 -0.4278  0.4986
  693MOL0     H93502   0.611   0.252  11.299 -0.6153  0.6168  0.5142
  693MOL0     H93503   0.622   0.085  11.364  0.0364 -1.1961  1.6215
  693MOL0     H93504   0.503   0.315  11.527  1.1312 -1.1013  3.0602
  693MOL0     H93505   0.479   0.139  11.542 -1.9797  1.3395  0.1265
  693MOL0     H93506   0.358   0.446  11.325 -0.7691  0.3654 -0.4641
  693MOL0     H93507   0.016   0.359  11.183  0.2292 -1.7745 -0.9161
  693MOL0     H93508   0.134   0.492  11.218 -1.3728  0.2025  1.6082
  693MOL0     H93509   0.167   0.284  10.998 -4.1550  1.9488 -2.1427
  693MOL0     H93510   0.290   0.405  11.068  0.8474  0.3569  0.2396
  693MOL0     H93511   0.199   0.472  10.842 -1.0295  3.1811 -0.4878
  693MOL0     H93512   0.185   0.587  10.978  2.5583 -0.4284 -0.2590
  693MOL0     H93513  -0.025   0.572  10.852 -0.2009  0.8115  3.0169
  693MOL0     H93514  -0.048   0.512  10.999  1.4642  0.4597  1.0282
  693MOL0     H93515  -0.091   0.143  10.795  1.7228  1.3829 -0.7313
  693MOL0     H93516  -0.239  -0.048  10.715  0.6493  1.8506  1.5984
  693MOL0     H93517  -0.385  -0.059  10.814 -0.9069 -0.3037  0.1726
  693MOL0     H93518  -0.401   0.018  10.654 -0.7700  0.8088  1.4940
  693MOL0     H93519  -0.856   0.303  10.917 -0.0790 -0.4626  1.6896
  693MOL0     H93520  -1.113   0.243  10.879  0.2629 -1.0143 -0.4103
  693MOL0     H93521  -1.228   0.275  10.542 -2.7039  0.2781  1.6442
  693MOL0     H93522  -1.192   0.117  10.465  1.7613  3.0174  0.0785
  693MOL0     H93523  -1.459   0.232  10.591  0.8458  1.3510  0.2141
  693MOL0     H93524  -1.426   0.210  10.424 -1.1693 -1.4468 -0.3907
  693MOL0     H93525  -1.416  -0.010  10.636  0.2562 -1.6697 -1.5281
  693MOL0     H93526  -1.414  -0.038  10.465 -0.2528  0.4122 -2.0217
  693MOL0     H93527  -1.654   0.099  10.583 -1.8008 -2.7389  1.9671
  693MOL0     H93528  -1.629   0.033  10.417  1.1154 -0.6385 -0.9405
  693MOL0     H93529  -1.625  -0.121  10.676  0.7376  1.6772  0.1882
  693MOL0     H93530  -1.605  -0.197  10.513  2.5642  0.5051  1.4430
  693MOL0     H93531  -1.826  -0.141  10.451  1.2066  4.2202 -0.5863
  693MOL0     H93532  -1.817  -0.236  10.611 -1.1686  1.7097  2.8816
  693MOL0     H93533  -1.870   0.074  10.603  1.5782  0.5164  1.4428
  693MOL0     H93534  -1.856  -0.021  10.738 -0.6644  2.9066 -0.2316
  693MOL0     H93535  -2.078  -0.064  10.517 -0.2156 -2.6275  0.1449
  693MOL0     H93536  -2.088   0.045  10.643  1.1398  0.3760 -1.0378
  693MOL0     H93537  -0.996   0.048  10.507  3.6281 -1.2481 -0.2133
  693MOL0     H93538  -0.767   0.124  10.544  0.9788 -1.4877  1.6048
  693MOL0     H93539  -0.504   0.402  10.871 -1.0224 -0.3013 -0.5584
  693MOL0     H93540  -0.288   0.505  10.902 -2.0009 -0.2353  0.3278
  693MOL0     H93541   1.542   0.161  11.066 -0.4013 -0.2655  0.0621
  693MOL0     H93542   1.775   0.088  11.011  3.1756  1.0185  1.1875
  693MOL0     H93543   2.286   0.206  11.051  1.3163 -0.1784  0.6126
  693MOL0     H93544   2.504   0.096  10.986  0.9390 -1.2904  1.0923
  693MOL0     H93545   2.749  -0.150  10.957 -0.3454 -0.3505 -0.6879
  693MOL0     H93546   2.671  -0.015  11.043  0.6881 -0.0920  0.1278
  693MOL0     H93547   2.831  -0.120  11.170  0.2376 -0.3685 -3.2178
  693MOL0     H93548   2.738  -0.262  11.200 -0.1941  1.2354  3.1530
  693MOL0     H93549   2.544  -0.152  11.301 -0.8327  0.6472 -1.2764
  693MOL0     H93550   2.631  -0.001  11.292  0.1158 -0.5470 -1.2499
  693MOL0     H93551   2.678  -0.077  11.515 -1.4028 -2.1304  0.8510
  693MOL0     H93552   2.822  -0.095  11.406 -0.2459 -0.9115 -2.0033
  693MOL0     H93553   2.726  -0.489  11.561 -1.3885 -0.1666 -0.3537
  693MOL0     H93554   2.317  -0.284  11.063 -1.7210 -0.8822  0.8273
  693MOL0     H93555   2.100  -0.176  11.108 -0.3955 -0.2816 -0.1792
  694MOL0     O93556   1.058   9.078   2.202 -0.2957  0.2405  0.1408
  694MOL0     C93557   1.072   9.002   2.296 -0.3126 -0.1046  0.4296
  694MOL0     O93558   0.978   8.940   2.372 -0.6317  0.4300 -0.4533
  694MOL0     C93559   0.857   8.897   2.332 -0.4027 -1.2448  0.7054
  694MOL0     C93560   0.794   8.800   2.415 -0.4394  0.5589  0.6719
  694MOL0     C93561   0.682   8.730   2.372  0.1187  0.5614  0.2841
  694MOL0     C93562   0.630   8.755   2.240  1.4094 -0.5470 -0.2646
  694MOL0     O93563   0.523   8.674   2.200 -0.6576  0.6618  0.3559
  694MOL0     C93564   0.498   8.661   2.057 -0.5116 -0.4232  0.5811
  694MOL0     C93565   0.404   8.544   2.039  0.1395  0.6630  0.3801
  694MOL0     C93566   0.266   8.574   2.105  0.1260 -1.0924 -0.1174
  694MOL0     C93567   0.157   8.508   2.011 -0.5937  0.8608  0.2445
  694MOL0     C93568   0.023   8.522   2.065  0.2233 -0.9681 -1.2542
  694MOL0     C93569  -0.086   8.493   1.964  0.2609 -0.3571  0.2668
  694MOL0     C93570  -0.221   8.525   2.021 -0.8243  0.1643 -0.4391
  694MOL0     C93571  -0.327   8.467   1.919 -0.4527 -0.6740 -0.1580
  694MOL0     N93572  -0.468   8.476   1.970 -0.0103  0.1024 -0.3178
  694MOL0     C93573  -0.562   8.376   1.979  0.1938  0.9429  0.1239
  694MOL0     C93574  -0.678   8.431   2.017  0.1420 -0.5084 -0.3712
  694MOL0     C93575  -0.802   8.359   2.056 -0.4729  0.1844 -0.4991
  694MOL0     C93576  -0.934   8.417   2.011 -0.2221  1.0691 -0.1507
  694MOL0     C93577  -1.047   8.348   2.078  0.4740 -0.0144  0.4692
  694MOL0     C93578  -1.185   8.402   2.051 -0.8450 -0.6556 -0.3675
  694MOL0     O93579  -1.282   8.333   2.139 -0.0796 -0.3235 -0.6135
  694MOL0     C93580  -1.411   8.331   2.099  0.3290 -0.4258 -0.1559
  694MOL0     C93581  -1.467   8.315   1.962 -0.3454 -0.2604 -0.1837
  694MOL0     C93582  -1.605   8.302   1.954 -0.1501 -2.0569 -0.8085
  694MOL0     C93583  -1.662   8.307   1.814  0.5606  0.3389  0.1390
  694MOL0     C93584  -1.686   8.299   2.076  0.1433 -0.8609 -0.2731
  694MOL0     C93585  -1.833   8.292   2.074 -0.6324  0.5320 -0.0940
  694MOL0     O93586  -1.900   8.285   2.194 -0.0216  0.3764  0.1389
  694MOL0     C93587  -2.035   8.297   2.176 -0.4784  0.6414  1.3781
  694MOL0     C93588  -2.097   8.421   2.165 -0.3592 -0.0109  1.1112
  694MOL0     C93589  -2.236   8.422   2.170  0.2385  0.0772 -1.1181
  694MOL0     C93590  -2.314   8.310   2.196 -0.6125 -0.4538 -0.2393
  694MOL0     O93591  -2.447   8.304   2.221 -0.4106 -0.1452  0.1402
  694MOL0     C93592  -2.521   8.402   2.153 -0.7812  0.5950 -0.1556
  694MOL0     C93593  -2.655   8.346   2.144  0.3670  0.2535 -0.0047
  694MOL0     C93594  -2.718   8.341   2.287  0.6335 -0.3304  0.2958
  694MOL0     C93595  -2.864   8.299   2.268  0.3893 -0.5876  0.9061
  694MOL0     C93596  -2.945   8.277   2.394  0.1860 -0.1596 -0.0531
  694MOL0     C93597  -3.087   8.236   2.376  0.0254  0.2171  0.4639
  694MOL0     C93598  -3.162   8.266   2.495 -0.2727 -0.0526 -0.5876
  694MOL0     C93599  -3.309   8.209   2.499  0.1796  0.6313 -0.6468
  694MOL0    Cl93600  -3.317   8.123   2.658 -0.1683 -0.4714  0.4970
  694MOL0     C93601  -2.248   8.189   2.194 -0.4307 -0.3352  0.7155
  694MOL0     C93602  -2.111   8.184   2.172  1.1992 -0.0846 -0.8072
  694MOL0     O93603  -1.892   8.282   1.967  0.1861  0.4509 -0.6580
  694MOL0     C93604  -1.626   8.312   2.201  0.0883  0.9423  0.1218
  694MOL0     C93605  -1.492   8.319   2.212  0.4044  1.1534  0.1511
  694MOL0     N93606  -0.666   8.567   2.007 -0.1718  0.4331  0.2310
  694MOL0     N93607  -0.536   8.588   1.989 -0.4768  0.0809 -1.0590
  694MOL0     C93608   0.689   8.850   2.158  0.2202  0.2818  0.3968
  694MOL0     C93609   0.802   8.927   2.202  0.1409  0.0229 -0.4026
  694MOL0     C93610   1.212   8.975   2.339  0.5277 -0.3014 -0.1575
  694MOL0     C93611   1.233   8.920   2.464 -0.4602  0.0942 -0.1996
  694MOL0     C93612   1.362   8.892   2.510  0.5332 -0.4109  0.5300
  694MOL0     C93613   1.468   8.941   2.444  0.4693 -0.1892 -0.9625
  694MOL0     O93614   1.591   8.919   2.510 -0.2769  0.1916  0.0640
  694MOL0     C93615   1.668   9.037   2.546 -0.4019 -0.3438  0.2975
  694MOL0     C93616   1.644   9.088   2.693 -0.4158  0.3955  0.7910
  694MOL0     C93617   1.710   9.003   2.807  0.2865 -0.1178 -0.2067
  694MOL0     C93618   1.697   9.069   2.949 -0.0594 -0.2445 -0.2227
  694MOL0     C93619   1.812   9.031   3.029  0.1548 -0.3319 -0.4412
  694MOL0     C93620   1.921   9.011   3.079 -0.5141 -0.7306 -0.3669
  694MOL0     C93621   1.449   8.989   2.318 -0.0786  0.0071 -0.0550
  694MOL0     C93622   1.320   9.004   2.265 -0.0696 -0.3949  0.4670
  694MOL0     H93623   0.849   8.783   2.508  0.8304  2.6376  0.3714
  694MOL0     H93624   0.638   8.663   2.446 -0.1638 -2.3222 -2.2978
  694MOL0     H93625   0.464   8.755   2.014  0.9162 -1.1363 -2.3265
  694MOL0     H93626   0.590   8.628   2.008 -0.6435 -2.0483  1.3412
  694MOL0     H93627   0.395   8.513   1.935  0.6135 -1.4351  0.9190
  694MOL0     H93628   0.453   8.464   2.094  1.5190  1.7820  0.8333
  694MOL0     H93629   0.263   8.542   2.209 -1.0522  1.6387  0.7938
  694MOL0     H93630   0.249   8.682   2.105  2.0931 -0.7289  1.2825
  694MOL0     H93631   0.152   8.566   1.918  1.6058  0.7234 -0.0132
  694MOL0     H93632   0.184   8.403   2.002  0.4472  1.2754 -2.2712
  694MOL0     H93633   0.009   8.469   2.159  2.0424  0.2770 -0.2405
  694MOL0     H93634   0.019   8.629   2.085 -0.8492 -1.3774  1.1258
  694MOL0     H93635  -0.079   8.565   1.882 -0.2192  0.1291  0.6430
  694MOL0     H93636  -0.075   8.390   1.931  0.9930  0.4818 -2.3472
  694MOL0     H93637  -0.234   8.472   2.116 -1.9363  0.6031 -0.3294
  694MOL0     H93638  -0.234   8.630   2.046  2.8960  0.5098  0.5481
  694MOL0     H93639  -0.303   8.363   1.898 -0.4369 -0.7239  0.0960
  694MOL0     H93640  -0.313   8.527   1.828 -0.2916 -0.6673 -0.1299
  694MOL0     H93641  -0.558   8.267   1.972 -2.9068  0.6469  1.3423
  694MOL0     H93642  -0.796   8.256   2.019 -0.1680  0.4041 -1.0686
  694MOL0     H93643  -0.803   8.347   2.165  0.8082 -2.6079 -0.6912
  694MOL0     H93644  -0.944   8.409   1.902  1.1514  0.2703 -0.2315
  694MOL0     H93645  -0.937   8.521   2.046 -0.0893  0.3572  2.0843
  694MOL0     H93646  -1.034   8.344   2.187 -0.6705 -2.8542  0.5747
  694MOL0     H93647  -1.043   8.247   2.036 -0.1069  0.0554  0.2435
  694MOL0     H93648  -1.211   8.392   1.945 -0.1928 -3.3530 -0.3455
  694MOL0     H93649  -1.187   8.509   2.070 -0.2186 -0.5398 -0.9092
  694MOL0     H93650  -1.398   8.309   1.879  2.1228  0.0387  1.7366
  694MOL0     H93651  -1.737   8.228   1.801  0.9423 -0.3942  2.0224
  694MOL0     H93652  -1.714   8.402   1.804  3.6984  2.5134  2.4265
  694MOL0     H93653  -1.594   8.305   1.728  1.5794  0.5288  0.9177
  694MOL0     H93654  -2.039   8.512   2.150 -0.1884 -0.2796  0.0602
  694MOL0     H93655  -2.278   8.522   2.160 -1.4850 -0.4634  0.3426
  694MOL0     H93656  -2.512   8.501   2.199  3.6274  0.4618 -0.2903
  694MOL0     H93657  -2.481   8.415   2.052  1.3551 -1.0026  0.4177
  694MOL0     H93658  -2.712   8.419   2.087  0.6048  1.0745  0.7846
  694MOL0     H93659  -2.651   8.254   2.085  0.2513 -0.2775  0.7885
  694MOL0     H93660  -2.716   8.443   2.328  0.7818 -0.3682  0.3808
  694MOL0     H93661  -2.667   8.272   2.353  2.3257  0.9682  0.4080
  694MOL0     H93662  -2.926   8.358   2.199  1.4466  0.7511  1.0473
  694MOL0     H93663  -2.866   8.205   2.213 -0.6545 -0.5760  0.8958
  694MOL0     H93664  -2.936   8.366   2.456  0.6039  0.4090 -0.8997
  694MOL0     H93665  -2.898   8.188   2.437  1.6124 -1.1607 -3.3486
  694MOL0     H93666  -3.130   8.295   2.294  1.0558 -2.3118 -2.0544
  694MOL0     H93667  -3.093   8.130   2.351 -3.2118  0.1319  1.2628
  694MOL0     H93668  -3.163   8.371   2.526  3.4376  0.1519 -0.6062
  694MOL0     H93669  -3.110   8.211   2.575  0.1585 -0.7769 -1.3426
  694MOL0     H93670  -3.340   8.130   2.429  0.0364 -1.2577  1.4573
  694MOL0     H93671  -3.379   8.291   2.483 -1.9237 -1.2741 -1.9994
  694MOL0     H93672  -2.307   8.098   2.192 -1.5863  0.3864  0.9806
  694MOL0     H93673  -2.057   8.091   2.160  0.0420 -0.5981 -2.2152
  694MOL0     H93674  -1.691   8.304   2.288  0.7561  1.6999  0.7146
  694MOL0     H93675  -1.445   8.315   2.310 -0.3608 -0.5679  0.4796
  694MOL0     H93676   0.649   8.861   2.058 -2.2030 -1.3705  1.0869
  694MOL0     H93677   0.851   8.987   2.126 -0.9163 -2.7575 -3.5487
  694MOL0     H93678   1.161   8.898   2.541  0.3251 -4.3145 -0.4329
  694MOL0     H93679   1.378   8.849   2.608  0.3784 -2.3802 -0.2671
  694MOL0     H93680   1.775   9.020   2.536 -0.2429  1.3278 -1.5258
  694MOL0     H93681   1.645   9.121   2.480  1.5802 -0.2192 -0.2869
  694MOL0     H93682   1.535   9.095   2.697 -0.3755  3.5301 -0.5009
  694MOL0     H93683   1.690   9.187   2.686  0.3198 -0.0173 -0.7735
  694MOL0     H93684   1.817   8.993   2.783  0.5481  2.3282 -0.3283
  694MOL0     H93685   1.654   8.910   2.816 -2.7053  1.6471  1.1113
  694MOL0     H93686   1.606   9.032   2.998 -0.6082  1.3811  0.0256
  694MOL0     H93687   1.697   9.176   2.928 -0.1166 -0.9090 -4.2490
  694MOL0     H93688   2.018   8.996   3.121 -0.8347  1.2881  1.2490
  694MOL0     H93689   1.543   9.017   2.271 -0.1977 -1.5498 -1.3054
  694MOL0     H93690   1.294   9.052   2.172 -1.3496 -0.6782  0.6637
  695MOL0     O93691   6.132   5.905   0.390  0.2546 -0.4425  0.2550
  695MOL0     C93692   6.183   6.015   0.378  0.1033  0.3985  0.0281
  695MOL0     O93693   6.126   6.132   0.431 -0.0592 -0.3841  0.1311
  695MOL0     C93694   6.006   6.128   0.501  0.2259 -0.5903  0.7488
  695MOL0     C93695   5.995   6.220   0.608 -0.1450  0.1288 -0.0522
  695MOL0     C93696   5.873   6.246   0.676  0.2223 -0.0177 -0.0858
  695MOL0     C93697   5.754   6.182   0.636  0.0155 -0.4251  0.6295
  695MOL0     O93698   5.647   6.200   0.710  0.1412 -0.0448  0.6180
  695MOL0     C93699   5.521   6.141   0.675 -0.4604  0.2832  0.0290
  695MOL0     C93700   5.417   6.177   0.780 -0.4899 -0.1075  0.0053
  695MOL0     C93701   5.269   6.149   0.738 -0.0743  0.1309  0.3601
  695MOL0     C93702   5.191   6.102   0.867 -0.1876  0.8745  0.4809
  695MOL0     C93703   5.043   6.112   0.833  0.0370 -1.1214  0.4405
  695MOL0     C93704   4.958   6.049   0.941  0.1239 -0.3506  0.0776
  695MOL0     C93705   4.807   6.058   0.901 -0.5783 -0.8813 -0.5124
  695MOL0     C93706   4.724   5.982   0.995 -0.2036  0.4058  0.0009
  695MOL0     N93707   4.590   5.948   0.957  0.2760  0.1869  0.4930
  695MOL0     C93708   4.503   6.027   0.888 -1.1059 -0.6744 -0.1216
  695MOL0     C93709   4.375   5.979   0.910 -0.6019  0.3057  0.5201
  695MOL0     C93710   4.247   6.048   0.864  0.4392 -0.0002  0.1645
  695MOL0     C93711   4.200   6.164   0.963  0.0166 -0.1639  0.1263
  695MOL0     C93712   4.155   6.119   1.104  0.3220  0.4811  0.4720
  695MOL0     C93713   3.998   6.114   1.106  0.6391  0.2728 -0.0568
  695MOL0     O93714   3.942   6.059   0.988 -0.4693  0.1434  0.3952
  695MOL0     C93715   3.817   6.116   0.959  0.1988 -0.4056 -0.4261
  695MOL0     C93716   3.795   6.109   0.826  0.4438  0.7755 -0.1240
  695MOL0     C93717   3.676   6.153   0.765 -0.1888 -0.2449  0.1208
  695MOL0     C93718   3.663   6.115   0.622  0.0005  0.4747  0.4326
  695MOL0     C93719   3.584   6.224   0.856 -0.0320  1.0953  0.7639
  695MOL0     C93720   3.445   6.266   0.818 -0.6931  0.9368  0.5514
  695MOL0     O93721   3.364   6.314   0.919 -0.2786  0.4408  0.0390
  695MOL0     C93722   3.229   6.333   0.896  0.9585  0.1851 -0.1191
  695MOL0     C93723   3.162   6.392   1.012  0.1145 -0.0836  0.4877
  695MOL0     C93724   3.022   6.404   0.998 -0.1179 -0.3900  0.7357
  695MOL0     C93725   2.952   6.368   0.880 -0.4605 -0.0054 -0.3481
  695MOL0     O93726   2.821   6.400   0.883 -0.1905 -1.4839 -0.2608
  695MOL0     C93727   2.760   6.426   0.758 -1.2435 -1.4111  0.3062
  695MOL0     C93728   2.645   6.514   0.799  1.7063  0.0697  0.2713
  695MOL0     C93729   2.550   6.440   0.900  0.0949 -0.0375  0.0486
  695MOL0     C93730   2.454   6.542   0.978  0.5798 -0.7695  1.3227
  695MOL0     C93731   2.359   6.467   1.062 -0.1716  0.3826 -0.4119
  695MOL0     C93732   2.214   6.511   1.046  0.4788 -0.2590 -0.6739
  695MOL0     C93733   2.130   6.423   1.135  0.4585 -0.3864 -0.0071
  695MOL0     C93734   1.986   6.458   1.144  0.5582 -0.5922  0.4985
  695MOL0    Cl93735   1.910   6.373   1.273 -0.0337 -0.2882 -0.2887
  695MOL0     C93736   3.023   6.319   0.770  0.4996 -0.2731 -0.1292
  695MOL0     C93737   3.158   6.302   0.784  0.1304  0.2690  0.7160
  695MOL0     O93738   3.426   6.273   0.694 -0.5623  0.0089  0.8212
  695MOL0     C93739   3.612   6.237   0.993 -0.3308  0.2524 -0.3940
  695MOL0     C93740   3.724   6.174   1.048  0.1707  0.6127  0.2111
  695MOL0     N93741   4.393   5.864   0.990 -0.0537 -0.3771 -0.1368
  695MOL0     N93742   4.514   5.863   1.027  0.1228  0.5101  0.0745
  695MOL0     C93743   5.771   6.087   0.527 -0.1307 -0.5428  0.7449
  695MOL0     C93744   5.890   6.071   0.456 -0.2444 -0.0764 -0.0634
  695MOL0     C93745   6.312   6.006   0.315 -0.1338 -0.3114 -0.6486
  695MOL0     C93746   6.374   6.127   0.275  0.0787  0.2779  0.2725
  695MOL0     C93747   6.497   6.120   0.209  0.4169  0.0598  0.7706
  695MOL0     C93748   6.552   5.993   0.169  0.5054 -0.3031 -0.4602
  695MOL0     O93749   6.667   5.989   0.083  0.0103 -0.2267 -0.7874
  695MOL0     C93750   6.724   5.865   0.039  0.2317 -0.2178 -0.0371
  695MOL0     C93751   6.854   5.886  -0.034  0.2717 -0.3519 -0.2284
  695MOL0     C93752   6.835   5.957  -0.166 -0.5869  1.2316  0.2571
  695MOL0     C93753   6.962   5.924  -0.254  1.1074 -0.0419 -0.0122
  695MOL0     C93754   7.071   6.007  -0.203 -0.7501 -0.1283 -0.7459
  695MOL0     C93755   7.151   6.100  -0.178  0.2679  0.0109 -0.1143
  695MOL0     C93756   6.488   5.884   0.206 -0.3921  0.8059 -0.3281
  695MOL0     C93757   6.370   5.889   0.277 -0.4011  0.1761  0.1965
  695MOL0     H93758   6.088   6.271   0.633  1.4961 -2.5720 -0.1747
  695MOL0     H93759   5.882   6.319   0.756  1.1388  0.7328 -0.8576
  695MOL0     H93760   5.490   6.180   0.578  0.1342  2.6721  0.7371
  695MOL0     H93761   5.524   6.032   0.661 -0.9387 -0.0733  2.2413
  695MOL0     H93762   5.456   6.117   0.863  2.8635  2.1098  0.2346
  695MOL0     H93763   5.424   6.285   0.793 -0.4923  0.2850 -2.7075
  695MOL0     H93764   5.231   6.239   0.688  1.2696  0.8257  0.5463
  695MOL0     H93765   5.255   6.076   0.657 -2.2022  0.6160  0.2304
  695MOL0     H93766   5.211   5.998   0.894 -1.9773  0.6310  0.9951
  695MOL0     H93767   5.216   6.167   0.952  0.2693  0.9127  0.3220
  695MOL0     H93768   5.014   6.217   0.824  0.1246 -1.1235  0.1378
  695MOL0     H93769   5.025   6.056   0.741 -0.4785 -1.2596  0.6269
  695MOL0     H93770   4.981   5.943   0.953  0.9088 -0.1096  0.8062
  695MOL0     H93771   4.977   6.108   1.031 -1.1955  1.6021 -0.8556
  695MOL0     H93772   4.776   6.163   0.899  0.2465 -0.6348 -0.9178
  695MOL0     H93773   4.802   6.007   0.805 -0.2312 -1.2968 -0.3145
  695MOL0     H93774   4.727   6.040   1.088 -1.0292  2.5419 -1.2251
  695MOL0     H93775   4.771   5.885   1.015 -1.4235 -0.5533 -1.5092
  695MOL0     H93776   4.528   6.117   0.833  1.6433  0.3207  2.4928
  695MOL0     H93777   4.246   6.088   0.763 -0.8057  0.1663  0.2224
  695MOL0     H93778   4.170   5.970   0.863  0.3137  0.0995 -2.3348
  695MOL0     H93779   4.116   6.223   0.926 -0.0174  1.7022  2.8796
  695MOL0     H93780   4.282   6.232   0.986  0.3462 -0.8427  1.0191
  695MOL0     H93781   4.192   6.181   1.186 -1.7061  0.4439  1.5023
  695MOL0     H93782   4.176   6.013   1.122 -2.6805  0.0212  2.1309
  695MOL0     H93783   3.963   6.216   1.121 -0.0522  0.2213 -1.1880
  695MOL0     H93784   3.974   6.055   1.195 -0.8745  0.8703 -0.0448
  695MOL0     H93785   3.874   6.070   0.761 -1.2025  0.4087 -1.9941
  695MOL0     H93786   3.731   6.033   0.596  1.6464  1.6960  0.7620
  695MOL0     H93787   3.559   6.090   0.601 -0.0023  1.0663 -0.3137
  695MOL0     H93788   3.682   6.205   0.563  0.5540 -0.1962 -0.4414
  695MOL0     H93789   3.224   6.425   1.095 -0.0852 -0.5607  0.8310
  695MOL0     H93790   2.971   6.455   1.079  0.7388 -2.0615  2.4196
  695MOL0     H93791   2.822   6.486   0.691 -0.7132  0.3862  2.3133
  695MOL0     H93792   2.731   6.333   0.707  0.3866 -1.8362  0.1003
  695MOL0     H93793   2.688   6.607   0.839  3.3589 -0.7498  0.4990
  695MOL0     H93794   2.591   6.536   0.707 -0.5060  0.9553  1.7132
  695MOL0     H93795   2.614   6.388   0.972 -0.1633  2.9777  2.6781
  695MOL0     H93796   2.491   6.364   0.849 -0.3398  0.0396  0.4249
  695MOL0     H93797   2.521   6.609   1.032  0.5153  1.7992 -1.5206
  695MOL0     H93798   2.400   6.617   0.920 -0.5174 -1.5559  1.3010
  695MOL0     H93799   2.394   6.486   1.163  2.4434  1.4211 -1.4383
  695MOL0     H93800   2.371   6.359   1.049  2.3619  0.6356 -0.7051
  695MOL0     H93801   2.207   6.614   1.083  1.4462 -0.4340  0.0307
  695MOL0     H93802   2.179   6.504   0.943 -1.3940 -2.3966  0.0298
  695MOL0     H93803   2.168   6.413   1.237  1.3029 -0.2273 -0.2963
  695MOL0     H93804   2.137   6.319   1.102  0.6316 -0.8835  1.5029
  695MOL0     H93805   1.943   6.440   1.045  0.2163 -0.3951  0.6074
  695MOL0     H93806   1.954   6.562   1.158  0.2459 -0.6455  0.1949
  695MOL0     H93807   2.984   6.288   0.674  1.7075 -0.4716 -0.5704
  695MOL0     H93808   3.205   6.257   0.697  0.6519  0.5088  0.8687
  695MOL0     H93809   3.543   6.273   1.069  1.6044 -0.6418  1.9130
  695MOL0     H93810   3.747   6.163   1.154  2.6795  3.6482  0.1362
  695MOL0     H93811   5.685   6.042   0.480 -2.0662  1.7229  1.9148
  695MOL0     H93812   5.902   6.007   0.369 -0.3557 -0.5186  0.2448
  695MOL0     H93813   6.328   6.224   0.291 -3.0526 -0.5994 -2.4594
  695MOL0     H93814   6.566   6.202   0.191 -0.7965  1.9625  3.9421
  695MOL0     H93815   6.754   5.798   0.121  0.6269  0.2060  0.1696
  695MOL0     H93816   6.648   5.810  -0.016  2.2049 -3.6540  0.3446
  695MOL0     H93817   6.892   5.787  -0.064  3.3037  0.5980  0.1441
  695MOL0     H93818   6.922   5.944   0.028 -0.5375 -2.2434  2.6305
  695MOL0     H93819   6.831   6.066  -0.151  3.0375  1.5525 -0.1615
  695MOL0     H93820   6.742   5.921  -0.210  2.1586 -3.2520 -2.7207
  695MOL0     H93821   6.953   5.944  -0.361  0.8587  2.9560  0.4948
  695MOL0     H93822   6.990   5.818  -0.256  1.7250  0.0869  1.0985
  695MOL0     H93823   7.224   6.176  -0.162 -0.8297  1.2600 -0.8063
  695MOL0     H93824   6.524   5.782   0.193 -0.2191  1.0979 -2.2752
  695MOL0     H93825   6.317   5.797   0.298  0.7114 -0.0027  2.6057
  696MOL0     O93826   0.114   0.166   5.005  0.5889 -0.0716 -0.2100
  696MOL0     C93827   0.173   0.130   4.908 -0.1554 -0.3573 -0.3323
  696MOL0     O93828   0.115   0.069   4.803 -0.4481  0.1749  0.2463
  696MOL0     C93829  -0.001   0.010   4.825  0.9910 -0.2194  0.1514
  696MOL0     C93830  -0.011  -0.083   4.923  0.2026  0.1936 -0.4225
  696MOL0     C93831  -0.131  -0.154   4.935 -0.0428  0.5110 -0.2008
  696MOL0     C93832  -0.244  -0.133   4.854  1.0058  0.4437 -0.4044
  696MOL0     O93833  -0.362  -0.203   4.880 -0.2994  0.1048 -0.3268
  696MOL0     C93834  -0.472  -0.159   4.793 -0.0210 -0.4573 -0.3771
  696MOL0     C93835  -0.586  -0.257   4.809  0.1036 -0.4885  0.1888
  696MOL0     C93836  -0.635  -0.276   4.946 -0.4356  0.5092  0.1770
  696MOL0     C93837  -0.734  -0.395   4.965 -0.3794 -0.5493  0.5573
  696MOL0     C93838  -0.874  -0.363   4.905 -0.2559  0.3035 -0.2509
  696MOL0     C93839  -0.977  -0.474   4.933  0.3433  0.1365 -0.1299
  696MOL0     C93840  -1.115  -0.408   4.928 -0.4653 -0.3598 -0.2613
  696MOL0     C93841  -1.211  -0.508   4.978  0.1240  0.2156  0.3333
  696MOL0     N93842  -1.342  -0.465   4.924  0.0353  0.4551  0.3896
  696MOL0     C93843  -1.429  -0.546   4.851 -0.3085  1.4477 -0.0793
  696MOL0     C93844  -1.548  -0.485   4.850 -0.4173 -0.6466 -0.0885
  696MOL0     C93845  -1.686  -0.548   4.819 -0.4523  0.1901 -0.0133
  696MOL0     C93846  -1.800  -0.441   4.806 -0.3919 -0.2718 -0.7905
  696MOL0     C93847  -1.933  -0.503   4.824  0.1761  0.4325 -0.1478
  696MOL0     C93848  -2.037  -0.390   4.811  0.0303  0.5283 -0.5412
  696MOL0     O93849  -2.163  -0.440   4.849  0.1537  0.1377 -0.7484
  696MOL0     C93850  -2.270  -0.357   4.838  0.0562  0.0493  0.1625
  696MOL0     C93851  -2.265  -0.222   4.852  0.6374 -0.2699 -0.1640
  696MOL0     C93852  -2.384  -0.141   4.840  0.0088  0.5013  0.5560
  696MOL0     C93853  -2.376   0.009   4.858 -0.5471  0.9573  0.0825
  696MOL0     C93854  -2.516  -0.204   4.817  0.0713 -0.0331 -0.3516
  696MOL0     C93855  -2.643  -0.123   4.823  0.0883 -0.5939 -0.5536
  696MOL0     O93856  -2.656  -0.018   4.922  0.1059  0.2309  0.1132
  696MOL0     C93857  -2.782   0.035   4.927 -0.1877 -0.5428  0.0145
  696MOL0     C93858  -2.846   0.118   4.830 -0.2864 -0.3389  0.2349
  696MOL0     C93859  -2.966   0.169   4.863  0.0585  0.5831 -0.3803
  696MOL0     C93860  -3.047   0.130   4.974 -0.0407  0.2381 -0.8030
  696MOL0     O93861  -3.173   0.169   4.986  0.5164  0.6189 -0.4887
  696MOL0     C93862  -3.262   0.055   5.019  0.2450  0.1320  0.0652
  696MOL0     C93863  -3.399   0.078   4.957  0.6230 -0.7347 -0.6951
  696MOL0     C93864  -3.461   0.218   4.977 -0.3728  0.1977 -0.3499
  696MOL0     C93865  -3.524   0.222   5.119  0.8702  0.3441  0.1307
  696MOL0     C93866  -3.619   0.348   5.133 -1.5861  0.1265 -0.1374
  696MOL0     C93867  -3.772   0.321   5.097 -0.3670 -0.2283 -0.1289
  696MOL0     C93868  -3.843   0.239   5.206 -0.1977 -0.2538  0.2373
  696MOL0     C93869  -3.994   0.212   5.197  0.0538 -0.0624  0.8801
  696MOL0    Cl93870  -4.029   0.109   5.054  0.0900 -0.5459  0.0504
  696MOL0     C93871  -2.990   0.056   5.074 -0.5533  0.3361 -0.2375
  696MOL0     C93872  -2.854   0.007   5.049 -0.1189 -0.2037  0.2166
  696MOL0     O93873  -2.735  -0.156   4.748  0.0541 -0.0286 -0.3990
  696MOL0     C93874  -2.510  -0.343   4.793  0.2364  0.3441 -0.9507
  696MOL0     C93875  -2.388  -0.422   4.809 -0.9374 -1.0721 -0.1746
  696MOL0     N93876  -1.536  -0.360   4.918 -0.7951 -0.0695 -0.1935
  696MOL0     N93877  -1.412  -0.353   4.959 -0.4151 -0.1719 -0.5983
  696MOL0     C93878  -0.230  -0.042   4.755 -0.0057 -0.1247 -0.3754
  696MOL0     C93879  -0.112   0.036   4.744 -0.3342 -0.3424  0.0158
  696MOL0     C93880   0.315   0.171   4.892  0.4248  0.3667  0.0679
  696MOL0     C93881   0.389   0.136   4.777  0.7679 -1.4328  0.3890
  696MOL0     C93882   0.524   0.174   4.770 -0.4456 -0.5305 -0.1817
  696MOL0     C93883   0.581   0.257   4.868 -0.0792  0.3485  0.3170
  696MOL0     O93884   0.721   0.286   4.864  0.4605 -0.0446  0.0045
  696MOL0     C93885   0.767   0.399   4.924 -0.6267  0.0401 -0.1677
  696MOL0     C93886   0.894   0.447   4.859 -0.7919  0.5177 -0.4324
  696MOL0     C93887   1.008   0.353   4.901 -0.8277  0.1567 -0.0215
  696MOL0     C93888   1.144   0.397   4.837 -0.9008 -0.6282  0.0716
  696MOL0     C93889   1.251   0.297   4.864 -0.5476 -0.4333 -0.8537
  696MOL0     C93890   1.342   0.224   4.899  0.8766 -0.0220 -0.5179
  696MOL0     C93891   0.502   0.315   4.965 -0.4253  0.5179 -0.1144
  696MOL0     C93892   0.374   0.270   4.976 -0.0165  0.4125 -0.6423
  696MOL0     H93893   0.077  -0.117   4.976 -2.0010 -1.2451  2.6146
  696MOL0     H93894  -0.128  -0.224   5.018  0.0259  0.5747 -0.1489
  696MOL0     H93895  -0.511  -0.059   4.817 -0.5535 -0.5954 -0.6518
  696MOL0     H93896  -0.448  -0.176   4.688 -3.1822 -1.1638 -1.0966
  696MOL0     H93897  -0.668  -0.223   4.745  0.6032 -2.2779 -1.4861
  696MOL0     H93898  -0.537  -0.351   4.784  2.4316  0.1958  1.8497
  696MOL0     H93899  -0.551  -0.314   5.005  1.2996  1.6902 -1.3805
  696MOL0     H93900  -0.661  -0.177   4.985 -2.0008  0.9543 -1.8633
  696MOL0     H93901  -0.698  -0.487   4.918 -0.4769  0.3563 -1.3602
  696MOL0     H93902  -0.745  -0.413   5.072  3.1516 -2.8045  0.7403
  696MOL0     H93903  -0.908  -0.271   4.952  1.0308  0.1444  1.0911
  696MOL0     H93904  -0.870  -0.356   4.796  1.7241 -5.6733 -0.9543
  696MOL0     H93905  -0.969  -0.555   4.861 -0.9567  2.0645 -2.5930
  696MOL0     H93906  -0.950  -0.507   5.034 -3.7206  0.5543  1.2986
  696MOL0     H93907  -1.121  -0.313   4.981  1.4594  2.8048 -4.9603
  696MOL0     H93908  -1.128  -0.394   4.820  1.2776 -0.4957 -0.5116
  696MOL0     H93909  -1.222  -0.513   5.087  2.5418 -0.0926  0.6042
  696MOL0     H93910  -1.191  -0.609   4.943 -2.5823  0.5432 -2.5917
  696MOL0     H93911  -1.419  -0.646   4.808 -1.0148  2.9719 -4.3067
  696MOL0     H93912  -1.683  -0.603   4.724 -0.2843  0.2147 -0.0230
  696MOL0     H93913  -1.696  -0.622   4.898  1.8164  0.6254  0.7476
  696MOL0     H93914  -1.791  -0.385   4.712  4.3373  0.5400 -0.1209
  696MOL0     H93915  -1.785  -0.359   4.878  0.0050  0.9106 -2.1640
  696MOL0     H93916  -1.955  -0.548   4.921  0.8530 -1.9208 -1.0053
  696MOL0     H93917  -1.953  -0.585   4.754 -1.1977  0.6831 -0.0847
  696MOL0     H93918  -2.034  -0.363   4.705 -0.4274 -0.7484 -0.9066
  696MOL0     H93919  -2.011  -0.304   4.873 -1.1696  1.9018 -1.8427
  696MOL0     H93920  -2.172  -0.174   4.880 -0.9223  1.2267  2.9198
  696MOL0     H93921  -2.460   0.063   4.813 -1.1305 -1.6570 -2.2375
  696MOL0     H93922  -2.381   0.035   4.964 -0.1459 -1.2272  0.6712
  696MOL0     H93923  -2.283   0.034   4.807 -1.2028 -1.0217 -2.2758
  696MOL0     H93924  -2.802   0.146   4.734 -4.2951  1.8309 -1.1863
  696MOL0     H93925  -3.020   0.236   4.797  0.8576  2.4166  0.7711
  696MOL0     H93926  -3.223  -0.046   5.005  1.4263  0.6237 -0.2742
  696MOL0     H93927  -3.273   0.064   5.128 -1.2455  2.4821 -0.1967
  696MOL0     H93928  -3.381   0.068   4.850  0.0953  0.5148 -0.9124
  696MOL0     H93929  -3.468   0.006   5.004  0.1412  0.3825  0.3639
  696MOL0     H93930  -3.538   0.245   4.904 -0.4161  0.2033 -0.3028
  696MOL0     H93931  -3.384   0.296   4.973 -1.2659  1.0837 -0.8198
  696MOL0     H93932  -3.581   0.130   5.135  0.9254  0.4407  0.8965
  696MOL0     H93933  -3.445   0.230   5.194  0.1705 -1.1166  1.0562
  696MOL0     H93934  -3.587   0.427   5.065 -0.4574 -0.0232  0.2042
  696MOL0     H93935  -3.601   0.387   5.234  1.9415  1.7518 -1.2310
  696MOL0     H93936  -3.829   0.413   5.084 -0.0751 -0.1818 -1.1900
  696MOL0     H93937  -3.782   0.275   4.998 -2.0848 -0.1728  0.0006
  696MOL0     H93938  -3.816   0.314   5.281  0.2034 -0.3189  0.1612
  696MOL0     H93939  -3.786   0.148   5.227  0.0093  0.2418  2.0154
  696MOL0     H93940  -4.050   0.305   5.186  0.6099  0.0493 -1.4244
  696MOL0     H93941  -4.029   0.156   5.284 -0.6253  1.2290  1.4627
  696MOL0     H93942  -3.048   0.035   5.164 -2.1379  0.1678 -1.2561
  696MOL0     H93943  -2.817  -0.068   5.119 -0.7262 -1.6021 -0.9173
  696MOL0     H93944  -2.602  -0.393   4.766  0.3067  0.7121 -1.9102
  696MOL0     H93945  -2.398  -0.528   4.787 -1.6950 -0.8269 -1.0855
  696MOL0     H93946  -0.308  -0.011   4.687  0.1253 -0.2245 -0.5735
  696MOL0     H93947  -0.108   0.118   4.673 -1.9918  0.1549  0.4398
  696MOL0     H93948   0.361   0.074   4.693  0.6768  1.0666 -1.5453
  696MOL0     H93949   0.589   0.131   4.695  0.7454  2.9687 -1.3460
  696MOL0     H93950   0.699   0.484   4.913  1.5645  1.7202 -1.7147
  696MOL0     H93951   0.791   0.382   5.029 -2.1798 -2.3739 -0.1332
  696MOL0     H93952   0.905   0.544   4.909 -2.6264  2.0276 -2.6856
  696MOL0     H93953   0.890   0.459   4.750  1.2553  0.2969 -0.5548
  696MOL0     H93954   0.986   0.252   4.866  0.0019 -0.1990  0.4373
  696MOL0     H93955   1.024   0.361   5.009 -0.2438 -0.5223 -0.0505
  696MOL0     H93956   1.178   0.488   4.886  1.8307 -2.5039  1.9762
  696MOL0     H93957   1.130   0.407   4.729  2.8554 -0.1904 -0.4907
  696MOL0     H93958   1.427   0.164   4.923 -0.2755 -1.3356  0.4832
  696MOL0     H93959   0.531   0.393   5.034 -0.0613  0.7160 -0.4835
  696MOL0     H93960   0.320   0.301   5.064  1.2608 -0.4456  0.4857
  697MOL0     O93961   4.462  11.065   9.072 -0.0791  0.0103 -0.3965
  697MOL0     C93962   4.509  11.125   8.975  0.4629 -0.0991 -0.3769
  697MOL0     O93963   4.446  11.143   8.852 -0.7319 -0.1754  0.5540
  697MOL0     C93964   4.309  11.131   8.833 -0.1327 -0.8433 -0.6263
  697MOL0     C93965   4.270  11.071   8.716 -0.7287  0.5496 -1.0509
  697MOL0     C93966   4.137  11.048   8.686 -0.5542  0.5679 -0.1808
  697MOL0     C93967   4.033  11.111   8.765 -0.5175  0.0194 -1.0444
  697MOL0     O93968   3.902  11.106   8.730 -0.6662  0.3383  1.3464
  697MOL0     C93969   3.872  11.113   8.585 -0.3517  0.3103  0.8926
  697MOL0     C93970   3.785  10.999   8.542 -0.0340  0.0594  0.3577
  697MOL0     C93971   3.633  11.003   8.589  0.0780 -0.2170 -0.0217
  697MOL0     C93972   3.563  10.868   8.573  0.6680 -0.3730  0.1962
  697MOL0     C93973   3.409  10.891   8.605  0.2614 -0.3032  0.6371
  697MOL0     C93974   3.334  10.973   8.500 -0.1256  0.5554  0.0372
  697MOL0     C93975   3.184  10.939   8.511  0.7021 -0.4907 -0.5391
  697MOL0     C93976   3.118  10.998   8.634  0.7933  0.5371 -0.3230
  697MOL0     N93977   2.975  10.970   8.627  0.1588 -0.2969 -0.2218
  697MOL0     C93978   2.919  10.840   8.613  0.7410  0.1401  0.4590
  697MOL0     C93979   2.787  10.863   8.590 -0.0529  0.0323 -0.9415
  697MOL0     C93980   2.687  10.760   8.564  0.8173  0.1829 -0.2110
  697MOL0     C93981   2.546  10.814   8.541 -0.5581 -0.7582 -0.5491
  697MOL0     C93982   2.441  10.697   8.542  0.2522  1.1322  0.0207
  697MOL0     C93983   2.298  10.753   8.528  0.8732 -0.0768  0.4146
  697MOL0     O93984   2.219  10.647   8.472 -0.8225  0.1161  0.2739
  697MOL0     C93985   2.083  10.668   8.481 -0.0160 -0.2076  0.0230
  697MOL0     C93986   2.025  10.794   8.443 -0.8476 -0.7284  0.0971
  697MOL0     C93987   1.890  10.817   8.445 -0.0791  0.6440 -0.4394
  697MOL0     C93988   1.834  10.947   8.389  0.4206 -0.3637 -0.2683
  697MOL0     C93989   1.799  10.712   8.477 -0.8449  1.0257 -0.2311
  697MOL0     C93990   1.655  10.729   8.495 -0.2099 -0.0453  0.6419
  697MOL0     O93991   1.579  10.611   8.487  0.1989 -0.5554 -0.0642
  697MOL0     C93992   1.443  10.605   8.474 -0.4293 -0.3393  0.4623
  697MOL0     C93993   1.353  10.673   8.563 -0.1316 -0.1069  0.6003
  697MOL0     C93994   1.214  10.664   8.540 -0.0985 -0.2994 -0.2494
  697MOL0     C93995   1.160  10.587   8.443  0.6207 -0.3135  0.6858
  697MOL0     O93996   1.025  10.583   8.439  0.0678  0.4168 -0.6394
  697MOL0     C93997   0.948  10.535   8.323  0.5351  0.4963 -0.3551
  697MOL0     C93998   0.829  10.624   8.297 -0.0328 -0.7478 -0.7688
  697MOL0     C93999   0.877  10.755   8.232  0.1951 -0.0152 -0.4541
  697MOL0     C94000   0.923  10.767   8.080 -0.1133  0.6354  0.2495
  697MOL0     C94001   0.834  10.687   7.978 -0.7210  0.5954 -0.2868
  697MOL0     C94002   0.868  10.712   7.828  0.2284  0.2248  0.1260
  697MOL0     C94003   1.000  10.638   7.803 -0.4545 -0.5234  0.0975
  697MOL0     C94004   1.020  10.633   7.650  0.1072 -0.2758 -0.0820
  697MOL0    Cl94005   1.176  10.557   7.635 -0.0570 -0.1741  0.1189
  697MOL0     C94006   1.246  10.512   8.354  0.2465 -0.0357 -0.3526
  697MOL0     C94007   1.380  10.522   8.375 -0.3156 -0.1631  1.0920
  697MOL0     O94008   1.607  10.837   8.531  0.0027  0.4594  0.4461
  697MOL0     C94009   1.855  10.589   8.522  0.8624 -0.2579  0.0426
  697MOL0     C94010   1.995  10.567   8.516  0.3341  1.4285  0.3332
  697MOL0     N94011   2.775  11.005   8.588  0.3458 -0.0066 -0.2411
  697MOL0     N94012   2.878  11.065   8.599 -0.8680  1.4937 -0.0893
  697MOL0     C94013   4.078  11.177   8.884 -0.3345  0.4203  0.2805
  697MOL0     C94014   4.211  11.179   8.922  0.0627  0.5586 -0.5472
  697MOL0     C94015   4.645  11.185   8.997 -0.1427 -0.7455 -0.4925
  697MOL0     C94016   4.706  11.272   8.910  0.2344 -0.2919  0.3254
  697MOL0     C94017   4.838  11.314   8.921  0.4470 -0.2562 -0.0619
  697MOL0     C94018   4.918  11.279   9.033 -0.0581  0.0423  0.0158
  697MOL0     O94019   5.051  11.320   9.038  0.0900  0.1623 -0.3596
  697MOL0     C94020   5.125  11.300   9.161  0.3119 -0.1863  0.3419
  697MOL0     C94021   5.259  11.355   9.153 -0.1176  0.5898 -0.3799
  697MOL0     C94022   5.321  11.338   9.005  0.7678  0.4169 -0.7614
  697MOL0     C94023   5.457  11.396   8.981  0.7747  0.8654 -0.1237
  697MOL0     C94024   5.499  11.354   8.846  0.9952  0.4937 -0.3106
  697MOL0     C94025   5.516  11.312   8.733  0.4311 -0.7043 -0.1342
  697MOL0     C94026   4.853  11.199   9.123  0.1110  0.4206 -0.4972
  697MOL0     C94027   4.726  11.154   9.104 -0.6881 -0.5384  0.5293
  697MOL0     H94028   4.338  11.026   8.644  0.1241  1.8162 -1.0594
  697MOL0     H94029   4.109  10.990   8.599  0.0393  1.9721 -1.3457
  697MOL0     H94030   3.829  11.209   8.556 -0.5268 -1.0512 -4.2532
  697MOL0     H94031   3.961  11.105   8.523 -1.2975 -2.4387 -0.2923
  697MOL0     H94032   3.780  10.989   8.433 -2.2132 -2.0507  0.5688
  697MOL0     H94033   3.836  10.914   8.589  1.1404 -0.0910 -1.1040
  697MOL0     H94034   3.635  11.013   8.698  3.6138 -0.8474  0.0825
  697MOL0     H94035   3.584  11.088   8.541 -0.0286  0.3740  1.0995
  697MOL0     H94036   3.572  10.834   8.470  1.2674  2.0763 -0.6234
  697MOL0     H94037   3.620  10.796   8.632  0.5612  1.2662  2.4782
  697MOL0     H94038   3.361  10.793   8.612 -0.7281  0.0480 -0.7107
  697MOL0     H94039   3.397  10.927   8.708  0.1899  0.7378  0.2766
  697MOL0     H94040   3.354  11.079   8.517 -2.6731  1.9081 -4.1083
  697MOL0     H94041   3.361  10.953   8.396  0.1137  1.7716 -0.1537
  697MOL0     H94042   3.140  10.980   8.420  1.2014 -2.6207 -1.8128
  697MOL0     H94043   3.168  10.831   8.507 -0.3646 -0.5810  2.8460
  697MOL0     H94044   3.147  11.102   8.619  1.7744  0.8898  3.1455
  697MOL0     H94045   3.156  10.968   8.732 -0.0123  1.7670  0.3819
  697MOL0     H94046   2.976  10.748   8.619 -1.3126 -1.2414 -0.3596
  697MOL0     H94047   2.724  10.698   8.482  0.0105  0.3284 -0.6904
  697MOL0     H94048   2.686  10.691   8.649 -0.2386 -2.3494 -2.1345
  697MOL0     H94049   2.523  10.867   8.448 -2.7615 -4.7933 -2.5749
  697MOL0     H94050   2.528  10.882   8.625 -3.0451  0.0090 -1.6224
  697MOL0     H94051   2.450  10.636   8.633  0.0106  0.3591 -0.4611
  697MOL0     H94052   2.458  10.634   8.455  1.9177  1.4262  0.1147
  697MOL0     H94053   2.295  10.837   8.459  0.0574  0.8023  1.4771
  697MOL0     H94054   2.247  10.788   8.619  1.9888 -0.8492  1.3730
  697MOL0     H94055   2.100  10.861   8.403  0.3993 -0.8286  2.1509
  697MOL0     H94056   1.810  11.020   8.467 -0.0238  1.3323 -1.9106
  697MOL0     H94057   1.924  10.989   8.341  2.3253 -0.1551  3.1562
  697MOL0     H94058   1.748  10.938   8.322 -0.1584 -0.4302  0.4750
  697MOL0     H94059   1.385  10.743   8.639  1.0810 -2.4825  2.4158
  697MOL0     H94060   1.161  10.734   8.604  1.7311  0.1365  0.9002
  697MOL0     H94061   1.017  10.536   8.238  2.7035  3.5312  1.2183
  697MOL0     H94062   0.917  10.435   8.353 -0.1649  0.9148  0.3680
  697MOL0     H94063   0.754  10.571   8.238  0.5023 -1.6045 -0.6937
  697MOL0     H94064   0.776  10.645   8.391  2.9282 -2.4504  1.4667
  697MOL0     H94065   0.948  10.798   8.303 -1.3655  1.2121  0.4253
  697MOL0     H94066   0.797  10.829   8.231 -0.5736 -0.7727  1.2501
  697MOL0     H94067   0.929  10.874   8.055  1.0380  0.7833  1.0406
  697MOL0     H94068   1.029  10.743   8.068 -0.0022  1.4469 -0.4710
  697MOL0     H94069   0.732  10.725   7.986 -0.6832  0.7587 -0.5712
  697MOL0     H94070   0.829  10.581   8.006 -4.0080  0.6231 -0.4426
  697MOL0     H94071   0.783  10.674   7.770  1.5611 -1.6734 -0.6789
  697MOL0     H94072   0.865  10.817   7.798 -1.3699  0.1626 -0.0521
  697MOL0     H94073   1.002  10.543   7.856 -0.3769  0.1428  1.3198
  697MOL0     H94074   1.073  10.697   7.858  1.2544  1.0010 -3.4556
  697MOL0     H94075   1.034  10.735   7.612 -4.2859  0.3581 -0.5921
  697MOL0     H94076   0.942  10.582   7.592  0.0975  0.8222 -1.0799
  697MOL0     H94077   1.221  10.446   8.271  2.9310 -1.1336 -0.4171
  697MOL0     H94078   1.445  10.465   8.309 -0.9969  0.5054 -0.1923
  697MOL0     H94079   1.784  10.515   8.560  0.4891  0.0180 -0.1079
  697MOL0     H94080   2.041  10.470   8.535  1.8078  2.2279  1.0309
  697MOL0     H94081   4.002  11.222   8.947 -0.4255 -0.3545  0.7346
  697MOL0     H94082   4.235  11.226   9.017  3.3302  2.1311 -1.9889
  697MOL0     H94083   4.657  11.290   8.815  0.7804 -0.9802 -0.0989
  697MOL0     H94084   4.863  11.387   8.844  0.4079  1.3226  1.3530
  697MOL0     H94085   5.069  11.341   9.246  0.8751  0.8573  0.2182
  697MOL0     H94086   5.141  11.193   9.179  0.9783 -0.2567 -0.6045
  697MOL0     H94087   5.315  11.290   9.220 -1.3611 -1.1613 -0.9888
  697MOL0     H94088   5.268  11.457   9.194 -2.6831  0.6180  0.3232
  697MOL0     H94089   5.254  11.402   8.947  2.1432  2.4202 -0.2540
  697MOL0     H94090   5.323  11.233   8.975  1.8622 -0.7609  2.9306
  697MOL0     H94091   5.509  11.347   9.064 -0.5046 -0.6837 -0.2039
  697MOL0     H94092   5.463  11.505   8.989  0.7476  1.1365 -2.9048
  697MOL0     H94093   5.535  11.278   8.633 -1.3179  1.8319 -1.4241
  697MOL0     H94094   4.900  11.164   9.214  1.0577  0.8660 -0.7931
  697MOL0     H94095   4.681  11.087   9.176 -0.2844 -1.4249 -0.0327
  698MOL0     O94096   3.463   8.169   6.063  0.5823 -0.0328  0.1024
  698MOL0     C94097   3.474   8.078   6.150  0.1266 -0.6281 -0.3448
  698MOL0     O94098   3.372   8.016   6.217 -0.5294  0.3249 -0.5439
  698MOL0     C94099   3.239   8.031   6.201  0.4945  0.0240  0.2706
  698MOL0     C94100   3.166   7.989   6.316 -0.2185  0.7007 -0.9582
  698MOL0     C94101   3.020   7.992   6.314 -0.2382 -0.4276 -0.5410
  698MOL0     C94102   2.950   8.021   6.197 -0.8565  0.0263  0.0334
  698MOL0     O94103   2.813   8.024   6.191  0.1463  0.2323 -0.7630
  698MOL0     C94104   2.750   8.001   6.063  1.2736 -0.6953  0.2843
  698MOL0     C94105   2.623   7.910   6.073 -0.4333  0.1098  0.4635
  698MOL0     C94106   2.500   7.969   6.149 -0.4599 -0.5960  0.1406
  698MOL0     C94107   2.399   7.857   6.157  0.1827 -0.2447 -0.2456
  698MOL0     C94108   2.269   7.918   6.207 -0.1812 -0.0903  0.0686
  698MOL0     C94109   2.153   7.833   6.164 -1.2392  0.1784 -0.1546
  698MOL0     C94110   2.013   7.874   6.222 -0.1218  0.2124 -0.8960
  698MOL0     C94111   1.988   7.821   6.371  0.9489 -0.4336  0.1659
  698MOL0     N94112   1.842   7.811   6.395 -0.0903  0.0443  0.2115
  698MOL0     C94113   1.768   7.918   6.429 -0.7635  0.0489 -0.2506
  698MOL0     C94114   1.645   7.878   6.433 -0.1122 -0.8824 -0.3457
  698MOL0     C94115   1.544   7.971   6.484  0.1863 -0.4072 -0.2926
  698MOL0     C94116   1.403   7.904   6.510 -1.0094  0.2194  0.2915
  698MOL0     C94117   1.312   8.022   6.511 -0.7242  0.0410  0.5999
  698MOL0     C94118   1.172   7.968   6.528 -0.7553 -0.2306 -0.6948
  698MOL0     O94119   1.078   8.045   6.456  0.3861  0.2326 -0.0768
  698MOL0     C94120   0.946   8.016   6.460  0.0336  0.4842 -0.0416
  698MOL0     C94121   0.862   8.104   6.385  0.2134  0.0194 -0.3986
  698MOL0     C94122   0.728   8.084   6.350  0.1933 -0.2000  0.8447
  698MOL0     C94123   0.661   8.183   6.270  0.1412 -0.3717 -0.5345
  698MOL0     C94124   0.671   7.961   6.401  0.0889 -0.7351 -0.2343
  698MOL0     C94125   0.524   7.921   6.372 -0.4401 -0.6338  1.0061
  698MOL0     O94126   0.448   7.982   6.277  0.2638  0.2653  0.2818
  698MOL0     C94127   0.312   7.971   6.276 -0.0922  0.3148  0.6719
  698MOL0     C94128   0.233   7.951   6.391 -0.5338 -0.2214 -0.8125
  698MOL0     C94129   0.096   7.932   6.386 -0.9293 -0.6357  0.7438
  698MOL0     C94130   0.033   7.934   6.263  0.0143 -0.6062  0.3611
  698MOL0     O94131  -0.102   7.937   6.257  0.1286 -0.3745 -0.3657
  698MOL0     C94132  -0.174   8.030   6.175 -0.1030 -0.5916  0.2867
  698MOL0     C94133  -0.312   7.976   6.148 -0.7674  0.1219  0.0155
  698MOL0     C94134  -0.387   7.948   6.282 -0.2780  0.0002  0.5204
  698MOL0     C94135  -0.534   7.916   6.271 -0.1093 -0.5966 -0.4469
  698MOL0     C94136  -0.581   7.866   6.402 -0.2801  0.1605 -0.6775
  698MOL0     C94137  -0.743   7.843   6.400  0.3186  0.8063 -0.4274
  698MOL0     C94138  -0.801   7.873   6.538  0.0274 -0.1522  0.5257
  698MOL0     C94139  -0.947   7.877   6.542  0.4979  0.1898 -0.8874
  698MOL0    Cl94140  -1.033   7.732   6.475 -0.3510 -0.1211  0.1861
  698MOL0     C94141   0.112   7.966   6.150 -0.3068 -0.6307  0.5750
  698MOL0     C94142   0.249   7.993   6.161  0.2435  0.5344 -0.9695
  698MOL0     O94143   0.480   7.828   6.435  0.0714  0.0289 -1.0119
  698MOL0     C94144   0.751   7.869   6.471  0.0159 -0.5892  0.7333
  698MOL0     C94145   0.887   7.894   6.499 -0.6329  0.3831  0.3173
  698MOL0     N94146   1.636   7.752   6.382 -0.1408 -0.5484 -0.8146
  698MOL0     N94147   1.760   7.708   6.364  0.0360  0.7480 -0.6131
  698MOL0     C94148   3.023   8.084   6.094 -0.8607  1.0337 -0.0288
  698MOL0     C94149   3.168   8.081   6.098  0.4248 -0.0319  0.5659
  698MOL0     C94150   3.615   8.038   6.188 -0.2035 -0.0182  0.5937
  698MOL0     C94151   3.716   8.031   6.086 -0.1204 -0.3843  0.0763
  698MOL0     C94152   3.848   7.997   6.117 -0.7854 -0.5821  0.1231
  698MOL0     C94153   3.879   7.962   6.247  0.8967  0.6118 -0.0480
  698MOL0     O94154   4.007   7.926   6.273  0.1695 -0.1538  0.2590
  698MOL0     C94155   4.056   7.932   6.405 -0.3536  0.0213 -0.0011
  698MOL0     C94156   4.208   7.930   6.407 -0.7664  0.2798  0.4377
  698MOL0     C94157   4.271   8.079   6.394 -0.1378  0.2853 -0.4816
  698MOL0     C94158   4.234   8.136   6.255  0.5449 -0.3196  0.0892
  698MOL0     C94159   4.309   8.259   6.244 -0.3071 -0.4243  0.4526
  698MOL0     C94160   4.361   8.366   6.240 -0.4149  0.1178  0.0712
  698MOL0     C94161   3.782   7.968   6.341  0.5454  0.3275  0.1869
  698MOL0     C94162   3.644   7.988   6.321  0.3211 -0.0496  0.4641
  698MOL0     H94163   3.217   7.964   6.408 -0.1947  4.7062  0.2776
  698MOL0     H94164   2.959   7.978   6.402  0.6806 -0.1615  0.1543
  698MOL0     H94165   2.740   8.099   6.015 -1.6076 -1.9069 -1.8449
  698MOL0     H94166   2.807   7.940   5.992  2.2954 -2.4781  2.5189
  698MOL0     H94167   2.597   7.904   5.967 -3.0688  0.3602  1.0195
  698MOL0     H94168   2.647   7.812   6.116 -3.9786  0.2509  3.2703
  698MOL0     H94169   2.522   8.016   6.245 -2.3892  0.4760  0.1200
  698MOL0     H94170   2.460   8.046   6.081  0.7089 -1.1640 -1.2460
  698MOL0     H94171   2.385   7.803   6.063 -3.0836 -0.2722  0.1473
  698MOL0     H94172   2.440   7.786   6.229 -0.8684  1.7794  2.5657
  698MOL0     H94173   2.261   7.928   6.316 -4.3084  0.0007 -0.0986
  698MOL0     H94174   2.253   8.018   6.165  0.1678  0.2088  0.6296
  698MOL0     H94175   2.153   7.823   6.055 -1.7673  0.5287 -0.1916
  698MOL0     H94176   2.168   7.732   6.203  0.5910  0.2037 -0.7241
  698MOL0     H94177   1.999   7.983   6.217 -3.1873 -0.0176  0.4131
  698MOL0     H94178   1.947   7.827   6.149 -2.0416  1.3534  0.0204
  698MOL0     H94179   2.029   7.892   6.443  0.3936  1.1404 -1.0363
  698MOL0     H94180   2.031   7.720   6.379 -0.5540 -1.0303  1.2525
  698MOL0     H94181   1.813   8.013   6.455 -1.4784  0.3117  0.0356
  698MOL0     H94182   1.578   8.018   6.577 -1.7167  1.2677 -0.3746
  698MOL0     H94183   1.539   8.052   6.411 -2.1899  1.4483  1.7438
  698MOL0     H94184   1.402   7.840   6.598 -1.1545 -2.2370 -1.4092
  698MOL0     H94185   1.375   7.850   6.419  0.9533 -1.3125  0.5478
  698MOL0     H94186   1.312   8.077   6.416 -2.9969  1.3530  1.2567
  698MOL0     H94187   1.326   8.095   6.591  2.5257  0.8449 -0.5466
  698MOL0     H94188   1.154   7.966   6.636  1.0296  0.9207 -0.3333
  698MOL0     H94189   1.175   7.862   6.502  2.5226 -0.4825  0.2936
  698MOL0     H94190   0.917   8.192   6.353  0.3455  0.5795  1.2698
  698MOL0     H94191   0.619   8.134   6.182  0.5387 -2.0509  0.1637
  698MOL0     H94192   0.582   8.225   6.333  0.0616 -0.0449 -0.8538
  698MOL0     H94193   0.737   8.257   6.245  0.9606 -1.4626 -1.3506
  698MOL0     H94194   0.281   7.931   6.487  2.1831  1.9280 -1.5995
  698MOL0     H94195   0.048   7.929   6.483  0.2691 -0.1181  1.3862
  698MOL0     H94196  -0.174   8.129   6.223  0.3647  0.9841 -2.6942
  698MOL0     H94197  -0.138   8.066   6.078 -0.7041  1.1844  0.6814
  698MOL0     H94198  -0.377   8.041   6.088  2.5825  1.1997 -2.7281
  698MOL0     H94199  -0.292   7.890   6.084  0.0108 -0.5494  1.1404
  698MOL0     H94200  -0.378   8.018   6.365  2.3285  0.9389 -0.4682
  698MOL0     H94201  -0.346   7.855   6.323  2.0287  0.4687 -0.6010
  698MOL0     H94202  -0.596   8.003   6.248 -0.3747  0.6015  3.9187
  698MOL0     H94203  -0.553   7.848   6.187  0.5576  1.0092 -1.9688
  698MOL0     H94204  -0.563   7.938   6.482  0.9942 -0.5625 -0.2897
  698MOL0     H94205  -0.521   7.779   6.428  0.0686  0.5287 -0.2375
  698MOL0     H94206  -0.800   7.897   6.324 -4.1642 -1.0799  1.2723
  698MOL0     H94207  -0.764   7.738   6.377 -2.4533  1.6812 -2.4287
  698MOL0     H94208  -0.763   7.970   6.571  1.5167 -1.0746  1.6577
  698MOL0     H94209  -0.761   7.792   6.600  1.7674 -0.3085 -0.7261
  698MOL0     H94210  -0.974   7.970   6.491  4.0835  2.0747  0.2885
  698MOL0     H94211  -0.983   7.878   6.645  0.4870 -1.9542 -0.8361
  698MOL0     H94212   0.068   7.967   6.051 -0.3999  4.3940  0.4087
  698MOL0     H94213   0.309   8.012   6.072  1.5987  2.5070  0.3028
  698MOL0     H94214   0.704   7.775   6.497 -1.7878  0.3386  0.9614
  698MOL0     H94215   0.947   7.812   6.535 -0.0680  1.2089  1.2805
  698MOL0     H94216   2.981   8.115   5.999  0.7415  3.3791 -0.0725
  698MOL0     H94217   3.228   8.119   6.016  1.4270 -0.2835  1.1689
  698MOL0     H94218   3.680   8.061   5.988  3.6328  2.9581 -0.5257
  698MOL0     H94219   3.928   7.991   6.045  1.0159 -0.7771  2.0563
  698MOL0     H94220   4.030   8.023   6.460  1.1920  0.3087  0.3174
  698MOL0     H94221   4.024   7.851   6.471  1.8414 -0.9731 -0.0745
  698MOL0     H94222   4.230   7.870   6.318 -2.5578 -1.0888  0.8402
  698MOL0     H94223   4.239   7.881   6.499  0.0065  0.4058  0.2485
  698MOL0     H94224   4.380   8.076   6.388 -0.2299 -1.0200 -2.5465
  698MOL0     H94225   4.238   8.145   6.475 -0.8390 -1.3548  0.6316
  698MOL0     H94226   4.127   8.157   6.262  1.0414  1.9561  2.3184
  698MOL0     H94227   4.264   8.072   6.171 -1.0024  1.1743 -1.7136
  698MOL0     H94228   4.398   8.466   6.251  0.4291 -0.2823  1.1029
  698MOL0     H94229   3.808   7.938   6.442 -1.9868  0.6823  1.0073
  698MOL0     H94230   3.571   7.974   6.400 -0.4614 -0.0110 -0.2354
  699MOL0     O94231   7.466   2.934   8.842  0.2864 -0.3291 -0.4688
  699MOL0     C94232   7.582   2.943   8.894 -0.0888 -0.4925  0.4431
  699MOL0     O94233   7.617   2.905   9.017  0.4543  0.2665  1.5808
  699MOL0     C94234   7.521   2.868   9.111  0.2195  0.1680  1.0798
  699MOL0     C94235   7.397   2.921   9.127 -0.2767  0.8425  0.2280
  699MOL0     C94236   7.311   2.878   9.232  0.2008 -1.0847  0.8200
  699MOL0     C94237   7.354   2.779   9.310  0.3958 -0.0372  0.5666
  699MOL0     O94238   7.273   2.751   9.413 -0.4255  0.4635 -0.0947
  699MOL0     C94239   7.216   2.619   9.417 -0.9111  0.2628 -1.2778
  699MOL0     C94240   7.094   2.616   9.313  0.0207 -0.1649  0.0637
  699MOL0     C94241   7.040   2.477   9.313  0.2619 -0.6358  0.1866
  699MOL0     C94242   6.921   2.472   9.214 -0.7115  0.5356 -0.1285
  699MOL0     C94243   6.798   2.540   9.278  0.4017 -0.0335  0.1982
  699MOL0     C94244   6.686   2.555   9.168  0.2738  0.4578 -0.1877
  699MOL0     C94245   6.553   2.600   9.223 -0.8084  0.1735  0.0918
  699MOL0     C94246   6.447   2.576   9.119 -0.0193  0.1922  1.0407
  699MOL0     N94247   6.316   2.619   9.174  0.0330 -0.4472  0.0849
  699MOL0     C94248   6.259   2.742   9.149 -1.1249 -0.4637 -0.4314
  699MOL0     C94249   6.140   2.743   9.216 -0.8302  0.9742 -0.3116
  699MOL0     C94250   6.038   2.849   9.206  1.0424 -0.0664 -0.1002
  699MOL0     C94251   5.888   2.800   9.233 -0.7125  0.8574  0.1008
  699MOL0     C94252   5.836   2.695   9.127  0.1050 -0.7375 -0.0032
  699MOL0     C94253   5.697   2.652   9.184  0.4121  0.3527  0.0457
  699MOL0     O94254   5.640   2.557   9.095  0.0480 -0.2559  0.1071
  699MOL0     C94255   5.502   2.534   9.093 -0.2914  0.3879 -0.0124
  699MOL0     C94256   5.448   2.454   8.993 -0.7487  0.0521 -0.1530
  699MOL0     C94257   5.320   2.422   8.985  0.2192  0.9312  0.5378
  699MOL0     C94258   5.280   2.339   8.865  0.5006 -0.8567 -0.1596
  699MOL0     C94259   5.233   2.450   9.093  0.2420  0.1382  0.0074
  699MOL0     C94260   5.094   2.420   9.108 -0.0893 -0.9637 -0.3563
  699MOL0     O94261   5.024   2.496   9.204  0.2343  0.0186  0.0113
  699MOL0     C94262   4.901   2.455   9.237 -0.5290 -0.6422  0.3506
  699MOL0     C94263   4.785   2.522   9.185  0.2110 -0.3340 -0.6253
  699MOL0     C94264   4.659   2.485   9.217 -0.2805  0.0471 -0.3333
  699MOL0     C94265   4.651   2.374   9.306 -0.0722  0.4964 -0.1444
  699MOL0     O94266   4.540   2.331   9.370  0.0051  0.3120  0.7177
  699MOL0     C94267   4.409   2.372   9.327  0.0565  0.5851 -0.0551
  699MOL0     C94268   4.328   2.247   9.335  0.4611  0.0113 -0.0414
  699MOL0     C94269   4.316   2.195   9.476  0.4245  0.5870  0.3585
  699MOL0     C94270   4.368   2.054   9.486 -0.2794  0.6660 -0.0540
  699MOL0     C94271   4.362   1.980   9.619  0.4285  0.1404  0.1192
  699MOL0     C94272   4.214   1.954   9.658  0.0111  0.4821  0.5014
  699MOL0     C94273   4.197   1.919   9.801 -0.2572 -0.1510  0.1747
  699MOL0     C94274   4.053   1.870   9.841  0.6662 -0.1399  0.4148
  699MOL0    Cl94275   3.923   1.951   9.752 -0.3563  0.1228 -0.4381
  699MOL0     C94276   4.763   2.308   9.353 -0.1555 -0.5296  0.1974
  699MOL0     C94277   4.887   2.353   9.322  0.4224  0.4249 -0.4839
  699MOL0     O94278   5.049   2.321   9.052 -0.2025 -0.2485  0.7458
  699MOL0     C94279   5.289   2.518   9.202  0.4254 -0.2059 -0.0911
  699MOL0     C94280   5.423   2.559   9.196  0.4984  0.2621 -0.3228
  699MOL0     N94281   6.132   2.618   9.283 -0.2502 -0.1276 -0.1295
  699MOL0     N94282   6.239   2.548   9.265  0.3875  0.1237 -0.0148
  699MOL0     C94283   7.472   2.708   9.286  0.3281  0.8398 -0.1427
  699MOL0     C94284   7.557   2.755   9.189 -0.1558  0.0200  0.1719
  699MOL0     C94285   7.689   2.984   8.801  0.3740 -1.0539 -0.3754
  699MOL0     C94286   7.665   3.002   8.669 -0.3361  0.3122 -0.5627
  699MOL0     C94287   7.767   3.036   8.585  0.5234  0.4639  0.2489
  699MOL0     C94288   7.895   3.055   8.636  0.4925  0.3022 -0.4153
  699MOL0     O94289   7.983   3.072   8.536 -0.6199  0.6255  0.4513
  699MOL0     C94290   8.088   3.166   8.565 -0.2016  0.8879  0.0770
  699MOL0     C94291   8.211   3.132   8.473 -0.2372  0.3528 -1.5241
  699MOL0     C94292   8.177   3.127   8.319 -0.4632 -0.8179  0.1342
  699MOL0     C94293   8.291   3.100   8.224 -0.4050 -0.0845 -0.2427
  699MOL0     C94294   8.364   3.223   8.208  0.6649 -0.4689 -0.3660
  699MOL0     C94295   8.416   3.331   8.191  1.4817 -0.4641 -0.0143
  699MOL0     C94296   7.923   3.047   8.771  0.1205 -0.1999  0.5247
  699MOL0     C94297   7.810   3.014   8.850 -0.6844  0.4823  0.2858
  699MOL0     H94298   7.367   3.006   9.067 -0.1660  1.6059  1.2166
  699MOL0     H94299   7.221   2.939   9.233  1.8044  1.5657 -1.5499
  699MOL0     H94300   7.293   2.544   9.396  0.3055  0.7182  1.1936
  699MOL0     H94301   7.180   2.589   9.516 -0.7665  2.3212 -0.5564
  699MOL0     H94302   7.029   2.696   9.351 -2.3672 -1.8698 -0.2244
  699MOL0     H94303   7.140   2.652   9.220 -1.1566  1.3027  0.0050
  699MOL0     H94304   7.108   2.396   9.281 -0.5948 -1.3752  0.2032
  699MOL0     H94305   6.996   2.457   9.411 -2.0261  0.1395 -0.6343
  699MOL0     H94306   6.946   2.531   9.125 -0.6754  1.2133  0.3256
  699MOL0     H94307   6.908   2.370   9.175 -0.3551  0.7880 -0.9361
  699MOL0     H94308   6.762   2.464   9.349 -0.3762  0.4609  0.3422
  699MOL0     H94309   6.801   2.634   9.333  1.5848 -0.5761  1.1115
  699MOL0     H94310   6.734   2.617   9.092  0.6217  0.3646 -0.0481
  699MOL0     H94311   6.688   2.458   9.117  2.3739 -0.0520  0.7262
  699MOL0     H94312   6.524   2.541   9.311  0.8460  0.1428  0.6536
  699MOL0     H94313   6.548   2.707   9.249 -1.2987  0.6261 -1.7628
  699MOL0     H94314   6.448   2.471   9.089 -1.4988  0.8358 -1.6455
  699MOL0     H94315   6.478   2.620   9.023 -2.3610  0.1022  0.1489
  699MOL0     H94316   6.294   2.813   9.074 -0.5321  1.4320  1.5514
  699MOL0     H94317   6.050   2.925   9.283  0.4938  3.3167 -3.0592
  699MOL0     H94318   6.041   2.886   9.103  3.2632 -0.9120 -0.4032
  699MOL0     H94319   5.831   2.893   9.229 -0.6210  0.9132  0.0992
  699MOL0     H94320   5.884   2.747   9.328  0.0320 -0.3850 -0.5297
  699MOL0     H94321   5.890   2.601   9.120 -1.0918 -1.5851  1.4136
  699MOL0     H94322   5.815   2.742   9.031  0.4404 -1.1884 -0.3020
  699MOL0     H94323   5.634   2.741   9.190  0.5399  0.5208 -0.9776
  699MOL0     H94324   5.719   2.606   9.281  1.8180  1.6185  0.3707
  699MOL0     H94325   5.526   2.432   8.920  0.0250  1.3917  0.2289
  699MOL0     H94326   5.181   2.368   8.829  0.9475 -0.0219 -0.7447
  699MOL0     H94327   5.350   2.347   8.782 -0.4604  0.0958 -0.9012
  699MOL0     H94328   5.261   2.232   8.883 -0.3136 -0.6917 -0.0016
  699MOL0     H94329   4.795   2.608   9.120  0.7769  1.1997  1.3665
  699MOL0     H94330   4.574   2.541   9.179 -1.9572 -0.9224  1.7832
  699MOL0     H94331   4.362   2.443   9.395 -1.4898 -0.1743 -0.2982
  699MOL0     H94332   4.410   2.406   9.223  0.9308 -0.7417 -0.5091
  699MOL0     H94333   4.233   2.283   9.294  1.4228  2.3037 -0.4330
  699MOL0     H94334   4.366   2.176   9.261  0.8330  1.8905 -1.7355
  699MOL0     H94335   4.208   2.197   9.497  0.6372  2.7473  1.4911
  699MOL0     H94336   4.367   2.262   9.546 -0.9080  1.8647  0.1512
  699MOL0     H94337   4.319   1.992   9.410 -1.9585  0.7998  0.8565
  699MOL0     H94338   4.475   2.061   9.467  0.2021  1.8229  2.5948
  699MOL0     H94339   4.412   2.039   9.697  0.7921 -0.5683  0.4286
  699MOL0     H94340   4.408   1.881   9.618 -0.0946 -0.2293  2.9912
  699MOL0     H94341   4.156   2.046   9.651 -0.6947 -0.0048 -0.2569
  699MOL0     H94342   4.164   1.878   9.598 -3.2754  1.4057  1.8400
  699MOL0     H94343   4.237   1.987   9.876 -0.5757 -2.0763  2.1783
  699MOL0     H94344   4.265   1.835   9.818  1.2425  1.2323  1.3227
  699MOL0     H94345   4.026   1.894   9.944  0.1094  0.9461  0.0382
  699MOL0     H94346   4.040   1.764   9.820  0.7479 -0.4094  1.6832
  699MOL0     H94347   4.750   2.234   9.431  3.6890  0.9380  2.5134
  699MOL0     H94348   4.970   2.306   9.374 -0.8628 -0.8753  0.4871
  699MOL0     H94349   5.225   2.568   9.274 -0.8397 -0.6567 -0.8704
  699MOL0     H94350   5.456   2.621   9.279  0.9427 -0.3147 -0.0635
  699MOL0     H94351   7.495   2.625   9.352  0.4233  0.2638 -0.8847
  699MOL0     H94352   7.645   2.701   9.156 -0.3957  0.2264 -0.8244
  699MOL0     H94353   7.567   2.978   8.628  0.1310 -0.6716 -1.1557
  699MOL0     H94354   7.747   3.045   8.478 -0.9454 -1.1253  0.3646
  699MOL0     H94355   8.049   3.265   8.539 -1.3638  0.3593 -0.2529
  699MOL0     H94356   8.113   3.157   8.671 -0.6562 -2.4268  0.0032
  699MOL0     H94357   8.231   3.025   8.486 -3.4376 -0.7036 -3.9592
  699MOL0     H94358   8.294   3.197   8.503  1.9184 -1.9357 -2.1664
  699MOL0     H94359   8.129   3.222   8.297  0.4006 -0.9177 -2.5332
  699MOL0     H94360   8.104   3.047   8.303 -0.0755 -1.0244 -0.6563
  699MOL0     H94361   8.245   3.076   8.128 -1.1173 -2.6980  0.6609
  699MOL0     H94362   8.352   3.012   8.246 -0.3965 -0.2529 -0.9320
  699MOL0     H94363   8.448   3.433   8.183  1.1587 -0.2372  1.2486
  699MOL0     H94364   8.018   3.078   8.813 -0.3823  3.3853 -0.6298
  699MOL0     H94365   7.846   3.012   8.952 -0.3382  0.5035  0.1633
  700MOL0     O94366   4.418   5.993  10.543 -0.1755 -0.2622  0.0911
  700MOL0     C94367   4.473   5.973  10.436 -0.5927  0.7146  0.6213
  700MOL0     O94368   4.417   5.968  10.308  0.7154  0.0771  0.0863
  700MOL0     C94369   4.280   5.957  10.291 -0.7770  0.2701  0.7216
  700MOL0     C94370   4.194   6.063  10.334  1.4161  0.1810  0.6800
  700MOL0     C94371   4.055   6.046  10.307  0.2919 -0.9001 -0.1322
  700MOL0     C94372   4.006   5.934  10.234 -0.9299  0.1132  0.5623
  700MOL0     O94373   3.872   5.901  10.220 -0.7160 -0.6071 -0.3100
  700MOL0     C94374   3.768   5.958  10.299 -0.2262  0.2103  0.0847
  700MOL0     C94375   3.682   6.050  10.218 -0.2062  0.2202  0.2150
  700MOL0     C94376   3.553   6.087  10.288 -0.9304 -0.1780  0.1214
  700MOL0     C94377   3.465   6.209  10.231  0.0677  0.0332  0.2515
  700MOL0     C94378   3.325   6.204  10.302 -0.7544  0.1213  0.2629
  700MOL0     C94379   3.255   6.329  10.276 -0.4378 -0.1486  0.3766
  700MOL0     C94380   3.129   6.333  10.362  0.2367 -0.4686 -1.0521
  700MOL0     C94381   3.041   6.443  10.312 -0.8720  0.7423  0.7703
  700MOL0     N94382   2.930   6.462  10.410  0.0900 -0.1614 -0.1953
  700MOL0     C94383   2.801   6.503  10.375  0.7805  0.2327 -0.4734
  700MOL0     C94384   2.750   6.564  10.487 -0.9049 -0.2375 -0.0176
  700MOL0     C94385   2.605   6.623  10.504 -0.1486 -0.3673 -0.3960
  700MOL0     C94386   2.502   6.518  10.547 -0.6337 -0.0897 -0.0009
  700MOL0     C94387   2.441   6.442  10.430  0.0504  0.3068 -0.8090
  700MOL0     C94388   2.339   6.345  10.487 -0.4868  0.5030 -0.4536
  700MOL0     O94389   2.211   6.410  10.506 -0.1186 -0.1387 -0.2351
  700MOL0     C94390   2.104   6.325  10.542  0.0648 -0.1318 -0.3112
  700MOL0     C94391   2.106   6.201  10.590  0.1037  0.5388  0.3479
  700MOL0     C94392   1.997   6.132  10.655 -0.6777 -0.0735 -0.7450
  700MOL0     C94393   2.002   5.989  10.707  0.5134 -0.3439 -0.0902
  700MOL0     C94394   1.872   6.202  10.661 -0.0649  0.0154 -0.0338
  700MOL0     C94395   1.748   6.150  10.726  0.5910 -0.5171  0.3175
  700MOL0     O94396   1.629   6.159  10.663  0.4063 -0.1970  0.5440
  700MOL0     C94397   1.505   6.141  10.729  0.5572  0.2814  0.0696
  700MOL0     C94398   1.394   6.168  10.649  0.3667 -0.0887 -0.0301
  700MOL0     C94399   1.267   6.146  10.688 -0.5146  1.0870 -0.5728
  700MOL0     C94400   1.237   6.079  10.812 -0.0165  0.3832 -0.0343
  700MOL0     O94401   1.111   6.045  10.857 -0.3641  0.8571 -0.1571
  700MOL0     C94402   1.000   6.078  10.771  0.1119 -0.2913  1.1273
  700MOL0     C94403   0.885   6.054  10.869  0.9590  0.8798 -0.2904
  700MOL0     C94404   0.772   6.145  10.830  0.2150 -0.0683  0.6838
  700MOL0     C94405   0.643   6.107  10.902 -0.0479 -0.1630  0.5341
  700MOL0     C94406   0.528   6.208  10.885 -0.0777 -0.2151 -0.5984
  700MOL0     C94407   0.396   6.175  10.962 -0.3640 -0.1309  1.0106
  700MOL0     C94408   0.409   6.224  11.108  0.4098  0.7347  0.4359
  700MOL0     C94409   0.299   6.152  11.191 -0.1138  0.8451 -0.2121
  700MOL0    Cl94410   0.286   6.219  11.354 -0.0977 -0.3559 -0.0822
  700MOL0     C94411   1.350   6.046  10.895 -0.0863 -0.6748  0.8954
  700MOL0     C94412   1.482   6.073  10.849  0.1681  0.1584 -0.8469
  700MOL0     O94413   1.764   6.103  10.833 -0.1046  0.4229  0.5051
  700MOL0     C94414   1.870   6.338  10.597 -0.0257  0.5690  0.3468
  700MOL0     C94415   1.983   6.397  10.538  0.5441 -0.4286  0.6411
  700MOL0     N94416   2.855   6.556  10.588  0.7429  0.2138  0.5296
  700MOL0     N94417   2.955   6.491  10.541  1.1779 -0.0323 -0.1853
  700MOL0     C94418   4.097   5.832  10.211 -0.0227 -0.2471 -0.5659
  700MOL0     C94419   4.232   5.845  10.235 -0.2325 -0.2854  0.8787
  700MOL0     C94420   4.619   5.959  10.434  0.0147 -0.0336  0.4292
  700MOL0     C94421   4.685   5.982  10.307 -0.5947  0.7008  0.3477
  700MOL0     C94422   4.824   5.973  10.308 -0.0008  0.5714 -0.1825
  700MOL0     C94423   4.902   5.929  10.416  0.0732 -0.1641 -0.2607
  700MOL0     O94424   5.037   5.926  10.436  0.0207 -0.2520 -1.1200
  700MOL0     C94425   5.118   5.950  10.313  0.4249  0.3166  0.7333
  700MOL0     C94426   5.274   5.970  10.333  0.0499  0.7428 -0.6674
  700MOL0     C94427   5.361   5.949  10.213  0.3156 -0.6182  0.7326
  700MOL0     C94428   5.491   6.023  10.230  0.8570  1.0826 -0.3322
  700MOL0     C94429   5.571   5.993  10.114  0.0881 -0.7615  0.2425
  700MOL0     C94430   5.635   5.962  10.018 -0.1841  0.3106 -0.2473
  700MOL0     C94431   4.824   5.902  10.531 -0.1758 -0.5817 -0.0707
  700MOL0     C94432   4.689   5.921  10.539  0.2290 -0.2856 -0.3773
  700MOL0     H94433   4.244   6.146  10.383  4.0716 -1.5803  1.1611
  700MOL0     H94434   3.988   6.129  10.328 -1.0732 -2.0553  0.2584
  700MOL0     H94435   3.706   5.875  10.335  0.7021 -1.5596 -2.1688
  700MOL0     H94436   3.817   6.011  10.381  2.9941  1.0919 -2.2008
  700MOL0     H94437   3.753   6.133  10.209  2.8415 -2.1245  1.0000
  700MOL0     H94438   3.662   6.000  10.123 -2.0218 -1.5150  1.4218
  700MOL0     H94439   3.490   5.998  10.284 -1.1447 -0.1309  1.8420
  700MOL0     H94440   3.570   6.109  10.394  0.2438  0.4406 -0.1671
  700MOL0     H94441   3.519   6.304  10.241 -0.3667  0.2654  0.4666
  700MOL0     H94442   3.455   6.204  10.122  0.3134 -0.3513  0.2468
  700MOL0     H94443   3.274   6.113  10.269  2.9302 -1.7501 -0.8986
  700MOL0     H94444   3.337   6.196  10.410  2.6503  3.0266  0.2867
  700MOL0     H94445   3.324   6.410  10.302  0.6077 -0.4810 -1.1963
  700MOL0     H94446   3.235   6.346  10.169 -0.2834  3.7041  0.8363
  700MOL0     H94447   3.081   6.235  10.361  0.4944 -0.5970 -1.4804
  700MOL0     H94448   3.158   6.356  10.464  0.9086 -1.2415 -1.0542
  700MOL0     H94449   3.009   6.407  10.214  3.6217 -2.3605  0.1252
  700MOL0     H94450   3.092   6.539  10.296 -0.5061  0.5275  0.6153
  700MOL0     H94451   2.757   6.493  10.276  2.2371 -1.3646 -0.9963
  700MOL0     H94452   2.612   6.694  10.586 -0.2054 -0.1427 -0.5852
  700MOL0     H94453   2.586   6.679  10.412  0.4947 -1.8777 -1.4997
  700MOL0     H94454   2.430   6.579  10.601 -0.1789 -0.6458  1.2848
  700MOL0     H94455   2.552   6.450  10.618 -0.2480  2.4108  2.2898
  700MOL0     H94456   2.521   6.381  10.388  0.1832  0.6392 -1.0457
  700MOL0     H94457   2.403   6.505  10.349 -1.0730  0.1462 -0.4303
  700MOL0     H94458   2.374   6.316  10.586  1.7449  2.3555 -0.6091
  700MOL0     H94459   2.323   6.262  10.418 -0.6567  0.2533 -0.1125
  700MOL0     H94460   2.197   6.144  10.573  0.7177  1.5553  0.1767
  700MOL0     H94461   2.102   5.953  10.680  0.8894 -0.4391  1.3597
  700MOL0     H94462   2.001   5.991  10.816  3.0907 -1.9380  0.0428
  700MOL0     H94463   1.928   5.920  10.664  3.3631 -4.7839  1.4494
  700MOL0     H94464   1.408   6.205  10.547 -2.4009  1.1607 -0.0665
  700MOL0     H94465   1.182   6.177  10.629 -2.4072 -1.4649  0.6482
  700MOL0     H94466   0.989   6.180  10.732 -1.4560 -1.2002 -0.9673
  700MOL0     H94467   0.990   6.013  10.684 -2.1340  0.9266  0.3997
  700MOL0     H94468   0.840   5.955  10.864 -0.9915  1.7477 -0.6626
  700MOL0     H94469   0.912   6.070  10.974 -1.3959  1.7061  0.2509
  700MOL0     H94470   0.756   6.165  10.724 -2.1023  0.7986  1.1537
  700MOL0     H94471   0.804   6.240  10.873  0.3429  0.1848  0.0459
  700MOL0     H94472   0.601   6.015  10.860 -3.1457  1.1249  0.5405
  700MOL0     H94473   0.648   6.096  11.010  0.0964  0.6172  0.6121
  700MOL0     H94474   0.506   6.212  10.779  1.1275  2.6131 -0.8367
  700MOL0     H94475   0.566   6.307  10.913 -1.0794  0.3266 -1.1134
  700MOL0     H94476   0.313   6.239  10.931 -0.1399 -0.3480 -0.0885
  700MOL0     H94477   0.373   6.068  10.954 -1.5402  0.1526  0.3517
  700MOL0     H94478   0.381   6.330  11.112  0.4919  0.8225 -0.8922
  700MOL0     H94479   0.512   6.210  11.140  0.4711 -0.0802 -0.0843
  700MOL0     H94480   0.337   6.051  11.209 -0.4733  1.0347  1.8199
  700MOL0     H94481   0.204   6.149  11.136 -0.5344  0.0280  0.5402
  700MOL0     H94482   1.338   6.013  10.997  2.3921 -1.1319  1.0824
  700MOL0     H94483   1.564   6.047  10.916 -0.9639  0.8625  0.8601
  700MOL0     H94484   1.775   6.391  10.598 -0.3806 -0.0601  0.2051
  700MOL0     H94485   1.993   6.498  10.500  0.4972 -0.4290  0.6272
  700MOL0     H94486   4.051   5.745  10.166 -0.9191 -0.3065  0.4217
  700MOL0     H94487   4.304   5.770  10.203 -0.2227  0.4661 -0.9761
  700MOL0     H94488   4.646   5.992  10.206  1.8916 -2.5459 -1.0976
  700MOL0     H94489   4.869   5.991  10.211 -3.0316 -3.1704 -2.5793
  700MOL0     H94490   5.102   5.871  10.240 -0.8283  2.2605 -1.2142
  700MOL0     H94491   5.080   6.041  10.267 -0.0679 -0.3082 -0.1316
  700MOL0     H94492   5.299   5.902  10.415 -1.4245  0.8413 -0.1014
  700MOL0     H94493   5.295   6.066  10.380  0.0718 -0.0168  0.9447
  700MOL0     H94494   5.314   5.991  10.123  2.6429 -1.8685 -1.2044
  700MOL0     H94495   5.379   5.843  10.189  3.1474  0.5101 -3.2259
  700MOL0     H94496   5.527   5.996  10.329 -0.5573 -1.0482 -0.3176
  700MOL0     H94497   5.467   6.129  10.230  4.7194  2.1057 -1.0390
  700MOL0     H94498   5.681   5.946   9.922  2.3956 -0.1791  0.9910
  700MOL0     H94499   4.871   5.851  10.614  1.1349  0.1646 -0.3281
  700MOL0     H94500   4.644   5.893  10.633  0.8197 -0.8651 -0.2597
  701MOL0     O94501   3.120   5.984   9.391  0.8550  0.0008 -0.2859
  701MOL0     C94502   3.192   6.065   9.437  0.1120 -0.3516 -1.2296
  701MOL0     O94503   3.151   6.179   9.506  0.3438 -0.1779  0.4329
  701MOL0     C94504   3.022   6.192   9.535  0.2518  0.3917 -0.0066
  701MOL0     C94505   2.951   6.289   9.466  0.1464 -0.1024 -0.8717
  701MOL0     C94506   2.811   6.302   9.488  0.3130 -0.3127  0.5329
  701MOL0     C94507   2.739   6.209   9.577 -0.3349 -0.0178 -0.6417
  701MOL0     O94508   2.599   6.212   9.602  0.1481  0.1027  0.2725
  701MOL0     C94509   2.521   6.289   9.505  0.3848 -0.1510  0.7265
  701MOL0     C94510   2.368   6.299   9.542  0.3059  0.8186 -0.6832
  701MOL0     C94511   2.297   6.167   9.536 -0.0363 -0.4413 -0.0424
  701MOL0     C94512   2.165   6.166   9.622  0.3507  0.2015  0.1482
  701MOL0     C94513   2.097   6.032   9.603 -0.2666  0.4708 -0.4766
  701MOL0     C94514   1.980   6.015   9.709  0.2175  0.0330 -0.1120
  701MOL0     C94515   1.866   5.932   9.658  0.4264 -0.2148 -0.1057
  701MOL0     C94516   1.902   5.781   9.632  0.3618 -0.9984 -0.2815
  701MOL0     N94517   1.822   5.715   9.519 -0.5256 -0.2541  0.5923
  701MOL0     C94518   1.683   5.704   9.518  0.2479  0.3701 -0.2958
  701MOL0     C94519   1.659   5.621   9.415 -0.0496  0.0966  0.1111
  701MOL0     C94520   1.523   5.572   9.370 -0.0362 -0.5507  0.7264
  701MOL0     C94521   1.466   5.454   9.458  0.2988  0.7676 -1.2636
  701MOL0     C94522   1.442   5.499   9.607 -0.2563 -0.4453 -1.2826
  701MOL0     C94523   1.335   5.612   9.630 -0.3789 -0.3972 -0.9089
  701MOL0     O94524   1.209   5.554   9.609 -0.4151 -0.8838  0.5632
  701MOL0     C94525   1.101   5.579   9.689  0.5991  0.2797  0.7777
  701MOL0     C94526   0.997   5.490   9.674  0.1094  0.0401 -0.0843
  701MOL0     C94527   0.871   5.504   9.740  0.3792 -0.2248 -0.5067
  701MOL0     C94528   0.773   5.393   9.721 -0.9446 -0.0670  0.3031
  701MOL0     C94529   0.855   5.609   9.840 -0.2269  0.0642 -0.2793
  701MOL0     C94530   0.730   5.623   9.923  0.2131 -0.3980  0.0168
  701MOL0     O94531   0.755   5.672  10.049  0.3430  0.6719 -0.0713
  701MOL0     C94532   0.641   5.683  10.136  0.1144  0.7546  0.8849
  701MOL0     C94533   0.627   5.605  10.250  0.3016  0.5267  0.4755
  701MOL0     C94534   0.515   5.612  10.334 -0.3457  0.6284  0.0960
  701MOL0     C94535   0.414   5.702  10.306 -0.3177 -0.2773  0.0548
  701MOL0     O94536   0.303   5.713  10.385  0.2175 -0.1146  0.6174
  701MOL0     C94537   0.293   5.649  10.515 -0.2997  0.0043  0.0336
  701MOL0     C94538   0.149   5.685  10.567  0.0045  0.5484 -0.3874
  701MOL0     C94539   0.131   5.696  10.719 -0.0315 -0.0732 -0.5633
  701MOL0     C94540   0.175   5.833  10.770  0.1756  0.2142 -0.6930
  701MOL0     C94541   0.138   5.852  10.922  0.5896 -1.5689  0.3886
  701MOL0     C94542   0.217   5.754  11.019 -1.2104  0.5814 -0.1637
  701MOL0     C94543   0.370   5.762  11.000 -0.0367 -0.2651 -0.0310
  701MOL0     C94544   0.427   5.639  11.057 -0.0007  0.8087 -0.5094
  701MOL0    Cl94545   0.395   5.494  10.953 -0.1082  0.0328  0.3718
  701MOL0     C94546   0.420   5.771  10.191 -0.2505 -0.3780 -0.0231
  701MOL0     C94547   0.535   5.769  10.112 -0.6454 -0.1139 -0.0102
  701MOL0     O94548   0.622   5.593   9.874  0.2358 -0.2221 -0.0560
  701MOL0     C94549   0.968   5.698   9.857 -0.3026 -0.5366  0.8501
  701MOL0     C94550   1.083   5.685   9.775  0.1789 -0.3792 -0.5096
  701MOL0     N94551   1.772   5.591   9.348 -0.7666 -0.1812  0.4362
  701MOL0     N94552   1.871   5.652   9.408 -0.3838  0.0043 -0.0572
  701MOL0     C94553   2.819   6.129   9.656 -0.5161  0.4917 -0.3683
  701MOL0     C94554   2.959   6.119   9.635 -0.1762  0.0859 -0.3263
  701MOL0     C94555   3.340   6.048   9.405  0.1099  0.0618 -0.4779
  701MOL0     C94556   3.425   6.156   9.429 -0.2445 -0.4951 -0.6380
  701MOL0     C94557   3.560   6.145   9.401 -0.4962 -0.0523 -0.1994
  701MOL0     C94558   3.618   6.025   9.335 -0.2821 -0.5118 -0.4812
  701MOL0     O94559   3.755   6.015   9.324  0.7955 -0.4074 -0.4402
  701MOL0     C94560   3.807   5.907   9.261  0.4941  0.2619  0.0989
  701MOL0     C94561   3.964   5.912   9.259  0.4938  0.3747 -0.3030
  701MOL0     C94562   4.043   5.805   9.200 -0.6972 -0.1743  0.0075
  701MOL0     C94563   4.034   5.680   9.284 -1.2146 -0.3653 -0.2647
  701MOL0     C94564   4.141   5.587   9.249 -0.8581 -0.2937  0.0530
  701MOL0     C94565   4.233   5.520   9.209  0.7017  0.0629  0.0106
  701MOL0     C94566   3.522   5.923   9.302 -0.6659 -0.3138 -0.5331
  701MOL0     C94567   3.386   5.933   9.336 -0.4809  0.9015  0.0989
  701MOL0     H94568   2.988   6.367   9.399 -1.9649 -0.3900 -2.4755
  701MOL0     H94569   2.762   6.375   9.425  1.1032 -0.3447 -0.1269
  701MOL0     H94570   2.550   6.395   9.506  0.8048 -0.0155 -3.6284
  701MOL0     H94571   2.532   6.260   9.400 -1.7274  1.8542 -0.1479
  701MOL0     H94572   2.364   6.337   9.645 -0.9441 -1.7893  0.3305
  701MOL0     H94573   2.317   6.371   9.478 -0.6476 -0.1595 -1.0435
  701MOL0     H94574   2.265   6.146   9.434  1.1479  2.7264 -1.1774
  701MOL0     H94575   2.376   6.101   9.574  2.5805  2.0732 -0.7480
  701MOL0     H94576   2.180   6.180   9.729 -1.6308 -2.3025  0.8525
  701MOL0     H94577   2.099   6.245   9.584  0.2228 -0.5345 -1.2230
  701MOL0     H94578   2.048   6.031   9.505 -4.8041  0.4531  1.5179
  701MOL0     H94579   2.169   5.949   9.608 -0.7589  0.0741  0.4904
  701MOL0     H94580   2.023   5.968   9.798 -1.5284 -0.8707  0.3039
  701MOL0     H94581   1.947   6.116   9.738 -1.8576 -0.1059 -1.7382
  701MOL0     H94582   1.791   5.939   9.738 -0.7156 -0.6689 -1.1194
  701MOL0     H94583   1.824   5.982   9.571  0.9696  1.4429  0.5547
  701MOL0     H94584   1.911   5.719   9.722  0.1720 -0.2337  0.2813
  701MOL0     H94585   2.006   5.787   9.597  0.5538  1.7521  0.5084
  701MOL0     H94586   1.611   5.746   9.587 -0.6667  0.9049 -1.5364
  701MOL0     H94587   1.455   5.658   9.366  2.1524  1.2496 -2.6059
  701MOL0     H94588   1.540   5.528   9.271 -2.4389 -3.6641  1.5217
  701MOL0     H94589   1.543   5.377   9.456 -0.5078 -0.3327  2.3573
  701MOL0     H94590   1.372   5.416   9.417 -0.6011 -1.5347  2.4656
  701MOL0     H94591   1.535   5.536   9.651 -2.1759  0.6262  2.2655
  701MOL0     H94592   1.414   5.414   9.670 -1.7180  1.9692  1.6067
  701MOL0     H94593   1.356   5.707   9.581  0.1271 -1.6293 -3.2454
  701MOL0     H94594   1.352   5.620   9.738 -0.3043 -1.5242 -0.8265
  701MOL0     H94595   0.996   5.407   9.604 -5.1289  0.8181 -1.3441
  701MOL0     H94596   0.670   5.429   9.714 -1.1306 -0.7349 -0.5125
  701MOL0     H94597   0.795   5.335   9.631 -1.7831 -0.1799  0.1652
  701MOL0     H94598   0.771   5.326   9.808 -1.0570  0.0576  0.3979
  701MOL0     H94599   0.696   5.523  10.263 -0.3917 -0.0877  0.3252
  701MOL0     H94600   0.494   5.542  10.415  1.1766 -0.3922 -0.3526
  701MOL0     H94601   0.293   5.540  10.515 -1.9604 -0.0185  0.4383
  701MOL0     H94602   0.377   5.679  10.578 -0.9596  1.4248  0.2648
  701MOL0     H94603   0.128   5.783  10.524  1.8238  0.0452 -2.5938
  701MOL0     H94604   0.077   5.620  10.518 -1.3651  0.6236  1.4184
  701MOL0     H94605   0.183   5.622  10.781 -2.3148 -0.7881  0.6083
  701MOL0     H94606   0.022   5.695  10.731 -0.0004 -0.3048 -0.2798
  701MOL0     H94607   0.283   5.850  10.761  0.4389 -0.8756  0.1498
  701MOL0     H94608   0.139   5.916  10.709  1.6660  1.6273  0.2500
  701MOL0     H94609   0.032   5.827  10.928  0.6843 -2.4143 -0.9981
  701MOL0     H94610   0.166   5.953  10.955  0.9000 -0.9226 -1.7163
  701MOL0     H94611   0.185   5.777  11.121  0.1872  1.3500  0.1250
  701MOL0     H94612   0.174   5.654  11.003 -0.0129 -0.1761  1.0864
  701MOL0     H94613   0.413   5.849  11.051 -1.8377  0.7259 -0.1145
  701MOL0     H94614   0.392   5.750  10.893 -2.1625 -4.0346 -0.2165
  701MOL0     H94615   0.373   5.620  11.150  0.4128 -2.3669 -0.8123
  701MOL0     H94616   0.535   5.648  11.074 -0.0543  2.5656 -0.9150
  701MOL0     H94617   0.340   5.841  10.166 -0.4848  0.5563  2.9126
  701MOL0     H94618   0.543   5.836  10.027 -2.4675 -2.8209 -2.5301
  701MOL0     H94619   0.961   5.778   9.930  1.6334 -1.7494  2.4520
  701MOL0     H94620   1.154   5.765   9.792 -3.5662  2.9528  1.2682
  701MOL0     H94621   2.769   6.072   9.733 -1.6321  1.5471 -0.2873
  701MOL0     H94622   3.013   6.050   9.700 -2.1184  0.3937  1.7368
  701MOL0     H94623   3.384   6.248   9.470  0.3167 -0.1053 -0.9378
  701MOL0     H94624   3.621   6.225   9.442 -1.2669  1.8669 -2.5079
  701MOL0     H94625   3.773   5.826   9.325 -1.3341 -1.1254 -2.4418
  701MOL0     H94626   3.775   5.887   9.158  0.3235 -0.7682  0.3463
  701MOL0     H94627   4.006   5.912   9.361  2.7462 -0.5509 -1.1752
  701MOL0     H94628   3.990   6.008   9.214  1.1330  0.9472  1.2024
  701MOL0     H94629   4.148   5.834   9.191  0.2708 -3.3568 -0.0807
  701MOL0     H94630   4.010   5.780   9.098  0.7713 -2.9410  0.1011
  701MOL0     H94631   3.936   5.632   9.271 -0.3231 -2.8075  1.2922
  701MOL0     H94632   4.048   5.697   9.391  1.8983 -1.2011 -0.4624
  701MOL0     H94633   4.312   5.452   9.183 -0.7182 -2.2656  1.3409
  701MOL0     H94634   3.562   5.834   9.255  0.5868  1.0042 -2.0220
  701MOL0     H94635   3.316   5.852   9.320 -1.9535  1.7540  1.8748
  702MOL0     O94636   2.838   8.508  10.705  0.1278  0.6355 -0.2154
  702MOL0     C94637   2.868   8.430  10.613 -0.1889 -0.5420  0.6300
  702MOL0     O94638   2.785   8.365  10.532  0.1471  0.6378 -0.3362
  702MOL0     C94639   2.648   8.379  10.549 -0.2439 -0.0249 -0.1967
  702MOL0     C94640   2.582   8.401  10.668 -0.4012 -1.3232  0.1623
  702MOL0     C94641   2.443   8.409  10.670  0.2876  0.0700  0.1373
  702MOL0     C94642   2.356   8.397  10.556  0.4608  0.2690  0.7430
  702MOL0     O94643   2.221   8.417  10.566 -0.2430  0.0863 -0.0556
  702MOL0     C94644   2.141   8.304  10.521 -0.2698 -0.6203 -0.3511
  702MOL0     C94645   2.170   8.167  10.577  0.4312 -0.1269  0.6209
  702MOL0     C94646   2.141   8.157  10.734 -0.0563  0.2245 -0.7496
  702MOL0     C94647   1.998   8.181  10.772  0.0732  0.0119  0.4449
  702MOL0     C94648   1.969   8.142  10.914 -0.3756 -0.0333 -0.2097
  702MOL0     C94649   1.831   8.168  10.961 -0.6764 -0.3596 -0.5516
  702MOL0     C94650   1.726   8.067  10.915 -0.5141 -0.1121  0.4909
  702MOL0     C94651   1.594   8.136  10.962  0.1766 -1.1607 -0.8195
  702MOL0     N94652   1.472   8.065  10.918 -0.3732  0.3049  0.7015
  702MOL0     C94653   1.432   7.940  10.967  0.1853 -0.2369 -0.3984
  702MOL0     C94654   1.322   7.918  10.891  0.0455  0.7873 -0.4738
  702MOL0     C94655   1.223   7.808  10.910  0.2457 -0.2946  0.6130
  702MOL0     C94656   1.136   7.822  11.039 -1.1952  0.2808 -0.1012
  702MOL0     C94657   1.055   7.694  11.061  1.1181  0.5818  0.0895
  702MOL0     C94658   0.941   7.706  11.160  0.8445  0.8212  0.2869
  702MOL0     O94659   0.926   7.568  11.192 -0.0184  0.3578 -0.1789
  702MOL0     C94660   0.809   7.543  11.257 -0.0716  0.0151 -0.1009
  702MOL0     C94661   0.739   7.627  11.343 -0.1961 -0.6644 -0.4667
  702MOL0     C94662   0.628   7.590  11.417  0.2311  0.6955 -0.0709
  702MOL0     C94663   0.545   7.683  11.502  0.5158  0.0431 -0.3568
  702MOL0     C94664   0.584   7.454  11.405  0.1276  0.5438  0.2732
  702MOL0     C94665   0.468   7.403  11.479 -0.0516 -0.4630  0.6862
  702MOL0     O94666   0.472   7.406  11.609 -0.6538 -0.4349 -0.0702
  702MOL0     C94667   0.359   7.401  11.685 -0.1048  0.4546 -0.2607
  702MOL0     C94668   0.347   7.484  11.795  0.4094  0.4434 -0.9996
  702MOL0     C94669   0.230   7.483  11.864  0.1274  0.4489 -0.0586
  702MOL0     C94670   0.131   7.383  11.844  0.1867  0.6404 -0.3853
  702MOL0     O94671   0.025   7.386  11.930 -0.1167 -0.2243 -0.1941
  702MOL0     C94672  -0.066   7.270  11.938  0.2207 -0.0776  0.1512
  702MOL0     C94673  -0.198   7.316  12.005  0.0634  0.5529 -0.1085
  702MOL0     C94674  -0.306   7.204  12.011 -0.9869 -0.1442  0.2724
  702MOL0     C94675  -0.249   7.068  12.054  0.1088 -0.3084  0.1580
  702MOL0     C94676  -0.367   6.970  12.077 -0.1192 -0.7009 -0.2416
  702MOL0     C94677  -0.435   6.990  12.209 -0.4096 -0.6396 -0.0667
  702MOL0     C94678  -0.545   6.883  12.231 -0.2966  0.0087 -0.2005
  702MOL0     C94679  -0.579   6.864  12.380  0.1100 -0.9365 -0.3126
  702MOL0    Cl94680  -0.441   6.773  12.451  0.6124 -0.1673  0.0301
  702MOL0     C94681   0.146   7.295  11.739 -0.7376  1.0982 -0.5504
  702MOL0     C94682   0.265   7.293  11.664 -0.0162 -0.2359 -0.2333
  702MOL0     O94683   0.376   7.369  11.408 -0.5353  0.5569 -0.1965
  702MOL0     C94684   0.652   7.369  11.309 -0.2214 -1.0033 -0.5499
  702MOL0     C94685   0.765   7.409  11.233  1.0436  0.1805 -0.0880
  702MOL0     N94686   1.304   8.017  10.794  0.0013  0.8165  0.4703
  702MOL0     N94687   1.395   8.101  10.808 -0.3682 -0.0191 -0.1355
  702MOL0     C94688   2.424   8.379  10.431 -0.4994  1.0577 -0.0823
  702MOL0     C94689   2.562   8.362  10.433 -1.4500  0.6511  0.3302
  702MOL0     C94690   3.007   8.408  10.580  0.6498  0.2697  0.1230
  702MOL0     C94691   3.049   8.325  10.475  0.5369 -0.5884 -0.0555
  702MOL0     C94692   3.178   8.298  10.461  0.0585  0.5518 -0.0937
  702MOL0     C94693   3.276   8.357  10.536  0.2607  0.5329  0.0223
  702MOL0     O94694   3.413   8.344  10.524  0.1505  0.7133 -0.1421
  702MOL0     C94695   3.464   8.246  10.426 -0.0818 -0.2360  0.0007
  702MOL0     C94696   3.493   8.110  10.490  0.6663 -0.2492 -0.6490
  702MOL0     C94697   3.564   8.106  10.630  0.0728 -0.5096 -0.2018
  702MOL0     C94698   3.647   7.990  10.663 -0.5875  0.8271  0.0153
  702MOL0     C94699   3.757   7.962  10.572 -0.0863 -0.1534  0.3622
  702MOL0     C94700   3.860   7.955  10.511  0.3767  0.4231  0.8990
  702MOL0     C94701   3.236   8.438  10.639 -0.0606 -0.7164 -0.1664
  702MOL0     C94702   3.107   8.465  10.660 -0.3809  0.1697 -0.4397
  702MOL0     H94703   2.630   8.427  10.761  1.2362  0.4444 -1.1060
  702MOL0     H94704   2.397   8.436  10.765  0.4611  1.2379 -0.1026
  702MOL0     H94705   2.034   8.327  10.526  0.0648  0.7196  2.9145
  702MOL0     H94706   2.157   8.295  10.413 -0.4450  0.2910 -0.4605
  702MOL0     H94707   2.112   8.096  10.518  0.7887  1.3489 -1.6157
  702MOL0     H94708   2.276   8.149  10.556  0.4987  1.7049 -0.9360
  702MOL0     H94709   2.150   8.052  10.765 -1.6967  0.1992 -0.2355
  702MOL0     H94710   2.209   8.223  10.788 -3.0514  1.2324  2.1000
  702MOL0     H94711   1.992   8.288  10.754  3.2889  0.1783 -0.1713
  702MOL0     H94712   1.941   8.120  10.701  0.1122  1.7569 -1.1654
  702MOL0     H94713   1.991   8.038  10.938  0.0837 -0.9214 -3.8731
  702MOL0     H94714   2.026   8.213  10.975 -2.5173  1.7185 -0.1200
  702MOL0     H94715   1.831   8.158  11.070  3.6374  0.0932 -0.3544
  702MOL0     H94716   1.795   8.268  10.932 -1.3043 -0.7349 -1.1100
  702MOL0     H94717   1.730   8.047  10.807  2.7052  1.2059  0.2523
  702MOL0     H94718   1.745   7.971  10.964 -0.1605 -0.2863  0.0249
  702MOL0     H94719   1.568   8.238  10.932 -1.8025 -1.1638  0.6618
  702MOL0     H94720   1.604   8.154  11.070  2.0366 -2.6820 -0.6785
  702MOL0     H94721   1.471   7.877  11.046 -1.9576 -2.2087 -0.8126
  702MOL0     H94722   1.160   7.811  10.820 -0.1059 -1.3084  0.8179
  702MOL0     H94723   1.277   7.714  10.896 -2.2009 -1.5464 -1.0573
  702MOL0     H94724   1.068   7.907  11.029 -1.0854  0.1840 -2.0498
  702MOL0     H94725   1.204   7.835  11.124  0.5190 -2.7832 -0.8158
  702MOL0     H94726   1.117   7.613  11.100 -0.9048 -0.9989  0.2205
  702MOL0     H94727   1.008   7.647  10.974 -1.6251 -1.1863  2.3277
  702MOL0     H94728   0.852   7.740  11.107 -0.4232 -2.1057  0.3272
  702MOL0     H94729   0.968   7.769  11.245 -1.8263  1.3403  0.8297
  702MOL0     H94730   0.773   7.729  11.355 -3.3623  0.4737 -0.0978
  702MOL0     H94731   0.579   7.784  11.478 -0.1193  0.3564  0.0492
  702MOL0     H94732   0.437   7.668  11.486  0.6213 -0.9246 -0.2098
  702MOL0     H94733   0.567   7.652  11.604 -1.1161 -1.7785 -0.4908
  702MOL0     H94734   0.422   7.559  11.816  1.5072 -0.9373  0.3105
  702MOL0     H94735   0.206   7.550  11.946 -1.5033  0.0102 -0.1475
  702MOL0     H94736  -0.089   7.234  11.837  2.4999  1.9141 -1.2091
  702MOL0     H94737  -0.013   7.193  11.994  1.5570  0.5622 -0.1598
  702MOL0     H94738  -0.170   7.336  12.109  0.7799 -0.8968  0.0093
  702MOL0     H94739  -0.244   7.402  11.956 -3.2150  0.2322  2.1195
  702MOL0     H94740  -0.353   7.185  11.914  1.0931  0.6027 -0.9375
  702MOL0     H94741  -0.380   7.236  12.085 -0.9799  3.2997 -1.0606
  702MOL0     H94742  -0.188   7.030  11.972 -1.1224 -1.3236 -0.3179
  702MOL0     H94743  -0.190   7.073  12.146  2.8174  0.4140 -1.5227
  702MOL0     H94744  -0.327   6.868  12.072 -0.4015 -0.8089 -0.3070
  702MOL0     H94745  -0.437   6.982  11.995  0.6574 -0.3093 -0.8523
  702MOL0     H94746  -0.360   6.982  12.289 -2.1061 -3.2747  1.4241
  702MOL0     H94747  -0.485   7.086  12.214 -2.6782 -1.7743  0.3816
  702MOL0     H94748  -0.523   6.783  12.193  1.9894 -0.2742  1.6633
  702MOL0     H94749  -0.628   6.917  12.168 -1.7902  0.7576  2.0090
  702MOL0     H94750  -0.671   6.807  12.400 -0.4577 -0.1791 -0.7048
  702MOL0     H94751  -0.596   6.960  12.431  1.2326  0.5345 -2.5725
  702MOL0     H94752   0.075   7.218  11.712 -0.8528  1.0182 -0.0129
  702MOL0     H94753   0.279   7.215  11.590  0.8702  0.7288 -1.1088
  702MOL0     H94754   0.607   7.272  11.293  1.4075 -1.7472 -0.8155
  702MOL0     H94755   0.799   7.351  11.148 -1.9471  1.7956 -2.6194
  702MOL0     H94756   2.353   8.370  10.349 -3.0164  0.7713  1.9917
  702MOL0     H94757   2.608   8.345  10.336 -2.0195  1.1022 -0.0222
  702MOL0     H94758   2.993   8.285  10.391 -1.5354  0.3524  0.8315
  702MOL0     H94759   3.198   8.228  10.380 -1.1999 -2.3455  1.9440
  702MOL0     H94760   3.407   8.222  10.337  1.6519 -0.3364 -1.1417
  702MOL0     H94761   3.557   8.276  10.376  0.0630 -2.1479 -0.9384
  702MOL0     H94762   3.555   8.054  10.419  1.2494 -2.9045  1.7989
  702MOL0     H94763   3.393   8.067  10.499 -0.5952  2.6711  0.8008
  702MOL0     H94764   3.493   8.122  10.712 -1.0516 -2.6758 -0.6783
  702MOL0     H94765   3.632   8.191  10.622  0.2791 -0.7548 -1.1601
  702MOL0     H94766   3.585   7.899  10.659  3.7190 -2.3509 -1.5826
  702MOL0     H94767   3.693   8.004  10.761 -3.3787 -1.1314  1.7789
  702MOL0     H94768   3.961   7.932  10.485  0.6462  1.2969  1.1252
  702MOL0     H94769   3.309   8.487  10.702 -0.1980  0.0087 -0.5561
  702MOL0     H94770   3.063   8.529  10.736 -1.2850  0.0524 -0.8505
  703MOL0     O94771   5.198   7.056   2.876  0.1756 -0.0954  0.0823
  703MOL0     C94772   5.245   6.965   2.948 -0.5692 -0.1929 -0.2133
  703MOL0     O94773   5.189   6.899   3.052  0.0555  0.9581  0.6125
  703MOL0     C94774   5.061   6.937   3.073  0.5813  0.6840 -0.7796
  703MOL0     C94775   4.958   6.874   3.001 -0.1635 -0.0036  0.1030
  703MOL0     C94776   4.824   6.893   3.036 -0.6224  0.1726 -0.5318
  703MOL0     C94777   4.786   6.994   3.130 -0.1562  0.3062 -0.1458
  703MOL0     O94778   4.649   7.012   3.170 -0.0035 -0.6958  0.6740
  703MOL0     C94779   4.550   6.929   3.107 -0.0675  0.2947  0.4991
  703MOL0     C94780   4.414   6.952   3.182 -0.6729 -0.2432  0.1045
  703MOL0     C94781   4.300   6.885   3.106  0.2503 -0.0362  0.4048
  703MOL0     C94782   4.180   6.885   3.206 -0.8423 -0.2052  1.2806
  703MOL0     C94783   4.045   6.839   3.142 -0.4185 -0.1402  0.0699
  703MOL0     C94784   3.975   6.956   3.066 -0.5477 -0.9984 -0.0231
  703MOL0     C94785   3.862   6.918   2.972 -0.3676 -0.2375  0.8139
  703MOL0     C94786   3.741   6.872   3.053 -0.1819 -0.0170  0.0822
  703MOL0     N94787   3.631   6.830   2.970  0.2297  0.5370 -0.1415
  703MOL0     C94788   3.561   6.914   2.888  0.5217  0.0370  0.2171
  703MOL0     C94789   3.460   6.838   2.837  0.3123 -0.4869 -0.0802
  703MOL0     C94790   3.364   6.881   2.729 -0.3900 -0.1087  0.1160
  703MOL0     C94791   3.222   6.819   2.736  0.3827  0.3761  0.7223
  703MOL0     C94792   3.149   6.905   2.631 -0.2124  0.5358  0.7648
  703MOL0     C94793   3.033   6.823   2.564  0.2569  0.0410 -1.0736
  703MOL0     O94794   2.955   6.761   2.668  0.5106 -0.1338  0.0272
  703MOL0     C94795   2.830   6.819   2.696 -0.2577 -0.8791 -0.2849
  703MOL0     C94796   2.808   6.939   2.766  0.5013  0.4252  0.0299
  703MOL0     C94797   2.679   6.979   2.792  0.4809 -0.2351 -0.5321
  703MOL0     C94798   2.656   7.097   2.892 -1.3408  0.3225  0.3331
  703MOL0     C94799   2.564   6.907   2.747 -0.8260 -0.4561 -0.5201
  703MOL0     C94800   2.423   6.945   2.770 -0.1394  0.5007 -0.4331
  703MOL0     O94801   2.335   6.878   2.693  0.1055  0.3528  0.0236
  703MOL0     C94802   2.205   6.847   2.735  0.0843 -0.1123 -0.1898
  703MOL0     C94803   2.184   6.831   2.873  0.3531 -0.2680  0.0903
  703MOL0     C94804   2.052   6.815   2.928  0.4413 -0.4539 -1.2100
  703MOL0     C94805   1.942   6.828   2.835  0.1473  0.1873  0.0539
  703MOL0     O94806   1.813   6.799   2.884  0.7606 -0.1133 -0.3987
  703MOL0     C94807   1.705   6.840   2.804 -0.5298  0.5101  0.0020
  703MOL0     C94808   1.575   6.850   2.889 -0.0550 -0.1389 -0.1304
  703MOL0     C94809   1.526   6.720   2.950  0.5728  0.1105 -0.4953
  703MOL0     C94810   1.375   6.737   2.988 -0.4610  0.2429  0.1790
  703MOL0     C94811   1.316   6.612   3.051 -0.5010 -0.9715  0.4494
  703MOL0     C94812   1.374   6.562   3.188  0.0029  0.3832  0.3126
  703MOL0     C94813   1.275   6.485   3.267  0.5438  0.3977 -0.8783
  703MOL0     C94814   1.209   6.375   3.181  0.3427  0.5996 -0.1865
  703MOL0    Cl94815   1.118   6.269   3.295 -0.0512  0.5132 -0.0456
  703MOL0     C94816   1.965   6.848   2.700 -0.4305 -0.0908 -0.1167
  703MOL0     C94817   2.092   6.854   2.650 -0.8709 -0.4304  0.5075
  703MOL0     O94818   2.391   7.032   2.848  0.2907  0.0767  0.3020
  703MOL0     C94819   2.589   6.792   2.671 -0.4660  0.3242  0.6529
  703MOL0     C94820   2.720   6.756   2.645  0.9626 -0.3999  0.5854
  703MOL0     N94821   3.469   6.709   2.892 -0.7041 -0.1663 -0.0905
  703MOL0     N94822   3.578   6.707   2.971 -0.4810 -0.2852  0.4847
  703MOL0     C94823   4.897   7.055   3.200 -0.5021 -0.6702 -0.2726
  703MOL0     C94824   5.023   7.013   3.182 -0.3361 -0.9231 -0.0568
  703MOL0     C94825   5.374   6.906   2.917 -0.4632 -1.4321 -0.7182
  703MOL0     C94826   5.466   6.990   2.852 -0.1957  0.8908 -0.0142
  703MOL0     C94827   5.597   6.943   2.836  0.1139 -0.0249 -0.0906
  703MOL0     C94828   5.639   6.819   2.872  0.1450 -0.4689 -0.4885
  703MOL0     O94829   5.763   6.753   2.859  0.3648 -0.4469 -0.2162
  703MOL0     C94830   5.872   6.848   2.843  0.2342  0.1873  0.1796
  703MOL0     C94831   6.005   6.805   2.899  0.5251  0.1991 -0.4592
  703MOL0     C94832   6.056   6.688   2.825  0.1180 -0.1002 -0.3606
  703MOL0     C94833   6.162   6.615   2.896 -0.4261 -0.3345 -0.6819
  703MOL0     C94834   6.107   6.536   3.004 -0.3254  0.7153  0.4870
  703MOL0     C94835   6.039   6.476   3.083 -0.9066  0.1204 -0.7580
  703MOL0     C94836   5.551   6.736   2.937  0.2927 -0.4542 -0.6917
  703MOL0     C94837   5.421   6.777   2.953 -0.4863  0.5579  0.0577
  703MOL0     H94838   4.986   6.799   2.928  0.6576  1.5154 -1.1851
  703MOL0     H94839   4.752   6.836   2.978 -1.9898  0.1320  1.1205
  703MOL0     H94840   4.542   6.955   3.001 -1.4121  3.4000  1.2575
  703MOL0     H94841   4.579   6.825   3.127  1.1424  0.6153  0.5133
  703MOL0     H94842   4.422   6.925   3.288 -0.2066  1.1792  0.4610
  703MOL0     H94843   4.409   7.061   3.175  0.6685 -0.0141  1.9320
  703MOL0     H94844   4.270   6.936   3.014 -2.2560  0.8625  1.6266
  703MOL0     H94845   4.331   6.783   3.081  0.9024 -0.4874  2.8099
  703MOL0     H94846   4.195   6.822   3.294 -1.6104 -3.2691 -0.6210
  703MOL0     H94847   4.171   6.988   3.240  0.0926  0.3668 -0.1046
  703MOL0     H94848   4.057   6.752   3.077  0.9973 -0.0042  0.1122
  703MOL0     H94849   3.981   6.801   3.223 -0.4114 -1.3561 -0.4617
  703MOL0     H94850   3.930   7.027   3.136  0.2943  0.5455 -0.9779
  703MOL0     H94851   4.046   7.016   3.009  0.2420 -0.0011  1.9229
  703MOL0     H94852   3.829   7.008   2.919 -2.8216 -0.2881  2.1298
  703MOL0     H94853   3.895   6.842   2.902 -1.1986 -0.1863  0.3594
  703MOL0     H94854   3.703   6.959   3.108 -1.7032 -0.1312 -0.7189
  703MOL0     H94855   3.763   6.797   3.129 -1.0931 -0.5755 -0.1793
  703MOL0     H94856   3.572   7.021   2.874 -1.6646  0.2950 -0.0082
  703MOL0     H94857   3.358   6.990   2.736 -0.2407 -0.0108 -1.0894
  703MOL0     H94858   3.410   6.854   2.633 -0.7091  0.0897 -0.0964
  703MOL0     H94859   3.177   6.826   2.835  0.2298 -0.3479  0.7147
  703MOL0     H94860   3.223   6.713   2.706 -3.7485  0.3891  0.0070
  703MOL0     H94861   3.207   6.932   2.542 -0.8918 -0.5664 -0.0425
  703MOL0     H94862   3.101   6.991   2.680  1.1196  1.5446  0.3675
  703MOL0     H94863   3.061   6.740   2.498  0.3060 -1.4333  0.7425
  703MOL0     H94864   2.968   6.885   2.501  0.6442  0.0937 -1.4292
  703MOL0     H94865   2.900   6.980   2.806  0.1876 -0.3248  1.6375
  703MOL0     H94866   2.610   7.061   2.984 -1.4217  3.2794  1.5828
  703MOL0     H94867   2.750   7.141   2.927 -0.4741 -0.0452 -1.4094
  703MOL0     H94868   2.586   7.171   2.851 -0.8667  0.4255 -0.3031
  703MOL0     H94869   2.267   6.812   2.941  1.1597 -1.2097 -1.1103
  703MOL0     H94870   2.038   6.776   3.028 -0.0223 -1.4367 -1.6396
  703MOL0     H94871   1.726   6.940   2.766 -0.5764 -0.1096 -1.7548
  703MOL0     H94872   1.688   6.782   2.713  0.1496  2.3150 -1.3361
  703MOL0     H94873   1.589   6.931   2.961 -1.4449 -0.4752  0.5575
  703MOL0     H94874   1.502   6.881   2.813 -1.1783  0.0049  0.9774
  703MOL0     H94875   1.581   6.699   3.042 -1.3486 -0.1560  0.6465
  703MOL0     H94876   1.529   6.639   2.876 -1.8152 -0.2087 -0.3301
  703MOL0     H94877   1.374   6.819   3.059 -0.5997  0.9871 -0.6655
  703MOL0     H94878   1.314   6.770   2.903  1.1521 -1.7141 -1.8716
  703MOL0     H94879   1.318   6.527   2.982 -2.2092 -3.6035  3.3503
  703MOL0     H94880   1.211   6.641   3.063 -1.1121 -3.2342  1.0159
  703MOL0     H94881   1.466   6.509   3.162 -0.1508  1.3058 -2.5437
  703MOL0     H94882   1.410   6.640   3.255 -1.8758 -0.4366  2.3900
  703MOL0     H94883   1.193   6.550   3.298  2.0022  1.7889  0.2277
  703MOL0     H94884   1.321   6.432   3.351 -0.3488 -0.6773 -1.0417
  703MOL0     H94885   1.280   6.323   3.116 -0.3015  2.9916 -3.0546
  703MOL0     H94886   1.149   6.425   3.104  1.9893  4.2377  0.6251
  703MOL0     H94887   1.883   6.837   2.630  0.3881  2.3554 -1.5606
  703MOL0     H94888   2.107   6.878   2.545 -0.8890  0.8276  0.7758
  703MOL0     H94889   2.513   6.734   2.619 -0.0944 -0.9249  1.4569
  703MOL0     H94890   2.733   6.661   2.594  0.2558  0.3768 -1.1256
  703MOL0     H94891   4.884   7.143   3.262  0.7160 -1.1182  0.6702
  703MOL0     H94892   5.101   7.049   3.247  0.1934 -0.5942 -0.8639
  703MOL0     H94893   5.427   7.075   2.797 -0.3911  1.6759  1.2832
  703MOL0     H94894   5.655   7.002   2.766 -2.6692 -0.5959 -3.0845
  703MOL0     H94895   5.891   6.867   2.737  0.1457  0.8122  0.2709
  703MOL0     H94896   5.848   6.947   2.883 -0.1350  0.4301 -0.6214
  703MOL0     H94897   5.990   6.773   3.002  0.3008  2.9434  0.4219
  703MOL0     H94898   6.090   6.874   2.891  0.3821  0.5398  0.8313
  703MOL0     H94899   6.097   6.717   2.728  1.4290  1.9514  0.7119
  703MOL0     H94900   5.972   6.621   2.805 -0.2105  0.0984  0.3239
  703MOL0     H94901   6.247   6.677   2.926 -1.8605  3.4398 -3.5574
  703MOL0     H94902   6.204   6.548   2.821 -0.4375  0.7552 -1.6971
  703MOL0     H94903   5.966   6.431   3.148  0.4610  0.6646  1.2663
  703MOL0     H94904   5.580   6.638   2.973 -1.4725 -0.9783 -0.5966
  703MOL0     H94905   5.352   6.709   3.002  0.0188  1.2058  1.7624
  704MOL0     O94906   6.068  10.376   5.614  0.0913 -0.5291 -0.0462
  704MOL0     C94907   6.048  10.256   5.628  0.9539  0.2776 -0.9070
  704MOL0     O94908   5.927  10.201   5.649  0.2523  0.4594 -0.8555
  704MOL0     C94909   5.823  10.281   5.674 -0.2550 -0.0788  0.4862
  704MOL0     C94910   5.778  10.293   5.803  0.5527  0.3805 -0.7066
  704MOL0     C94911   5.666  10.377   5.834 -0.4316 -0.7296 -0.7433
  704MOL0     C94912   5.621  10.465   5.737 -0.0608  0.4974 -0.2759
  704MOL0     O94913   5.525  10.558   5.775 -0.5734 -0.0478 -0.2867
  704MOL0     C94914   5.490  10.658   5.677 -0.2959  0.3851 -0.4707
  704MOL0     C94915   5.417  10.771   5.748 -1.0071 -0.3531 -0.4281
  704MOL0     C94916   5.265  10.743   5.754  0.0285  0.0110 -0.2626
  704MOL0     C94917   5.228  10.631   5.852  0.0472 -0.6522  0.0175
  704MOL0     C94918   5.074  10.597   5.838 -1.0884 -0.1345 -0.0653
  704MOL0     C94919   4.982  10.717   5.869  0.1208 -0.0996  0.5858
  704MOL0     C94920   5.012  10.796   5.995 -0.3688 -0.1524  0.4281
  704MOL0     C94921   4.967  10.726   6.120  0.3931 -0.5896 -0.1321
  704MOL0     N94922   4.817  10.718   6.145 -0.1759  0.4296  0.7031
  704MOL0     C94923   4.738  10.598   6.140  0.3355  0.3190  0.1739
  704MOL0     C94924   4.609  10.634   6.171  0.2293 -0.1414 -1.6776
  704MOL0     C94925   4.484  10.550   6.180 -0.7903 -0.2096  0.1044
  704MOL0     C94926   4.424  10.499   6.050  0.6525 -0.6120 -0.1391
  704MOL0     C94927   4.376  10.605   5.956  0.1164  1.0543 -0.5092
  704MOL0     C94928   4.236  10.664   6.002 -0.5525  0.5049 -1.1260
  704MOL0     O94929   4.131  10.575   5.981  0.3566  0.7867  0.1057
  704MOL0     C94930   4.000  10.624   5.981 -0.1360  0.8641  0.7666
  704MOL0     C94931   3.957  10.759   5.984 -0.5065  0.2483 -0.4438
  704MOL0     C94932   3.825  10.799   5.977  0.1373 -0.0921 -0.1938
  704MOL0     C94933   3.788  10.947   5.966 -0.7613 -0.5448 -0.5348
  704MOL0     C94934   3.728  10.697   5.974  0.7152 -1.2009 -0.4612
  704MOL0     C94935   3.583  10.721   5.964  0.3365  0.1368  0.1790
  704MOL0     O94936   3.501  10.613   5.926 -0.0272 -0.1888 -0.0262
  704MOL0     C94937   3.373  10.632   5.884  0.5055 -0.2222 -0.4167
  704MOL0     C94938   3.301  10.523   5.853  0.4313 -0.6569  0.1753
  704MOL0     C94939   3.172  10.523   5.795  0.0158 -0.0628 -0.4220
  704MOL0     C94940   3.103  10.647   5.764 -0.3934  0.1159  0.6274
  704MOL0     O94941   2.971  10.645   5.719 -0.5869  0.1657  0.2072
  704MOL0     C94942   2.905  10.770   5.673  0.2100  0.6784 -0.3075
  704MOL0     C94943   2.775  10.732   5.595 -1.1206  0.2615  0.5668
  704MOL0     C94944   2.796  10.648   5.470  0.8727  0.4975 -0.6147
  704MOL0     C94945   2.669  10.555   5.442 -0.6281 -0.1959 -0.5477
  704MOL0     C94946   2.666  10.502   5.297  0.6879 -0.1855  0.0410
  704MOL0     C94947   2.558  10.394   5.302 -0.2503  0.3916 -0.2415
  704MOL0     C94948   2.541  10.334   5.161  0.2150 -0.0371  0.4210
  704MOL0     C94949   2.491  10.436   5.055 -0.6847 -0.3696 -0.4282
  704MOL0    Cl94950   2.496  10.348   4.909  0.3683 -0.0739 -0.1383
  704MOL0     C94951   3.174  10.766   5.798 -0.9726  0.3204  0.1944
  704MOL0     C94952   3.304  10.756   5.859  0.5265  0.7729 -0.7076
  704MOL0     O94953   3.543  10.813   6.031 -0.5639  0.0168 -0.1698
  704MOL0     C94954   3.769  10.562   5.988 -0.8097  0.5692 -0.9477
  704MOL0     C94955   3.901  10.528   5.990  0.2836 -0.6113  0.2220
  704MOL0     N94956   4.613  10.769   6.197 -0.3087 -0.1088 -0.2029
  704MOL0     N94957   4.731  10.821   6.167  0.2945  0.6010  0.5323
  704MOL0     C94958   5.671  10.448   5.601  0.0186 -0.1698 -0.5211
  704MOL0     C94959   5.776  10.359   5.576  0.2872 -0.8841 -0.5769
  704MOL0     C94960   6.173  10.181   5.612  0.1913  0.0667 -0.2891
  704MOL0     C94961   6.305  10.243   5.616 -0.4054  0.3198  0.1949
  704MOL0     C94962   6.421  10.170   5.621 -0.3968 -0.3104  0.9395
  704MOL0     C94963   6.413  10.028   5.613  0.8623  0.1947  0.7753
  704MOL0     O94964   6.525   9.954   5.621 -0.4942 -0.0705  0.1720
  704MOL0     C94965   6.531   9.810   5.624 -0.1980  0.5980 -0.4628
  704MOL0     C94966   6.492   9.733   5.496 -0.0581  0.8332  0.5568
  704MOL0     C94967   6.598   9.763   5.383 -0.1414 -0.4935 -0.0313
  704MOL0     C94968   6.579   9.673   5.262  0.0952  0.2034  0.6739
  704MOL0     C94969   6.452   9.696   5.191 -0.7226 -0.0954 -0.2545
  704MOL0     C94970   6.350   9.722   5.127  0.4297 -0.0934  0.4605
  704MOL0     C94971   6.285   9.967   5.623  0.7009 -0.1525 -0.6244
  704MOL0     C94972   6.165  10.039   5.625  0.2491 -0.0860 -0.0966
  704MOL0     H94973   5.828  10.229   5.875 -2.2336 -2.1871 -0.8588
  704MOL0     H94974   5.630  10.397   5.935 -0.1866  1.2956 -1.0032
  704MOL0     H94975   5.582  10.695   5.631  1.1962 -1.0588  1.2431
  704MOL0     H94976   5.430  10.613   5.597 -1.6957 -2.9140  2.2298
  704MOL0     H94977   5.469  10.782   5.843 -0.6867  3.0906 -0.8741
  704MOL0     H94978   5.432  10.868   5.700  1.9684 -0.4265  0.2177
  704MOL0     H94979   5.209  10.831   5.786 -0.1019  0.8188 -2.5276
  704MOL0     H94980   5.234  10.714   5.653  0.9239 -1.3760 -0.1680
  704MOL0     H94981   5.284  10.539   5.831 -0.8524 -1.2146  0.0226
  704MOL0     H94982   5.253  10.670   5.951 -2.6702  1.4060  0.0145
  704MOL0     H94983   5.050  10.553   5.741 -0.5699  0.2044 -0.3517
  704MOL0     H94984   5.050  10.518   5.911 -2.3302  1.7851  1.7229
  704MOL0     H94985   4.994  10.785   5.784  0.9802  1.5701  1.9820
  704MOL0     H94986   4.878  10.681   5.867  0.7595 -2.6133 -4.7523
  704MOL0     H94987   5.116  10.829   6.004 -0.7692  1.0816  0.7385
  704MOL0     H94988   4.944  10.882   6.000  1.9753  1.8248  0.0298
  704MOL0     H94989   5.000  10.790   6.202 -0.4283 -1.1935  0.6788
  704MOL0     H94990   5.020  10.632   6.139 -1.7349 -1.6329  1.0010
  704MOL0     H94991   4.782  10.502   6.116  0.9691  0.4471  0.7978
  704MOL0     H94992   4.508  10.457   6.233  0.3636 -0.0267 -0.0789
  704MOL0     H94993   4.412  10.603   6.243 -2.4585 -2.4359  0.2230
  704MOL0     H94994   4.344  10.425   6.064 -0.0550 -0.0371 -1.0496
  704MOL0     H94995   4.501  10.439   6.000 -1.8979 -3.4064 -1.0412
  704MOL0     H94996   4.370  10.557   5.858 -0.3303  0.3314 -0.1382
  704MOL0     H94997   4.447  10.686   5.937  2.3578 -0.4677  0.9691
  704MOL0     H94998   4.228  10.759   5.948  4.0695  1.9261  0.1896
  704MOL0     H94999   4.236  10.683   6.110 -1.7803 -1.7150 -0.6806
  704MOL0     H95000   4.031  10.838   5.989  1.2815 -1.4357  2.1518
  704MOL0     H95001   3.866  11.015   5.929 -1.0926 -1.2436 -2.6590
  704MOL0     H95002   3.716  10.954   5.884 -1.7004 -1.4324  0.1929
  704MOL0     H95003   3.744  10.985   6.059 -0.8408 -2.7492  0.3868
  704MOL0     H95004   3.355  10.435   5.886 -0.4947 -1.5642 -0.6903
  704MOL0     H95005   3.122  10.427   5.785  0.2816 -0.4859  1.8274
  704MOL0     H95006   2.877  10.821   5.765 -0.4492 -0.4144  0.1214
  704MOL0     H95007   2.959  10.842   5.611 -0.8437  0.8249 -1.0882
  704MOL0     H95008   2.706  10.691   5.670 -1.1276 -0.4773  0.1673
  704MOL0     H95009   2.734  10.829   5.566  1.0293  0.9779 -0.3353
  704MOL0     H95010   2.893  10.598   5.476  1.1513  1.1040  0.2294
  704MOL0     H95011   2.808  10.709   5.380  2.9174  0.9463 -0.0925
  704MOL0     H95012   2.678  10.474   5.515 -1.1646  0.4369  0.2327
  704MOL0     H95013   2.579  10.614   5.462  0.7961  2.1804 -0.7667
  704MOL0     H95014   2.764  10.464   5.265  0.8985  0.3199  0.0613
  704MOL0     H95015   2.636  10.580   5.227  0.1989  0.6706  1.1730
  704MOL0     H95016   2.599  10.320   5.371  1.4853  1.5848  0.0756
  704MOL0     H95017   2.458  10.429   5.329  0.0969  0.3523  1.1660
  704MOL0     H95018   2.480  10.244   5.169  2.7096 -2.1458 -2.0268
  704MOL0     H95019   2.630  10.282   5.124  0.1168  0.2785 -0.2675
  704MOL0     H95020   2.549  10.528   5.041 -2.1518  0.3521 -2.2296
  704MOL0     H95021   2.389  10.472   5.071 -0.5376  0.9626 -2.2089
  704MOL0     H95022   3.118  10.859   5.790 -2.4180 -0.4930  0.5968
  704MOL0     H95023   3.348  10.849   5.892  1.7200 -0.3653  1.0558
  704MOL0     H95024   3.701  10.478   5.984 -0.1446  0.0142 -0.7556
  704MOL0     H95025   3.940  10.428   6.000  0.9257 -0.1607  3.2289
  704MOL0     H95026   5.637  10.506   5.516  2.0987 -0.4405 -1.6085
  704MOL0     H95027   5.816  10.344   5.476  0.6797  1.3760 -0.8199
  704MOL0     H95028   6.311  10.352   5.616 -0.2344  0.3180  0.7833
  704MOL0     H95029   6.507  10.236   5.616 -0.3429 -0.4557 -3.3717
  704MOL0     H95030   6.625   9.776   5.669 -2.7758 -2.0578  3.6459
  704MOL0     H95031   6.457   9.775   5.698 -2.5175  3.4327 -1.2647
  704MOL0     H95032   6.406   9.779   5.446  1.3363  1.3901 -1.4769
  704MOL0     H95033   6.474   9.627   5.518 -3.2248  0.8484 -1.2883
  704MOL0     H95034   6.697   9.748   5.427  1.5263  2.9778 -2.2119
  704MOL0     H95035   6.598   9.866   5.348 -4.3136 -0.1576  0.3947
  704MOL0     H95036   6.573   9.569   5.296  0.8410  0.2264  0.8901
  704MOL0     H95037   6.662   9.682   5.192 -1.7660 -1.7286 -2.0132
  704MOL0     H95038   6.263   9.738   5.068 -0.6129  0.0447  1.9755
  704MOL0     H95039   6.280   9.860   5.610 -0.9491 -0.5259  2.2361
  704MOL0     H95040   6.070   9.987   5.629  2.3130 -4.3990 -0.8668
  705MOL0     O95041  10.357  10.751   2.308 -0.0933 -0.3362 -0.3447
  705MOL0     C95042  10.369  10.826   2.403 -0.1858 -0.1020 -0.4968
  705MOL0     O95043  10.271  10.912   2.452 -0.7876 -0.4800 -0.1520
  705MOL0     C95044  10.149  10.913   2.388 -0.4238  0.4350  0.2541
  705MOL0     C95045  10.044  10.833   2.428 -0.6210  0.4121  0.8727
  705MOL0     C95046   9.918  10.835   2.374 -0.1639 -1.1907 -0.8714
  705MOL0     C95047   9.893  10.912   2.256  0.1815 -0.9383 -0.1743
  705MOL0     O95048   9.757  10.904   2.210  0.5697 -0.3031  0.7618
  705MOL0     C95049   9.737  10.971   2.083 -0.7766  0.0217 -0.3657
  705MOL0     C95050   9.589  10.956   2.063 -0.8014  0.0550 -0.4516
  705MOL0     C95051   9.545  11.027   1.936  0.4752  0.2321  0.8643
  705MOL0     C95052   9.597  10.936   1.831  0.2967 -0.7862  0.4608
  705MOL0     C95053   9.543  10.970   1.691 -0.3362 -0.2115 -0.3519
  705MOL0     C95054   9.546  11.115   1.646  0.1683  0.6272  0.7491
  705MOL0     C95055   9.499  11.122   1.496  0.3904 -0.6212  0.2531
  705MOL0     C95056   9.486  11.263   1.446  0.0167 -0.9808 -0.6494
  705MOL0     N95057   9.362  11.332   1.482  0.8798  0.1908  0.3367
  705MOL0     C95058   9.344  11.425   1.580  0.5500  0.1893 -0.3972
  705MOL0     C95059   9.219  11.473   1.566  0.0016 -0.3054  0.4243
  705MOL0     C95060   9.152  11.590   1.629 -0.8507 -0.0848  0.5118
  705MOL0     C95061   9.210  11.728   1.583 -0.9373  0.0702  0.0613
  705MOL0     C95062   9.171  11.767   1.439  0.2428  1.0552 -0.3081
  705MOL0     C95063   9.227  11.904   1.405  0.7304  1.0213  0.4540
  705MOL0     O95064   9.159  12.006   1.479 -0.3353  0.0306 -0.6493
  705MOL0     C95065   9.034  12.055   1.441  0.4539 -0.1468 -0.9440
  705MOL0     C95066   8.971  12.153   1.526 -0.2311  0.6005  0.9532
  705MOL0     C95067   8.845  12.214   1.480  0.1850  0.2907  0.3212
  705MOL0     C95068   8.803  12.341   1.539  0.5371  0.3006 -0.0982
  705MOL0     C95069   8.778  12.163   1.363  0.6932 -0.3083  0.6900
  705MOL0     C95070   8.638  12.206   1.325 -0.3122 -0.2067 -0.0074
  705MOL0     O95071   8.606  12.335   1.358  0.4417  0.5287  0.2096
  705MOL0     C95072   8.486  12.383   1.325  0.3390  0.7539 -0.3155
  705MOL0     C95073   8.471  12.451   1.198  0.1750  0.4372 -0.1805
  705MOL0     C95074   8.353  12.530   1.171  0.4114 -0.1550  0.2942
  705MOL0     C95075   8.253  12.536   1.267  0.2785  0.0872 -0.0454
  705MOL0     O95076   8.157  12.619   1.218  1.0418  0.1744 -0.0014
  705MOL0     C95077   8.024  12.594   1.272  0.5829 -0.1452 -0.8601
  705MOL0     C95078   7.930  12.697   1.205 -0.7063 -0.0144  0.9313
  705MOL0     C95079   7.793  12.678   1.248 -0.3792  0.8369  0.0226
  705MOL0     C95080   7.699  12.777   1.183  0.3800  0.5622  0.0584
  705MOL0     C95081   7.554  12.760   1.237 -0.5442  0.5479 -0.2968
  705MOL0     C95082   7.466  12.882   1.209  0.1257  0.8022 -0.0886
  705MOL0     C95083   7.325  12.863   1.266  0.2550  0.4831  0.2479
  705MOL0     C95084   7.214  12.952   1.207 -0.3650  0.1869  0.2283
  705MOL0    Cl95085   7.280  13.117   1.213 -0.1714 -0.5160  0.2928
  705MOL0     C95086   8.273  12.482   1.397 -0.6873 -0.2989 -0.4471
  705MOL0     C95087   8.386  12.401   1.425  0.4369 -0.9814 -1.4926
  705MOL0     O95088   8.567  12.128   1.265 -0.4010  0.1822 -0.5895
  705MOL0     C95089   8.844  12.071   1.283 -0.9125 -0.3004  0.7187
  705MOL0     C95090   8.969  12.021   1.315 -0.6965 -0.6177  0.0612
  705MOL0     N95091   9.162  11.399   1.460  0.1477 -0.3525 -0.2893
  705MOL0     N95092   9.249  11.314   1.410 -0.0185 -0.4153 -0.2676
  705MOL0     C95093   9.998  10.996   2.210 -0.3017  0.7086  0.7785
  705MOL0     C95094  10.117  10.996   2.280 -0.7179 -0.3151  0.4229
  705MOL0     C95095  10.496  10.818   2.472 -0.4075 -0.1590 -0.2698
  705MOL0     C95096  10.499  10.838   2.606  0.0978  0.0996 -0.4938
  705MOL0     C95097  10.615  10.830   2.686 -0.6086  0.1464 -0.2773
  705MOL0     C95098  10.737  10.789   2.631  0.4373  0.0441 -0.6751
  705MOL0     O95099  10.834  10.790   2.730 -0.2861  0.3599  0.2549
  705MOL0     C95100  10.963  10.729   2.697  0.5446  0.0366 -0.3933
  705MOL0     C95101  11.057  10.808   2.611 -0.7651 -0.2185 -0.1896
  705MOL0     C95102  11.124  10.930   2.682 -0.8900 -0.1214  0.1288
  705MOL0     C95103  11.222  10.894   2.792  0.0979  0.9721 -0.5255
  705MOL0     C95104  11.279  11.013   2.858 -0.5660  0.7676  0.3572
  705MOL0     C95105  11.353  11.093   2.898  0.0247  0.0650 -0.1663
  705MOL0     C95106  10.735  10.743   2.499  1.2994  0.0235  1.2765
  705MOL0     C95107  10.613  10.758   2.420 -0.1394  0.4752  0.1349
  705MOL0     H95108  10.067  10.770   2.513  1.5666 -1.1780 -0.7938
  705MOL0     H95109   9.848  10.768   2.423  2.2743 -4.3433 -1.3165
  705MOL0     H95110   9.750  11.078   2.103 -1.5928 -0.0874  0.8428
  705MOL0     H95111   9.798  10.927   2.003  0.5219  2.5378 -0.8877
  705MOL0     H95112   9.559  10.851   2.068  0.9431 -0.4338  0.9124
  705MOL0     H95113   9.538  11.001   2.149 -1.1964 -0.6350 -0.3183
  705MOL0     H95114   9.438  11.045   1.941  0.7145  3.4541 -1.9742
  705MOL0     H95115   9.591  11.126   1.925 -2.6653  1.6890 -0.5445
  705MOL0     H95116   9.704  10.954   1.823  0.2202 -1.2380 -2.6613
  705MOL0     H95117   9.584  10.830   1.854  3.6658 -0.5195  4.9860
  705MOL0     H95118   9.617  10.922   1.626  0.0713 -2.7491  1.8333
  705MOL0     H95119   9.446  10.926   1.665 -0.8592  1.5764 -1.6346
  705MOL0     H95120   9.494  11.181   1.718  0.3633  1.6868 -0.0528
  705MOL0     H95121   9.652  11.140   1.641  0.2594 -0.0632 -1.7061
  705MOL0     H95122   9.584  11.083   1.439  1.2063  0.6090  0.5697
  705MOL0     H95123   9.407  11.064   1.485  2.2733 -3.4892 -2.2541
  705MOL0     H95124   9.489  11.259   1.336 -2.9933 -3.0636 -0.7855
  705MOL0     H95125   9.566  11.331   1.478 -1.7075 -0.1790  2.3654
  705MOL0     H95126   9.419  11.462   1.649  0.9622  2.4292 -1.9289
  705MOL0     H95127   9.043  11.599   1.622 -0.7475  5.1214  1.6179
  705MOL0     H95128   9.171  11.582   1.737 -0.4895  1.6394  0.5968
  705MOL0     H95129   9.319  11.721   1.578 -0.9227  0.9116 -1.2633
  705MOL0     H95130   9.182  11.809   1.651 -0.6096 -0.7438  1.2077
  705MOL0     H95131   9.062  11.772   1.435  0.2145  0.1561 -0.7869
  705MOL0     H95132   9.211  11.700   1.362 -0.6209  1.4261 -1.1061
  705MOL0     H95133   9.210  11.909   1.297 -0.2411  0.4851  0.5686
  705MOL0     H95134   9.332  11.895   1.435 -0.1520 -3.6325  3.0074
  705MOL0     H95135   9.030  12.197   1.606  1.6378 -1.1289  0.6098
  705MOL0     H95136   8.876  12.369   1.615 -0.7612  1.0748  0.9101
  705MOL0     H95137   8.800  12.424   1.467  1.7062  0.6322  0.2147
  705MOL0     H95138   8.703  12.337   1.583 -0.2027 -1.3471 -1.8156
  705MOL0     H95139   8.549  12.438   1.123  1.0126 -0.8553  0.8404
  705MOL0     H95140   8.338  12.575   1.073 -0.1922 -2.6474 -0.8437
  705MOL0     H95141   7.998  12.490   1.252  1.3210 -0.6235  0.5530
  705MOL0     H95142   8.016  12.605   1.380  0.4610  0.9834 -0.9672
  705MOL0     H95143   7.954  12.801   1.229 -0.6585 -0.1128  1.3178
  705MOL0     H95144   7.937  12.691   1.096  2.2063  2.2407  0.8670
  705MOL0     H95145   7.789  12.693   1.357  1.8027  1.1670  0.0919
  705MOL0     H95146   7.753  12.579   1.226  1.3670  0.4025 -1.3634
  705MOL0     H95147   7.725  12.881   1.204 -0.8203  1.0010 -0.5166
  705MOL0     H95148   7.700  12.758   1.075 -0.1016  1.1664 -0.0595
  705MOL0     H95149   7.557  12.767   1.346  0.4425  3.4325 -0.4282
  705MOL0     H95150   7.517  12.660   1.212  0.7338 -0.3290  1.1264
  705MOL0     H95151   7.502  12.968   1.266  1.0339 -0.9930  2.2101
  705MOL0     H95152   7.459  12.901   1.101  0.3555 -0.3342 -0.3161
  705MOL0     H95153   7.339  12.865   1.374 -1.1975  2.6136  0.4555
  705MOL0     H95154   7.291  12.762   1.239  0.1417  0.2502  1.2390
  705MOL0     H95155   7.127  12.948   1.272  0.0545 -3.2041  0.7550
  705MOL0     H95156   7.179  12.914   1.111 -2.3962  2.1574  0.1143
  705MOL0     H95157   8.205  12.507   1.478  0.5945 -1.8385  1.1873
  705MOL0     H95158   8.403  12.364   1.525 -1.7993 -0.2194 -0.7590
  705MOL0     H95159   8.806  12.030   1.190  0.7688 -0.9866  0.3068
  705MOL0     H95160   9.014  11.946   1.250 -0.1758 -1.5262  1.4266
  705MOL0     H95161   9.983  11.058   2.122  0.8856  0.2701  0.2609
  705MOL0     H95162  10.192  11.065   2.242 -0.4740 -1.9853 -2.4042
  705MOL0     H95163  10.406  10.863   2.656  0.0455 -0.5821 -0.2477
  705MOL0     H95164  10.612  10.865   2.789  0.5400 -1.1685  0.2379
  705MOL0     H95165  11.007  10.712   2.795 -1.5509  0.9280  0.7878
  705MOL0     H95166  10.940  10.630   2.656  0.1816  0.3496 -0.9761
  705MOL0     H95167  10.998  10.847   2.528 -0.5747  0.6482  0.0669
  705MOL0     H95168  11.132  10.737   2.574 -0.8094  0.5214 -1.7863
  705MOL0     H95169  11.043  10.990   2.724 -0.3807  0.5332  0.1914
  705MOL0     H95170  11.174  10.997   2.611  0.3592 -1.7614 -0.6041
  705MOL0     H95171  11.287  10.820   2.746 -0.1787  0.7571 -0.5691
  705MOL0     H95172  11.164  10.837   2.864 -1.5478  0.6564 -2.0334
  705MOL0     H95173  11.419  11.164   2.944  1.1382 -0.0943 -1.4313
  705MOL0     H95174  10.818  10.689   2.454 -1.2725 -0.7079 -3.1794
  705MOL0     H95175  10.608  10.731   2.315 -1.5897  1.0511  0.0366
  706MOL0     O95176   9.978   7.436   4.350  1.0786 -0.3355 -0.3813
  706MOL0     C95177   9.996   7.475   4.466  0.6276  0.3802  0.5589
  706MOL0     O95178   9.908   7.548   4.539 -0.5568  0.5621 -0.2212
  706MOL0     C95179   9.778   7.579   4.492  0.1538 -0.1031 -1.0015
  706MOL0     C95180   9.746   7.706   4.458 -0.1554 -0.0525  0.2895
  706MOL0     C95181   9.627   7.735   4.398 -0.3008  0.3482  0.2003
  706MOL0     C95182   9.533   7.641   4.365 -0.4828  0.5597 -0.3344
  706MOL0     O95183   9.419   7.662   4.291  0.1470 -0.1954  0.1715
  706MOL0     C95184   9.395   7.795   4.242  0.0452 -0.0350  0.0732
  706MOL0     C95185   9.292   7.810   4.128 -0.0509  0.2651  0.3167
  706MOL0     C95186   9.358   7.769   3.991  0.2074 -0.5822 -0.3954
  706MOL0     C95187   9.251   7.809   3.892 -0.0985 -0.1713  1.0200
  706MOL0     C95188   9.307   7.793   3.741  0.1670  0.0184  0.0588
  706MOL0     C95189   9.246   7.904   3.650 -0.0582 -0.3232 -0.6615
  706MOL0     C95190   9.108   7.866   3.624  0.4634  0.3307  0.3441
  706MOL0     C95191   9.103   7.780   3.498  0.5807 -0.3647  0.0663
  706MOL0     N95192   8.971   7.736   3.459  0.5910 -0.5972  0.8500
  706MOL0     C95193   8.893   7.654   3.535 -0.3972 -0.6177 -0.1692
  706MOL0     C95194   8.782   7.625   3.459 -0.0104 -0.8815 -0.3005
  706MOL0     C95195   8.676   7.530   3.500  0.4564  1.5483  0.2161
  706MOL0     C95196   8.534   7.563   3.448  0.0373  0.4193  0.8813
  706MOL0     C95197   8.432   7.448   3.447  0.2407 -0.2866  0.8305
  706MOL0     C95198   8.302   7.501   3.412 -0.0935  0.1447  0.4972
  706MOL0     O95199   8.239   7.571   3.521  0.0615 -0.6870  0.4506
  706MOL0     C95200   8.124   7.642   3.497 -0.7448 -0.0490  0.7335
  706MOL0     C95201   8.033   7.597   3.400  0.1167  0.6861 -0.5427
  706MOL0     C95202   7.910   7.653   3.390 -0.4690  0.3809  0.0199
  706MOL0     C95203   7.809   7.589   3.288  0.8502 -0.7115  0.3981
  706MOL0     C95204   7.869   7.753   3.482 -1.0530 -0.6649  1.1647
  706MOL0     C95205   7.737   7.809   3.475 -0.4645 -0.6648  0.1564
  706MOL0     O95206   7.672   7.796   3.591 -0.1347 -0.8074 -0.3733
  706MOL0     C95207   7.530   7.788   3.574 -0.0938 -0.0697  1.0793
  706MOL0     C95208   7.462   7.706   3.473 -0.7753 -0.6896  0.5339
  706MOL0     C95209   7.324   7.692   3.475  0.1670 -0.4718  0.5494
  706MOL0     C95210   7.244   7.761   3.570  0.0352 -0.1659 -0.4430
  706MOL0     O95211   7.103   7.757   3.585  0.2175 -0.5023  0.3351
  706MOL0     C95212   7.028   7.748   3.461  0.1565 -0.5075 -0.2247
  706MOL0     C95213   6.894   7.826   3.496  0.0745  0.0047 -0.3949
  706MOL0     C95214   6.848   7.904   3.378 -0.6350 -0.6020 -0.6924
  706MOL0     C95215   6.915   8.045   3.380 -0.6523  0.1834  0.8927
  706MOL0     C95216   6.828   8.160   3.309 -0.8334  0.6131 -0.2354
  706MOL0     C95217   6.902   8.290   3.321 -0.1475 -0.0394  0.8041
  706MOL0     C95218   6.807   8.404   3.303 -0.5917 -0.2365  0.8266
  706MOL0     C95219   6.883   8.538   3.299  0.6576 -0.3514  0.5658
  706MOL0    Cl95220   6.790   8.664   3.222 -0.3140 -0.0558 -0.1566
  706MOL0     C95221   7.310   7.845   3.663  0.8786  1.2946  0.0569
  706MOL0     C95222   7.448   7.860   3.667 -0.0475  0.0369 -0.6002
  706MOL0     O95223   7.692   7.869   3.375 -1.1308  0.3587  0.0277
  706MOL0     C95224   7.960   7.796   3.579  0.3601  0.4319  0.2114
  706MOL0     C95225   8.089   7.746   3.582 -0.1291 -0.5585 -0.6591
  706MOL0     N95226   8.798   7.700   3.344 -0.2556 -0.4521 -0.4369
  706MOL0     N95227   8.913   7.745   3.338 -0.0489 -0.4687 -0.0722
  706MOL0     C95228   9.563   7.508   4.403 -0.1217 -0.4442  0.3608
  706MOL0     C95229   9.690   7.480   4.462  0.8179 -0.6125 -0.6490
  706MOL0     C95230  10.125   7.443   4.530  0.8584 -0.0893 -0.0682
  706MOL0     C95231  10.191   7.528   4.621 -0.4408  0.0460 -0.2149
  706MOL0     C95232  10.321   7.493   4.672  0.8421 -0.2876 -0.1068
  706MOL0     C95233  10.380   7.375   4.641 -0.4041  0.2160 -0.1205
  706MOL0     O95234  10.511   7.353   4.697  0.2303  0.2064  0.5912
  706MOL0     C95235  10.577   7.225   4.697 -0.3756 -0.1106 -0.4148
  706MOL0     C95236  10.722   7.246   4.752  0.6590  0.1524  0.3251
  706MOL0     C95237  10.706   7.292   4.896 -0.0972 -0.1033  0.7026
  706MOL0     C95238  10.654   7.177   4.993  0.3866 -0.5899  0.3886
  706MOL0     C95239  10.670   7.215   5.132  0.3550  0.0864  1.0758
  706MOL0     C95240  10.673   7.226   5.252 -0.6767 -0.9847 -0.2263
  706MOL0     C95241  10.316   7.284   4.562 -0.1985 -0.3511  0.1691
  706MOL0     C95242  10.188   7.319   4.505 -0.2874 -0.0492 -0.9885
  706MOL0     H95243   9.817   7.786   4.474  2.1522 -1.1779 -3.1821
  706MOL0     H95244   9.612   7.840   4.378 -0.7125 -0.1181 -2.2651
  706MOL0     H95245   9.363   7.850   4.331  2.0465 -0.1139  0.8922
  706MOL0     H95246   9.490   7.835   4.206  0.2439 -1.0428 -0.5635
  706MOL0     H95247   9.213   7.741   4.159 -0.2409  0.8908  1.2713
  706MOL0     H95248   9.244   7.908   4.128 -0.6950 -0.0344  0.9640
  706MOL0     H95249   9.451   7.825   3.978  1.3302 -2.5059 -1.0092
  706MOL0     H95250   9.378   7.662   3.993 -0.2222 -0.6888 -1.5388
  706MOL0     H95251   9.163   7.747   3.911  0.0820 -1.2479 -1.3397
  706MOL0     H95252   9.226   7.915   3.890 -2.6459 -0.6860 -1.8651
  706MOL0     H95253   9.413   7.816   3.754  0.0057  0.2179  1.1227
  706MOL0     H95254   9.296   7.691   3.703  1.3871  0.1965 -0.7963
  706MOL0     H95255   9.239   7.999   3.705  0.2111 -1.1663  0.9036
  706MOL0     H95256   9.306   7.912   3.560  0.6975 -4.9483 -0.8449
  706MOL0     H95257   9.072   7.814   3.714  2.5174  2.6941  2.6989
  706MOL0     H95258   9.041   7.951   3.610  0.5708  0.2251 -0.8810
  706MOL0     H95259   9.166   7.696   3.528 -0.3870 -1.0894  0.1177
  706MOL0     H95260   9.152   7.833   3.416  0.4079 -1.9081 -1.0767
  706MOL0     H95261   8.924   7.622   3.634 -1.2458 -2.1528 -0.3738
  706MOL0     H95262   8.714   7.433   3.464 -0.0553  1.6900 -0.7614
  706MOL0     H95263   8.679   7.538   3.609 -2.0914 -1.6242  0.6873
  706MOL0     H95264   8.551   7.591   3.343 -0.3648  0.8674  0.9336
  706MOL0     H95265   8.507   7.649   3.508 -1.0563  0.5266  0.2713
  706MOL0     H95266   8.418   7.402   3.545 -0.4575 -1.3185  0.2561
  706MOL0     H95267   8.467   7.376   3.372 -1.8988 -0.5524  0.0095
  706MOL0     H95268   8.242   7.415   3.379  0.8661  0.0835 -1.2022
  706MOL0     H95269   8.319   7.571   3.330 -1.2032  0.4244  0.4863
  706MOL0     H95270   8.050   7.502   3.350 -0.1085 -0.8682  2.1165
  706MOL0     H95271   7.770   7.661   3.216 -0.2379 -2.1895 -0.5392
  706MOL0     H95272   7.863   7.519   3.224 -1.4062 -2.1806  0.0024
  706MOL0     H95273   7.722   7.536   3.326  0.6313 -1.3421 -0.9265
  706MOL0     H95274   7.521   7.641   3.409  3.3422  2.3619  0.8625
  706MOL0     H95275   7.280   7.615   3.413 -2.1818  1.9640 -1.0032
  706MOL0     H95276   7.078   7.793   3.375  1.5065  1.8317  1.6565
  706MOL0     H95277   7.017   7.643   3.431  1.5114 -0.5966 -0.4518
  706MOL0     H95278   6.816   7.750   3.508  1.1023 -0.7194  2.5841
  706MOL0     H95279   6.900   7.890   3.584  3.3314  0.8530 -1.0922
  706MOL0     H95280   6.741   7.917   3.396 -0.0736  1.3713  1.7415
  706MOL0     H95281   6.873   7.860   3.280  2.2349  0.2738 -0.4580
  706MOL0     H95282   6.932   8.077   3.483  0.5019  0.1776  0.7149
  706MOL0     H95283   7.010   8.033   3.327 -2.5027 -0.7042 -2.5531
  706MOL0     H95284   6.733   8.154   3.363 -1.1850 -3.6218 -0.9648
  706MOL0     H95285   6.814   8.126   3.206 -0.6235  0.3337 -0.1752
  706MOL0     H95286   6.958   8.298   3.414  1.1262 -1.2421  0.1779
  706MOL0     H95287   6.973   8.281   3.238 -1.6943  0.7047 -0.6762
  706MOL0     H95288   6.734   8.405   3.384 -1.4933 -2.1511  0.1009
  706MOL0     H95289   6.753   8.397   3.208  2.5083 -1.4105 -0.9778
  706MOL0     H95290   6.973   8.524   3.237 -1.0311 -1.5205 -1.7811
  706MOL0     H95291   6.914   8.565   3.400  3.6245 -0.1771 -0.2875
  706MOL0     H95292   7.249   7.896   3.736  1.3263 -0.7663  1.9787
  706MOL0     H95293   7.500   7.926   3.736 -2.0710  1.2292 -0.1391
  706MOL0     H95294   7.937   7.871   3.653  1.1831  1.2932 -0.3782
  706MOL0     H95295   8.164   7.784   3.651  0.5521 -1.3223 -0.9536
  706MOL0     H95296   9.495   7.427   4.380 -2.8474  1.1457  2.1924
  706MOL0     H95297   9.706   7.377   4.493 -2.7992 -2.2391 -3.4810
  706MOL0     H95298  10.137   7.614   4.661 -3.2728 -3.2557  4.0827
  706MOL0     H95299  10.379   7.560   4.733  0.0102  1.4087 -1.0863
  706MOL0     H95300  10.535   7.152   4.766  2.6791  0.3950  2.2216
  706MOL0     H95301  10.576   7.183   4.596 -0.1893 -2.8447  0.6353
  706MOL0     H95302  10.784   7.314   4.692  0.7709 -1.8615 -2.0486
  706MOL0     H95303  10.784   7.156   4.747 -2.4114 -2.0720 -0.2738
  706MOL0     H95304  10.638   7.377   4.895 -2.0973 -1.6100 -0.6549
  706MOL0     H95305  10.798   7.333   4.939  0.6773 -1.1018  0.0431
  706MOL0     H95306  10.708   7.088   4.960  3.2795  1.2839 -0.3253
  706MOL0     H95307  10.548   7.160   4.972  0.4725  0.0581 -0.6424
  706MOL0     H95308  10.676   7.253   5.355 -1.5011 -1.6496 -0.0182
  706MOL0     H95309  10.359   7.185   4.551  1.8915  0.4784  0.4451
  706MOL0     H95310  10.148   7.237   4.445 -0.1579  1.1555 -2.7997
  707MOL0     O95311   0.022   5.912   5.358  0.2179 -0.3061  0.2519
  707MOL0     C95312   0.069   6.025   5.337 -0.6007  0.6556 -0.4698
  707MOL0     O95313   0.060   6.094   5.224 -0.0673 -0.0320  0.4429
  707MOL0     C95314  -0.009   6.042   5.110 -0.5501 -0.1812 -0.3829
  707MOL0     C95315   0.055   6.056   4.991 -0.5704 -1.2994  0.5136
  707MOL0     C95316   0.013   5.990   4.881 -0.6759 -0.0528  0.0804
  707MOL0     C95317  -0.110   5.919   4.884  0.6009  0.4884  0.5623
  707MOL0     O95318  -0.161   5.846   4.781 -0.6360 -0.0463 -1.2316
  707MOL0     C95319  -0.159   5.908   4.651 -0.1316 -0.2484  0.8069
  707MOL0     C95320  -0.211   6.054   4.645  0.2228  0.5176  0.2147
  707MOL0     C95321  -0.361   6.050   4.649  0.3982  0.4488  0.8134
  707MOL0     C95322  -0.426   6.197   4.667  0.1319 -0.1859  0.7488
  707MOL0     C95323  -0.556   6.208   4.577 -0.2857  0.4335 -1.3411
  707MOL0     C95324  -0.624   6.343   4.594 -0.0792  0.1378 -0.3047
  707MOL0     C95325  -0.687   6.365   4.734 -1.3990 -0.7578  0.2613
  707MOL0     C95326  -0.759   6.241   4.785  0.2849  0.6523  0.1599
  707MOL0     N95327  -0.865   6.196   4.698 -0.5076 -0.6939 -0.2048
  707MOL0     C95328  -0.977   6.266   4.650 -0.0293 -0.0978  0.3679
  707MOL0     C95329  -1.050   6.179   4.574 -0.3295 -0.4868 -0.3264
  707MOL0     C95330  -1.173   6.202   4.491 -0.4232  0.1831  0.6043
  707MOL0     C95331  -1.302   6.189   4.564  0.1519 -0.5414 -0.1207
  707MOL0     C95332  -1.351   6.049   4.603  0.6332 -1.1404 -0.7085
  707MOL0     C95333  -1.502   6.047   4.646  0.5043 -0.8423  0.1758
  707MOL0     O95334  -1.532   5.925   4.713 -0.9957  0.7539  0.2825
  707MOL0     C95335  -1.661   5.887   4.745  1.1964 -0.5757 -0.2774
  707MOL0     C95336  -1.700   5.757   4.760  1.0988  0.4470  0.4010
  707MOL0     C95337  -1.834   5.723   4.787  0.3851 -0.9143  0.3065
  707MOL0     C95338  -1.854   5.579   4.819 -0.2431 -0.4676  0.1135
  707MOL0     C95339  -1.930   5.827   4.808  0.1132 -0.0969 -0.3271
  707MOL0     C95340  -2.073   5.805   4.854  0.3909  0.4504  0.2348
  707MOL0     O95341  -2.104   5.673   4.887  0.8785  0.7246 -0.1938
  707MOL0     C95342  -2.232   5.662   4.941  0.0337  1.1658  0.9360
  707MOL0     C95343  -2.255   5.689   5.074 -0.3376 -0.1671  0.5261
  707MOL0     C95344  -2.383   5.683   5.138  0.2939 -0.5981  1.2214
  707MOL0     C95345  -2.490   5.651   5.057  0.1534  0.4900 -0.3743
  707MOL0     O95346  -2.605   5.644   5.139 -0.1408  0.4933 -0.9160
  707MOL0     C95347  -2.715   5.576   5.078 -0.8046  0.4386 -0.0122
  707MOL0     C95348  -2.827   5.585   5.179 -0.2584 -0.0681  0.7409
  707MOL0     C95349  -2.952   5.499   5.132  0.5799  0.0633  0.6725
  707MOL0     C95350  -3.077   5.532   5.211  0.0805  0.7174  0.5638
  707MOL0     C95351  -3.204   5.468   5.152 -0.2161 -0.2612  0.5165
  707MOL0     C95352  -3.338   5.505   5.231 -0.3932 -0.4073 -0.0989
  707MOL0     C95353  -3.448   5.441   5.155  0.3937 -0.5689  0.6317
  707MOL0     C95354  -3.573   5.464   5.240  0.3819 -0.1945  0.1746
  707MOL0    Cl95355  -3.714   5.445   5.134 -0.6042 -0.0580  0.3318
  707MOL0     C95356  -2.473   5.624   4.912  0.0008 -0.2061 -1.0229
  707MOL0     C95357  -2.345   5.638   4.853 -0.5589  0.2617  0.3929
  707MOL0     O95358  -2.150   5.900   4.866 -0.2323 -0.1566  0.3688
  707MOL0     C95359  -1.888   5.960   4.789 -0.6205 -0.4066  0.9706
  707MOL0     C95360  -1.757   5.988   4.751  1.2774  0.7246 -0.1815
  707MOL0     N95361  -0.981   6.058   4.568 -0.6476 -0.2128 -0.2892
  707MOL0     N95362  -0.880   6.068   4.650 -0.3357  0.1808 -0.1382
  707MOL0     C95363  -0.181   5.913   5.004  0.1554 -0.3381  0.3490
  707MOL0     C95364  -0.130   5.979   5.120  0.3392  0.8292  0.8515
  707MOL0     C95365   0.156   6.092   5.440 -0.1358  1.1803 -0.4630
  707MOL0     C95366   0.148   6.229   5.456  0.0243 -0.0461 -0.4771
  707MOL0     C95367   0.212   6.293   5.563 -0.6469 -0.3155  0.3157
  707MOL0     C95368   0.303   6.216   5.640  0.2106 -0.4714 -0.5084
  707MOL0     O95369   0.370   6.284   5.735  0.1732 -0.1933  0.2579
  707MOL0     C95370   0.427   6.208   5.841 -0.6449 -0.1244  0.2077
  707MOL0     C95371   0.488   6.301   5.942  0.2722  0.2600  0.2284
  707MOL0     C95372   0.600   6.389   5.866 -0.0480 -1.1941 -0.2896
  707MOL0     C95373   0.709   6.305   5.788  1.1952  0.5750 -0.6760
  707MOL0     C95374   0.804   6.403   5.734 -0.6712  0.8172  0.0479
  707MOL0     C95375   0.880   6.482   5.683 -0.0824 -0.7317  0.5418
  707MOL0     C95376   0.318   6.079   5.619  0.4270  0.1924  0.0763
  707MOL0     C95377   0.246   6.012   5.515 -0.2626 -0.1748  0.6020
  707MOL0     H95378   0.153   6.102   4.996 -0.9957 -0.4385  1.1394
  707MOL0     H95379   0.063   5.988   4.785  0.6165 -0.3545  0.7430
  707MOL0     H95380  -0.053   5.902   4.625 -0.0790  0.7447  0.7619
  707MOL0     H95381  -0.226   5.851   4.587 -0.8508  0.1223  1.2069
  707MOL0     H95382  -0.173   6.113   4.728 -4.2108  3.1704  0.6629
  707MOL0     H95383  -0.183   6.104   4.552  1.6899 -0.9107 -0.1699
  707MOL0     H95384  -0.397   6.010   4.554 -0.5037  3.4315 -0.2080
  707MOL0     H95385  -0.413   5.997   4.730 -2.6095  1.2004 -0.4626
  707MOL0     H95386  -0.452   6.201   4.774 -0.3419  1.2438  0.5980
  707MOL0     H95387  -0.370   6.286   4.640  1.1572 -0.2975  2.3438
  707MOL0     H95388  -0.526   6.218   4.472 -0.6382  2.0091 -1.3325
  707MOL0     H95389  -0.618   6.119   4.589 -0.0057 -0.1583 -3.7480
  707MOL0     H95390  -0.558   6.427   4.572 -1.6547  0.8648 -2.6777
  707MOL0     H95391  -0.698   6.356   4.514  0.5142  3.2958 -0.4435
  707MOL0     H95392  -0.605   6.382   4.804 -1.4157 -2.9335  0.8958
  707MOL0     H95393  -0.745   6.458   4.733 -0.1940  0.0311 -1.3507
  707MOL0     H95394  -0.800   6.267   4.883 -0.4008  3.2760 -0.7340
  707MOL0     H95395  -0.689   6.160   4.805  0.2606  0.3931 -0.7220
  707MOL0     H95396  -0.991   6.374   4.652  1.1621  0.1432 -1.4841
  707MOL0     H95397  -1.174   6.307   4.461 -0.1824 -0.8376 -3.5871
  707MOL0     H95398  -1.171   6.133   4.406 -1.5590 -1.4391  1.8330
  707MOL0     H95399  -1.378   6.236   4.501 -0.5801  1.5589  2.1791
  707MOL0     H95400  -1.292   6.247   4.656  1.5164 -1.2617  0.2146
  707MOL0     H95401  -1.285   6.014   4.683 -1.6650  1.2185  2.4559
  707MOL0     H95402  -1.362   5.982   4.517 -1.9723 -1.5822 -0.0985
  707MOL0     H95403  -1.561   6.071   4.557 -1.2072  1.0738  1.7345
  707MOL0     H95404  -1.525   6.128   4.715 -3.1275  1.0517 -2.9046
  707MOL0     H95405  -1.636   5.670   4.748  2.9708  1.2757  3.3279
  707MOL0     H95406  -1.769   5.512   4.804 -0.2266  0.1934 -3.8700
  707MOL0     H95407  -1.875   5.572   4.926 -1.7874  2.9465  0.1926
  707MOL0     H95408  -1.931   5.533   4.757  1.1164 -0.8429 -1.3532
  707MOL0     H95409  -2.168   5.726   5.127 -0.2856  1.2276 -0.4727
  707MOL0     H95410  -2.396   5.703   5.244  2.5684 -1.1586  1.6475
  707MOL0     H95411  -2.745   5.624   4.985  0.2552  3.1859  0.9740
  707MOL0     H95412  -2.670   5.479   5.055 -1.1084  0.0898  0.8044
  707MOL0     H95413  -2.787   5.549   5.274 -3.0708 -3.3462  0.8745
  707MOL0     H95414  -2.859   5.689   5.186  1.6628  0.4942  1.8220
  707MOL0     H95415  -2.927   5.392   5.130  0.4083  0.0251 -0.2142
  707MOL0     H95416  -2.974   5.527   5.028 -0.7881 -1.6604  0.4539
  707MOL0     H95417  -3.069   5.487   5.310  0.4979 -1.2956 -0.3328
  707MOL0     H95418  -3.084   5.640   5.229  0.2016  0.6701  0.9051
  707MOL0     H95419  -3.198   5.359   5.145 -1.4800 -0.2439 -2.5703
  707MOL0     H95420  -3.210   5.515   5.054 -1.1453  1.7487  1.4844
  707MOL0     H95421  -3.325   5.458   5.328 -2.9455 -0.8924  0.0776
  707MOL0     H95422  -3.352   5.612   5.247  1.1570 -0.0716 -0.8348
  707MOL0     H95423  -3.432   5.333   5.148 -1.1083 -0.7765 -0.0095
  707MOL0     H95424  -3.467   5.477   5.054 -2.3237 -1.7351  0.6608
  707MOL0     H95425  -3.576   5.557   5.298  1.1688 -0.2743  0.3522
  707MOL0     H95426  -3.570   5.381   5.311 -1.1649 -0.6692 -0.2731
  707MOL0     H95427  -2.555   5.604   4.844  0.5432 -1.0069 -1.4745
  707MOL0     H95428  -2.323   5.634   4.747  1.1323 -0.9848  0.7443
  707MOL0     H95429  -1.955   6.044   4.802 -0.4454  0.0516 -0.8968
  707MOL0     H95430  -1.719   6.089   4.742  0.5860  0.8898 -1.5214
  707MOL0     H95431  -0.269   5.850   5.003  1.4756 -2.3346  1.9197
  707MOL0     H95432  -0.188   5.974   5.211 -1.0683  0.2107 -0.0513
  707MOL0     H95433   0.082   6.287   5.393 -1.4717 -2.7555 -1.5912
  707MOL0     H95434   0.200   6.395   5.596  2.0367 -0.4049  1.8448
  707MOL0     H95435   0.343   6.153   5.884 -0.4451 -1.0165 -0.5115
  707MOL0     H95436   0.499   6.133   5.806 -0.9865 -0.7135  0.7465
  707MOL0     H95437   0.520   6.231   6.018  0.9627 -0.6921 -0.9091
  707MOL0     H95438   0.419   6.371   5.990 -0.8456  0.4447 -1.5333
  707MOL0     H95439   0.652   6.459   5.931 -1.4408 -2.6055  2.5438
  707MOL0     H95440   0.548   6.454   5.795  2.1321  1.2806  0.2410
  707MOL0     H95441   0.669   6.254   5.699  0.1477 -0.8891  0.5750
  707MOL0     H95442   0.753   6.236   5.861  1.8833  1.3379 -0.3576
  707MOL0     H95443   0.955   6.544   5.637 -1.0474 -1.8102 -2.7897
  707MOL0     H95444   0.377   6.010   5.678  0.7817  0.0312 -0.4506
  707MOL0     H95445   0.261   5.905   5.507  1.6217  0.0293  1.1467
  708MOL0     O95446   9.504   1.609   8.606 -0.5470  0.3779 -0.2329
  708MOL0     C95447   9.511   1.728   8.577  0.1007 -0.1530 -0.8177
  708MOL0     O95448   9.408   1.815   8.574 -0.2958 -0.1439 -0.2095
  708MOL0     C95449   9.286   1.801   8.634  0.0283 -0.0026 -0.1273
  708MOL0     C95450   9.198   1.914   8.620  0.5265 -0.1499 -0.2443
  708MOL0     C95451   9.074   1.920   8.696  0.9319 -0.0011 -0.7616
  708MOL0     C95452   9.036   1.802   8.764  0.7813  0.4155  0.2433
  708MOL0     O95453   8.910   1.806   8.820  0.1656 -0.1725 -0.0478
  708MOL0     C95454   8.868   1.719   8.929 -0.5029  0.1527  0.4957
  708MOL0     C95455   8.934   1.759   9.062 -0.7948  0.3111 -0.7993
  708MOL0     C95456   8.844   1.698   9.169  0.4034 -0.5786  0.0433
  708MOL0     C95457   8.875   1.772   9.303  0.0541 -0.1980 -0.1099
  708MOL0     C95458   8.772   1.756   9.415 -0.0658 -0.6488 -0.9451
  708MOL0     C95459   8.818   1.830   9.545 -0.2811  0.5805  0.0270
  708MOL0     C95460   8.726   1.812   9.664  0.1281 -0.9720  0.1187
  708MOL0     C95461   8.788   1.882   9.783 -0.1502 -0.5917  0.6722
  708MOL0     N95462   8.876   1.799   9.869  0.6409 -0.3100 -0.1740
  708MOL0     C95463   8.848   1.687   9.940  0.5935 -0.4622  0.3020
  708MOL0     C95464   8.957   1.668  10.016  0.3971 -0.0914  0.5374
  708MOL0     C95465   8.968   1.544  10.105 -0.3122 -0.5278 -0.0265
  708MOL0     C95466   8.886   1.551  10.225 -0.6035 -0.2691  0.3058
  708MOL0     C95467   8.858   1.409  10.284 -0.0191 -0.3812 -0.0803
  708MOL0     C95468   8.762   1.427  10.404  0.9009 -0.3599 -0.5421
  708MOL0     O95469   8.627   1.395  10.375  0.4255  0.0643  0.1439
  708MOL0     C95470   8.524   1.445  10.456 -0.1758 -1.4653  0.8890
  708MOL0     C95471   8.523   1.585  10.480 -0.4114 -0.0269  0.3085
  708MOL0     C95472   8.415   1.641  10.550  0.2858 -0.3680  0.7929
  708MOL0     C95473   8.416   1.790  10.563  0.0778  0.4423 -1.0742
  708MOL0     C95474   8.316   1.560  10.602  0.4420 -0.0240 -0.4743
  708MOL0     C95475   8.191   1.607  10.677 -0.5833 -0.1377 -0.3094
  708MOL0     O95476   8.159   1.734  10.668  0.0305 -0.2127  0.5710
  708MOL0     C95477   8.044   1.775  10.734 -1.1497  0.5036 -0.6719
  708MOL0     C95478   8.056   1.810  10.869 -0.2807 -0.0378  0.2649
  708MOL0     C95479   7.936   1.850  10.937 -0.5721 -0.7434 -0.0520
  708MOL0     C95480   7.824   1.886  10.870  0.0824  0.7870  0.0218
  708MOL0     O95481   7.723   1.938  10.946  0.4246  1.1187  0.3480
  708MOL0     C95482   7.612   1.999  10.886 -0.6304  0.2675  0.2315
  708MOL0     C95483   7.562   2.097  10.999  0.2794  0.2640  0.0901
  708MOL0     C95484   7.417   2.122  10.978 -0.0068 -0.5153  0.6466
  708MOL0     C95485   7.373   2.244  11.051  0.6403  0.7758 -0.1996
  708MOL0     C95486   7.335   2.211  11.196 -0.3745  1.0364 -0.5271
  708MOL0     C95487   7.314   2.339  11.285 -0.4863 -1.0104 -0.6535
  708MOL0     C95488   7.317   2.320  11.438 -0.2065  0.3632  0.2696
  708MOL0     C95489   7.188   2.265  11.501 -0.3223 -0.0573 -0.4195
  708MOL0    Cl95490   7.215   2.200  11.657 -0.2211 -0.0331  0.4450
  708MOL0     C95491   7.815   1.857  10.729 -0.1367 -0.4052 -0.2737
  708MOL0     C95492   7.925   1.795  10.664  0.6088  0.6525  0.2241
  708MOL0     O95493   8.131   1.523  10.748  0.6209  0.7546 -0.0662
  708MOL0     C95494   8.330   1.425  10.589  1.0315 -0.4807  0.4759
  708MOL0     C95495   8.428   1.366  10.512 -0.3910 -0.0126 -0.8397
  708MOL0     N95496   9.058   1.759   9.988 -0.1640  0.0443 -0.0814
  708MOL0     N95497   9.005   1.835   9.892  0.3851 -0.1885 -0.0258
  708MOL0     C95498   9.117   1.689   8.763 -0.0407 -0.7819 -0.3086
  708MOL0     C95499   9.238   1.680   8.694 -0.6460 -0.7690 -1.2671
  708MOL0     C95500   9.641   1.801   8.559  0.2328  0.3407  0.3229
  708MOL0     C95501   9.651   1.940   8.586 -1.3216  0.2848  0.4252
  708MOL0     C95502   9.786   2.002   8.568  1.1592  0.3709  1.2816
  708MOL0     C95503   9.890   1.923   8.530  0.2286 -0.5571 -0.0800
  708MOL0     O95504  10.011   1.990   8.529 -0.4428 -0.0482  0.3538
  708MOL0     C95505  10.127   1.936   8.449  0.1060 -0.0315 -0.3653
  708MOL0     C95506  10.236   2.044   8.462 -0.0673  0.1010  0.2541
  708MOL0     C95507  10.368   1.999   8.385  0.6093  0.4217  0.4110
  708MOL0     C95508  10.435   1.866   8.443  0.1865  0.2138  0.8470
  708MOL0     C95509  10.475   1.876   8.581  0.1279 -0.5126  0.4560
  708MOL0     C95510  10.531   1.876   8.687  0.0918  0.0452  0.0810
  708MOL0     C95511   9.877   1.791   8.506 -0.4151 -0.0118  0.3072
  708MOL0     C95512   9.757   1.729   8.521 -0.0380  0.1133 -0.4421
  708MOL0     H95513   9.237   1.995   8.558 -0.7329  2.3167  1.9680
  708MOL0     H95514   8.997   1.996   8.685  0.9489  0.0944 -0.2340
  708MOL0     H95515   8.761   1.734   8.944 -0.3364 -0.8993  3.3425
  708MOL0     H95516   8.878   1.617   8.893  0.2561  0.1820  0.6164
  708MOL0     H95517   9.039   1.734   9.076 -0.3662  1.7327 -1.3034
  708MOL0     H95518   8.943   1.868   9.065  0.7845  0.3295 -3.3630
  708MOL0     H95519   8.738   1.714   9.149  0.6264  0.7318 -0.2214
  708MOL0     H95520   8.861   1.590   9.180 -0.3903 -0.6889  0.2247
  708MOL0     H95521   8.970   1.736   9.343 -0.8358 -1.7025  0.7245
  708MOL0     H95522   8.885   1.880   9.286  0.9911 -0.1420  0.7449
  708MOL0     H95523   8.672   1.792   9.389 -0.6026 -1.1457  0.3496
  708MOL0     H95524   8.765   1.647   9.425 -1.3768 -0.3909  1.6147
  708MOL0     H95525   8.917   1.795   9.576  0.3494  0.6951 -1.7179
  708MOL0     H95526   8.810   1.939   9.533  1.0568  0.6111 -0.8664
  708MOL0     H95527   8.629   1.855   9.639  1.2550  0.3402 -2.2832
  708MOL0     H95528   8.712   1.707   9.689  1.6575 -0.9187  1.4261
  708MOL0     H95529   8.706   1.910   9.851  1.1486  0.4402  1.8713
  708MOL0     H95530   8.837   1.972   9.747  1.2288 -0.6010  2.4164
  708MOL0     H95531   8.763   1.621   9.952  0.8642 -0.6202  1.4970
  708MOL0     H95532   8.925   1.469  10.039 -3.4526  0.4006  0.8033
  708MOL0     H95533   9.070   1.519  10.136  0.0370  1.0410  0.1904
  708MOL0     H95534   8.791   1.605  10.218  0.3303  1.8596  2.6560
  708MOL0     H95535   8.944   1.603  10.303  0.4481  2.3769 -2.0716
  708MOL0     H95536   8.951   1.366  10.322  0.3798  1.7247  1.5484
  708MOL0     H95537   8.814   1.351  10.202  0.2671  1.0108 -1.2529
  708MOL0     H95538   8.769   1.523  10.457 -3.6981 -1.0711  1.8518
  708MOL0     H95539   8.802   1.359  10.480  2.9921  1.3078 -0.0439
  708MOL0     H95540   8.604   1.649  10.447  1.8538 -2.9396 -0.2934
  708MOL0     H95541   8.325   1.829  10.518 -0.9250 -2.2057 -1.5338
  708MOL0     H95542   8.421   1.839  10.660 -2.4209  1.0830 -1.1976
  708MOL0     H95543   8.496   1.831  10.500  0.9931 -0.9903 -0.8950
  708MOL0     H95544   8.140   1.792  10.935 -2.9500 -1.6224  3.5063
  708MOL0     H95545   7.944   1.867  11.044 -0.4343  0.6487 -0.2595
  708MOL0     H95546   7.631   2.075  10.810 -0.2659  1.0350  1.0599
  708MOL0     H95547   7.539   1.930  10.843  0.2677  0.2469 -1.3283
  708MOL0     H95548   7.571   2.050  11.098 -0.0519 -1.6929 -0.7661
  708MOL0     H95549   7.620   2.187  10.979 -0.0663 -0.2949 -4.3733
  708MOL0     H95550   7.350   2.040  11.005 -2.6189  1.0958 -0.5548
  708MOL0     H95551   7.409   2.136  10.870 -1.6391  2.5642  1.0646
  708MOL0     H95552   7.452   2.319  11.044 -0.3983  2.0551  1.1703
  708MOL0     H95553   7.284   2.285  11.003  0.8434 -0.1406 -1.4111
  708MOL0     H95554   7.412   2.149  11.241 -0.5419  0.1786 -1.3886
  708MOL0     H95555   7.250   2.142  11.197  2.0103 -2.1229 -0.0562
  708MOL0     H95556   7.403   2.400  11.267  0.5754 -2.8317 -1.9567
  708MOL0     H95557   7.228   2.403  11.265 -0.2656  0.1213  1.6836
  708MOL0     H95558   7.327   2.418  11.485 -2.3712  1.9888 -2.3433
  708MOL0     H95559   7.405   2.258  11.458  1.2961  2.3179  0.0450
  708MOL0     H95560   7.159   2.183  11.434  0.4903  0.6427 -1.6598
  708MOL0     H95561   7.112   2.341  11.519  2.2220  2.4455  0.4945
  708MOL0     H95562   7.728   1.895  10.675  0.7761 -0.8463 -2.1370
  708MOL0     H95563   7.924   1.763  10.560 -0.4286  2.7220 -0.4550
  708MOL0     H95564   8.260   1.355  10.635  0.6711 -0.0705  0.5661
  708MOL0     H95565   8.435   1.258  10.504  5.0450  0.0702 -1.1333
  708MOL0     H95566   9.079   1.597   8.807  0.4807 -1.8876 -2.0861
  708MOL0     H95567   9.297   1.590   8.705  0.1615 -0.5041 -3.1558
  708MOL0     H95568   9.568   2.003   8.615 -2.3910  0.8381 -3.3207
  708MOL0     H95569   9.819   2.103   8.587  3.3328  0.0044 -0.2009
  708MOL0     H95570  10.161   1.845   8.499  2.4597  1.8054  1.5820
  708MOL0     H95571  10.101   1.916   8.345 -0.3350  2.1799 -0.7325
  708MOL0     H95572  10.256   2.061   8.568 -0.7586  4.3708 -0.1400
  708MOL0     H95573  10.200   2.140   8.425 -0.8271  0.6526  2.2798
  708MOL0     H95574  10.446   2.075   8.391  0.9941  0.2448 -1.6393
  708MOL0     H95575  10.354   1.986   8.278  0.3926 -0.7163  0.5557
  708MOL0     H95576  10.531   1.851   8.393 -0.0888 -1.6065  0.8036
  708MOL0     H95577  10.366   1.781   8.432 -1.6336  1.6235  0.7761
  708MOL0     H95578  10.580   1.873   8.783  2.9004  0.6856 -1.2494
  708MOL0     H95579   9.954   1.721   8.472  0.4826 -0.6436  3.3029
  708MOL0     H95580   9.746   1.622   8.505  1.3700 -0.2269  0.6589
  709MOL0     O95581   1.343   4.454   7.356 -0.6519  0.3551 -0.3068
  709MOL0     C95582   1.341   4.453   7.227  0.2989 -0.5435 -0.4340
  709MOL0     O95583   1.250   4.507   7.146 -0.2124 -0.0797  0.6357
  709MOL0     C95584   1.139   4.561   7.206 -0.0148 -0.0761  0.6382
  709MOL0     C95585   1.119   4.701   7.216  0.5963 -0.6131  0.3054
  709MOL0     C95586   1.000   4.747   7.263  0.0288  0.7321 -0.2174
  709MOL0     C95587   0.898   4.660   7.300  0.4961 -0.9150  1.0010
  709MOL0     O95588   0.781   4.709   7.355 -0.0361  0.2685 -0.2489
  709MOL0     C95589   0.767   4.847   7.394 -0.1706  0.1539  0.2917
  709MOL0     C95590   0.638   4.856   7.484  0.7160 -0.0506 -0.0673
  709MOL0     C95591   0.558   4.990   7.446  0.2098  0.5526  0.2262
  709MOL0     C95592   0.453   5.019   7.543  0.5483  0.3733 -0.2856
  709MOL0     C95593   0.382   5.143   7.491 -0.8484 -0.3476  0.1518
  709MOL0     C95594   0.308   5.204   7.608  0.1740 -0.3346  0.4703
  709MOL0     C95595   0.238   5.339   7.570  0.9876  0.4377 -0.6462
  709MOL0     C95596   0.167   5.390   7.691 -1.4406 -0.4883 -0.7843
  709MOL0     N95597   0.088   5.297   7.767  0.3077  0.2584 -0.2007
  709MOL0     C95598   0.129   5.229   7.877  0.3623 -0.2480  0.2269
  709MOL0     C95599   0.012   5.188   7.927  0.9010 -0.4259  0.0228
  709MOL0     C95600   0.002   5.136   8.070  0.0500  0.5217  0.8444
  709MOL0     C95601  -0.113   5.198   8.149  1.6513 -0.0282  0.7182
  709MOL0     C95602  -0.128   5.152   8.292  0.5754  0.9073 -0.0346
  709MOL0     C95603  -0.245   5.222   8.368  0.2975 -0.2606  0.0674
  709MOL0     O95604  -0.370   5.172   8.327 -0.2621  0.0585  0.1360
  709MOL0     C95605  -0.418   5.049   8.364  0.1971 -0.7000 -0.4052
  709MOL0     C95606  -0.542   5.013   8.302 -0.7852  0.0433 -0.5319
  709MOL0     C95607  -0.618   4.890   8.334  0.2847 -0.5879  0.0711
  709MOL0     C95608  -0.763   4.894   8.296  0.0522  1.0742  0.5560
  709MOL0     C95609  -0.550   4.796   8.411  0.0497 -0.0327 -0.7500
  709MOL0     C95610  -0.608   4.665   8.430 -0.1865 -0.0313 -0.0245
  709MOL0     O95611  -0.698   4.631   8.330 -0.0072 -0.3947 -0.5348
  709MOL0     C95612  -0.760   4.515   8.315 -0.4721 -0.0804  1.3101
  709MOL0     C95613  -0.717   4.390   8.365 -0.5850 -0.0806  1.0511
  709MOL0     C95614  -0.790   4.274   8.349 -0.7065 -0.2591 -0.4589
  709MOL0     C95615  -0.910   4.274   8.276 -0.2156 -0.8016 -0.4756
  709MOL0     O95616  -0.964   4.160   8.243  0.3214  0.9860 -0.6365
  709MOL0     C95617  -1.082   4.169   8.168  0.3435  0.0859  0.7991
  709MOL0     C95618  -1.160   4.035   8.138 -1.0277  0.3311  0.0036
  709MOL0     C95619  -1.241   4.058   8.019  0.5142 -0.0458 -0.0698
  709MOL0     C95620  -1.385   3.985   8.032 -0.8091 -0.7319 -0.4544
  709MOL0     C95621  -1.456   3.989   7.895  0.0072 -0.1041 -0.4336
  709MOL0     C95622  -1.584   3.910   7.896  0.3713 -0.0712 -0.4475
  709MOL0     C95623  -1.626   3.882   7.749  0.1480 -0.6507 -0.4522
  709MOL0     C95624  -1.766   3.816   7.749 -0.2238 -0.2011 -0.4474
  709MOL0    Cl95625  -1.913   3.933   7.798  0.1020 -0.2133  0.0317
  709MOL0     C95626  -0.949   4.397   8.223 -0.2477  0.2028 -0.5452
  709MOL0     C95627  -0.876   4.517   8.238 -0.8562 -0.1518 -0.6537
  709MOL0     O95628  -0.578   4.600   8.528  0.3000  0.2002 -0.1728
  709MOL0     C95629  -0.426   4.825   8.471 -0.0553 -0.2563  0.1019
  709MOL0     C95630  -0.359   4.949   8.441  0.4027  0.0735 -0.4211
  709MOL0     N95631  -0.094   5.228   7.848  0.0059 -0.0077 -0.8021
  709MOL0     N95632  -0.050   5.297   7.750  0.3091 -0.3491 -0.2163
  709MOL0     C95633   0.911   4.525   7.277  0.0827 -1.1329  0.2086
  709MOL0     C95634   1.033   4.480   7.234  0.6514 -0.0612 -0.0302
  709MOL0     C95635   1.455   4.395   7.167 -0.0029 -0.3044  0.0314
  709MOL0     C95636   1.447   4.358   7.033 -0.0324 -0.4067  0.0300
  709MOL0     C95637   1.558   4.301   6.971 -0.3931  0.5982  0.4389
  709MOL0     C95638   1.675   4.286   7.035 -1.9790  0.4223 -0.6438
  709MOL0     O95639   1.778   4.244   6.954 -0.0192  0.1644 -0.4375
  709MOL0     C95640   1.905   4.238   7.022 -0.0136 -0.7287 -0.5413
  709MOL0     C95641   2.011   4.211   6.914 -0.0410 -0.0139 -0.7783
  709MOL0     C95642   2.057   4.340   6.838  0.8232 -0.4305 -0.5599
  709MOL0     C95643   1.981   4.356   6.700 -0.2637 -0.1831  0.0928
  709MOL0     C95644   2.006   4.247   6.603 -0.1519 -1.1238  0.7247
  709MOL0     C95645   2.033   4.149   6.526  0.6328  0.5050  0.3076
  709MOL0     C95646   1.682   4.315   7.177 -0.6096 -0.8273 -0.0567
  709MOL0     C95647   1.573   4.381   7.240  0.2579 -0.9789  0.4305
  709MOL0     H95648   1.194   4.770   7.177 -1.4093  1.8395  0.5393
  709MOL0     H95649   0.993   4.855   7.266  1.4148  0.9173  4.4378
  709MOL0     H95650   0.858   4.890   7.437  2.2547  1.1283 -4.9622
  709MOL0     H95651   0.745   4.901   7.301 -0.1443 -2.1742 -1.1774
  709MOL0     H95652   0.575   4.769   7.462  1.0145  0.0628 -1.4141
  709MOL0     H95653   0.676   4.864   7.587  1.2240  2.9423 -0.4167
  709MOL0     H95654   0.628   5.074   7.442 -1.6534  2.1712 -0.4604
  709MOL0     H95655   0.513   4.995   7.346 -0.6732 -4.1558  0.1634
  709MOL0     H95656   0.385   4.935   7.559  0.2936  1.1192  3.2476
  709MOL0     H95657   0.508   5.034   7.636  0.9625 -0.9078 -0.2929
  709MOL0     H95658   0.462   5.207   7.451 -1.3976 -1.0154 -2.1461
  709MOL0     H95659   0.316   5.123   7.406 -0.1888 -0.6712 -0.2888
  709MOL0     H95660   0.230   5.135   7.642  0.9360 -1.2153  0.5067
  709MOL0     H95661   0.378   5.228   7.689 -2.2260  4.1857  1.5495
  709MOL0     H95662   0.317   5.407   7.537  1.0376  0.7856  0.1626
  709MOL0     H95663   0.159   5.314   7.498 -0.5502  0.7023  0.8741
  709MOL0     H95664   0.099   5.468   7.654 -0.5257  1.1804  0.8634
  709MOL0     H95665   0.238   5.443   7.755 -1.1553  0.5090 -1.8789
  709MOL0     H95666   0.231   5.222   7.914  0.8607 -0.4615 -1.1243
  709MOL0     H95667  -0.026   5.031   8.062 -0.8635  0.7145  1.4087
  709MOL0     H95668   0.101   5.146   8.117  0.3860 -1.0698  0.5213
  709MOL0     H95669  -0.206   5.181   8.094  0.7139 -0.1098  2.2539
  709MOL0     H95670  -0.106   5.306   8.137 -2.5013  0.2220 -1.3337
  709MOL0     H95671  -0.031   5.169   8.340  0.5188 -0.1396  0.4819
  709MOL0     H95672  -0.143   5.044   8.298 -2.2214  1.1705 -0.8517
  709MOL0     H95673  -0.239   5.328   8.343  4.0728 -0.8764 -2.5477
  709MOL0     H95674  -0.231   5.221   8.477  2.6470  1.4340 -0.1326
  709MOL0     H95675  -0.573   5.084   8.225  0.0395 -0.3853 -1.2741
  709MOL0     H95676  -0.770   4.836   8.204 -1.2979  0.9303  0.7270
  709MOL0     H95677  -0.821   4.852   8.380 -0.8200  0.0478 -0.5213
  709MOL0     H95678  -0.801   4.991   8.265  1.2392  0.1654 -4.6535
  709MOL0     H95679  -0.622   4.384   8.417 -0.3849 -2.8594  0.5085
  709MOL0     H95680  -0.760   4.182   8.396 -2.3549 -0.3544  0.4743
  709MOL0     H95681  -1.158   4.233   8.215  0.7387  0.7664  0.5301
  709MOL0     H95682  -1.063   4.206   8.066 -2.4085 -1.7686 -0.5288
  709MOL0     H95683  -1.091   3.951   8.125 -0.1931  0.7944  1.3130
  709MOL0     H95684  -1.208   4.023   8.236  0.1783  1.2788  0.7426
  709MOL0     H95685  -1.190   4.020   7.929  1.9697  0.0324  0.6945
  709MOL0     H95686  -1.255   4.165   8.000 -0.2308  0.0313  0.8208
  709MOL0     H95687  -1.365   3.882   8.061  1.1948  0.3057  2.3575
  709MOL0     H95688  -1.444   4.032   8.111 -0.7753 -0.6864 -0.4561
  709MOL0     H95689  -1.391   3.944   7.819 -0.8647  0.3611 -1.4929
  709MOL0     H95690  -1.474   4.094   7.873 -3.0493 -0.7815 -1.6740
  709MOL0     H95691  -1.559   3.816   7.947 -0.6138  0.9705  2.1078
  709MOL0     H95692  -1.660   3.966   7.951  1.6027  1.3140 -0.1050
  709MOL0     H95693  -1.554   3.820   7.696  0.2962  1.0703 -2.3639
  709MOL0     H95694  -1.638   3.977   7.696  1.0059  0.3004  0.9860
  709MOL0     H95695  -1.781   3.729   7.814  0.0735 -0.4235 -0.6723
  709MOL0     H95696  -1.780   3.780   7.646  1.9702 -1.6455 -0.3041
  709MOL0     H95697  -1.038   4.406   8.161 -0.6896  0.2277  0.0895
  709MOL0     H95698  -0.902   4.608   8.184 -0.4581 -0.9848 -2.3451
  709MOL0     H95699  -0.366   4.748   8.519  2.7713  2.8549  1.9695
  709MOL0     H95700  -0.257   4.954   8.478  1.1352  0.5602 -2.3761
  709MOL0     H95701   0.824   4.464   7.296 -0.9656  0.1558 -0.3161
  709MOL0     H95702   1.038   4.373   7.219  0.0869  0.0630 -1.2027
  709MOL0     H95703   1.358   4.383   6.977  0.9489  0.9131 -1.0119
  709MOL0     H95704   1.557   4.263   6.870  0.4882  1.4805  0.0858
  709MOL0     H95705   1.921   4.333   7.072 -1.4107 -0.0381 -1.3593
  709MOL0     H95706   1.917   4.160   7.098  1.5866  1.7081  1.8768
  709MOL0     H95707   1.982   4.142   6.834 -0.8791 -0.6895  0.0887
  709MOL0     H95708   2.105   4.171   6.953  0.0962  1.2575  0.2734
  709MOL0     H95709   2.164   4.324   6.823  1.1055  0.4713  0.4139
  709MOL0     H95710   2.038   4.430   6.896  0.1424  1.4558 -3.4872
  709MOL0     H95711   1.992   4.456   6.657 -0.4925 -0.0778  0.2721
  709MOL0     H95712   1.873   4.360   6.714 -0.5160  1.6907 -1.8655
  709MOL0     H95713   2.052   4.060   6.470 -0.7676 -1.0782  2.2297
  709MOL0     H95714   1.775   4.302   7.233  0.2239 -2.9395 -1.8031
  709MOL0     H95715   1.585   4.434   7.334  3.5775 -0.1250 -0.3648
  710MOL0     O95716  10.846   3.038   1.961 -0.2928  0.6071 -0.0274
  710MOL0     C95717  10.866   3.122   1.876 -0.4403  0.1262 -0.5821
  710MOL0     O95718  10.780   3.136   1.763 -1.0026  0.4125  0.3829
  710MOL0     C95719  10.681   3.045   1.732  0.2070 -0.5567 -0.4932
  710MOL0     C95720  10.662   2.997   1.605 -0.0027  0.1148 -0.8084
  710MOL0     C95721  10.552   2.905   1.591  0.1283 -0.2332  0.6464
  710MOL0     C95722  10.462   2.876   1.692  0.4192  0.4340 -1.1662
  710MOL0     O95723  10.365   2.788   1.668 -0.0989  0.6441 -0.9424
  710MOL0     C95724  10.273   2.838   1.575  0.1865  0.0280 -0.2382
  710MOL0     C95725  10.214   2.718   1.499  0.6351 -0.0446  0.3650
  710MOL0     C95726  10.098   2.652   1.581  0.2139 -0.1471 -0.4101
  710MOL0     C95727  10.055   2.517   1.519  0.6084 -0.0826  0.0961
  710MOL0     C95728  10.157   2.408   1.528  0.1640  1.0995 -0.6266
  710MOL0     C95729  10.095   2.267   1.521 -0.5218 -0.4474  0.1643
  710MOL0     C95730  10.200   2.161   1.544 -0.0590  0.5880  0.2623
  710MOL0     C95731  10.120   2.020   1.569 -0.8274  0.4625 -0.7761
  710MOL0     N95732  10.030   2.035   1.679  0.5652  0.8842  0.1125
  710MOL0     C95733  10.061   2.036   1.815  0.6201  0.2492  0.3399
  710MOL0     C95734   9.943   2.056   1.879 -0.6849 -0.4165  0.3112
  710MOL0     C95735   9.934   2.045   2.032 -1.2282  0.4260  0.0101
  710MOL0     C95736   9.802   1.989   2.064  0.1375 -0.2332 -0.0206
  710MOL0     C95737   9.769   1.993   2.218  0.1552  0.8693 -0.3008
  710MOL0     C95738   9.612   2.011   2.235  0.1463  0.2563 -0.2135
  710MOL0     O95739   9.567   1.982   2.374 -0.3789  0.4229  0.3448
  710MOL0     C95740   9.429   2.000   2.398  0.4581  1.0231 -0.5145
  710MOL0     C95741   9.328   2.058   2.314  0.0325  0.4653  0.2446
  710MOL0     C95742   9.195   2.075   2.363 -0.3999 -0.1160  0.3583
  710MOL0     C95743   9.111   2.185   2.298 -0.0477  0.2017  0.5481
  710MOL0     C95744   9.153   2.003   2.483  0.3018  0.4450 -0.9964
  710MOL0     C95745   9.022   2.014   2.559 -0.0971 -0.6560  0.3298
  710MOL0     O95746   9.023   1.984   2.686  0.2886 -0.5795 -0.4652
  710MOL0     C95747   8.909   1.984   2.762 -0.0758 -0.1844  0.5198
  710MOL0     C95748   8.917   1.909   2.880  0.0703  0.4837  0.0999
  710MOL0     C95749   8.816   1.903   2.972 -0.2222 -0.0452 -0.3099
  710MOL0     C95750   8.698   1.971   2.949  0.1946  0.5329  0.1031
  710MOL0     O95751   8.582   1.966   3.028 -0.7810 -0.0517  0.6396
  710MOL0     C95752   8.553   1.862   3.120  0.3203 -0.7388 -0.1337
  710MOL0     C95753   8.521   1.725   3.062  0.4206 -0.5978  0.8867
  710MOL0     C95754   8.379   1.719   2.998 -0.0606  0.3070  0.3938
  710MOL0     C95755   8.336   1.591   2.933  0.8314  0.2349 -0.1701
  710MOL0     C95756   8.194   1.598   2.866 -0.1247 -0.8733  0.1814
  710MOL0     C95757   8.128   1.461   2.865 -0.2602 -0.5333  0.6631
  710MOL0     C95758   7.975   1.479   2.811  0.3221  0.2375  0.4044
  710MOL0     C95759   7.918   1.349   2.754 -0.3873 -0.1902 -0.1379
  710MOL0    Cl95760   7.767   1.369   2.669  0.0991 -0.1578 -0.2673
  710MOL0     C95761   8.689   2.050   2.838 -0.0708  0.4552 -0.0049
  710MOL0     C95762   8.797   2.062   2.749  0.7698  0.4781  0.1746
  710MOL0     O95763   8.931   2.053   2.492  0.2482  0.0533  0.2410
  710MOL0     C95764   9.258   1.940   2.556  0.4085  0.5413 -0.4802
  710MOL0     C95765   9.394   1.938   2.519  1.1535  0.8740 -0.2344
  710MOL0     N95766   9.849   2.052   1.774 -0.5543  0.2753  0.6538
  710MOL0     N95767   9.901   2.030   1.659 -0.2002  0.2454 -0.3546
  710MOL0     C95768  10.481   2.939   1.815 -0.4081  0.2550 -0.8706
  710MOL0     C95769  10.590   3.023   1.839  0.1636 -1.0032  0.6305
  710MOL0     C95770  10.977   3.221   1.902 -0.0146  0.0222  1.0083
  710MOL0     C95771  11.060   3.207   2.008 -0.1079  0.6411  0.6769
  710MOL0     C95772  11.157   3.292   2.043  0.1748 -0.0733 -0.5537
  710MOL0     C95773  11.192   3.399   1.958 -0.1360 -0.4201 -0.1157
  710MOL0     O95774  11.291   3.494   1.996 -0.1797 -0.0642  0.0029
  710MOL0     C95775  11.375   3.462   2.109  1.5626  0.1793 -0.3870
  710MOL0     C95776  11.488   3.570   2.135 -0.5146  1.2720 -0.1086
  710MOL0     C95777  11.432   3.714   2.134  0.4660  0.1960  0.0137
  710MOL0     C95778  11.319   3.739   2.229  0.1450 -0.0142 -0.4917
  710MOL0     C95779  11.301   3.884   2.260 -0.6018 -0.7575 -0.2752
  710MOL0     C95780  11.266   4.001   2.285 -0.5494 -0.5076 -0.0176
  710MOL0     C95781  11.126   3.410   1.837  0.6550  0.9338  0.0547
  710MOL0     C95782  11.005   3.322   1.808 -0.2215 -0.5202 -0.4830
  710MOL0     H95783  10.721   3.023   1.518 -0.8483  1.3702 -1.0336
  710MOL0     H95784  10.544   2.858   1.494  1.9416 -0.4217  0.5428
  710MOL0     H95785  10.195   2.894   1.628 -1.0350 -0.5394 -1.3831
  710MOL0     H95786  10.321   2.912   1.510  1.1473  0.6434  1.1074
  710MOL0     H95787  10.166   2.748   1.405  0.6672  1.3810  0.7837
  710MOL0     H95788  10.287   2.639   1.477  0.5535 -0.7498  2.4355
  710MOL0     H95789  10.119   2.649   1.688  1.3885  1.9733 -0.5127
  710MOL0     H95790  10.008   2.713   1.570  1.1570  1.1684 -1.2391
  710MOL0     H95791   9.964   2.487   1.572  2.7820 -1.6754  3.2549
  710MOL0     H95792  10.034   2.538   1.413  0.0311 -2.1830 -0.2646
  710MOL0     H95793  10.232   2.430   1.451 -0.4565  1.4041 -1.1640
  710MOL0     H95794  10.213   2.423   1.621 -0.5809 -0.0389  0.0198
  710MOL0     H95795  10.029   2.277   1.607  1.6063  0.7988  1.7734
  710MOL0     H95796  10.037   2.245   1.431 -0.3840 -1.9137  0.4172
  710MOL0     H95797  10.267   2.145   1.459  0.2249 -0.7638  0.7164
  710MOL0     H95798  10.245   2.187   1.640 -2.5656 -1.4439  2.1197
  710MOL0     H95799  10.188   1.936   1.582 -1.6736 -0.1181  0.0864
  710MOL0     H95800  10.061   2.001   1.479 -1.5802  0.3166 -0.2639
  710MOL0     H95801  10.154   2.012   1.865  0.5807 -2.4435 -0.7371
  710MOL0     H95802  10.013   1.979   2.069 -2.1857 -1.5065 -1.2755
  710MOL0     H95803   9.938   2.146   2.075  0.3093  0.3792  0.0493
  710MOL0     H95804   9.795   1.884   2.032 -0.1282 -0.1624 -0.2010
  710MOL0     H95805   9.727   2.045   2.008 -0.2328 -0.8702 -0.1733
  710MOL0     H95806   9.822   2.069   2.275 -0.5142 -0.0439  1.6297
  710MOL0     H95807   9.791   1.892   2.253  1.0970  0.8063 -1.0615
  710MOL0     H95808   9.554   1.952   2.163 -0.2682 -0.0252  0.3520
  710MOL0     H95809   9.613   2.120   2.219  4.4340  0.4368  0.2725
  710MOL0     H95810   9.359   2.112   2.226  2.0591 -0.1221  0.5285
  710MOL0     H95811   9.015   2.143   2.266  0.3275  1.2912 -2.3314
  710MOL0     H95812   9.080   2.275   2.352 -0.2573  2.6456 -3.2778
  710MOL0     H95813   9.143   2.230   2.204  0.4663 -2.6369 -0.7119
  710MOL0     H95814   9.015   1.867   2.903 -0.0161  0.0094 -0.3890
  710MOL0     H95815   8.828   1.846   3.064 -0.0709 -0.8075 -0.7876
  710MOL0     H95816   8.613   1.858   3.211  0.0676 -0.9377  0.0239
  710MOL0     H95817   8.456   1.902   3.151 -0.5267 -0.4253 -2.8782
  710MOL0     H95818   8.597   1.702   2.987  2.8993  1.1444  2.6910
  710MOL0     H95819   8.540   1.646   3.135  1.8124  0.3568  1.6153
  710MOL0     H95820   8.374   1.800   2.924 -1.9297 -0.5087 -0.4270
  710MOL0     H95821   8.296   1.749   3.062 -1.1766 -0.5204 -0.6369
  710MOL0     H95822   8.408   1.575   2.852  1.5457 -0.2376  0.5412
  710MOL0     H95823   8.338   1.516   3.012 -1.2480  2.1481  1.8115
  710MOL0     H95824   8.197   1.636   2.763 -2.1390  1.0282  0.7588
  710MOL0     H95825   8.136   1.663   2.931  0.0039  0.3344 -0.8627
  710MOL0     H95826   8.181   1.404   2.788 -0.8358 -0.3866  0.1519
  710MOL0     H95827   8.127   1.408   2.961  1.3140 -1.1064  0.3951
  710MOL0     H95828   7.961   1.568   2.750  1.6678  0.1502 -0.0578
  710MOL0     H95829   7.923   1.497   2.906  1.9467  0.5225  1.2613
  710MOL0     H95830   7.904   1.282   2.840  0.6622  0.9089  0.9262
  710MOL0     H95831   7.994   1.305   2.689  0.6230  1.7496 -0.3187
  710MOL0     H95832   8.597   2.108   2.828  1.6043  3.0377 -1.5111
  710MOL0     H95833   8.784   2.128   2.664  1.8358  2.0222  1.1608
  710MOL0     H95834   9.242   1.895   2.653 -2.1283  2.0543 -0.1058
  710MOL0     H95835   9.474   1.893   2.578  0.8560  1.3233  0.5291
  710MOL0     H95836  10.406   2.925   1.892 -0.9242  0.3976 -1.3472
  710MOL0     H95837  10.593   3.083   1.930 -0.3117  2.3327 -1.4080
  710MOL0     H95838  11.046   3.115   2.063 -0.2810  1.0777  1.3612
  710MOL0     H95839  11.210   3.279   2.137 -1.5664  0.1999  0.5193
  710MOL0     H95840  11.323   3.470   2.205  2.2120 -0.4083  0.0216
  710MOL0     H95841  11.420   3.362   2.114 -0.2951 -0.6191  2.4177
  710MOL0     H95842  11.568   3.559   2.061  1.3791  3.3150  1.5015
  710MOL0     H95843  11.530   3.545   2.233 -1.4208  3.7190  0.9888
  710MOL0     H95844  11.388   3.731   2.035 -0.4844 -2.1375 -0.0156
  710MOL0     H95845  11.514   3.785   2.148  0.1161  0.3795  1.2645
  710MOL0     H95846  11.346   3.693   2.325 -1.5122 -1.7712 -0.8314
  710MOL0     H95847  11.224   3.706   2.187 -0.4967  0.8056  0.2863
  710MOL0     H95848  11.234   4.102   2.299 -0.0560  0.0611 -2.4490
  710MOL0     H95849  11.135   3.485   1.759 -0.1832 -0.5375 -1.5426
  710MOL0     H95850  10.943   3.342   1.722  0.7502  1.4452 -0.7739
  711MOL0     O95851   5.132  10.872   4.750  0.4865  0.0961  0.0347
  711MOL0     C95852   5.134  10.976   4.818  0.0050 -0.6943  0.4799
  711MOL0     O95853   5.020  11.045   4.853  0.0926  0.0361  0.1936
  711MOL0     C95854   4.886  11.027   4.805  0.0367  0.4624 -0.2194
  711MOL0     C95855   4.783  11.047   4.896  0.4352 -0.2321  0.0731
  711MOL0     C95856   4.647  11.035   4.857  0.3973  0.6124  0.0618
  711MOL0     C95857   4.612  11.004   4.722 -0.2689  0.5663 -0.0058
  711MOL0     O95858   4.473  10.998   4.693 -0.6815  0.5748  0.0237
  711MOL0     C95859   4.440  10.966   4.557 -0.0975 -0.5128 -0.0981
  711MOL0     C95860   4.297  10.972   4.545  1.0957 -0.6871  0.7653
  711MOL0     C95861   4.240  10.936   4.400  0.0763  0.8331  0.5699
  711MOL0     C95862   4.095  10.947   4.391  0.8823 -0.6303 -0.1025
  711MOL0     C95863   4.035  10.911   4.253 -0.3946  0.1497 -0.0348
  711MOL0     C95864   3.882  10.895   4.271 -0.7211 -0.7078 -0.4093
  711MOL0     C95865   3.813  11.034   4.273 -0.0363 -0.7574 -0.5097
  711MOL0     C95866   3.660  11.022   4.232  0.3101 -0.9768 -0.0542
  711MOL0     N95867   3.614  11.163   4.209  1.0823 -0.4149  0.0501
  711MOL0     C95868   3.603  11.224   4.087  1.0176  0.0344 -0.3701
  711MOL0     C95869   3.541  11.338   4.110  0.1119 -0.1119 -0.2235
  711MOL0     C95870   3.487  11.436   4.011  0.4533  0.4848 -0.4860
  711MOL0     C95871   3.335  11.458   4.014  0.3892 -0.2176  0.3246
  711MOL0     C95872   3.286  11.561   4.118 -0.7166  0.7205 -0.3457
  711MOL0     C95873   3.184  11.661   4.061 -0.2464 -0.1670 -0.7723
  711MOL0     O95874   3.086  11.585   4.001  0.0326 -0.3892 -0.1473
  711MOL0     C95875   2.987  11.644   3.934 -0.4390  0.2951  0.3629
  711MOL0     C95876   2.917  11.560   3.851 -0.0788  0.2332 -0.0112
  711MOL0     C95877   2.807  11.596   3.780  0.1100  0.2780 -1.4083
  711MOL0     C95878   2.770  11.500   3.675 -0.1466  1.0710 -0.4197
  711MOL0     C95879   2.750  11.724   3.814 -0.1301 -0.2622 -0.0945
  711MOL0     C95880   2.624  11.776   3.761 -0.9012 -0.0015  0.0141
  711MOL0     O95881   2.573  11.889   3.819 -0.2943  0.0824  0.1609
  711MOL0     C95882   2.464  11.929   3.755 -0.2077 -0.3904 -0.5186
  711MOL0     C95883   2.341  11.856   3.765  0.6642 -0.1570 -0.1344
  711MOL0     C95884   2.218  11.906   3.711 -0.2137  0.2218 -0.0638
  711MOL0     C95885   2.219  12.038   3.655 -0.2061 -0.1129 -0.0754
  711MOL0     O95886   2.108  12.089   3.596  0.2649 -0.3347 -0.8607
  711MOL0     C95887   2.089  12.233   3.580 -0.7952 -0.8410  0.3669
  711MOL0     C95888   1.982  12.259   3.476  0.5653  0.1236  0.1281
  711MOL0     C95889   1.844  12.215   3.539 -0.1539  0.4066  0.1608
  711MOL0     C95890   1.734  12.255   3.446  0.6382  0.7254 -0.0930
  711MOL0     C95891   1.617  12.147   3.451  0.4511 -0.6984 -0.9058
  711MOL0     C95892   1.501  12.194   3.371  0.3784  0.3372  0.4716
  711MOL0     C95893   1.405  12.078   3.368 -0.3785 -0.0779 -0.3454
  711MOL0     C95894   1.270  12.103   3.289  0.0088 -0.6429  0.2636
  711MOL0    Cl95895   1.186  12.241   3.368  0.1521 -0.4759 -0.0862
  711MOL0     C95896   2.339  12.107   3.672 -0.2542  0.0966  0.4368
  711MOL0     C95897   2.455  12.057   3.713 -0.1606 -0.2158 -0.0818
  711MOL0     O95898   2.573  11.713   3.669 -0.2378 -0.0806  0.1489
  711MOL0     C95899   2.815  11.815   3.905 -0.2461  0.6838  0.4144
  711MOL0     C95900   2.932  11.767   3.965  0.6960 -0.0636  0.3760
  711MOL0     N95901   3.521  11.356   4.242 -0.3436 -0.4684 -1.0522
  711MOL0     N95902   3.561  11.242   4.303 -0.1214 -0.0722 -0.3131
  711MOL0     C95903   4.722  10.976   4.638 -0.2404  0.1721 -0.0351
  711MOL0     C95904   4.854  10.992   4.674 -0.6079 -0.2523  0.7690
  711MOL0     C95905   5.264  11.029   4.854  0.0677 -0.3459  0.1075
  711MOL0     C95906   5.380  10.950   4.866  0.2122  0.5216  0.0479
  711MOL0     C95907   5.506  11.002   4.908 -0.9185 -0.3554 -1.0804
  711MOL0     C95908   5.516  11.136   4.945 -0.8747  0.4918 -0.3100
  711MOL0     O95909   5.628  11.196   4.984 -0.3177  0.1308 -0.4059
  711MOL0     C95910   5.735  11.116   5.039  0.2388  0.1450 -0.1306
  711MOL0     C95911   5.837  11.211   5.090  0.4666 -0.3692 -0.0297
  711MOL0     C95912   5.956  11.163   5.169 -0.5274  0.4131  0.0906
  711MOL0     C95913   6.082  11.260   5.166 -0.4601  0.0330  0.2774
  711MOL0     C95914   6.113  11.294   5.032 -0.0147 -0.7812 -0.8632
  711MOL0     C95915   6.146  11.326   4.923 -0.0062  0.2428  0.7586
  711MOL0     C95916   5.411  11.219   4.918  0.6246 -0.0566 -0.3098
  711MOL0     C95917   5.284  11.163   4.873 -0.4365 -0.8464  0.2531
  711MOL0     H95918   4.818  11.060   4.998  0.4653  0.3524 -0.0066
  711MOL0     H95919   4.573  11.066   4.930 -0.7141  0.2893 -0.8925
  711MOL0     H95920   4.492  11.027   4.483 -1.1725 -0.4104 -0.7865
  711MOL0     H95921   4.460  10.861   4.531 -0.0712  0.0797 -2.8349
  711MOL0     H95922   4.256  10.910   4.626 -0.0514  0.6016  1.2172
  711MOL0     H95923   4.265  11.074   4.568  0.8613 -0.6071  0.1060
  711MOL0     H95924   4.286  11.008   4.331  1.3728  0.7967  1.3722
  711MOL0     H95925   4.263  10.832   4.377 -0.6190  1.2842 -2.6265
  711MOL0     H95926   4.063  10.873   4.464  0.8878  0.2692  0.8411
  711MOL0     H95927   4.053  11.038   4.435  1.6310 -0.9356  1.3072
  711MOL0     H95928   4.059  10.980   4.171 -3.8408 -1.8872 -3.0648
  711MOL0     H95929   4.061  10.809   4.226 -1.7683 -0.1655 -0.2726
  711MOL0     H95930   3.851  10.835   4.185 -3.3312 -1.4307  0.9175
  711MOL0     H95931   3.854  10.844   4.364  3.8915  0.6616  2.0528
  711MOL0     H95932   3.830  11.075   4.373  1.4250 -0.6289 -0.7883
  711MOL0     H95933   3.872  11.108   4.217 -1.2193  0.8729  0.2977
  711MOL0     H95934   3.599  10.977   4.312  0.8942 -0.1622  0.8759
  711MOL0     H95935   3.649  10.965   4.139 -1.8955 -0.7673  0.0073
  711MOL0     H95936   3.618  11.161   3.999  0.9854  0.3147 -0.5786
  711MOL0     H95937   3.535  11.532   4.032  0.0488  0.7259 -0.6453
  711MOL0     H95938   3.522  11.417   3.910  0.2411 -0.0147 -0.4694
  711MOL0     H95939   3.273  11.368   4.022 -0.8538  0.7638  2.7813
  711MOL0     H95940   3.302  11.496   3.917 -1.2766 -1.8752  0.1917
  711MOL0     H95941   3.376  11.620   4.136  0.4315 -1.1677  0.3824
  711MOL0     H95942   3.251  11.518   4.212  0.1783  4.8763  2.1357
  711MOL0     H95943   3.225  11.732   3.989  1.0501  0.6053  0.6763
  711MOL0     H95944   3.151  11.718   4.149  0.3627 -2.7302  1.2593
  711MOL0     H95945   2.956  11.461   3.828  1.9917  1.1554 -0.6746
  711MOL0     H95946   2.761  11.532   3.570  2.0811 -2.3262 -1.8351
  711MOL0     H95947   2.833  11.412   3.663 -1.5216  0.0462 -0.4629
  711MOL0     H95948   2.673  11.462   3.708  0.4432  2.5214  3.4348
  711MOL0     H95949   2.334  11.768   3.829 -0.2360 -2.2351 -2.8978
  711MOL0     H95950   2.130  11.843   3.701 -0.0722  0.1196 -0.6964
  711MOL0     H95951   2.054  12.285   3.670  0.3123 -0.8238  0.7995
  711MOL0     H95952   2.183  12.273   3.542 -1.6434  1.2772  0.3557
  711MOL0     H95953   1.985  12.364   3.445  2.9978  0.5875  1.6850
  711MOL0     H95954   2.007  12.199   3.388 -0.2084  2.3064 -1.6917
  711MOL0     H95955   1.824  12.256   3.639  2.7853 -4.2758  3.0624
  711MOL0     H95956   1.849  12.106   3.550 -0.3414  0.4369  0.5654
  711MOL0     H95957   1.692  12.352   3.472 -1.0411  0.4347 -1.4668
  711MOL0     H95958   1.779  12.262   3.347 -0.7136 -1.0262 -0.9062
  711MOL0     H95959   1.586  12.141   3.555  0.0713 -0.9511 -1.0308
  711MOL0     H95960   1.656  12.049   3.418  0.1278 -1.4558  0.8676
  711MOL0     H95961   1.465  12.285   3.419  0.2580  0.7289 -0.3464
  711MOL0     H95962   1.531  12.207   3.266  4.0551  0.6617  1.4014
  711MOL0     H95963   1.379  12.033   3.464  1.4130 -0.3343  0.0402
  711MOL0     H95964   1.459  12.003   3.309 -1.2637  0.0900 -1.4123
  711MOL0     H95965   1.221  12.006   3.296  2.1885 -1.7978  0.3081
  711MOL0     H95966   1.288  12.130   3.184 -0.5667 -1.5159 -0.0681
  711MOL0     H95967   2.344  12.207   3.630 -0.4458  0.6429  1.6576
  711MOL0     H95968   2.537  12.128   3.719 -0.0183 -0.5159  3.1187
  711MOL0     H95969   2.767  11.907   3.937 -4.1402 -1.2609  0.8435
  711MOL0     H95970   2.972  11.832   4.042 -0.0601  0.5671  0.2436
  711MOL0     H95971   4.707  10.942   4.535 -0.2512  0.4918 -0.1383
  711MOL0     H95972   4.934  10.993   4.601  0.0771  2.6112  1.4551
  711MOL0     H95973   5.368  10.846   4.838  0.1793  0.4687  0.2569
  711MOL0     H95974   5.584  10.928   4.919 -1.7238 -0.8903  1.5773
  711MOL0     H95975   5.694  11.045   5.112  0.9415  0.7346  0.8626
  711MOL0     H95976   5.782  11.071   4.952 -0.3764 -1.7850  0.4895
  711MOL0     H95977   5.795  11.279   5.164  2.1454  1.2426 -0.4986
  711MOL0     H95978   5.873  11.265   5.002  3.6111 -0.3628  1.1470
  711MOL0     H95979   5.984  11.067   5.126  0.2666  0.7205 -0.0969
  711MOL0     H95980   5.923  11.144   5.271  0.1260 -1.3360  0.0043
  711MOL0     H95981   6.175  11.213   5.198  1.2875  1.4783 -2.3070
  711MOL0     H95982   6.067  11.349   5.228 -1.8801  1.1072 -1.4925
  711MOL0     H95983   6.174  11.353   4.823  0.5837 -2.7503  0.0227
  711MOL0     H95984   5.416  11.324   4.945 -2.4656 -0.4140  2.3421
  711MOL0     H95985   5.197  11.227   4.863 -1.1847 -1.8449  0.0859
  712MOL0     O95986  10.272   8.630   3.550  0.4216 -0.3287  0.6654
  712MOL0     C95987  10.335   8.524   3.575 -0.1309 -0.0659  0.8530
  712MOL0     O95988  10.280   8.398   3.587  0.9303 -0.0111 -0.1737
  712MOL0     C95989  10.144   8.366   3.561  0.0828  0.5320 -0.6915
  712MOL0     C95990  10.110   8.286   3.455  0.8561  0.5861 -0.1429
  712MOL0     C95991   9.977   8.242   3.435  1.0949  0.3924  0.3383
  712MOL0     C95992   9.872   8.285   3.528 -0.3473 -0.0722  0.3724
  712MOL0     O95993   9.740   8.238   3.492  0.3811 -0.0454 -0.3244
  712MOL0     C95994   9.643   8.344   3.511 -0.0017 -0.1198 -0.3103
  712MOL0     C95995   9.561   8.358   3.385  0.4152  0.1018  0.0425
  712MOL0     C95996   9.457   8.247   3.367 -0.2557 -0.4361 -0.3358
  712MOL0     C95997   9.322   8.295   3.426 -0.6168 -0.5018 -0.3142
  712MOL0     C95998   9.199   8.203   3.410 -0.8863 -0.6037 -0.0270
  712MOL0     C95999   9.154   8.222   3.261 -0.5976  0.0265  0.1718
  712MOL0     C96000   9.027   8.139   3.238 -0.4584  0.5302 -0.4966
  712MOL0     C96001   8.902   8.219   3.273  1.0712 -0.2189 -0.0655
  712MOL0     N96002   8.768   8.157   3.266  0.0164 -0.5840  0.2796
  712MOL0     C96003   8.735   8.037   3.315 -0.0497  0.4733 -0.2608
  712MOL0     C96004   8.600   8.029   3.292  0.4214 -0.6746  0.9926
  712MOL0     C96005   8.518   7.921   3.352  0.3441  1.1259 -0.0703
  712MOL0     C96006   8.370   7.915   3.307  0.1938 -0.8637  0.4936
  712MOL0     C96007   8.282   8.012   3.386 -0.1162 -0.0245  0.2209
  712MOL0     C96008   8.151   8.026   3.312  0.4468  0.3885 -0.3745
  712MOL0     O96009   8.078   8.119   3.397  0.6161 -0.0713  0.1524
  712MOL0     C96010   7.959   8.161   3.346  0.3810 -0.0750 -0.9456
  712MOL0     C96011   7.906   8.288   3.385 -0.8575 -1.3199 -0.8741
  712MOL0     C96012   7.787   8.339   3.338 -0.0880 -0.6864  0.8670
  712MOL0     C96013   7.746   8.471   3.381  0.7130  0.0750  0.7638
  712MOL0     C96014   7.718   8.263   3.244 -0.0214 -0.5476  0.4163
  712MOL0     C96015   7.593   8.315   3.176 -0.0744  0.3684  0.8058
  712MOL0     O96016   7.506   8.215   3.134 -0.5342  0.3886 -0.3072
  712MOL0     C96017   7.384   8.247   3.071  1.1761 -0.3649  0.5397
  712MOL0     C96018   7.327   8.146   2.996 -0.4772 -0.0667  0.9298
  712MOL0     C96019   7.196   8.155   2.935 -0.1039 -0.0664  0.3539
  712MOL0     C96020   7.113   8.266   2.952 -0.1906 -0.3336 -0.1312
  712MOL0     O96021   6.990   8.274   2.887 -0.6528  0.6662  0.4491
  712MOL0     C96022   6.912   8.390   2.921  0.3370 -0.1526  0.0940
  712MOL0     C96023   6.772   8.384   2.855  0.8575  0.3825  0.0549
  712MOL0     C96024   6.686   8.511   2.879 -0.3821  0.3062  0.5801
  712MOL0     C96025   6.545   8.502   2.830  0.1308  0.6181 -0.1386
  712MOL0     C96026   6.545   8.504   2.671  0.2766 -0.0395  0.1160
  712MOL0     C96027   6.411   8.522   2.607 -0.3447  0.8271  0.4098
  712MOL0     C96028   6.405   8.481   2.457  0.2509  0.1547 -0.2504
  712MOL0     C96029   6.274   8.520   2.379 -0.9148  0.0881  0.6416
  712MOL0    Cl96030   6.137   8.424   2.418 -0.1642 -0.2147  0.4329
  712MOL0     C96031   7.170   8.374   3.028 -0.9140  0.0246  0.1875
  712MOL0     C96032   7.298   8.362   3.093 -0.2911  0.2774  0.9984
  712MOL0     O96033   7.567   8.433   3.161 -0.2741 -0.2991  0.1055
  712MOL0     C96034   7.760   8.129   3.209 -0.6559 -0.0581  0.1282
  712MOL0     C96035   7.883   8.083   3.257  1.1351  0.4577 -0.4966
  712MOL0     N96036   8.557   8.138   3.215  0.8646 -0.8966  0.4547
  712MOL0     N96037   8.658   8.214   3.198  0.1062  0.7494  0.3877
  712MOL0     C96038   9.911   8.365   3.634 -0.1891  0.0371 -0.5818
  712MOL0     C96039  10.047   8.400   3.659  0.4554 -0.1646 -0.0929
  712MOL0     C96040  10.482   8.539   3.600 -0.0025 -0.2243 -0.8078
  712MOL0     C96041  10.554   8.657   3.595 -0.5752  0.0810  0.4449
  712MOL0     C96042  10.688   8.665   3.627 -0.5586  0.2078 -0.4451
  712MOL0     C96043  10.760   8.552   3.666 -0.7485  0.5610  0.1472
  712MOL0     O96044  10.893   8.572   3.690  0.9990 -0.0781 -0.3007
  712MOL0     C96045  10.975   8.456   3.734  0.8891 -1.4592 -0.8005
  712MOL0     C96046  11.018   8.372   3.616 -0.1960  0.4133  0.3161
  712MOL0     C96047  11.138   8.440   3.554  0.5659 -0.3105  0.2209
  712MOL0     C96048  11.174   8.357   3.426 -1.2492 -0.1703 -0.8974
  712MOL0     C96049  11.293   8.424   3.368  0.7697 -0.2006  0.0607
  712MOL0     C96050  11.384   8.491   3.320  0.0893 -0.4637  0.0357
  712MOL0     C96051  10.688   8.434   3.670 -0.0701 -0.6163  0.1280
  712MOL0     C96052  10.550   8.423   3.636  0.5465  0.3589 -0.8258
  712MOL0     H96053  10.193   8.253   3.394  1.1289  0.0210  0.5227
  712MOL0     H96054   9.945   8.184   3.349  0.5668  2.4995 -0.9315
  712MOL0     H96055   9.579   8.325   3.598  0.8838  1.4171  0.7155
  712MOL0     H96056   9.698   8.438   3.519  0.5556 -0.5095  0.6975
  712MOL0     H96057   9.511   8.454   3.375  1.3687  0.7636  1.3872
  712MOL0     H96058   9.634   8.364   3.303  0.5932  1.7138  0.2876
  712MOL0     H96059   9.458   8.245   3.258  2.5690  1.1358 -0.4094
  712MOL0     H96060   9.484   8.150   3.410 -0.5655 -0.2275  0.3484
  712MOL0     H96061   9.332   8.303   3.535  1.7214  0.1792 -0.5259
  712MOL0     H96062   9.295   8.397   3.397 -2.0019 -0.2337  1.6300
  712MOL0     H96063   9.240   8.103   3.428  2.2600  0.6671  0.6249
  712MOL0     H96064   9.120   8.233   3.479 -0.8190 -2.4654  0.8944
  712MOL0     H96065   9.136   8.326   3.231 -0.1915 -0.2210 -0.9896
  712MOL0     H96066   9.230   8.185   3.191 -0.6681  0.7147 -0.2796
  712MOL0     H96067   9.017   8.105   3.135 -0.7367 -2.0684  0.2948
  712MOL0     H96068   9.035   8.042   3.289  0.7200  0.3251 -1.0429
  712MOL0     H96069   8.900   8.307   3.209 -2.3754 -1.6146 -2.1228
  712MOL0     H96070   8.913   8.255   3.376 -3.6007  0.7682  0.2780
  712MOL0     H96071   8.792   7.970   3.379  0.0427  0.3376 -0.4867
  712MOL0     H96072   8.565   7.832   3.309 -0.0576  0.0029  1.6944
  712MOL0     H96073   8.535   7.920   3.460  0.9039  0.4886 -0.1563
  712MOL0     H96074   8.332   7.813   3.307  0.8137 -1.1552 -2.0870
  712MOL0     H96075   8.369   7.943   3.201  0.3783  0.4656  0.8198
  712MOL0     H96076   8.317   8.114   3.402 -2.6293  0.9133  0.2293
  712MOL0     H96077   8.266   7.967   3.484  1.4140 -0.5016  0.2757
  712MOL0     H96078   8.090   7.936   3.297  0.1244  0.7684 -1.4090
  712MOL0     H96079   8.168   8.061   3.210  0.5298 -0.7789 -0.7802
  712MOL0     H96080   7.961   8.346   3.458 -5.3242 -2.3026  3.9212
  712MOL0     H96081   7.743   8.547   3.303 -2.8420 -0.6423  0.0107
  712MOL0     H96082   7.649   8.474   3.431 -0.3815  0.6191 -1.2581
  712MOL0     H96083   7.818   8.497   3.458 -0.6026 -0.1566  2.1240
  712MOL0     H96084   7.378   8.054   2.968  1.1665  1.8943 -3.3340
  712MOL0     H96085   7.153   8.070   2.882 -1.1142  1.0107 -0.6159
  712MOL0     H96086   6.891   8.408   3.026 -3.6525  0.4300 -0.6334
  712MOL0     H96087   6.955   8.480   2.876 -0.1483  0.7730  1.4434
  712MOL0     H96088   6.788   8.369   2.748 -2.0003  0.8604 -0.5382
  712MOL0     H96089   6.725   8.293   2.893  1.7069  0.2798  0.9050
  712MOL0     H96090   6.743   8.587   2.825  3.6855 -2.5847  0.3490
  712MOL0     H96091   6.683   8.539   2.985 -1.7839  3.6143 -0.2279
  712MOL0     H96092   6.490   8.421   2.878  1.4735 -0.0976  0.2412
  712MOL0     H96093   6.504   8.596   2.868 -2.1680 -1.9000  4.4747
  712MOL0     H96094   6.591   8.412   2.633 -1.6786 -1.3448  0.7508
  712MOL0     H96095   6.606   8.589   2.639  0.5232  0.5645  2.0657
  712MOL0     H96096   6.329   8.472   2.660  0.2412 -1.8664 -1.0477
  712MOL0     H96097   6.388   8.629   2.609 -1.1489  0.7408 -1.5455
  712MOL0     H96098   6.401   8.372   2.449 -2.4761  0.2414 -0.8857
  712MOL0     H96099   6.490   8.529   2.407  0.5479  1.5754  1.5175
  712MOL0     H96100   6.293   8.498   2.274 -0.9997 -0.7950  0.7976
  712MOL0     H96101   6.244   8.625   2.384  1.2450  0.9884 -2.3360
  712MOL0     H96102   7.127   8.473   3.015  0.8741  0.8029 -0.1237
  712MOL0     H96103   7.330   8.450   3.148 -1.0883  2.0761 -1.2226
  712MOL0     H96104   7.694   8.067   3.147 -1.6885 -1.5402  2.5542
  712MOL0     H96105   7.900   7.977   3.242 -3.8433 -1.4404  4.0006
  712MOL0     H96106   9.830   8.405   3.693  0.0027  1.0963 -1.0126
  712MOL0     H96107  10.060   8.462   3.747  2.5594  1.7243 -1.6283
  712MOL0     H96108  10.506   8.753   3.578  0.5903  0.8870  1.4866
  712MOL0     H96109  10.745   8.756   3.615 -0.7763  0.2623 -1.1227
  712MOL0     H96110  11.063   8.503   3.779  1.7289 -2.5806 -1.2093
  712MOL0     H96111  10.929   8.396   3.813 -2.9032  3.0785  0.9410
  712MOL0     H96112  10.930   8.363   3.551 -0.7722  0.1445  1.1138
  712MOL0     H96113  11.037   8.269   3.648 -0.5688 -0.3422 -1.7192
  712MOL0     H96114  11.214   8.448   3.632 -1.2541 -1.6324  2.2437
  712MOL0     H96115  11.120   8.539   3.511  1.5860  0.3688  1.3024
  712MOL0     H96116  11.099   8.352   3.347 -0.4527 -2.1139 -1.5980
  712MOL0     H96117  11.196   8.251   3.441 -3.7213 -0.4551  1.1558
  712MOL0     H96118  11.455   8.552   3.268 -0.8962  0.5096 -0.2039
  712MOL0     H96119  10.733   8.345   3.715  0.2683 -0.5325 -0.0390
  712MOL0     H96120  10.499   8.329   3.656  0.8461  0.1850 -0.8782
  713MOL0     O96121  10.709   0.414   1.160 -0.1869  0.5001 -1.0751
  713MOL0     C96122  10.725   0.324   1.238 -0.0948  0.4238  0.0623
  713MOL0     O96123  10.632   0.238   1.284  0.0107  0.0380 -0.6050
  713MOL0     C96124  10.505   0.238   1.237  0.8799  0.3234  0.4098
  713MOL0     C96125  10.471   0.199   1.108  0.3303 -0.0579  0.5792
  713MOL0     C96126  10.347   0.196   1.051  0.7231 -0.9496 -0.2308
  713MOL0     C96127  10.244   0.233   1.141 -0.0880  0.6249  0.0670
  713MOL0     O96128  10.115   0.227   1.119 -0.6708  0.8460  0.1783
  713MOL0     C96129  10.071   0.266   0.982  0.5737  0.1087 -0.0146
  713MOL0     C96130   9.921   0.232   0.965  0.5383 -0.1891 -0.3654
  713MOL0     C96131   9.829   0.321   1.057 -0.2450 -0.4471 -0.7182
  713MOL0     C96132   9.796   0.245   1.191 -0.4590  0.7827  0.2713
  713MOL0     C96133   9.717   0.327   1.301  0.6323 -0.0787  0.4691
  713MOL0     C96134   9.788   0.453   1.355 -0.4814  0.1560  1.0098
  713MOL0     C96135   9.689   0.530   1.445  0.1304  0.1870 -0.3269
  713MOL0     C96136   9.752   0.656   1.495 -0.6432  0.1887  0.2677
  713MOL0     N96137   9.686   0.726   1.608  0.3292 -0.2724 -0.0855
  713MOL0     C96138   9.653   0.671   1.732  0.1424 -0.1104 -0.1948
  713MOL0     C96139   9.542   0.738   1.773  0.4436  0.2011 -0.0667
  713MOL0     C96140   9.457   0.695   1.887 -0.3387 -0.1905 -0.0417
  713MOL0     C96141   9.340   0.607   1.859  0.4160  0.3032  0.2853
  713MOL0     C96142   9.279   0.548   1.985  0.4613  0.2115 -0.0273
  713MOL0     C96143   9.158   0.460   1.974  0.2748  0.2766 -0.5305
  713MOL0     O96144   9.078   0.505   1.862  0.3478 -0.0223 -0.1156
  713MOL0     C96145   8.955   0.451   1.832  0.5514  0.0334 -0.4790
  713MOL0     C96146   8.896   0.501   1.728  0.2341  0.6618  0.6439
  713MOL0     C96147   8.774   0.447   1.674 -0.1537  0.5319  0.2532
  713MOL0     C96148   8.712   0.521   1.558  0.5880  0.1647  0.4014
  713MOL0     C96149   8.720   0.325   1.733  0.1001 -0.4439 -0.0468
  713MOL0     C96150   8.603   0.250   1.682  0.1176  0.0417 -0.0398
  713MOL0     O96151   8.567   0.147   1.757  0.7313 -0.0343  0.4685
  713MOL0     C96152   8.439   0.103   1.718  0.3418  0.3327 -0.9347
  713MOL0     C96153   8.327   0.184   1.747  0.5725  0.4741 -0.6212
  713MOL0     C96154   8.195   0.141   1.728 -0.1892  0.8324  0.2416
  713MOL0     C96155   8.164   0.019   1.663  0.7204  0.8172 -0.1525
  713MOL0     O96156   8.037  -0.035   1.649 -0.9371  0.7332  0.2408
  713MOL0     C96157   7.935   0.056   1.613  0.4387 -0.0127 -0.2712
  713MOL0     C96158   7.804  -0.014   1.570  0.1351 -0.0112  0.3521
  713MOL0     C96159   7.682   0.084   1.549 -0.0237 -0.0372  0.3474
  713MOL0     C96160   7.570   0.016   1.481 -0.0090  0.1687 -0.2353
  713MOL0     C96161   7.461   0.110   1.426 -0.4228 -0.0357 -0.6007
  713MOL0     C96162   7.388   0.179   1.541 -0.3080  0.2411  0.2060
  713MOL0     C96163   7.268   0.274   1.499 -0.3921 -0.5762  0.0548
  713MOL0     C96164   7.172   0.301   1.614  0.4919 -0.2991 -0.5908
  713MOL0    Cl96165   7.053   0.435   1.572  0.1166  0.1319 -0.4675
  713MOL0     C96166   8.276  -0.065   1.643  1.2177  0.2368 -0.3834
  713MOL0     C96167   8.407  -0.021   1.660  0.4027 -0.7300 -0.9434
  713MOL0     O96168   8.544   0.286   1.575  0.5021 -0.0879 -0.4196
  713MOL0     C96169   8.790   0.272   1.845 -0.4360  0.3884  1.6466
  713MOL0     C96170   8.908   0.331   1.894  0.4346 -0.3036 -0.5313
  713MOL0     N96171   9.508   0.828   1.676  0.4800  0.2031 -0.2113
  713MOL0     N96172   9.591   0.822   1.578  0.5602  0.1327  0.3600
  713MOL0     C96173  10.270   0.263   1.274  0.1953  0.0866 -0.7546
  713MOL0     C96174  10.401   0.267   1.325 -0.0340 -0.2028 -0.4931
  713MOL0     C96175  10.864   0.317   1.301 -0.0217  0.4886 -0.1699
  713MOL0     C96176  10.911   0.198   1.337  0.4047  0.4518 -0.4796
  713MOL0     C96177  11.048   0.191   1.373  0.6716 -0.4369 -0.2799
  713MOL0     C96178  11.137   0.306   1.371  0.0495  0.2286 -0.0967
  713MOL0     O96179  11.268   0.301   1.402  0.4939  0.4079  0.0306
  713MOL0     C96180  11.328   0.181   1.444  0.1654  0.3964 -0.2883
  713MOL0     C96181  11.469   0.210   1.483 -0.0094  0.1478  0.3322
  713MOL0     C96182  11.544   0.250   1.357 -0.1650 -0.2015 -0.1601
  713MOL0     C96183  11.694   0.266   1.381  0.6035 -0.1865  0.3435
  713MOL0     C96184  11.717   0.379   1.473 -0.5418  1.3701 -0.2919
  713MOL0     C96185  11.729   0.479   1.541 -0.3248 -0.0568 -0.9029
  713MOL0     C96186  11.086   0.421   1.323  0.7524 -0.5119 -0.5973
  713MOL0     C96187  10.949   0.430   1.300  0.1170  0.3118  0.1730
  713MOL0     H96188  10.550   0.173   1.038  1.6910 -1.2280  2.4651
  713MOL0     H96189  10.329   0.163   0.949  0.1440 -3.0512  0.5088
  713MOL0     H96190  10.085   0.373   0.962 -1.1236  0.7463  1.8766
  713MOL0     H96191  10.120   0.199   0.911 -0.2888 -2.4194  1.6551
  713MOL0     H96192   9.908   0.256   0.859  0.0122  2.6487  0.2565
  713MOL0     H96193   9.907   0.124   0.972 -1.1849  0.0842  1.2162
  713MOL0     H96194   9.879   0.417   1.076 -1.7884  0.6290 -1.8862
  713MOL0     H96195   9.735   0.350   1.009  0.5663 -0.7392 -2.5746
  713MOL0     H96196   9.745   0.149   1.182  0.5585  0.1806  0.7353
  713MOL0     H96197   9.894   0.233   1.239  0.0294  0.3235 -0.8105
  713MOL0     H96198   9.619   0.349   1.257  2.0274 -2.0775 -4.2989
  713MOL0     H96199   9.706   0.266   1.391  3.1229  3.7032  3.6857
  713MOL0     H96200   9.885   0.428   1.399 -0.1672  0.5946  0.5833
  713MOL0     H96201   9.801   0.517   1.267  0.3769 -0.0305  0.9903
  713MOL0     H96202   9.600   0.549   1.385 -0.5004 -1.0130  0.1829
  713MOL0     H96203   9.662   0.469   1.532 -0.3620 -1.2619 -1.4389
  713MOL0     H96204   9.763   0.729   1.414 -1.1561 -0.0059  0.0210
  713MOL0     H96205   9.852   0.633   1.533 -0.5470  2.9645  1.9262
  713MOL0     H96206   9.687   0.583   1.785 -0.3598 -0.3051 -0.1871
  713MOL0     H96207   9.518   0.638   1.958  1.2450  0.3907 -0.8737
  713MOL0     H96208   9.428   0.793   1.928  1.9673  0.2590  0.6760
  713MOL0     H96209   9.366   0.522   1.795 -0.4291  0.5998 -0.4743
  713MOL0     H96210   9.275   0.666   1.793 -0.8585  0.6475  1.8047
  713MOL0     H96211   9.262   0.635   2.050  3.8273  0.6508  0.4180
  713MOL0     H96212   9.355   0.491   2.040 -0.1709 -3.5437 -2.6737
  713MOL0     H96213   9.108   0.457   2.071  2.0493  3.1892  0.5971
  713MOL0     H96214   9.198   0.361   1.949 -0.2093  0.0791 -0.5320
  713MOL0     H96215   8.939   0.588   1.679  1.1064 -1.4307 -2.6791
  713MOL0     H96216   8.691   0.460   1.469  1.6830 -0.9708  0.8969
  713MOL0     H96217   8.620   0.572   1.590 -2.1114 -3.2215 -1.2469
  713MOL0     H96218   8.791   0.592   1.533  3.2356 -2.4684  0.7349
  713MOL0     H96219   8.340   0.280   1.796  2.4131 -0.2503  0.4068
  713MOL0     H96220   8.121   0.217   1.750  0.7487  1.3661  1.7535
  713MOL0     H96221   7.918   0.131   1.691 -0.2731  0.1933 -0.6147
  713MOL0     H96222   7.973   0.120   1.534 -0.8184  0.9588 -0.1160
  713MOL0     H96223   7.829  -0.072   1.480  0.1494  1.6228 -0.7381
  713MOL0     H96224   7.779  -0.086   1.648 -0.2158  0.7319  0.9362
  713MOL0     H96225   7.711   0.164   1.480  1.5285 -0.3966  0.5470
  713MOL0     H96226   7.660   0.127   1.648  2.5978 -0.4868  1.2323
  713MOL0     H96227   7.611  -0.034   1.393  0.3075 -2.7629  1.4604
  713MOL0     H96228   7.530  -0.056   1.554  3.0377  0.4144  1.8669
  713MOL0     H96229   7.387   0.050   1.372 -1.1141 -0.6362  0.9525
  713MOL0     H96230   7.510   0.181   1.358  0.0383 -0.5135 -0.7745
  713MOL0     H96231   7.359   0.098   1.608  0.6430 -1.6229 -1.5265
  713MOL0     H96232   7.455   0.238   1.605 -0.0271 -2.3768  2.5056
  713MOL0     H96233   7.218   0.229   1.413 -2.6216  3.7168 -1.1774
  713MOL0     H96234   7.311   0.366   1.458 -2.6027  0.8491  0.7552
  713MOL0     H96235   7.230   0.329   1.703  1.1504 -0.3006 -1.0093
  713MOL0     H96236   7.114   0.211   1.633  2.0256 -2.2455 -4.0396
  713MOL0     H96237   8.253  -0.164   1.607 -2.8816  1.8247 -2.8064
  713MOL0     H96238   8.491  -0.084   1.636  0.5745 -0.3116 -1.4493
  713MOL0     H96239   8.757   0.181   1.896 -0.0974 -0.1099  0.9873
  713MOL0     H96240   8.960   0.281   1.976 -0.4131 -1.3951 -0.6305
  713MOL0     H96241  10.187   0.267   1.343  1.6368 -0.8135  1.1294
  713MOL0     H96242  10.422   0.298   1.427 -0.0912  0.6126 -0.7214
  713MOL0     H96243  10.854   0.105   1.336  1.6800 -0.3483 -0.7372
  713MOL0     H96244  11.091   0.093   1.394 -1.0118 -0.7440  2.1960
  713MOL0     H96245  11.280   0.138   1.532 -1.4584 -0.5008 -1.5422
  713MOL0     H96246  11.325   0.098   1.373  1.8882  0.2574 -0.2332
  713MOL0     H96247  11.522   0.120   1.516  1.1094  0.7687  0.2727
  713MOL0     H96248  11.480   0.292   1.555  0.8327  1.6523 -1.4322
  713MOL0     H96249  11.503   0.338   1.307  1.2039  0.5864  0.0435
  713MOL0     H96250  11.524   0.171   1.284 -0.6484 -0.1959 -0.0351
  713MOL0     H96251  11.748   0.275   1.286 -1.0963 -1.6170 -0.8187
  713MOL0     H96252  11.730   0.174   1.429  1.6011 -1.9474 -3.3908
  713MOL0     H96253  11.727   0.568   1.601 -0.1069 -2.0518  2.2573
  713MOL0     H96254  11.145   0.509   1.297  0.2722 -0.6944 -2.3939
  713MOL0     H96255  10.920   0.529   1.265 -0.3255 -0.4927 -1.8851
  714MOL0     O96256   9.343   8.212   2.522 -0.0965  1.1533 -0.5832
  714MOL0     C96257   9.404   8.300   2.584  0.5475 -0.7005  0.7088
  714MOL0     O96258   9.340   8.397   2.654  0.4223  1.1971 -0.0693
  714MOL0     C96259   9.200   8.406   2.655 -0.1004  0.3434  0.2632
  714MOL0     C96260   9.136   8.424   2.779  0.0956 -0.5889 -0.7785
  714MOL0     C96261   8.997   8.394   2.784 -0.4220 -0.5266 -0.1166
  714MOL0     C96262   8.927   8.387   2.661 -0.6464  0.1208 -0.3068
  714MOL0     O96263   8.789   8.395   2.666 -0.6331  0.0958 -0.6388
  714MOL0     C96264   8.724   8.359   2.791 -0.2297  0.6367 -0.0633
  714MOL0     C96265   8.572   8.355   2.787 -0.5647 -0.5686 -0.0952
  714MOL0     C96266   8.509   8.489   2.741 -0.2896 -0.4016  0.1129
  714MOL0     C96267   8.367   8.482   2.783 -0.0043 -0.2629 -0.5197
  714MOL0     C96268   8.286   8.586   2.720 -0.6612  0.0422  0.6324
  714MOL0     C96269   8.152   8.606   2.784  0.2810  0.9013  0.2623
  714MOL0     C96270   8.062   8.485   2.770  0.0181  0.4545 -0.4821
  714MOL0     C96271   7.962   8.497   2.884  0.3381  0.1188  0.3290
  714MOL0     N96272   7.830   8.481   2.830  0.1369 -0.6184 -0.7532
  714MOL0     C96273   7.761   8.364   2.829 -0.2825  0.4262  0.0626
  714MOL0     C96274   7.660   8.389   2.746  0.4550 -0.3113  0.2417
  714MOL0     C96275   7.550   8.288   2.703  0.0252  0.5572 -0.0910
  714MOL0     C96276   7.556   8.265   2.549 -0.6987 -0.6343  0.3414
  714MOL0     C96277   7.485   8.144   2.516  0.4767  0.9576  0.2674
  714MOL0     C96278   7.333   8.146   2.541  0.0802  0.2598  0.8485
  714MOL0     O96279   7.263   8.049   2.458 -0.4039  0.0201 -0.1953
  714MOL0     C96280   7.121   8.043   2.471  0.0501 -0.4901 -0.1544
  714MOL0     C96281   7.064   7.932   2.414 -0.4526 -0.2661 -0.9216
  714MOL0     C96282   6.926   7.920   2.409  0.3410  0.0640  0.3613
  714MOL0     C96283   6.874   7.801   2.350 -0.4217  1.7443  0.0838
  714MOL0     C96284   6.838   8.030   2.437 -0.2149 -0.4805  0.7678
  714MOL0     C96285   6.690   8.038   2.398 -1.0112  0.0938 -0.8831
  714MOL0     O96286   6.632   7.954   2.307 -0.0551  0.4134  0.0446
  714MOL0     C96287   6.513   7.984   2.242  0.2878  0.2032 -0.6552
  714MOL0     C96288   6.416   7.885   2.225 -0.0084  0.7830  0.0995
  714MOL0     C96289   6.300   7.909   2.150  0.0928 -0.2563 -0.5374
  714MOL0     C96290   6.279   8.033   2.088 -0.0055  0.5709 -0.3552
  714MOL0     O96291   6.158   8.049   2.026 -0.1331  0.3426 -0.0918
  714MOL0     C96292   6.099   8.178   2.004  1.0276  0.3148 -0.7201
  714MOL0     C96293   5.963   8.155   1.933  0.4875 -0.2703 -0.0654
  714MOL0     C96294   5.905   8.279   1.867 -0.5256 -0.2260  1.0864
  714MOL0     C96295   5.753   8.292   1.897  0.1844 -0.1467  0.3257
  714MOL0     C96296   5.722   8.438   1.891  0.4224  0.7960  0.0234
  714MOL0     C96297   5.573   8.463   1.880  0.9355  0.5273 -0.5350
  714MOL0     C96298   5.517   8.453   1.739  0.6421 -0.2973 -0.6667
  714MOL0     C96299   5.363   8.487   1.748  0.0709 -0.0022  0.6619
  714MOL0    Cl96300   5.331   8.646   1.673  0.1349  0.3187  0.1562
  714MOL0     C96301   6.382   8.131   2.106  0.6654  0.4195  0.7011
  714MOL0     C96302   6.497   8.107   2.180  0.2690 -0.3843 -0.0654
  714MOL0     O96303   6.632   8.134   2.444  0.2144 -0.3326  0.0099
  714MOL0     C96304   6.904   8.137   2.502 -0.3239 -0.4049 -0.2897
  714MOL0     C96305   7.042   8.147   2.522 -0.9286 -0.5276 -0.0098
  714MOL0     N96306   7.659   8.522   2.711 -0.3484  0.0966 -0.7462
  714MOL0     N96307   7.767   8.578   2.761 -0.6329  1.5822  0.8470
  714MOL0     C96308   8.991   8.395   2.540  0.4189 -0.8743 -0.1622
  714MOL0     C96309   9.130   8.405   2.538 -0.0987 -0.0353 -0.2124
  714MOL0     C96310   9.551   8.290   2.586  0.1434 -0.2613  0.4042
  714MOL0     C96311   9.621   8.177   2.529 -0.2517  0.4254 -0.4298
  714MOL0     C96312   9.760   8.164   2.552  0.1697 -0.3963  0.7689
  714MOL0     C96313   9.829   8.268   2.606  0.4131 -0.6738 -0.0514
  714MOL0     O96314   9.962   8.240   2.611 -0.2841 -0.5218  0.3725
  714MOL0     C96315  10.040   8.319   2.694 -0.5332  0.0125 -0.7298
  714MOL0     C96316  10.160   8.248   2.762  0.1095 -0.3799  0.4458
  714MOL0     C96317  10.250   8.339   2.828 -0.1639 -0.9421  0.7097
  714MOL0     C96318  10.353   8.268   2.910  0.0365  0.0815 -0.6929
  714MOL0     C96319  10.478   8.340   2.928 -0.6330 -0.3281 -0.4337
  714MOL0     C96320  10.583   8.401   2.926 -0.3464  0.2589  0.9615
  714MOL0     C96321   9.766   8.385   2.630 -0.0460  0.1259  0.0436
  714MOL0     C96322   9.625   8.393   2.638 -0.2507 -0.4256  0.1395
  714MOL0     H96323   9.197   8.424   2.868 -1.6947 -1.4925  0.5236
  714MOL0     H96324   8.951   8.398   2.882  3.3865  1.7843  1.8369
  714MOL0     H96325   8.758   8.265   2.834  3.4627  1.0426 -1.7279
  714MOL0     H96326   8.742   8.437   2.865 -2.2005  0.9812  0.1246
  714MOL0     H96327   8.541   8.275   2.719 -1.0759 -1.0679  0.7148
  714MOL0     H96328   8.537   8.321   2.885 -3.2466  0.2524 -0.6701
  714MOL0     H96329   8.558   8.580   2.777  0.2339 -0.9155  0.7111
  714MOL0     H96330   8.516   8.487   2.632 -0.7635 -4.3419  0.0189
  714MOL0     H96331   8.328   8.381   2.768  0.2217 -0.5051  0.4582
  714MOL0     H96332   8.358   8.492   2.892  0.4085  1.4935 -0.6190
  714MOL0     H96333   8.348   8.675   2.701 -2.0555  0.2628 -4.2410
  714MOL0     H96334   8.279   8.561   2.614  0.4404  2.1615 -0.0053
  714MOL0     H96335   8.166   8.634   2.889 -0.8447  2.8923 -0.0498
  714MOL0     H96336   8.101   8.690   2.735  1.4798  0.6870 -1.3995
  714MOL0     H96337   8.007   8.466   2.677 -2.4384  0.6442  0.8452
  714MOL0     H96338   8.119   8.393   2.789  0.1364  1.1078  2.9418
  714MOL0     H96339   7.976   8.594   2.933 -3.1767 -0.2269  2.3732
  714MOL0     H96340   7.990   8.425   2.961 -0.4270 -0.4811  0.0699
  714MOL0     H96341   7.785   8.271   2.879 -0.2236 -0.7327 -1.9952
  714MOL0     H96342   7.558   8.194   2.757 -0.5940  2.0124  2.6851
  714MOL0     H96343   7.447   8.318   2.720 -0.2110 -0.7575  0.9373
  714MOL0     H96344   7.660   8.249   2.518  0.6329 -0.3567  4.1056
  714MOL0     H96345   7.510   8.349   2.495  2.0240  0.4345 -0.4781
  714MOL0     H96346   7.538   8.057   2.556  0.4689  0.6505 -0.3892
  714MOL0     H96347   7.494   8.138   2.408 -0.8630  0.1404  0.1804
  714MOL0     H96348   7.293   8.243   2.511  0.3900  0.5836  1.4681
  714MOL0     H96349   7.306   8.120   2.643  1.3269 -2.9111  0.4944
  714MOL0     H96350   7.136   7.858   2.378 -0.2646 -0.7247  0.3435
  714MOL0     H96351   6.943   7.717   2.367 -1.5040  0.5409 -1.2500
  714MOL0     H96352   6.778   7.769   2.391 -0.3388  1.4427  0.0495
  714MOL0     H96353   6.857   7.808   2.243  0.5166  0.5554 -0.1685
  714MOL0     H96354   6.442   7.788   2.267 -0.9259  0.6905  0.4651
  714MOL0     H96355   6.225   7.832   2.140 -0.3999  0.3805 -2.0963
  714MOL0     H96356   6.071   8.228   2.097 -0.8422  0.8498 -1.5198
  714MOL0     H96357   6.159   8.236   1.934 -1.6813  1.4965 -2.2331
  714MOL0     H96358   5.981   8.082   1.854  0.2399  0.1107 -0.4780
  714MOL0     H96359   5.879   8.110   1.987 -0.8205 -1.6675 -3.0268
  714MOL0     H96360   5.927   8.281   1.759  1.4854  3.2568  1.4134
  714MOL0     H96361   5.948   8.369   1.911 -2.4408  1.0388  0.4796
  714MOL0     H96362   5.693   8.227   1.833  3.5721 -0.4290 -2.9036
  714MOL0     H96363   5.731   8.258   1.999 -0.2919  0.4973  0.4411
  714MOL0     H96364   5.762   8.463   1.793  0.0227 -0.7304 -0.5617
  714MOL0     H96365   5.757   8.501   1.974 -0.8948  2.3308 -0.5410
  714MOL0     H96366   5.515   8.393   1.941 -3.6423  3.1761 -1.4049
  714MOL0     H96367   5.554   8.566   1.912 -4.1335  0.3054 -1.9795
  714MOL0     H96368   5.533   8.350   1.707 -0.1303 -0.8469  0.6243
  714MOL0     H96369   5.563   8.518   1.665 -0.7068 -0.2932 -1.5451
  714MOL0     H96370   5.321   8.483   1.849  0.7725 -1.1511  0.9260
  714MOL0     H96371   5.312   8.412   1.687  3.5528 -1.9316 -0.1467
  714MOL0     H96372   6.366   8.223   2.052 -3.2535 -1.4671 -1.8406
  714MOL0     H96373   6.572   8.184   2.196 -1.3731  1.2838  0.0077
  714MOL0     H96374   6.854   8.225   2.541  1.2562 -0.0508  1.0306
  714MOL0     H96375   7.073   8.230   2.584  0.8268 -0.6584 -0.6732
  714MOL0     H96376   8.929   8.406   2.451  1.5917  0.0682 -0.9012
  714MOL0     H96377   9.190   8.404   2.448 -0.0503 -0.1558 -0.1786
  714MOL0     H96378   9.573   8.089   2.486 -0.6455  1.5082 -2.3229
  714MOL0     H96379   9.805   8.072   2.515 -1.1230 -0.8532  0.2560
  714MOL0     H96380  10.082   8.401   2.636  2.4173 -2.7572 -2.9096
  714MOL0     H96381   9.982   8.348   2.782  2.2208 -2.1137  2.0273
  714MOL0     H96382  10.212   8.194   2.682 -0.5834 -2.2543  1.1915
  714MOL0     H96383  10.123   8.170   2.829  0.1620 -0.5199  0.3127
  714MOL0     H96384  10.198   8.414   2.887 -2.7277  0.8343 -3.4125
  714MOL0     H96385  10.287   8.402   2.748  0.5944 -0.2834  1.5591
  714MOL0     H96386  10.366   8.173   2.859 -2.3248  0.0324 -1.3214
  714MOL0     H96387  10.305   8.247   3.006  0.2635  1.2047 -0.3073
  714MOL0     H96388  10.658   8.476   2.912 -1.0151  0.7971  0.0983
  714MOL0     H96389   9.830   8.468   2.658  0.6588 -0.4535  0.1809
  714MOL0     H96390   9.589   8.490   2.670  1.4307  1.3119 -2.8233
  715MOL0     O96391   8.969   0.697   6.680 -0.5362  0.2343  0.8032
  715MOL0     C96392   9.032   0.628   6.767 -0.4757 -0.5277  0.3216
  715MOL0     O96393   8.983   0.603   6.889 -0.0624  0.3561 -1.0353
  715MOL0     C96394   8.852   0.603   6.915  0.0908  0.2361  0.3252
  715MOL0     C96395   8.802   0.693   7.012  0.7747 -0.5111 -0.3437
  715MOL0     C96396   8.672   0.702   7.055  0.9928 -0.5846  0.5289
  715MOL0     C96397   8.576   0.616   6.993 -0.6562 -0.3497 -0.8931
  715MOL0     O96398   8.448   0.641   7.036  0.3367  0.5919  0.9012
  715MOL0     C96399   8.365   0.523   7.022  0.0127 -0.5464  0.3727
  715MOL0     C96400   8.273   0.518   7.135  0.7709  0.7402 -0.4849
  715MOL0     C96401   8.131   0.560   7.086  0.0431  0.6381  0.1304
  715MOL0     C96402   8.137   0.706   7.042 -0.6670  0.0257 -0.5852
  715MOL0     C96403   7.997   0.770   7.048 -0.0194 -0.3961 -0.4014
  715MOL0     C96404   7.906   0.728   6.931 -0.6435  0.0332 -0.4688
  715MOL0     C96405   7.761   0.751   6.954 -0.2284 -0.1670 -0.5093
  715MOL0     C96406   7.686   0.623   6.996  0.0989  0.8587 -0.2274
  715MOL0     N96407   7.547   0.625   6.960  0.5706 -0.0488 -0.0386
  715MOL0     C96408   7.505   0.587   6.838  0.3168  0.2904 -0.3822
  715MOL0     C96409   7.375   0.617   6.831 -0.9983  0.1498  0.7193
  715MOL0     C96410   7.283   0.616   6.714  0.2970  0.5730 -0.3062
  715MOL0     C96411   7.308   0.719   6.602 -0.7058  0.5109 -0.5264
  715MOL0     C96412   7.201   0.713   6.487 -0.3972  0.1457 -0.0619
  715MOL0     C96413   7.048   0.728   6.543 -0.7528 -0.5187 -0.6085
  715MOL0     O96414   7.030   0.820   6.649  0.0764  0.4354 -0.1045
  715MOL0     C96415   6.912   0.889   6.649  0.2773 -0.5812 -0.7277
  715MOL0     C96416   6.793   0.850   6.592 -0.7415  0.8946 -0.6014
  715MOL0     C96417   6.683   0.944   6.587 -1.1500  0.2045  0.0375
  715MOL0     C96418   6.553   0.899   6.539 -0.1094 -0.2136  0.2012
  715MOL0     C96419   6.696   1.071   6.651  0.3438  0.6199 -0.0630
  715MOL0     C96420   6.584   1.172   6.658  0.3971  0.0004  0.1944
  715MOL0     O96421   6.490   1.172   6.554  0.0400  0.2812 -0.3320
  715MOL0     C96422   6.413   1.284   6.531  0.0161  0.8323 -0.2485
  715MOL0     C96423   6.458   1.404   6.478 -0.3844 -0.0553  0.3990
  715MOL0     C96424   6.364   1.500   6.443  0.6474  0.3469 -0.3006
  715MOL0     C96425   6.220   1.475   6.449  0.0579 -0.1845 -0.0377
  715MOL0     O96426   6.128   1.563   6.397 -0.2696 -0.7062  0.2897
  715MOL0     C96427   6.049   1.623   6.509  0.3221  0.0762 -0.1364
  715MOL0     C96428   5.969   1.745   6.457 -0.0635  0.1487  0.1234
  715MOL0     C96429   5.845   1.773   6.553  0.0902 -0.7732  0.5671
  715MOL0     C96430   5.775   1.892   6.487  1.1310  0.4990 -0.0021
  715MOL0     C96431   5.647   1.913   6.564 -0.0225  0.7384 -0.3567
  715MOL0     C96432   5.537   1.980   6.480  0.1855  0.3056  0.0473
  715MOL0     C96433   5.405   1.996   6.564  0.2465 -0.7218  1.0937
  715MOL0     C96434   5.290   2.071   6.497  0.5159 -0.8755 -0.2777
  715MOL0    Cl96435   5.160   2.103   6.621 -0.6530  0.0425 -0.0921
  715MOL0     C96436   6.178   1.350   6.492  0.0658  0.0787  0.7961
  715MOL0     C96437   6.270   1.258   6.533  0.1327 -0.2875 -0.4150
  715MOL0     O96438   6.576   1.244   6.763  0.2420 -0.0529 -0.4256
  715MOL0     C96439   6.817   1.101   6.717  0.4015  0.2720  0.0804
  715MOL0     C96440   6.922   1.008   6.714  0.3973  0.2330 -0.5114
  715MOL0     N96441   7.336   0.653   6.958  0.3577  0.3599 -0.2150
  715MOL0     N96442   7.439   0.653   7.032 -0.9183 -0.9600 -0.1905
  715MOL0     C96443   8.621   0.522   6.898  0.9554 -0.6217 -0.3933
  715MOL0     C96444   8.758   0.515   6.861  0.4026  0.6416 -0.2774
  715MOL0     C96445   9.173   0.584   6.740  0.2996 -0.4667  0.8966
  715MOL0     C96446   9.255   0.539   6.843 -0.3342 -0.2991  0.0229
  715MOL0     C96447   9.386   0.485   6.816  0.1223  0.2763  0.4881
  715MOL0     C96448   9.444   0.489   6.691  0.4180 -0.4185 -0.5205
  715MOL0     O96449   9.567   0.439   6.665 -0.6357  0.0405 -0.4296
  715MOL0     C96450   9.666   0.392   6.756  0.4733  0.7063 -0.5306
  715MOL0     C96451   9.761   0.294   6.684 -0.5504  0.1012 -0.0454
  715MOL0     C96452   9.814   0.364   6.550 -0.6614  0.3386 -0.4536
  715MOL0     C96453   9.935   0.460   6.575 -0.1551  0.0971 -0.2963
  715MOL0     C96454  10.055   0.395   6.630  1.0127  1.1836  0.3094
  715MOL0     C96455  10.163   0.349   6.654  0.0691  0.3676  0.0243
  715MOL0     C96456   9.360   0.536   6.587  0.7182 -0.5249 -1.0043
  715MOL0     C96457   9.226   0.570   6.613  0.1477 -0.1813 -0.2082
  715MOL0     H96458   8.874   0.763   7.051  0.1531 -0.2656  0.3928
  715MOL0     H96459   8.651   0.784   7.122  1.8597  1.7253 -1.8545
  715MOL0     H96460   8.311   0.526   6.927  0.4995 -0.6938  0.0849
  715MOL0     H96461   8.419   0.428   7.023 -2.2868 -1.9161  1.0890
  715MOL0     H96462   8.262   0.414   7.170 -1.0339  0.0683 -2.7998
  715MOL0     H96463   8.304   0.573   7.224  0.5217  0.4476 -0.2101
  715MOL0     H96464   8.099   0.498   7.002 -0.5456 -1.7940  2.0273
  715MOL0     H96465   8.058   0.537   7.164 -0.4750  0.4887 -0.3978
  715MOL0     H96466   8.208   0.767   7.100 -1.1717  0.5291 -0.4892
  715MOL0     H96467   8.186   0.718   6.944 -2.0750  0.8543 -1.2194
  715MOL0     H96468   7.951   0.733   7.140 -0.6385  0.2966 -0.4280
  715MOL0     H96469   8.000   0.879   7.059 -1.6661 -0.2773 -0.9255
  715MOL0     H96470   7.925   0.795   6.846 -2.8626  0.5736 -0.6026
  715MOL0     H96471   7.936   0.631   6.891  2.1166  2.1863 -4.3383
  715MOL0     H96472   7.747   0.826   7.032  0.3700 -2.0100  1.4652
  715MOL0     H96473   7.716   0.804   6.869  0.3807 -2.1157 -2.1497
  715MOL0     H96474   7.698   0.614   7.105 -1.0090 -1.3525 -0.2167
  715MOL0     H96475   7.739   0.535   6.958  1.2928  0.7202  1.6335
  715MOL0     H96476   7.571   0.542   6.764  0.2591 -0.4493  0.0098
  715MOL0     H96477   7.286   0.518   6.665  3.1749  0.7421 -0.6266
  715MOL0     H96478   7.185   0.624   6.760 -0.6540 -0.2743 -2.0709
  715MOL0     H96479   7.401   0.691   6.552  0.9426  0.7820  2.1659
  715MOL0     H96480   7.320   0.818   6.648 -0.8687 -0.4734  1.7762
  715MOL0     H96481   7.209   0.624   6.424  0.5916  1.9609 -2.6899
  715MOL0     H96482   7.218   0.798   6.420 -1.6743 -0.9004 -1.8017
  715MOL0     H96483   7.014   0.633   6.585  0.3658 -0.8015 -0.3189
  715MOL0     H96484   6.980   0.742   6.458  0.7231 -2.5087 -2.2199
  715MOL0     H96485   6.783   0.745   6.566 -0.0494  0.1906  1.6898
  715MOL0     H96486   6.482   0.911   6.622  0.0116 -0.2877  0.3155
  715MOL0     H96487   6.514   0.956   6.454 -0.0794  1.8085  1.4793
  715MOL0     H96488   6.553   0.795   6.503  0.8564  0.3027 -1.4221
  715MOL0     H96489   6.565   1.425   6.468 -0.4565  0.0379 -0.1711
  715MOL0     H96490   6.382   1.599   6.401  0.5037 -0.8954 -3.5642
  715MOL0     H96491   5.975   1.551   6.546 -0.4808 -0.6674 -2.9483
  715MOL0     H96492   6.111   1.661   6.591 -0.3047 -0.2018  0.4693
  715MOL0     H96493   6.043   1.824   6.444  0.6553 -0.0209  2.6033
  715MOL0     H96494   5.937   1.715   6.357  3.0281  0.2381 -0.9932
  715MOL0     H96495   5.876   1.818   6.647  1.1979 -1.5104  0.5777
  715MOL0     H96496   5.777   1.690   6.574 -1.6334  0.4576  0.0633
  715MOL0     H96497   5.826   1.987   6.468  1.3096  0.0562 -1.9901
  715MOL0     H96498   5.742   1.874   6.384  1.2725 -0.6813  0.1465
  715MOL0     H96499   5.660   1.982   6.647 -1.3190  1.0835 -0.4249
  715MOL0     H96500   5.607   1.824   6.613 -1.7965  2.9671  2.5454
  715MOL0     H96501   5.575   2.080   6.454  2.4700  0.1511  2.3837
  715MOL0     H96502   5.514   1.925   6.388 -0.1956  2.5557 -1.3109
  715MOL0     H96503   5.429   2.048   6.657 -1.2070  1.2074  0.4584
  715MOL0     H96504   5.377   1.893   6.588  2.8093 -1.2516  2.2336
  715MOL0     H96505   5.255   2.011   6.413  1.5411 -0.1683 -1.2406
  715MOL0     H96506   5.327   2.162   6.448 -0.9171 -0.9068 -1.4887
  715MOL0     H96507   6.076   1.327   6.465 -0.3073  1.8129  0.5810
  715MOL0     H96508   6.246   1.161   6.576  2.1906 -0.2999  0.8299
  715MOL0     H96509   6.827   1.200   6.761  1.5040  1.1135 -1.8901
  715MOL0     H96510   7.021   1.015   6.759  1.2377  0.9803 -2.3650
  715MOL0     H96511   8.553   0.469   6.832 -0.6015 -1.3528  1.6884
  715MOL0     H96512   8.795   0.436   6.796  2.0201  1.2010 -0.0946
  715MOL0     H96513   9.210   0.549   6.942 -1.6351 -1.6502 -0.3883
  715MOL0     H96514   9.450   0.439   6.891  0.6417 -1.2046 -0.7889
  715MOL0     H96515   9.725   0.478   6.788  1.5624 -0.4983  0.8337
  715MOL0     H96516   9.634   0.349   6.851 -2.2464  1.2702 -1.1018
  715MOL0     H96517   9.699   0.211   6.649 -0.5134  0.5001 -1.0965
  715MOL0     H96518   9.848   0.256   6.738  0.5812  1.2460 -0.9964
  715MOL0     H96519   9.734   0.423   6.505 -1.7607  0.5472  1.6338
  715MOL0     H96520   9.851   0.288   6.481  0.4281 -0.4563  0.9425
  715MOL0     H96521   9.908   0.549   6.632  0.2196  1.9162 -2.8014
  715MOL0     H96522   9.963   0.509   6.481 -3.2163 -1.6471 -2.2973
  715MOL0     H96523  10.255   0.303   6.685  1.1488  0.4652 -2.7136
  715MOL0     H96524   9.404   0.528   6.488  1.6973 -0.8561 -0.5540
  715MOL0     H96525   9.158   0.591   6.531  1.8780 -1.7915 -2.1615
  716MOL0     O96526   1.481   6.874   5.143  0.5860 -0.0455 -0.2114
  716MOL0     C96527   1.465   6.755   5.134  0.0715 -0.8986 -0.4596
  716MOL0     O96528   1.357   6.689   5.107  0.3568  0.0291  0.2471
  716MOL0     C96529   1.241   6.755   5.073  0.5794  0.7500  0.3686
  716MOL0     C96530   1.135   6.662   5.075  0.0236  0.4903  0.4299
  716MOL0     C96531   1.012   6.697   5.014  0.2891 -0.5211 -0.1446
  716MOL0     C96532   0.992   6.816   4.951 -0.6377 -0.5926  0.7326
  716MOL0     O96533   0.866   6.844   4.890 -0.4562 -0.4460 -0.0613
  716MOL0     C96534   0.821   6.962   4.816  0.9411 -0.0093 -0.3882
  716MOL0     C96535   0.668   6.971   4.836  0.3887 -0.6120  0.4271
  716MOL0     C96536   0.616   7.072   4.732 -0.0582  0.2505 -0.0037
  716MOL0     C96537   0.460   7.056   4.726  0.0686  0.8918  0.5533
  716MOL0     C96538   0.382   7.140   4.620 -0.7598 -0.1565 -0.8851
  716MOL0     C96539   0.244   7.077   4.592 -0.1903 -1.1943  0.0642
  716MOL0     C96540   0.146   7.177   4.524 -0.5694  0.1821  0.7669
  716MOL0     C96541   0.019   7.114   4.478  0.8700  0.1348 -0.2981
  716MOL0     N96542  -0.088   7.117   4.585 -0.2471  0.3747 -0.6059
  716MOL0     C96543  -0.091   7.027   4.690  0.3547 -0.6807 -0.0572
  716MOL0     C96544  -0.217   7.041   4.742  0.5538  0.4405  0.8126
  716MOL0     C96545  -0.299   6.972   4.853 -0.1720  0.2643  0.0608
  716MOL0     C96546  -0.215   6.969   4.987  0.4908 -0.4581  0.7793
  716MOL0     C96547  -0.282   6.924   5.111 -0.2342  0.2659  0.2313
  716MOL0     C96548  -0.365   6.796   5.093 -0.5972 -0.1530  0.1785
  716MOL0     O96549  -0.496   6.824   5.036 -0.3594  0.4650 -0.4001
  716MOL0     C96550  -0.593   6.726   5.064  0.2106 -0.0735  0.1368
  716MOL0     C96551  -0.721   6.755   5.008 -0.5706  0.5575 -0.7634
  716MOL0     C96552  -0.831   6.666   5.021 -0.0209 -0.1886  0.6307
  716MOL0     C96553  -0.952   6.707   4.946  1.1006  0.9767 -0.3730
  716MOL0     C96554  -0.819   6.549   5.101 -0.5553 -0.8781 -0.0541
  716MOL0     C96555  -0.919   6.454   5.118 -0.4012 -0.4036 -0.5653
  716MOL0     O96556  -0.884   6.322   5.127  1.0315  0.4045  0.9575
  716MOL0     C96557  -0.996   6.236   5.139  0.3934  1.0517  0.1393
  716MOL0     C96558  -1.057   6.172   5.029 -0.3105 -0.2243 -0.3115
  716MOL0     C96559  -1.161   6.079   5.043  0.4803  0.1004  0.0643
  716MOL0     C96560  -1.214   6.043   5.165 -0.1826  1.1582 -0.6399
  716MOL0     O96561  -1.315   5.945   5.180  0.2635  0.3029  0.5212
  716MOL0     C96562  -1.384   5.890   5.066  0.1668 -0.3460  0.7647
  716MOL0     C96563  -1.510   5.795   5.088 -0.5411  0.3346  0.5928
  716MOL0     C96564  -1.629   5.851   5.161  0.2710 -0.4812 -0.5736
  716MOL0     C96565  -1.757   5.762   5.152 -0.2310  1.5902 -0.2374
  716MOL0     C96566  -1.887   5.844   5.153 -0.2857  0.8314  0.1098
  716MOL0     C96567  -1.908   5.911   5.293 -0.0683 -0.1396  0.0192
  716MOL0     C96568  -2.030   5.997   5.285  0.7883  0.4025 -0.1735
  716MOL0     C96569  -2.058   6.085   5.412  0.1798  0.6313  0.0839
  716MOL0    Cl96570  -2.033   6.006   5.564 -0.1913  0.0515 -0.5199
  716MOL0     C96571  -1.155   6.098   5.279 -0.2163 -0.1033  0.0967
  716MOL0     C96572  -1.043   6.191   5.264 -0.2506 -0.2656  0.4982
  716MOL0     O96573  -1.034   6.497   5.116  0.7211 -0.3462 -0.3075
  716MOL0     C96574  -0.698   6.532   5.171  0.8893 -0.2264  0.9372
  716MOL0     C96575  -0.587   6.617   5.144  0.4668 -0.3538 -0.1072
  716MOL0     N96576  -0.289   7.124   4.659 -0.1150 -0.2656  0.7006
  716MOL0     N96577  -0.206   7.181   4.570 -0.1436  0.7729 -0.2709
  716MOL0     C96578   1.092   6.911   4.959  0.4797  0.0756  0.1269
  716MOL0     C96579   1.221   6.881   5.014 -0.2020 -0.5957  0.2223
  716MOL0     C96580   1.588   6.672   5.155 -0.5582 -0.1801  0.2819
  716MOL0     C96581   1.587   6.539   5.198 -0.0726  0.4496 -0.5159
  716MOL0     C96582   1.703   6.473   5.215 -0.3822  0.9314  0.0946
  716MOL0     C96583   1.833   6.525   5.185  0.4564 -0.8265  0.2492
  716MOL0     O96584   1.950   6.461   5.210 -0.9116 -0.1488  0.3519
  716MOL0     C96585   1.944   6.319   5.180 -0.7039 -0.3634 -0.6856
  716MOL0     C96586   2.089   6.271   5.186 -0.1519 -0.8298  0.6540
  716MOL0     C96587   2.113   6.148   5.081  0.3709 -0.3438  0.5491
  716MOL0     C96588   2.259   6.111   5.075 -0.0380  0.6695  0.5733
  716MOL0     C96589   2.356   6.216   5.026 -0.9771 -0.8810  0.0393
  716MOL0     C96590   2.438   6.297   4.979 -0.0382 -0.2549 -0.0764
  716MOL0     C96591   1.835   6.656   5.149 -0.0827 -0.3009 -0.7094
  716MOL0     C96592   1.717   6.726   5.131  1.3177 -0.3656  0.7327
  716MOL0     H96593   1.153   6.567   5.124  0.0440 -0.8630 -2.0350
  716MOL0     H96594   0.930   6.632   5.040 -0.5442  0.0082 -1.3250
  716MOL0     H96595   0.860   7.055   4.857  0.6305  0.2991 -0.7839
  716MOL0     H96596   0.842   6.966   4.709 -1.0090  2.4116 -0.7665
  716MOL0     H96597   0.633   6.867   4.832  1.8948 -1.5125  5.0901
  716MOL0     H96598   0.637   7.003   4.936  1.7649 -0.1183  0.7105
  716MOL0     H96599   0.643   7.175   4.754  0.0733 -0.1400  1.7376
  716MOL0     H96600   0.655   7.047   4.633 -0.7657 -2.7888  0.3952
  716MOL0     H96601   0.441   6.950   4.706 -1.2400  1.1247  0.4813
  716MOL0     H96602   0.414   7.087   4.820 -1.5047  0.6748 -0.1135
  716MOL0     H96603   0.364   7.227   4.683  1.6318 -0.8976  0.9791
  716MOL0     H96604   0.444   7.166   4.534  1.5013 -1.0416  0.3961
  716MOL0     H96605   0.257   6.989   4.527 -0.3889 -0.7542 -0.5774
  716MOL0     H96606   0.202   7.033   4.683 -2.1013 -1.2707 -0.8011
  716MOL0     H96607   0.115   7.262   4.585  0.8594  3.5902 -2.8319
  716MOL0     H96608   0.197   7.222   4.439 -0.7364 -0.1869  0.4667
  716MOL0     H96609   0.040   7.013   4.441 -1.3652  0.6623 -3.3188
  716MOL0     H96610  -0.011   7.164   4.386  0.5099  1.2049  0.3949
  716MOL0     H96611  -0.015   6.953   4.713 -0.3075 -1.7136 -1.0765
  716MOL0     H96612  -0.395   7.024   4.860  0.2407  1.1293 -0.4449
  716MOL0     H96613  -0.304   6.871   4.812  0.3762 -0.3066  1.3528
  716MOL0     H96614  -0.167   7.064   5.014  1.0397  0.2555 -2.4013
  716MOL0     H96615  -0.132   6.904   4.960 -0.4647 -0.8790 -1.3146
  716MOL0     H96616  -0.345   7.000   5.159 -0.4283  0.7200 -0.7227
  716MOL0     H96617  -0.197   6.901   5.177 -0.8308  0.7583  1.1897
  716MOL0     H96618  -0.367   6.749   5.192  0.3641 -0.6310 -0.0160
  716MOL0     H96619  -0.312   6.717   5.040  1.6951  1.8198 -0.7171
  716MOL0     H96620  -0.738   6.850   4.957 -0.3241  0.4063 -1.1282
  716MOL0     H96621  -1.020   6.762   5.011 -2.2445  1.6854 -4.0605
  716MOL0     H96622  -0.927   6.788   4.876 -0.4229  1.2470 -0.6338
  716MOL0     H96623  -0.997   6.624   4.891  0.4275  1.1440 -0.0873
  716MOL0     H96624  -1.019   6.181   4.928  1.6036  2.7041  0.5550
  716MOL0     H96625  -1.206   6.040   4.953 -0.9424  0.6644  0.4885
  716MOL0     H96626  -1.426   5.973   5.009 -0.4705 -0.0078  1.6940
  716MOL0     H96627  -1.313   5.829   5.009  4.6924  2.8474  2.3552
  716MOL0     H96628  -1.553   5.755   4.996  0.1657  0.7417  0.0698
  716MOL0     H96629  -1.470   5.707   5.139  3.0096  0.5536 -1.4306
  716MOL0     H96630  -1.653   5.946   5.113  1.8167  0.2760  0.0950
  716MOL0     H96631  -1.605   5.867   5.266 -2.5224  2.1619 -0.1942
  716MOL0     H96632  -1.751   5.699   5.063 -1.0023 -1.8511  1.9245
  716MOL0     H96633  -1.765   5.680   5.225  1.2649  1.1405 -0.5502
  716MOL0     H96634  -1.970   5.784   5.114  1.1667 -0.1501 -1.6885
  716MOL0     H96635  -1.885   5.923   5.078  0.7134  1.3541  0.6620
  716MOL0     H96636  -1.911   5.846   5.381 -0.3171  0.7286  0.6641
  716MOL0     H96637  -1.824   5.979   5.313 -0.2821  1.0641 -2.7020
  716MOL0     H96638  -2.117   5.931   5.284  1.5767 -0.6634  0.3536
  716MOL0     H96639  -2.019   6.062   5.197  0.0020 -1.3912 -1.6495
  716MOL0     H96640  -2.159   6.126   5.412 -0.7695 -1.4060  2.7978
  716MOL0     H96641  -1.995   6.174   5.417 -0.3956  1.0297  4.4500
  716MOL0     H96642  -1.187   6.070   5.379  3.2411 -0.6516  1.1659
  716MOL0     H96643  -0.994   6.224   5.355 -5.2665 -1.3144  4.0006
  716MOL0     H96644  -0.693   6.446   5.237  1.0869 -1.9267 -1.2006
  716MOL0     H96645  -0.493   6.594   5.193 -0.4884  0.1430  2.0669
  716MOL0     H96646   1.079   7.008   4.914  0.4801  0.2401  0.4799
  716MOL0     H96647   1.308   6.942   4.990 -1.6608  1.8097  0.6909
  716MOL0     H96648   1.497   6.483   5.224  0.3049  0.8873  2.0019
  716MOL0     H96649   1.693   6.371   5.249 -0.9184  1.3040  1.0867
  716MOL0     H96650   1.886   6.273   5.261 -0.1917  1.0962  0.5603
  716MOL0     H96651   1.900   6.308   5.080 -0.2116  2.6201 -1.3424
  716MOL0     H96652   2.102   6.227   5.286 -2.0684  0.2592  1.4454
  716MOL0     H96653   2.155   6.355   5.166 -2.6448  1.6224  1.9491
  716MOL0     H96654   2.083   6.158   4.976  2.1121  2.3379  0.2287
  716MOL0     H96655   2.054   6.063   5.117 -0.8058  0.5508  0.7928
  716MOL0     H96656   2.267   6.020   5.015 -0.4490 -0.8858  2.7682
  716MOL0     H96657   2.300   6.077   5.170  0.8694 -1.8337 -0.6275
  716MOL0     H96658   2.509   6.359   4.928 -0.6134  2.6217  2.3282
  716MOL0     H96659   1.937   6.687   5.128 -0.9520  1.8257 -2.1024
  716MOL0     H96660   1.731   6.824   5.086  0.6869 -0.8826 -0.6319
  717MOL0     O96661   9.545   0.138   3.614 -0.0031 -0.3222 -0.0644
  717MOL0     C96662   9.578   0.017   3.605  0.5531 -0.0164  0.7758
  717MOL0     O96663   9.487  -0.084   3.593 -0.8775 -0.3524 -0.2456
  717MOL0     C96664   9.357  -0.052   3.607  0.8621 -0.7523  0.7864
  717MOL0     C96665   9.291  -0.011   3.493 -0.1432  0.0818  0.1704
  717MOL0     C96666   9.160   0.031   3.501 -0.7987 -0.8725 -0.2207
  717MOL0     C96667   9.102   0.070   3.623  0.6274  0.4716 -0.3741
  717MOL0     O96668   8.986   0.146   3.638  0.0122  0.2078 -0.4745
  717MOL0     C96669   8.897   0.151   3.526  0.5413 -0.0264  0.4281
  717MOL0     C96670   8.774   0.232   3.549 -0.2565  0.8236  1.1132
  717MOL0     C96671   8.685   0.177   3.660 -0.1563  0.0086  0.2089
  717MOL0     C96672   8.568   0.275   3.699 -0.8164 -0.0167  0.3557
  717MOL0     C96673   8.457   0.196   3.760 -0.4343  0.6963  0.2530
  717MOL0     C96674   8.336   0.277   3.806  0.0991  0.0389 -0.7344
  717MOL0     C96675   8.230   0.180   3.865  0.4025 -0.2745  0.0801
  717MOL0     C96676   8.079   0.231   3.853 -0.5817  0.5026  0.1892
  717MOL0     N96677   7.978   0.127   3.870 -0.0293  0.7369  0.2657
  717MOL0     C96678   7.981   0.034   3.974 -0.1726  0.6239  0.5520
  717MOL0     C96679   7.868  -0.037   3.944 -0.9103  0.7191  0.6710
  717MOL0     C96680   7.813  -0.156   4.009  0.7741 -0.2292 -0.1054
  717MOL0     C96681   7.723  -0.132   4.131 -0.5401  0.2388 -0.5792
  717MOL0     C96682   7.580  -0.111   4.081  0.1479  0.1216 -0.0345
  717MOL0     C96683   7.473  -0.106   4.191  0.2863 -0.4387 -0.6675
  717MOL0     O96684   7.351  -0.088   4.116 -0.3237  0.1250 -0.5677
  717MOL0     C96685   7.240  -0.054   4.192 -0.4887  0.7874  0.4348
  717MOL0     C96686   7.124  -0.131   4.186 -0.1301  0.4909  0.4091
  717MOL0     C96687   7.012  -0.108   4.269  0.4867 -0.3843  0.8714
  717MOL0     C96688   6.903  -0.222   4.279  0.8022 -0.4995 -0.5727
  717MOL0     C96689   7.015   0.017   4.340 -0.4028  0.4254 -0.7293
  717MOL0     C96690   6.906   0.068   4.426 -0.1582 -0.6972 -0.3787
  717MOL0     O96691   6.780   0.043   4.390  0.3164 -0.1482 -0.0701
  717MOL0     C96692   6.682   0.099   4.464 -0.4104 -0.2929  0.4770
  717MOL0     C96693   6.670   0.080   4.605  0.4341  0.1501  0.5221
  717MOL0     C96694   6.559   0.132   4.670  0.2507 -0.6780  0.7755
  717MOL0     C96695   6.457   0.206   4.598 -0.3247  0.5322 -0.0735
  717MOL0     O96696   6.343   0.233   4.673  0.3790  0.6505  0.8878
  717MOL0     C96697   6.229   0.246   4.585  0.8006 -0.3930  0.3552
  717MOL0     C96698   6.096   0.279   4.661 -0.8494  0.2001 -0.3462
  717MOL0     C96699   5.970   0.258   4.581  0.4326 -0.5669 -0.3393
  717MOL0     C96700   5.868   0.344   4.658 -0.0617  0.3032 -0.3105
  717MOL0     C96701   5.729   0.341   4.604  0.2501  0.2064 -0.3131
  717MOL0     C96702   5.643   0.428   4.686 -0.1315  0.0517  0.2621
  717MOL0     C96703   5.494   0.417   4.652  0.5971 -0.6571  0.7580
  717MOL0     C96704   5.400   0.493   4.747 -0.7302  0.2938  0.1169
  717MOL0    Cl96705   5.435   0.671   4.746 -0.3305 -0.3404 -0.2463
  717MOL0     C96706   6.475   0.231   4.460  0.4099  0.2968 -0.4557
  717MOL0     C96707   6.580   0.164   4.399  0.2087  0.1312  1.2086
  717MOL0     O96708   6.946   0.149   4.516 -0.3916  0.4695  0.2964
  717MOL0     C96709   7.122   0.103   4.320  0.4705  0.3057 -0.7262
  717MOL0     C96710   7.233   0.074   4.242 -0.2361  0.5063 -0.4202
  717MOL0     N96711   7.819   0.006   3.821  0.3729  0.7567  0.2164
  717MOL0     N96712   7.883   0.100   3.779  0.8606 -0.4135 -0.1259
  717MOL0     C96713   9.169   0.031   3.735 -0.2547 -0.7152 -0.2808
  717MOL0     C96714   9.291  -0.028   3.734 -0.2129  0.0906 -1.0892
  717MOL0     C96715   9.721  -0.015   3.593 -0.0531 -1.1121 -0.1225
  717MOL0     C96716   9.815   0.075   3.643  0.2713  0.0218  0.9250
  717MOL0     C96717   9.953   0.049   3.625  0.3363 -0.1299 -0.8791
  717MOL0     C96718   9.987  -0.070   3.553  0.1574 -0.1556 -0.0477
  717MOL0     O96719  10.118  -0.091   3.532  0.0592  0.1056  0.5637
  717MOL0     C96720  10.220  -0.045   3.625 -0.0943  0.3448  0.4415
  717MOL0     C96721  10.221  -0.132   3.747  0.1137  0.1707 -0.6364
  717MOL0     C96722  10.220  -0.282   3.717 -0.4544  1.1158 -0.3027
  717MOL0     C96723  10.342  -0.336   3.650 -0.0892 -0.6443  0.1044
  717MOL0     C96724  10.466  -0.301   3.730 -1.1700  0.2867  0.3385
  717MOL0     C96725  10.566  -0.276   3.792 -0.2454 -0.0211 -0.7958
  717MOL0     C96726   9.887  -0.165   3.514  0.1809 -0.0696 -0.3436
  717MOL0     C96727   9.753  -0.140   3.539  0.3489 -0.3079  0.1489
  717MOL0     H96728   9.330  -0.021   3.392  0.2068 -3.6659  0.5576
  717MOL0     H96729   9.112   0.054   3.406 -0.5594  2.0749  0.2765
  717MOL0     H96730   8.953   0.200   3.447  1.6979  2.5953  2.7056
  717MOL0     H96731   8.879   0.046   3.501  1.8401 -0.4833  1.2946
  717MOL0     H96732   8.810   0.333   3.571  3.6953 -0.2920  0.5711
  717MOL0     H96733   8.722   0.243   3.454  1.4705  0.3266  0.0647
  717MOL0     H96734   8.650   0.075   3.639  2.0045 -0.7868  0.2591
  717MOL0     H96735   8.736   0.162   3.756 -0.3643  0.8610  0.4598
  717MOL0     H96736   8.601   0.352   3.769  1.6987 -0.4202 -0.2536
  717MOL0     H96737   8.535   0.323   3.607 -1.3365 -0.2371  0.4275
  717MOL0     H96738   8.432   0.123   3.683 -2.4616  3.6133 -2.1130
  717MOL0     H96739   8.491   0.137   3.845  0.8220  0.9913 -0.0343
  717MOL0     H96740   8.359   0.355   3.878 -1.9264  0.2261 -0.2300
  717MOL0     H96741   8.285   0.322   3.720 -2.9066 -0.6224  0.5706
  717MOL0     H96742   8.229   0.088   3.806 -0.2407  0.6223 -1.3827
  717MOL0     H96743   8.256   0.155   3.968 -0.1855 -0.1398  0.2643
  717MOL0     H96744   8.075   0.272   3.752 -1.0481  3.0609  1.1499
  717MOL0     H96745   8.070   0.315   3.923  0.5206  2.5152 -1.9551
  717MOL0     H96746   8.055   0.019   4.052 -1.5295  3.5239  2.5872
  717MOL0     H96747   7.751  -0.209   3.936 -1.3724  0.8555  0.8564
  717MOL0     H96748   7.899  -0.215   4.043  0.5332 -0.4907  0.0535
  717MOL0     H96749   7.756  -0.043   4.185 -0.7367  1.0439 -1.7619
  717MOL0     H96750   7.741  -0.220   4.194 -1.7854 -1.1129 -2.0123
  717MOL0     H96751   7.561  -0.193   4.012  0.8696  0.6678 -0.9070
  717MOL0     H96752   7.570  -0.023   4.016 -4.1345 -0.8937 -1.0751
  717MOL0     H96753   7.493  -0.026   4.263 -2.8181 -0.8532  0.8328
  717MOL0     H96754   7.466  -0.200   4.246  1.7915  0.2806  0.8201
  717MOL0     H96755   7.121  -0.229   4.140  1.2941 -0.0863  1.4513
  717MOL0     H96756   6.949  -0.320   4.266  0.0760 -0.7877 -1.0651
  717MOL0     H96757   6.863  -0.231   4.380  1.2391 -3.2623 -0.5701
  717MOL0     H96758   6.813  -0.218   4.216 -1.0701 -1.1515  1.9100
  717MOL0     H96759   6.752   0.030   4.656  0.1748 -0.9991 -0.1645
  717MOL0     H96760   6.530   0.106   4.771  0.4336 -1.4184  0.6440
  717MOL0     H96761   6.234   0.325   4.509  0.9441  1.0730  1.8331
  717MOL0     H96762   6.215   0.153   4.529 -1.6102  0.1116 -0.0260
  717MOL0     H96763   6.096   0.216   4.750  1.1618 -0.9235 -1.0687
  717MOL0     H96764   6.112   0.383   4.691  0.7130  0.1550 -0.9392
  717MOL0     H96765   5.943   0.152   4.584 -0.7797 -0.2533  0.9212
  717MOL0     H96766   5.985   0.294   4.479 -0.0340 -1.8669 -0.8954
  717MOL0     H96767   5.852   0.310   4.760  1.7121  0.0274 -0.0868
  717MOL0     H96768   5.895   0.450   4.658  1.3283 -0.0300  0.4485
  717MOL0     H96769   5.680   0.244   4.609 -0.8254  0.7399 -0.3013
  717MOL0     H96770   5.722   0.366   4.498  0.7028 -0.2015 -0.4419
  717MOL0     H96771   5.651   0.408   4.794 -0.3837 -1.4802  0.0216
  717MOL0     H96772   5.688   0.527   4.676  1.5639 -0.6619  0.4858
  717MOL0     H96773   5.467   0.311   4.643 -0.6075 -0.2190 -1.4396
  717MOL0     H96774   5.472   0.450   4.550 -1.0127  1.7410  1.7883
  717MOL0     H96775   5.409   0.460   4.851  0.5776  0.9039  0.2247
  717MOL0     H96776   5.302   0.463   4.710  0.9150 -2.9319 -2.1884
  717MOL0     H96777   6.407   0.289   4.399 -1.2068  2.2232  2.8801
  717MOL0     H96778   6.584   0.175   4.291  0.6333 -2.1473  0.9448
  717MOL0     H96779   7.112   0.206   4.353  3.0625  0.8741 -1.5096
  717MOL0     H96780   7.316   0.141   4.219 -0.2762  0.5235 -0.5167
  717MOL0     H96781   9.110   0.043   3.825  1.3106 -0.0238  0.7025
  717MOL0     H96782   9.349  -0.059   3.820 -2.0656 -0.3196  0.0660
  717MOL0     H96783   9.787   0.157   3.709  0.2656 -0.4148  1.4660
  717MOL0     H96784  10.023   0.122   3.666 -0.7416  0.8003 -0.6581
  717MOL0     H96785  10.313  -0.055   3.568 -1.0879  3.6896 -2.1104
  717MOL0     H96786  10.216   0.061   3.651 -1.7594  0.7005 -1.0755
  717MOL0     H96787  10.134  -0.105   3.808  1.9188  3.3001  0.8211
  717MOL0     H96788  10.305  -0.109   3.814 -0.6016 -1.7508  1.0367
  717MOL0     H96789  10.130  -0.300   3.658 -0.3596  1.5081 -0.5674
  717MOL0     H96790  10.214  -0.339   3.810 -0.2756  0.4266 -0.7062
  717MOL0     H96791  10.348  -0.291   3.550 -2.6930 -0.1185  0.1180
  717MOL0     H96792  10.342  -0.445   3.639  1.0762 -0.6167 -0.2671
  717MOL0     H96793  10.650  -0.247   3.852  0.0985 -0.1982 -1.1876
  717MOL0     H96794   9.909  -0.256   3.458  0.0674  0.5026 -1.3409
  717MOL0     H96795   9.679  -0.216   3.516 -2.4824  2.3572 -0.1597
  718MOL0     O96796   7.661   1.903   1.168  1.4675 -0.6097 -0.3178
  718MOL0     C96797   7.762   1.848   1.198 -0.6832 -0.1258 -0.1929
  718MOL0     O96798   7.807   1.831   1.325 -0.7706 -0.3544 -0.3506
  718MOL0     C96799   7.761   1.916   1.425  0.8826 -0.3390  0.0954
  718MOL0     C96800   7.634   1.977   1.446  0.8063 -0.5961  0.2127
  718MOL0     C96801   7.612   2.083   1.541  0.0582  0.4114  0.5164
  718MOL0     C96802   7.723   2.127   1.616 -0.2534 -0.3163  0.2112
  718MOL0     O96803   7.698   2.233   1.696 -0.7807  0.1080 -0.1660
  718MOL0     C96804   7.806   2.309   1.748  0.7373 -0.3447  0.3152
  718MOL0     C96805   7.754   2.390   1.868  0.2789  0.8282 -0.3354
  718MOL0     C96806   7.701   2.289   1.984 -0.1397  0.9624 -0.1964
  718MOL0     C96807   7.703   2.356   2.122  0.3383  0.0144  0.5766
  718MOL0     C96808   7.593   2.306   2.206 -0.1646  1.2454 -0.4064
  718MOL0     C96809   7.610   2.145   2.226  0.0290 -1.6635 -0.3832
  718MOL0     C96810   7.493   2.092   2.311  0.4620  0.7133  0.9124
  718MOL0     C96811   7.484   2.148   2.452 -0.0962 -0.1238 -0.0302
  718MOL0     N96812   7.367   2.100   2.519 -0.1553  0.4406  0.5032
  718MOL0     C96813   7.327   1.972   2.529  0.8715  0.2171  0.3899
  718MOL0     C96814   7.213   1.971   2.601  0.0634  0.1446  0.3701
  718MOL0     C96815   7.144   1.842   2.649  0.6866 -0.1608  0.5924
  718MOL0     C96816   7.076   1.765   2.529 -0.3584 -0.6630  0.2034
  718MOL0     C96817   6.944   1.848   2.488 -0.4014 -0.1880  0.1866
  718MOL0     C96818   6.870   1.761   2.380 -0.0982  0.3690 -1.2292
  718MOL0     O96819   6.768   1.843   2.309 -0.1566  0.3585  0.0989
  718MOL0     C96820   6.641   1.861   2.368  0.0388  0.1120 -0.1876
  718MOL0     C96821   6.542   1.931   2.302  0.0881  0.6813  0.7380
  718MOL0     C96822   6.415   1.951   2.356 -0.8427 -0.7475 -0.0983
  718MOL0     C96823   6.320   2.015   2.261  0.2415 -0.4452  0.1191
  718MOL0     C96824   6.384   1.901   2.485 -0.0863  0.6126  0.5479
  718MOL0     C96825   6.249   1.919   2.545 -1.1180 -0.4335 -0.1559
  718MOL0     O96826   6.233   1.833   2.644  1.5033 -0.1099 -0.0817
  718MOL0     C96827   6.114   1.821   2.715 -0.4171  0.4766  0.3775
  718MOL0     C96828   6.117   1.806   2.852 -0.1998 -0.6887 -0.2876
  718MOL0     C96829   6.002   1.788   2.934 -0.4336 -0.5735  0.2085
  718MOL0     C96830   5.877   1.792   2.877  0.7185 -0.5922  0.7673
  718MOL0     O96831   5.763   1.785   2.949 -0.1552 -0.0991  0.2492
  718MOL0     C96832   5.753   1.697   3.056  0.4576 -0.1240  0.4024
  718MOL0     C96833   5.611   1.700   3.108  0.5421 -0.3110 -0.3393
  718MOL0     C96834   5.586   1.828   3.190  0.8273  0.1786 -0.3959
  718MOL0     C96835   5.434   1.840   3.225 -0.2103  0.2242  0.7676
  718MOL0     C96836   5.430   1.939   3.345 -0.8929  0.0900  0.6165
  718MOL0     C96837   5.453   2.081   3.305  0.2633 -0.6565  0.9682
  718MOL0     C96838   5.460   2.180   3.422  0.2848 -1.0143 -0.2699
  718MOL0     C96839   5.462   2.320   3.366 -0.5521  0.9362 -0.3261
  718MOL0    Cl96840   5.442   2.428   3.512  0.4183  0.0352 -0.0748
  718MOL0     C96841   5.867   1.813   2.738 -0.0502 -0.0854  0.8062
  718MOL0     C96842   5.986   1.827   2.654 -0.0720  0.7796 -0.5188
  718MOL0     O96843   6.177   2.014   2.508  0.6993 -0.1437 -0.3642
  718MOL0     C96844   6.484   1.833   2.552 -0.0801  0.1521 -0.2680
  718MOL0     C96845   6.606   1.800   2.494  0.0791 -0.0636 -0.2226
  718MOL0     N96846   7.186   2.104   2.637  0.1881  0.0592 -0.4464
  718MOL0     N96847   7.277   2.175   2.586  0.4499  0.4439  0.6042
  718MOL0     C96848   7.848   2.059   1.601  1.1414 -0.0638 -1.2303
  718MOL0     C96849   7.867   1.947   1.513  0.3652  1.1430 -0.2380
  718MOL0     C96850   7.847   1.782   1.099  1.2328  0.7049 -0.4878
  718MOL0     C96851   7.802   1.766   0.962  0.0423 -0.1941 -0.3266
  718MOL0     C96852   7.876   1.698   0.868  0.1962 -0.0549 -0.1539
  718MOL0     C96853   7.996   1.630   0.909 -0.2770 -0.3762 -0.3743
  718MOL0     O96854   8.046   1.551   0.814 -1.0101  0.0089  0.0364
  718MOL0     C96855   8.173   1.489   0.851 -0.5314 -0.4240  0.6725
  718MOL0     C96856   8.236   1.427   0.721  0.5370 -0.2237 -0.6068
  718MOL0     C96857   8.327   1.302   0.758 -0.9844 -0.3378  0.8478
  718MOL0     C96858   8.389   1.233   0.630 -0.4714  0.4678  0.4856
  718MOL0     C96859   8.467   1.338   0.561 -0.0257 -0.2946  0.0110
  718MOL0     C96860   8.518   1.424   0.488 -0.0764 -0.1851  0.1885
  718MOL0     C96861   8.048   1.651   1.040 -0.0268 -0.0553  0.1579
  718MOL0     C96862   7.970   1.731   1.129  0.1715  0.2795 -0.2985
  718MOL0     H96863   7.554   1.931   1.389  1.3987  0.4032 -1.5092
  718MOL0     H96864   7.514   2.129   1.554 -1.1101 -0.8710 -2.7726
  718MOL0     H96865   7.885   2.242   1.782 -0.0754 -1.8221 -0.5982
  718MOL0     H96866   7.848   2.370   1.667  0.9050 -0.3467  0.4001
  718MOL0     H96867   7.846   2.439   1.901  1.6720 -0.9865 -1.3087
  718MOL0     H96868   7.674   2.463   1.853  1.1178  2.1463  1.2397
  718MOL0     H96869   7.599   2.262   1.956  0.1377  1.1067 -1.4165
  718MOL0     H96870   7.758   2.196   1.987  0.3281  1.2684  0.4945
  718MOL0     H96871   7.800   2.320   2.158  2.3889  3.1229 -1.3654
  718MOL0     H96872   7.704   2.464   2.105  0.8048  0.1963  1.6741
  718MOL0     H96873   7.601   2.354   2.304  1.3756 -0.1296  0.1952
  718MOL0     H96874   7.496   2.334   2.166 -0.5788  2.1479  1.1741
  718MOL0     H96875   7.607   2.105   2.125 -2.2956  1.0383 -1.5275
  718MOL0     H96876   7.704   2.120   2.277  0.1962  3.8000  2.7084
  718MOL0     H96877   7.402   2.109   2.253  1.3298 -0.5296 -0.9291
  718MOL0     H96878   7.516   1.986   2.319  1.8127  1.0050  1.2465
  718MOL0     H96879   7.478   2.257   2.450  1.1989 -0.0333  0.1646
  718MOL0     H96880   7.573   2.127   2.511  0.9266 -1.8294 -2.0733
  718MOL0     H96881   7.357   1.884   2.473 -1.2302  0.4890 -1.3157
  718MOL0     H96882   7.219   1.776   2.694 -0.3927 -0.6237  1.7697
  718MOL0     H96883   7.084   1.864   2.738  1.7507  3.5714  0.6043
  718MOL0     H96884   7.047   1.665   2.562  1.5177 -0.3497  3.2273
  718MOL0     H96885   7.150   1.759   2.449 -0.5830 -0.4702 -0.0215
  718MOL0     H96886   6.978   1.944   2.447 -0.2968  0.8291  2.4959
  718MOL0     H96887   6.879   1.868   2.574 -0.7875  1.7845 -0.5181
  718MOL0     H96888   6.816   1.674   2.419  0.4545  0.0882 -1.0909
  718MOL0     H96889   6.946   1.730   2.309  1.7501  0.1811  0.7119
  718MOL0     H96890   6.574   1.963   2.203  2.0433 -0.4858  0.9375
  718MOL0     H96891   6.235   1.946   2.267  2.0523 -3.1236 -2.0538
  718MOL0     H96892   6.295   2.113   2.301  4.2502  0.5169  0.6821
  718MOL0     H96893   6.366   2.019   2.161  5.8656 -2.7436  2.2248
  718MOL0     H96894   6.217   1.802   2.894 -1.0911  0.5393  2.1023
  718MOL0     H96895   6.002   1.773   3.041 -0.3040 -0.1892  0.2633
  718MOL0     H96896   5.788   1.598   3.025 -0.7860  0.0427 -1.7013
  718MOL0     H96897   5.827   1.724   3.132 -0.3254  3.2135  0.1324
  718MOL0     H96898   5.524   1.696   3.041 -1.2352 -1.7224  1.8723
  718MOL0     H96899   5.601   1.609   3.168 -1.2967  0.0962  0.0388
  718MOL0     H96900   5.607   1.917   3.129 -0.8392  0.6765 -0.2859
  718MOL0     H96901   5.643   1.824   3.283  1.8323  0.1872 -0.9994
  718MOL0     H96902   5.376   1.878   3.140  2.5235  2.1656 -0.3835
  718MOL0     H96903   5.409   1.739   3.259 -0.1791  0.6965  2.2781
  718MOL0     H96904   5.505   1.903   3.416  0.6844 -0.3600 -1.2214
  718MOL0     H96905   5.331   1.932   3.392 -0.4567 -1.5925  1.3372
  718MOL0     H96906   5.541   2.079   3.241  0.8785  0.2232  1.7758
  718MOL0     H96907   5.367   2.119   3.249 -2.0594 -0.9819  4.0301
  718MOL0     H96908   5.538   2.156   3.494 -0.7899 -1.8267  0.6643
  718MOL0     H96909   5.368   2.184   3.482  0.3190  2.1882 -0.2660
  718MOL0     H96910   5.374   2.330   3.302  0.6921 -1.3624 -2.5588
  718MOL0     H96911   5.559   2.337   3.318  1.1756  2.1406  3.2505
  718MOL0     H96912   5.771   1.824   2.689 -1.0708 -0.6360  2.5996
  718MOL0     H96913   5.988   1.831   2.546  0.4363 -0.8077 -0.5939
  718MOL0     H96914   6.479   1.793   2.653 -0.6525 -0.7820 -0.6525
  718MOL0     H96915   6.681   1.741   2.545 -2.1116 -2.9826 -0.0983
  718MOL0     H96916   7.929   2.083   1.669 -1.4402  1.4895  1.5437
  718MOL0     H96917   7.963   1.897   1.517  0.5736  1.6346  2.2871
  718MOL0     H96918   7.702   1.800   0.937 -0.3878 -0.8095  0.5167
  718MOL0     H96919   7.829   1.679   0.772 -1.4483 -1.7425  0.9238
  718MOL0     H96920   8.238   1.567   0.892 -1.8737  1.1404 -0.0764
  718MOL0     H96921   8.148   1.406   0.918  1.4254 -2.1239 -0.5981
  718MOL0     H96922   8.300   1.503   0.676 -3.0525  2.9156 -0.8148
  718MOL0     H96923   8.150   1.392   0.664 -1.3716  0.3314  1.7444
  718MOL0     H96924   8.290   1.227   0.828  1.6315 -1.2727  1.3619
  718MOL0     H96925   8.412   1.347   0.812  0.3123 -0.3794 -1.0587
  718MOL0     H96926   8.321   1.186   0.559  0.1126  2.3132 -1.3830
  718MOL0     H96927   8.459   1.153   0.656  0.0543  1.1524  1.2294
  718MOL0     H96928   8.556   1.496   0.418  1.5607 -1.9430 -0.8299
  718MOL0     H96929   8.138   1.601   1.074 -0.4721 -1.0597 -0.0979
  718MOL0     H96930   8.002   1.735   1.233 -0.8471 -2.5356  0.2287
  719MOL0     O96931   0.386   4.514   2.368 -0.3677  0.1255  0.1863
  719MOL0     C96932   0.467   4.604   2.337 -0.6767 -0.0758 -0.5181
  719MOL0     O96933   0.433   4.711   2.249  0.5997  0.5418  0.2611
  719MOL0     C96934   0.303   4.712   2.198 -0.6225  0.3598  0.1632
  719MOL0     C96935   0.295   4.725   2.059 -0.1288 -0.3369 -0.4975
  719MOL0     C96936   0.170   4.707   2.006  0.8268  0.7271 -0.4853
  719MOL0     C96937   0.057   4.689   2.089  0.7730  0.1181  0.1752
  719MOL0     O96938  -0.070   4.678   2.040 -0.2015  0.8149  0.2670
  719MOL0     C96939  -0.073   4.641   1.906  0.3775  0.1459 -0.1342
  719MOL0     C96940  -0.196   4.568   1.871 -0.0547  0.4365  1.3074
  719MOL0     C96941  -0.190   4.432   1.929  0.0447  0.2261  0.3320
  719MOL0     C96942  -0.288   4.330   1.879  0.0574  0.6748  0.7689
  719MOL0     C96943  -0.262   4.187   1.937  0.0893 -0.3014 -0.3109
  719MOL0     C96944  -0.156   4.114   1.858 -0.2582  1.0932 -0.0239
  719MOL0     C96945  -0.109   3.977   1.904 -0.0030 -0.8458  0.0269
  719MOL0     C96946  -0.212   3.872   1.946  0.1364  0.4192  0.4481
  719MOL0     N96947  -0.269   3.814   1.817 -0.3528 -0.2766 -0.0375
  719MOL0     C96948  -0.402   3.800   1.795 -0.2957 -0.3170 -0.1666
  719MOL0     C96949  -0.408   3.765   1.665 -0.0105 -0.8365 -0.9934
  719MOL0     C96950  -0.524   3.771   1.580  0.0055  0.5035  0.1771
  719MOL0     C96951  -0.620   3.662   1.585  0.3662 -0.2756  0.0911
  719MOL0     C96952  -0.558   3.537   1.528  0.2698 -0.8434  0.2606
  719MOL0     C96953  -0.649   3.415   1.515  0.4688 -0.0464 -0.5062
  719MOL0     O96954  -0.714   3.379   1.639 -0.0671 -0.3402 -0.7538
  719MOL0     C96955  -0.841   3.323   1.642 -0.1397  0.8355  0.1319
  719MOL0     C96956  -0.917   3.332   1.758  0.3663  0.4969 -0.8717
  719MOL0     C96957  -1.050   3.280   1.765 -0.3883  0.0636 -0.1817
  719MOL0     C96958  -1.122   3.289   1.898  0.1097 -0.6101 -0.5352
  719MOL0     C96959  -1.106   3.231   1.649  0.0453  0.5397  0.2156
  719MOL0     C96960  -1.246   3.186   1.640  0.6291  0.2515 -0.0822
  719MOL0     O96961  -1.289   3.137   1.517 -0.8999 -0.2945  0.4129
  719MOL0     C96962  -1.420   3.110   1.508 -1.1976 -0.1882  0.5001
  719MOL0     C96963  -1.476   3.002   1.577  0.1350 -0.2583  0.4967
  719MOL0     C96964  -1.610   2.984   1.589  0.2435 -1.6305  0.1295
  719MOL0     C96965  -1.697   3.071   1.520  0.5104  0.1685 -0.0550
  719MOL0     O96966  -1.827   3.060   1.545 -0.0017  0.2939 -0.3433
  719MOL0     C96967  -1.914   3.052   1.433  0.3856 -0.2946 -0.3098
  719MOL0     C96968  -2.063   3.030   1.486  0.7409 -0.5556 -0.7109
  719MOL0     C96969  -2.168   3.039   1.371 -0.1691 -1.0756 -0.2452
  719MOL0     C96970  -2.208   2.903   1.318 -0.3410  0.2252 -0.4116
  719MOL0     C96971  -2.286   2.890   1.179  0.1004 -0.7497  0.2866
  719MOL0     C96972  -2.227   2.977   1.058 -0.8996 -0.3855 -0.5978
  719MOL0     C96973  -2.297   2.947   0.924  0.5324  0.1745  0.7314
  719MOL0     C96974  -2.260   3.030   0.803  0.4721 -0.6469  0.1689
  719MOL0    Cl96975  -2.097   2.978   0.727 -0.0852  0.0626  0.3268
  719MOL0     C96976  -1.643   3.178   1.449 -0.4153 -0.1919 -0.2906
  719MOL0     C96977  -1.505   3.201   1.448  0.4138  0.2538  0.1164
  719MOL0     O96978  -1.317   3.194   1.739  0.5064  0.0939  0.2378
  719MOL0     C96979  -1.033   3.217   1.531 -1.0357  0.0353  0.3435
  719MOL0     C96980  -0.894   3.261   1.528 -0.5954  0.8270 -0.9574
  719MOL0     N96981  -0.279   3.743   1.619  0.7460  0.1644  0.1355
  719MOL0     N96982  -0.198   3.778   1.709 -0.2750  0.6309 -0.8067
  719MOL0     C96983   0.061   4.691   2.226  0.3488  0.0087  0.3931
  719MOL0     C96984   0.187   4.711   2.284 -0.2225  0.1880 -0.1507
  719MOL0     C96985   0.603   4.599   2.399 -0.1698 -0.0925  0.5130
  719MOL0     C96986   0.688   4.714   2.403  0.4924  0.9937  0.5467
  719MOL0     C96987   0.816   4.714   2.457 -0.5624 -0.0513 -0.0569
  719MOL0     C96988   0.861   4.594   2.520 -0.5279 -0.1571  0.6189
  719MOL0     O96989   0.985   4.584   2.588  0.7488 -0.2425  0.7094
  719MOL0     C96990   1.041   4.696   2.653  0.8635 -0.3277  0.8947
  719MOL0     C96991   1.132   4.651   2.765  0.2388  0.3275 -0.1516
  719MOL0     C96992   1.167   4.756   2.861 -0.0231 -0.0627  0.7732
  719MOL0     C96993   1.231   4.875   2.792 -0.5540 -0.3245 -0.1827
  719MOL0     C96994   1.356   4.835   2.717  0.1127  0.3179 -0.7392
  719MOL0     C96995   1.445   4.799   2.646  0.0151  0.5189 -1.3476
  719MOL0     C96996   0.788   4.480   2.516  0.2185  0.2023 -0.2808
  719MOL0     C96997   0.660   4.482   2.455  0.9505  0.2479 -0.4923
  719MOL0     H96998   0.380   4.743   1.993 -0.2001 -3.0101 -1.4187
  719MOL0     H96999   0.147   4.721   1.901  1.1159 -4.6158 -1.5162
  719MOL0     H97000  -0.073   4.729   1.840  0.1070  0.5226  0.3635
  719MOL0     H97001   0.015   4.587   1.870 -0.7387 -1.2580 -0.8990
  719MOL0     H97002  -0.285   4.624   1.901  0.7457  1.7927  1.2406
  719MOL0     H97003  -0.190   4.559   1.762 -0.5635  1.7926  1.1494
  719MOL0     H97004  -0.094   4.385   1.910  0.2525 -0.4965  2.8139
  719MOL0     H97005  -0.203   4.441   2.038  0.6535 -0.4510  0.4686
  719MOL0     H97006  -0.389   4.355   1.911 -0.6620  1.1039 -1.6221
  719MOL0     H97007  -0.278   4.326   1.770 -1.6945 -1.5309  0.6187
  719MOL0     H97008  -0.234   4.199   2.042  2.0766  1.3745 -0.9442
  719MOL0     H97009  -0.352   4.126   1.926 -0.5316  0.5223  0.0896
  719MOL0     H97010  -0.185   4.095   1.755 -0.8687  0.8911  0.1788
  719MOL0     H97011  -0.063   4.171   1.847  0.5158 -0.6111 -3.4646
  719MOL0     H97012  -0.034   3.938   1.834  0.0347  0.3139 -0.6035
  719MOL0     H97013  -0.046   3.995   1.992  0.0951 -1.4253  0.0798
  719MOL0     H97014  -0.292   3.903   2.014 -1.9439 -1.3983 -1.0179
  719MOL0     H97015  -0.165   3.789   1.999 -1.8387 -0.2379  1.2600
  719MOL0     H97016  -0.488   3.829   1.855 -0.8501  1.4848 -1.7388
  719MOL0     H97017  -0.575   3.863   1.611  1.8233  0.8668  2.3792
  719MOL0     H97018  -0.491   3.780   1.476  0.5177  0.1759  0.3066
  719MOL0     H97019  -0.699   3.698   1.519  1.2552 -1.8358 -1.9117
  719MOL0     H97020  -0.649   3.650   1.690  1.2569 -1.9457  0.1819
  719MOL0     H97021  -0.470   3.501   1.582 -0.0312 -2.4108 -0.2449
  719MOL0     H97022  -0.507   3.563   1.435  0.5059  0.3605  0.7011
  719MOL0     H97023  -0.604   3.328   1.467 -0.6030 -0.4176 -0.8766
  719MOL0     H97024  -0.729   3.446   1.447 -0.4836 -4.1600 -1.5177
  719MOL0     H97025  -0.863   3.369   1.844  0.4614 -2.8456  0.6789
  719MOL0     H97026  -1.183   3.380   1.898 -1.0958 -1.3357  2.2274
  719MOL0     H97027  -1.173   3.194   1.913 -0.4616 -0.5769 -2.1311
  719MOL0     H97028  -1.050   3.298   1.980  0.5324 -0.4933 -0.9115
  719MOL0     H97029  -1.402   2.939   1.625  0.8874 -0.3956 -0.7854
  719MOL0     H97030  -1.653   2.902   1.646  0.5649 -0.9615  1.3791
  719MOL0     H97031  -1.908   3.152   1.389  0.4478 -0.0271  0.2882
  719MOL0     H97032  -1.885   2.976   1.361  0.4477 -1.9243  1.3752
  719MOL0     H97033  -2.080   2.941   1.548 -0.7621  0.0774 -0.1819
  719MOL0     H97034  -2.090   3.120   1.541  1.8942 -0.0773 -0.9061
  719MOL0     H97035  -2.142   3.099   1.283 -0.3164  0.1888  0.5438
  719MOL0     H97036  -2.253   3.084   1.423  0.5502 -0.7284  0.6704
  719MOL0     H97037  -2.118   2.842   1.302  0.1442  0.3071  1.7118
  719MOL0     H97038  -2.268   2.856   1.396  1.6634 -1.6715  0.1035
  719MOL0     H97039  -2.393   2.911   1.183  0.4318  0.9391  0.9225
  719MOL0     H97040  -2.274   2.784   1.153  3.4318 -0.5265  0.4584
  719MOL0     H97041  -2.240   3.085   1.069 -0.3078 -0.3738  0.0346
  719MOL0     H97042  -2.118   2.964   1.052 -0.4595  2.6493 -0.7581
  719MOL0     H97043  -2.405   2.956   0.941  0.1982 -2.3127  0.3419
  719MOL0     H97044  -2.282   2.839   0.914  0.6987  0.1675  1.0510
  719MOL0     H97045  -2.262   3.138   0.815 -1.8082 -0.3658 -1.8553
  719MOL0     H97046  -2.341   3.008   0.733 -0.2333 -0.7396  0.9964
  719MOL0     H97047  -1.704   3.260   1.413  0.0903  0.2224 -0.2173
  719MOL0     H97048  -1.463   3.293   1.408  2.8173 -0.1113  1.5812
  719MOL0     H97049  -1.077   3.170   1.443  2.1548  0.9760 -1.9696
  719MOL0     H97050  -0.830   3.256   1.440 -0.0131 -0.6743 -0.4910
  719MOL0     H97051  -0.024   4.657   2.285 -2.1673  0.0083 -2.9791
  719MOL0     H97052   0.204   4.711   2.391 -1.2106 -1.1248  0.0294
  719MOL0     H97053   0.654   4.804   2.351  4.5016  1.9257 -0.7882
  719MOL0     H97054   0.877   4.804   2.462  0.7293 -0.8035 -1.3249
  719MOL0     H97055   1.102   4.739   2.574 -0.0782 -0.6154 -0.0055
  719MOL0     H97056   0.968   4.767   2.693  0.4304  0.3356 -1.0078
  719MOL0     H97057   1.230   4.614   2.733 -0.5644 -2.3881  0.2323
  719MOL0     H97058   1.076   4.571   2.816  1.5449 -1.0234 -0.7639
  719MOL0     H97059   1.235   4.716   2.937  4.6628  0.0754 -2.9156
  719MOL0     H97060   1.072   4.781   2.909 -0.6734 -0.4092 -0.3063
  719MOL0     H97061   1.247   4.956   2.865  0.1668  0.3365 -1.0480
  719MOL0     H97062   1.163   4.913   2.716 -0.5507 -1.1562 -0.6087
  719MOL0     H97063   1.523   4.747   2.593  1.7864 -3.2562  4.0933
  719MOL0     H97064   0.823   4.383   2.552  0.3772  0.4535  0.2418
  719MOL0     H97065   0.601   4.391   2.456 -0.3649  1.0210  2.0862
  720MOL0     O97066   6.649   3.078  10.206 -0.1849 -0.6780 -0.0800
  720MOL0     C97067   6.735   2.986  10.210 -0.7099  0.2178  1.2318
  720MOL0     O97068   6.706   2.852  10.195 -0.1188 -0.2587 -0.1710
  720MOL0     C97069   6.583   2.801  10.168 -0.3230 -0.3122  0.5623
  720MOL0     C97070   6.548   2.680  10.223  0.2024 -0.2919  0.5687
  720MOL0     C97071   6.425   2.620  10.182  0.9336  1.1186 -0.2298
  720MOL0     C97072   6.330   2.678  10.090  0.5539 -0.0389  0.1173
  720MOL0     O97073   6.216   2.624  10.048 -0.4834  0.5941 -0.0267
  720MOL0     C97074   6.205   2.483  10.056 -0.1116 -0.1760 -0.0911
  720MOL0     C97075   6.072   2.439   9.988  0.0096 -0.0493  0.1610
  720MOL0     C97076   5.944   2.495  10.055 -1.1352  0.4083  0.7774
  720MOL0     C97077   5.830   2.506   9.949 -0.0700 -0.1503 -0.2878
  720MOL0     C97078   5.702   2.566  10.025 -0.1267  0.2195  0.5189
  720MOL0     C97079   5.673   2.706   9.970  0.8127 -0.3280 -0.0479
  720MOL0     C97080   5.540   2.761  10.029 -0.1148  0.1077  0.3891
  720MOL0     C97081   5.418   2.716   9.955  0.7646  0.0764  0.0986
  720MOL0     N97082   5.295   2.781  10.002 -0.5210  0.5628  0.2353
  720MOL0     C97083   5.243   2.888   9.931 -0.4205  0.2829  0.0476
  720MOL0     C97084   5.120   2.896   9.975 -0.0295  0.3196 -0.2562
  720MOL0     C97085   5.015   2.990   9.929 -0.8380  0.3879  0.5239
  720MOL0     C97086   4.921   2.935   9.824 -0.2931  0.3022 -0.2828
  720MOL0     C97087   4.849   2.798   9.843 -0.0656 -0.9578  0.1510
  720MOL0     C97088   4.723   2.795   9.942  0.0502  0.1257  0.9133
  720MOL0     O97089   4.617   2.848   9.869  0.8144  0.6526 -0.3398
  720MOL0     C97090   4.495   2.845   9.938  0.0889  0.3624 -0.0674
  720MOL0     C97091   4.470   2.798  10.071  0.0388 -0.4884 -1.3600
  720MOL0     C97092   4.337   2.771  10.116  0.1597  0.0994 -0.7321
  720MOL0     C97093   4.338   2.702  10.256 -0.6235  0.2422  0.3077
  720MOL0     C97094   4.230   2.814  10.042 -0.7274 -0.0829 -0.3001
  720MOL0     C97095   4.082   2.809  10.088 -0.4390 -0.6656  0.0005
  720MOL0     O97096   4.006   2.872   9.996  0.3316  0.3538 -0.3957
  720MOL0     C97097   3.892   2.926  10.048 -0.4094  0.0239  1.0802
  720MOL0     C97098   3.889   3.036  10.131 -0.3080 -0.8049 -0.7427
  720MOL0     C97099   3.762   3.073  10.186  0.4733  0.2418 -1.0219
  720MOL0     C97100   3.645   2.996  10.164  0.2839 -0.1529  0.1213
  720MOL0     O97101   3.528   3.035  10.220  0.1292  0.7938 -0.0146
  720MOL0     C97102   3.475   2.936  10.314  0.1747  0.2801  0.7908
  720MOL0     C97103   3.424   3.019  10.431  0.0299 -0.2762 -0.0940
  720MOL0     C97104   3.283   2.977  10.480  0.0441 -0.5402  0.2079
  720MOL0     C97105   3.176   3.018  10.372 -0.1097  0.3549 -0.2004
  720MOL0     C97106   3.035   2.985  10.422 -0.9009  0.2200 -0.1003
  720MOL0     C97107   2.993   3.080  10.536 -0.7225 -0.2089 -0.5049
  720MOL0     C97108   2.839   3.088  10.557 -0.0469 -0.2484  0.1356
  720MOL0     C97109   2.803   3.023  10.689 -0.2172  0.1540 -0.5146
  720MOL0    Cl97110   2.624   3.005  10.684 -0.2005 -0.3871  0.1344
  720MOL0     C97111   3.646   2.887  10.080 -0.0654  0.7668  0.4270
  720MOL0     C97112   3.765   2.861  10.016  0.8519  0.4756 -0.5245
  720MOL0     O97113   4.049   2.763  10.199 -0.1513  0.1505 -0.6040
  720MOL0     C97114   4.261   2.881   9.921  0.1150  0.3159 -0.2608
  720MOL0     C97115   4.386   2.895   9.873  0.3515 -1.2856  0.0975
  720MOL0     N97116   5.107   2.815  10.083 -0.2523 -0.2629 -0.1570
  720MOL0     N97117   5.218   2.749  10.107  0.1224 -0.0942 -0.0347
  720MOL0     C97118   6.376   2.795  10.035  0.0942  0.0201 -0.2769
  720MOL0     C97119   6.494   2.867  10.069 -0.8445 -0.1025  0.2105
  720MOL0     C97120   6.878   3.016  10.204 -0.3891 -0.4613  0.8461
  720MOL0     C97121   6.932   3.146  10.222 -0.6145 -1.1857 -0.1206
  720MOL0     C97122   7.069   3.180  10.201  0.3973 -0.2031 -0.2686
  720MOL0     C97123   7.156   3.083  10.162 -0.5310 -0.2906 -0.2297
  720MOL0     O97124   7.290   3.111  10.159 -0.9851  0.8009 -0.1669
  720MOL0     C97125   7.339   3.248  10.150  0.0554 -0.0602  0.6399
  720MOL0     C97126   7.492   3.249  10.129  0.9272 -0.0989  0.2879
  720MOL0     C97127   7.563   3.210  10.253 -0.1524 -0.0283 -0.3911
  720MOL0     C97128   7.714   3.251  10.254  0.0961 -0.4317  0.0555
  720MOL0     C97129   7.787   3.162  10.165  0.0445  0.3955 -1.2019
  720MOL0     C97130   7.854   3.081  10.113 -0.3133  0.6292 -0.4727
  720MOL0     C97131   7.106   2.952  10.133  0.4341 -0.9089  0.2143
  720MOL0     C97132   6.969   2.922  10.146 -0.4697 -0.0364 -0.2962
  720MOL0     H97133   6.611   2.636  10.300 -2.5567  1.1060  3.9142
  720MOL0     H97134   6.391   2.525  10.224  0.8833  0.2147 -2.1772
  720MOL0     H97135   6.290   2.435  10.006  0.6299  0.1303  0.8528
  720MOL0     H97136   6.205   2.457  10.162 -0.7805 -0.9499 -0.2663
  720MOL0     H97137   6.074   2.461   9.881  2.9787 -1.3218 -0.1450
  720MOL0     H97138   6.073   2.329   9.984  1.3533 -0.0831 -4.5697
  720MOL0     H97139   5.916   2.437  10.143 -1.5676 -0.3369  0.1562
  720MOL0     H97140   5.964   2.594  10.098 -1.8553  0.9277 -0.0683
  720MOL0     H97141   5.849   2.578   9.868 -1.9051  0.2579 -0.4074
  720MOL0     H97142   5.808   2.406   9.911  0.4311 -0.2376 -0.3579
  720MOL0     H97143   5.617   2.500  10.004 -0.3693  0.1747  1.5421
  720MOL0     H97144   5.724   2.572  10.132 -1.9497  2.2607  0.8583
  720MOL0     H97145   5.752   2.770  10.012 -0.4410  1.8641 -0.8575
  720MOL0     H97146   5.665   2.704   9.861  1.3563  1.4538 -0.1538
  720MOL0     H97147   5.529   2.726  10.132  0.1762  0.2771  0.4762
  720MOL0     H97148   5.543   2.870  10.033  0.4427  0.2911 -2.7092
  720MOL0     H97149   5.405   2.608   9.942  0.8071  0.0254  0.4665
  720MOL0     H97150   5.440   2.748   9.852 -2.1896 -1.2783 -1.0736
  720MOL0     H97151   5.284   2.945   9.849  1.0062 -0.7294  0.0283
  720MOL0     H97152   4.959   3.029  10.015  0.1651  1.0597  0.8983
  720MOL0     H97153   5.067   3.076   9.885 -1.8196  1.0651  0.6410
  720MOL0     H97154   4.979   2.933   9.730  0.0234  3.8974 -0.3139
  720MOL0     H97155   4.848   3.016   9.811  0.6057  0.9478 -1.6508
  720MOL0     H97156   4.925   2.721   9.860  1.0510 -0.4428 -2.0949
  720MOL0     H97157   4.812   2.775   9.742  2.5596 -0.8844 -0.9135
  720MOL0     H97158   4.750   2.859  10.027 -0.7892  0.4397  0.9531
  720MOL0     H97159   4.708   2.693   9.979 -2.0318  0.6867  1.7522
  720MOL0     H97160   4.558   2.776  10.131 -0.2088 -1.2544 -1.2693
  720MOL0     H97161   4.239   2.687  10.301 -1.1862  0.9526 -0.6564
  720MOL0     H97162   4.366   2.601  10.224 -2.2527  0.0077 -0.4702
  720MOL0     H97163   4.402   2.740  10.336 -1.3506  0.6669  0.6966
  720MOL0     H97164   3.977   3.096  10.149 -0.7149 -0.8478  1.7851
  720MOL0     H97165   3.764   3.166  10.241 -0.7725 -0.4462  0.2591
  720MOL0     H97166   3.403   2.868  10.267 -0.9209 -0.8725  3.8811
  720MOL0     H97167   3.557   2.872  10.348 -0.4962 -1.3401 -0.5014
  720MOL0     H97168   3.489   3.011  10.519 -0.1207  1.9628  0.2805
  720MOL0     H97169   3.422   3.127  10.412  2.1528  0.6953  3.9243
  720MOL0     H97170   3.259   3.041  10.566  2.2054 -1.7346  1.7819
  720MOL0     H97171   3.272   2.873  10.512 -3.8202 -0.7343 -1.2091
  720MOL0     H97172   3.186   3.122  10.340 -0.3366  0.1591 -0.9339
  720MOL0     H97173   3.196   2.957  10.283 -1.5234 -0.2655 -0.1277
  720MOL0     H97174   3.026   2.882  10.457 -0.4437 -0.1321 -0.9959
  720MOL0     H97175   2.962   2.998  10.341 -1.7044  4.2991  1.0415
  720MOL0     H97176   3.032   3.051  10.634 -3.0047  0.2101  0.5913
  720MOL0     H97177   3.034   3.180  10.518 -2.5514  0.2931 -2.1917
  720MOL0     H97178   2.793   3.046  10.467  1.1613 -1.5421  0.0844
  720MOL0     H97179   2.810   3.193  10.570 -0.7311 -0.3754 -0.3249
  720MOL0     H97180   2.846   3.091  10.763 -0.6285  0.7313 -0.7978
  720MOL0     H97181   2.857   2.929  10.708 -1.1606 -0.2801  0.1059
  720MOL0     H97182   3.556   2.829  10.067  0.8185 -0.3468 -0.9244
  720MOL0     H97183   3.774   2.777   9.947 -2.1271  0.1905 -0.6685
  720MOL0     H97184   4.186   2.934   9.864 -2.0074  0.2937  2.3132
  720MOL0     H97185   4.406   2.941   9.777  0.5383 -3.2205 -0.8486
  720MOL0     H97186   6.305   2.846   9.970  1.0169 -0.0356 -1.3524
  720MOL0     H97187   6.522   2.958  10.017  1.6903 -1.0120 -0.1517
  720MOL0     H97188   6.871   3.228  10.256 -1.2125 -2.0969  1.0602
  720MOL0     H97189   7.086   3.287  10.203 -1.4386  0.1151  0.1317
  720MOL0     H97190   7.297   3.301  10.064 -1.2123  0.9662  1.8413
  720MOL0     H97191   7.305   3.306  10.237 -3.0755 -0.9275  0.0950
  720MOL0     H97192   7.523   3.351  10.107  0.9449 -0.0626  0.4874
  720MOL0     H97193   7.525   3.187  10.045 -1.2347  2.0232 -2.3403
  720MOL0     H97194   7.546   3.106  10.280 -1.0184  0.3158  0.4634
  720MOL0     H97195   7.520   3.261  10.340 -0.4643  0.8171 -1.0252
  720MOL0     H97196   7.750   3.242  10.357  0.0873  1.8158  0.3181
  720MOL0     H97197   7.739   3.355  10.229  0.8361 -1.0935 -2.0690
  720MOL0     H97198   7.923   3.013  10.067 -0.4424 -0.2204  0.5495
  720MOL0     H97199   7.162   2.864  10.102  0.7672 -0.4608 -0.4710
  720MOL0     H97200   6.948   2.821  10.112  1.1081 -0.2292 -0.7979
  721MOL0     O97201   6.637   5.840   8.453 -0.0294 -0.0917  0.3679
  721MOL0     C97202   6.619   5.955   8.406  0.4956 -0.3017 -0.3313
  721MOL0     O97203   6.506   6.003   8.348  1.2515  0.0274  0.4999
  721MOL0     C97204   6.412   5.921   8.297  0.6346 -0.9249 -0.6870
  721MOL0     C97205   6.376   5.931   8.160 -0.8988 -0.7372 -0.6568
  721MOL0     C97206   6.277   5.851   8.116 -0.7166 -0.6234  0.1863
  721MOL0     C97207   6.212   5.758   8.199 -0.7560  0.4224  0.5562
  721MOL0     O97208   6.110   5.669   8.162 -0.7161  0.0780 -0.5795
  721MOL0     C97209   6.099   5.629   8.030 -0.4112  0.1394  0.3253
  721MOL0     C97210   5.986   5.530   7.998  0.5217  0.5190 -0.0001
  721MOL0     C97211   5.964   5.509   7.848  0.8514  0.2058  0.0059
  721MOL0     C97212   5.834   5.429   7.818 -0.5543  0.1417 -0.2153
  721MOL0     C97213   5.712   5.508   7.847 -0.1103  0.2535  0.4309
  721MOL0     C97214   5.591   5.420   7.803  0.5519 -0.3943  1.3541
  721MOL0     C97215   5.486   5.517   7.748  0.2960 -1.1871  0.1665
  721MOL0     C97216   5.423   5.603   7.857 -0.7507 -0.4952  0.0227
  721MOL0     N97217   5.276   5.621   7.832 -0.3546  0.1601  0.6835
  721MOL0     C97218   5.219   5.662   7.707 -0.2160 -0.1082 -0.5638
  721MOL0     C97219   5.084   5.652   7.719  0.2693  1.3077  0.0909
  721MOL0     C97220   4.983   5.712   7.620  0.6541  1.0274 -1.1693
  721MOL0     C97221   4.854   5.626   7.639 -0.7188 -0.1659  0.1833
  721MOL0     C97222   4.776   5.709   7.740  0.4702 -0.3317 -0.6228
  721MOL0     C97223   4.636   5.629   7.760 -0.4787 -0.0328 -0.4760
  721MOL0     O97224   4.576   5.702   7.865  0.1531 -0.6688  0.4763
  721MOL0     C97225   4.440   5.703   7.857 -1.0802  0.6601 -0.0775
  721MOL0     C97226   4.358   5.604   7.809  0.5194  0.2907  0.4345
  721MOL0     C97227   4.218   5.620   7.802  1.2012  0.0694 -0.4521
  721MOL0     C97228   4.139   5.507   7.750  0.4677  0.4628  0.0006
  721MOL0     C97229   4.154   5.744   7.851 -0.3186  0.3869  0.4366
  721MOL0     C97230   4.016   5.788   7.855 -0.1761  0.4639  0.4906
  721MOL0     O97231   3.934   5.745   7.758  0.0151 -0.2570  0.5126
  721MOL0     C97232   3.802   5.755   7.758  0.3830  0.0249 -0.3022
  721MOL0     C97233   3.750   5.728   7.634 -0.1989 -0.0669  0.2175
  721MOL0     C97234   3.606   5.723   7.618 -0.3368  0.2007 -0.0111
  721MOL0     C97235   3.521   5.757   7.727  0.5486  0.6111  0.2238
  721MOL0     O97236   3.384   5.741   7.723 -0.5075 -0.3773  0.3797
  721MOL0     C97237   3.323   5.760   7.589 -0.4280  0.5626  1.3701
  721MOL0     C97238   3.200   5.853   7.598 -0.2963  0.2295 -0.7955
  721MOL0     C97239   3.229   5.988   7.651 -0.5948 -0.7559 -0.5365
  721MOL0     C97240   3.202   6.006   7.809 -0.1402  0.9265  0.5113
  721MOL0     C97241   3.250   6.152   7.839  0.0488 -0.0010 -0.8785
  721MOL0     C97242   3.225   6.171   7.996  0.0308  0.4135 -0.1214
  721MOL0     C97243   3.248   6.323   8.041  0.4867 -0.3998  0.1928
  721MOL0     C97244   3.212   6.354   8.188  0.3058  0.8431 -0.8376
  721MOL0    Cl97245   3.036   6.366   8.204  0.3092  0.0117 -0.1263
  721MOL0     C97246   3.574   5.779   7.856 -1.2458 -0.6466  0.8127
  721MOL0     C97247   3.717   5.772   7.874  1.1414 -0.1260 -0.7501
  721MOL0     O97248   3.989   5.868   7.943 -0.1201 -0.3156  0.3807
  721MOL0     C97249   4.254   5.839   7.904  0.2840 -0.5780 -0.1602
  721MOL0     C97250   4.392   5.819   7.910  0.4701  0.0973 -0.3470
  721MOL0     N97251   5.068   5.585   7.845  0.7874  0.0260  0.3640
  721MOL0     N97252   5.181   5.570   7.909 -0.5445 -0.4340  0.6783
  721MOL0     C97253   6.247   5.748   8.335  0.6062  0.2590  0.1125
  721MOL0     C97254   6.349   5.833   8.386 -0.1843 -0.7261  0.1144
  721MOL0     C97255   6.730   6.049   8.420  1.3308  0.5146 -0.4577
  721MOL0     C97256   6.718   6.175   8.365 -0.3321  0.5352 -0.0937
  721MOL0     C97257   6.830   6.264   8.381  0.4599 -0.5978 -0.1549
  721MOL0     C97258   6.950   6.233   8.443  0.5087 -0.4645 -0.2049
  721MOL0     O97259   7.054   6.313   8.477 -0.2310  0.2211  0.4826
  721MOL0     C97260   7.021   6.453   8.490 -0.0109  0.2962 -0.3063
  721MOL0     C97261   7.141   6.527   8.540  0.1162  0.3836  0.5723
  721MOL0     C97262   7.179   6.472   8.677 -0.9507  0.6528  0.1520
  721MOL0     C97263   7.267   6.578   8.748  0.1525 -0.4458 -0.0272
  721MOL0     C97264   7.259   6.572   8.894 -0.8909  0.1386 -0.3679
  721MOL0     C97265   7.288   6.552   9.014  0.8222 -0.2500  0.0480
  721MOL0     C97266   6.958   6.104   8.491  0.5372 -0.3472 -0.1662
  721MOL0     C97267   6.843   6.013   8.490  0.2125  0.6659  0.7862
  721MOL0     H97268   6.428   5.997   8.092  1.2749 -1.8778 -0.2047
  721MOL0     H97269   6.262   5.860   8.009 -0.3633 -0.5515  0.1421
  721MOL0     H97270   6.092   5.713   7.960  0.4824  1.9878  2.3142
  721MOL0     H97271   6.196   5.588   8.000 -1.5518 -0.6319 -2.6113
  721MOL0     H97272   6.002   5.437   8.053 -0.5155  0.5094  0.3178
  721MOL0     H97273   5.899   5.575   8.049 -0.1380 -2.5777  1.8580
  721MOL0     H97274   5.944   5.607   7.804 -1.2333  0.1163  0.6639
  721MOL0     H97275   6.053   5.462   7.805  1.6933  0.8094  1.0350
  721MOL0     H97276   5.841   5.406   7.711 -1.5635  1.5429 -0.6101
  721MOL0     H97277   5.820   5.340   7.880 -1.3735 -0.2096 -0.8796
  721MOL0     H97278   5.697   5.529   7.953  0.4011  0.0316  0.5491
  721MOL0     H97279   5.718   5.597   7.783  0.4879 -0.7966 -1.0399
  721MOL0     H97280   5.630   5.363   7.718  2.1579  2.8925 -0.2833
  721MOL0     H97281   5.553   5.353   7.881  1.1695  0.7759  2.6966
  721MOL0     H97282   5.530   5.569   7.663 -0.6543 -0.8864 -0.1574
  721MOL0     H97283   5.411   5.451   7.701 -0.5620 -1.9681  2.5083
  721MOL0     H97284   5.456   5.702   7.890 -0.4429 -0.9834  1.2327
  721MOL0     H97285   5.438   5.540   7.945  1.3077 -1.6965 -1.1423
  721MOL0     H97286   5.274   5.684   7.615  0.1547 -1.2895 -0.6443
  721MOL0     H97287   4.967   5.817   7.643 -2.7199  0.3362  0.2523
  721MOL0     H97288   5.021   5.720   7.517  1.5062  1.7502 -0.8095
  721MOL0     H97289   4.879   5.527   7.677  1.0712 -0.4371 -1.5058
  721MOL0     H97290   4.797   5.608   7.547  0.0490 -1.3510 -0.0806
  721MOL0     H97291   4.749   5.804   7.694 -2.3685 -0.3695  0.7662
  721MOL0     H97292   4.832   5.720   7.834  0.2892 -3.9176  0.0483
  721MOL0     H97293   4.644   5.524   7.788 -2.7231 -0.5213 -1.4385
  721MOL0     H97294   4.583   5.640   7.665  0.6720  2.6328 -0.9047
  721MOL0     H97295   4.398   5.511   7.770 -1.0921 -1.0188  1.7333
  721MOL0     H97296   4.100   5.439   7.826 -1.6724  0.0932 -1.3462
  721MOL0     H97297   4.050   5.540   7.695 -0.5867  0.5269  1.6713
  721MOL0     H97298   4.190   5.431   7.690  1.2712  0.6063  0.4948
  721MOL0     H97299   3.809   5.695   7.550  1.5448 -2.0681  2.0943
  721MOL0     H97300   3.559   5.688   7.527  1.3697  0.8691 -1.1804
  721MOL0     H97301   3.390   5.803   7.514 -2.0500  1.1795  0.2269
  721MOL0     H97302   3.277   5.672   7.542 -0.5482  1.9676 -1.3222
  721MOL0     H97303   3.171   5.871   7.494  0.2587  0.0707 -0.9848
  721MOL0     H97304   3.107   5.818   7.644 -0.3844  0.6061 -0.6851
  721MOL0     H97305   3.160   6.050   7.594  1.2131  0.0009 -2.0089
  721MOL0     H97306   3.337   6.005   7.642 -0.6701  0.1005  0.0791
  721MOL0     H97307   3.095   5.993   7.828  0.2069 -0.1819  1.8613
  721MOL0     H97308   3.269   5.941   7.866  4.2451  2.1441 -2.6579
  721MOL0     H97309   3.182   6.230   7.802 -1.0140  0.8448  2.4565
  721MOL0     H97310   3.355   6.169   7.818 -0.0450  0.3027 -1.1123
  721MOL0     H97311   3.124   6.135   8.019  0.1879  1.2539  2.1553
  721MOL0     H97312   3.298   6.112   8.051 -1.3212 -0.8825  0.3271
  721MOL0     H97313   3.188   6.385   7.974  0.5549  1.9120  2.1301
  721MOL0     H97314   3.353   6.352   8.029 -0.0352  1.8029  0.4767
  721MOL0     H97315   3.248   6.450   8.227  1.5635 -0.6022  1.8667
  721MOL0     H97316   3.246   6.282   8.263 -0.5379  1.9067  0.6426
  721MOL0     H97317   3.513   5.808   7.941 -0.2665  3.8413  0.2724
  721MOL0     H97318   3.755   5.798   7.972  0.8922  3.3770 -1.4733
  721MOL0     H97319   4.221   5.940   7.928  0.0724 -1.0981  1.8849
  721MOL0     H97320   4.450   5.896   7.960 -0.0691 -1.2640  2.5689
  721MOL0     H97321   6.195   5.691   8.411  0.9663 -0.6708 -0.3185
  721MOL0     H97322   6.379   5.839   8.490  1.1239  0.5522 -0.2974
  721MOL0     H97323   6.637   6.205   8.300  0.7290  0.9778 -1.2605
  721MOL0     H97324   6.818   6.364   8.342  3.8073  0.3787  1.0016
  721MOL0     H97325   6.990   6.498   8.395 -0.6136  0.0741 -0.2183
  721MOL0     H97326   6.940   6.468   8.562  1.0396  1.5767  0.6636
  721MOL0     H97327   7.110   6.632   8.537 -1.4188 -0.0105 -3.7236
  721MOL0     H97328   7.230   6.524   8.478 -1.9624  0.4285 -2.6296
  721MOL0     H97329   7.234   6.378   8.677  0.0273  1.2003  0.4818
  721MOL0     H97330   7.092   6.460   8.742 -0.7162 -0.3589  0.2946
  721MOL0     H97331   7.222   6.675   8.724  2.1388  0.8498  1.2346
  721MOL0     H97332   7.373   6.579   8.723 -0.3237  1.6975 -2.3109
  721MOL0     H97333   7.315   6.521   9.113 -0.2757 -1.7901 -0.0976
  721MOL0     H97334   7.056   6.074   8.528  0.2518  0.8431  1.6870
  721MOL0     H97335   6.867   5.915   8.529  0.4677  0.5457  0.3283
  722MOL0     O97336   3.765   0.023   9.099 -0.2919  0.3585  0.1280
  722MOL0     C97337   3.806   0.113   9.023  0.6694  0.1866 -0.5545
  722MOL0     O97338   3.727   0.169   8.922  0.1344  0.5471 -0.3741
  722MOL0     C97339   3.607   0.108   8.890 -0.0656  0.6164  0.6100
  722MOL0     C97340   3.494   0.154   8.954 -0.2336 -0.6882 -0.9362
  722MOL0     C97341   3.370   0.098   8.923  0.1183 -0.0849 -0.4949
  722MOL0     C97342   3.356  -0.013   8.831 -0.5351 -0.0593  0.3674
  722MOL0     O97343   3.240  -0.080   8.808  0.4647  0.4330  0.4523
  722MOL0     C97344   3.168  -0.113   8.923  0.5389  0.2648  0.5259
  722MOL0     C97345   3.038  -0.044   8.939 -0.2641  1.1405 -0.0210
  722MOL0     C97346   2.920  -0.064   8.845  0.4171  0.8998 -0.2591
  722MOL0     C97347   2.816   0.047   8.844  0.3836 -0.1765 -0.3381
  722MOL0     C97348   2.676   0.016   8.778  0.3710  0.6148 -0.3501
  722MOL0     C97349   2.606  -0.108   8.841 -0.2437  0.9070 -0.1047
  722MOL0     C97350   2.456  -0.128   8.788  0.5171  0.1967 -0.8464
  722MOL0     C97351   2.396  -0.272   8.837 -0.5408 -0.0518 -0.1653
  722MOL0     N97352   2.268  -0.312   8.776 -0.9931  0.7312 -0.2682
  722MOL0     C97353   2.176  -0.379   8.852 -1.1130 -0.7647 -0.5342
  722MOL0     C97354   2.058  -0.369   8.788 -0.3702 -0.8111  1.1005
  722MOL0     C97355   1.933  -0.447   8.832 -0.1040 -0.2326 -0.6649
  722MOL0     C97356   1.804  -0.367   8.825 -0.5027  0.2877  0.0477
  722MOL0     C97357   1.684  -0.459   8.853  0.8285 -0.6126  0.3670
  722MOL0     C97358   1.547  -0.383   8.866 -0.5537 -0.0720 -0.3474
  722MOL0     O97359   1.459  -0.494   8.888  0.5510 -0.1620  0.3966
  722MOL0     C97360   1.328  -0.472   8.907  0.1655  0.5080 -0.9113
  722MOL0     C97361   1.264  -0.358   8.891 -0.0615 -0.6574 -0.4194
  722MOL0     C97362   1.126  -0.343   8.891  0.1773 -0.4935 -0.9477
  722MOL0     C97363   1.074  -0.205   8.865  0.6290  0.5577  0.3264
  722MOL0     C97364   1.043  -0.459   8.897 -0.6677  0.2896 -0.0602
  722MOL0     C97365   0.891  -0.462   8.907 -0.1971  0.5524  0.9150
  722MOL0     O97366   0.844  -0.574   8.968  1.1223  0.1700 -0.5422
  722MOL0     C97367   0.714  -0.579   9.001 -0.5219 -0.1850  0.2835
  722MOL0     C97368   0.682  -0.554   9.135  0.1611 -0.2504 -0.1759
  722MOL0     C97369   0.549  -0.569   9.170 -0.3447  0.0126  0.6347
  722MOL0     C97370   0.448  -0.612   9.085  0.3836 -0.6671 -0.6783
  722MOL0     O97371   0.324  -0.618   9.128  0.2573  0.7332  0.3225
  722MOL0     C97372   0.220  -0.678   9.052 -0.0319  0.2897 -0.3604
  722MOL0     C97373   0.088  -0.670   9.130  0.3298 -0.0092  0.5262
  722MOL0     C97374  -0.029  -0.751   9.063 -0.2246  0.9262  0.4790
  722MOL0     C97375  -0.167  -0.710   9.121  0.3768  0.9121  0.3648
  722MOL0     C97376  -0.292  -0.751   9.039  0.4529  0.8052  0.1653
  722MOL0     C97377  -0.420  -0.700   9.108  0.0108 -0.1290  0.6532
  722MOL0     C97378  -0.536  -0.763   9.029 -0.3242 -0.3659 -0.3383
  722MOL0     C97379  -0.658  -0.721   9.102  0.4765 -0.4979 -0.8663
  722MOL0    Cl97380  -0.784  -0.804   9.008 -0.4996 -0.1375  0.1517
  722MOL0     C97381   0.496  -0.644   8.956 -0.8777  0.4821 -0.4356
  722MOL0     C97382   0.630  -0.637   8.917  0.9784 -0.8028  0.5446
  722MOL0     O97383   0.832  -0.354   8.884 -0.3110  0.4035  0.1032
  722MOL0     C97384   1.113  -0.583   8.911  0.6758  0.5688 -0.1758
  722MOL0     C97385   1.253  -0.588   8.917 -0.0833  1.1586 -0.3311
  722MOL0     N97386   2.079  -0.303   8.667 -0.6632 -0.0085 -0.0675
  722MOL0     N97387   2.207  -0.273   8.658 -0.4274  0.7450  0.7955
  722MOL0     C97388   3.473  -0.051   8.759  0.0226 -0.0352  0.2088
  722MOL0     C97389   3.594   0.007   8.792 -0.4977 -0.4344 -0.2060
  722MOL0     C97390   3.939   0.166   9.052  0.1306 -0.1925  0.0664
  722MOL0     C97391   3.994   0.271   8.970  0.3731  0.4425  0.2014
  722MOL0     C97392   4.113   0.332   9.011 -0.4122 -0.1036 -0.3732
  722MOL0     C97393   4.172   0.308   9.133 -0.2948 -0.0145 -0.0326
  722MOL0     O97394   4.289   0.377   9.184  0.2630 -0.0643 -0.2673
  722MOL0     C97395   4.321   0.497   9.110 -0.5199  0.4027 -0.9974
  722MOL0     C97396   4.425   0.568   9.192  0.1917  0.5439 -0.3703
  722MOL0     C97397   4.384   0.605   9.339 -0.2060  0.2926  0.5388
  722MOL0     C97398   4.512   0.621   9.433  0.2305 -0.2591 -0.5647
  722MOL0     C97399   4.607   0.709   9.369 -0.9112 -0.6335 -0.1204
  722MOL0     C97400   4.693   0.771   9.308  0.1618 -0.6102  0.2525
  722MOL0     C97401   4.119   0.198   9.206 -1.3520 -0.7477 -0.2980
  722MOL0     C97402   4.007   0.129   9.170 -0.6386  0.0268 -0.1786
  722MOL0     H97403   3.506   0.230   9.031  1.7365  0.3732 -2.2000
  722MOL0     H97404   3.289   0.129   8.988 -0.3490 -1.4718 -0.3806
  722MOL0     H97405   3.143  -0.219   8.912  3.7963 -0.3989 -2.0321
  722MOL0     H97406   3.231  -0.108   9.012  3.5702 -2.4176 -1.2386
  722MOL0     H97407   3.004  -0.067   9.040 -3.2164  0.3687 -1.0947
  722MOL0     H97408   3.055   0.064   8.934  1.2221  0.9022 -0.6758
  722MOL0     H97409   2.950  -0.069   8.740  0.5729 -0.0142 -0.1798
  722MOL0     H97410   2.872  -0.155   8.883 -2.2770  3.0502  1.8720
  722MOL0     H97411   2.786   0.086   8.941 -1.1683  0.4565 -1.0263
  722MOL0     H97412   2.864   0.133   8.797 -0.3128 -0.6978 -2.1286
  722MOL0     H97413   2.617   0.107   8.793 -0.6963 -0.2553  0.9126
  722MOL0     H97414   2.688  -0.008   8.672  3.7931 -0.7338  0.2084
  722MOL0     H97415   2.669  -0.195   8.819  1.2779  1.1761  2.7325
  722MOL0     H97416   2.593  -0.115   8.949 -1.3493 -0.7114 -0.2973
  722MOL0     H97417   2.397  -0.048   8.833  0.4070 -0.7975  0.8619
  722MOL0     H97418   2.450  -0.135   8.679 -2.6963  1.0364 -0.8027
  722MOL0     H97419   2.394  -0.270   8.946  1.1334 -1.2159 -0.0611
  722MOL0     H97420   2.464  -0.351   8.804 -0.3020  0.0936 -0.0218
  722MOL0     H97421   2.208  -0.429   8.943 -0.2291  2.8281  1.3076
  722MOL0     H97422   1.933  -0.541   8.776  1.0052  0.5646 -2.0708
  722MOL0     H97423   1.947  -0.474   8.937 -0.4212  1.3850 -0.1875
  722MOL0     H97424   1.791  -0.336   8.721 -1.8993  0.1098  0.1512
  722MOL0     H97425   1.810  -0.283   8.895 -1.4112  0.7311 -0.3910
  722MOL0     H97426   1.699  -0.511   8.948 -1.3817 -0.1719  1.0099
  722MOL0     H97427   1.665  -0.531   8.773 -2.5863  0.7687 -0.2322
  722MOL0     H97428   1.513  -0.338   8.773 -1.1413 -1.4600 -0.8407
  722MOL0     H97429   1.544  -0.312   8.949 -0.6022 -1.0291  0.4892
  722MOL0     H97430   1.316  -0.264   8.871 -2.0981  0.4760 -0.7203
  722MOL0     H97431   1.019  -0.205   8.770 -0.6815  1.7482  1.0437
  722MOL0     H97432   1.008  -0.181   8.949  0.5422 -0.4390  0.5515
  722MOL0     H97433   1.149  -0.125   8.864 -0.9904  2.3619  4.0006
  722MOL0     H97434   0.754  -0.517   9.208 -1.0537  3.6024 -0.6954
  722MOL0     H97435   0.521  -0.558   9.275 -1.6702  1.0418  0.2009
  722MOL0     H97436   0.206  -0.629   8.955 -0.7476  0.8403  0.0125
  722MOL0     H97437   0.238  -0.785   9.037 -1.9556 -0.5409  2.4634
  722MOL0     H97438   0.098  -0.705   9.233  1.6538  2.4569  1.3197
  722MOL0     H97439   0.076  -0.561   9.125  1.1096  0.0514 -0.6535
  722MOL0     H97440  -0.012  -0.859   9.064 -0.3920  0.7554 -2.8876
  722MOL0     H97441  -0.027  -0.721   8.957  3.3161  0.6560  0.3697
  722MOL0     H97442  -0.173  -0.759   9.218 -0.5111 -0.9552 -0.5795
  722MOL0     H97443  -0.180  -0.602   9.133  0.2287  0.9059  0.2752
  722MOL0     H97444  -0.291  -0.860   9.035  0.0189  0.8046  0.0580
  722MOL0     H97445  -0.291  -0.715   8.936 -0.0861  0.3969  0.0115
  722MOL0     H97446  -0.421  -0.736   9.211 -1.1581 -3.0098 -0.2623
  722MOL0     H97447  -0.417  -0.591   9.093 -0.8394 -0.1929 -0.0374
  722MOL0     H97448  -0.532  -0.872   9.032 -0.2580 -0.6001 -4.1321
  722MOL0     H97449  -0.538  -0.718   8.929 -2.0773  0.7992  0.1862
  722MOL0     H97450  -0.657  -0.611   9.110  2.1511 -0.6066  2.8729
  722MOL0     H97451  -0.663  -0.765   9.202 -0.0539  2.0301  0.3080
  722MOL0     H97452   0.420  -0.690   8.893 -1.5343 -0.7805  1.1799
  722MOL0     H97453   0.659  -0.676   8.819  1.1898 -2.1818  1.1335
  722MOL0     H97454   1.069  -0.681   8.895 -1.1665  0.2760  4.8212
  722MOL0     H97455   1.304  -0.683   8.923  3.2352  2.8660  1.4423
  722MOL0     H97456   3.475  -0.128   8.683  2.1127  0.9571 -0.8267
  722MOL0     H97457   3.686  -0.002   8.734 -1.2010  0.0966 -1.4485
  722MOL0     H97458   3.963   0.295   8.869 -2.1591 -0.9683  0.5664
  722MOL0     H97459   4.147   0.409   8.942 -0.4709 -0.9220 -1.3426
  722MOL0     H97460   4.367   0.466   9.016  0.4560  0.5725 -0.5784
  722MOL0     H97461   4.234   0.562   9.094 -0.6540  0.2463 -0.9075
  722MOL0     H97462   4.457   0.654   9.133 -0.8034  0.6797 -0.7354
  722MOL0     H97463   4.505   0.494   9.190 -0.6881 -0.4481 -1.9637
  722MOL0     H97464   4.317   0.532   9.384 -0.8795  0.2730 -0.4825
  722MOL0     H97465   4.317   0.692   9.335  1.0741  1.3518  1.1174
  722MOL0     H97466   4.548   0.525   9.472 -2.2390 -0.3496  1.8312
  722MOL0     H97467   4.495   0.668   9.531 -1.9161 -2.2888  0.1154
  722MOL0     H97468   4.754   0.833   9.246  1.6990 -0.3716  1.9070
  722MOL0     H97469   4.148   0.180   9.309 -1.4681  0.6673 -0.0066
  722MOL0     H97470   3.955   0.063   9.239  1.2546  1.6708  3.0548
  723MOL0     O97471   8.218   5.525   9.903  0.1185 -0.0111  0.4777
  723MOL0     C97472   8.236   5.403   9.883  0.4907 -0.8695  0.7411
  723MOL0     O97473   8.147   5.301   9.905 -0.0019 -0.4282  0.0987
  723MOL0     C97474   8.018   5.331   9.928 -0.3906  0.2673 -0.2128
  723MOL0     C97475   7.935   5.415   9.854 -0.2052  0.1988  0.0183
  723MOL0     C97476   7.796   5.420   9.880  0.3284  0.4815  0.0154
  723MOL0     C97477   7.738   5.331   9.974 -0.3534 -1.0914  0.4450
  723MOL0     O97478   7.599   5.334   9.999 -0.2629  0.0564  0.1518
  723MOL0     C97479   7.514   5.368   9.889  0.3847 -0.4892  0.2171
  723MOL0     C97480   7.391   5.284   9.907  0.0742  0.3750  1.3106
  723MOL0     C97481   7.286   5.312   9.800  0.6352  0.7356  0.9600
  723MOL0     C97482   7.157   5.225   9.815 -0.5744 -0.4758  0.7055
  723MOL0     C97483   7.061   5.267   9.702 -0.0317  0.6749  0.0647
  723MOL0     C97484   6.942   5.175   9.699  0.3193  0.1644 -0.6360
  723MOL0     C97485   6.858   5.208   9.576  0.1378  0.0051 -0.1452
  723MOL0     C97486   6.784   5.343   9.577 -0.1739 -0.1499  0.2337
  723MOL0     N97487   6.674   5.331   9.677 -0.1715  0.8561  0.4733
  723MOL0     C97488   6.645   5.429   9.773  0.9460 -0.0970  0.1112
  723MOL0     C97489   6.505   5.425   9.792 -0.4726 -1.0152  0.1387
  723MOL0     C97490   6.433   5.538   9.866 -0.3110  0.1962  0.1543
  723MOL0     C97491   6.391   5.651   9.774 -0.1142 -0.0043 -0.2363
  723MOL0     C97492   6.497   5.757   9.748  0.5880  0.4108 -0.1626
  723MOL0     C97493   6.552   5.829   9.866  0.0279 -0.4213  0.3002
  723MOL0     O97494   6.445   5.894   9.937 -0.3668  0.0500 -0.3901
  723MOL0     C97495   6.498   5.975  10.036  0.0336  1.3654  0.7032
  723MOL0     C97496   6.451   5.963  10.164  0.8213 -1.2535 -0.1562
  723MOL0     C97497   6.480   6.056  10.267 -0.0653 -0.7498  0.2985
  723MOL0     C97498   6.423   6.029  10.403 -0.0190  0.0487  0.1132
  723MOL0     C97499   6.569   6.164  10.236 -0.3363  0.3192 -1.2589
  723MOL0     C97500   6.616   6.267  10.332  0.5735 -0.0484  0.5065
  723MOL0     O97501   6.666   6.386  10.282 -0.0561  0.3476  0.4914
  723MOL0     C97502   6.686   6.496  10.363 -0.4819 -0.5241 -0.4177
  723MOL0     C97503   6.599   6.540  10.457  0.2463 -0.8016  0.1550
  723MOL0     C97504   6.614   6.660  10.527 -0.3711 -0.2999  1.0117
  723MOL0     C97505   6.732   6.732  10.522  0.8333  0.4821  0.1272
  723MOL0     O97506   6.766   6.847  10.595 -0.3072  0.0069  0.0797
  723MOL0     C97507   6.667   6.928  10.662  0.3476 -0.4842 -0.1183
  723MOL0     C97508   6.737   7.058  10.703  0.1365 -0.9099  0.2967
  723MOL0     C97509   6.826   7.029  10.818 -0.6111 -0.1732  0.7229
  723MOL0     C97510   6.862   7.160  10.888  0.6137  0.2762 -0.7264
  723MOL0     C97511   6.952   7.117  11.005  0.5584  0.6995 -0.1063
  723MOL0     C97512   7.012   7.239  11.078  0.1987  0.2217 -0.9240
  723MOL0     C97513   7.121   7.201  11.176  0.1219 -0.2635 -0.2574
  723MOL0     C97514   7.081   7.130  11.306 -0.1008  0.1089  0.6979
  723MOL0    Cl97515   7.001   7.260  11.405 -0.2504  0.7805  0.0065
  723MOL0     C97516   6.827   6.687  10.425  0.3856  0.1513 -1.0016
  723MOL0     C97517   6.805   6.573  10.341 -0.1073  0.9100 -0.7222
  723MOL0     O97518   6.586   6.251  10.446  0.3626  0.0133 -0.1522
  723MOL0     C97519   6.612   6.174  10.102  0.1239  0.3500 -0.2589
  723MOL0     C97520   6.576   6.082  10.002  0.6609  0.5281 -0.2267
  723MOL0     N97521   6.452   5.322   9.717  0.1394 -0.3592  0.5220
  723MOL0     N97522   6.554   5.271   9.657  0.4035  0.4115  0.0599
  723MOL0     C97523   7.818   5.250  10.044  0.2161 -0.6273 -0.1005
  723MOL0     C97524   7.959   5.257  10.032  0.2180  0.0970 -0.0991
  723MOL0     C97525   8.372   5.373   9.839  0.0155 -0.0486 -0.2409
  723MOL0     C97526   8.474   5.457   9.877 -0.1147 -0.1222  1.0752
  723MOL0     C97527   8.607   5.433   9.827 -0.4697 -0.5112  0.3403
  723MOL0     C97528   8.641   5.313   9.766 -0.7899  0.3379  0.0212
  723MOL0     O97529   8.765   5.282   9.740 -0.4190  0.1039  0.7829
  723MOL0     C97530   8.847   5.373   9.666 -0.2392  0.2928  1.0295
  723MOL0     C97531   8.962   5.412   9.758  0.1225 -0.3623  0.1446
  723MOL0     C97532   9.073   5.493   9.683 -0.1961  0.2319 -0.3902
  723MOL0     C97533   9.171   5.539   9.799  0.2457 -0.3380  1.5066
  723MOL0     C97534   9.254   5.427   9.847  0.4430  0.6194  1.4660
  723MOL0     C97535   9.321   5.335   9.884  0.4731  0.0134 -0.3676
  723MOL0     C97536   8.535   5.220   9.735 -0.1409  0.4485  0.5688
  723MOL0     C97537   8.399   5.259   9.764  0.9101  0.1283  0.7870
  723MOL0     H97538   7.978   5.491   9.790  1.5916 -0.7290  0.0553
  723MOL0     H97539   7.738   5.498   9.832 -1.0576 -2.0611 -2.7448
  723MOL0     H97540   7.495   5.475   9.901 -1.3898 -0.7692  0.1419
  723MOL0     H97541   7.574   5.353   9.798  0.8564 -0.9038  0.5844
  723MOL0     H97542   7.417   5.178   9.910  0.1003  0.3287 -0.0392
  723MOL0     H97543   7.351   5.311  10.005  2.1983 -0.5384  2.5022
  723MOL0     H97544   7.258   5.418   9.796 -1.7845  0.0964 -0.9877
  723MOL0     H97545   7.340   5.294   9.707 -0.9440  0.1011  0.1342
  723MOL0     H97546   7.188   5.122   9.797 -0.2090  0.0619 -2.2540
  723MOL0     H97547   7.099   5.238   9.907 -4.2183  2.3991 -1.6943
  723MOL0     H97548   7.028   5.371   9.708 -0.2505  0.6491 -0.6276
  723MOL0     H97549   7.110   5.248   9.606 -1.9266 -2.8324 -0.3921
  723MOL0     H97550   6.975   5.071   9.693  3.0760  0.8738  0.4337
  723MOL0     H97551   6.888   5.185   9.794  0.5463  3.4545 -0.7293
  723MOL0     H97552   6.905   5.197   9.478 -0.4944 -1.1818 -0.3327
  723MOL0     H97553   6.786   5.126   9.578  0.4476 -0.2807  1.6524
  723MOL0     H97554   6.738   5.361   9.479 -0.4539 -0.8730  0.2255
  723MOL0     H97555   6.851   5.425   9.604 -0.1518 -0.6025  1.6438
  723MOL0     H97556   6.717   5.505   9.803  0.2178  0.1758  1.2180
  723MOL0     H97557   6.339   5.488   9.890 -1.3019  0.4283 -2.8184
  723MOL0     H97558   6.487   5.571   9.955  2.8182 -0.8116 -1.2187
  723MOL0     H97559   6.306   5.697   9.825  2.1658  0.3566  3.6364
  723MOL0     H97560   6.355   5.615   9.677 -0.8597  0.9206 -0.3173
  723MOL0     H97561   6.456   5.827   9.676  0.8564 -1.4989 -2.3058
  723MOL0     H97562   6.575   5.701   9.695 -0.3144 -1.7264  0.6180
  723MOL0     H97563   6.628   5.894   9.821 -0.1034 -0.9278 -0.6695
  723MOL0     H97564   6.611   5.764   9.931 -0.8294 -0.2407  1.2911
  723MOL0     H97565   6.378   5.884  10.180  1.8821 -2.3457 -0.5858
  723MOL0     H97566   6.355   5.943  10.404  2.9111 -2.4949 -0.5743
  723MOL0     H97567   6.500   6.000  10.475 -0.0037 -0.9726 -0.2905
  723MOL0     H97568   6.391   6.117  10.458  1.2860 -1.1358  2.9782
  723MOL0     H97569   6.509   6.486  10.485  0.7704 -2.2680 -0.8661
  723MOL0     H97570   6.541   6.696  10.598 -2.4671 -0.6259 -0.8709
  723MOL0     H97571   6.590   6.963  10.592  0.4451  0.5430  0.2709
  723MOL0     H97572   6.622   6.870  10.743 -0.9192 -0.6983 -0.9526
  723MOL0     H97573   6.800   7.085  10.618 -1.6306 -1.4996 -1.2586
  723MOL0     H97574   6.661   7.131  10.733  0.3473 -1.3375  1.9976
  723MOL0     H97575   6.923   6.984  10.796  0.0936  0.8290  1.6660
  723MOL0     H97576   6.783   6.961  10.892  2.5956 -1.1071  1.8583
  723MOL0     H97577   6.920   7.227  10.824 -1.5172  2.1098 -0.8565
  723MOL0     H97578   6.779   7.211  10.939  0.8966 -0.6987  0.7709
  723MOL0     H97579   7.032   7.055  10.965  0.3476  0.7441 -0.6072
  723MOL0     H97580   6.888   7.064  11.077  2.0493 -0.3163  0.5031
  723MOL0     H97581   7.080   7.290  11.009  2.2390 -0.0685  0.7695
  723MOL0     H97582   6.942   7.310  11.122  2.1507  1.7593 -0.1638
  723MOL0     H97583   7.178   7.288  11.210 -2.3737  0.8771  1.3006
  723MOL0     H97584   7.190   7.139  11.117  1.5623 -1.2414  2.2698
  723MOL0     H97585   7.163   7.086  11.364 -0.5164 -2.0649 -0.2482
  723MOL0     H97586   7.023   7.038  11.292 -0.1642  0.1593  0.6234
  723MOL0     H97587   6.910   6.755  10.414 -0.3796  1.0373 -1.3985
  723MOL0     H97588   6.867   6.539  10.259  1.0428  0.7581  0.1903
  723MOL0     H97589   6.699   6.227  10.064 -1.7420  0.3884 -5.1681
  723MOL0     H97590   6.610   6.093   9.899  1.0758 -0.9882 -0.2848
  723MOL0     H97591   7.765   5.183  10.112 -0.1407 -0.3687 -0.1221
  723MOL0     H97592   8.024   5.193  10.091 -0.8147 -0.4489  0.4756
  723MOL0     H97593   8.469   5.545   9.941 -0.2904  0.9696 -0.3775
  723MOL0     H97594   8.680   5.504   9.866  0.1302 -1.4967  1.0476
  723MOL0     H97595   8.885   5.320   9.578  1.0608 -0.1273  1.8297
  723MOL0     H97596   8.798   5.462   9.624 -2.4760 -0.9565  0.8373
  723MOL0     H97597   9.004   5.324   9.807 -1.2356 -0.0447  2.0138
  723MOL0     H97598   8.917   5.472   9.839  0.8009  1.0206 -0.4678
  723MOL0     H97599   9.018   5.572   9.631 -1.2704  0.8107  1.5113
  723MOL0     H97600   9.123   5.431   9.609 -3.6878 -2.5926 -0.6621
  723MOL0     H97601   9.109   5.583   9.878 -1.4646 -0.1292  0.1139
  723MOL0     H97602   9.233   5.615   9.753 -1.0476  0.1853  0.5744
  723MOL0     H97603   9.376   5.254   9.928  1.0000  0.0016 -1.0358
  723MOL0     H97604   8.553   5.126   9.684  0.3400  0.3323  0.9439
  723MOL0     H97605   8.316   5.201   9.724  0.7996 -0.2878  1.5928
  724MOL0     O97606   3.149   4.737   2.601 -0.2514 -0.1295  0.0395
  724MOL0     C97607   3.148   4.723   2.485 -0.2797  0.7031  0.4512
  724MOL0     O97608   3.056   4.779   2.401 -0.0276  0.3696 -0.3218
  724MOL0     C97609   2.939   4.835   2.459 -0.4793 -0.1722  0.1324
  724MOL0     C97610   2.841   4.751   2.517 -0.1739 -0.5640  0.3784
  724MOL0     C97611   2.717   4.812   2.567 -0.3968  0.8427 -0.2149
  724MOL0     C97612   2.702   4.949   2.561 -0.0881  0.0387  0.0939
  724MOL0     O97613   2.583   5.009   2.596  0.5475  0.7155 -0.1878
  724MOL0     C97614   2.463   4.925   2.613  0.4536 -0.5743 -0.1289
  724MOL0     C97615   2.342   5.021   2.647 -0.2746  0.0069 -0.0025
  724MOL0     C97616   2.206   4.943   2.680 -0.1597 -0.0631  0.7288
  724MOL0     C97617   2.096   5.045   2.730 -0.2732  0.4135  0.5670
  724MOL0     C97618   1.952   4.990   2.728  0.1324 -0.1912 -0.4290
  724MOL0     C97619   1.846   5.080   2.771 -0.2245  0.8791 -0.2627
  724MOL0     C97620   1.713   5.011   2.767  0.7912  0.3884  0.3980
  724MOL0     C97621   1.601   5.096   2.812 -0.0566  0.3868  0.3424
  724MOL0     N97622   1.593   5.109   2.959  0.6372  0.3051  0.0111
  724MOL0     C97623   1.539   5.022   3.057  0.0538  0.1208  0.2240
  724MOL0     C97624   1.546   5.097   3.173  0.0852 -0.7171 -1.0126
  724MOL0     C97625   1.470   5.064   3.298  0.9004  0.1243  0.3548
  724MOL0     C97626   1.329   5.134   3.283  0.1637 -0.0649 -0.7818
  724MOL0     C97627   1.257   5.099   3.422 -0.0887 -0.1705  0.1121
  724MOL0     C97628   1.106   5.133   3.424  0.1650  0.1498  0.4577
  724MOL0     O97629   1.052   5.063   3.532  0.1229  0.1438 -0.3122
  724MOL0     C97630   0.913   5.080   3.554 -0.7244 -0.3744 -0.8502
  724MOL0     C97631   0.825   5.142   3.465 -0.5232 -0.2339  0.6588
  724MOL0     C97632   0.699   5.176   3.500  0.3623 -0.1488 -1.3023
  724MOL0     C97633   0.609   5.260   3.410  0.4601 -0.6192 -0.0665
  724MOL0     C97634   0.645   5.132   3.626  0.2806 -0.0914 -0.2063
  724MOL0     C97635   0.511   5.166   3.677 -0.1675  0.3009  0.6073
  724MOL0     O97636   0.407   5.183   3.592 -0.9220  0.4381 -0.3250
  724MOL0     C97637   0.276   5.205   3.628  0.2415 -0.2378 -0.6847
  724MOL0     C97638   0.218   5.129   3.732  0.0995 -0.4089 -0.1120
  724MOL0     C97639   0.083   5.128   3.772  0.1328  0.7436 -0.4234
  724MOL0     C97640  -0.001   5.215   3.700 -0.6084 -0.2793 -0.1937
  724MOL0     O97641  -0.133   5.216   3.722 -0.3223 -0.3243  0.7120
  724MOL0     C97642  -0.218   5.259   3.614  0.0740  0.2010  0.1019
  724MOL0     C97643  -0.365   5.233   3.656 -0.4302 -0.1088 -0.1546
  724MOL0     C97644  -0.468   5.286   3.552  0.3098 -0.0514  0.0503
  724MOL0     C97645  -0.609   5.241   3.597 -1.0322  1.1558  0.0231
  724MOL0     C97646  -0.725   5.308   3.536 -0.7888 -0.6029 -0.1959
  724MOL0     C97647  -0.757   5.253   3.399 -0.6417 -0.7273 -0.9147
  724MOL0     C97648  -0.876   5.321   3.343 -0.9862  0.1494  0.1738
  724MOL0     C97649  -1.006   5.241   3.382  0.2504  0.1160  0.7120
  724MOL0    Cl97650  -1.005   5.077   3.309 -0.3895  0.1895 -0.4832
  724MOL0     C97651   0.055   5.294   3.592  0.2494 -0.1368  0.7954
  724MOL0     C97652   0.190   5.293   3.561  0.6532  0.3532 -0.7869
  724MOL0     O97653   0.500   5.175   3.797  0.8320  0.1900 -1.2101
  724MOL0     C97654   0.732   5.061   3.716  0.0932  0.0838  0.1703
  724MOL0     C97655   0.869   5.044   3.680 -0.3193 -0.3273  0.3400
  724MOL0     N97656   1.621   5.214   3.145  0.7884  0.2851  0.1576
  724MOL0     N97657   1.639   5.217   3.022 -0.6000 -0.5188  0.0018
  724MOL0     C97658   2.797   5.029   2.500  0.1127  0.0127 -0.6996
  724MOL0     C97659   2.909   4.974   2.450 -0.4625 -0.0282 -0.1097
  724MOL0     C97660   3.253   4.647   2.415  0.4595  0.5159 -0.9533
  724MOL0     C97661   3.371   4.607   2.487  0.0542  0.6057 -0.2734
  724MOL0     C97662   3.485   4.564   2.416  0.3955  0.0577  0.4844
  724MOL0     C97663   3.497   4.559   2.277  0.5932 -1.1753  0.6202
  724MOL0     O97664   3.623   4.522   2.223 -0.0385 -0.1205 -0.3057
  724MOL0     C97665   3.626   4.504   2.083 -0.7133  0.7337  0.5999
  724MOL0     C97666   3.776   4.508   2.035  0.4281 -0.2502  0.5220
  724MOL0     C97667   3.865   4.622   2.088 -0.2699  1.0364  0.2446
  724MOL0     C97668   4.012   4.572   2.120 -0.3061 -1.3276  0.5223
  724MOL0     C97669   4.072   4.494   2.016  0.6027 -0.3704 -0.2399
  724MOL0     C97670   4.115   4.431   1.926  0.1380 -0.0238  0.5884
  724MOL0     C97671   3.376   4.595   2.210 -0.7353  0.0308  0.4473
  724MOL0     C97672   3.256   4.636   2.278  0.5077  0.8491  0.7363
  724MOL0     H97673   2.860   4.644   2.519 -1.0255 -0.7735 -1.0372
  724MOL0     H97674   2.642   4.742   2.603  3.1574 -2.5477  1.3349
  724MOL0     H97675   2.438   4.871   2.521 -1.7819 -0.9195  0.6042
  724MOL0     H97676   2.476   4.852   2.694 -0.3034  0.2648  0.7740
  724MOL0     H97677   2.376   5.089   2.726 -0.1021 -0.8686  0.6919
  724MOL0     H97678   2.314   5.074   2.555 -2.0271 -0.7711  0.0373
  724MOL0     H97679   2.169   4.906   2.584  0.1029 -0.0325  0.6161
  724MOL0     H97680   2.231   4.860   2.747  0.7817  1.4662  2.3514
  724MOL0     H97681   2.132   5.083   2.826 -0.2744 -0.1951  0.8109
  724MOL0     H97682   2.093   5.121   2.652 -4.6038 -1.1248 -1.0531
  724MOL0     H97683   1.935   4.955   2.626  1.8117  0.1842 -0.8701
  724MOL0     H97684   1.951   4.903   2.794 -1.9405 -0.3830 -0.6537
  724MOL0     H97685   1.850   5.117   2.874  0.6000 -0.4878  0.2160
  724MOL0     H97686   1.837   5.163   2.701  1.9532  0.3431 -1.2505
  724MOL0     H97687   1.689   4.993   2.662 -0.2453  1.4535  0.4298
  724MOL0     H97688   1.716   4.917   2.822 -1.6195  0.8719  1.4501
  724MOL0     H97689   1.505   5.060   2.772  0.9774 -0.8021 -1.2239
  724MOL0     H97690   1.612   5.193   2.764 -1.7850  1.3682  1.8163
  724MOL0     H97691   1.487   4.930   3.034 -1.5503  1.2195 -0.7187
  724MOL0     H97692   1.448   4.957   3.307 -1.4642  0.4415 -1.0303
  724MOL0     H97693   1.522   5.095   3.389  1.0546 -0.9602  0.6593
  724MOL0     H97694   1.264   5.075   3.219  2.4374 -1.4947 -1.8981
  724MOL0     H97695   1.332   5.240   3.254  0.1255  0.3935  0.7822
  724MOL0     H97696   1.311   5.150   3.502  1.7491  0.4061 -1.4130
  724MOL0     H97697   1.288   4.995   3.438 -1.1339 -0.3144  1.3812
  724MOL0     H97698   1.070   5.109   3.323  2.7751  5.7903 -2.2627
  724MOL0     H97699   1.085   5.240   3.433  2.7646  0.8652 -0.8838
  724MOL0     H97700   0.853   5.174   3.365 -0.6374  1.9792  1.2777
  724MOL0     H97701   0.523   5.208   3.367  1.3049 -2.1297  0.0094
  724MOL0     H97702   0.576   5.353   3.458  1.4348 -0.1855 -0.2082
  724MOL0     H97703   0.671   5.300   3.329 -2.0752  1.1842 -1.2732
  724MOL0     H97704   0.275   5.059   3.792 -0.0374  0.5214  1.1414
  724MOL0     H97705   0.039   5.071   3.853 -2.0528  4.7672  1.5118
  724MOL0     H97706  -0.212   5.368   3.608 -4.0500  0.5234 -1.6331
  724MOL0     H97707  -0.191   5.226   3.513  1.1490  0.3035  0.3427
  724MOL0     H97708  -0.379   5.125   3.651  2.2322 -0.4776 -2.7247
  724MOL0     H97709  -0.391   5.266   3.757  0.2170  0.2519 -0.1007
  724MOL0     H97710  -0.444   5.247   3.453  1.9178  0.7294  0.1138
  724MOL0     H97711  -0.453   5.393   3.539  2.2363 -0.2800  0.0715
  724MOL0     H97712  -0.616   5.132   3.596  0.8766  1.0003 -0.7068
  724MOL0     H97713  -0.621   5.267   3.702  0.6239  2.5566 -0.0957
  724MOL0     H97714  -0.711   5.415   3.521 -1.3407 -0.6374 -1.1012
  724MOL0     H97715  -0.811   5.287   3.601 -0.7018 -0.5071 -0.0515
  724MOL0     H97716  -0.669   5.272   3.337 -1.3264  1.7817 -1.2353
  724MOL0     H97717  -0.767   5.145   3.402  1.8083 -1.0056 -0.5806
  724MOL0     H97718  -0.857   5.304   3.237 -0.6767  0.6920  0.1402
  724MOL0     H97719  -0.868   5.427   3.368 -0.5287  0.1930 -0.1463
  724MOL0     H97720  -1.094   5.292   3.341  0.4562  0.1106  0.2535
  724MOL0     H97721  -1.000   5.224   3.490  0.1953 -0.7752  0.5896
  724MOL0     H97722   0.004   5.372   3.536 -1.2336 -0.4718  1.6098
  724MOL0     H97723   0.224   5.371   3.494 -1.2274  1.3303 -0.6473
  724MOL0     H97724   0.707   5.043   3.820  0.2487  0.0584  0.2035
  724MOL0     H97725   0.936   4.993   3.749 -1.6262 -2.0671  0.3888
  724MOL0     H97726   2.780   5.136   2.500 -1.3087 -0.1775  0.7436
  724MOL0     H97727   2.976   5.043   2.400 -0.7176 -1.1316 -2.0824
  724MOL0     H97728   3.382   4.599   2.595 -0.4541 -0.9455 -0.3162
  724MOL0     H97729   3.577   4.533   2.466  0.5318 -1.5876 -0.6838
  724MOL0     H97730   3.587   4.408   2.048  0.1138  1.1492 -1.6516
  724MOL0     H97731   3.565   4.579   2.033 -3.1219 -0.7496  1.1389
  724MOL0     H97732   3.773   4.513   1.926 -0.0497 -0.2588  0.5328
  724MOL0     H97733   3.826   4.416   2.065  2.2883  1.2798  2.4517
  724MOL0     H97734   3.825   4.667   2.180 -1.1971  0.1461  0.2934
  724MOL0     H97735   3.872   4.696   2.008  1.1649  0.9425  0.2605
  724MOL0     H97736   4.007   4.504   2.206  2.4070 -4.4262 -1.5640
  724MOL0     H97737   4.064   4.662   2.155 -0.8638  0.2714 -2.4495
  724MOL0     H97738   4.143   4.371   1.842 -0.9112  0.2553  0.0249
  724MOL0     H97739   3.378   4.582   2.102 -1.2029  1.7826  0.1971
  724MOL0     H97740   3.165   4.646   2.219  0.6574 -0.4854  0.2668
  725MOL0     O97741   5.013  10.006   4.891 -0.7978  0.3788 -0.2696
  725MOL0     C97742   5.029   9.886   4.892  1.1263  0.5366 -0.0059
  725MOL0     O97743   4.926   9.791   4.867  0.0923  0.4716  0.0784
  725MOL0     C97744   4.807   9.835   4.817 -0.0948 -0.2693  0.5087
  725MOL0     C97745   4.802   9.926   4.706 -0.2871  0.3226 -0.2904
  725MOL0     C97746   4.684   9.969   4.652  0.0250 -0.0488  0.3540
  725MOL0     C97747   4.561   9.925   4.707 -0.5685 -0.1244  0.0813
  725MOL0     O97748   4.435   9.976   4.666 -0.3174 -0.9642  0.2173
  725MOL0     C97749   4.404   9.979   4.526 -0.8747 -0.0228 -0.3661
  725MOL0     C97750   4.273  10.056   4.499  1.2329 -0.9534 -0.5133
  725MOL0     C97751   4.144   9.975   4.544  0.9143  0.9012 -0.1332
  725MOL0     C97752   4.015  10.064   4.552  0.4769 -0.6133  0.0750
  725MOL0     C97753   3.890   9.996   4.599  0.2669 -0.2388 -0.1282
  725MOL0     C97754   3.763  10.080   4.554  0.2862 -0.4181 -0.6565
  725MOL0     C97755   3.760  10.213   4.636  0.1835  0.4153 -0.2367
  725MOL0     C97756   3.630  10.298   4.633 -0.2328 -0.7906 -0.1890
  725MOL0     N97757   3.613  10.349   4.495  1.1684 -0.3068 -0.4188
  725MOL0     C97758   3.642  10.478   4.455 -0.3013  0.3237  0.0751
  725MOL0     C97759   3.649  10.464   4.323 -0.7902  0.8938  0.6314
  725MOL0     C97760   3.690  10.589   4.243 -0.6273 -0.3230  0.7501
  725MOL0     C97761   3.564  10.640   4.157  0.0475  0.4707 -0.4524
  725MOL0     C97762   3.455  10.697   4.250 -0.1136 -0.3182  0.8446
  725MOL0     C97763   3.345  10.764   4.164 -0.4638 -0.0308 -0.0715
  725MOL0     O97764   3.412  10.878   4.098  0.2754 -0.2089 -0.3028
  725MOL0     C97765   3.339  10.953   4.007 -0.4810  0.1084  0.3853
  725MOL0     C97766   3.388  10.958   3.874  1.2185 -1.1631  0.8978
  725MOL0     C97767   3.312  11.029   3.772 -0.2589  0.6211 -0.0866
  725MOL0     C97768   3.357  10.998   3.631 -1.1076  0.0231 -0.8453
  725MOL0     C97769   3.194  11.103   3.815 -0.5374 -0.8871 -0.9305
  725MOL0     C97770   3.111  11.188   3.714 -0.5412 -0.3788 -0.0457
  725MOL0     O97771   3.169  11.222   3.588  0.3722 -0.1124 -0.7661
  725MOL0     C97772   3.089  11.288   3.500  0.4953  0.5103  0.3081
  725MOL0     C97773   3.085  11.431   3.502 -0.4832  0.2483  0.3726
  725MOL0     C97774   3.014  11.501   3.407  0.1927  0.5854  0.7308
  725MOL0     C97775   2.931  11.427   3.322  0.2617  0.0017 -0.3524
  725MOL0     O97776   2.829  11.475   3.243  0.3757 -0.0356  0.1587
  725MOL0     C97777   2.835  11.618   3.218  0.0746 -0.3810 -0.3353
  725MOL0     C97778   2.725  11.668   3.126 -0.2899 -0.3461 -0.2955
  725MOL0     C97779   2.586  11.624   3.170  0.5736  0.6248  0.2947
  725MOL0     C97780   2.488  11.687   3.077 -0.6087  0.3291  0.2645
  725MOL0     C97781   2.356  11.607   3.091 -0.3895 -0.1536  0.0700
  725MOL0     C97782   2.241  11.684   3.017  0.6827  1.0578  0.4259
  725MOL0     C97783   2.110  11.604   3.011 -0.4261  0.3370 -0.0708
  725MOL0     C97784   2.056  11.580   3.144  0.3364 -0.2871  0.2828
  725MOL0    Cl97785   1.900  11.479   3.131 -0.3161 -0.1799 -0.5032
  725MOL0     C97786   2.931  11.290   3.318 -0.4591 -0.1091  0.0806
  725MOL0     C97787   3.013  11.223   3.404 -0.0179  0.9757 -0.6471
  725MOL0     O97788   3.000  11.224   3.747  0.4349 -0.5409 -0.7934
  725MOL0     C97789   3.159  11.099   3.949 -0.1464 -0.4099  0.3371
  725MOL0     C97790   3.231  11.026   4.045  0.0207 -0.6933  0.7786
  725MOL0     N97791   3.613  10.337   4.280  0.6920 -0.4651 -0.2606
  725MOL0     N97792   3.582  10.270   4.386  0.3925 -0.4824 -0.3791
  725MOL0     C97793   4.563   9.841   4.818  0.8203  0.1952  0.3897
  725MOL0     C97794   4.684   9.793   4.868 -0.4428  0.6035  0.1402
  725MOL0     C97795   5.152   9.845   4.947 -0.2693  0.1837 -0.0871
  725MOL0     C97796   5.240   9.917   5.032  0.1995 -0.2296 -0.0049
  725MOL0     C97797   5.353   9.852   5.084  0.1143  0.4313 -0.5285
  725MOL0     C97798   5.381   9.716   5.055  1.0615 -0.5647 -0.4831
  725MOL0     O97799   5.475   9.638   5.114  0.2426  0.1505 -0.2462
  725MOL0     C97800   5.592   9.704   5.168 -1.0146 -0.1922 -0.0507
  725MOL0     C97801   5.714   9.660   5.087 -0.0163 -0.2082  0.1588
  725MOL0     C97802   5.776   9.532   5.141 -0.0076  0.6416 -0.4659
  725MOL0     C97803   5.881   9.484   5.047 -1.0012  1.2187 -0.7199
  725MOL0     C97804   5.956   9.371   5.118 -0.4343  0.1815  0.3633
  725MOL0     C97805   6.025   9.285   5.182  0.4220  0.3319 -0.6395
  725MOL0     C97806   5.302   9.647   4.963  0.3438  0.6651  0.3088
  725MOL0     C97807   5.188   9.705   4.914  0.9345  0.3864  0.5911
  725MOL0     H97808   4.895   9.965   4.667 -1.0205  3.5264  0.8357
  725MOL0     H97809   4.692  10.042   4.572 -0.1132  1.0765  1.3332
  725MOL0     H97810   4.480  10.037   4.473  2.1772 -3.3809  0.0372
  725MOL0     H97811   4.413   9.877   4.490  1.4423  0.1415 -0.3652
  725MOL0     H97812   4.277  10.149   4.555 -0.9553  0.1907 -2.1114
  725MOL0     H97813   4.266  10.092   4.396  2.0776 -1.6172 -0.8177
  725MOL0     H97814   4.130   9.897   4.468  1.1265 -0.0485  0.7756
  725MOL0     H97815   4.165   9.918   4.635 -0.6820 -1.4077 -1.1017
  725MOL0     H97816   4.033  10.160   4.602 -1.1712  0.0752 -0.5713
  725MOL0     H97817   3.994  10.086   4.446 -2.5663 -0.0549  0.7004
  725MOL0     H97818   3.874   9.894   4.561  0.1205 -0.2169 -0.1285
  725MOL0     H97819   3.906   9.994   4.707 -2.1982  3.1674  0.4872
  725MOL0     H97820   3.756  10.101   4.447 -1.4320 -0.2676 -0.5380
  725MOL0     H97821   3.676  10.021   4.583 -0.8120  1.3707 -0.1010
  725MOL0     H97822   3.758  10.183   4.741  1.6294 -0.3540 -0.4038
  725MOL0     H97823   3.848  10.276   4.625  1.1919 -0.6987  1.1078
  725MOL0     H97824   3.645  10.385   4.698 -1.5087 -1.4875  1.0903
  725MOL0     H97825   3.546  10.232   4.656 -1.2400  0.8143  0.9361
  725MOL0     H97826   3.655  10.568   4.513  0.8907 -1.1745  2.2876
  725MOL0     H97827   3.718  10.671   4.309 -1.0161  0.5090 -0.0911
  725MOL0     H97828   3.773  10.556   4.179 -1.8547 -1.5785 -0.2704
  725MOL0     H97829   3.525  10.547   4.115 -1.0843 -0.2860  2.0937
  725MOL0     H97830   3.599  10.708   4.079  0.4643 -1.0620 -1.6739
  725MOL0     H97831   3.505  10.776   4.308  1.8408  1.5315 -3.0014
  725MOL0     H97832   3.413  10.624   4.319 -2.2799 -0.5021 -0.5705
  725MOL0     H97833   3.257  10.791   4.223 -2.0544 -2.7306 -1.0396
  725MOL0     H97834   3.300  10.693   4.095 -2.2200 -0.6292  1.5967
  725MOL0     H97835   3.486  10.918   3.852  1.6533  0.5397 -0.5142
  725MOL0     H97836   3.291  10.925   3.585  1.3155 -1.4049 -2.2742
  725MOL0     H97837   3.363  11.096   3.583 -1.2220  2.0174  2.8319
  725MOL0     H97838   3.457  10.954   3.636 -0.8312  0.7663  0.9578
  725MOL0     H97839   3.140  11.497   3.569  0.3913  0.3611 -0.4292
  725MOL0     H97840   3.003  11.609   3.411 -1.5063  0.4083  2.1777
  725MOL0     H97841   2.812  11.664   3.314 -0.9174  0.5333 -0.9900
  725MOL0     H97842   2.930  11.646   3.173 -1.0910 -0.2504 -2.8924
  725MOL0     H97843   2.724  11.777   3.126  3.0670 -0.1148  2.7900
  725MOL0     H97844   2.741  11.618   3.030 -0.5787 -1.5685  0.2717
  725MOL0     H97845   2.559  11.640   3.275  1.0791  0.6947  0.4150
  725MOL0     H97846   2.578  11.515   3.166 -0.7573  0.6917  0.5541
  725MOL0     H97847   2.479  11.792   3.106 -0.2194  0.6031 -0.5717
  725MOL0     H97848   2.514  11.685   2.971 -0.4220  1.7805  0.2606
  725MOL0     H97849   2.332  11.604   3.197 -3.2481  0.4239 -0.4688
  725MOL0     H97850   2.371  11.507   3.049  2.3402 -0.2896  1.1933
  725MOL0     H97851   2.216  11.775   3.072 -2.2144  0.0387  0.9439
  725MOL0     H97852   2.265  11.713   2.914 -3.5043  1.8146 -0.5078
  725MOL0     H97853   2.128  11.503   2.972 -0.8225 -1.2024  3.3257
  725MOL0     H97854   2.033  11.661   2.959  0.5433  1.5291 -0.2479
  725MOL0     H97855   2.039  11.672   3.200  1.2055 -0.2713  0.5434
  725MOL0     H97856   2.134  11.526   3.200 -0.1288  0.8837  2.1620
  725MOL0     H97857   2.867  11.237   3.248 -0.1211  1.4407 -1.4711
  725MOL0     H97858   3.010  11.114   3.403  0.7367  0.9107  1.2283
  725MOL0     H97859   3.066  11.148   3.977  0.8101  0.0545  3.0349
  725MOL0     H97860   3.196  11.019   4.147 -1.5754  1.2959  0.4147
  725MOL0     H97861   4.469   9.817   4.867  1.5755  2.2472  3.0992
  725MOL0     H97862   4.691   9.730   4.956  0.0577 -0.8896 -0.9245
  725MOL0     H97863   5.222  10.019   5.062 -2.0870 -1.2160  2.3426
  725MOL0     H97864   5.414   9.902   5.159  0.4869 -0.6059 -0.1171
  725MOL0     H97865   5.603   9.811   5.148  1.2435 -0.3456  0.0878
  725MOL0     H97866   5.599   9.703   5.277 -0.6148  3.8851  0.1134
  725MOL0     H97867   5.792   9.735   5.097 -0.1405 -0.0082 -0.3571
  725MOL0     H97868   5.685   9.654   4.982  0.3695  1.9941 -0.1229
  725MOL0     H97869   5.696   9.458   5.150 -1.4902  2.4057  3.1896
  725MOL0     H97870   5.817   9.555   5.240  0.6894 -0.0657 -0.5847
  725MOL0     H97871   5.956   9.561   5.028 -2.0210  3.1265  2.3623
  725MOL0     H97872   5.838   9.465   4.948 -2.9058  0.1879  0.2501
  725MOL0     H97873   6.081   9.214   5.240 -1.0593  0.5886  1.2180
  725MOL0     H97874   5.327   9.547   4.928  0.6202  1.7484 -2.9418
  725MOL0     H97875   5.126   9.648   4.845  2.0961  0.6265 -0.6930
  726MOL0     O97876   8.833   1.585   6.111 -0.0186  0.5994  0.7966
  726MOL0     C97877   8.908   1.670   6.071  0.1997 -0.3693 -0.2834
  726MOL0     O97878   8.884   1.782   5.995  0.2380 -0.2409 -0.0624
  726MOL0     C97879   8.760   1.804   5.935 -0.1684 -0.4496  0.6711
  726MOL0     C97880   8.649   1.712   5.915  0.2083  0.1885  0.5458
  726MOL0     C97881   8.530   1.751   5.847  0.6477  0.1691  0.4343
  726MOL0     C97882   8.506   1.877   5.801  0.3123  0.2036  0.3016
  726MOL0     O97883   8.399   1.908   5.724  0.5041  0.7010 -0.9602
  726MOL0     C97884   8.354   2.048   5.726  0.3351  0.2484  0.1906
  726MOL0     C97885   8.197   2.057   5.703  0.0253  0.0540 -0.0866
  726MOL0     C97886   8.150   2.036   5.564 -0.2497  0.2354  0.2699
  726MOL0     C97887   8.010   1.991   5.563  1.0329  0.2198  0.2467
  726MOL0     C97888   7.902   2.101   5.596 -0.2450  0.3787  0.1242
  726MOL0     C97889   7.869   2.193   5.482  0.3076 -1.2102 -0.1055
  726MOL0     C97890   7.730   2.262   5.517 -0.1900  0.5872  0.1935
  726MOL0     C97891   7.689   2.358   5.411 -0.1538 -0.3160 -0.0363
  726MOL0     N97892   7.571   2.445   5.438  0.7542  0.3706 -0.6799
  726MOL0     C97893   7.495   2.519   5.344 -0.1204  0.0633 -0.6665
  726MOL0     C97894   7.395   2.580   5.413  0.4816  0.2784 -0.4845
  726MOL0     C97895   7.289   2.671   5.356 -0.3213 -0.5975 -0.7126
  726MOL0     C97896   7.154   2.656   5.420 -0.3712  0.1510  0.0978
  726MOL0     C97897   7.040   2.755   5.380 -0.8432  0.0440 -0.3466
  726MOL0     C97898   7.079   2.902   5.380 -0.5756  0.1709 -0.0500
  726MOL0     O97899   6.961   2.982   5.374  0.9120 -0.6330 -0.4575
  726MOL0     C97900   6.964   3.102   5.306  0.2914 -0.8409  0.5908
  726MOL0     C97901   7.054   3.209   5.340  0.8112 -0.5801 -0.3215
  726MOL0     C97902   7.036   3.340   5.276 -1.0392  0.7750  0.4083
  726MOL0     C97903   7.143   3.442   5.311  0.4154 -1.1839 -0.2348
  726MOL0     C97904   6.943   3.363   5.167 -1.4072  1.0505 -0.4504
  726MOL0     C97905   6.915   3.498   5.096  0.2251 -0.0677 -0.1276
  726MOL0     O97906   6.791   3.512   5.043 -0.0028  0.7548  0.5109
  726MOL0     C97907   6.746   3.631   5.009  0.1172 -0.4145 -1.0900
  726MOL0     C97908   6.798   3.694   4.898 -0.4374  0.2693  0.1047
  726MOL0     C97909   6.737   3.812   4.842  0.7902 -0.4144 -0.1836
  726MOL0     C97910   6.618   3.866   4.899  0.0298  0.5401 -0.6709
  726MOL0     O97911   6.565   3.982   4.850  0.1095 -0.3082 -0.1362
  726MOL0     C97912   6.421   3.994   4.843  0.4943  0.4043  0.2116
  726MOL0     C97913   6.368   3.872   4.759 -0.1673 -0.3491 -0.3464
  726MOL0     C97914   6.224   3.906   4.700  0.5461  0.3170  1.0743
  726MOL0     C97915   6.140   3.781   4.695 -0.3886 -0.1354  0.2865
  726MOL0     C97916   6.001   3.788   4.630  0.5753  0.0193 -0.1118
  726MOL0     C97917   5.908   3.894   4.681 -0.8818  0.5622  0.4910
  726MOL0     C97918   5.776   3.902   4.596  0.2298  0.7883 -0.5260
  726MOL0     C97919   5.685   3.784   4.630 -0.3250 -0.5396  0.8239
  726MOL0    Cl97920   5.543   3.801   4.528  0.1110  0.3584 -0.3029
  726MOL0     C97921   6.569   3.804   5.006 -0.2925 -0.0317  0.9268
  726MOL0     C97922   6.633   3.690   5.065  0.8978  0.1285 -0.1169
  726MOL0     O97923   7.003   3.583   5.089  0.6153  0.0369 -0.4462
  726MOL0     C97924   6.862   3.252   5.145 -0.1415 -0.0596  1.0901
  726MOL0     C97925   6.871   3.124   5.212 -0.2002 -0.0459  0.1759
  726MOL0     N97926   7.418   2.561   5.547 -0.8348 -0.5725  0.3248
  726MOL0     N97927   7.525   2.493   5.565 -0.2058  0.1322 -0.3925
  726MOL0     C97928   8.605   1.971   5.847  0.5094  0.2174 -0.2146
  726MOL0     C97929   8.730   1.935   5.892  0.3916  0.6992  0.2775
  726MOL0     C97930   9.044   1.670   6.136 -0.1588 -0.2705  1.1842
  726MOL0     C97931   9.154   1.744   6.089 -0.4466 -0.4126  0.3792
  726MOL0     C97932   9.283   1.732   6.150  0.7592 -1.1345 -0.1939
  726MOL0     C97933   9.288   1.648   6.266 -1.0560  0.5055  0.5663
  726MOL0     O97934   9.411   1.624   6.328  0.1121  0.0595  0.3341
  726MOL0     C97935   9.526   1.706   6.289  0.2972  0.6296 -0.2995
  726MOL0     C97936   9.651   1.666   6.375  0.1812  0.5331  1.2021
  726MOL0     C97937   9.783   1.737   6.365 -0.1471  0.1355  0.5308
  726MOL0     C97938   9.849   1.727   6.226  0.1441  0.0189  0.4091
  726MOL0     C97939   9.970   1.812   6.221 -0.6014 -0.1338  0.2010
  726MOL0     C97940  10.070   1.874   6.239  0.3668 -0.3656 -0.5354
  726MOL0     C97941   9.183   1.584   6.313 -0.7258  0.2151 -0.5445
  726MOL0     C97942   9.060   1.587   6.248  0.2232 -0.1015  0.2782
  726MOL0     H97943   8.653   1.605   5.937 -3.8128 -0.3898 -0.5597
  726MOL0     H97944   8.461   1.669   5.830  2.4766 -1.4835  0.5597
  726MOL0     H97945   8.371   2.086   5.827  1.3698  0.1129  0.0761
  726MOL0     H97946   8.410   2.110   5.655 -1.8747  1.9500 -0.1912
  726MOL0     H97947   8.151   1.982   5.768  0.7364  2.1970  3.1454
  726MOL0     H97948   8.171   2.156   5.741  0.5502  0.6195 -1.1852
  726MOL0     H97949   8.160   2.129   5.507 -1.6898  0.9077  1.0586
  726MOL0     H97950   8.207   1.953   5.521 -0.7457 -0.0346  0.1223
  726MOL0     H97951   7.995   1.952   5.461  3.0464 -0.2385  0.0894
  726MOL0     H97952   7.980   1.916   5.637 -0.5135  1.0037  0.4594
  726MOL0     H97953   7.814   2.049   5.635 -1.5185  2.7451  0.5954
  726MOL0     H97954   7.923   2.171   5.677 -1.4352  0.0944  0.7086
  726MOL0     H97955   7.948   2.268   5.473 -0.1724 -0.5002  1.3076
  726MOL0     H97956   7.855   2.138   5.388  1.7122  0.2896 -1.2561
  726MOL0     H97957   7.646   2.193   5.513 -0.2231  0.6436 -0.0885
  726MOL0     H97958   7.739   2.309   5.615  0.8074  2.5074 -0.7426
  726MOL0     H97959   7.668   2.304   5.318 -1.5434 -0.2672  0.2188
  726MOL0     H97960   7.773   2.426   5.398  2.0469 -2.5985  1.3131
  726MOL0     H97961   7.504   2.520   5.236  0.1524 -0.2723 -0.6524
  726MOL0     H97962   7.326   2.772   5.376  0.8954 -1.4590  1.8477
  726MOL0     H97963   7.277   2.665   5.247  0.6984 -0.2050 -0.8628
  726MOL0     H97964   7.164   2.655   5.529 -0.2003 -1.4327  0.0863
  726MOL0     H97965   7.116   2.559   5.388 -0.3581 -0.3428  1.5295
  726MOL0     H97966   6.953   2.747   5.446 -1.1578  1.8346 -0.4980
  726MOL0     H97967   7.012   2.736   5.276  1.8356  2.0663 -1.5645
  726MOL0     H97968   7.142   2.917   5.292  3.7328 -2.4493  2.2392
  726MOL0     H97969   7.138   2.921   5.470 -0.6204  1.3592 -0.2477
  726MOL0     H97970   7.134   3.187   5.409 -0.6359 -4.1609  0.4390
  726MOL0     H97971   7.078   3.501   5.377  0.7630  0.8244 -1.6144
  726MOL0     H97972   7.230   3.392   5.356  2.5604  0.7792 -1.9352
  726MOL0     H97973   7.192   3.493   5.228  0.7949 -2.7894 -1.0311
  726MOL0     H97974   6.891   3.656   4.857 -0.9834 -2.0192  0.8423
  726MOL0     H97975   6.768   3.854   4.747 -1.4296 -0.2262 -0.8762
  726MOL0     H97976   6.369   3.987   4.938  1.7841  0.5493  0.9574
  726MOL0     H97977   6.390   4.080   4.784 -1.3243 -0.9367 -0.8876
  726MOL0     H97978   6.441   3.843   4.683 -0.2542  1.7263 -1.2994
  726MOL0     H97979   6.354   3.791   4.830 -2.8144 -1.8342 -2.3927
  726MOL0     H97980   6.230   3.941   4.596 -1.5868 -0.0048  0.7955
  726MOL0     H97981   6.178   3.979   4.767  2.0545  1.1217  1.2597
  726MOL0     H97982   6.204   3.710   4.641  4.2064  2.0170  2.3617
  726MOL0     H97983   6.132   3.752   4.800 -1.7989 -0.5942  0.0786
  726MOL0     H97984   5.953   3.690   4.637  0.6267 -0.0366 -0.5097
  726MOL0     H97985   6.008   3.800   4.522  0.1526 -2.2228 -0.4447
  726MOL0     H97986   5.893   3.882   4.788 -1.9882 -2.6956  0.0764
  726MOL0     H97987   5.953   3.994   4.668 -0.7423  0.4293 -0.1243
  726MOL0     H97988   5.789   3.917   4.489 -3.2444  1.3104 -1.0022
  726MOL0     H97989   5.717   3.990   4.622  0.7163  0.5939  1.3713
  726MOL0     H97990   5.646   3.798   4.731 -0.6153  1.4702  0.4677
  726MOL0     H97991   5.727   3.684   4.616 -0.5717 -0.2044 -3.8287
  726MOL0     H97992   6.482   3.833   5.064 -2.1233 -0.1173 -1.6440
  726MOL0     H97993   6.592   3.631   5.146  1.0804 -0.2116 -0.2686
  726MOL0     H97994   6.786   3.268   5.070  0.5169  0.5072  0.5368
  726MOL0     H97995   6.799   3.043   5.202  0.0786 -0.4404  1.2259
  726MOL0     H97996   8.593   2.073   5.813 -0.1754  0.7859  1.6148
  726MOL0     H97997   8.808   2.008   5.914  0.5867 -0.2540  3.1180
  726MOL0     H97998   9.142   1.810   6.003  2.1490  0.4916  0.6278
  726MOL0     H97999   9.369   1.777   6.102 -0.8708  1.3242 -1.0201
  726MOL0     H98000   9.548   1.690   6.183 -0.4422 -0.1656 -0.3487
  726MOL0     H98001   9.505   1.808   6.320 -0.5372  0.1606  0.7102
  726MOL0     H98002   9.674   1.560   6.362  1.4494  0.6376  2.3289
  726MOL0     H98003   9.617   1.667   6.479 -0.4301 -0.5181  1.0336
  726MOL0     H98004   9.850   1.693   6.440  0.0401  0.8667  0.8011
  726MOL0     H98005   9.770   1.841   6.396 -2.3992 -0.4248  1.7054
  726MOL0     H98006   9.777   1.750   6.146 -0.6474 -1.2286  0.7248
  726MOL0     H98007   9.887   1.626   6.204  1.5648  0.6055  0.0862
  726MOL0     H98008  10.150   1.935   6.276 -0.0371 -0.0827 -0.1172
  726MOL0     H98009   9.193   1.530   6.406  3.5434 -0.9215 -1.4474
  726MOL0     H98010   8.980   1.521   6.283 -0.6593 -2.4674 -5.1325
  727MOL0     O98011   1.905   2.424   6.882 -0.2654 -0.4060  0.3068
  727MOL0     C98012   1.956   2.427   6.768  0.1682  0.4792  0.0165
  727MOL0     O98013   1.890   2.405   6.635 -0.1418  0.4680 -1.0004
  727MOL0     C98014   1.758   2.410   6.637  0.9033 -0.4301 -0.1464
  727MOL0     C98015   1.685   2.313   6.571 -0.4334 -0.3230  0.7095
  727MOL0     C98016   1.547   2.327   6.549 -0.2164  0.4192 -0.1584
  727MOL0     C98017   1.477   2.427   6.616 -0.7543  0.4007  0.9295
  727MOL0     O98018   1.344   2.439   6.600 -0.0158 -0.0103  0.0002
  727MOL0     C98019   1.258   2.431   6.710 -0.1636  0.1437 -0.1955
  727MOL0     C98020   1.125   2.374   6.674 -1.1797 -0.9160 -0.0358
  727MOL0     C98021   1.048   2.449   6.563  0.5968  0.0186  0.0158
  727MOL0     C98022   0.903   2.473   6.602  0.4817 -0.2833  0.2855
  727MOL0     C98023   0.810   2.504   6.483  0.6769 -0.0028  0.7888
  727MOL0     C98024   0.671   2.516   6.548 -0.5823 -0.0884 -0.0416
  727MOL0     C98025   0.553   2.527   6.450  0.5243 -0.4476  0.5040
  727MOL0     C98026   0.423   2.531   6.522 -0.0066  0.1192 -0.4870
  727MOL0     N98027   0.413   2.659   6.598  0.0843 -0.3517 -0.0960
  727MOL0     C98028   0.409   2.789   6.549 -0.0567 -0.0813  0.5229
  727MOL0     C98029   0.394   2.875   6.657 -0.5588  0.2189  0.5895
  727MOL0     C98030   0.374   3.026   6.662  0.6190  0.0973  0.3439
  727MOL0     C98031   0.234   3.068   6.608 -0.4587 -0.5222 -0.2953
  727MOL0     C98032   0.222   3.216   6.625  0.2988 -0.7903 -0.7370
  727MOL0     C98033   0.073   3.245   6.613  0.1468 -0.2824 -0.1972
  727MOL0     O98034   0.039   3.227   6.472 -0.3723 -0.1320  0.1050
  727MOL0     C98035  -0.079   3.269   6.431 -1.0743 -0.6174  0.7363
  727MOL0     C98036  -0.104   3.270   6.293 -0.4141 -0.3644 -0.0831
  727MOL0     C98037  -0.236   3.282   6.243 -0.5603  0.0439  0.9284
  727MOL0     C98038  -0.252   3.283   6.090  1.1120  0.1169  0.2444
  727MOL0     C98039  -0.345   3.301   6.334  0.0100  0.0701  0.5818
  727MOL0     C98040  -0.489   3.337   6.301  0.4913 -0.1100 -0.7034
  727MOL0     O98041  -0.571   3.366   6.410  0.2162 -0.2283  0.5276
  727MOL0     C98042  -0.668   3.458   6.388 -0.1884  0.3340  0.3110
  727MOL0     C98043  -0.653   3.596   6.406 -0.0560 -0.1096 -0.3592
  727MOL0     C98044  -0.761   3.683   6.383  0.4032 -0.1297 -1.2587
  727MOL0     C98045  -0.886   3.623   6.343 -0.2839 -0.4566 -0.6287
  727MOL0     O98046  -0.998   3.708   6.307 -0.6430  0.2770  0.4252
  727MOL0     C98047  -0.997   3.854   6.324  0.4795  0.0301  0.3673
  727MOL0     C98048  -1.113   3.913   6.256  0.2168  0.2486  0.5333
  727MOL0     C98049  -1.244   3.893   6.328  0.4118  0.0895 -0.1205
  727MOL0     C98050  -1.364   3.950   6.253  0.1766 -0.0957  0.5038
  727MOL0     C98051  -1.488   3.899   6.318  0.9176  0.1963  0.3385
  727MOL0     C98052  -1.614   3.928   6.237  0.4463  0.5230  0.2387
  727MOL0     C98053  -1.739   3.882   6.316  0.6876 -0.5229 -0.2482
  727MOL0     C98054  -1.873   3.904   6.250 -0.0536  0.0531 -0.5962
  727MOL0    Cl98055  -1.896   3.790   6.118  0.1335  0.0288  0.1945
  727MOL0     C98056  -0.902   3.489   6.343  0.3208  0.2460  1.2816
  727MOL0     C98057  -0.790   3.402   6.358  0.2449 -0.1295  0.6950
  727MOL0     O98058  -0.525   3.351   6.186  0.7720  0.0833 -0.0885
  727MOL0     C98059  -0.315   3.299   6.469 -0.4640  0.5667 -0.7986
  727MOL0     C98060  -0.188   3.290   6.515  0.1603 -0.4211 -0.5022
  727MOL0     N98061   0.370   2.791   6.760  0.4219  0.7503  0.0579
  727MOL0     N98062   0.403   2.666   6.731 -0.2535  0.4554 -0.3478
  727MOL0     C98063   1.547   2.511   6.697 -0.0518  0.1280 -0.4303
  727MOL0     C98064   1.688   2.511   6.701  0.5364 -0.7117 -0.6999
  727MOL0     C98065   2.103   2.447   6.766  0.2428 -0.0558 -0.3565
  727MOL0     C98066   2.182   2.468   6.880  0.8303 -0.0414  0.0916
  727MOL0     C98067   2.319   2.494   6.867  0.7226  0.0024 -0.1413
  727MOL0     C98068   2.389   2.497   6.746 -0.9690  0.3018  0.0706
  727MOL0     O98069   2.526   2.511   6.755 -0.5230  0.6901  0.1937
  727MOL0     C98070   2.603   2.574   6.656 -0.2947  0.6155 -0.4094
  727MOL0     C98071   2.653   2.474   6.550  0.1688 -0.5636  0.3244
  727MOL0     C98072   2.685   2.331   6.590 -0.4288 -0.2299 -0.4474
  727MOL0     C98073   2.817   2.324   6.661  0.4933  0.4102  0.2202
  727MOL0     C98074   2.858   2.179   6.689  0.2420 -0.1683 -0.0269
  727MOL0     C98075   2.876   2.071   6.737 -0.0227  0.5971 -0.9801
  727MOL0     C98076   2.312   2.485   6.630 -0.5134 -0.9165 -0.2287
  727MOL0     C98077   2.176   2.462   6.646 -0.0989 -0.4475 -0.2043
  727MOL0     H98078   1.739   2.233   6.522  2.9299 -0.1574  3.7196
  727MOL0     H98079   1.494   2.259   6.483 -1.7404  0.8495  0.5685
  727MOL0     H98080   1.304   2.369   6.787 -0.9221  1.7840  1.6530
  727MOL0     H98081   1.245   2.532   6.750 -0.8576  0.7325 -1.8282
  727MOL0     H98082   1.155   2.276   6.637  2.1268 -2.0204  4.5997
  727MOL0     H98083   1.061   2.374   6.763 -1.3385  2.4424 -0.0027
  727MOL0     H98084   1.108   2.533   6.527  0.6040 -0.5077 -1.2647
  727MOL0     H98085   1.050   2.380   6.479 -0.1695 -0.2052  0.1727
  727MOL0     H98086   0.860   2.385   6.651 -1.4095  1.3301  1.7511
  727MOL0     H98087   0.893   2.547   6.682  0.9100  0.6716 -0.5287
  727MOL0     H98088   0.830   2.592   6.421 -1.9863 -0.1085 -0.3670
  727MOL0     H98089   0.814   2.416   6.418  3.6484  1.9228 -1.9355
  727MOL0     H98090   0.657   2.426   6.609  0.2381 -0.1535  0.0699
  727MOL0     H98091   0.677   2.596   6.622  0.9067 -1.2562  1.1860
  727MOL0     H98092   0.575   2.617   6.391  3.5266 -0.2967  1.6591
  727MOL0     H98093   0.548   2.446   6.376 -3.9653 -2.1629  2.3090
  727MOL0     H98094   0.416   2.443   6.585 -0.7758 -0.3356 -1.1898
  727MOL0     H98095   0.344   2.522   6.447 -1.3639 -0.4671  0.9601
  727MOL0     H98096   0.411   2.820   6.445 -1.6450  3.7553  1.4524
  727MOL0     H98097   0.378   3.057   6.767  0.9571  1.6215 -0.0950
  727MOL0     H98098   0.449   3.070   6.596 -0.6667 -1.9716 -2.7181
  727MOL0     H98099   0.152   3.021   6.661  0.7277 -1.6949  0.5686
  727MOL0     H98100   0.229   3.026   6.507  1.1565  0.3831 -0.8087
  727MOL0     H98101   0.278   3.268   6.547  2.7274 -0.2557  1.2385
  727MOL0     H98102   0.260   3.247   6.723 -2.5948 -2.1861  0.9679
  727MOL0     H98103   0.058   3.350   6.641 -2.6928 -0.7725  0.3820
  727MOL0     H98104   0.004   3.185   6.673  0.4955  0.1755  0.6843
  727MOL0     H98105  -0.031   3.266   6.213 -1.7729  0.6947 -1.4519
  727MOL0     H98106  -0.241   3.387   6.057  1.7309  0.1097  0.4115
  727MOL0     H98107  -0.166   3.231   6.046  1.0820  1.9347 -2.2184
  727MOL0     H98108  -0.348   3.252   6.049  0.4037  2.3436  0.0571
  727MOL0     H98109  -0.549   3.615   6.430 -0.2286 -0.3095  0.5718
  727MOL0     H98110  -0.757   3.790   6.401 -1.9681 -0.0753 -0.8112
  727MOL0     H98111  -1.004   3.885   6.429 -0.7507  1.9273 -0.2402
  727MOL0     H98112  -0.903   3.895   6.286 -0.2951  1.7898  0.2830
  727MOL0     H98113  -1.098   4.021   6.250 -0.5401  0.3151 -0.5728
  727MOL0     H98114  -1.116   3.870   6.155  1.1690 -1.4948  1.2073
  727MOL0     H98115  -1.241   3.943   6.425  0.0201  1.3065 -0.7266
  727MOL0     H98116  -1.260   3.785   6.341  1.1641 -0.0329 -0.1535
  727MOL0     H98117  -1.373   4.059   6.250 -1.4812 -0.2123 -2.2539
  727MOL0     H98118  -1.360   3.915   6.149 -1.7919  0.8210  0.0517
  727MOL0     H98119  -1.500   3.929   6.423  3.2280 -1.4172  1.1316
  727MOL0     H98120  -1.492   3.791   6.333 -0.8681 -0.0247 -1.3804
  727MOL0     H98121  -1.609   4.035   6.215  0.8633  0.3136 -0.7117
  727MOL0     H98122  -1.606   3.880   6.139 -0.4240 -3.9909  2.1090
  727MOL0     H98123  -1.738   3.935   6.412 -0.3445 -0.7744 -0.0879
  727MOL0     H98124  -1.737   3.775   6.340 -1.0548 -0.5155  0.0707
  727MOL0     H98125  -1.878   4.008   6.216 -2.3058 -0.4044 -1.8892
  727MOL0     H98126  -1.953   3.881   6.321 -1.5270  1.9752 -1.5344
  727MOL0     H98127  -1.000   3.447   6.323  0.9118 -0.8711  0.5767
  727MOL0     H98128  -0.800   3.296   6.336  1.0851  0.4633 -3.1083
  727MOL0     H98129  -0.398   3.289   6.539  0.0664  3.4104  0.4106
  727MOL0     H98130  -0.176   3.295   6.623 -0.0213  1.4385 -0.5246
  727MOL0     H98131   1.499   2.586   6.760  2.9677  0.6163  1.5162
  727MOL0     H98132   1.754   2.581   6.751  0.1997 -0.1470 -1.0374
  727MOL0     H98133   2.132   2.478   6.976 -3.5273  0.5568 -2.0231
  727MOL0     H98134   2.375   2.516   6.957  0.2277 -0.0485  0.1820
  727MOL0     H98135   2.540   2.654   6.615 -0.5552  0.2163 -0.7906
  727MOL0     H98136   2.682   2.623   6.715 -1.9747  2.3496  0.5179
  727MOL0     H98137   2.740   2.517   6.500  0.1774  0.3361  1.0817
  727MOL0     H98138   2.579   2.469   6.470  1.4397  0.5290 -0.9792
  727MOL0     H98139   2.696   2.266   6.502 -0.7220 -0.1746 -0.5253
  727MOL0     H98140   2.610   2.278   6.648 -0.0055 -1.0777 -0.6513
  727MOL0     H98141   2.815   2.364   6.763 -0.6995 -0.9933  0.7758
  727MOL0     H98142   2.899   2.372   6.606 -0.9724  3.8459  0.7898
  727MOL0     H98143   2.871   1.980   6.794 -2.9012 -0.1170 -2.1716
  727MOL0     H98144   2.353   2.472   6.531  0.5075 -0.5981  0.1397
  727MOL0     H98145   2.119   2.441   6.556  1.4721  0.1381 -1.3677
  728MOL0     O98146   8.539   3.368   9.216 -0.2897  0.7740 -0.1749
  728MOL0     C98147   8.543   3.245   9.212  0.0776  0.7330 -0.6681
  728MOL0     O98148   8.648   3.159   9.208 -0.5765  0.0613  0.5893
  728MOL0     C98149   8.781   3.208   9.215  0.2118  0.1034 -0.2195
  728MOL0     C98150   8.877   3.142   9.294  0.4665  0.0740 -0.1818
  728MOL0     C98151   9.018   3.181   9.290 -0.6525  0.0747  0.8241
  728MOL0     C98152   9.065   3.288   9.218  0.4772 -0.8457 -0.6291
  728MOL0     O98153   9.199   3.319   9.209  0.7380  0.1773  0.3647
  728MOL0     C98154   9.257   3.392   9.097 -0.5578 -0.1215 -0.5374
  728MOL0     C98155   9.416   3.368   9.100  0.3239 -0.4275 -0.1939
  728MOL0     C98156   9.486   3.443   8.991 -0.4739 -0.0257 -0.1371
  728MOL0     C98157   9.637   3.449   9.003 -0.1601 -0.1395 -0.6887
  728MOL0     C98158   9.710   3.459   8.865 -0.2087 -0.2162 -0.0746
  728MOL0     C98159   9.862   3.484   8.881  0.3129 -0.1216 -0.1280
  728MOL0     C98160   9.921   3.537   8.753 -0.3296 -0.2188  0.4718
  728MOL0     C98161  10.059   3.569   8.774 -0.6071 -0.5812 -0.0885
  728MOL0     N98162  10.087   3.664   8.881  0.2554 -0.5481  0.9593
  728MOL0     C98163  10.035   3.797   8.888 -0.7927 -0.9542  0.0107
  728MOL0     C98164  10.089   3.849   9.004 -0.1606  0.1723  0.7699
  728MOL0     C98165  10.072   3.996   9.040 -0.1750  0.2182  0.6429
  728MOL0     C98166  10.012   4.005   9.178  0.1670 -0.3875 -0.3465
  728MOL0     C98167   9.863   3.953   9.176 -0.7771  0.3850  0.7353
  728MOL0     C98168   9.782   3.996   9.290 -0.4264 -0.2340  0.0910
  728MOL0     O98169   9.834   3.983   9.423 -0.1131 -0.3092 -0.2806
  728MOL0     C98170   9.822   3.871   9.501  0.2430  0.3252 -0.1584
  728MOL0     C98171   9.860   3.872   9.633 -0.2536  0.0717 -0.7903
  728MOL0     C98172   9.860   3.761   9.718  0.2615 -0.1342  0.9341
  728MOL0     C98173   9.901   3.788   9.866 -0.6525  0.3260  0.6154
  728MOL0     C98174   9.829   3.635   9.659 -0.4081  0.2657  0.0349
  728MOL0     C98175   9.842   3.498   9.721 -0.2587  0.0598  0.1622
  728MOL0     O98176   9.809   3.390   9.647  0.0811 -0.2431 -0.1981
  728MOL0     C98177   9.834   3.269   9.698 -0.0100  0.9721 -0.6294
  728MOL0     C98178   9.943   3.220   9.777  0.1685  0.0549 -0.5066
  728MOL0     C98179   9.942   3.095   9.838  0.1116 -0.4879  0.3010
  728MOL0     C98180   9.833   3.004   9.818 -0.6887 -0.3101 -0.1339
  728MOL0     O98181   9.818   2.875   9.858  0.4974  0.0777 -0.0529
  728MOL0     C98182   9.932   2.828   9.926 -0.4810 -0.1251  0.0421
  728MOL0     C98183   9.897   2.685   9.943 -0.2215 -0.6964 -0.1436
  728MOL0     C98184  10.019   2.610   9.989 -0.0349  0.4481  0.0681
  728MOL0     C98185  10.092   2.553   9.864  1.3415 -0.7452 -0.3953
  728MOL0     C98186  10.209   2.474   9.906 -0.3642  0.4639 -0.7651
  728MOL0     C98187  10.317   2.558   9.985  0.2449 -0.2466 -0.9182
  728MOL0     C98188  10.364   2.673   9.906 -0.2660  0.2594  0.1357
  728MOL0     C98189  10.504   2.726   9.931 -0.3656  0.2719  0.2366
  728MOL0    Cl98190  10.629   2.616   9.887 -0.2444  0.2974 -0.4438
  728MOL0     C98191   9.730   3.055   9.731  0.0140 -0.1644  0.1114
  728MOL0     C98192   9.733   3.183   9.677  0.7199 -0.3761 -0.0919
  728MOL0     O98193   9.882   3.503   9.840  0.0983 -0.2590  0.0915
  728MOL0     C98194   9.785   3.631   9.524 -0.8915 -1.0686  0.0179
  728MOL0     C98195   9.784   3.756   9.445  1.2534  0.6708 -0.0570
  728MOL0     N98196  10.149   3.739   9.073  0.1046  0.1594  0.7705
  728MOL0     N98197  10.142   3.642   8.993 -0.0566  0.9898  0.5988
  728MOL0     C98198   8.969   3.366   9.139 -0.1195  0.0944 -0.2338
  728MOL0     C98199   8.836   3.329   9.151  0.4978  1.3696 -0.3887
  728MOL0     C98200   8.411   3.178   9.206 -0.5123  0.6006  0.0996
  728MOL0     C98201   8.396   3.043   9.247 -0.2852  0.3370 -0.9125
  728MOL0     C98202   8.273   2.971   9.231 -0.2737 -0.8667  0.1622
  728MOL0     C98203   8.163   3.036   9.166 -0.3122  0.5325 -0.2924
  728MOL0     O98204   8.038   2.977   9.142 -0.1646 -0.5777  0.2170
  728MOL0     C98205   8.011   2.840   9.194  0.1745  0.2201 -0.2973
  728MOL0     C98206   7.964   2.850   9.340  0.4755 -0.0858  0.3333
  728MOL0     C98207   7.835   2.931   9.359 -0.1163  0.1870 -0.1282
  728MOL0     C98208   7.740   2.862   9.461  0.0938  0.3692 -0.2535
  728MOL0     C98209   7.774   2.875   9.605  0.4445  0.1716  1.0563
  728MOL0     C98210   7.784   2.889   9.719 -0.8356 -0.1235 -0.3181
  728MOL0     C98211   8.186   3.173   9.118  0.3837  0.8255 -0.2091
  728MOL0     C98212   8.308   3.235   9.135  0.7248  0.2353  0.0841
  728MOL0     H98213   8.861   3.053   9.353  1.4811  1.2812  2.0383
  728MOL0     H98214   9.098   3.138   9.350 -1.6206  0.0097  2.1355
  728MOL0     H98215   9.225   3.344   9.004 -0.9362  1.7461 -1.4174
  728MOL0     H98216   9.234   3.498   9.099  0.4847  0.1200 -0.5893
  728MOL0     H98217   9.454   3.407   9.195  0.2218  0.7666 -0.6213
  728MOL0     H98218   9.440   3.264   9.077 -0.0224 -0.4449 -0.5002
  728MOL0     H98219   9.465   3.387   8.899 -0.8132 -1.0482  0.5387
  728MOL0     H98220   9.441   3.542   8.980 -4.4383 -1.6046  0.0442
  728MOL0     H98221   9.668   3.529   9.071  3.8639 -1.3474 -0.8179
  728MOL0     H98222   9.678   3.365   9.059 -1.5296 -1.0190 -0.9627
  728MOL0     H98223   9.692   3.366   8.809  0.6149 -0.7698  0.5499
  728MOL0     H98224   9.670   3.538   8.801  4.5849 -0.5486 -4.0770
  728MOL0     H98225   9.869   3.558   8.962  0.0548 -0.0800 -0.1407
  728MOL0     H98226   9.918   3.393   8.902 -0.3173 -0.2013  1.3467
  728MOL0     H98227   9.905   3.479   8.661  3.4035  1.4465 -1.4314
  728MOL0     H98228   9.877   3.632   8.722  3.2977  0.8113 -2.0796
  728MOL0     H98229  10.110   3.600   8.683  1.3457 -2.4079  0.2971
  728MOL0     H98230  10.119   3.479   8.792 -0.6482 -0.3848  1.1229
  728MOL0     H98231   9.983   3.862   8.819  2.8812  1.3178 -0.8802
  728MOL0     H98232  10.172   4.040   9.037 -0.8118  1.7137 -1.0871
  728MOL0     H98233  10.014   4.055   8.968 -0.4765 -1.1048 -0.2358
  728MOL0     H98234  10.002   4.110   9.207  0.1291 -0.9450  1.8247
  728MOL0     H98235  10.075   3.956   9.253  0.6858 -0.5457 -0.8838
  728MOL0     H98236   9.865   3.844   9.185  2.3850  0.3220  0.2213
  728MOL0     H98237   9.817   3.989   9.084  1.8210  1.4238 -0.2338
  728MOL0     H98238   9.687   3.941   9.285 -0.5307 -0.0606  0.1754
  728MOL0     H98239   9.764   4.103   9.278 -0.1601 -0.1032  0.8295
  728MOL0     H98240   9.881   3.975   9.662  0.9675 -0.3444 -0.1387
  728MOL0     H98241   9.931   3.891   9.888  1.8436  0.1917 -1.5894
  728MOL0     H98242   9.818   3.756   9.930 -1.2094 -1.6479 -0.9811
  728MOL0     H98243   9.983   3.721   9.893  0.3749  1.4340  0.3245
  728MOL0     H98244  10.009   3.303   9.799  1.0152 -0.3483 -1.4511
  728MOL0     H98245  10.028   3.073   9.900  1.6412  1.4808 -0.9596
  728MOL0     H98246  10.033   2.833   9.882  0.1426 -0.1135  1.4157
  728MOL0     H98247   9.940   2.878  10.023 -0.9690  1.0715 -0.5150
  728MOL0     H98248   9.815   2.685  10.015  0.6242  4.1062  1.1861
  728MOL0     H98249   9.874   2.638   9.847  3.4388 -3.6515  0.1857
  728MOL0     H98250   9.987   2.526  10.051  1.4638  0.3610  0.7751
  728MOL0     H98251  10.080   2.682  10.043 -0.7507  2.0384 -1.1492
  728MOL0     H98252  10.024   2.488   9.808  0.9958 -2.2239  1.6063
  728MOL0     H98253  10.132   2.634   9.803  1.4994 -0.4921  0.0336
  728MOL0     H98254  10.262   2.428   9.822 -0.4149  1.2234 -1.2160
  728MOL0     H98255  10.177   2.392   9.971  2.5887 -1.2929 -1.3428
  728MOL0     H98256  10.277   2.590  10.082  0.8440 -0.0403 -0.7372
  728MOL0     H98257  10.407   2.497   9.997  1.9362  1.8504 -2.1748
  728MOL0     H98258  10.287   2.751   9.899  0.2460  0.7077 -0.6176
  728MOL0     H98259  10.374   2.639   9.802 -1.7523 -0.0291  0.0536
  728MOL0     H98260  10.503   2.731  10.041 -1.7614 -1.2471  0.3379
  728MOL0     H98261  10.528   2.824   9.889  1.4963 -0.1001  0.3574
  728MOL0     H98262   9.649   2.992   9.695  0.2461 -0.8655  0.7865
  728MOL0     H98263   9.647   3.213   9.617 -0.6190 -1.0433  1.4441
  728MOL0     H98264   9.779   3.539   9.467  1.8279 -2.8687  2.4040
  728MOL0     H98265   9.765   3.751   9.339  2.6900  2.5857 -0.4576
  728MOL0     H98266   8.995   3.454   9.081  0.4582  2.6697  3.5248
  728MOL0     H98267   8.765   3.392   9.098  1.1002  0.4126 -2.4401
  728MOL0     H98268   8.481   2.989   9.288 -0.4803  0.5725 -0.1873
  728MOL0     H98269   8.256   2.877   9.282 -3.0274 -0.2888  0.4905
  728MOL0     H98270   7.924   2.799   9.142 -2.0158  0.4401  2.8350
  728MOL0     H98271   8.097   2.775   9.180 -0.5802 -0.5828 -1.3261
  728MOL0     H98272   8.049   2.893   9.394  1.3173 -0.1328 -0.9118
  728MOL0     H98273   7.948   2.753   9.388  2.0560 -1.1229 -1.1332
  728MOL0     H98274   7.776   2.939   9.267  0.6154 -0.3227 -0.6505
  728MOL0     H98275   7.869   3.028   9.395  1.0927 -0.0938 -0.4679
  728MOL0     H98276   7.720   2.757   9.436  0.0368 -0.1910  1.9428
  728MOL0     H98277   7.642   2.910   9.460  0.5323  1.2735 -0.6835
  728MOL0     H98278   7.793   2.918   9.822  0.5573 -1.7339  0.0459
  728MOL0     H98279   8.110   3.218   9.054  1.2997  1.9202 -0.5644
  728MOL0     H98280   8.329   3.331   9.089 -1.1003  0.7041  0.1395
  729MOL0     O98281   5.987   0.540  10.034 -0.0426  0.2356 -0.9824
  729MOL0     C98282   6.026   0.538   9.915 -0.1754 -0.1743  0.2140
  729MOL0     O98283   5.946   0.511   9.802  0.5103  0.1803  0.1560
  729MOL0     C98284   5.811   0.490   9.806 -0.1846 -0.1359 -0.0739
  729MOL0     C98285   5.720   0.580   9.860 -0.2190  0.1574 -0.4476
  729MOL0     C98286   5.579   0.571   9.847 -0.0582 -0.4624  0.3888
  729MOL0     C98287   5.526   0.463   9.778  0.7105 -0.5690  0.2397
  729MOL0     O98288   5.394   0.450   9.755  0.0842 -0.2936 -0.6539
  729MOL0     C98289   5.303   0.535   9.821 -1.0100  0.7063 -0.2345
  729MOL0     C98290   5.168   0.475   9.783  0.2195  0.4589 -0.4425
  729MOL0     C98291   5.032   0.543   9.840  0.8560  0.0110  0.1925
  729MOL0     C98292   5.007   0.680   9.780  0.5281  0.0067 -1.0728
  729MOL0     C98293   4.877   0.750   9.838  0.4161  0.1318 -0.6516
  729MOL0     C98294   4.754   0.707   9.761 -0.0470 -0.0256 -0.0328
  729MOL0     C98295   4.624   0.748   9.843 -0.1895 -0.1424  1.0373
  729MOL0     C98296   4.588   0.653   9.960  0.3830 -0.8736 -0.0372
  729MOL0     N98297   4.446   0.676  10.001  0.3087  0.6735 -1.0797
  729MOL0     C98298   4.382   0.793  10.038  0.1244 -0.3826  0.4827
  729MOL0     C98299   4.254   0.756  10.066  0.1334  0.2811 -0.0745
  729MOL0     C98300   4.148   0.852  10.124  0.8147 -0.5527  0.6716
  729MOL0     C98301   4.152   0.843  10.271  0.3149 -0.1213 -0.2365
  729MOL0     C98302   4.071   0.956  10.333  0.0234  0.2958 -1.3514
  729MOL0     C98303   3.922   0.942  10.317  0.5395  0.6068  0.0865
  729MOL0     O98304   3.870   0.816  10.355  0.5225 -0.6633 -0.5958
  729MOL0     C98305   3.739   0.804  10.336 -1.0970  0.7752 -0.7169
  729MOL0     C98306   3.644   0.906  10.332 -0.3746  0.3761  0.4844
  729MOL0     C98307   3.509   0.882  10.318  0.1157  0.3539  0.3629
  729MOL0     C98308   3.411   0.999  10.332  0.2613  0.4109 -0.1984
  729MOL0     C98309   3.464   0.752  10.284  0.0562  0.0241 -0.1502
  729MOL0     C98310   3.315   0.707  10.267 -0.2386 -0.9279  0.4122
  729MOL0     O98311   3.221   0.797  10.311  0.5158 -0.1837 -0.5696
  729MOL0     C98312   3.097   0.742  10.338 -0.9968  0.2931 -0.3535
  729MOL0     C98313   3.075   0.694  10.466  0.1283  0.0604  0.5760
  729MOL0     C98314   2.938   0.655  10.494 -0.7140  0.0732 -0.6753
  729MOL0     C98315   2.830   0.680  10.407  0.1811  0.3727 -0.4374
  729MOL0     O98316   2.700   0.652  10.433  0.5367  0.0809  0.2035
  729MOL0     C98317   2.671   0.587  10.555 -0.1985  0.0999  0.8142
  729MOL0     C98318   2.521   0.560  10.548  0.0288  0.0491 -0.0803
  729MOL0     C98319   2.470   0.474  10.433  0.5141  0.1190  1.0656
  729MOL0     C98320   2.537   0.331  10.432 -0.5615  0.3514 -0.6875
  729MOL0     C98321   2.490   0.232  10.324 -0.2433 -0.1301 -0.2021
  729MOL0     C98322   2.613   0.142  10.284 -0.2653  0.7015  0.8934
  729MOL0     C98323   2.574   0.037  10.179 -0.8161  0.6567  0.3940
  729MOL0     C98324   2.571   0.074  10.034 -0.3350  0.2204  0.9070
  729MOL0    Cl98325   2.520  -0.067   9.941 -0.1784 -0.0613  0.3987
  729MOL0     C98326   2.860   0.732  10.279  0.6455  0.6122 -0.0621
  729MOL0     C98327   2.986   0.754  10.245 -0.1770 -0.3878 -0.1249
  729MOL0     O98328   3.289   0.591  10.234  0.4209  0.0883  0.2470
  729MOL0     C98329   3.561   0.649  10.281  0.4242  0.4538 -0.3293
  729MOL0     C98330   3.695   0.674  10.306  0.6632  0.4733 -0.1857
  729MOL0     N98331   4.245   0.616  10.060  0.6532 -0.1401  0.5031
  729MOL0     N98332   4.368   0.572  10.039  0.2443 -0.0171 -0.0378
  729MOL0     C98333   5.614   0.371   9.724  0.2644 -0.1150 -0.2712
  729MOL0     C98334   5.749   0.385   9.742  0.2580  0.2547  0.3604
  729MOL0     C98335   6.168   0.560   9.889  0.8600 -0.4382  0.3012
  729MOL0     C98336   6.270   0.558   9.985  0.3667 -0.1857  0.6520
  729MOL0     C98337   6.398   0.601   9.952 -0.2183  0.2876 -0.5347
  729MOL0     C98338   6.433   0.661   9.831 -0.2364 -0.5663  0.3110
  729MOL0     O98339   6.557   0.716   9.788  0.3478 -0.0390  0.1468
  729MOL0     C98340   6.667   0.681   9.874  0.1730 -0.3869 -0.7933
  729MOL0     C98341   6.802   0.752   9.842 -0.1719 -0.0950  0.0998
  729MOL0     C98342   6.828   0.768   9.685  0.1218  0.2326  0.9131
  729MOL0     C98343   6.975   0.814   9.667 -0.6493 -0.1391 -0.9141
  729MOL0     C98344   7.008   0.945   9.718  0.6112  0.3790 -0.3334
  729MOL0     C98345   7.026   1.062   9.748  0.7244  0.2461  0.4094
  729MOL0     C98346   6.339   0.640   9.728  0.1765 -1.1160 -0.1158
  729MOL0     C98347   6.215   0.583   9.759  0.5710 -0.1227  0.3370
  729MOL0     H98348   5.763   0.662   9.917 -2.2666  1.1175 -0.1828
  729MOL0     H98349   5.515   0.651   9.882 -0.1805  0.3646 -1.5699
  729MOL0     H98350   5.317   0.531   9.929 -1.6383  0.7141 -0.1495
  729MOL0     H98351   5.314   0.640   9.793  3.7288  0.5535  0.1831
  729MOL0     H98352   5.172   0.486   9.674 -2.3399 -0.9757 -0.7819
  729MOL0     H98353   5.168   0.367   9.795  0.0510  0.5574  0.5804
  729MOL0     H98354   4.941   0.490   9.810  0.1299  1.7841 -0.8471
  729MOL0     H98355   5.032   0.554   9.949  0.2341  0.2779  0.1700
  729MOL0     H98356   5.093   0.733   9.822 -0.4692  0.9281 -0.1245
  729MOL0     H98357   5.012   0.674   9.671 -1.3241 -0.1674 -1.1811
  729MOL0     H98358   4.861   0.725   9.943  0.6985 -1.7267 -1.0144
  729MOL0     H98359   4.899   0.856   9.829  3.0703 -0.3224 -0.1654
  729MOL0     H98360   4.761   0.738   9.656  0.4738  3.4739  0.9427
  729MOL0     H98361   4.759   0.598   9.753  0.9712 -0.0558  0.8862
  729MOL0     H98362   4.642   0.853   9.869  0.9851  0.1901 -0.8777
  729MOL0     H98363   4.540   0.737   9.773  0.5188 -3.4035  0.5437
  729MOL0     H98364   4.658   0.669  10.042 -1.5669  1.8938  1.2754
  729MOL0     H98365   4.601   0.550   9.925  0.9096  0.1488 -3.2310
  729MOL0     H98366   4.418   0.895  10.046  3.3014 -1.5286  2.8182
  729MOL0     H98367   4.161   0.956  10.094 -0.4449  0.0118  1.9520
  729MOL0     H98368   4.050   0.823  10.084  1.1571  0.9372 -1.3941
  729MOL0     H98369   4.254   0.854  10.309  0.9796 -1.1412 -1.6811
  729MOL0     H98370   4.118   0.745  10.305 -0.2518 -0.1728 -0.9382
  729MOL0     H98371   4.098   1.055  10.294 -0.2040  1.6527  1.6715
  729MOL0     H98372   4.095   0.962  10.439  0.2706 -0.7503 -1.3367
  729MOL0     H98373   3.888   0.973  10.217 -1.7422  2.0292  1.2167
  729MOL0     H98374   3.878   1.018  10.382 -0.6344  1.4878 -1.6470
  729MOL0     H98375   3.680   1.003  10.365  3.1777 -0.5813 -0.1577
  729MOL0     H98376   3.348   0.999  10.421 -0.7181  1.3554 -0.8660
  729MOL0     H98377   3.470   1.091  10.344 -1.2849  1.1374  3.0401
  729MOL0     H98378   3.349   1.019  10.244 -0.4163  2.4698  0.6778
  729MOL0     H98379   3.162   0.673  10.526  1.1712  2.7038  0.1278
  729MOL0     H98380   2.924   0.611  10.592  2.9242  1.3527  0.5668
  729MOL0     H98381   2.731   0.495  10.563  0.9418  0.8776  1.5903
  729MOL0     H98382   2.683   0.650  10.644 -0.2232  0.8626  0.2888
  729MOL0     H98383   2.493   0.520  10.646  0.8643  0.3307  0.2880
  729MOL0     H98384   2.463   0.652  10.547  1.0254  0.7136  1.1462
  729MOL0     H98385   2.481   0.520  10.335 -0.4334 -4.5017 -1.4891
  729MOL0     H98386   2.361   0.473  10.447  0.3065  3.7131  0.5721
  729MOL0     H98387   2.646   0.341  10.429 -0.2354 -2.0016  0.5191
  729MOL0     H98388   2.528   0.281  10.529  3.3161  1.1405  0.2589
  729MOL0     H98389   2.466   0.290  10.235 -1.3219 -0.1059  0.0840
  729MOL0     H98390   2.400   0.178  10.356  0.4344 -0.3536  1.4099
  729MOL0     H98391   2.695   0.199  10.238  0.6633 -1.0825  0.2630
  729MOL0     H98392   2.652   0.102  10.378  2.2602  1.0901  0.0925
  729MOL0     H98393   2.475   0.005  10.212 -0.4177 -1.4323 -0.2749
  729MOL0     H98394   2.639  -0.051  10.179 -1.0986  0.4442  0.7659
  729MOL0     H98395   2.671   0.108  10.007 -1.6793  5.1664  1.1690
  729MOL0     H98396   2.496   0.147  10.002  3.0225  2.8303 -1.8580
  729MOL0     H98397   2.781   0.736  10.205  2.3009  0.0170 -1.9480
  729MOL0     H98398   3.006   0.806  10.151 -1.9825  0.3017 -0.1795
  729MOL0     H98399   3.534   0.546  10.259 -0.0804  0.8377 -1.6315
  729MOL0     H98400   3.772   0.598  10.309  1.4902  1.3045  2.5448
  729MOL0     H98401   5.555   0.292   9.680 -1.8133  0.6512  0.9917
  729MOL0     H98402   5.818   0.324   9.686  1.0961  1.2600  0.2733
  729MOL0     H98403   6.254   0.543  10.092  1.4917  0.0911  0.8748
  729MOL0     H98404   6.463   0.593  10.039  1.2092 -0.8090 -1.6435
  729MOL0     H98405   6.640   0.711   9.976 -0.3172 -1.4844 -0.5941
  729MOL0     H98406   6.678   0.572   9.873 -1.3342 -0.5579 -1.1948
  729MOL0     H98407   6.887   0.694   9.878 -0.0669 -0.0528 -0.0770
  729MOL0     H98408   6.802   0.855   9.881 -0.1630  0.2168 -0.7084
  729MOL0     H98409   6.750   0.826   9.635 -1.5253 -2.5015  0.0878
  729MOL0     H98410   6.809   0.678   9.626 -0.1066  1.5935 -1.1593
  729MOL0     H98411   7.011   0.808   9.564  0.3617  0.8315 -0.6412
  729MOL0     H98412   7.035   0.740   9.721 -0.0588  0.2086 -1.0793
  729MOL0     H98413   7.048   1.163   9.776 -1.4222  0.5742  1.0503
  729MOL0     H98414   6.346   0.662   9.622 -0.6946  2.2730  0.4184
  729MOL0     H98415   6.145   0.566   9.678  1.3002 -1.1777 -0.0886
  730MOL0     O98416   0.858   5.833   2.671  0.4358 -0.0471  0.1776
  730MOL0     C98417   0.873   5.852   2.547  0.9883 -0.2581 -0.1056
  730MOL0     O98418   0.768   5.863   2.450 -0.3674 -0.8322 -0.0899
  730MOL0     C98419   0.634   5.888   2.483  0.4698  0.3321  0.1141
  730MOL0     C98420   0.544   5.864   2.386 -0.0487  1.1282 -0.4185
  730MOL0     C98421   0.410   5.892   2.405  0.4309  0.2395 -0.5773
  730MOL0     C98422   0.364   5.946   2.527  0.2440  0.4841  0.5587
  730MOL0     O98423   0.235   5.966   2.561 -0.0713 -0.0761 -0.4500
  730MOL0     C98424   0.142   5.921   2.472 -0.0907  0.2094 -0.6268
  730MOL0     C98425   0.013   5.963   2.537 -0.0666  0.7195  0.6925
  730MOL0     C98426  -0.060   5.852   2.612 -0.1537  0.2847 -0.1622
  730MOL0     C98427  -0.214   5.867   2.613  0.6347  0.0383 -0.2286
  730MOL0     C98428  -0.275   5.778   2.718 -0.3913 -0.4171  0.2129
  730MOL0     C98429  -0.424   5.800   2.734  0.4602  0.2160  0.1012
  730MOL0     C98430  -0.487   5.682   2.805 -0.4871 -0.0852 -0.1125
  730MOL0     C98431  -0.504   5.559   2.722 -0.9298 -0.4081 -0.0401
  730MOL0     N98432  -0.636   5.554   2.653  0.1087  0.5625 -0.1316
  730MOL0     C98433  -0.747   5.478   2.696  0.2820 -1.0114  0.3345
  730MOL0     C98434  -0.831   5.509   2.586  0.4131  0.2812 -0.2253
  730MOL0     C98435  -0.965   5.455   2.548  0.5854  0.1253 -0.3595
  730MOL0     C98436  -1.062   5.486   2.668  0.2708 -0.0882 -0.2676
  730MOL0     C98437  -1.219   5.476   2.632 -0.1690 -0.1162 -1.4106
  730MOL0     C98438  -1.314   5.503   2.752 -0.5055  0.5456  0.5836
  730MOL0     O98439  -1.298   5.392   2.847  0.6109 -0.5875  0.0595
  730MOL0     C98440  -1.385   5.387   2.961 -0.2037  0.1955  0.3962
  730MOL0     C98441  -1.382   5.273   3.042 -0.5295 -0.1751 -0.5311
  730MOL0     C98442  -1.464   5.260   3.151  0.2359 -0.0234 -0.1979
  730MOL0     C98443  -1.455   5.124   3.225  0.6128  0.1849  0.3752
  730MOL0     C98444  -1.554   5.361   3.182 -0.7106 -1.2247 -0.3668
  730MOL0     C98445  -1.655   5.354   3.288 -0.1802 -0.3644 -0.3061
  730MOL0     O98446  -1.763   5.442   3.286  0.0791  0.3257  0.6458
  730MOL0     C98447  -1.849   5.435   3.391  0.6726 -0.7871  0.6029
  730MOL0     C98448  -1.900   5.553   3.447 -0.6818 -0.6002 -0.6262
  730MOL0     C98449  -1.982   5.566   3.556 -0.2957  0.1710  0.3664
  730MOL0     C98450  -2.034   5.449   3.615  0.2208 -0.0333 -0.4559
  730MOL0     O98451  -2.121   5.457   3.724 -0.3120  0.1115  0.4449
  730MOL0     C98452  -2.187   5.582   3.750  0.8310 -0.8448 -0.2911
  730MOL0     C98453  -2.292   5.585   3.865  0.4017  0.6708  0.0543
  730MOL0     C98454  -2.385   5.474   3.841  0.4810  0.2687  0.0226
  730MOL0     C98455  -2.476   5.448   3.959 -0.0026 -0.7668  0.6527
  730MOL0     C98456  -2.580   5.342   3.919  0.1498 -0.0689  0.5347
  730MOL0     C98457  -2.640   5.297   4.055  0.8578 -0.3235 -0.3723
  730MOL0     C98458  -2.765   5.207   4.025 -0.0005 -0.4371  0.5056
  730MOL0     C98459  -2.816   5.135   4.148  0.7312 -0.0299 -0.8198
  730MOL0    Cl98460  -2.902   5.250   4.264  0.6685  0.3010 -0.0428
  730MOL0     C98461  -1.985   5.327   3.565 -0.6248  0.5193  0.4701
  730MOL0     C98462  -1.905   5.322   3.450  0.3265  1.5619 -0.0689
  730MOL0     O98463  -1.632   5.278   3.378 -0.5711  0.2068  0.0044
  730MOL0     C98464  -1.561   5.483   3.105 -0.3729  0.2528 -0.2493
  730MOL0     C98465  -1.475   5.490   2.997  0.5629  0.8045  0.0141
  730MOL0     N98466  -0.773   5.584   2.489  0.2224  0.2435 -0.3490
  730MOL0     N98467  -0.654   5.609   2.529  0.4332  0.2891 -0.1680
  730MOL0     C98468   0.453   5.971   2.623 -0.6531 -0.2089 -0.3128
  730MOL0     C98469   0.588   5.939   2.606  0.9330 -0.7893  0.1844
  730MOL0     C98470   1.011   5.848   2.496 -0.0255  0.0670  0.3155
  730MOL0     C98471   1.040   5.875   2.364 -0.8116  0.0327  1.4624
  730MOL0     C98472   1.175   5.887   2.315 -1.1262  0.1236  0.1701
  730MOL0     C98473   1.280   5.868   2.402  0.0515  0.5290 -0.5522
  730MOL0     O98474   1.408   5.896   2.364  0.2542 -0.0766 -0.7029
  730MOL0     C98475   1.481   5.778   2.335 -0.2273 -0.2316  0.3150
  730MOL0     C98476   1.621   5.777   2.387 -0.2283  0.1814  0.7781
  730MOL0     C98477   1.632   5.788   2.537 -0.5604  0.2747 -0.2366
  730MOL0     C98478   1.779   5.783   2.589 -0.2608  0.0431 -0.0993
  730MOL0     C98479   1.806   5.644   2.593 -0.1006 -0.0848 -0.5961
  730MOL0     C98480   1.818   5.524   2.593 -0.2254  0.2624  0.1143
  730MOL0     C98481   1.255   5.842   2.534 -0.0749 -0.3392 -0.6807
  730MOL0     C98482   1.121   5.831   2.587  0.1056 -0.1775 -0.7327
  730MOL0     H98483   0.591   5.830   2.295 -0.4273 -0.0117 -0.2024
  730MOL0     H98484   0.340   5.871   2.325 -0.0149  0.5259 -0.2643
  730MOL0     H98485   0.143   5.973   2.375  2.4344 -0.2727 -0.9157
  730MOL0     H98486   0.159   5.816   2.449  1.9028  0.0133  1.4185
  730MOL0     H98487   0.023   6.048   2.605 -0.4228  2.2528 -1.1005
  730MOL0     H98488  -0.053   5.999   2.457 -1.5957  1.4189  2.2195
  730MOL0     H98489  -0.045   5.756   2.561  0.3517  0.2520  0.0393
  730MOL0     H98490  -0.021   5.844   2.713  1.1366 -0.9535 -0.7266
  730MOL0     H98491  -0.242   5.973   2.619 -1.2241 -0.2205 -2.7859
  730MOL0     H98492  -0.259   5.838   2.518  1.3603 -2.3775  0.1116
  730MOL0     H98493  -0.253   5.677   2.683 -1.0063 -1.8430  3.5572
  730MOL0     H98494  -0.228   5.801   2.814 -0.7587  0.6772  0.1398
  730MOL0     H98495  -0.442   5.897   2.782  0.9454  1.2905 -1.7520
  730MOL0     H98496  -0.482   5.815   2.642 -1.3734  0.9459  1.3332
  730MOL0     H98497  -0.429   5.660   2.895  0.0055 -1.3512 -0.7194
  730MOL0     H98498  -0.587   5.713   2.834 -0.7219 -0.3890 -0.5945
  730MOL0     H98499  -0.503   5.472   2.788  0.1369  1.4145  2.4723
  730MOL0     H98500  -0.423   5.547   2.650  0.6073  0.6613  1.4348
  730MOL0     H98501  -0.771   5.426   2.788 -0.3939  1.8307  1.8916
  730MOL0     H98502  -0.995   5.497   2.451  0.3070  0.0867 -0.2907
  730MOL0     H98503  -0.956   5.349   2.523  0.5317  0.5799 -2.5310
  730MOL0     H98504  -1.053   5.588   2.704 -1.4470  0.4023 -1.1214
  730MOL0     H98505  -1.039   5.420   2.753 -3.0996 -2.8204 -1.2297
  730MOL0     H98506  -1.229   5.373   2.597 -0.0055  0.0759 -2.0334
  730MOL0     H98507  -1.245   5.535   2.543  1.3256  1.2486 -0.9999
  730MOL0     H98508  -1.416   5.511   2.712  0.4210  0.3870 -2.0119
  730MOL0     H98509  -1.285   5.598   2.799  0.6790 -0.1238  1.2426
  730MOL0     H98510  -1.305   5.198   3.025 -0.6536 -0.7887  1.3121
  730MOL0     H98511  -1.390   5.056   3.171  0.3280 -0.2458  0.5714
  730MOL0     H98512  -1.413   5.146   3.324 -0.1727 -0.3769  0.8508
  730MOL0     H98513  -1.551   5.074   3.239  0.5442  0.1340 -0.2797
  730MOL0     H98514  -1.856   5.642   3.403 -0.8254  2.1992  4.2456
  730MOL0     H98515  -1.994   5.668   3.591 -2.5888 -0.2594  0.9873
  730MOL0     H98516  -2.114   5.659   3.778 -0.5299  0.4672 -0.1946
  730MOL0     H98517  -2.243   5.608   3.660 -1.4189 -2.8098  0.4402
  730MOL0     H98518  -2.231   5.573   3.956  2.1496  2.7633 -0.7555
  730MOL0     H98519  -2.354   5.675   3.868 -0.6591 -0.0689  0.7112
  730MOL0     H98520  -2.324   5.385   3.824 -1.7815 -0.8924 -2.8731
  730MOL0     H98521  -2.430   5.496   3.743 -1.3443 -0.1571  0.7232
  730MOL0     H98522  -2.417   5.413   4.044 -1.6133  0.8002  2.5121
  730MOL0     H98523  -2.514   5.546   3.990  2.4743  0.0982  1.1998
  730MOL0     H98524  -2.530   5.255   3.873 -1.2981 -1.2848  1.1705
  730MOL0     H98525  -2.656   5.393   3.860 -0.2344  0.8069  1.7534
  730MOL0     H98526  -2.572   5.237   4.116  0.0898  1.1948  2.1121
  730MOL0     H98527  -2.658   5.384   4.118  4.3171 -1.8373  3.1537
  730MOL0     H98528  -2.736   5.139   3.945  2.8178  0.2958  0.8062
  730MOL0     H98529  -2.844   5.268   3.981  1.9593 -0.0532 -2.7423
  730MOL0     H98530  -2.743   5.075   4.203  1.6777 -0.5494 -2.5736
  730MOL0     H98531  -2.879   5.056   4.107 -2.0658  1.3116  0.6213
  730MOL0     H98532  -2.010   5.236   3.618  0.1454 -1.1680 -1.9004
  730MOL0     H98533  -1.882   5.222   3.414 -3.1129  0.5355  0.1992
  730MOL0     H98534  -1.631   5.565   3.119  0.7279  0.8064  2.7234
  730MOL0     H98535  -1.483   5.584   2.942  0.8143  1.1929  0.6318
  730MOL0     H98536   0.428   6.010   2.721  0.4238  0.2221 -0.1959
  730MOL0     H98537   0.656   5.948   2.690 -0.6429 -0.3285  1.4600
  730MOL0     H98538   0.962   5.900   2.293 -1.4227  2.5695  2.9115
  730MOL0     H98539   1.187   5.913   2.211 -0.7751 -3.5244 -0.8349
  730MOL0     H98540   1.419   5.693   2.363 -3.7383  1.0409 -2.6931
  730MOL0     H98541   1.488   5.769   2.226  0.5502  1.5930  0.1698
  730MOL0     H98542   1.667   5.870   2.351  1.7445 -0.9783  0.1113
  730MOL0     H98543   1.674   5.688   2.349  1.2676  2.0442 -1.8952
  730MOL0     H98544   1.570   5.709   2.582  2.1604 -2.6048 -1.2083
  730MOL0     H98545   1.588   5.884   2.567  0.7336  0.8085  0.0111
  730MOL0     H98546   1.785   5.830   2.687  1.1653 -0.3143  0.0014
  730MOL0     H98547   1.843   5.849   2.529  1.5823 -0.6458  1.0333
  730MOL0     H98548   1.826   5.417   2.593 -0.9526  0.1979 -0.5475
  730MOL0     H98549   1.339   5.843   2.603 -1.0264 -1.8106  0.5703
  730MOL0     H98550   1.105   5.806   2.692  1.7837 -2.6649 -0.9995
  731MOL0     O98551   9.241   4.039   1.980  0.3545  0.5855 -0.2509
  731MOL0     C98552   9.174   3.939   1.992  0.5170 -0.4983 -0.1184
  731MOL0     O98553   9.152   3.873   2.109  0.3616 -0.5798 -0.2757
  731MOL0     C98554   9.212   3.906   2.234  1.0278 -0.4226  0.7058
  731MOL0     C98555   9.212   3.817   2.340 -0.1176  0.3012 -0.9128
  731MOL0     C98556   9.275   3.842   2.456 -0.9897  0.4778  0.2064
  731MOL0     C98557   9.325   3.963   2.487  0.8148 -0.1909  1.1834
  731MOL0     O98558   9.355   4.005   2.612 -0.1449  0.2544  0.1947
  731MOL0     C98559   9.313   3.918   2.724 -1.3714  0.8861 -0.3619
  731MOL0     C98560   9.291   3.995   2.855 -0.5756  0.4824  0.2979
  731MOL0     C98561   9.276   3.910   2.981 -0.5155 -0.1138  0.2996
  731MOL0     C98562   9.151   3.826   2.979  0.6839 -1.0836 -0.0272
  731MOL0     C98563   9.019   3.900   3.037  0.1636 -0.4075  0.2381
  731MOL0     C98564   8.893   3.842   2.973 -0.0843  0.5592  0.3135
  731MOL0     C98565   8.759   3.897   3.030  0.1947 -0.2790 -0.2192
  731MOL0     C98566   8.739   4.042   3.008 -0.0959 -0.4881 -0.6376
  731MOL0     N98567   8.604   4.090   3.051 -0.6326  0.5929 -0.1703
  731MOL0     C98568   8.574   4.158   3.170 -0.8772  1.1716  0.6175
  731MOL0     C98569   8.442   4.179   3.157  0.2361  0.1382  0.4100
  731MOL0     C98570   8.345   4.231   3.260 -0.0241  0.1218  0.1079
  731MOL0     C98571   8.195   4.270   3.213 -0.7883  0.0968 -0.7333
  731MOL0     C98572   8.113   4.343   3.318 -0.6674  0.8467  0.6228
  731MOL0     C98573   8.123   4.292   3.463  0.0963 -0.3734 -0.2250
  731MOL0     O98574   8.250   4.316   3.525  0.0645  0.1620  0.0281
  731MOL0     C98575   8.301   4.439   3.545 -0.4460 -0.4405 -0.3847
  731MOL0     C98576   8.439   4.439   3.575 -0.4280  0.3920  0.6304
  731MOL0     C98577   8.505   4.554   3.627  0.3963  0.7060  0.5957
  731MOL0     C98578   8.651   4.531   3.647  0.3164  0.7770  0.5468
  731MOL0     C98579   8.424   4.674   3.639  0.5946 -0.2454 -0.0412
  731MOL0     C98580   8.476   4.787   3.711 -0.8198  0.5283  0.5732
  731MOL0     O98581   8.561   4.760   3.815 -0.0335  0.1141 -0.0809
  731MOL0     C98582   8.651   4.854   3.858  0.4384 -0.5857 -0.1455
  731MOL0     C98583   8.742   4.920   3.783  0.1486  0.1208  1.7542
  731MOL0     C98584   8.855   4.990   3.834  0.0368  0.6223  0.6286
  731MOL0     C98585   8.871   4.998   3.972 -0.5073  0.0902  0.0317
  731MOL0     O98586   9.000   5.045   4.005 -0.7758 -0.2823 -0.8322
  731MOL0     C98587   9.021   5.080   4.141 -0.2567 -0.2424 -0.3786
  731MOL0     C98588   9.170   5.072   4.171  0.1656 -0.8510  0.4188
  731MOL0     C98589   9.250   5.183   4.098 -0.1549  0.7305  0.4495
  731MOL0     C98590   9.399   5.173   4.142 -0.4509  0.4734  0.1321
  731MOL0     C98591   9.508   5.242   4.055 -0.6591 -0.1598  1.1047
  731MOL0     C98592   9.507   5.189   3.914  0.0726 -0.4423  0.3856
  731MOL0     C98593   9.616   5.255   3.824 -0.1940  0.4665  0.5092
  731MOL0     C98594   9.648   5.164   3.709  0.5015 -1.0153  0.4406
  731MOL0    Cl98595   9.732   5.026   3.768 -0.3313 -0.2829 -0.3922
  731MOL0     C98596   8.779   4.934   4.054  0.8082 -0.0682 -0.2412
  731MOL0     C98597   8.674   4.858   3.999  0.8391 -0.0613 -0.3562
  731MOL0     O98598   8.442   4.900   3.678  0.2625  0.2421  0.2473
  731MOL0     C98599   8.293   4.667   3.604 -0.3938  0.4636  0.2281
  731MOL0     C98600   8.222   4.551   3.555 -0.2457  0.5694 -0.1882
  731MOL0     N98601   8.398   4.143   3.037  0.3857 -0.0834  1.2193
  731MOL0     N98602   8.494   4.087   2.978 -0.3116  0.4277 -0.2752
  731MOL0     C98603   9.315   4.064   2.385 -0.6591  1.1386 -0.2233
  731MOL0     C98604   9.264   4.036   2.262  0.8308  0.4405  0.6061
  731MOL0     C98605   9.081   3.913   1.878 -0.3030  0.7150 -0.1543
  731MOL0     C98606   8.984   3.810   1.891  1.3405  0.5490  0.7344
  731MOL0     C98607   8.886   3.791   1.800 -0.8770  0.1946  0.0137
  731MOL0     C98608   8.887   3.873   1.686 -0.2562  0.1034  0.0826
  731MOL0     O98609   8.797   3.855   1.579 -0.0015  0.3538 -0.0048
  731MOL0     C98610   8.660   3.838   1.602 -0.1493  0.1000  1.4887
  731MOL0     C98611   8.622   3.701   1.552 -0.4024  0.7184  0.1088
  731MOL0     C98612   8.491   3.637   1.604 -0.7984  0.0633 -0.4022
  731MOL0     C98613   8.457   3.507   1.534 -0.3818 -0.6791 -0.3300
  731MOL0     C98614   8.319   3.476   1.561  0.1591 -0.8231  0.1906
  731MOL0     C98615   8.212   3.445   1.616  0.4083 -0.7423  0.0345
  731MOL0     C98616   8.974   3.976   1.675 -0.6291 -0.8218 -0.0784
  731MOL0     C98617   9.078   3.999   1.760  0.5617 -0.2794 -0.1092
  731MOL0     H98618   9.157   3.724   2.329 -3.1831  2.0921 -2.0226
  731MOL0     H98619   9.279   3.767   2.534 -0.9566 -2.0577 -2.0799
  731MOL0     H98620   9.215   3.877   2.698  0.2430 -4.2836  0.6931
  731MOL0     H98621   9.384   3.839   2.748  1.7841  3.3999 -0.6739
  731MOL0     H98622   9.390   4.040   2.874 -0.5993  0.6900 -0.0512
  731MOL0     H98623   9.219   4.076   2.842 -1.0658 -0.1656 -1.2218
  731MOL0     H98624   9.366   3.848   2.973  1.2536  2.2451  0.8695
  731MOL0     H98625   9.291   3.967   3.073  1.1858 -1.0318  0.6333
  731MOL0     H98626   9.142   3.790   2.876 -0.2869 -0.2279 -0.2567
  731MOL0     H98627   9.181   3.738   3.037  0.2848 -0.1839  1.6047
  731MOL0     H98628   9.035   3.887   3.144  0.9959  0.7465  0.2762
  731MOL0     H98629   9.036   4.006   3.016 -1.1242  0.1532  1.8406
  731MOL0     H98630   8.884   3.860   2.865 -1.7087  0.8174  0.4701
  731MOL0     H98631   8.906   3.734   2.984  0.2306  0.3710 -1.5473
  731MOL0     H98632   8.674   3.843   2.988 -1.0046  1.0116  0.4689
  731MOL0     H98633   8.758   3.874   3.137  0.0780 -1.8137 -0.5266
  731MOL0     H98634   8.754   4.063   2.902  0.2829  0.0445 -0.4853
  731MOL0     H98635   8.813   4.081   3.079  0.6937 -1.6421 -0.7919
  731MOL0     H98636   8.633   4.184   3.257 -2.9008  3.8834  1.3155
  731MOL0     H98637   8.345   4.162   3.345  1.7192  0.4699  0.4261
  731MOL0     H98638   8.393   4.324   3.290  0.2829  0.0628 -0.1904
  731MOL0     H98639   8.140   4.178   3.194 -0.1109  0.0759 -2.8073
  731MOL0     H98640   8.210   4.334   3.126  0.0304  0.7619 -0.1264
  731MOL0     H98641   8.011   4.323   3.284  0.8635 -1.0884 -3.5050
  731MOL0     H98642   8.121   4.452   3.315 -1.5144  1.0923  3.5723
  731MOL0     H98643   8.115   4.183   3.459  0.0002 -0.4142  0.8002
  731MOL0     H98644   8.037   4.326   3.522  0.1109 -2.4855  1.1338
  731MOL0     H98645   8.498   4.354   3.543 -1.8851 -0.3556 -0.1866
  731MOL0     H98646   8.686   4.458   3.573 -1.3338  0.5783 -0.0943
  731MOL0     H98647   8.703   4.623   3.620 -2.5527  2.2098 -0.5161
  731MOL0     H98648   8.672   4.504   3.751 -1.7969  0.1444  0.8664
  731MOL0     H98649   8.714   4.908   3.679 -0.3421  0.5834  1.8281
  731MOL0     H98650   8.936   5.027   3.772  0.3569 -2.1074 -0.7641
  731MOL0     H98651   8.994   5.184   4.158 -0.2739 -0.3346  0.1607
  731MOL0     H98652   8.975   5.025   4.223  0.5309  1.5144  1.3190
  731MOL0     H98653   9.174   5.095   4.278 -3.4635  4.0254 -0.1402
  731MOL0     H98654   9.197   4.969   4.147 -1.2219 -1.0663 -0.3718
  731MOL0     H98655   9.218   5.286   4.119  1.2736  0.7187  3.0900
  731MOL0     H98656   9.241   5.164   3.991  0.7373  5.2416 -0.6118
  731MOL0     H98657   9.393   5.212   4.244 -4.6661  1.1341 -0.1836
  731MOL0     H98658   9.413   5.065   4.150  1.2454  0.7258  0.9946
  731MOL0     H98659   9.606   5.228   4.101  0.9538 -0.1146 -2.0413
  731MOL0     H98660   9.498   5.349   4.036  1.4308 -0.4810 -2.8971
  731MOL0     H98661   9.520   5.080   3.922 -1.4359 -0.7663 -0.9917
  731MOL0     H98662   9.414   5.219   3.866  1.9249  3.8949 -0.9930
  731MOL0     H98663   9.714   5.279   3.868  1.0958 -0.3631 -1.7157
  731MOL0     H98664   9.571   5.348   3.789 -4.3665 -1.0508  1.2876
  731MOL0     H98665   9.702   5.229   3.638 -2.0970 -1.5520 -2.1896
  731MOL0     H98666   9.561   5.134   3.650 -0.2717  0.5198  0.7431
  731MOL0     H98667   8.785   4.932   4.162  1.0160 -1.4824 -0.2620
  731MOL0     H98668   8.603   4.807   4.063 -0.0203 -0.3790 -1.5172
  731MOL0     H98669   8.225   4.749   3.622 -2.4868 -1.6105  2.7045
  731MOL0     H98670   8.114   4.552   3.554 -0.2406  1.1992 -0.4224
  731MOL0     H98671   9.358   4.161   2.408 -0.3989  0.8190  0.7263
  731MOL0     H98672   9.280   4.119   2.194  4.2811 -1.0802 -0.6664
  731MOL0     H98673   8.986   3.754   1.984 -0.3130  2.0525  1.7476
  731MOL0     H98674   8.835   3.696   1.816  0.0165  0.1324  3.2108
  731MOL0     H98675   8.627   3.837   1.706 -1.9814 -1.2082  0.9488
  731MOL0     H98676   8.610   3.924   1.555 -0.2262  0.3562  2.0278
  731MOL0     H98677   8.708   3.636   1.571 -1.3807 -1.2142 -1.5669
  731MOL0     H98678   8.615   3.701   1.443  1.7821 -3.2182 -0.2366
  731MOL0     H98679   8.415   3.712   1.579  2.1481  2.5281 -2.6155
  731MOL0     H98680   8.506   3.629   1.712  3.7158 -1.8608 -0.9564
  731MOL0     H98681   8.512   3.419   1.570 -1.1373 -0.7537  0.7140
  731MOL0     H98682   8.479   3.511   1.427  1.1913  0.5883  0.0053
  731MOL0     H98683   8.120   3.428   1.669  0.7796  0.1782  1.0127
  731MOL0     H98684   8.981   4.029   1.581  3.0070 -3.7004 -1.6763
  731MOL0     H98685   9.152   4.078   1.751 -0.3440  0.6084  0.0961
  732MOL0     O98686   1.576   3.321  10.063 -0.7075  0.9864 -0.0782
  732MOL0     C98687   1.562   3.227  10.141 -0.4208  0.4445  0.6512
  732MOL0     O98688   1.448   3.170  10.171  0.5739  0.0352  0.1257
  732MOL0     C98689   1.328   3.188  10.099 -0.3311 -0.7093 -0.0464
  732MOL0     C98690   1.204   3.206  10.164  0.0894  0.1607  0.1974
  732MOL0     C98691   1.085   3.205  10.093 -0.5493 -0.2736  0.3255
  732MOL0     C98692   1.076   3.202   9.954 -1.1635 -0.2017 -0.0523
  732MOL0     O98693   0.973   3.219   9.865 -0.1908 -0.2709  0.0787
  732MOL0     C98694   0.855   3.270   9.917  0.4526  0.1198 -0.0058
  732MOL0     C98695   0.759   3.150   9.951  0.8378 -0.3583  0.8412
  732MOL0     C98696   0.608   3.185   9.965 -0.0942 -1.5894  0.0234
  732MOL0     C98697   0.522   3.074  10.011  0.7346  0.0404  0.7490
  732MOL0     C98698   0.380   3.129  10.015  0.1930  0.3067 -0.1502
  732MOL0     C98699   0.276   3.026  10.048 -0.5787  0.2890  0.1998
  732MOL0     C98700   0.229   2.935   9.936  0.3629 -0.2017 -0.5280
  732MOL0     C98701   0.145   2.819   9.993  1.0586  0.2990  0.3288
  732MOL0     N98702   0.024   2.865  10.063  0.4933  0.1983 -0.2377
  732MOL0     C98703  -0.096   2.874   9.994  0.4979  0.5606  0.2018
  732MOL0     C98704  -0.184   2.873  10.094 -0.1147 -0.5960 -0.4204
  732MOL0     C98705  -0.333   2.890  10.071 -0.0804  0.1699 -0.7384
  732MOL0     C98706  -0.402   2.772   9.990  0.4013 -0.6175 -0.7424
  732MOL0     C98707  -0.362   2.627  10.012  0.7910 -0.2070 -0.1087
  732MOL0     C98708  -0.378   2.590  10.155 -0.7841 -1.0083 -0.0429
  732MOL0     O98709  -0.508   2.623  10.206  0.0124  0.8203 -0.6206
  732MOL0     C98710  -0.558   2.552  10.316 -0.2759  0.2971  0.4776
  732MOL0     C98711  -0.491   2.454  10.395  0.5154  0.6705  0.0640
  732MOL0     C98712  -0.562   2.394  10.501  0.6154  0.2204 -0.7338
  732MOL0     C98713  -0.463   2.318  10.591  0.8927 -0.0584  0.4412
  732MOL0     C98714  -0.696   2.411  10.522  0.0500  0.3007 -0.7555
  732MOL0     C98715  -0.784   2.347  10.627  0.0894 -0.0353 -0.2021
  732MOL0     O98716  -0.914   2.390  10.638 -0.9483 -0.2721 -0.8511
  732MOL0     C98717  -1.005   2.317  10.708 -0.1664  0.5537  0.1869
  732MOL0     C98718  -1.127   2.390  10.725  0.4829 -0.1523  0.8026
  732MOL0     C98719  -1.239   2.325  10.773  0.4855 -0.8653  0.2460
  732MOL0     C98720  -1.242   2.191  10.804  0.6693  0.6806 -0.1557
  732MOL0     O98721  -1.355   2.118  10.843 -0.1176  0.2740  0.3664
  732MOL0     C98722  -1.482   2.171  10.802  0.7810  1.0817  0.2409
  732MOL0     C98723  -1.572   2.062  10.763 -0.6062 -0.6582 -0.3508
  732MOL0     C98724  -1.721   2.098  10.756  0.3893  0.3162 -0.5181
  732MOL0     C98725  -1.748   2.209  10.660 -0.1276  0.5670 -0.2915
  732MOL0     C98726  -1.908   2.210  10.617  0.0600 -0.0327  1.1127
  732MOL0     C98727  -1.928   2.347  10.541 -0.6559 -0.3460 -0.0167
  732MOL0     C98728  -2.060   2.347  10.461 -1.1121 -0.3957  0.5153
  732MOL0     C98729  -2.089   2.495  10.425 -0.8900  0.9627  0.1953
  732MOL0    Cl98730  -2.267   2.513  10.393  0.2588  0.3699 -0.2542
  732MOL0     C98731  -1.123   2.117  10.787 -0.1811 -0.3062 -0.4730
  732MOL0     C98732  -1.007   2.179  10.746 -0.9595 -0.3889 -0.1036
  732MOL0     O98733  -0.735   2.263  10.700 -0.1775  0.8753 -0.3742
  732MOL0     C98734  -0.763   2.502  10.441 -0.2466  0.4401  0.5832
  732MOL0     C98735  -0.698   2.571  10.344 -0.1435 -0.0643 -0.3356
  732MOL0     N98736  -0.116   2.853  10.216 -0.0545 -0.3079 -0.0510
  732MOL0     N98737   0.005   2.848  10.193  0.0960  0.0512 -1.1868
  732MOL0     C98738   1.201   3.189   9.892  0.1068 -0.2929  0.0656
  732MOL0     C98739   1.324   3.185   9.959  0.4166 -0.1135  0.6953
  732MOL0     C98740   1.684   3.166  10.199 -0.0955 -0.1259  0.4564
  732MOL0     C98741   1.808   3.216  10.153 -0.0377 -0.8790 -0.7101
  732MOL0     C98742   1.930   3.159  10.196  0.4082  0.1051  0.1975
  732MOL0     C98743   1.927   3.055  10.285 -1.3278 -0.3113 -0.6868
  732MOL0     O98744   2.049   2.992  10.301  0.5107 -0.7045  0.4044
  732MOL0     C98745   2.058   2.885  10.406 -0.6773  0.4163  0.2078
  732MOL0     C98746   2.217   2.871  10.436  0.0362 -0.1804 -0.4114
  732MOL0     C98747   2.240   2.757  10.539  0.2267 -0.0174 -0.0450
  732MOL0     C98748   2.214   2.612  10.491 -0.1167 -0.6236 -0.4006
  732MOL0     C98749   2.296   2.569  10.376  0.8582  0.5911  0.1432
  732MOL0     C98750   2.347   2.506  10.284  0.4094 -0.1073  1.1838
  732MOL0     C98751   1.807   3.013  10.339 -0.0258  0.3651  0.1563
  732MOL0     C98752   1.683   3.068  10.297 -0.1256  0.0025 -0.1837
  732MOL0     H98753   1.200   3.222  10.272 -1.7138  0.0674  0.1688
  732MOL0     H98754   1.000   3.215  10.160 -0.1897 -2.0378  1.1170
  732MOL0     H98755   0.870   3.325  10.010  1.5520 -2.3693  1.3734
  732MOL0     H98756   0.812   3.336   9.841  0.4611 -0.4751 -0.5398
  732MOL0     H98757   0.759   3.075   9.871 -3.3615  0.7622 -0.4415
  732MOL0     H98758   0.797   3.112  10.046 -0.5460  0.5452  1.7870
  732MOL0     H98759   0.606   3.264  10.041  1.8449  1.1311 -2.5064
  732MOL0     H98760   0.578   3.227   9.868 -0.6147 -1.0094  0.4201
  732MOL0     H98761   0.527   2.994   9.936 -1.7841 -1.4897  2.0381
  732MOL0     H98762   0.558   3.034  10.106  1.6360 -0.2224  0.3127
  732MOL0     H98763   0.368   3.215  10.082 -2.0014 -1.2015  1.5637
  732MOL0     H98764   0.359   3.159   9.912  2.9758  2.6185 -0.1635
  732MOL0     H98765   0.301   2.949  10.121 -1.9652 -2.8453 -2.3703
  732MOL0     H98766   0.192   3.090  10.076 -1.8453 -1.1055 -0.3240
  732MOL0     H98767   0.160   2.990   9.871 -1.1271 -2.1296 -0.6862
  732MOL0     H98768   0.310   2.910   9.866  1.1399  0.7442  0.0055
  732MOL0     H98769   0.208   2.757  10.058 -0.2562 -0.4946  0.8759
  732MOL0     H98770   0.115   2.749   9.914 -1.2409  1.8742 -0.2932
  732MOL0     H98771  -0.124   2.879   9.890 -2.0899 -0.3155  0.7899
  732MOL0     H98772  -0.378   2.901  10.170  0.0370  1.9716 -0.8473
  732MOL0     H98773  -0.364   2.977  10.013 -0.3708  0.8251  0.3815
  732MOL0     H98774  -0.402   2.795   9.883 -0.6773  2.2046 -0.2396
  732MOL0     H98775  -0.507   2.780  10.020  0.5986 -0.7807  0.0258
  732MOL0     H98776  -0.258   2.616   9.978  0.1312  1.8362 -3.1793
  732MOL0     H98777  -0.424   2.562   9.950  0.1125 -2.1800  2.4830
  732MOL0     H98778  -0.304   2.640  10.218  0.6602 -1.2659 -1.4426
  732MOL0     H98779  -0.349   2.484  10.157 -0.9284 -1.0395  0.3458
  732MOL0     H98780  -0.385   2.447  10.376  1.0352 -1.6338  3.1073
  732MOL0     H98781  -0.510   2.253  10.666 -0.8654 -1.2847 -1.5876
  732MOL0     H98782  -0.415   2.252  10.518 -3.2567  0.1216 -2.8034
  732MOL0     H98783  -0.402   2.397  10.634  1.2577 -0.4836  0.7155
  732MOL0     H98784  -1.126   2.493  10.692  2.7108 -0.4933 -0.3942
  732MOL0     H98785  -1.328   2.386  10.789  1.1970 -0.4561  3.2287
  732MOL0     H98786  -1.512   2.237  10.884 -0.9834  1.7702 -0.9018
  732MOL0     H98787  -1.474   2.236  10.714 -0.7442  2.3314  0.9785
  732MOL0     H98788  -1.536   2.017  10.671  4.3856 -0.3438  1.1767
  732MOL0     H98789  -1.559   1.980  10.834  1.6435  0.0947  0.2013
  732MOL0     H98790  -1.772   2.128  10.848  2.9446 -0.4039  1.2514
  732MOL0     H98791  -1.764   2.002  10.726 -1.6206  0.5083  1.4422
  732MOL0     H98792  -1.709   2.308  10.685 -0.1971  0.2385  1.2124
  732MOL0     H98793  -1.701   2.191  10.563  1.1387  0.0147  0.4035
  732MOL0     H98794  -1.976   2.201  10.701 -0.4394  2.3817  1.0436
  732MOL0     H98795  -1.926   2.133  10.541 -0.2914  1.5108 -0.4236
  732MOL0     H98796  -1.920   2.419  10.623  1.2602  0.8619 -1.2094
  732MOL0     H98797  -1.844   2.345  10.472 -0.6018  0.6047  0.0114
  732MOL0     H98798  -2.142   2.319  10.526 -1.3505  1.7192  1.2016
  732MOL0     H98799  -2.049   2.294  10.366  3.8656  3.7770 -1.8260
  732MOL0     H98800  -2.029   2.516  10.336 -0.1338 -2.8713 -0.4013
  732MOL0     H98801  -2.066   2.560  10.510 -1.8559  1.2137  0.2743
  732MOL0     H98802  -1.120   2.011  10.813  1.9367 -0.5438 -1.4899
  732MOL0     H98803  -0.922   2.113  10.730  0.0537  0.9978 -0.6330
  732MOL0     H98804  -0.870   2.515  10.449 -0.1374  2.1523 -0.2445
  732MOL0     H98805  -0.756   2.640  10.284 -0.2433  2.6586  2.6174
  732MOL0     H98806   1.196   3.191   9.784  2.1474  2.6524 -0.0805
  732MOL0     H98807   1.412   3.185   9.895  0.3101  0.4327  0.5378
  732MOL0     H98808   1.815   3.298  10.082  1.4218 -0.5897 -0.2745
  732MOL0     H98809   2.028   3.196  10.168  0.3558 -0.8305 -1.3144
  732MOL0     H98810   2.005   2.920  10.496 -1.1822 -0.8391  0.4261
  732MOL0     H98811   2.017   2.792  10.366 -1.5734 -0.0192  1.9953
  732MOL0     H98812   2.260   2.961  10.481  2.5800 -1.8810  0.8378
  732MOL0     H98813   2.260   2.856  10.337 -1.9514  1.7350 -1.6407
  732MOL0     H98814   2.174   2.782  10.623 -1.1289  3.3128 -1.8664
  732MOL0     H98815   2.340   2.772  10.580  1.8199  0.0569 -3.6191
  732MOL0     H98816   2.113   2.598  10.452 -0.1063  0.4124 -0.8347
  732MOL0     H98817   2.238   2.554  10.581  0.2061  2.4706  1.6695
  732MOL0     H98818   2.402   2.453  10.209 -2.1672 -0.4199 -0.6368
  732MOL0     H98819   1.811   2.937  10.416  1.8739 -1.4638 -1.6008
  732MOL0     H98820   1.596   3.039  10.355  1.1598  1.3725  2.6572
  733MOL0     O98821   9.335   5.321   6.494 -0.0803  0.8846  0.6299
  733MOL0     C98822   9.406   5.246   6.568  0.9010 -0.1501  0.7141
  733MOL0     O98823   9.451   5.125   6.535 -0.4001  0.0296 -0.2489
  733MOL0     C98824   9.430   5.072   6.413 -0.1506 -0.1095  0.2767
  733MOL0     C98825   9.395   4.937   6.400 -0.3691 -0.4246 -1.1989
  733MOL0     C98826   9.388   4.884   6.271  0.8384  0.5977  0.8578
  733MOL0     C98827   9.397   4.953   6.153  0.3191 -0.9969  0.1507
  733MOL0     O98828   9.369   4.902   6.022  0.9061 -0.5149 -0.2290
  733MOL0     C98829   9.301   4.776   6.016 -0.3009 -0.5802  0.1362
  733MOL0     C98830   9.251   4.740   5.875  0.8511  0.5620 -0.1179
  733MOL0     C98831   9.374   4.672   5.796  0.1797 -0.2792  0.2443
  733MOL0     C98832   9.341   4.611   5.668 -0.0906  0.1170 -0.6512
  733MOL0     C98833   9.245   4.495   5.684 -0.2694  0.0139  1.5618
  733MOL0     C98834   9.146   4.492   5.575  0.1876  0.1255  0.1923
  733MOL0     C98835   9.116   4.343   5.542  0.2729 -0.4249 -0.4398
  733MOL0     C98836   9.010   4.299   5.439  0.2629 -0.6508 -0.3883
  733MOL0     N98837   8.885   4.361   5.470 -0.3563  0.8874 -1.1909
  733MOL0     C98838   8.839   4.486   5.442 -0.0483 -0.2131 -0.2021
  733MOL0     C98839   8.703   4.477   5.460 -0.1177 -0.1297  0.3028
  733MOL0     C98840   8.606   4.586   5.433  0.0925  0.2300 -0.0442
  733MOL0     C98841   8.551   4.575   5.295 -0.0483  0.0532  0.2773
  733MOL0     C98842   8.436   4.675   5.282  0.1521  0.4242 -0.6844
  733MOL0     C98843   8.383   4.674   5.139 -0.5779 -0.5802  0.6382
  733MOL0     O98844   8.263   4.748   5.139 -0.6597 -0.3060 -0.5780
  733MOL0     C98845   8.203   4.744   5.016  0.4286  0.0966  0.6645
  733MOL0     C98846   8.249   4.824   4.912  0.1939  0.1458 -0.2227
  733MOL0     C98847   8.183   4.839   4.790  0.8309  0.2769 -0.3226
  733MOL0     C98848   8.239   4.930   4.687  0.1164 -1.0525  0.0998
  733MOL0     C98849   8.070   4.749   4.767  0.9540  0.7597 -0.7523
  733MOL0     C98850   7.986   4.760   4.643  0.2690 -1.3230  0.0243
  733MOL0     O98851   7.871   4.680   4.649  0.3367  0.4849 -0.2011
  733MOL0     C98852   7.778   4.693   4.544  0.7660  0.4174 -0.4446
  733MOL0     C98853   7.683   4.790   4.554  0.4634 -0.4796 -0.1413
  733MOL0     C98854   7.588   4.809   4.452 -0.5304  0.3566 -0.6178
  733MOL0     C98855   7.590   4.733   4.332 -0.2750 -0.1111 -0.9772
  733MOL0     O98856   7.513   4.753   4.220 -0.5697 -0.6693  0.6337
  733MOL0     C98857   7.497   4.889   4.185  0.0345 -0.8031  0.0344
  733MOL0     C98858   7.460   4.926   4.040  0.2481  0.7959 -1.1093
  733MOL0     C98859   7.577   4.919   3.949  0.2741  1.1006  0.4421
  733MOL0     C98860   7.602   5.057   3.891  0.0383 -0.6109  0.7162
  733MOL0     C98861   7.695   5.046   3.772 -0.0816  0.1503 -0.3362
  733MOL0     C98862   7.733   5.189   3.726  0.5262  0.8205  0.7063
  733MOL0     C98863   7.839   5.178   3.616  0.5411 -0.1851 -0.0240
  733MOL0     C98864   7.806   5.273   3.507 -0.2839  0.5258  0.4322
  733MOL0    Cl98865   7.842   5.440   3.559 -0.2322 -0.1415 -0.2419
  733MOL0     C98866   7.681   4.630   4.331 -0.4009  0.6591 -1.1021
  733MOL0     C98867   7.767   4.609   4.437 -0.8210  0.1471 -0.8336
  733MOL0     O98868   8.001   4.850   4.565  0.0068 -0.2741  0.0655
  733MOL0     C98869   8.036   4.650   4.876  0.3451 -0.3910  0.0421
  733MOL0     C98870   8.103   4.654   5.002 -0.3476  0.1674 -0.0737
  733MOL0     N98871   8.675   4.354   5.511  0.2177  0.2017  0.0450
  733MOL0     N98872   8.780   4.292   5.514 -0.5779 -0.2954 -0.2585
  733MOL0     C98873   9.431   5.090   6.167  0.5727 -0.7790  1.1335
  733MOL0     C98874   9.445   5.150   6.290  0.3312  0.4119 -0.5533
  733MOL0     C98875   9.456   5.294   6.698  0.5356 -0.0212  0.4097
  733MOL0     C98876   9.456   5.430   6.725 -0.3525 -0.5028  0.2775
  733MOL0     C98877   9.501   5.481   6.844 -0.8210 -0.0543 -0.6989
  733MOL0     C98878   9.565   5.402   6.947  1.1031  0.2537 -0.1347
  733MOL0     O98879   9.626   5.454   7.057 -0.0742  0.0954 -1.0400
  733MOL0     C98880   9.621   5.605   7.078 -0.3649  0.7602  0.7215
  733MOL0     C98881   9.693   5.636   7.202 -0.0584 -0.5673 -0.4440
  733MOL0     C98882   9.726   5.785   7.206  0.1521 -0.6333 -0.2153
  733MOL0     C98883   9.785   5.859   7.326  0.4739 -0.4427  0.7452
  733MOL0     C98884   9.890   5.782   7.390 -0.1038  0.8141 -0.3320
  733MOL0     C98885   9.976   5.717   7.449 -0.3154 -0.4921 -0.0043
  733MOL0     C98886   9.559   5.258   6.914  0.4342  0.1609  0.2678
  733MOL0     C98887   9.505   5.208   6.799  0.4862 -1.6064 -0.5060
  733MOL0     H98888   9.373   4.877   6.488  1.0178  2.4760  1.3353
  733MOL0     H98889   9.351   4.781   6.265 -0.1468  1.0195 -1.7034
  733MOL0     H98890   9.363   4.696   6.056 -4.7301 -5.0074 -0.7846
  733MOL0     H98891   9.213   4.794   6.080  0.4970  1.1782  0.8273
  733MOL0     H98892   9.162   4.677   5.890 -1.5669  3.0204 -2.8572
  733MOL0     H98893   9.226   4.836   5.828 -4.8053 -0.9993 -1.0784
  733MOL0     H98894   9.438   4.756   5.766 -3.4322  2.2345 -1.0755
  733MOL0     H98895   9.426   4.603   5.863  3.0157 -0.1925 -1.6713
  733MOL0     H98896   9.292   4.688   5.608  0.1827  0.8775  0.0738
  733MOL0     H98897   9.424   4.586   5.602 -0.5844 -1.0035 -0.8627
  733MOL0     H98898   9.300   4.400   5.687  2.2550  1.2164 -1.5306
  733MOL0     H98899   9.194   4.500   5.780 -0.4714  0.1882  1.4446
  733MOL0     H98900   9.049   4.533   5.603 -0.8331 -1.0445 -1.4450
  733MOL0     H98901   9.181   4.549   5.489 -2.5432 -0.2819 -1.3147
  733MOL0     H98902   9.210   4.314   5.494  0.2737  1.5023 -1.7065
  733MOL0     H98903   9.093   4.292   5.636 -1.0781 -2.1877 -1.6574
  733MOL0     H98904   8.993   4.191   5.441  2.3724 -1.0596 -1.5116
  733MOL0     H98905   9.049   4.326   5.341  1.7137  0.1892  0.3803
  733MOL0     H98906   8.906   4.559   5.396  1.5722 -1.1495  0.5873
  733MOL0     H98907   8.535   4.570   5.515  1.1155 -3.4982  0.3007
  733MOL0     H98908   8.643   4.685   5.460 -2.5457  0.8021  1.8426
  733MOL0     H98909   8.515   4.471   5.295  2.8310 -1.0315 -0.3561
  733MOL0     H98910   8.629   4.594   5.221 -1.2476  0.7767 -0.8425
  733MOL0     H98911   8.477   4.771   5.316  1.4547 -0.2812 -0.1930
  733MOL0     H98912   8.357   4.655   5.354  0.7297 -0.1201 -0.1905
  733MOL0     H98913   8.369   4.570   5.109  3.6053 -0.5543 -2.3796
  733MOL0     H98914   8.457   4.716   5.069 -3.5815  0.4235 -2.1698
  733MOL0     H98915   8.333   4.881   4.952  1.5560 -0.8929 -1.5006
  733MOL0     H98916   8.255   4.880   4.591 -2.2984 -3.4976  0.8331
  733MOL0     H98917   8.168   5.013   4.688 -2.1519 -2.8973  0.3166
  733MOL0     H98918   8.339   4.957   4.725 -0.0467 -0.5102  0.1491
  733MOL0     H98919   7.682   4.852   4.643  1.8087 -0.5573 -0.0548
  733MOL0     H98920   7.520   4.892   4.464 -0.8154 -0.1298  1.6028
  733MOL0     H98921   7.412   4.933   4.238  1.4064  2.6404 -0.3703
  733MOL0     H98922   7.584   4.951   4.211 -0.8691 -0.0435  1.3772
  733MOL0     H98923   7.375   4.865   4.006 -0.8738  0.2042  2.2759
  733MOL0     H98924   7.417   5.026   4.029  0.6527  0.9524 -1.2558
  733MOL0     H98925   7.560   4.857   3.861  0.1925  0.6802  0.7546
  733MOL0     H98926   7.668   4.887   4.001 -0.4460  1.2794  1.8596
  733MOL0     H98927   7.510   5.099   3.850 -0.1406 -0.7440  0.9853
  733MOL0     H98928   7.648   5.122   3.966 -0.2545  0.0214  0.3544
  733MOL0     H98929   7.650   4.987   3.691 -2.1385  1.2662 -0.0644
  733MOL0     H98930   7.784   4.994   3.809  0.3752  0.1459 -1.3945
  733MOL0     H98931   7.639   5.227   3.685 -0.0031 -2.0323 -1.0524
  733MOL0     H98932   7.754   5.258   3.808 -1.1746  0.4189  1.5293
  733MOL0     H98933   7.859   5.078   3.577  6.0291  0.6240 -0.0428
  733MOL0     H98934   7.931   5.213   3.664  0.9782 -0.7628 -0.4374
  733MOL0     H98935   7.703   5.268   3.469  0.0954 -1.1177 -0.4176
  733MOL0     H98936   7.871   5.243   3.425  0.2803  3.4438 -0.2973
  733MOL0     H98937   7.675   4.561   4.248  0.6363 -0.1052 -0.5624
  733MOL0     H98938   7.823   4.516   4.429  0.6492  0.9233 -0.0004
  733MOL0     H98939   7.947   4.590   4.863 -0.1912  0.2563  0.6422
  733MOL0     H98940   8.084   4.591   5.088 -0.5041  0.9729  0.4848
  733MOL0     H98941   9.440   5.146   6.074  1.9207 -1.5299  0.7912
  733MOL0     H98942   9.460   5.257   6.304 -0.6692  0.6670 -1.3552
  733MOL0     H98943   9.404   5.503   6.663 -2.2629 -1.0759  1.1395
  733MOL0     H98944   9.498   5.589   6.851  1.6527  0.0906 -0.9942
  733MOL0     H98945   9.673   5.651   6.994 -0.7821  0.9044  0.5388
  733MOL0     H98946   9.521   5.650   7.076 -0.1314  1.2855  0.7887
  733MOL0     H98947   9.788   5.584   7.213  0.9455  1.3393  0.4999
  733MOL0     H98948   9.628   5.614   7.287 -1.0358  0.0077 -1.0316
  733MOL0     H98949   9.631   5.837   7.188  0.0996 -0.0641  1.5593
  733MOL0     H98950   9.782   5.807   7.114 -0.7566  0.9638 -0.4200
  733MOL0     H98951   9.713   5.884   7.404 -1.5292  1.5177 -1.5518
  733MOL0     H98952   9.837   5.951   7.296  2.4630 -1.4312  0.9817
  733MOL0     H98953  10.059   5.681   7.506  0.1241  0.2027 -0.1915
  733MOL0     H98954   9.602   5.190   6.987  3.0731 -0.0512 -1.3507
  733MOL0     H98955   9.496   5.100   6.790 -0.4522 -1.8457  2.2692
  734MOL0     O98956   2.382   3.936   4.622 -0.2651  0.1209 -0.0401
  734MOL0     C98957   2.445   3.887   4.527 -0.4306 -0.4194 -0.3494
  734MOL0     O98958   2.386   3.814   4.428  0.1987 -0.0422 -0.6076
  734MOL0     C98959   2.247   3.802   4.409 -0.4736  0.5817  0.6497
  734MOL0     C98960   2.149   3.896   4.446  0.3519 -0.2205  0.3033
  734MOL0     C98961   2.019   3.866   4.413  0.3059  0.0602  0.2445
  734MOL0     C98962   1.980   3.755   4.340  0.4027 -0.2443  0.3387
  734MOL0     O98963   1.847   3.758   4.302 -0.0455 -0.1424  0.6670
  734MOL0     C98964   1.812   3.669   4.190 -0.2024 -0.0981  0.5421
  734MOL0     C98965   1.666   3.683   4.162 -0.1982 -0.6405 -0.0061
  734MOL0     C98966   1.577   3.666   4.294 -0.3244 -0.3180  0.5702
  734MOL0     C98967   1.430   3.635   4.264  0.6794 -0.3220 -0.0593
  734MOL0     C98968   1.347   3.664   4.393  0.9835  0.5529 -0.3886
  734MOL0     C98969   1.200   3.630   4.365  0.0283 -0.4733 -1.0180
  734MOL0     C98970   1.119   3.669   4.497 -0.6654 -0.5236  0.1197
  734MOL0     C98971   0.989   3.583   4.509 -0.1863 -0.0575 -0.0435
  734MOL0     N98972   0.928   3.604   4.642 -0.2735  0.2795 -0.5554
  734MOL0     C98973   0.848   3.708   4.681 -0.5293  0.1898 -0.6495
  734MOL0     C98974   0.804   3.659   4.803 -0.5331 -0.7959  0.5146
  734MOL0     C98975   0.724   3.729   4.910 -0.2543 -0.4486 -0.0928
  734MOL0     C98976   0.588   3.773   4.856  0.7267 -0.0928  0.4126
  734MOL0     C98977   0.525   3.870   4.948 -0.0944 -0.0160  0.3997
  734MOL0     C98978   0.405   3.937   4.866  0.5937  0.4195 -0.6437
  734MOL0     O98979   0.323   3.833   4.811  0.1588  0.0462  0.1885
  734MOL0     C98980   0.191   3.839   4.786  0.3036  0.0779 -0.3554
  734MOL0     C98981   0.116   3.958   4.782 -0.8931  0.2301 -0.2313
  734MOL0     C98982  -0.023   3.964   4.763  0.7951 -0.4290 -0.8482
  734MOL0     C98983  -0.100   4.099   4.740 -0.1868 -0.6249 -0.3756
  734MOL0     C98984  -0.094   3.837   4.778 -0.4538  0.0421  0.3963
  734MOL0     C98985  -0.237   3.824   4.781  0.2137  0.2724 -0.3124
  734MOL0     O98986  -0.287   3.725   4.861  0.0385 -0.6132  1.0687
  734MOL0     C98987  -0.414   3.671   4.840  0.5806  0.5909  0.6846
  734MOL0     C98988  -0.437   3.550   4.906  0.2567  0.2508  0.4179
  734MOL0     C98989  -0.559   3.480   4.910 -0.4773  0.0069 -0.9309
  734MOL0     C98990  -0.667   3.539   4.854  0.5150  0.2144  0.0059
  734MOL0     O98991  -0.796   3.491   4.865  0.7469 -0.4113  0.5225
  734MOL0     C98992  -0.849   3.446   4.988 -0.6156  0.0422 -0.5241
  734MOL0     C98993  -0.988   3.396   4.957  0.3336 -0.0114 -0.1016
  734MOL0     C98994  -1.045   3.321   5.076 -0.4384  0.1201  0.4922
  734MOL0     C98995  -1.193   3.304   5.058 -0.0368  0.2613 -0.7265
  734MOL0     C98996  -1.231   3.214   5.178  0.9087  0.4139  0.2369
  734MOL0     C98997  -1.381   3.161   5.163  0.6284  1.0880 -0.2707
  734MOL0     C98998  -1.393   3.061   5.283  0.1196  0.0887  0.1478
  734MOL0     C98999  -1.529   3.057   5.348 -1.2421  0.1782  0.4507
  734MOL0    Cl99000  -1.531   2.935   5.492  0.1619 -0.2704 -0.2194
  734MOL0     C99001  -0.646   3.650   4.769  0.5255 -0.4551 -0.4293
  734MOL0     C99002  -0.523   3.721   4.759  0.2069  0.2925 -0.3602
  734MOL0     O99003  -0.299   3.889   4.697  0.2668 -0.0175 -0.2052
  734MOL0     C99004  -0.017   3.720   4.784  0.3438 -0.8633  0.5630
  734MOL0     C99005   0.122   3.723   4.774 -0.1200  0.5009  0.4989
  734MOL0     N99006   0.855   3.537   4.826 -0.0056 -0.0767  0.0772
  734MOL0     N99007   0.944   3.513   4.742 -0.5547 -0.1451  0.4130
  734MOL0     C99008   2.078   3.661   4.301 -1.1059 -0.7871  0.0763
  734MOL0     C99009   2.212   3.683   4.337  0.2856 -0.5977 -0.5259
  734MOL0     C99010   2.594   3.876   4.537  0.0369  0.0300  0.1392
  734MOL0     C99011   2.645   3.753   4.507  0.4480 -0.6086  0.0103
  734MOL0     C99012   2.778   3.727   4.531  1.1031 -0.2866 -0.8522
  734MOL0     C99013   2.855   3.828   4.591 -0.0567  0.0421 -0.9005
  734MOL0     O99014   2.982   3.785   4.613  0.0904  0.0295  0.0799
  734MOL0     C99015   3.072   3.894   4.643 -0.5394  0.8495 -0.5219
  734MOL0     C99016   3.226   3.849   4.640  0.6290  0.4517  0.2203
  734MOL0     C99017   3.316   3.964   4.682  0.3757  0.0530 -0.0832
  734MOL0     C99018   3.465   3.923   4.663  1.0386 -0.4400 -0.5937
  734MOL0     C99019   3.536   4.049   4.650 -0.9524  0.2382  0.8068
  734MOL0     C99020   3.615   4.148   4.658 -0.1624  0.4043 -0.3769
  734MOL0     C99021   2.798   3.951   4.633 -0.8870  0.7902  0.3183
  734MOL0     C99022   2.664   3.973   4.609 -0.7304 -0.4620 -0.7246
  734MOL0     H99023   2.171   3.982   4.507  0.6326  0.8826 -1.3048
  734MOL0     H99024   1.934   3.929   4.438 -0.4745 -0.8064 -0.1921
  734MOL0     H99025   1.872   3.691   4.101  2.8908  0.0506  2.5150
  734MOL0     H99026   1.826   3.562   4.210  1.1869  0.0727  0.5509
  734MOL0     H99027   1.649   3.776   4.106  0.8145 -1.2007 -1.3007
  734MOL0     H99028   1.634   3.603   4.095  0.9319  0.6665 -2.2312
  734MOL0     H99029   1.615   3.579   4.348 -0.7791 -2.4293 -2.3245
  734MOL0     H99030   1.584   3.759   4.351 -1.0935  0.6066 -0.7890
  734MOL0     H99031   1.395   3.698   4.181  2.3120  1.0125  0.2226
  734MOL0     H99032   1.419   3.532   4.228  0.0772 -0.6073  0.9031
  734MOL0     H99033   1.387   3.587   4.460 -0.0968 -0.3411 -0.7271
  734MOL0     H99034   1.366   3.764   4.433  2.8082 -0.3531  1.1662
  734MOL0     H99035   1.176   3.694   4.280  1.5658 -0.5389 -1.5266
  734MOL0     H99036   1.175   3.531   4.328 -2.0018 -0.7009  0.7766
  734MOL0     H99037   1.184   3.630   4.576 -2.0473  0.0427  1.5979
  734MOL0     H99038   1.098   3.774   4.518  2.1171  0.0938  0.2044
  734MOL0     H99039   1.006   3.476   4.492  0.7411 -0.0513  0.7672
  734MOL0     H99040   0.925   3.619   4.428  1.6142 -0.7849 -1.8714
  734MOL0     H99041   0.834   3.809   4.642 -0.3261 -0.6211 -2.9628
  734MOL0     H99042   0.699   3.668   4.997 -1.6295  3.6201  2.6527
  734MOL0     H99043   0.780   3.812   4.955  1.8423 -1.6063 -0.4332
  734MOL0     H99044   0.523   3.685   4.858 -1.8695  1.7163 -0.0234
  734MOL0     H99045   0.593   3.819   4.757 -1.5575  1.7074  1.0634
  734MOL0     H99046   0.582   3.960   4.973 -2.5484  2.0635 -1.0442
  734MOL0     H99047   0.499   3.817   5.040 -2.0144  1.0029  0.4742
  734MOL0     H99048   0.436   3.993   4.777  1.5613 -0.2323 -0.7305
  734MOL0     H99049   0.342   4.008   4.921 -0.0038  0.5277 -1.4494
  734MOL0     H99050   0.173   4.050   4.770  1.9056 -1.3308  0.2602
  734MOL0     H99051  -0.191   4.096   4.680  0.0773 -1.6819 -0.7656
  734MOL0     H99052  -0.138   4.146   4.831 -1.1410 -2.2836  0.1388
  734MOL0     H99053  -0.040   4.176   4.691  1.3063 -1.7536 -0.4027
  734MOL0     H99054  -0.352   3.520   4.966  0.2431  1.5947  1.1460
  734MOL0     H99055  -0.569   3.394   4.976 -5.1343  0.5899 -0.5174
  734MOL0     H99056  -0.785   3.368   5.030  0.4374  1.6935  1.1101
  734MOL0     H99057  -0.847   3.533   5.055  1.3728  2.4487 -3.4374
  734MOL0     H99058  -1.058   3.473   4.923 -2.4637 -2.8897 -1.3939
  734MOL0     H99059  -0.987   3.322   4.876 -1.7804 -0.7074  0.4332
  734MOL0     H99060  -1.019   3.377   5.167 -1.1375 -1.3293  1.6353
  734MOL0     H99061  -0.996   3.224   5.085  1.0045  0.6093 -1.4302
  734MOL0     H99062  -1.251   3.395   5.077 -1.1907 -0.8444  1.3349
  734MOL0     H99063  -1.221   3.256   4.964 -0.9627  1.7054 -1.2234
  734MOL0     H99064  -1.218   3.257   5.278 -0.0095 -0.1331  0.6067
  734MOL0     H99065  -1.174   3.121   5.177 -0.7324 -0.6302 -0.3091
  734MOL0     H99066  -1.453   3.242   5.177 -1.5534 -1.0623  1.7722
  734MOL0     H99067  -1.398   3.116   5.065  0.0014  1.9377 -0.5668
  734MOL0     H99068  -1.322   3.092   5.360  1.6393  3.0061 -2.1857
  734MOL0     H99069  -1.367   2.961   5.246  0.5259  1.3069 -3.2478
  734MOL0     H99070  -1.600   3.019   5.274 -2.9768  0.9866  1.6289
  734MOL0     H99071  -1.548   3.159   5.383 -0.3315  0.9894 -1.3080
  734MOL0     H99072  -0.726   3.705   4.721  1.1098  2.9449  2.1142
  734MOL0     H99073  -0.512   3.808   4.695 -1.3536  1.4421  0.8856
  734MOL0     H99074  -0.059   3.620   4.786 -1.0201 -0.3255  2.8932
  734MOL0     H99075   0.172   3.628   4.788  0.2126  0.5106 -0.5396
  734MOL0     H99076   2.055   3.581   4.232 -0.5004 -3.0856  2.3685
  734MOL0     H99077   2.284   3.615   4.293  2.8454  1.2482  0.5727
  734MOL0     H99078   2.587   3.672   4.463  1.6593 -1.2075 -0.5203
  734MOL0     H99079   2.827   3.634   4.503 -2.5162 -3.2599  1.6608
  734MOL0     H99080   3.053   3.974   4.571 -0.1184  2.2228  0.8417
  734MOL0     H99081   3.051   3.943   4.738 -0.1893  2.5865 -1.2990
  734MOL0     H99082   3.259   3.798   4.549  1.6782  1.5103 -0.0189
  734MOL0     H99083   3.235   3.773   4.719  2.3263  0.6481  0.2654
  734MOL0     H99084   3.301   3.983   4.789 -3.9753 -2.2379 -0.0609
  734MOL0     H99085   3.290   4.053   4.625  1.7172  1.7001  1.7121
  734MOL0     H99086   3.489   3.862   4.576 -0.2743 -1.1201 -0.5024
  734MOL0     H99087   3.505   3.862   4.745 -0.7582 -1.9249 -0.7690
  734MOL0     H99088   3.691   4.222   4.676  0.6759 -0.4320 -0.3643
  734MOL0     H99089   2.848   4.023   4.697 -1.6251  0.4630  1.2983
  734MOL0     H99090   2.618   4.061   4.652  1.3859  0.3059  0.1236
  735MOL0     O99091   2.131   5.754   7.981  0.4961  0.1789  0.2160
  735MOL0     C99092   2.100   5.871   8.000  0.0187  0.7822 -0.1164
  735MOL0     O99093   1.992   5.911   8.062  0.2980  0.8298 -0.0791
  735MOL0     C99094   1.894   5.816   8.099  0.0360 -0.8542 -0.0348
  735MOL0     C99095   1.762   5.840   8.046  0.1905 -0.1726 -1.2130
  735MOL0     C99096   1.665   5.746   8.090  0.4883  0.2003 -0.3398
  735MOL0     C99097   1.699   5.637   8.172 -0.6615  0.1276  0.2079
  735MOL0     O99098   1.611   5.542   8.211 -0.3544 -0.8947 -0.0189
  735MOL0     C99099   1.474   5.588   8.241 -0.9137  0.5240  0.4058
  735MOL0     C99100   1.373   5.495   8.181  0.1741  0.0644  0.5549
  735MOL0     C99101   1.380   5.498   8.034 -0.9525 -0.1728 -0.1590
  735MOL0     C99102   1.286   5.399   7.963 -0.1349 -0.2125  0.2279
  735MOL0     C99103   1.146   5.408   8.007 -0.6295  0.0585  0.4032
  735MOL0     C99104   1.043   5.322   7.936 -0.1280  0.4888  0.4188
  735MOL0     C99105   1.043   5.169   7.977  1.3085  0.5893  0.3466
  735MOL0     C99106   0.939   5.087   7.901  0.1633 -0.3497 -0.5812
  735MOL0     N99107   0.938   5.115   7.760 -0.6243 -0.2616 -0.0454
  735MOL0     C99108   1.043   5.097   7.671  0.2516  0.6091  0.3536
  735MOL0     C99109   0.998   5.152   7.555 -0.1084 -0.5494 -0.2196
  735MOL0     C99110   1.075   5.160   7.428  0.1205  0.2198  0.0893
  735MOL0     C99111   1.144   5.292   7.407 -0.3589 -0.4618  0.2394
  735MOL0     C99112   1.274   5.306   7.494  0.3136  0.0220 -0.2087
  735MOL0     C99113   1.406   5.245   7.443  0.1640 -0.1467  1.1425
  735MOL0     O99114   1.508   5.292   7.536 -0.4862 -0.3214  0.5236
  735MOL0     C99115   1.507   5.238   7.660  0.0894  0.4775 -0.6962
  735MOL0     C99116   1.615   5.284   7.744 -0.0529  0.8019 -0.3810
  735MOL0     C99117   1.631   5.256   7.879  0.0283  0.4322 -0.1814
  735MOL0     C99118   1.752   5.317   7.950  0.3625 -0.1035 -0.0625
  735MOL0     C99119   1.541   5.160   7.935  1.1033 -0.1793  0.2497
  735MOL0     C99120   1.538   5.115   8.074 -0.0777 -0.4538 -0.1835
  735MOL0     O99121   1.659   5.081   8.119  0.1178 -0.1334 -0.6539
  735MOL0     C99122   1.685   5.077   8.257 -0.0176 -0.4924 -0.1290
  735MOL0     C99123   1.698   4.954   8.323 -0.8525  0.0987 -0.7196
  735MOL0     C99124   1.741   4.940   8.453  0.0528 -0.6819 -1.2622
  735MOL0     C99125   1.775   5.054   8.529 -0.4027 -0.0586  1.2506
  735MOL0     O99126   1.840   5.032   8.649 -0.1649 -0.4748 -0.6387
  735MOL0     C99127   1.886   5.151   8.722  0.4818 -0.1303 -0.0806
  735MOL0     C99128   1.931   5.118   8.862  0.0870 -0.5657 -1.0545
  735MOL0     C99129   2.030   4.998   8.864 -0.6360  0.0976 -0.1879
  735MOL0     C99130   2.125   4.997   8.979  0.0670  0.6221 -0.5124
  735MOL0     C99131   2.057   4.958   9.114  0.4807  0.1072 -0.0451
  735MOL0     C99132   2.147   4.872   9.211  0.0758  0.6830 -0.2996
  735MOL0     C99133   2.068   4.824   9.330 -0.5989  0.4669 -0.0750
  735MOL0     C99134   2.140   4.767   9.453  0.0581  0.6193  0.2162
  735MOL0    Cl99135   2.248   4.632   9.403  0.1584  0.1986 -0.6617
  735MOL0     C99136   1.766   5.176   8.460 -0.1994 -0.1978 -0.1577
  735MOL0     C99137   1.722   5.188   8.335 -0.0614  0.1582  0.3779
  735MOL0     O99138   1.438   5.117   8.140 -0.5704 -0.2601 -0.2061
  735MOL0     C99139   1.444   5.101   7.857 -0.6957  0.5411  1.1496
  735MOL0     C99140   1.430   5.132   7.717 -0.8570 -0.5091 -0.9293
  735MOL0     N99141   0.869   5.202   7.578 -0.1873  0.2234  0.0724
  735MOL0     N99142   0.838   5.173   7.697  0.1606  0.8254  0.2344
  735MOL0     C99143   1.827   5.621   8.217 -0.7535 -0.7043 -0.8694
  735MOL0     C99144   1.928   5.716   8.185 -0.6671  0.6859  0.0659
  735MOL0     C99145   2.193   5.979   7.968 -0.4247  0.0598  0.1416
  735MOL0     C99146   2.141   6.118   7.976  0.2307 -0.4728  0.2294
  735MOL0     C99147   2.220   6.229   7.960 -0.1101 -0.5175 -0.2492
  735MOL0     C99148   2.346   6.209   7.897  1.0632 -0.7946  0.0676
  735MOL0     O99149   2.439   6.305   7.864 -0.4336  0.2552 -0.0193
  735MOL0     C99150   2.384   6.443   7.875 -0.5266 -0.5808  0.6281
  735MOL0     C99151   2.503   6.540   7.857 -0.2802  0.5503 -0.0114
  735MOL0     C99152   2.554   6.529   7.713 -1.0221  0.8081  0.2535
  735MOL0     C99153   2.471   6.606   7.605  0.6683 -0.3579 -0.6573
  735MOL0     C99154   2.441   6.746   7.642  0.5986  0.9041 -0.4634
  735MOL0     C99155   2.411   6.864   7.661  0.0063  0.5213  0.1334
  735MOL0     C99156   2.389   6.079   7.878  0.2210 -0.6405 -0.2560
  735MOL0     C99157   2.320   5.961   7.915  0.4966  0.7629  0.2294
  735MOL0     H99158   1.756   5.922   7.975  4.6091  0.5312 -1.0665
  735MOL0     H99159   1.563   5.767   8.062 -0.6942 -3.0423  0.9480
  735MOL0     H99160   1.467   5.586   8.350 -0.1968 -0.4718  0.4540
  735MOL0     H99161   1.452   5.692   8.220  0.4952  1.0518  1.3578
  735MOL0     H99162   1.384   5.395   8.223  1.9489 -0.3668 -0.8196
  735MOL0     H99163   1.272   5.529   8.206 -0.5727 -1.0198 -0.8803
  735MOL0     H99164   1.374   5.602   8.000  1.6107 -0.3455 -1.3898
  735MOL0     H99165   1.481   5.463   8.012 -0.8199 -0.1153  0.3521
  735MOL0     H99166   1.294   5.410   7.855  1.3821  1.2030  0.4391
  735MOL0     H99167   1.323   5.299   7.989 -0.2007 -0.1262  0.6619
  735MOL0     H99168   1.128   5.389   8.113 -2.1641 -1.3663 -0.0657
  735MOL0     H99169   1.136   5.514   7.981  3.0794  0.7348  1.2175
  735MOL0     H99170   0.942   5.359   7.959 -0.3590 -1.5870  3.1594
  735MOL0     H99171   1.046   5.334   7.828 -0.2945  1.3069  0.4943
  735MOL0     H99172   1.143   5.137   7.948  1.1292  0.6571 -0.3713
  735MOL0     H99173   1.021   5.144   8.081 -1.3996 -1.9653 -0.6930
  735MOL0     H99174   0.841   5.108   7.944 -0.5009 -1.9460 -1.2443
  735MOL0     H99175   0.953   4.979   7.916 -1.2887 -0.3002  1.5809
  735MOL0     H99176   1.131   5.035   7.673  0.5396  0.9521 -0.9521
  735MOL0     H99177   1.152   5.083   7.427  0.1101  0.1412  1.9871
  735MOL0     H99178   1.011   5.147   7.340  1.5137  0.2540 -0.9650
  735MOL0     H99179   1.073   5.372   7.428 -0.8195 -0.9915  0.7108
  735MOL0     H99180   1.183   5.293   7.304  0.6738 -2.6600  0.5479
  735MOL0     H99181   1.251   5.264   7.592  0.0964 -0.0836 -0.3035
  735MOL0     H99182   1.297   5.413   7.502  4.4172 -0.8126  3.6221
  735MOL0     H99183   1.424   5.282   7.342 -2.8855  0.3172  0.6646
  735MOL0     H99184   1.400   5.136   7.436 -1.3890 -0.0071 -0.3379
  735MOL0     H99185   1.693   5.344   7.698  1.3624  0.7582  1.7955
  735MOL0     H99186   1.832   5.243   7.945  0.0908 -0.4382  0.4724
  735MOL0     H99187   1.774   5.414   7.904 -1.9638  0.3617 -0.3101
  735MOL0     H99188   1.732   5.333   8.056  1.9545 -1.2246  0.4458
  735MOL0     H99189   1.691   4.860   8.268  3.0363  0.3939 -2.0482
  735MOL0     H99190   1.762   4.843   8.496  0.2428  0.9065  2.6712
  735MOL0     H99191   1.976   5.189   8.673  1.4261 -3.2585 -1.0241
  735MOL0     H99192   1.802   5.219   8.738 -0.2978 -0.3161 -2.8802
  735MOL0     H99193   1.991   5.206   8.886 -1.0172 -0.2450  0.7721
  735MOL0     H99194   1.845   5.104   8.929  2.2378 -2.5402  1.4800
  735MOL0     H99195   2.098   5.002   8.779  1.8740  1.3158  1.7385
  735MOL0     H99196   1.974   4.904   8.859 -2.5224  1.2525 -3.5868
  735MOL0     H99197   2.217   4.945   8.949  1.0724  3.6173 -3.1623
  735MOL0     H99198   2.155   5.101   8.990  0.5724  0.4599 -0.3274
  735MOL0     H99199   1.968   4.896   9.104 -1.5857  2.8284  0.3865
  735MOL0     H99200   2.018   5.048   9.162  0.5609  1.9759 -3.1909
  735MOL0     H99201   2.180   4.789   9.149 -0.1247  0.0291  0.4623
  735MOL0     H99202   2.244   4.913   9.242  0.1905 -1.1870  2.1214
  735MOL0     H99203   2.004   4.743   9.293  2.2785 -2.0648  0.0401
  735MOL0     H99204   2.011   4.909   9.370  4.4569  3.0875  2.5296
  735MOL0     H99205   2.067   4.717   9.518 -1.8409  0.0092 -2.2437
  735MOL0     H99206   2.195   4.844   9.508  0.5083 -0.3737  1.2144
  735MOL0     H99207   1.804   5.268   8.505 -1.2190 -0.1791  0.7020
  735MOL0     H99208   1.728   5.283   8.283 -1.1328 -1.5209 -3.1310
  735MOL0     H99209   1.383   5.017   7.888 -1.4736  0.5527 -0.2708
  735MOL0     H99210   1.338   5.093   7.676 -2.5967 -0.9838  3.0162
  735MOL0     H99211   1.852   5.549   8.295  1.7129  2.1115  1.1462
  735MOL0     H99212   2.025   5.709   8.232 -1.4381  2.9824  2.2527
  735MOL0     H99213   2.039   6.130   8.009 -0.8556 -0.7066 -2.7643
  735MOL0     H99214   2.174   6.321   7.994 -2.0650 -2.0904  1.6908
  735MOL0     H99215   2.289   6.466   7.824 -0.2281 -0.1420  0.2606
  735MOL0     H99216   2.358   6.458   7.980 -2.3453 -1.4403  0.3435
  735MOL0     H99217   2.585   6.511   7.924  0.0930 -0.5996 -0.9317
  735MOL0     H99218   2.465   6.641   7.879  0.1936  1.0640 -1.4627
  735MOL0     H99219   2.557   6.423   7.685  0.3452  0.7987  0.3860
  735MOL0     H99220   2.660   6.552   7.703 -0.0647 -2.1987  2.0324
  735MOL0     H99221   2.379   6.549   7.591 -0.0977  0.6810  0.0274
  735MOL0     H99222   2.522   6.617   7.509 -0.6028 -2.7014 -1.6864
  735MOL0     H99223   2.379   6.962   7.690  0.1924  0.4872  0.4620
  735MOL0     H99224   2.492   6.063   7.850  1.0964  1.6684  1.3139
  735MOL0     H99225   2.355   5.861   7.895 -1.1433  0.1640  0.1993
  736MOL0     O99226   7.933   6.963   7.042  0.5472 -0.9237 -0.5480
  736MOL0     C99227   7.932   6.918   7.159  0.5658  0.6084 -0.0133
  736MOL0     O99228   7.822   6.877   7.226  0.2592  0.7904  0.4723
  736MOL0     C99229   7.697   6.913   7.180  0.2887 -1.0812 -0.2956
  736MOL0     C99230   7.651   7.041   7.181  0.6452  1.2680  0.3260
  736MOL0     C99231   7.518   7.080   7.136 -0.0173  0.0227 -0.1628
  736MOL0     C99232   7.426   6.974   7.102 -0.4313 -0.1544 -0.4213
  736MOL0     O99233   7.303   6.996   7.056 -0.0678 -0.9182 -0.3861
  736MOL0     C99234   7.217   7.088   7.136  0.1012 -0.2878  0.6205
  736MOL0     C99235   7.072   7.042   7.136  0.4119  0.5854  0.7994
  736MOL0     C99236   7.059   6.913   7.205 -0.4169  0.3686 -0.4801
  736MOL0     C99237   7.051   6.940   7.348  0.0822 -0.2988  0.1873
  736MOL0     C99238   7.107   6.824   7.436  0.0316  0.1893  0.7353
  736MOL0     C99239   7.087   6.830   7.587  0.4704 -0.6454 -0.2598
  736MOL0     C99240   6.939   6.832   7.631 -0.0487  0.6332 -0.4875
  736MOL0     C99241   6.943   6.770   7.769 -0.7309 -1.2861 -0.3768
  736MOL0     N99242   6.827   6.795   7.857 -0.5499  0.1643  0.5702
  736MOL0     C99243   6.694   6.779   7.822  0.2049  0.2200  0.1511
  736MOL0     C99244   6.632   6.822   7.930  0.7484  0.4893  0.4639
  736MOL0     C99245   6.478   6.847   7.922  0.2204 -0.7157 -0.4482
  736MOL0     C99246   6.402   6.792   8.046 -0.2434 -0.3240 -0.1617
  736MOL0     C99247   6.249   6.810   8.048 -0.1809 -0.1947 -1.3002
  736MOL0     C99248   6.186   6.724   8.160 -0.0690 -0.6197  0.6460
  736MOL0     O99249   6.056   6.780   8.198  0.5188 -0.8003 -0.0489
  736MOL0     C99250   5.945   6.734   8.136  0.1550 -1.0264  0.7376
  736MOL0     C99251   5.926   6.627   8.050 -0.5886  0.2300 -0.0402
  736MOL0     C99252   5.801   6.582   8.008  0.3012 -0.7965 -0.3720
  736MOL0     C99253   5.808   6.470   7.904 -0.6635  0.0689 -1.0634
  736MOL0     C99254   5.680   6.651   8.057  0.0094 -0.4184  0.7329
  736MOL0     C99255   5.546   6.610   8.020  0.0193 -0.1440 -0.5361
  736MOL0     O99256   5.450   6.641   8.118  0.2267 -0.3012 -0.2943
  736MOL0     C99257   5.316   6.624   8.079  0.3135  0.7934 -0.5687
  736MOL0     C99258   5.252   6.494   8.089 -0.8123 -0.0373 -1.4915
  736MOL0     C99259   5.117   6.488   8.064  0.1351 -0.2374  0.4687
  736MOL0     C99260   5.041   6.594   8.023  0.6663  0.1026  1.1606
  736MOL0     O99261   4.905   6.586   8.006  0.4348  0.4401 -0.3449
  736MOL0     C99262   4.838   6.452   8.013  0.3293  0.4855 -0.0303
  736MOL0     C99263   4.690   6.476   7.969 -0.1758 -0.1859 -0.0706
  736MOL0     C99264   4.619   6.590   8.044 -0.1039 -0.1841 -0.6220
  736MOL0     C99265   4.481   6.607   7.984  0.2864 -0.1162  0.5497
  736MOL0     C99266   4.414   6.736   8.018 -0.2895  0.0299 -0.5853
  736MOL0     C99267   4.259   6.732   8.027  0.7383  0.8178  0.2818
  736MOL0     C99268   4.212   6.656   8.150 -0.1447  0.6947 -0.1988
  736MOL0     C99269   4.128   6.528   8.130 -0.0253  0.2918  0.2884
  736MOL0    Cl99270   4.095   6.457   8.285  0.1783  0.0344  0.3830
  736MOL0     C99271   5.105   6.719   8.011 -0.7224 -0.3861  0.7538
  736MOL0     C99272   5.244   6.730   8.039  0.5787 -0.5591  0.6301
  736MOL0     O99273   5.529   6.564   7.911  0.4492  0.4929 -0.4785
  736MOL0     C99274   5.705   6.766   8.131 -0.5075  0.0690  0.3504
  736MOL0     C99275   5.832   6.809   8.172  0.5365 -0.0083 -0.9037
  736MOL0     N99276   6.717   6.860   8.036  0.8493  0.1601  0.0788
  736MOL0     N99277   6.835   6.844   7.980  0.3179  1.1067 -0.0864
  736MOL0     C99278   7.471   6.842   7.108  0.0839  0.3160 -1.8134
  736MOL0     C99279   7.604   6.811   7.143  0.6629  0.2481 -0.2658
  736MOL0     C99280   8.061   6.906   7.224 -0.5320 -0.3068 -0.8769
  736MOL0     C99281   8.171   6.975   7.177  0.5033 -0.3217  0.3758
  736MOL0     C99282   8.295   6.975   7.252  0.2165 -0.4470  0.6804
  736MOL0     C99283   8.308   6.893   7.363  0.3813 -0.5959 -0.5760
  736MOL0     O99284   8.416   6.876   7.452 -0.2528 -0.7270  0.6570
  736MOL0     C99285   8.530   6.956   7.431 -0.1506 -0.2833 -0.4427
  736MOL0     C99286   8.653   6.895   7.506  0.1262  0.1116  0.7219
  736MOL0     C99287   8.652   6.861   7.656  0.5237 -0.2556  0.9558
  736MOL0     C99288   8.778   6.794   7.705 -0.7911  0.0848 -0.0709
  736MOL0     C99289   8.903   6.869   7.690 -0.8067  0.5288  0.5703
  736MOL0     C99290   9.010   6.941   7.672  1.0590  0.4136  0.7912
  736MOL0     C99291   8.198   6.815   7.398 -0.2739  0.6586 -0.0755
  736MOL0     C99292   8.078   6.827   7.340 -0.5850 -0.0522  0.2653
  736MOL0     H99293   7.719   7.119   7.216  0.7854  2.3620 -2.1950
  736MOL0     H99294   7.484   7.182   7.125  1.5548  0.8454  1.8152
  736MOL0     H99295   7.256   7.100   7.238 -0.1564 -0.2742  0.7187
  736MOL0     H99296   7.215   7.190   7.098 -0.7576  0.3863  2.3443
  736MOL0     H99297   7.015   7.125   7.180  2.2854  0.8793  2.8611
  736MOL0     H99298   7.052   7.025   7.030 -0.7259 -0.2391  1.1302
  736MOL0     H99299   6.966   6.864   7.173  0.8231 -2.0914 -0.5600
  736MOL0     H99300   7.147   6.849   7.192  0.4173  1.5713 -0.9213
  736MOL0     H99301   7.107   7.030   7.373 -2.0845  0.9172  0.9949
  736MOL0     H99302   6.944   6.956   7.369 -0.3578  2.5933 -3.2672
  736MOL0     H99303   7.065   6.728   7.403  0.6002  0.1989 -0.0559
  736MOL0     H99304   7.213   6.812   7.414 -0.6769 -2.6979 -1.7754
  736MOL0     H99305   7.148   6.747   7.626 -0.9874 -0.9671  1.4282
  736MOL0     H99306   7.132   6.926   7.615  1.3650 -1.0152 -0.3649
  736MOL0     H99307   6.905   6.936   7.636  2.3736  1.4830 -0.2549
  736MOL0     H99308   6.880   6.774   7.559  0.2508  2.9415 -2.7290
  736MOL0     H99309   7.030   6.792   7.831 -0.4447 -5.4738  1.0192
  736MOL0     H99310   6.952   6.661   7.765  1.1351 -1.2218  0.7794
  736MOL0     H99311   6.643   6.740   7.734 -1.7500  1.1090  0.8479
  736MOL0     H99312   6.464   6.955   7.920  0.4229 -0.7032 -1.7977
  736MOL0     H99313   6.431   6.801   7.834 -0.1327 -0.2806 -0.4886
  736MOL0     H99314   6.443   6.827   8.141 -1.2582  0.4859 -0.0019
  736MOL0     H99315   6.430   6.686   8.046 -2.1405 -0.8913  1.3586
  736MOL0     H99316   6.209   6.773   7.953  0.3882  0.2093 -1.7039
  736MOL0     H99317   6.220   6.914   8.064  0.5632 -0.2494  0.6317
  736MOL0     H99318   6.254   6.732   8.246  0.3680  4.4193  0.1538
  736MOL0     H99319   6.188   6.619   8.131 -1.5094 -0.3151 -0.7038
  736MOL0     H99320   6.014   6.572   8.020 -0.3850  0.1340  0.7176
  736MOL0     H99321   5.772   6.493   7.804 -0.3518  0.8932 -0.9899
  736MOL0     H99322   5.912   6.437   7.894 -0.6634 -0.4471  0.3165
  736MOL0     H99323   5.750   6.384   7.939  1.8031 -1.1511  0.3407
  736MOL0     H99324   5.307   6.404   8.113 -0.1015  0.5624 -0.8054
  736MOL0     H99325   5.072   6.389   8.071  1.6861 -0.8624  3.7914
  736MOL0     H99326   4.875   6.386   7.934 -1.4359 -0.2118 -0.3147
  736MOL0     H99327   4.860   6.405   8.109 -1.6069  2.2666  1.3835
  736MOL0     H99328   4.688   6.501   7.863  1.2634  1.1632  0.1902
  736MOL0     H99329   4.634   6.382   7.973  1.2983 -1.1109 -0.6070
  736MOL0     H99330   4.672   6.685   8.030  0.1801  0.0824  1.8803
  736MOL0     H99331   4.621   6.560   8.149  0.2607  3.2766  0.4809
  736MOL0     H99332   4.483   6.596   7.875  0.8196  3.4262  0.0729
  736MOL0     H99333   4.426   6.521   8.022  2.7066 -1.0497  2.2078
  736MOL0     H99334   4.437   6.819   7.951 -1.0745  2.6625  2.1506
  736MOL0     H99335   4.460   6.769   8.113  3.9068 -3.7220 -1.0098
  736MOL0     H99336   4.231   6.836   8.010  0.0635  0.1906 -3.4010
  736MOL0     H99337   4.228   6.679   7.936 -0.3919 -0.1276  1.1817
  736MOL0     H99338   4.169   6.713   8.233 -1.0011  1.4993 -1.1756
  736MOL0     H99339   4.307   6.624   8.195  0.6166  2.4898 -0.4323
  736MOL0     H99340   4.191   6.459   8.073 -0.3468  1.2219 -1.2544
  736MOL0     H99341   4.049   6.568   8.066 -1.2316 -0.9854  0.9414
  736MOL0     H99342   5.039   6.801   7.986  0.6657  1.3101  2.4004
  736MOL0     H99343   5.291   6.828   8.037  0.7735 -0.6536  0.5855
  736MOL0     H99344   5.623   6.834   8.151 -1.0471 -0.8163  1.2477
  736MOL0     H99345   5.853   6.893   8.237 -0.4805  0.2749 -0.9124
  736MOL0     H99346   7.404   6.763   7.076  1.0975 -1.1909 -0.4260
  736MOL0     H99347   7.636   6.707   7.149  1.2577  0.3923 -0.7763
  736MOL0     H99348   8.165   7.026   7.082  1.0106 -0.9983 -0.0314
  736MOL0     H99349   8.375   7.032   7.206 -1.5374 -0.6392 -3.0438
  736MOL0     H99350   8.556   6.960   7.325 -0.1742 -0.2485 -0.4472
  736MOL0     H99351   8.513   7.053   7.478 -0.2829 -0.9041  0.8497
  736MOL0     H99352   8.737   6.962   7.485 -0.7334  1.1149  0.4435
  736MOL0     H99353   8.672   6.801   7.452 -0.3424  0.0574  0.6471
  736MOL0     H99354   8.566   6.798   7.681 -1.8917  3.4086  2.8154
  736MOL0     H99355   8.641   6.954   7.712  1.6601 -0.0695  0.8881
  736MOL0     H99356   8.786   6.703   7.645 -1.2960  0.6793 -1.0522
  736MOL0     H99357   8.772   6.770   7.812  2.0803  4.1620  1.2390
  736MOL0     H99358   9.091   7.008   7.651  1.1550  0.7738  2.2136
  736MOL0     H99359   8.216   6.744   7.478  0.6658 -1.3349 -1.9558
  736MOL0     H99360   7.992   6.772   7.377 -0.8970  0.2005 -0.0783
  737MOL0     O99361   6.596   7.076   8.767  0.6059 -0.1717 -0.1072
  737MOL0     C99362   6.646   6.967   8.784  0.1710  0.4381  0.5516
  737MOL0     O99363   6.589   6.846   8.747 -0.4158  0.2481  0.1799
  737MOL0     C99364   6.463   6.852   8.703  0.4801  0.4534 -0.3908
  737MOL0     C99365   6.356   6.816   8.783  0.1588  0.4245  0.5336
  737MOL0     C99366   6.220   6.826   8.730  0.2121  0.7666 -0.4217
  737MOL0     C99367   6.193   6.847   8.595  0.5482 -0.5381 -0.1842
  737MOL0     O99368   6.073   6.831   8.535  0.2136 -0.1544  0.5515
  737MOL0     C99369   5.974   6.760   8.602 -0.2466 -0.0349 -0.3312
  737MOL0     C99370   5.874   6.717   8.494 -0.3573 -0.2833  0.5434
  737MOL0     C99371   5.756   6.626   8.542  0.8919  0.0281  0.0382
  737MOL0     C99372   5.614   6.675   8.517 -0.9305  0.1475  0.6245
  737MOL0     C99373   5.513   6.563   8.555 -0.6987 -0.3828  0.1941
  737MOL0     C99374   5.376   6.627   8.540 -0.3023  0.4986 -0.3825
  737MOL0     C99375   5.274   6.515   8.513 -0.2774 -0.2287 -0.1943
  737MOL0     C99376   5.136   6.568   8.486  0.7491  0.4897  0.4735
  737MOL0     N99377   5.046   6.456   8.461  0.5141  0.6784  0.9434
  737MOL0     C99378   4.956   6.409   8.550 -0.8454 -0.4860  0.1806
  737MOL0     C99379   4.896   6.312   8.478 -0.5796  0.1588 -0.4698
  737MOL0     C99380   4.788   6.219   8.526  0.0127 -0.8083  0.3442
  737MOL0     C99381   4.642   6.279   8.503  0.2037  0.4831 -0.6475
  737MOL0     C99382   4.542   6.194   8.581  0.6428  0.1170  0.7869
  737MOL0     C99383   4.392   6.247   8.567 -0.2091 -0.7942  1.0025
  737MOL0     O99384   4.382   6.367   8.642 -0.1149  0.0688 -0.3826
  737MOL0     C99385   4.254   6.422   8.663 -0.5212 -1.0870 -0.1920
  737MOL0     C99386   4.231   6.500   8.778  0.8384  1.4485 -0.0356
  737MOL0     C99387   4.109   6.566   8.802 -0.3101 -0.1230 -0.9216
  737MOL0     C99388   4.105   6.650   8.928 -0.9662 -0.3912  0.2167
  737MOL0     C99389   4.006   6.561   8.710  0.9701 -0.5086  0.2958
  737MOL0     C99390   3.870   6.603   8.735 -0.4092  0.1449  0.2357
  737MOL0     O99391   3.834   6.648   8.856  0.1317  0.5226  0.2154
  737MOL0     C99392   3.697   6.668   8.890 -1.5977 -0.0111 -1.0306
  737MOL0     C99393   3.599   6.582   8.839 -0.3781  0.6722 -0.9397
  737MOL0     C99394   3.466   6.616   8.868  0.6457 -0.3037  0.0925
  737MOL0     C99395   3.431   6.723   8.956 -0.7293 -0.1302 -0.1235
  737MOL0     O99396   3.307   6.755   9.000 -0.3924 -0.0540 -0.7556
  737MOL0     C99397   3.211   6.652   8.998  0.6181  0.2155 -0.3120
  737MOL0     C99398   3.080   6.700   9.063  0.9376 -0.1263  0.3489
  737MOL0     C99399   2.978   6.587   9.058  0.6378 -0.5899 -0.0796
  737MOL0     C99400   2.863   6.613   9.160  0.1812  0.5035  0.9556
  737MOL0     C99401   2.723   6.592   9.108  0.7894 -0.7861 -0.1226
  737MOL0     C99402   2.614   6.646   9.204  0.4200  0.6613 -0.3601
  737MOL0     C99403   2.481   6.617   9.133  0.3600  0.2522  1.3881
  737MOL0     C99404   2.354   6.664   9.206  0.0992 -0.6293 -0.5267
  737MOL0    Cl99405   2.351   6.580   9.351  0.0719 -0.4516 -0.2611
  737MOL0     C99406   3.531   6.814   8.984 -0.0370 -0.1304 -0.8951
  737MOL0     C99407   3.664   6.783   8.956 -0.0435  0.0690  0.2623
  737MOL0     O99408   3.799   6.597   8.639  1.1946  0.0578  0.1010
  737MOL0     C99409   4.030   6.482   8.594 -0.2829  1.0591  0.3784
  737MOL0     C99410   4.148   6.406   8.580  0.2246  1.0184  0.8460
  737MOL0     N99411   4.964   6.291   8.365  0.5846  1.1065  0.5699
  737MOL0     N99412   5.055   6.376   8.352 -0.6933 -0.2119 -0.5779
  737MOL0     C99413   6.296   6.899   8.522  0.4487  0.7196  0.3180
  737MOL0     C99414   6.432   6.891   8.571  1.1444 -0.7085 -0.0327
  737MOL0     C99415   6.776   6.975   8.857 -0.1084 -0.5874 -0.0719
  737MOL0     C99416   6.843   6.859   8.871 -0.3344  1.4042 -0.3692
  737MOL0     C99417   6.973   6.857   8.925  0.4905 -0.5282  0.4614
  737MOL0     C99418   7.034   6.980   8.954  1.2856  0.1833  0.4635
  737MOL0     O99419   7.164   6.971   8.996 -0.3259  0.0301  0.2752
  737MOL0     C99420   7.252   7.078   8.959 -0.5735  0.8946  1.3188
  737MOL0     C99421   7.395   7.052   8.997 -0.0860  0.0124  0.1516
  737MOL0     C99422   7.432   6.918   8.940  0.0789 -0.0327 -0.5631
  737MOL0     C99423   7.583   6.887   8.957  0.1090  0.4995  0.3064
  737MOL0     C99424   7.664   6.969   8.876 -1.3355 -0.2807  0.1906
  737MOL0     C99425   7.748   7.022   8.807 -0.2746  0.0179  0.1044
  737MOL0     C99426   6.963   7.101   8.930  0.4536 -0.1916 -0.6372
  737MOL0     C99427   6.827   7.099   8.892 -0.4131  0.0948  0.1057
  737MOL0     H99428   6.375   6.813   8.890  1.7328  1.4094  0.3121
  737MOL0     H99429   6.145   6.799   8.805  2.8811  0.2912  2.3063
  737MOL0     H99430   6.010   6.676   8.661  1.2248  1.2863  0.7196
  737MOL0     H99431   5.923   6.835   8.664  1.1649  1.0419 -0.4205
  737MOL0     H99432   5.832   6.805   8.446  0.8425  0.0631  0.0763
  737MOL0     H99433   5.947   6.671   8.427 -1.4918  0.1532 -1.0311
  737MOL0     H99434   5.773   6.525   8.503 -0.5793 -3.0352  6.0015
  737MOL0     H99435   5.758   6.612   8.651  1.5252  0.9194  0.1524
  737MOL0     H99436   5.594   6.758   8.585  0.0635  1.2040 -0.3272
  737MOL0     H99437   5.607   6.704   8.411  1.4095 -0.3933  0.2813
  737MOL0     H99438   5.533   6.478   8.489  0.2223 -0.9917  1.2229
  737MOL0     H99439   5.528   6.547   8.663 -0.8387  1.6047  0.5414
  737MOL0     H99440   5.357   6.696   8.623  1.5012 -0.7651  1.1736
  737MOL0     H99441   5.371   6.694   8.455 -4.0740 -1.0659 -1.5999
  737MOL0     H99442   5.311   6.447   8.436 -1.7431  1.0783 -2.1651
  737MOL0     H99443   5.277   6.450   8.601  1.4114  0.2506  0.1426
  737MOL0     H99444   5.139   6.636   8.400  1.9577  1.3726  1.1779
  737MOL0     H99445   5.090   6.630   8.563  1.2627  0.5292  0.7538
  737MOL0     H99446   4.938   6.443   8.652  2.2392  1.4820  0.1887
  737MOL0     H99447   4.788   6.120   8.480 -2.1079  0.7007 -3.3116
  737MOL0     H99448   4.801   6.193   8.632 -2.8456  0.3646  1.0896
  737MOL0     H99449   4.619   6.266   8.397  3.0643  0.4060 -1.3575
  737MOL0     H99450   4.642   6.383   8.534 -1.3209  0.2185  0.3313
  737MOL0     H99451   4.566   6.192   8.688  0.9309 -0.1353  0.7188
  737MOL0     H99452   4.547   6.092   8.543  2.8052  0.6925 -0.6426
  737MOL0     H99453   4.317   6.177   8.604 -1.0145 -1.7321 -2.1192
  737MOL0     H99454   4.364   6.260   8.462 -2.0613  0.1390  1.5749
  737MOL0     H99455   4.303   6.505   8.859  2.1945  1.9709 -1.2191
  737MOL0     H99456   4.203   6.675   8.971 -0.5178  1.2820 -1.6400
  737MOL0     H99457   4.071   6.751   8.906 -0.2759 -0.1788  0.1084
  737MOL0     H99458   4.056   6.608   9.016  0.4886 -0.3747  1.0691
  737MOL0     H99459   3.638   6.505   8.773 -1.4707 -2.6716  2.0360
  737MOL0     H99460   3.391   6.547   8.833 -1.6870  0.7073  2.7412
  737MOL0     H99461   3.189   6.621   8.896  0.3708 -0.6990  0.0115
  737MOL0     H99462   3.251   6.565   9.050  0.2351  0.9099  1.2111
  737MOL0     H99463   3.098   6.734   9.165 -2.0747 -0.1732  0.9861
  737MOL0     H99464   3.042   6.788   9.010 -1.0440 -0.9270  0.3690
  737MOL0     H99465   3.033   6.500   9.095  0.6040  0.1619  1.8461
  737MOL0     H99466   2.947   6.568   8.955 -0.7792  0.0543  0.2028
  737MOL0     H99467   2.877   6.541   9.242  1.0161  2.7071  2.8496
  737MOL0     H99468   2.874   6.704   9.220  0.5003  0.0344  1.6210
  737MOL0     H99469   2.718   6.482   9.112  1.0358 -0.9193 -2.0725
  737MOL0     H99470   2.717   6.647   9.014  1.3346  1.2824  1.0044
  737MOL0     H99471   2.631   6.589   9.296 -1.0686 -0.7254 -0.8947
  737MOL0     H99472   2.634   6.751   9.226  1.4834  0.2198  0.9711
  737MOL0     H99473   2.481   6.508   9.122  1.2058  0.4010 -0.6513
  737MOL0     H99474   2.481   6.668   9.035  0.2413  0.5006  1.5161
  737MOL0     H99475   2.260   6.636   9.157 -1.1561  1.0418  0.7860
  737MOL0     H99476   2.364   6.772   9.220  2.1894 -0.9491  0.8518
  737MOL0     H99477   3.509   6.900   9.045 -0.8247 -0.2250 -1.0353
  737MOL0     H99478   3.739   6.848   9.001 -0.9014  2.3968 -1.4625
  737MOL0     H99479   3.949   6.468   8.523  0.5404  0.7107 -0.5157
  737MOL0     H99480   4.154   6.325   8.508 -2.1841 -2.6698  4.3798
  737MOL0     H99481   6.281   6.901   8.414  0.8277  1.4668  0.2681
  737MOL0     H99482   6.515   6.924   8.509  1.1967 -1.1717 -0.2140
  737MOL0     H99483   6.793   6.764   8.856  0.9696  0.7940 -0.9398
  737MOL0     H99484   7.034   6.772   8.954  2.0795  0.9282  1.6614
  737MOL0     H99485   7.252   7.107   8.854  0.5812 -0.3138  0.9612
  737MOL0     H99486   7.229   7.171   9.012  0.0645  2.1393 -0.5243
  737MOL0     H99487   7.395   7.043   9.106 -1.0638 -2.5007  0.0026
  737MOL0     H99488   7.455   7.136   8.960 -0.2973  0.9611  1.8575
  737MOL0     H99489   7.407   6.915   8.834 -3.4998  1.9838  0.0706
  737MOL0     H99490   7.386   6.833   8.992 -0.1322  0.0710 -0.5786
  737MOL0     H99491   7.594   6.784   8.921  1.8325  1.3930 -2.0009
  737MOL0     H99492   7.616   6.914   9.058 -0.7490 -0.6138  0.9068
  737MOL0     H99493   7.832   7.053   8.748  0.4907 -0.8291  0.7192
  737MOL0     H99494   7.000   7.203   8.928 -0.1082  0.0047 -2.2395
  737MOL0     H99495   6.774   7.192   8.879 -0.2159 -0.2245 -4.4106
  738MOL0     O99496   0.071  10.153   3.593  0.5735  0.3841  0.8769
  738MOL0     C99497   0.133  10.194   3.493 -0.2211 -0.8764 -1.3163
  738MOL0     O99498   0.080  10.186   3.372 -0.6110 -0.2178 -0.6022
  738MOL0     C99499  -0.038  10.124   3.337  0.0354  0.0704  0.6614
  738MOL0     C99500  -0.107  10.017   3.394 -0.7684  1.3640 -0.3804
  738MOL0     C99501  -0.223   9.966   3.332  0.1930  0.0742 -0.4110
  738MOL0     C99502  -0.278  10.023   3.221 -0.4079 -0.1363  0.4674
  738MOL0     O99503  -0.389   9.957   3.162  0.1503  0.0457  0.1719
  738MOL0     C99504  -0.472  10.030   3.067  0.0881 -0.4792 -0.2744
  738MOL0     C99505  -0.609   9.955   3.034 -0.5785  0.8134  0.3949
  738MOL0     C99506  -0.695  10.038   2.939 -0.5291  0.6542  0.4108
  738MOL0     C99507  -0.812   9.950   2.898 -0.0086 -0.5900  0.2031
  738MOL0     C99508  -0.888  10.033   2.798  0.6928  0.5699 -0.1373
  738MOL0     C99509  -0.993   9.940   2.735 -1.2430  0.5825 -0.7102
  738MOL0     C99510  -1.078  10.004   2.624  0.6716  0.0647 -0.1975
  738MOL0     C99511  -1.129   9.912   2.517  0.2537 -0.3190  0.4483
  738MOL0     N99512  -1.177   9.979   2.399  1.2635  0.9854  0.5637
  738MOL0     C99513  -1.309   9.962   2.345 -0.3243 -0.0487  0.7196
  738MOL0     C99514  -1.308  10.036   2.232 -0.3094 -0.5395 -0.3541
  738MOL0     C99515  -1.412  10.041   2.132  0.9725 -0.0061  0.0748
  738MOL0     C99516  -1.560  10.077   2.179 -1.2821  0.6173 -0.4086
  738MOL0     C99517  -1.645   9.960   2.230 -0.2660  0.6411 -0.2456
  738MOL0     C99518  -1.795   9.996   2.275  0.8552 -0.5914  0.8926
  738MOL0     O99519  -1.875  10.007   2.154 -0.3506 -0.8819 -0.6258
  738MOL0     C99520  -2.000  10.071   2.169 -0.6016  0.1969 -0.8214
  738MOL0     C99521  -2.061  10.125   2.284  0.6552  0.0845  0.3516
  738MOL0     C99522  -2.194  10.170   2.265 -0.9076  0.7304 -0.0718
  738MOL0     C99523  -2.259  10.216   2.388 -0.6693  0.4819 -0.2848
  738MOL0     C99524  -2.256  10.183   2.142 -0.1061 -0.4159  0.0519
  738MOL0     C99525  -2.389  10.250   2.118  0.0192  0.0882 -0.0567
  738MOL0     O99526  -2.488  10.249   2.212  0.4629  0.5783  0.7416
  738MOL0     C99527  -2.604  10.328   2.200  0.1485  0.5723 -0.6271
  738MOL0     C99528  -2.609  10.452   2.139 -0.3449  0.2083  0.0764
  738MOL0     C99529  -2.735  10.514   2.125 -0.2220  0.3896  0.4503
  738MOL0     C99530  -2.856  10.457   2.183 -0.7529  0.2752 -0.6046
  738MOL0     O99531  -2.975  10.510   2.200  0.2607  0.0784  0.6192
  738MOL0     C99532  -2.997  10.639   2.132  0.4658  0.3450  0.5585
  738MOL0     C99533  -3.128  10.690   2.166  0.1326 -0.8743  1.2589
  738MOL0     C99534  -3.125  10.844   2.200  0.8262 -0.1309 -0.1631
  738MOL0     C99535  -3.273  10.878   2.227  0.3093 -0.8922  0.1711
  738MOL0     C99536  -3.280  11.038   2.231 -0.4435  0.6120 -0.2436
  738MOL0     C99537  -3.299  11.104   2.099  0.2714 -0.0563  0.0099
  738MOL0     C99538  -3.446  11.095   2.057 -2.0418  0.3080  0.0999
  738MOL0     C99539  -3.478  11.213   1.953 -0.5181  0.2437  0.6770
  738MOL0    Cl99540  -3.650  11.191   1.910 -0.1592 -0.0626 -0.0803
  738MOL0     C99541  -2.838  10.336   2.258 -0.8360 -0.0824  0.7614
  738MOL0     C99542  -2.714  10.273   2.257  0.1889 -0.0694 -0.0012
  738MOL0     O99543  -2.407  10.293   2.005  0.2824 -0.1921  0.3565
  738MOL0     C99544  -2.184  10.144   2.036  0.1960  1.0488  0.2221
  738MOL0     C99545  -2.059  10.089   2.047  0.8603 -0.1219 -0.0361
  738MOL0     N99546  -1.182  10.092   2.220  1.2274  0.0945  0.0345
  738MOL0     N99547  -1.109  10.057   2.317 -0.2229  0.2250  0.3399
  738MOL0     C99548  -0.206  10.126   3.157 -0.3728 -0.2077  0.0651
  738MOL0     C99549  -0.084  10.171   3.210  0.0458 -0.2576  0.4300
  738MOL0     C99550   0.267  10.243   3.514  0.8453  0.6476  0.2637
  738MOL0     C99551   0.356  10.263   3.402  0.3259  0.6393  0.4442
  738MOL0     C99552   0.488  10.288   3.425  0.0177 -0.3513  0.2491
  738MOL0     C99553   0.542  10.310   3.551  0.0938 -0.5695  0.7604
  738MOL0     O99554   0.679  10.339   3.551  0.5338  0.2511  0.0376
  738MOL0     C99555   0.735  10.396   3.664  0.7343 -0.4546 -0.3682
  738MOL0     C99556   0.850  10.314   3.721  0.1552  0.3593  0.2167
  738MOL0     C99557   0.819  10.179   3.781  1.1059  0.4437 -0.5814
  738MOL0     C99558   0.948  10.107   3.822 -0.0219 -0.1821 -0.3661
  738MOL0     C99559   1.013  10.162   3.945 -0.7213  0.7245  0.7371
  738MOL0     C99560   1.077  10.185   4.042  0.3308 -0.5717  0.4728
  738MOL0     C99561   0.453  10.299   3.661  0.4211 -0.0581  0.4286
  738MOL0     C99562   0.318  10.259   3.648 -0.8111  0.0165 -0.0427
  738MOL0     H99563  -0.062   9.973   3.483  0.5002  0.7962 -1.2638
  738MOL0     H99564  -0.278   9.886   3.381 -1.2088  0.6631 -0.9597
  738MOL0     H99565  -0.497  10.128   3.109 -0.0123 -0.2144 -0.9532
  738MOL0     H99566  -0.422  10.049   2.973  1.3370  1.2991  0.7079
  738MOL0     H99567  -0.571   9.858   3.000  0.8295  1.0492  1.2190
  738MOL0     H99568  -0.660   9.941   3.130  2.5692 -0.1888  2.0668
  738MOL0     H99569  -0.718  10.127   2.999  1.4631  0.4596  1.5495
  738MOL0     H99570  -0.639  10.063   2.848 -1.5765  1.1393 -0.1198
  738MOL0     H99571  -0.779   9.861   2.844  0.7848 -0.2835  0.1790
  738MOL0     H99572  -0.875   9.925   2.984 -1.7932  0.3738 -0.7510
  738MOL0     H99573  -0.941  10.117   2.843 -3.6144 -1.9990  0.1488
  738MOL0     H99574  -0.823  10.062   2.715  0.6270  1.5705  0.1389
  738MOL0     H99575  -0.940   9.861   2.682  1.4677  1.9439 -0.2045
  738MOL0     H99576  -1.057   9.893   2.811  1.8096 -1.3901  0.8388
  738MOL0     H99577  -1.161  10.054   2.675 -1.3889 -0.7176 -2.6066
  738MOL0     H99578  -1.028  10.078   2.561 -2.6106  1.6477 -1.1663
  738MOL0     H99579  -1.212   9.856   2.561 -1.0023  0.0348 -1.3724
  738MOL0     H99580  -1.041   9.852   2.492  1.7017  0.7465  2.6530
  738MOL0     H99581  -1.387   9.905   2.393  1.9117 -3.7752  0.3078
  738MOL0     H99582  -1.379  10.115   2.058  0.8897  0.1448  0.1868
  738MOL0     H99583  -1.419   9.940   2.092 -0.7527  0.9133 -2.2104
  738MOL0     H99584  -1.601  10.129   2.092  2.2256  0.7010 -2.1965
  738MOL0     H99585  -1.549  10.144   2.264 -0.1708 -0.5430  0.3988
  738MOL0     H99586  -1.587   9.922   2.315 -0.2052  1.0101 -0.1179
  738MOL0     H99587  -1.653   9.886   2.150 -1.0773  3.3542 -2.8802
  738MOL0     H99588  -1.797  10.085   2.338  0.2535  1.7549 -2.1796
  738MOL0     H99589  -1.841   9.921   2.340 -2.4180 -1.4947 -2.1311
  738MOL0     H99590  -2.027  10.112   2.386 -1.6619 -2.4123  0.9060
  738MOL0     H99591  -2.351  10.158   2.395 -0.6330  0.2605 -1.4970
  738MOL0     H99592  -2.189  10.204   2.472 -2.0176  4.1034  1.5766
  738MOL0     H99593  -2.280  10.324   2.391 -0.1719  0.5683  0.4418
  738MOL0     H99594  -2.518  10.492   2.094  1.6348 -0.5981  3.0409
  738MOL0     H99595  -2.742  10.615   2.085 -1.2447  0.0370 -0.3230
  738MOL0     H99596  -2.927  10.707   2.180 -0.0193  1.0174  0.3204
  738MOL0     H99597  -2.971  10.624   2.027 -1.0554  1.4862 -0.0164
  738MOL0     H99598  -3.202  10.679   2.086  0.8231 -0.8147  0.6047
  738MOL0     H99599  -3.168  10.648   2.259 -1.0079 -0.8495  0.8042
  738MOL0     H99600  -3.089  10.904   2.116 -0.7475  0.2461 -0.6128
  738MOL0     H99601  -3.066  10.864   2.290 -1.2852  2.6967  0.7321
  738MOL0     H99602  -3.337  10.837   2.149 -2.2270 -0.8166  2.0893
  738MOL0     H99603  -3.308  10.827   2.317  1.2127 -0.1345  0.9828
  738MOL0     H99604  -3.189  11.076   2.279 -1.8605  2.1063  1.3961
  738MOL0     H99605  -3.355  11.054   2.309  0.2982 -2.6859  1.3350
  738MOL0     H99606  -3.279  11.211   2.112 -0.2682 -0.0536  0.9230
  738MOL0     H99607  -3.234  11.053   2.027  2.1906 -2.0748  2.9598
  738MOL0     H99608  -3.508  11.113   2.146 -0.1750  0.8579  1.3382
  738MOL0     H99609  -3.473  10.995   2.023  3.0656 -1.1827 -0.3714
  738MOL0     H99610  -3.423  11.191   1.861 -1.5388 -1.2021  0.3721
  738MOL0     H99611  -3.447  11.314   1.980 -0.2652  0.1794  0.6249
  738MOL0     H99612  -2.920  10.282   2.303 -2.9427 -0.3075 -2.9255
  738MOL0     H99613  -2.705  10.177   2.307  1.1249 -0.5304 -1.0367
  738MOL0     H99614  -2.230  10.154   1.938 -0.2280  1.0301  0.4172
  738MOL0     H99615  -2.027  10.052   1.950 -1.4497 -0.4184 -0.7586
  738MOL0     H99616  -0.241  10.176   3.068 -1.0810  0.8859  0.9228
  738MOL0     H99617  -0.026  10.244   3.154  2.2739 -2.4679 -0.3396
  738MOL0     H99618   0.320  10.241   3.302  0.6307 -2.1298  0.8739
  738MOL0     H99619   0.547  10.290   3.334  1.0567  3.0422  0.8518
  738MOL0     H99620   0.767  10.497   3.637 -0.9252  0.2094  0.0330
  738MOL0     H99621   0.672  10.405   3.753  0.0680 -2.3944 -0.6043
  738MOL0     H99622   0.893  10.376   3.800 -0.6550  1.7382 -0.4047
  738MOL0     H99623   0.925  10.300   3.643 -2.5465  0.1103 -2.5162
  738MOL0     H99624   0.761  10.118   3.711 -1.4324  2.9776 -0.8658
  738MOL0     H99625   0.747  10.204   3.860  0.3127 -0.2163 -1.0773
  738MOL0     H99626   1.026  10.095   3.745 -0.0119 -2.4894 -0.0824
  738MOL0     H99627   0.925  10.001   3.841 -0.0266 -0.1009  0.0921
  738MOL0     H99628   1.159  10.216   4.104  0.7757  0.9109 -0.7903
  738MOL0     H99629   0.495  10.309   3.761 -1.1905  2.9933  0.9399
  738MOL0     H99630   0.257  10.264   3.738 -2.5128  0.4532 -1.1802
  739MOL0     O99631   7.908   7.428   8.513 -0.3528 -0.4572  0.6589
  739MOL0     C99632   7.926   7.319   8.469  0.0873 -0.1932 -0.3163
  739MOL0     O99633   7.825   7.237   8.420  0.3947 -0.6422 -0.1834
  739MOL0     C99634   7.693   7.289   8.432 -0.4676  1.1090 -0.3472
  739MOL0     C99635   7.616   7.261   8.542  0.6039  0.9374  0.0175
  739MOL0     C99636   7.481   7.287   8.550  0.4319  0.2259  0.8491
  739MOL0     C99637   7.414   7.354   8.451  0.2011  0.3738 -0.5568
  739MOL0     O99638   7.282   7.388   8.451  0.4483 -0.2484 -0.2290
  739MOL0     C99639   7.206   7.385   8.565 -0.6405  0.1263  0.5058
  739MOL0     C99640   7.058   7.386   8.520 -0.3839  0.2702  0.0736
  739MOL0     C99641   6.964   7.382   8.643 -1.3375  0.3113 -0.6547
  739MOL0     C99642   6.823   7.328   8.612  1.2851  0.7590 -0.5662
  739MOL0     C99643   6.728   7.405   8.513 -0.4072  1.0398 -0.2084
  739MOL0     C99644   6.588   7.347   8.514  0.7152  0.8169 -0.1308
  739MOL0     C99645   6.505   7.382   8.640  0.1456  0.2662 -0.0609
  739MOL0     C99646   6.372   7.302   8.643  0.5538  0.6751  0.3620
  739MOL0     N99647   6.264   7.332   8.553  0.0848  0.2372 -0.4471
  739MOL0     C99648   6.229   7.454   8.511 -0.6714  0.4869  0.3906
  739MOL0     C99649   6.115   7.420   8.431  0.0463 -0.1187 -0.1510
  739MOL0     C99650   6.025   7.511   8.351 -0.0612 -0.1125 -0.5352
  739MOL0     C99651   5.898   7.523   8.427  1.0004  0.0834  0.6207
  739MOL0     C99652   5.828   7.662   8.404  0.1589 -0.5039  0.1234
  739MOL0     C99653   5.692   7.656   8.469 -0.7505 -0.5836 -0.9099
  739MOL0     O99654   5.608   7.551   8.422  0.1007 -0.2746  0.1263
  739MOL0     C99655   5.473   7.545   8.471 -0.6413  0.0915  0.1202
  739MOL0     C99656   5.431   7.617   8.585  0.9777 -0.1676  0.3887
  739MOL0     C99657   5.296   7.614   8.628 -0.2670 -0.2878  0.2814
  739MOL0     C99658   5.259   7.710   8.740  0.2430  0.3386 -0.3677
  739MOL0     C99659   5.204   7.536   8.563  0.3328 -0.2048 -0.6738
  739MOL0     C99660   5.059   7.523   8.604  0.2394  0.3695  0.4747
  739MOL0     O99661   4.969   7.465   8.520 -0.6042  0.2417  0.3053
  739MOL0     C99662   4.837   7.465   8.546  0.0527 -0.4885 -0.4043
  739MOL0     C99663   4.769   7.589   8.551  0.0246 -0.0365  0.2201
  739MOL0     C99664   4.635   7.595   8.561  1.3901 -0.0897  0.1891
  739MOL0     C99665   4.557   7.484   8.567 -0.1813 -0.3690 -0.5654
  739MOL0     O99666   4.423   7.485   8.570  0.1674 -0.1620 -0.3766
  739MOL0     C99667   4.355   7.554   8.462  0.1303 -0.2432 -0.5803
  739MOL0     C99668   4.365   7.484   8.329 -0.0216  0.1767 -0.4670
  739MOL0     C99669   4.244   7.463   8.247  0.7029 -0.2862 -0.0224
  739MOL0     C99670   4.204   7.597   8.179 -0.4064  0.0542  0.0222
  739MOL0     C99671   4.105   7.556   8.068  0.0125 -0.3975 -0.3770
  739MOL0     C99672   4.040   7.677   7.998  0.4834 -0.0394 -1.1120
  739MOL0     C99673   3.935   7.630   7.894  0.9208  0.7029 -0.3357
  739MOL0     C99674   3.976   7.680   7.757  1.2213  0.0692 -0.6495
  739MOL0    Cl99675   4.139   7.631   7.695 -0.0159 -0.0733 -0.1021
  739MOL0     C99676   4.622   7.358   8.578  1.0922 -0.6452  0.1641
  739MOL0     C99677   4.759   7.346   8.558  0.5669  0.3945 -0.5753
  739MOL0     O99678   5.031   7.558   8.718  0.1186  0.2435 -0.2940
  739MOL0     C99679   5.244   7.453   8.460  0.2188 -0.3350  0.5601
  739MOL0     C99680   5.377   7.459   8.412  0.4676 -0.1991 -0.9908
  739MOL0     N99681   6.102   7.284   8.416  0.1012 -0.3392 -0.3259
  739MOL0     N99682   6.191   7.231   8.491  0.6980 -0.8491  0.4417
  739MOL0     C99683   7.496   7.401   8.341  0.0053  1.0296  0.0398
  739MOL0     C99684   7.636   7.370   8.338 -0.0924  1.0135 -0.9160
  739MOL0     C99685   8.063   7.261   8.485  1.2496 -0.7217 -0.2049
  739MOL0     C99686   8.172   7.340   8.502 -0.5290 -0.5991 -0.9531
  739MOL0     C99687   8.303   7.298   8.516 -0.4631 -0.0255  0.0514
  739MOL0     C99688   8.328   7.155   8.508  0.4560 -0.1594 -0.0475
  739MOL0     O99689   8.450   7.090   8.520  0.1272  0.0116  0.5728
  739MOL0     C99690   8.564   7.172   8.564 -0.6328  0.7292 -0.2353
  739MOL0     C99691   8.689   7.087   8.592  0.7768  0.3501  0.2158
  739MOL0     C99692   8.749   7.035   8.462  0.6473 -0.2762  0.4167
  739MOL0     C99693   8.808   7.136   8.365 -0.1316 -0.3114 -0.3288
  739MOL0     C99694   8.899   7.238   8.423 -0.0939 -0.0295  0.1259
  739MOL0     C99695   8.973   7.325   8.466  0.2902  0.1328 -0.8474
  739MOL0     C99696   8.211   7.075   8.489 -0.6162  0.3955  0.2538
  739MOL0     C99697   8.075   7.124   8.481 -0.3061 -0.4472 -0.5108
  739MOL0     H99698   7.660   7.194   8.615  0.6873  1.3056  0.3142
  739MOL0     H99699   7.435   7.251   8.642 -1.3140  1.2955  0.4457
  739MOL0     H99700   7.230   7.287   8.607  3.6576  0.7709 -0.0220
  739MOL0     H99701   7.228   7.464   8.636 -0.8255 -0.2659  1.0055
  739MOL0     H99702   7.034   7.475   8.461 -1.4513  1.6612  2.4200
  739MOL0     H99703   7.025   7.297   8.467 -3.3431  1.2985  0.0165
  739MOL0     H99704   7.007   7.314   8.717  1.1272  1.8984 -0.5217
  739MOL0     H99705   6.958   7.480   8.693  1.6144 -0.5334  1.6119
  739MOL0     H99706   6.826   7.220   8.597  2.8881  0.7838 -0.5863
  739MOL0     H99707   6.769   7.327   8.707 -2.0908  0.3685 -2.3239
  739MOL0     H99708   6.725   7.514   8.530 -2.3885  1.1475 -1.0458
  739MOL0     H99709   6.777   7.395   8.416 -0.2095  0.3493 -0.0453
  739MOL0     H99710   6.534   7.388   8.428 -0.3469 -1.7915 -0.8110
  739MOL0     H99711   6.580   7.239   8.505 -2.8408  0.8168  1.2969
  739MOL0     H99712   6.558   7.359   8.732  1.7223 -1.3004 -1.2909
  739MOL0     H99713   6.475   7.488   8.644 -1.1639 -0.1229  2.0751
  739MOL0     H99714   6.338   7.307   8.747  0.6430 -0.9909  0.5038
  739MOL0     H99715   6.397   7.199   8.617 -0.7466  1.1365 -3.2062
  739MOL0     H99716   6.280   7.549   8.524  0.1209 -0.1772  2.5823
  739MOL0     H99717   6.083   7.603   8.343 -1.2446  0.5718 -1.7426
  739MOL0     H99718   6.013   7.467   8.252  0.2933  1.7466 -1.4441
  739MOL0     H99719   5.921   7.511   8.533  0.4700  0.1525  0.7470
  739MOL0     H99720   5.830   7.445   8.391  0.0737  1.4988 -0.8286
  739MOL0     H99721   5.817   7.707   8.305  0.3381  1.1156  0.8151
  739MOL0     H99722   5.879   7.742   8.458 -0.2514  0.3059 -0.6635
  739MOL0     H99723   5.649   7.752   8.439 -1.5571 -1.2298 -1.9085
  739MOL0     H99724   5.705   7.662   8.578 -1.9505  1.9273 -0.8331
  739MOL0     H99725   5.492   7.689   8.639 -0.4381 -0.4418  2.4421
  739MOL0     H99726   5.177   7.771   8.702 -2.2312 -2.3546  0.2595
  739MOL0     H99727   5.230   7.668   8.837  1.3352  0.7917  0.1608
  739MOL0     H99728   5.337   7.785   8.755 -0.2002  1.3606 -2.8283
  739MOL0     H99729   4.829   7.679   8.546 -0.0358 -0.0655 -1.5326
  739MOL0     H99730   4.594   7.695   8.551  1.4040  0.2404  2.7840
  739MOL0     H99731   4.248   7.561   8.485 -0.6075 -1.5348 -3.2353
  739MOL0     H99732   4.392   7.657   8.469  2.1980 -1.0523  3.6857
  739MOL0     H99733   4.434   7.538   8.264 -0.0169 -0.1825 -0.7623
  739MOL0     H99734   4.395   7.381   8.352 -0.3494  0.0757 -0.4826
  739MOL0     H99735   4.153   7.426   8.296  0.5857 -1.0261 -0.7746
  739MOL0     H99736   4.260   7.392   8.165 -0.9638  1.1055 -1.6429
  739MOL0     H99737   4.161   7.662   8.255 -0.5071 -2.0199  1.8533
  739MOL0     H99738   4.291   7.655   8.147  0.1381 -0.7920 -0.0764
  739MOL0     H99739   4.020   7.499   8.108 -1.9708 -1.1172 -5.0573
  739MOL0     H99740   4.158   7.490   7.999 -2.6451  0.4228 -3.4216
  739MOL0     H99741   3.999   7.743   8.075  1.8014 -3.3782  2.8227
  739MOL0     H99742   4.109   7.752   7.958 -1.1616  3.5181  2.0861
  739MOL0     H99743   3.836   7.670   7.917  1.7538  3.1535 -0.6546
  739MOL0     H99744   3.929   7.521   7.888 -2.2517  0.5781  2.4543
  739MOL0     H99745   3.967   7.788   7.748 -1.3690 -0.0039  0.0489
  739MOL0     H99746   3.894   7.644   7.694  0.1251  2.5318 -0.7455
  739MOL0     H99747   4.555   7.273   8.589 -0.4752  0.2059 -2.1250
  739MOL0     H99748   4.803   7.247   8.552  0.1054  0.2647 -2.3747
  739MOL0     H99749   5.186   7.378   8.407  0.5970  0.2569 -0.7284
  739MOL0     H99750   5.417   7.397   8.333  1.2516  0.5394 -1.2032
  739MOL0     H99751   7.458   7.467   8.264  2.2517  0.2370 -1.8839
  739MOL0     H99752   7.679   7.387   8.240  0.8857 -0.9204 -0.8750
  739MOL0     H99753   8.152   7.445   8.485 -2.8539 -1.0596 -1.4265
  739MOL0     H99754   8.380   7.368   8.547  0.1364 -1.7876  2.9098
  739MOL0     H99755   8.594   7.237   8.481  1.8985 -0.4436 -0.3318
  739MOL0     H99756   8.540   7.231   8.653 -3.2856 -0.5289 -0.0424
  739MOL0     H99757   8.667   7.000   8.654 -3.3122  0.3406 -0.9558
  739MOL0     H99758   8.754   7.154   8.649  0.7481 -0.2729  1.0037
  739MOL0     H99759   8.671   6.979   8.408  0.6086 -0.4606  0.6635
  739MOL0     H99760   8.823   6.958   8.484  0.4952 -1.0730 -1.6028
  739MOL0     H99761   8.717   7.184   8.328 -0.5906 -0.3352  0.7359
  739MOL0     H99762   8.851   7.078   8.282 -2.0951  1.3782 -2.6477
  739MOL0     H99763   9.022   7.397   8.529 -0.5037 -1.7469  2.0866
  739MOL0     H99764   8.215   6.967   8.485 -1.0985  0.2394  2.4846
  739MOL0     H99765   7.994   7.053   8.467 -2.3095  1.4834  0.6082
  740MOL0     O99766   1.264   3.378   0.517 -0.1128 -0.4898  1.0703
  740MOL0     C99767   1.318   3.349   0.618 -0.4479  0.2440 -0.1367
  740MOL0     O99768   1.266   3.254   0.703 -0.5810  0.2127 -0.4285
  740MOL0     C99769   1.165   3.166   0.665  0.4220 -0.0049 -0.1107
  740MOL0     C99770   1.074   3.134   0.770 -0.5066 -0.2225 -0.2414
  740MOL0     C99771   0.984   3.035   0.754 -0.4555  0.6592  0.4475
  740MOL0     C99772   0.967   2.970   0.622  1.7070  0.5110  0.6769
  740MOL0     O99773   0.863   2.882   0.586 -0.1725 -0.1478 -0.0495
  740MOL0     C99774   0.764   2.868   0.690  0.4436 -1.1116 -0.2386
  740MOL0     C99775   0.669   2.755   0.637 -0.1591  0.1546 -0.2125
  740MOL0     C99776   0.549   2.739   0.724 -0.7701 -0.8390  0.2048
  740MOL0     C99777   0.452   2.629   0.662 -0.3979 -0.4386  0.0954
  740MOL0     C99778   0.303   2.627   0.713 -0.3941  0.5992 -0.4066
  740MOL0     C99779   0.240   2.499   0.658 -0.3021 -0.4326  0.7116
  740MOL0     C99780   0.106   2.466   0.729  0.2698  0.0472  0.3931
  740MOL0     C99781  -0.014   2.544   0.671 -0.2740  0.3870  0.0526
  740MOL0     N99782  -0.119   2.569   0.781  0.7586 -0.8039  0.9530
  740MOL0     C99783  -0.203   2.478   0.848  0.4352  0.6766  0.7491
  740MOL0     C99784  -0.269   2.548   0.937  0.5897 -0.3380 -0.3686
  740MOL0     C99785  -0.366   2.491   1.035 -0.6152  0.4408  0.1438
  740MOL0     C99786  -0.507   2.525   0.976  0.5642  0.1827 -0.2264
  740MOL0     C99787  -0.546   2.676   1.000  0.7032 -0.2520  0.0525
  740MOL0     C99788  -0.684   2.688   0.934 -0.6009 -0.1665  0.3764
  740MOL0     O99789  -0.779   2.611   1.014  0.1962  0.9852  0.0034
  740MOL0     C99790  -0.913   2.619   0.978  1.0840 -0.8029  0.3896
  740MOL0     C99791  -1.005   2.528   1.041 -0.5361 -0.3260  0.4300
  740MOL0     C99792  -1.141   2.532   1.018  0.5611  0.0892  0.1719
  740MOL0     C99793  -1.219   2.426   1.095  0.2103 -0.0266 -0.0409
  740MOL0     C99794  -1.189   2.606   0.910 -0.1794  0.0540  0.3032
  740MOL0     C99795  -1.322   2.594   0.859  0.1457 -0.8338 -0.2589
  740MOL0     O99796  -1.337   2.593   0.723 -0.9806 -0.0447 -0.6613
  740MOL0     C99797  -1.465   2.573   0.675 -0.2735  0.1380  0.5605
  740MOL0     C99798  -1.556   2.682   0.666 -0.8675  0.1192 -0.6431
  740MOL0     C99799  -1.693   2.647   0.641  0.1636  0.4686 -0.5032
  740MOL0     C99800  -1.732   2.518   0.605  0.3741  0.1736  0.8725
  740MOL0     O99801  -1.863   2.496   0.560  0.7994  0.2726  0.3361
  740MOL0     C99802  -1.970   2.594   0.585 -0.3204  0.7018 -0.2343
  740MOL0     C99803  -2.100   2.557   0.507 -0.6147 -0.3711  0.2100
  740MOL0     C99804  -2.217   2.660   0.514  0.3362  0.5607  0.3473
  740MOL0     C99805  -2.307   2.638   0.640 -0.1621  0.3237  0.3741
  740MOL0     C99806  -2.431   2.729   0.604 -0.9007  0.2998 -0.4098
  740MOL0     C99807  -2.516   2.753   0.731  0.4527 -0.2419 -0.1651
  740MOL0     C99808  -2.643   2.833   0.706 -0.7913 -0.2025 -0.5389
  740MOL0     C99809  -2.735   2.853   0.826 -0.3170  0.1320 -0.6715
  740MOL0    Cl99810  -2.871   2.970   0.792 -0.0427 -0.0375  0.2158
  740MOL0     C99811  -1.637   2.423   0.594 -0.8647  0.6854  0.2589
  740MOL0     C99812  -1.504   2.447   0.631  0.7740  0.7414 -0.2390
  740MOL0     O99813  -1.417   2.602   0.945 -0.0833  0.4578  0.6300
  740MOL0     C99814  -1.107   2.689   0.840 -0.0068  0.7341 -1.3331
  740MOL0     C99815  -0.969   2.694   0.876 -0.4266  0.0957 -0.1234
  740MOL0     N99816  -0.234   2.681   0.917  0.1853  0.8088  0.1070
  740MOL0     N99817  -0.142   2.697   0.832  0.0107 -0.1340  0.0407
  740MOL0     C99818   1.049   3.010   0.518 -0.5848 -0.0572 -0.4279
  740MOL0     C99819   1.150   3.106   0.540  0.9081 -0.4076  0.3281
  740MOL0     C99820   1.455   3.416   0.649  0.0390  0.2933 -0.2288
  740MOL0     C99821   1.525   3.493   0.554  1.0107 -0.3661  0.2314
  740MOL0     C99822   1.641   3.550   0.584 -0.8258 -0.0666  0.2699
  740MOL0     C99823   1.688   3.525   0.715 -0.1470  0.0347  0.0514
  740MOL0     O99824   1.812   3.574   0.736  0.2637 -1.0117  0.5007
  740MOL0     C99825   1.899   3.527   0.845  0.6554  0.4269 -0.9937
  740MOL0     C99826   2.049   3.565   0.811  0.3420  0.3036  0.9751
  740MOL0     C99827   2.113   3.458   0.727 -0.9728  0.7753 -0.7028
  740MOL0     C99828   2.264   3.455   0.724  1.0371  0.7526 -0.5464
  740MOL0     C99829   2.315   3.412   0.850 -0.5510  0.2728  0.0210
  740MOL0     C99830   2.347   3.386   0.960 -0.7370 -0.3418 -0.0953
  740MOL0     C99831   1.620   3.451   0.808  0.5242  0.5193  0.1199
  740MOL0     C99832   1.504   3.394   0.781  0.9093  0.5356 -0.1252
  740MOL0     H99833   1.095   3.172   0.869 -3.0433 -0.2393  0.3653
  740MOL0     H99834   0.926   3.004   0.841 -2.4180  0.3189 -0.9108
  740MOL0     H99835   0.802   2.835   0.787 -1.7871 -0.0924  1.0758
  740MOL0     H99836   0.710   2.960   0.714  0.9725 -0.8476 -0.0333
  740MOL0     H99837   0.630   2.792   0.542 -0.0155 -0.1822 -0.4056
  740MOL0     H99838   0.720   2.658   0.630 -1.9278 -0.6898 -2.9837
  740MOL0     H99839   0.588   2.716   0.824  1.1735  2.9472  0.5029
  740MOL0     H99840   0.484   2.826   0.737  0.8814  0.5031 -0.1687
  740MOL0     H99841   0.444   2.641   0.554  0.4131  0.5468  0.1366
  740MOL0     H99842   0.494   2.529   0.677 -1.4729 -0.9374 -0.1440
  740MOL0     H99843   0.295   2.626   0.823 -0.7848  0.4515 -0.4366
  740MOL0     H99844   0.259   2.720   0.676  0.6049  0.4370 -2.0570
  740MOL0     H99845   0.216   2.520   0.554  0.4760  0.1325  0.6407
  740MOL0     H99846   0.313   2.419   0.672  2.0361  1.6158  0.9577
  740MOL0     H99847   0.076   2.361   0.719 -2.1369  0.3129  3.4364
  740MOL0     H99848   0.122   2.491   0.834 -1.2237  1.0307  0.4118
  740MOL0     H99849  -0.054   2.477   0.594  3.5046 -0.3713 -1.4552
  740MOL0     H99850   0.016   2.639   0.627  2.3115  0.4147  1.6894
  740MOL0     H99851  -0.189   2.370   0.844 -0.8769  0.5240 -0.7485
  740MOL0     H99852  -0.348   2.386   1.061 -0.8756  0.8278  2.0618
  740MOL0     H99853  -0.349   2.538   1.133  2.9279 -2.2351  1.0457
  740MOL0     H99854  -0.579   2.454   1.018 -2.1420  2.7778 -0.2216
  740MOL0     H99855  -0.507   2.508   0.868 -1.3055  1.1750 -0.4108
  740MOL0     H99856  -0.472   2.739   0.950  0.2075  0.6590  0.4428
  740MOL0     H99857  -0.546   2.695   1.108  5.1291  0.4145  0.1291
  740MOL0     H99858  -0.678   2.648   0.833 -0.2080 -3.9243  1.7302
  740MOL0     H99859  -0.703   2.795   0.947  2.5031  0.5534 -0.1725
  740MOL0     H99860  -0.964   2.456   1.111  0.9610  0.0413 -0.0187
  740MOL0     H99861  -1.263   2.357   1.023  1.4256  0.4540 -1.2705
  740MOL0     H99862  -1.151   2.379   1.167  0.0285  1.1573  0.9507
  740MOL0     H99863  -1.285   2.480   1.163 -0.3349  0.8097 -1.2152
  740MOL0     H99864  -1.536   2.783   0.700 -4.2794  0.2465  1.4132
  740MOL0     H99865  -1.762   2.730   0.641  0.1439  0.6299  3.1797
  740MOL0     H99866  -1.985   2.593   0.694  3.8693 -1.1973  0.5216
  740MOL0     H99867  -1.941   2.695   0.555 -1.4513  0.9392 -0.5762
  740MOL0     H99868  -2.069   2.534   0.404  0.2657 -1.7340  0.7508
  740MOL0     H99869  -2.138   2.460   0.540  2.0313 -1.5788 -0.0035
  740MOL0     H99870  -2.277   2.653   0.423 -0.6019  3.9150  0.5716
  740MOL0     H99871  -2.165   2.756   0.515  3.1137 -0.8545  0.8244
  740MOL0     H99872  -2.338   2.533   0.639  0.1897  0.1278  2.8471
  740MOL0     H99873  -2.256   2.663   0.733  0.0964  0.8687  0.0891
  740MOL0     H99874  -2.487   2.679   0.525 -1.7653 -1.3006  1.1404
  740MOL0     H99875  -2.401   2.827   0.565 -1.6228  0.1823 -1.2962
  740MOL0     H99876  -2.555   2.657   0.767 -0.6034 -0.1771 -1.0519
  740MOL0     H99877  -2.466   2.810   0.809 -1.3221  1.0503  0.0975
  740MOL0     H99878  -2.709   2.784   0.634  1.6311 -0.8872 -2.4348
  740MOL0     H99879  -2.613   2.931   0.669 -1.0548 -0.3851 -1.2415
  740MOL0     H99880  -2.685   2.904   0.910  0.6797 -2.2771  0.2804
  740MOL0     H99881  -2.775   2.760   0.868  1.7993 -1.0354 -1.1256
  740MOL0     H99882  -1.669   2.321   0.576 -1.1898  0.9492 -0.6827
  740MOL0     H99883  -1.425   2.373   0.630  1.2208  1.0940  2.1815
  740MOL0     H99884  -1.144   2.752   0.759  2.2677  1.9815 -1.5025
  740MOL0     H99885  -0.902   2.752   0.814 -1.4892  0.2086 -1.1892
  740MOL0     H99886   1.049   2.968   0.418  2.4959  0.5949 -0.8145
  740MOL0     H99887   1.216   3.134   0.457  1.2693 -0.5152  0.5773
  740MOL0     H99888   1.486   3.505   0.453  2.9508 -0.6906 -0.6018
  740MOL0     H99889   1.697   3.606   0.510 -1.7331 -0.5919 -0.8299
  740MOL0     H99890   1.864   3.575   0.937 -1.9298  1.1167 -2.2522
  740MOL0     H99891   1.887   3.418   0.850  3.6559  0.0544  0.1153
  740MOL0     H99892   2.093   3.569   0.912  0.5033  0.1582  0.9110
  740MOL0     H99893   2.047   3.669   0.776 -3.7128  0.2570  0.6370
  740MOL0     H99894   2.081   3.467   0.623  1.2136 -0.3389 -1.5335
  740MOL0     H99895   2.083   3.360   0.765 -3.3562  1.4236 -0.7664
  740MOL0     H99896   2.308   3.550   0.693  0.2095  1.2806 -0.1496
  740MOL0     H99897   2.301   3.377   0.658 -0.5925 -0.1026 -0.4985
  740MOL0     H99898   2.388   3.352   1.053  2.0375 -1.0597 -1.4766
  740MOL0     H99899   1.655   3.435   0.910  0.5999 -2.8796 -0.3560
  740MOL0     H99900   1.445   3.335   0.849 -1.8711 -0.3137 -3.0135
  741MOL0     O99901   7.509  10.121   6.509  0.3957  1.0218  0.3219
  741MOL0     C99902   7.484  10.008   6.469  0.0596  0.0069  0.2943
  741MOL0     O99903   7.545   9.956   6.350  0.7762 -0.2941  0.5427
  741MOL0     C99904   7.644  10.028   6.289 -1.0709  0.4560  0.2032
  741MOL0     C99905   7.629  10.156   6.252  0.7288 -0.6084  0.7355
  741MOL0     C99906   7.730  10.224   6.186  0.3301  0.6383 -0.0125
  741MOL0     C99907   7.847  10.160   6.154  0.2190  0.2878  0.6389
  741MOL0     O99908   7.931  10.238   6.085 -0.1095  0.3142  0.4602
  741MOL0     C99909   8.062  10.189   6.052  0.0648 -0.1204  0.0273
  741MOL0     C99910   8.136  10.299   5.974  0.4186  0.2560  0.0974
  741MOL0     C99911   8.097  10.308   5.833  0.2495 -0.7059 -0.2343
  741MOL0     C99912   8.182  10.411   5.754  0.2381 -0.0455 -0.3657
  741MOL0     C99913   8.104  10.434   5.622  0.3496 -0.1480 -0.2855
  741MOL0     C99914   8.146  10.559   5.533  0.3567 -0.3613  0.2587
  741MOL0     C99915   8.033  10.574   5.424 -0.7999 -0.7429  0.3680
  741MOL0     C99916   8.064  10.693   5.331 -0.0713  0.5776  0.3889
  741MOL0     N99917   7.965  10.697   5.225  0.4793 -0.7761  0.3319
  741MOL0     C99918   7.997  10.707   5.091  1.0936  0.0806 -0.0757
  741MOL0     C99919   7.887  10.702   5.021  1.0052  0.1872 -0.6840
  741MOL0     C99920   7.878  10.708   4.872  0.6104  0.0566  0.9612
  741MOL0     C99921   7.954  10.596   4.805  0.8028 -0.0128  0.9733
  741MOL0     C99922   7.915  10.589   4.652  0.4233 -0.0327 -0.4050
  741MOL0     C99923   7.968  10.456   4.598  0.2488 -0.1094  0.2715
  741MOL0     O99924   7.987  10.457   4.451  0.8514  0.1791  0.3766
  741MOL0     C99925   7.891  10.493   4.364  0.5458  0.3601 -0.4675
  741MOL0     C99926   7.758  10.492   4.394  0.0698  0.4879  0.2598
  741MOL0     C99927   7.660  10.540   4.315  0.7472  0.6214 -0.4685
  741MOL0     C99928   7.515  10.519   4.364 -0.3594 -0.1581 -0.0534
  741MOL0     C99929   7.691  10.585   4.187  0.1839  0.3162  0.2801
  741MOL0     C99930   7.596  10.628   4.087  0.4585  0.2471  0.3507
  741MOL0     O99931   7.483  10.687   4.135  0.5683 -0.7615  0.1031
  741MOL0     C99932   7.386  10.720   4.044  0.2262  0.1238 -0.0505
  741MOL0     C99933   7.380  10.858   4.003  0.5646 -0.2922  0.4804
  741MOL0     C99934   7.270  10.907   3.928  0.2753 -0.2062  0.6891
  741MOL0     C99935   7.165  10.823   3.897 -0.3669 -0.0341  0.4319
  741MOL0     O99936   7.075  10.872   3.810  0.1117  0.0658 -0.1092
  741MOL0     C99937   6.959  10.796   3.775 -0.1901 -0.5941  0.7982
  741MOL0     C99938   6.834  10.862   3.832  0.1086  0.4667 -0.3571
  741MOL0     C99939   6.823  11.018   3.796  0.0164  0.8676  0.7174
  741MOL0     C99940   6.718  11.098   3.856 -0.2142  0.7815 -0.2344
  741MOL0     C99941   6.710  11.237   3.817  0.2999 -0.4775 -1.2510
  741MOL0     C99942   6.616  11.268   3.703 -0.0457 -0.2347 -0.5275
  741MOL0     C99943   6.600  11.411   3.653  0.5578 -0.5388  0.2416
  741MOL0     C99944   6.490  11.489   3.726  0.2774 -0.2594 -0.5650
  741MOL0    Cl99945   6.520  11.662   3.701  0.6179 -0.0953 -0.0359
  741MOL0     C99946   7.172  10.691   3.948  0.3378 -0.1568  0.2664
  741MOL0     C99947   7.281  10.636   4.017  0.2730 -0.4881  0.6765
  741MOL0     O99948   7.613  10.598   3.965 -0.4736  0.0863 -1.0103
  741MOL0     C99949   7.826  10.572   4.151 -0.1473  0.0731 -1.4140
  741MOL0     C99950   7.927  10.546   4.241  0.5205  0.0663 -0.0235
  741MOL0     N99951   7.783  10.679   5.113  0.2786 -0.2979 -0.1808
  741MOL0     N99952   7.835  10.680   5.230 -0.1366  0.8107 -0.8155
  741MOL0     C99953   7.871  10.036   6.204  0.4984  0.1548 -0.0026
  741MOL0     C99954   7.773   9.964   6.270  0.1525 -0.3741 -0.9280
  741MOL0     C99955   7.393   9.924   6.542  0.1066 -0.2112 -0.4462
  741MOL0     C99956   7.287   9.986   6.619 -1.0626 -0.4613  0.4794
  741MOL0     C99957   7.189   9.918   6.671  0.2347 -0.0738  0.2157
  741MOL0     C99958   7.181   9.777   6.668 -0.8987 -0.1987  0.5593
  741MOL0     O99959   7.100   9.698   6.763 -0.1658 -0.1327 -0.0684
  741MOL0     C99960   7.035   9.776   6.872 -0.0581  0.8869 -0.0711
  741MOL0     C99961   6.940   9.688   6.958  0.8196  0.6740  0.6166
  741MOL0     C99962   6.867   9.766   7.065  0.5289 -0.8342  0.6935
  741MOL0     C99963   6.756   9.681   7.136 -0.5144  0.0273 -0.3181
  741MOL0     C99964   6.679   9.769   7.222  0.0867  0.4038 -0.5155
  741MOL0     C99965   6.614   9.852   7.282  0.5143  1.1624  0.1564
  741MOL0     C99966   7.283   9.713   6.598  0.3685  0.1216  0.4311
  741MOL0     C99967   7.382   9.786   6.531 -0.3367 -1.0009 -0.0846
  741MOL0     H99968   7.530  10.196   6.272  1.2798  0.4676  1.3900
  741MOL0     H99969   7.732  10.330   6.162 -1.7180  0.4865 -1.1468
  741MOL0     H99970   8.125  10.163   6.138  0.0876 -0.0992  0.0174
  741MOL0     H99971   8.054  10.106   5.981 -0.8545  0.1957 -0.2533
  741MOL0     H99972   8.138  10.400   6.016  0.6042  1.3281 -2.2989
  741MOL0     H99973   8.239  10.260   5.980 -0.3103 -1.9566 -0.7762
  741MOL0     H99974   8.103  10.210   5.785 -1.5810 -1.3559  0.7767
  741MOL0     H99975   7.992  10.340   5.837  0.0664 -1.2125 -0.9216
  741MOL0     H99976   8.183  10.508   5.805 -0.3943  1.0701 -2.3481
  741MOL0     H99977   8.279  10.370   5.727  0.1336 -1.0216  0.6641
  741MOL0     H99978   8.127  10.345   5.562  1.6191 -0.1004  0.1032
  741MOL0     H99979   8.001  10.442   5.657  0.2831  1.4699 -0.7672
  741MOL0     H99980   8.149  10.647   5.599 -2.9381  0.7061 -0.7956
  741MOL0     H99981   8.242  10.554   5.482 -0.5834  0.6804 -1.7262
  741MOL0     H99982   8.043  10.488   5.358 -0.3377 -0.7273  0.4150
  741MOL0     H99983   7.938  10.593   5.474  0.0318  2.1733  1.0338
  741MOL0     H99984   8.164  10.698   5.288  1.0386 -0.3868  2.7138
  741MOL0     H99985   8.050  10.785   5.387 -0.3018  1.3457 -0.8827
  741MOL0     H99986   8.096  10.694   5.049  0.8300 -1.1014 -0.3682
  741MOL0     H99987   7.777  10.725   4.834  1.2256 -0.7022 -1.1852
  741MOL0     H99988   7.942  10.791   4.839 -0.7380  0.4071 -0.9339
  741MOL0     H99989   7.941  10.509   4.870  2.2909  1.6759  3.7728
  741MOL0     H99990   8.062  10.613   4.811  0.5367  1.4410  3.7210
  741MOL0     H99991   7.955  10.668   4.588 -0.2092  0.0806 -0.6700
  741MOL0     H99992   7.810  10.610   4.632  1.8777  4.1981 -6.3615
  741MOL0     H99993   7.908  10.371   4.633  0.0234 -1.4755 -3.1209
  741MOL0     H99994   8.073  10.446   4.626  0.9191  2.7265 -0.8708
  741MOL0     H99995   7.727  10.459   4.492 -2.8748 -0.4298 -0.8862
  741MOL0     H99996   7.459  10.473   4.282  0.0813  0.0883 -0.5063
  741MOL0     H99997   7.510  10.441   4.440 -1.9528  0.0245  0.0535
  741MOL0     H99998   7.470  10.614   4.394 -3.4247 -1.7038  0.5636
  741MOL0     H99999   7.464  10.921   4.031  0.8684  1.2795 -3.4166
  741MOL0     H    0   7.265  11.015   3.914 -1.3745 -0.5634 -2.2059
  741MOL0     H    1   6.946  10.782   3.668 -0.6611  2.7094  0.3176
  741MOL0     H    2   6.964  10.692   3.809 -1.4699 -0.5006  1.3241
  741MOL0     H    3   6.746  10.811   3.792  1.5323 -0.6966 -2.1060
  741MOL0     H    4   6.830  10.857   3.942 -0.3991 -2.4645 -0.4228
  741MOL0     H    5   6.814  11.028   3.688 -0.2247 -1.9262  0.4038
  741MOL0     H    6   6.916  11.069   3.823 -0.3528  1.4423  0.9334
  741MOL0     H    7   6.627  11.044   3.829 -0.8928  2.4133 -1.3548
  741MOL0     H    8   6.743  11.100   3.962  0.0621 -1.9595 -0.1715
  741MOL0     H    9   6.809  11.276   3.792  1.0867  0.0144  2.0570
  741MOL0     H   10   6.685  11.307   3.898 -1.5347 -1.3739 -0.9948
  741MOL0     H   11   6.657  11.221   3.613  0.5143  3.1157 -2.1736
  741MOL0     H   12   6.516  11.235   3.733  0.6593 -0.6461  1.5008
  741MOL0     H   13   6.582  11.400   3.546  0.2250 -3.6008  0.5202
  741MOL0     H   14   6.700  11.454   3.669  0.2334  0.5296 -0.5157
  741MOL0     H   15   6.490  11.461   3.832 -0.8479 -1.0487 -0.7472
  741MOL0     H   16   6.392  11.453   3.694 -0.4719  0.7084  0.5497
  741MOL0     H   17   7.097  10.614   3.928  3.6473 -3.5436 -0.3768
  741MOL0     H   18   7.283  10.546   4.077  3.4918  0.7925  2.7547
  741MOL0     H   19   7.859  10.604   4.052 -0.1406  0.1899 -1.3744
  741MOL0     H   20   8.032  10.546   4.212  0.7715  0.0483  0.8725
  741MOL0     H   21   7.974  10.005   6.186  1.8445  4.0736 -0.0025
  741MOL0     H   22   7.783   9.863   6.309 -2.6205 -0.3525  0.0464
  741MOL0     H   23   7.294  10.093   6.639 -1.4022 -0.2383 -0.5362
  741MOL0     H   24   7.119   9.979   6.727  1.3124  0.4201  1.0664
  741MOL0     H   25   7.103   9.817   6.947 -0.1397  0.7518  0.0767
  741MOL0     H   26   6.973   9.858   6.835 -0.8411  0.3530  0.0338
  741MOL0     H   27   7.002   9.608   6.998  4.2507  1.3400 -2.7419
  741MOL0     H   28   6.858   9.644   6.902 -0.9013  2.2779  1.7627
  741MOL0     H   29   6.832   9.859   7.020  4.9610  0.9363  0.3719
  741MOL0     H   30   6.940   9.806   7.136  2.0947  1.9476 -2.1898
  741MOL0     H   31   6.797   9.594   7.189 -0.7353 -1.1978 -2.0394
  741MOL0     H   32   6.685   9.645   7.060 -0.1419 -0.8322 -0.2801
  741MOL0     H   33   6.563   9.929   7.336 -3.4077 -1.2955  0.3467
  741MOL0     H   34   7.282   9.605   6.606 -2.9336  0.2001  3.5182
  741MOL0     H   35   7.454   9.742   6.462  1.1006  1.6182 -0.3942
  742MOL0     O   36   4.752   9.117   0.454  0.5847 -0.1136 -0.1985
  742MOL0     C   37   4.805   9.021   0.498 -0.2377 -0.3278 -0.3527
  742MOL0     O   38   4.752   8.926   0.576 -0.3191  0.0565 -0.1447
  742MOL0     C   39   4.630   8.938   0.633  1.1054  0.0090 -0.7332
  742MOL0     C   40   4.599   9.046   0.707  0.4618 -0.1596  0.0979
  742MOL0     C   41   4.492   9.055   0.800 -1.2967 -0.3576 -0.2543
  742MOL0     C   42   4.412   8.946   0.816  0.5643  0.3693 -0.5864
  742MOL0     O   43   4.311   8.942   0.907 -0.0870 -0.0383  0.4419
  742MOL0     C   44   4.187   9.009   0.877  0.5064  0.4958  0.7690
  742MOL0     C   45   4.084   8.984   0.989  0.9373 -0.5137  0.6038
  742MOL0     C   46   3.970   8.904   0.934  0.1499  0.3398 -0.0572
  742MOL0     C   47   3.883   8.846   1.049 -0.5933 -0.1693  0.7577
  742MOL0     C   48   3.755   8.780   1.011 -0.4502  0.9239 -0.5424
  742MOL0     C   49   3.685   8.738   1.145  0.4615  0.3679  0.0698
  742MOL0     C   50   3.537   8.711   1.123 -0.7658 -0.3686  0.6782
  742MOL0     C   51   3.481   8.617   1.222  0.7984 -0.2987  0.3596
  742MOL0     N   52   3.331   8.603   1.216  0.2216  0.2591  0.4749
  742MOL0     C   53   3.232   8.696   1.221  0.4999  0.0880 -0.6017
  742MOL0     C   54   3.109   8.638   1.213 -0.0193 -0.5187  0.0644
  742MOL0     C   55   2.978   8.700   1.240  1.3335  0.6848  0.0598
  742MOL0     C   56   2.889   8.712   1.113  0.7940 -0.6375 -0.2255
  742MOL0     C   57   2.774   8.812   1.153 -0.1768  0.2117 -0.0334
  742MOL0     C   58   2.688   8.756   1.277  0.6575  0.7928  0.7216
  742MOL0     O   59   2.563   8.829   1.280  0.2910 -0.5945 -0.2546
  742MOL0     C   60   2.458   8.752   1.316  0.4028  0.0397  0.2779
  742MOL0     C   61   2.344   8.749   1.242 -0.3035 -0.1977 -0.2715
  742MOL0     C   62   2.229   8.680   1.282  0.4528 -0.1982  1.3100
  742MOL0     C   63   2.117   8.688   1.180 -0.3882 -0.8903  0.4703
  742MOL0     C   64   2.224   8.604   1.402 -0.3939  0.8685  0.3968
  742MOL0     C   65   2.105   8.524   1.455  0.0099  0.4253  0.0248
  742MOL0     O   66   2.118   8.460   1.583 -0.4105 -0.7610  0.3848
  742MOL0     C   67   2.022   8.373   1.617  0.1661  0.8608  0.0149
  742MOL0     C   68   1.979   8.267   1.543 -0.6773  0.5582  0.7172
  742MOL0     C   69   1.899   8.164   1.602 -0.3852  0.5350 -0.1558
  742MOL0     C   70   1.850   8.173   1.733 -0.2962  0.5640  0.2316
  742MOL0     O   71   1.787   8.076   1.807 -0.8119  0.0373 -0.6719
  742MOL0     C   72   1.745   7.953   1.745  0.0530 -0.3124  0.2673
  742MOL0     C   73   1.603   7.960   1.689  0.2582 -0.0827  0.6046
  742MOL0     C   74   1.549   7.831   1.625  0.1232  0.3184 -0.0416
  742MOL0     C   75   1.554   7.719   1.729  0.2964  0.6149  0.9547
  742MOL0     C   76   1.457   7.610   1.691  0.5447  1.3212 -0.5572
  742MOL0     C   77   1.484   7.475   1.767  0.6497 -0.3227 -0.3578
  742MOL0     C   78   1.385   7.362   1.742  0.8076 -0.5296 -0.0063
  742MOL0     C   79   1.246   7.372   1.798 -0.0800 -0.0626 -0.1207
  742MOL0    Cl   80   1.166   7.225   1.748  0.0983  0.0841 -0.1264
  742MOL0     C   81   1.889   8.284   1.800 -0.2341 -0.4712 -0.3123
  742MOL0     C   82   1.976   8.381   1.750  0.6083 -0.1144 -0.1359
  742MOL0     O   83   2.003   8.509   1.382 -0.0274 -0.1546 -0.8139
  742MOL0     C   84   2.343   8.612   1.483  0.4151  0.6152 -0.9435
  742MOL0     C   85   2.455   8.690   1.439  0.4938  0.5338  0.9777
  742MOL0     N   86   3.140   8.505   1.194 -0.8859  0.0451 -0.5184
  742MOL0     N   87   3.270   8.490   1.181  0.5200  0.5265 -0.3663
  742MOL0     C   88   4.434   8.831   0.743 -0.7864  0.5649 -0.2053
  742MOL0     C   89   4.543   8.825   0.652 -0.0569 -0.4083 -0.4448
  742MOL0     C   90   4.953   8.993   0.458 -0.5039 -0.0554 -0.5375
  742MOL0     C   91   5.013   8.865   0.484  0.3378  0.6777  0.5470
  742MOL0     C   92   5.138   8.839   0.419  0.0427  0.1849 -0.4795
  742MOL0     C   93   5.207   8.930   0.339  0.8591  0.8050  0.5842
  742MOL0     O   94   5.330   8.902   0.278  0.1663  0.2847  0.0217
  742MOL0     C   95   5.408   8.807   0.343  0.1360  0.1197 -0.3652
  742MOL0     C   96   5.561   8.830   0.309 -0.0053 -0.2155 -0.2626
  742MOL0     C   97   5.651   8.740   0.393 -0.1107  0.3000 -0.3579
  742MOL0     C   98   5.645   8.758   0.542 -1.0087 -0.7214  0.1206
  742MOL0     C   99   5.684   8.892   0.579  0.7668 -0.7829 -1.4076
  742MOL0     C  100   5.728   9.002   0.602  0.3410  0.4325 -0.2752
  742MOL0     C  101   5.151   9.055   0.319  0.4700  0.5067 -0.4466
  742MOL0     C  102   5.024   9.081   0.377  0.2477 -1.0842 -0.6135
  742MOL0     H  103   4.651   9.140   0.692 -1.5687  1.4162  2.2331
  742MOL0     H  104   4.477   9.142   0.863 -3.5804  0.4750 -1.8238
  742MOL0     H  105   4.190   9.118   0.876 -0.6626  0.5487  1.3951
  742MOL0     H  106   4.141   8.981   0.782  1.1516 -0.0016  0.5951
  742MOL0     H  107   4.124   8.930   1.075  0.0771 -0.5536  0.9817
  742MOL0     H  108   4.046   9.081   1.021  2.7054  0.7516 -0.8848
  742MOL0     H  109   3.907   8.960   0.864  2.4901  1.7843 -1.1140
  742MOL0     H  110   4.014   8.815   0.888 -2.3235  0.0171 -2.0234
  742MOL0     H  111   3.941   8.767   1.097 -1.2998 -0.5484  0.9982
  742MOL0     H  112   3.868   8.920   1.129 -0.6946  1.5064 -0.7365
  742MOL0     H  113   3.689   8.856   0.967 -0.1168  2.2027  1.0887
  742MOL0     H  114   3.770   8.698   0.940 -1.4361  0.3298 -0.0816
  742MOL0     H  115   3.736   8.647   1.178  1.4940 -0.3800 -3.1886
  742MOL0     H  116   3.692   8.813   1.223  0.5947  0.9009 -0.4519
  742MOL0     H  117   3.492   8.810   1.129  1.8260  0.9593 -0.1460
  742MOL0     H  118   3.521   8.673   1.022  1.5744  2.1738 -0.7831
  742MOL0     H  119   3.511   8.668   1.314  0.8902 -0.6826  0.5431
  742MOL0     H  120   3.523   8.516   1.217 -0.4078 -0.8115  0.1887
  742MOL0     H  121   3.255   8.802   1.233  1.2605  0.2126 -2.7565
  742MOL0     H  122   2.931   8.649   1.325  0.6792  2.4941  0.8385
  742MOL0     H  123   2.990   8.797   1.291 -2.8249  1.5093 -0.1986
  742MOL0     H  124   2.865   8.612   1.075  4.8437 -2.2178  0.8149
  742MOL0     H  125   2.946   8.763   1.035 -0.9071  1.3240 -0.2701
  742MOL0     H  126   2.711   8.833   1.067  1.9474  1.7254 -1.3062
  742MOL0     H  127   2.819   8.908   1.180  1.2459 -0.2017 -0.8147
  742MOL0     H  128   2.751   8.768   1.366  1.5073 -0.6382  0.3523
  742MOL0     H  129   2.671   8.649   1.265 -1.2044  1.3824 -3.9796
  742MOL0     H  130   2.351   8.796   1.145  0.5171  4.1633  1.6471
  742MOL0     H  131   2.094   8.582   1.161  0.3355 -0.9266 -0.2335
  742MOL0     H  132   2.033   8.743   1.223 -0.1985 -0.3514  0.1532
  742MOL0     H  133   2.140   8.733   1.083  2.3465  0.9555  1.8667
  742MOL0     H  134   2.015   8.257   1.442 -1.2412  0.4230  0.5268
  742MOL0     H  135   1.888   8.070   1.549  4.8663 -0.2111 -0.4677
  742MOL0     H  136   1.811   7.923   1.663 -1.3700 -0.5837 -0.8293
  742MOL0     H  137   1.755   7.867   1.812 -0.9416 -0.4503  0.2515
  742MOL0     H  138   1.536   7.986   1.771  0.3326 -0.2513  0.7188
  742MOL0     H  139   1.600   8.045   1.619  1.5446 -0.2043  0.3764
  742MOL0     H  140   1.609   7.813   1.536 -0.8277  2.0951 -1.0797
  742MOL0     H  141   1.448   7.843   1.586  0.5700  0.1066 -1.2897
  742MOL0     H  142   1.656   7.679   1.728 -0.4011 -1.2525  1.5200
  742MOL0     H  143   1.534   7.757   1.829  1.8914 -0.1822  1.6163
  742MOL0     H  144   1.459   7.584   1.585 -0.5284 -0.6159 -0.1536
  742MOL0     H  145   1.355   7.650   1.688 -0.0570 -0.2207 -2.2379
  742MOL0     H  146   1.587   7.444   1.752  0.7153 -1.5422  2.0394
  742MOL0     H  147   1.473   7.484   1.876  0.6339 -0.5050 -0.3437
  742MOL0     H  148   1.423   7.271   1.791 -0.1169 -0.4443  0.8907
  742MOL0     H  149   1.387   7.350   1.634  3.2996  1.2048 -0.2560
  742MOL0     H  150   1.199   7.461   1.755  2.6364  1.4234 -0.2729
  742MOL0     H  151   1.247   7.391   1.906  3.5969  3.3157 -0.4943
  742MOL0     H  152   1.841   8.298   1.896 -0.9104  1.4229 -0.8812
  742MOL0     H  153   2.003   8.460   1.820 -2.5898  0.4092  0.6324
  742MOL0     H  154   2.349   8.573   1.584  2.7615  1.5556 -0.6552
  742MOL0     H  155   2.543   8.689   1.503  0.5145 -1.0803  0.9602
  742MOL0     H  156   4.366   8.748   0.759 -0.5230  0.8018  2.5191
  742MOL0     H  157   4.551   8.737   0.591  1.9744 -0.8594  0.3720
  742MOL0     H  158   4.964   8.794   0.548 -1.8557  2.9825  1.5890
  742MOL0     H  159   5.173   8.740   0.446 -1.2781  0.3562  2.1343
  742MOL0     H  160   5.394   8.830   0.449 -0.7225  0.9285 -0.6449
  742MOL0     H  161   5.380   8.702   0.332 -0.6834  0.2095  0.6783
  742MOL0     H  162   5.577   8.934   0.339 -0.5843 -0.6258  1.5835
  742MOL0     H  163   5.572   8.809   0.202 -4.0032 -3.3521 -0.3104
  742MOL0     H  164   5.756   8.765   0.377  0.1435 -1.3911 -1.5781
  742MOL0     H  165   5.636   8.636   0.363  0.6877  0.3074 -0.8065
  742MOL0     H  166   5.719   8.695   0.594  1.3798  2.3591  0.7326
  742MOL0     H  167   5.544   8.728   0.573 -0.3132 -1.9219  1.3669
  742MOL0     H  168   5.769   9.101   0.611  1.6890 -0.1554  0.3123
  742MOL0     H  169   5.193   9.136   0.260  2.0339 -0.4142 -0.6604
  742MOL0     H  170   4.975   9.174   0.350 -2.8563 -2.4881 -0.3303
  743MOL0     O  171   8.747   5.675   3.262  0.6800  1.0549 -0.1660
  743MOL0     C  172   8.847   5.624   3.308 -0.2139 -0.3192 -0.0949
  743MOL0     O  173   8.898   5.650   3.433 -0.8700 -0.3824 -0.1788
  743MOL0     C  174   8.804   5.687   3.532  0.0485  0.0872  0.4664
  743MOL0     C  175   8.842   5.801   3.607 -0.6238 -0.8595  0.0477
  743MOL0     C  176   8.763   5.837   3.715  0.1326  0.4729 -0.2165
  743MOL0     C  177   8.643   5.773   3.739  0.0646  0.1843  0.3588
  743MOL0     O  178   8.565   5.832   3.836 -0.1131  0.3355 -0.2245
  743MOL0     C  179   8.434   5.776   3.854 -0.2026 -0.2086 -0.3671
  743MOL0     C  180   8.353   5.869   3.955 -1.0930  0.6973  0.2098
  743MOL0     C  181   8.329   6.015   3.905  0.0484  0.5164  0.3744
  743MOL0     C  182   8.220   6.082   3.988  0.0997  0.5164  0.1751
  743MOL0     C  183   8.079   6.069   3.936  0.4125  0.6257  0.4854
  743MOL0     C  184   7.973   6.101   4.037 -0.1201 -0.1819 -0.1163
  743MOL0     C  185   7.830   6.072   3.982 -0.4011 -1.2246 -0.7896
  743MOL0     C  186   7.727   6.130   4.084 -0.3495 -0.0092 -0.3506
  743MOL0     N  187   7.591   6.109   4.044  0.0655  0.1503 -0.7074
  743MOL0     C  188   7.526   6.180   3.951 -0.7924 -0.3659  0.4195
  743MOL0     C  189   7.400   6.130   3.944 -0.0655 -0.3328  0.6402
  743MOL0     C  190   7.295   6.182   3.850 -0.2884  0.1815  0.4727
  743MOL0     C  191   7.185   6.075   3.838 -0.0926  0.4359  0.5402
  743MOL0     C  192   7.084   6.094   3.718 -0.6008  0.6006 -0.6686
  743MOL0     C  193   6.979   6.194   3.761 -0.3785 -0.5331 -0.5052
  743MOL0     O  194   6.876   6.148   3.848  0.2852  0.2506  0.3158
  743MOL0     C  195   6.768   6.229   3.866  0.4034  0.2338  0.4121
  743MOL0     C  196   6.657   6.165   3.923  0.8419 -0.2688 -0.3715
  743MOL0     C  197   6.539   6.241   3.955  1.0656 -0.1399 -0.4201
  743MOL0     C  198   6.422   6.167   4.022 -0.0710  0.2779  0.7378
  743MOL0     C  199   6.531   6.373   3.904 -0.6073 -0.0611 -0.4398
  743MOL0     C  200   6.414   6.457   3.924  0.1979  0.5289 -0.0089
  743MOL0     O  201   6.433   6.591   3.905 -0.2069 -0.1597  0.7951
  743MOL0     C  202   6.324   6.664   3.879  0.7682 -0.2847 -0.0082
  743MOL0     C  203   6.277   6.676   3.745 -0.1051  0.0841 -0.2166
  743MOL0     C  204   6.180   6.773   3.715 -0.1608  0.0076  0.5041
  743MOL0     C  205   6.113   6.846   3.813 -0.5994  0.0107  0.7187
  743MOL0     O  206   6.022   6.948   3.763 -0.8091  0.9738 -0.8543
  743MOL0     C  207   5.944   7.007   3.867  0.1930 -0.2382  0.6645
  743MOL0     C  208   5.836   7.104   3.813 -1.2233 -0.0540  0.1964
  743MOL0     C  209   5.762   7.186   3.924  0.4572 -0.0545  0.2343
  743MOL0     C  210   5.696   7.320   3.877  0.7219 -0.2328  0.4925
  743MOL0     C  211   5.616   7.404   3.983 -0.4677  0.4890 -0.2329
  743MOL0     C  212   5.471   7.359   3.976  0.3528 -0.2387 -0.2244
  743MOL0     C  213   5.383   7.450   4.048  0.2509  0.8829  0.2232
  743MOL0     C  214   5.244   7.393   4.084  0.3820 -0.0720  0.5960
  743MOL0    Cl  215   5.168   7.338   3.933  0.1577  0.2203  0.1889
  743MOL0     C  216   6.147   6.817   3.945 -0.3328  0.0739 -0.0795
  743MOL0     C  217   6.256   6.733   3.980  0.0132  0.2771 -0.1572
  743MOL0     O  218   6.302   6.410   3.963 -0.0901 -0.0239  0.2289
  743MOL0     C  219   6.648   6.432   3.854  0.0683  0.2410  0.0793
  743MOL0     C  220   6.765   6.366   3.833  0.1940  0.6836 -0.2035
  743MOL0     N  221   7.389   6.030   4.033 -0.2060  0.2423 -1.2318
  743MOL0     N  222   7.503   6.016   4.101  0.3520 -0.7508  0.1279
  743MOL0     C  223   8.604   5.661   3.657  0.5090 -0.1508 -0.0600
  743MOL0     C  224   8.684   5.615   3.559  0.1425  0.6327 -0.1002
  743MOL0     C  225   8.945   5.559   3.215  0.1714  0.2590  0.2636
  743MOL0     C  226   9.067   5.505   3.261  0.4045 -0.9254  0.3753
  743MOL0     C  227   9.154   5.438   3.178  0.8679 -0.0239 -0.5359
  743MOL0     C  228   9.119   5.417   3.044 -1.3588  0.3869  0.6573
  743MOL0     O  229   9.201   5.340   2.960 -0.2792 -0.7096 -0.1394
  743MOL0     C  230   9.335   5.310   2.989 -0.3987 -0.0068  0.2382
  743MOL0     C  231   9.402   5.342   2.858 -0.4178 -0.5950 -0.3920
  743MOL0     C  232   9.532   5.274   2.850 -0.1963 -0.5505 -0.0185
  743MOL0     C  233   9.618   5.300   2.725 -0.0102 -0.1475  0.3835
  743MOL0     C  234   9.740   5.210   2.717  0.6708 -0.6502  0.3274
  743MOL0     C  235   9.838   5.140   2.715 -0.1582 -0.7112 -0.2833
  743MOL0     C  236   9.000   5.467   2.988 -0.7185 -0.3004  0.6032
  743MOL0     C  237   8.921   5.547   3.078 -0.4822 -0.7010 -0.2169
  743MOL0     H  238   8.941   5.845   3.597 -1.0166  0.3686  1.3769
  743MOL0     H  239   8.789   5.925   3.773  2.6378 -0.0637 -0.4288
  743MOL0     H  240   8.378   5.773   3.760  0.9469  0.9022 -1.1163
  743MOL0     H  241   8.444   5.672   3.885  1.8685  0.2482  0.6909
  743MOL0     H  242   8.262   5.814   3.983 -0.4929  0.1970  1.2811
  743MOL0     H  243   8.415   5.870   4.046 -0.3864 -2.4376 -0.1087
  743MOL0     H  244   8.420   6.073   3.917 -0.8601  2.3081 -1.0154
  743MOL0     H  245   8.296   6.009   3.801 -0.2833  0.4003  0.4850
  743MOL0     H  246   8.220   6.046   4.091 -0.0098 -0.7948 -0.2640
  743MOL0     H  247   8.262   6.183   3.994  2.2226 -0.3072 -0.0796
  743MOL0     H  248   8.069   6.143   3.857  1.8481 -1.9790 -2.3700
  743MOL0     H  249   8.082   5.970   3.888  5.2090 -0.1730  1.8967
  743MOL0     H  250   7.987   6.048   4.132  0.2427 -0.3622 -0.2676
  743MOL0     H  251   7.978   6.209   4.051  1.6748 -0.0061 -1.6953
  743MOL0     H  252   7.818   6.114   3.881 -0.4536 -0.4602 -0.4783
  743MOL0     H  253   7.815   5.965   3.972 -0.1546 -1.2261 -1.1653
  743MOL0     H  254   7.733   6.237   4.104 -4.2648  0.1534  0.6466
  743MOL0     H  255   7.731   6.079   4.181 -3.1081  2.9849  1.5383
  743MOL0     H  256   7.570   6.259   3.891  0.0292 -0.6237  0.6659
  743MOL0     H  257   7.252   6.279   3.878  0.5247  1.7804 -3.1888
  743MOL0     H  258   7.338   6.193   3.750  2.0671 -3.5275  0.8860
  743MOL0     H  259   7.128   6.064   3.930 -1.2484 -5.5068 -0.4630
  743MOL0     H  260   7.246   5.988   3.812  1.1455  0.8893  1.7743
  743MOL0     H  261   7.033   5.999   3.700 -3.4361  1.9835 -0.5460
  743MOL0     H  262   7.144   6.117   3.629 -2.2477 -1.1242 -2.3100
  743MOL0     H  263   6.928   6.237   3.674 -0.3126  1.5425  0.4118
  743MOL0     H  264   7.027   6.276   3.815  0.2215  0.8465 -2.9667
  743MOL0     H  265   6.652   6.056   3.922 -0.1531 -0.3178  2.5512
  743MOL0     H  266   6.388   6.217   4.114 -1.4089  0.1532  0.3369
  743MOL0     H  267   6.345   6.147   3.947 -0.8908  2.5054  0.9134
  743MOL0     H  268   6.451   6.073   4.071  1.3361  1.1509  1.6423
  743MOL0     H  269   6.340   6.618   3.678  0.4904  0.5164 -0.0397
  743MOL0     H  270   6.157   6.791   3.610  0.1517 -2.0899  0.0276
  743MOL0     H  271   5.880   6.933   3.917  1.5962 -2.8710 -1.1810
  743MOL0     H  272   6.003   7.064   3.939 -1.0133  1.9424  0.0122
  743MOL0     H  273   5.896   7.162   3.742 -0.0950  0.0294  1.1856
  743MOL0     H  274   5.768   7.049   3.749 -0.7370 -0.4730  0.0318
  743MOL0     H  275   5.826   7.208   4.010 -1.2544 -0.7315  1.7669
  743MOL0     H  276   5.687   7.119   3.969 -0.4763  2.6610  3.0760
  743MOL0     H  277   5.779   7.380   3.837 -1.8176  3.1431 -0.1968
  743MOL0     H  278   5.639   7.299   3.787  0.3317 -4.2587  1.5076
  743MOL0     H  279   5.626   7.510   3.957 -0.0242  0.4385 -0.2801
  743MOL0     H  280   5.666   7.381   4.077 -0.4980  1.5753  0.0586
  743MOL0     H  281   5.433   7.376   3.874 -0.2478  1.7141  0.2837
  743MOL0     H  282   5.444   7.256   4.003  0.7285 -0.6090 -1.1889
  743MOL0     H  283   5.381   7.539   3.984  0.9094  0.6939 -0.0662
  743MOL0     H  284   5.429   7.486   4.140  0.9928 -0.8190  0.5426
  743MOL0     H  285   5.180   7.469   4.131  2.0870  1.6460  0.3065
  743MOL0     H  286   5.251   7.307   4.150 -0.9709 -1.8572 -1.4740
  743MOL0     H  287   6.091   6.854   4.031  1.7037 -3.2750  2.9510
  743MOL0     H  288   6.286   6.699   4.079  0.7435  0.1896 -0.4003
  743MOL0     H  289   6.637   6.535   3.821 -4.1135  0.0995  0.4271
  743MOL0     H  290   6.851   6.420   3.796 -0.3440  0.7048 -1.4751
  743MOL0     H  291   8.506   5.616   3.666  0.3744 -0.0371 -0.8770
  743MOL0     H  292   8.669   5.528   3.495 -1.9391 -0.5111  1.8073
  743MOL0     H  293   9.102   5.534   3.359  1.4287 -0.3657 -0.1424
  743MOL0     H  294   9.245   5.400   3.222  0.8056  1.1058  0.6387
  743MOL0     H  295   9.380   5.371   3.069  0.3231  1.6445 -1.3584
  743MOL0     H  296   9.341   5.201   2.996 -2.0746 -0.4527 -3.2318
  743MOL0     H  297   9.385   5.449   2.845 -2.7998 -1.0648 -1.5638
  743MOL0     H  298   9.354   5.297   2.771 -0.3047  0.6304 -1.1129
  743MOL0     H  299   9.511   5.166   2.848 -0.7646 -0.4695 -2.9289
  743MOL0     H  300   9.579   5.295   2.946 -3.0612 -1.1275  1.6187
  743MOL0     H  301   9.666   5.398   2.738  1.3891 -0.8487  0.6857
  743MOL0     H  302   9.559   5.286   2.634 -0.5018 -0.2937  0.7213
  743MOL0     H  303   9.921   5.080   2.686  0.1476  0.5175 -2.0708
  743MOL0     H  304   8.959   5.451   2.889 -1.9470  1.1711  0.8230
  743MOL0     H  305   8.829   5.597   3.051 -0.3746  0.8294  2.0011
  744MOL0     O  306  10.549   8.491   9.169 -0.0242  0.6243  0.0158
  744MOL0     C  307  10.507   8.428   9.262 -0.1902  0.0294  0.9978
  744MOL0     O  308  10.387   8.435   9.318  0.5159 -0.4189 -0.2631
  744MOL0     C  309  10.291   8.522   9.267  1.0714 -0.2327 -0.1868
  744MOL0     C  310  10.249   8.514   9.132  0.5260 -0.8773  0.0023
  744MOL0     C  311  10.147   8.602   9.089 -1.0503 -0.3837  0.3686
  744MOL0     C  312  10.081   8.688   9.171  0.0325 -0.3397 -0.4773
  744MOL0     O  313   9.970   8.757   9.116  0.8562 -0.1842 -0.4189
  744MOL0     C  314   9.874   8.834   9.202 -0.4683  0.1188  0.0249
  744MOL0     C  315   9.793   8.773   9.308 -0.4854  0.8338 -0.8930
  744MOL0     C  316   9.704   8.870   9.385 -0.2419  0.3572  0.2095
  744MOL0     C  317   9.657   8.805   9.519 -1.3186  0.5969  0.4354
  744MOL0     C  318   9.605   8.913   9.618 -0.2645  0.2762  0.7498
  744MOL0     C  319   9.547   8.825   9.736 -0.3191 -0.4796  0.1343
  744MOL0     C  320   9.653   8.726   9.803 -0.5993 -0.7329  0.5580
  744MOL0     C  321   9.579   8.635   9.895  0.6383 -0.7560  0.9052
  744MOL0     N  322   9.520   8.520   9.818 -0.0217  0.1774 -0.6493
  744MOL0     C  323   9.409   8.528   9.738  0.0777 -0.0743  0.1965
  744MOL0     C  324   9.402   8.406   9.691  0.0751 -0.3014 -0.0913
  744MOL0     C  325   9.290   8.343   9.613 -0.3284  0.0393 -0.5211
  744MOL0     C  326   9.325   8.303   9.467 -0.3378 -0.1558  0.2346
  744MOL0     C  327   9.205   8.242   9.388 -0.9085 -1.1439 -0.4116
  744MOL0     C  328   9.248   8.190   9.255  0.0573  0.2324 -0.1494
  744MOL0     O  329   9.293   8.300   9.187 -0.0511  0.1093  0.9147
  744MOL0     C  330   9.260   8.326   9.054  0.2095  0.0039 -0.4094
  744MOL0     C  331   9.359   8.338   8.953 -0.4411 -0.0268  0.0467
  744MOL0     C  332   9.330   8.358   8.818 -0.4264 -0.5017 -0.0300
  744MOL0     C  333   9.447   8.363   8.719 -0.0822 -0.1329  0.1730
  744MOL0     C  334   9.199   8.386   8.786  0.2618  0.3742 -0.2036
  744MOL0     C  335   9.146   8.432   8.651 -0.3684 -0.5275 -0.8231
  744MOL0     O  336   9.009   8.423   8.631 -0.8318  0.1429  0.2147
  744MOL0     C  337   8.956   8.440   8.511  0.9387  0.3245  0.4674
  744MOL0     C  338   9.013   8.417   8.383  0.0127  0.6375  0.2397
  744MOL0     C  339   8.939   8.432   8.267 -0.4164  0.6785 -0.1113
  744MOL0     C  340   8.804   8.468   8.273  0.8184 -0.2194  0.0941
  744MOL0     O  341   8.738   8.468   8.155  0.2052  0.6723 -0.1580
  744MOL0     C  342   8.627   8.373   8.132 -0.4353  1.0157 -0.1437
  744MOL0     C  343   8.518   8.460   8.083 -0.7225  0.3160  0.3800
  744MOL0     C  344   8.416   8.490   8.199 -0.6500  0.3780  0.1035
  744MOL0     C  345   8.279   8.528   8.145  0.4521 -0.8467  0.0108
  744MOL0     C  346   8.196   8.573   8.270  0.7209 -0.1919  0.9767
  744MOL0     C  347   8.057   8.601   8.223  0.1889 -0.3080 -0.1195
  744MOL0     C  348   7.973   8.650   8.332 -0.4533  0.1653 -0.1367
  744MOL0     C  349   7.836   8.717   8.287  0.6927 -0.3100 -0.7357
  744MOL0    Cl  350   7.720   8.592   8.213 -0.0205  0.2619  0.6362
  744MOL0     C  351   8.738   8.482   8.399  0.1628 -0.9862  0.0551
  744MOL0     C  352   8.819   8.476   8.513  0.0270 -0.3690 -0.6717
  744MOL0     O  353   9.217   8.496   8.579  0.1220 -0.2681 -0.7172
  744MOL0     C  354   9.100   8.389   8.884 -0.3285  0.6342  0.9721
  744MOL0     C  355   9.129   8.352   9.015  1.0300  0.4787  0.2202
  744MOL0     N  356   9.513   8.330   9.733 -0.0391  0.8579 -0.3296
  744MOL0     N  357   9.590   8.400   9.808  0.7917 -0.8599  0.3753
  744MOL0     C  358  10.119   8.706   9.297  0.6470  0.5261 -0.4059
  744MOL0     C  359  10.227   8.621   9.350  0.3525  1.1833  0.0177
  744MOL0     C  360  10.605   8.350   9.338 -0.8154  0.4101  0.3423
  744MOL0     C  361  10.736   8.327   9.293  0.4436 -0.1969 -0.6840
  744MOL0     C  362  10.830   8.252   9.373  0.8677 -0.0791  0.3997
  744MOL0     C  363  10.787   8.177   9.479  0.6503  0.6684 -0.3243
  744MOL0     O  364  10.870   8.098   9.556 -0.1472  0.1527 -0.3663
  744MOL0     C  365  11.017   8.098   9.529  0.2207  0.3183 -0.1124
  744MOL0     C  366  11.081   8.233   9.576  0.1878  0.2743  0.1976
  744MOL0     C  367  11.233   8.225   9.565  0.4244  0.1895  0.6002
  744MOL0     C  368  11.298   8.174   9.690 -0.3031  0.1550  0.0161
  744MOL0     C  369  11.441   8.222   9.703  0.0856 -0.5361  0.0547
  744MOL0     C  370  11.557   8.260   9.727 -0.1235  0.1409 -0.6059
  744MOL0     C  371  10.656   8.199   9.521 -0.5511 -0.5490  0.1935
  744MOL0     C  372  10.564   8.281   9.452  0.0915 -0.5246 -0.3761
  744MOL0     H  373  10.298   8.436   9.075  3.9189  2.2204 -1.7570
  744MOL0     H  374  10.113   8.585   8.988 -0.2703 -0.1481  0.0598
  744MOL0     H  375   9.914   8.926   9.247  0.0243 -0.4351  0.7406
  744MOL0     H  376   9.808   8.881   9.128 -1.3288  0.9925  1.3020
  744MOL0     H  377   9.728   8.695   9.267  1.5577 -0.8521 -1.0742
  744MOL0     H  378   9.857   8.723   9.381  0.8588  1.3683 -1.6638
  744MOL0     H  379   9.767   8.957   9.407  0.7908 -0.3906  0.2808
  744MOL0     H  380   9.617   8.907   9.329 -0.7859 -1.5119 -0.2507
  744MOL0     H  381   9.582   8.728   9.496 -1.6003  0.3428  2.1001
  744MOL0     H  382   9.745   8.757   9.562  1.0609  1.0238 -3.4551
  744MOL0     H  383   9.694   8.971   9.644  1.2696 -2.2064  1.4670
  744MOL0     H  384   9.520   8.971   9.583  0.8439  1.2616 -0.4182
  744MOL0     H  385   9.511   8.898   9.810 -1.4451  0.2047 -1.0374
  744MOL0     H  386   9.454   8.791   9.689  0.8851  1.3296 -4.0887
  744MOL0     H  387   9.710   8.666   9.732  0.2930  1.3234 -0.5430
  744MOL0     H  388   9.721   8.784   9.866 -3.2293  0.8566  2.1147
  744MOL0     H  389   9.499   8.685   9.951 -0.6449  2.6617 -3.4276
  744MOL0     H  390   9.648   8.599   9.972  0.6493  1.3602  1.9577
  744MOL0     H  391   9.340   8.611   9.727 -3.0738 -2.5267  0.2027
  744MOL0     H  392   9.261   8.257   9.674 -0.8952  2.2939  2.5909
  744MOL0     H  393   9.207   8.413   9.599 -1.3042 -0.8173  0.7350
  744MOL0     H  394   9.408   8.234   9.482  0.1212  0.3508  0.0644
  744MOL0     H  395   9.360   8.394   9.416  0.9523 -0.8276 -0.1080
  744MOL0     H  396   9.132   8.323   9.373 -0.7555 -0.7126  1.0193
  744MOL0     H  397   9.155   8.168   9.451  0.7101 -0.5537  1.7037
  744MOL0     H  398   9.159   8.142   9.213  0.8945 -1.9068  0.3991
  744MOL0     H  399   9.321   8.109   9.254  3.1913  2.8394  0.6889
  744MOL0     H  400   9.461   8.311   8.980 -1.0148 -0.5994  1.7771
  744MOL0     H  401   9.474   8.462   8.681 -1.2031 -0.0504 -0.4551
  744MOL0     H  402   9.539   8.322   8.762 -1.3917 -0.2423  3.1128
  744MOL0     H  403   9.417   8.304   8.632  2.2154 -0.9714 -0.1000
  744MOL0     H  404   9.119   8.393   8.372  0.1597  0.9890  0.8792
  744MOL0     H  405   8.983   8.428   8.168 -1.9743  2.0788 -0.9208
  744MOL0     H  406   8.663   8.296   8.063  3.7175  2.4528  0.1099
  744MOL0     H  407   8.606   8.321   8.226 -0.9616  1.0472 -0.2411
  744MOL0     H  408   8.559   8.552   8.040  1.2207  0.3895  2.2274
  744MOL0     H  409   8.460   8.416   8.002  1.7212  1.5150 -2.1617
  744MOL0     H  410   8.450   8.578   8.255  0.5337 -0.4804  0.7820
  744MOL0     H  411   8.417   8.414   8.278 -3.2186 -0.0758 -0.2053
  744MOL0     H  412   8.289   8.604   8.067  0.2911 -1.0653 -0.2269
  744MOL0     H  413   8.237   8.438   8.098  2.5274 -0.1308 -3.6517
  744MOL0     H  414   8.233   8.670   8.306  1.1006  0.0481 -0.0397
  744MOL0     H  415   8.208   8.500   8.350 -0.7053  1.2491  2.6062
  744MOL0     H  416   8.060   8.677   8.144 -0.2265 -0.9008 -0.7239
  744MOL0     H  417   8.008   8.520   8.167 -1.1114 -0.8840  1.7483
  744MOL0     H  418   8.027   8.730   8.383 -1.5362  1.4993 -1.0037
  744MOL0     H  419   7.948   8.575   8.408 -0.4934  0.1464 -0.1674
  744MOL0     H  420   7.847   8.800   8.216 -1.0608  1.8290  1.3170
  744MOL0     H  421   7.792   8.755   8.380  0.2178  1.3950 -1.6050
  744MOL0     H  422   8.635   8.516   8.406 -0.3700 -2.4860 -0.2239
  744MOL0     H  423   8.790   8.512   8.611  0.8146 -0.4847 -0.3825
  744MOL0     H  424   8.995   8.414   8.868 -0.0142  0.5773 -1.5257
  744MOL0     H  425   9.045   8.328   9.080 -0.5947 -0.0833 -1.9526
  744MOL0     H  426  10.070   8.784   9.354 -4.3019 -3.3202  1.3128
  744MOL0     H  427  10.275   8.632   9.446  1.4028 -0.6985 -0.2571
  744MOL0     H  428  10.774   8.374   9.202  0.2040 -2.5871 -2.1276
  744MOL0     H  429  10.924   8.233   9.321 -0.9784  0.7628 -3.5563
  744MOL0     H  430  11.052   8.017   9.593 -0.9345 -1.3471 -1.4967
  744MOL0     H  431  11.039   8.082   9.423  3.2426  0.5254  0.3875
  744MOL0     H  432  11.061   8.254   9.681 -1.0779  0.0474  0.0226
  744MOL0     H  433  11.039   8.311   9.511 -0.6158 -1.8338 -1.9620
  744MOL0     H  434  11.271   8.327   9.559  1.2307  0.0232  2.3888
  744MOL0     H  435  11.271   8.173   9.477 -0.5008 -0.8697  0.8069
  744MOL0     H  436  11.284   8.066   9.694  2.0544 -0.3112 -1.9106
  744MOL0     H  437  11.248   8.216   9.778 -3.9484 -1.8374 -0.9318
  744MOL0     H  438  11.656   8.296   9.748 -0.8244  1.0629  1.3752
  744MOL0     H  439  10.622   8.154   9.613 -0.9562 -1.2581 -0.2964
  744MOL0     H  440  10.463   8.285   9.490  1.1776 -2.2373  3.1994
  745MOL0     O  441   4.431   4.438   6.998 -0.6077 -0.5334  0.6552
  745MOL0     C  442   4.518   4.371   6.933  0.6556  0.6099  0.1531
  745MOL0     O  443   4.487   4.290   6.832  0.0441 -0.7412 -0.2760
  745MOL0     C  444   4.365   4.307   6.772  0.7500  0.7139  0.6693
  745MOL0     C  445   4.257   4.217   6.798 -0.1293 -0.5480  0.0559
  745MOL0     C  446   4.127   4.233   6.740 -0.1010  0.0525 -0.5886
  745MOL0     C  447   4.107   4.335   6.643  0.1421  0.6403  0.5161
  745MOL0     O  448   3.997   4.334   6.557  0.1525  0.4935  0.5870
  745MOL0     C  449   3.879   4.259   6.599  0.0466  0.2484 -0.0563
  745MOL0     C  450   3.755   4.331   6.540 -1.0284  0.6345 -0.0371
  745MOL0     C  451   3.746   4.333   6.390 -0.1975 -0.0063 -0.1075
  745MOL0     C  452   3.600   4.323   6.346 -0.5704  0.1176  0.4118
  745MOL0     C  453   3.576   4.383   6.209 -0.0118 -0.1626 -0.1325
  745MOL0     C  454   3.444   4.348   6.145 -0.3602  1.0209 -0.8882
  745MOL0     C  455   3.451   4.400   6.000  0.2777  0.2177  0.3890
  745MOL0     C  456   3.319   4.383   5.929 -0.1152  0.3473 -0.4349
  745MOL0     N  457   3.215   4.451   6.005  0.8697 -0.3023  0.6901
  745MOL0     C  458   3.164   4.579   5.980  0.2467  0.0996 -0.6286
  745MOL0     C  459   3.044   4.580   6.044 -0.5718 -0.5408  0.6583
  745MOL0     C  460   2.965   4.707   6.032  0.0825  0.1295 -0.6079
  745MOL0     C  461   2.929   4.765   6.171  0.5582 -0.5554  0.2222
  745MOL0     C  462   2.861   4.668   6.265  0.6912 -0.9382  0.5240
  745MOL0     C  463   2.746   4.597   6.201  0.8914  1.0282  0.1705
  745MOL0     O  464   2.666   4.529   6.310  0.2632 -0.4582  0.5163
  745MOL0     C  465   2.565   4.602   6.374  0.0231  0.4518  0.4804
  745MOL0     C  466   2.510   4.517   6.475 -0.1638  0.0130 -1.2033
  745MOL0     C  467   2.392   4.560   6.531 -0.2100 -0.2949  0.0635
  745MOL0     C  468   2.321   4.457   6.614  0.1635 -0.0186  0.8355
  745MOL0     C  469   2.337   4.688   6.503  0.1904 -0.1649  0.4047
  745MOL0     C  470   2.203   4.735   6.551  0.1828  0.0299 -0.1733
  745MOL0     O  471   2.147   4.838   6.486  0.1856 -0.4681 -0.2575
  745MOL0     C  472   2.011   4.865   6.510 -0.1839 -0.2140  0.0446
  745MOL0     C  473   1.917   4.841   6.412  0.3013 -0.7226  0.3588
  745MOL0     C  474   1.783   4.882   6.426  0.3801  0.2576 -0.2727
  745MOL0     C  475   1.739   4.932   6.554  0.0783 -0.7950 -0.1720
  745MOL0     O  476   1.609   4.951   6.586  0.2748 -0.4068  0.5225
  745MOL0     C  477   1.510   4.984   6.483  1.5313  0.2729  0.1581
  745MOL0     C  478   1.362   5.024   6.528 -0.7373 -0.1540 -0.4833
  745MOL0     C  479   1.372   5.143   6.623 -0.6259  0.1039 -0.3505
  745MOL0     C  480   1.254   5.241   6.627 -0.6217 -0.8041  0.6049
  745MOL0     C  481   1.124   5.177   6.650  0.2450  0.5069  0.0156
  745MOL0     C  482   1.040   5.295   6.672 -0.2006 -0.2905 -0.2877
  745MOL0     C  483   0.889   5.249   6.672  0.4592  1.0506  0.0734
  745MOL0     C  484   0.800   5.359   6.723 -0.2316 -0.0325 -0.4617
  745MOL0    Cl  485   0.618   5.348   6.693 -0.3973 -0.2856 -0.1152
  745MOL0     C  486   1.830   4.945   6.662 -0.3564 -0.2949  0.8214
  745MOL0     C  487   1.965   4.919   6.636 -0.1618  0.7139  1.1587
  745MOL0     O  488   2.156   4.698   6.655  0.1356 -0.3438 -1.0895
  745MOL0     C  489   2.412   4.774   6.411  0.8207  0.2406 -0.2145
  745MOL0     C  490   2.526   4.731   6.344  0.1634  0.3529 -0.3276
  745MOL0     N  491   3.025   4.454   6.104 -0.2443  0.1762  0.6295
  745MOL0     N  492   3.121   4.377   6.067 -0.2149  0.3666  0.4217
  745MOL0     C  493   4.217   4.421   6.623 -0.0705 -0.4184 -0.1614
  745MOL0     C  494   4.339   4.416   6.688  0.3386  0.0534 -1.0677
  745MOL0     C  495   4.654   4.379   6.979 -0.1186 -0.0429 -0.9843
  745MOL0     C  496   4.689   4.432   7.106  0.0591  1.4510 -0.1268
  745MOL0     C  497   4.822   4.436   7.148  0.3172  0.3949 -0.1661
  745MOL0     C  498   4.922   4.393   7.065  0.5064  0.8669  0.0232
  745MOL0     O  499   5.046   4.389   7.111  0.2080 -0.1872  0.2533
  745MOL0     C  500   5.110   4.513   7.136 -0.3332  0.1981  0.2896
  745MOL0     C  501   5.256   4.488   7.170 -0.3033  0.2558 -0.9353
  745MOL0     C  502   5.337   4.460   7.049 -0.0604 -0.1339  0.7267
  745MOL0     C  503   5.469   4.374   7.078 -0.0701 -0.9261 -0.2889
  745MOL0     C  504   5.542   4.409   7.198 -0.5930 -0.8429 -1.3277
  745MOL0     C  505   5.593   4.439   7.308  0.8249  0.2831 -0.4852
  745MOL0     C  506   4.892   4.353   6.937 -0.6941 -0.2410 -0.1301
  745MOL0     C  507   4.761   4.345   6.890 -1.1260 -1.1133  0.1331
  745MOL0     H  508   4.277   4.132   6.862  1.0452  0.2512  0.7796
  745MOL0     H  509   4.054   4.161   6.775  0.5366 -0.3372 -0.0474
  745MOL0     H  510   3.881   4.158   6.558 -0.0554 -0.3949  1.4609
  745MOL0     H  511   3.862   4.255   6.707 -2.3145 -2.9468 -0.3782
  745MOL0     H  512   3.665   4.287   6.584  0.5723 -1.9405  0.8336
  745MOL0     H  513   3.765   4.437   6.565  0.5334 -0.2263  3.5941
  745MOL0     H  514   3.790   4.428   6.357  0.0758  0.1343  0.6501
  745MOL0     H  515   3.799   4.244   6.352 -0.5347 -1.4929  2.6831
  745MOL0     H  516   3.564   4.220   6.341 -0.8172  0.2379 -0.7067
  745MOL0     H  517   3.539   4.382   6.415  0.9298  3.5739 -0.9966
  745MOL0     H  518   3.571   4.491   6.222 -0.4239 -0.1236 -0.5970
  745MOL0     H  519   3.664   4.360   6.147  1.2242 -0.0186  1.4979
  745MOL0     H  520   3.423   4.241   6.150  1.6491  0.5848 -1.1132
  745MOL0     H  521   3.363   4.388   6.207 -0.6901 -0.0212 -0.6308
  745MOL0     H  522   3.470   4.507   5.996 -0.4785  0.4680  2.2962
  745MOL0     H  523   3.529   4.343   5.949  0.6720  0.5757  0.5906
  745MOL0     H  524   3.281   4.283   5.911 -0.6837  0.6468 -0.9325
  745MOL0     H  525   3.325   4.422   5.827 -0.0687  0.8862 -0.2325
  745MOL0     H  526   3.199   4.664   5.922  2.3973 -1.4176 -1.6849
  745MOL0     H  527   3.032   4.782   5.989 -2.3991  3.2761  0.6620
  745MOL0     H  528   2.872   4.700   5.976 -0.4533 -1.4691  0.4188
  745MOL0     H  529   2.858   4.844   6.146  0.9465 -0.4555 -0.6043
  745MOL0     H  530   3.027   4.792   6.213  0.4113 -2.6153  2.0993
  745MOL0     H  531   2.816   4.727   6.344  0.5726 -0.0544 -0.1883
  745MOL0     H  532   2.938   4.602   6.306 -0.8137 -3.6157 -0.6478
  745MOL0     H  533   2.796   4.524   6.137  0.3115  0.0290  0.8379
  745MOL0     H  534   2.684   4.667   6.144  1.4787  0.5128 -1.1434
  745MOL0     H  535   2.546   4.418   6.503 -1.9155 -0.4063 -0.3000
  745MOL0     H  536   2.350   4.353   6.594  2.8946  0.7101  0.6043
  745MOL0     H  537   2.337   4.465   6.722 -0.8109  1.2545  0.9061
  745MOL0     H  538   2.214   4.471   6.597  0.3263 -1.2045 -1.6047
  745MOL0     H  539   1.959   4.824   6.313 -0.3622  2.7323 -0.6660
  745MOL0     H  540   1.721   4.858   6.340  2.5609 -2.5775 -1.2341
  745MOL0     H  541   1.556   5.058   6.418  1.4794  0.0244 -0.1618
  745MOL0     H  542   1.497   4.897   6.418 -0.4571  1.1310 -0.6778
  745MOL0     H  543   1.306   5.066   6.444  0.4879  0.8969 -0.8047
  745MOL0     H  544   1.316   4.938   6.579  2.0972 -2.3432 -1.3155
  745MOL0     H  545   1.461   5.201   6.597 -0.6242  1.0063  1.4753
  745MOL0     H  546   1.377   5.107   6.727 -3.2189  0.4935 -0.0160
  745MOL0     H  547   1.267   5.315   6.706  1.9507  0.0665 -0.5225
  745MOL0     H  548   1.243   5.300   6.535 -2.2312 -2.8994 -0.6424
  745MOL0     H  549   1.121   5.117   6.742 -1.6299  1.3902  0.5799
  745MOL0     H  550   1.088   5.121   6.563  0.5443  0.0678  0.1665
  745MOL0     H  551   1.067   5.350   6.762  3.2499  3.3453 -3.2074
  745MOL0     H  552   1.052   5.362   6.587 -0.1586  2.0807  1.5028
  745MOL0     H  553   0.867   5.163   6.737  2.8820  1.6927  1.8701
  745MOL0     H  554   0.861   5.222   6.570  2.9217 -1.0209 -0.1692
  745MOL0     H  555   0.830   5.457   6.685 -1.7456  2.0194  3.1404
  745MOL0     H  556   0.818   5.372   6.831 -0.4469 -3.8537  0.1862
  745MOL0     H  557   1.796   4.952   6.765 -2.3735 -3.4777  0.5325
  745MOL0     H  558   2.041   4.935   6.712  0.1568  1.0569  0.7773
  745MOL0     H  559   2.373   4.874   6.392  1.5498  0.6027  0.1005
  745MOL0     H  560   2.552   4.792   6.259  1.8172  0.3480  0.1406
  745MOL0     H  561   4.195   4.495   6.547 -0.8928 -0.3046  0.1781
  745MOL0     H  562   4.418   4.487   6.667  0.1567 -0.1083 -2.4001
  745MOL0     H  563   4.616   4.483   7.167 -2.1568  2.3447 -3.2869
  745MOL0     H  564   4.854   4.491   7.236  1.9474  2.3701 -1.8687
  745MOL0     H  565   5.102   4.578   7.049  1.7311 -1.4082 -1.1973
  745MOL0     H  566   5.071   4.565   7.224 -0.7421  1.3534 -0.5482
  745MOL0     H  567   5.265   4.405   7.241  1.9201 -0.2228 -1.6956
  745MOL0     H  568   5.294   4.572   7.228  2.2776 -0.8418 -0.9387
  745MOL0     H  569   5.361   4.552   6.994 -0.3331  0.1046  1.0031
  745MOL0     H  570   5.280   4.399   6.978  1.2265 -0.4034 -0.1179
  745MOL0     H  571   5.533   4.401   6.993 -0.2390 -1.0227 -0.4495
  745MOL0     H  572   5.454   4.266   7.077  0.5349 -1.0974  2.4089
  745MOL0     H  573   5.637   4.451   7.405 -1.3781  1.4706  0.4513
  745MOL0     H  574   4.969   4.333   6.862 -0.7598 -2.9246  0.4007
  745MOL0     H  575   4.734   4.336   6.785 -2.1704 -0.8386  0.3624
  746MOL0     O  576   0.941  10.261   0.696 -0.0231 -0.3661  0.3200
  746MOL0     C  577   0.994  10.373   0.715 -0.3021  0.9028  0.2416
  746MOL0     O  578   0.938  10.478   0.778  0.1956 -0.1591  0.0119
  746MOL0     C  579   0.823  10.440   0.836 -0.0394  0.2209 -0.2265
  746MOL0     C  580   0.830  10.408   0.970  0.9942 -0.7142 -0.1264
  746MOL0     C  581   0.712  10.392   1.037 -0.7173  0.2156 -0.1252
  746MOL0     C  582   0.589  10.387   0.966  0.3424  0.0391 -0.4302
  746MOL0     O  583   0.479  10.367   1.048 -0.3962 -0.1975  0.4505
  746MOL0     C  584   0.356  10.318   0.990 -0.5895  0.5796 -0.3362
  746MOL0     C  585   0.241  10.302   1.093  0.4793  1.1132  0.3183
  746MOL0     C  586   0.121  10.257   1.023  0.0931  0.0113 -0.8081
  746MOL0     C  587  -0.007  10.276   1.102  0.1860  1.1013 -0.0760
  746MOL0     C  588  -0.123  10.237   1.009  0.2195  0.4048 -0.4976
  746MOL0     C  589  -0.144  10.088   1.005 -0.4422  0.0769  0.1097
  746MOL0     C  590  -0.284  10.058   0.940  0.0663 -0.3300  0.3661
  746MOL0     C  591  -0.326   9.916   0.977  0.5860 -0.8706  0.4148
  746MOL0     N  592  -0.465   9.874   0.929 -0.0740 -0.2149 -0.4466
  746MOL0     C  593  -0.543   9.947   0.846  0.4503  0.2656 -0.1525
  746MOL0     C  594  -0.658   9.883   0.833 -0.9536  0.2056 -0.5752
  746MOL0     C  595  -0.781   9.921   0.753  0.6556  0.0221  0.4901
  746MOL0     C  596  -0.871  10.012   0.830  0.4024  0.8014 -0.0717
  746MOL0     C  597  -0.941   9.963   0.961 -0.2699 -0.4491 -0.5209
  746MOL0     C  598  -0.995   9.820   0.952 -0.0848  0.4008  0.7771
  746MOL0     O  599  -1.119   9.821   0.874  0.1681 -0.3585 -0.1529
  746MOL0     C  600  -1.186   9.708   0.837 -0.2426 -0.2363 -0.4371
  746MOL0     C  601  -1.316   9.733   0.784  0.5708 -0.0535 -0.0699
  746MOL0     C  602  -1.413   9.638   0.775  0.6821  0.2623  0.3658
  746MOL0     C  603  -1.551   9.673   0.709 -1.0598  0.8086  0.6009
  746MOL0     C  604  -1.379   9.503   0.808 -0.0292 -0.5215 -0.2315
  746MOL0     C  605  -1.466   9.381   0.798 -0.0398 -1.4791  0.6975
  746MOL0     O  606  -1.423   9.280   0.871 -0.0973  0.5524  0.2404
  746MOL0     C  607  -1.442   9.154   0.843  0.0473 -0.3398 -0.0081
  746MOL0     C  608  -1.463   9.073   0.955  0.6202  0.8678 -0.0454
  746MOL0     C  609  -1.484   8.932   0.947 -0.2771  0.5828  0.0020
  746MOL0     C  610  -1.480   8.867   0.822 -0.2248  0.0489  0.2444
  746MOL0     O  611  -1.498   8.729   0.826  0.0550  0.9779  0.7854
  746MOL0     C  612  -1.488   8.652   0.711 -0.2966 -0.5735  0.2994
  746MOL0     C  613  -1.553   8.514   0.730  1.1740  0.4343  0.4339
  746MOL0     C  614  -1.700   8.516   0.781  0.6767 -0.0422 -0.7864
  746MOL0     C  615  -1.762   8.371   0.797 -0.8242  0.2104  0.2944
  746MOL0     C  616  -1.906   8.375   0.820  0.2197 -0.5607  0.1745
  746MOL0     C  617  -1.950   8.406   0.969 -0.7439  0.1278  0.3624
  746MOL0     C  618  -2.094   8.455   0.994  0.3123  0.1311  0.7080
  746MOL0     C  619  -2.131   8.521   1.130  0.0732 -0.3829 -0.3783
  746MOL0    Cl  620  -2.299   8.528   1.149 -0.2102 -0.1435  0.1951
  746MOL0     C  621  -1.469   8.947   0.705  0.7590 -0.3914 -0.6520
  746MOL0     C  622  -1.457   9.089   0.715 -0.1574  1.4433  0.5433
  746MOL0     O  623  -1.571   9.389   0.734  0.0260  0.1466  0.5509
  746MOL0     C  624  -1.249   9.480   0.847 -0.3340  0.6406  0.2356
  746MOL0     C  625  -1.156   9.577   0.877  0.1523 -0.0964  0.6785
  746MOL0     N  626  -0.654   9.772   0.913  0.4756 -0.6508 -0.3908
  746MOL0     N  627  -0.541   9.768   0.972 -0.0546  0.5669 -1.1632
  746MOL0     C  628   0.588  10.400   0.829 -0.3907  0.1984 -0.8020
  746MOL0     C  629   0.705  10.429   0.768  1.0711  0.2113  0.4538
  746MOL0     C  630   1.129  10.395   0.670 -1.0384  0.1208 -0.6181
  746MOL0     C  631   1.200  10.513   0.699  0.5493  0.3164  1.3410
  746MOL0     C  632   1.318  10.536   0.633 -0.6368 -0.3375  0.3192
  746MOL0     C  633   1.381  10.432   0.561  0.6890 -1.2062  0.4316
  746MOL0     O  634   1.505  10.475   0.507 -0.3948  0.1250  0.0862
  746MOL0     C  635   1.601  10.375   0.468  0.1579 -0.2588  0.1551
  746MOL0     C  636   1.737  10.433   0.436  0.3971  0.0725 -0.0554
  746MOL0     C  637   1.821  10.335   0.345  0.3567 -0.5876 -0.1641
  746MOL0     C  638   1.937  10.396   0.261 -0.6109 -0.5374  0.6852
  746MOL0     C  639   1.892  10.514   0.191 -0.1092 -0.4392 -0.2818
  746MOL0     C  640   1.878  10.628   0.143 -0.5806 -0.5567 -0.1874
  746MOL0     C  641   1.315  10.312   0.559  0.0344 -0.1389  0.2796
  746MOL0     C  642   1.187  10.292   0.601 -0.0021  0.3342 -0.1874
  746MOL0     H  643   0.929  10.392   1.012  1.6061  0.4187 -1.0627
  746MOL0     H  644   0.696  10.380   1.144 -1.0496  2.3292  0.1186
  746MOL0     H  645   0.322  10.391   0.916  1.7548  0.1251 -1.9797
  746MOL0     H  646   0.372  10.223   0.937  0.1448  1.2898 -1.4442
  746MOL0     H  647   0.273  10.224   1.163  1.1583  1.1244  0.0261
  746MOL0     H  648   0.210  10.390   1.149 -4.4950 -1.1838  1.7444
  746MOL0     H  649   0.121  10.316   0.931  0.1688 -0.8706 -1.3927
  746MOL0     H  650   0.145  10.157   0.985  3.0369 -0.4333  1.7716
  746MOL0     H  651  -0.010  10.218   1.194 -3.2963  1.1866 -0.0077
  746MOL0     H  652  -0.017  10.381   1.133 -0.6803  1.3150 -1.0413
  746MOL0     H  653  -0.210  10.286   1.054  2.2744  2.3774  1.6332
  746MOL0     H  654  -0.109  10.286   0.912  1.3944 -1.0478 -1.1047
  746MOL0     H  655  -0.066  10.037   0.948  2.1905  2.3973  1.4015
  746MOL0     H  656  -0.146  10.041   1.104 -1.8010  0.5106  0.3146
  746MOL0     H  657  -0.357  10.125   0.985 -0.1542 -0.9618  0.9513
  746MOL0     H  658  -0.285  10.076   0.832  1.3108 -0.0784  0.3774
  746MOL0     H  659  -0.313   9.901   1.085  1.0610  1.1800  0.6874
  746MOL0     H  660  -0.250   9.849   0.935  0.4337 -0.3511 -0.7052
  746MOL0     H  661  -0.515  10.038   0.794 -1.1070  1.7051  1.4033
  746MOL0     H  662  -0.754   9.976   0.662 -0.4731 -3.4112 -2.1091
  746MOL0     H  663  -0.841   9.839   0.714 -0.1279  0.7046  0.2297
  746MOL0     H  664  -0.952  10.025   0.758  0.3697 -2.0265 -0.6548
  746MOL0     H  665  -0.824  10.111   0.839 -0.0438  1.4972 -3.6298
  746MOL0     H  666  -1.014  10.041   0.986  3.6226  3.0005  1.1946
  746MOL0     H  667  -0.872   9.973   1.045 -0.5280  1.8678 -0.5172
  746MOL0     H  668  -1.037   9.778   1.044 -0.9900  0.9292  0.6169
  746MOL0     H  669  -0.921   9.748   0.916 -0.6264  0.8741 -1.4423
  746MOL0     H  670  -1.327   9.839   0.766  1.1778  0.2585  1.3101
  746MOL0     H  671  -1.644   9.651   0.763 -1.0876 -3.9437 -0.9231
  746MOL0     H  672  -1.546   9.775   0.672  1.7021  1.2301  1.8457
  746MOL0     H  673  -1.553   9.624   0.611  0.3138  1.4356  0.2279
  746MOL0     H  674  -1.491   9.112   1.053 -1.8319 -1.7541  0.4178
  746MOL0     H  675  -1.489   8.883   1.044  1.6287  1.8177  0.8035
  746MOL0     H  676  -1.540   8.701   0.628 -3.3399 -1.5817  1.4641
  746MOL0     H  677  -1.385   8.629   0.684 -0.0328  1.7514 -0.9004
  746MOL0     H  678  -1.539   8.443   0.648  1.0896 -0.4051  1.1331
  746MOL0     H  679  -1.500   8.465   0.812  0.9560 -0.0536  0.2838
  746MOL0     H  680  -1.771   8.572   0.718 -1.5777 -1.0261  0.7374
  746MOL0     H  681  -1.702   8.557   0.882  2.3811  0.1186 -0.7930
  746MOL0     H  682  -1.733   8.318   0.706  0.9802  1.0889  0.3181
  746MOL0     H  683  -1.719   8.308   0.875 -0.5759 -0.5303 -0.4209
  746MOL0     H  684  -1.951   8.276   0.810 -0.3263 -0.4303  1.1812
  746MOL0     H  685  -1.951   8.451   0.755  1.1463  1.8201  2.1523
  746MOL0     H  686  -1.940   8.311   1.023  1.7351  0.0510 -0.1315
  746MOL0     H  687  -1.877   8.480   1.003  1.0328 -0.3425 -2.1464
  746MOL0     H  688  -2.161   8.372   0.968  1.9136 -1.4894  1.5452
  746MOL0     H  689  -2.109   8.525   0.911  0.0371 -1.3098 -0.5034
  746MOL0     H  690  -2.091   8.623   1.135  1.5906 -0.9734  0.2428
  746MOL0     H  691  -2.094   8.463   1.215 -0.2688 -1.8095 -1.1737
  746MOL0     H  692  -1.482   8.917   0.601  0.2917  0.2852 -0.7934
  746MOL0     H  693  -1.464   9.134   0.616  0.7002 -2.6203 -1.5539
  746MOL0     H  694  -1.203   9.384   0.866 -4.2528 -1.2167  1.3497
  746MOL0     H  695  -1.059   9.542   0.912  1.5444 -0.4057 -3.0451
  746MOL0     H  696   0.496  10.380   0.775 -1.7307  0.0321  1.4045
  746MOL0     H  697   0.694  10.443   0.661 -3.1166 -1.8610  0.4072
  746MOL0     H  698   1.146  10.594   0.747  1.8052  2.2226 -0.2920
  746MOL0     H  699   1.371  10.631   0.627 -2.9003  1.0953  1.5353
  746MOL0     H  700   1.602  10.294   0.542 -0.5265 -2.9915 -2.6165
  746MOL0     H  701   1.558  10.319   0.385 -0.2376  0.6756 -0.2903
  746MOL0     H  702   1.779  10.474   0.528 -2.0092  0.0132  1.1307
  746MOL0     H  703   1.715  10.521   0.375 -0.1516  1.2112  1.7025
  746MOL0     H  704   1.750  10.286   0.276  0.1938 -0.4533 -0.0926
  746MOL0     H  705   1.862  10.261   0.413 -0.1692  1.7877  2.9522
  746MOL0     H  706   1.967  10.317   0.191  0.2368 -0.6900  1.2005
  746MOL0     H  707   2.020  10.413   0.332  2.2591  0.3477 -2.6123
  746MOL0     H  708   1.863  10.728   0.109  0.8676 -0.6620 -1.2164
  746MOL0     H  709   1.361  10.230   0.504 -0.4039 -0.6773  0.6963
  746MOL0     H  710   1.135  10.201   0.570  1.6934 -0.3293 -1.2422
  747MOL0     O  711   0.281   9.648  11.122 -0.3896  0.5321  0.9008
  747MOL0     C  712   0.360   9.600  11.202  0.2960  0.6534  0.0506
  747MOL0     O  713   0.321   9.541  11.323  0.3131  0.3538  0.2187
  747MOL0     C  714   0.190   9.534  11.354 -0.1736 -0.0569 -0.2084
  747MOL0     C  715   0.078   9.510  11.270 -0.5850 -0.3053  0.0011
  747MOL0     C  716  -0.051   9.522  11.323  0.4741  0.4265 -0.1579
  747MOL0     C  717  -0.085   9.548  11.460 -0.1765 -0.2564  0.1859
  747MOL0     O  718  -0.200   9.550  11.531  0.6833  0.0346 -0.0278
  747MOL0     C  719  -0.322   9.529  11.472  0.4537  0.7265 -0.6655
  747MOL0     C  720  -0.410   9.466  11.577  1.0360  0.4527  0.9424
  747MOL0     C  721  -0.557   9.462  11.524 -0.5579 -0.3519 -0.5157
  747MOL0     C  722  -0.578   9.349  11.429 -0.2360 -0.4815 -0.1409
  747MOL0     C  723  -0.722   9.339  11.369 -0.8430 -0.1091  0.0432
  747MOL0     C  724  -0.840   9.390  11.455 -0.4327 -0.0870  0.5383
  747MOL0     C  725  -0.961   9.385  11.359  0.1958  0.1540  0.4402
  747MOL0     C  726  -1.077   9.474  11.395 -0.0162  0.1962 -0.3197
  747MOL0     N  727  -1.187   9.452  11.297 -0.3626  0.1206  0.5099
  747MOL0     C  728  -1.183   9.498  11.173 -0.6929 -0.2588 -0.2346
  747MOL0     C  729  -1.296   9.444  11.116 -0.4154  0.0299 -0.3268
  747MOL0     C  730  -1.339   9.448  10.976  0.0366  0.5892  0.6202
  747MOL0     C  731  -1.258   9.544  10.884  0.0609  0.2046 -0.7293
  747MOL0     C  732  -1.294   9.528  10.737  0.0835  0.6142  0.1572
  747MOL0     C  733  -1.441   9.552  10.710  0.2474  0.1570  0.8849
  747MOL0     O  734  -1.468   9.683  10.762  0.1377  0.0574  0.1473
  747MOL0     C  735  -1.598   9.721  10.737  0.4530  0.5349 -0.3641
  747MOL0     C  736  -1.625   9.814  10.642 -0.3931 -1.2902 -0.3163
  747MOL0     C  737  -1.755   9.846  10.606 -0.2846 -1.0893  0.9237
  747MOL0     C  738  -1.765   9.952  10.497  1.1722 -0.8428 -0.1409
  747MOL0     C  739  -1.869   9.774  10.665 -0.3783  0.5087  0.1007
  747MOL0     C  740  -2.018   9.794  10.619 -0.2745  0.2021 -0.4377
  747MOL0     O  741  -2.030   9.873  10.512  0.3776 -0.4182 -0.4802
  747MOL0     C  742  -2.151   9.917  10.482 -0.2478 -0.5112  0.4851
  747MOL0     C  743  -2.256   9.850  10.421  0.2382  0.2803  0.0612
  747MOL0     C  744  -2.378   9.908  10.396 -0.0135  0.6356  0.5424
  747MOL0     C  745  -2.415  10.040  10.444 -0.2662 -0.0842  0.4657
  747MOL0     O  746  -2.544  10.084  10.428  0.4133  0.6843 -0.0244
  747MOL0     C  747  -2.580  10.215  10.485 -0.3165  0.0974 -0.1527
  747MOL0     C  748  -2.727  10.230  10.476  0.2015  0.6993 -0.4003
  747MOL0     C  749  -2.775  10.354  10.557 -0.3257  0.3991 -0.1670
  747MOL0     C  750  -2.735  10.484  10.491 -0.2938  0.3296  0.6644
  747MOL0     C  751  -2.821  10.599  10.553  0.4260 -0.0562 -0.0504
  747MOL0     C  752  -2.785  10.734  10.491  0.2101 -0.0422  0.1626
  747MOL0     C  753  -2.861  10.857  10.558 -0.7798 -0.3799 -0.4167
  747MOL0     C  754  -2.784  10.995  10.572  0.7920 -0.1225  0.8259
  747MOL0    Cl  755  -2.643  10.969  10.671  0.1472 -0.7430 -0.0491
  747MOL0     C  756  -2.303  10.119  10.488 -0.2328  0.0919 -0.5267
  747MOL0     C  757  -2.182  10.051  10.512  0.2981  0.3299  0.8301
  747MOL0     O  758  -2.110   9.740  10.678  0.8054 -0.2186 -0.0967
  747MOL0     C  759  -1.841   9.683  10.765 -0.8175 -0.2630  0.1957
  747MOL0     C  760  -1.706   9.664  10.805 -0.4366 -0.9047 -0.2718
  747MOL0     N  761  -1.350   9.347  11.200  0.8822 -0.3965  0.2659
  747MOL0     N  762  -1.302   9.375  11.315  0.7702  0.6201 -0.7562
  747MOL0     C  763   0.034   9.551  11.543  0.6810 -0.4880 -1.4788
  747MOL0     C  764   0.166   9.531  11.495  0.6355 -0.0912 -0.0955
  747MOL0     C  765   0.500   9.618  11.174 -0.1599  0.3373  0.4460
  747MOL0     C  766   0.537   9.691  11.064  0.3561 -0.2549  0.2752
  747MOL0     C  767   0.667   9.729  11.036 -0.1347  0.1308  0.2412
  747MOL0     C  768   0.775   9.688  11.117 -1.3888  0.6463  0.8109
  747MOL0     O  769   0.913   9.698  11.096 -0.5622 -0.6979  0.3827
  747MOL0     C  770   0.951   9.731  10.970 -0.4612  0.2484 -0.1575
  747MOL0     C  771   1.098   9.765  10.958 -0.3578  0.2936 -1.5406
  747MOL0     C  772   1.176   9.637  10.907 -0.4407 -0.2874 -1.0353
  747MOL0     C  773   1.325   9.683  10.908  0.5106 -0.8926 -0.4707
  747MOL0     C  774   1.414   9.571  10.879  0.5744 -0.2926  0.7323
  747MOL0     C  775   1.485   9.475  10.855 -0.7066 -0.2802 -0.2265
  747MOL0     C  776   0.742   9.591  11.215 -0.6765  0.4416 -0.2780
  747MOL0     C  777   0.605   9.565  11.250 -0.6153  0.4147 -0.1451
  747MOL0     H  778   0.107   9.507  11.166 -1.0347  1.0847 -0.1930
  747MOL0     H  779  -0.127   9.494  11.251  0.8690 -0.1503 -0.3612
  747MOL0     H  780  -0.375   9.621  11.447 -0.1754 -0.0825 -2.4544
  747MOL0     H  781  -0.317   9.468  11.381  1.6520 -0.8824  0.4133
  747MOL0     H  782  -0.365   9.366  11.579  3.3556  1.4500  1.7671
  747MOL0     H  783  -0.400   9.512  11.675  3.7025  1.6660  0.1729
  747MOL0     H  784  -0.619   9.458  11.614  1.4160  4.2407  1.3831
  747MOL0     H  785  -0.580   9.558  11.478 -1.3358 -0.2443  0.0771
  747MOL0     H  786  -0.510   9.351  11.343 -0.7566  0.0797 -0.5467
  747MOL0     H  787  -0.558   9.253  11.477 -1.3247 -0.2155  0.8861
  747MOL0     H  788  -0.718   9.414  11.289 -0.6899 -0.9288 -0.7347
  747MOL0     H  789  -0.742   9.238  11.332  1.3434 -0.2250 -0.9692
  747MOL0     H  790  -0.858   9.328  11.544 -1.1968  1.3450  1.4052
  747MOL0     H  791  -0.822   9.491  11.492  0.0679 -1.5689  5.0016
  747MOL0     H  792  -0.940   9.420  11.257 -1.4643  1.1058  0.3825
  747MOL0     H  793  -0.986   9.280  11.341 -0.9221 -0.2380  3.7228
  747MOL0     H  794  -1.025   9.569  11.383  2.6871 -1.2971 -1.2985
  747MOL0     H  795  -1.103   9.463  11.501  1.9045  0.0628  0.1716
  747MOL0     H  796  -1.109   9.557  11.120  1.0318 -1.1453  1.0855
  747MOL0     H  797  -1.327   9.350  10.930  0.0571  0.7865  0.1935
  747MOL0     H  798  -1.447   9.467  10.974 -0.0115  0.2635  0.0919
  747MOL0     H  799  -1.154   9.511  10.894  1.1533  2.9266 -2.1559
  747MOL0     H  800  -1.263   9.646  10.922  0.6379  1.1067 -2.9144
  747MOL0     H  801  -1.266   9.433  10.691 -2.6309  1.0633 -2.7650
  747MOL0     H  802  -1.233   9.600  10.681  1.6055  0.3699  1.4310
  747MOL0     H  803  -1.503   9.467  10.738  3.2828 -3.1366 -1.4172
  747MOL0     H  804  -1.442   9.564  10.601  1.9583 -0.2956  0.7833
  747MOL0     H  805  -1.536   9.860  10.600 -0.6244 -2.4598 -2.2167
  747MOL0     H  806  -1.817   9.918  10.406 -0.7801  0.6483  0.3359
  747MOL0     H  807  -1.824  10.035  10.537 -0.2249 -0.6135 -2.4646
  747MOL0     H  808  -1.666   9.992  10.474 -0.0772  2.0847 -0.9420
  747MOL0     H  809  -2.244   9.744  10.400 -0.4183 -0.2654  2.2081
  747MOL0     H  810  -2.453   9.842  10.354  2.3698  0.3018 -3.6770
  747MOL0     H  811  -2.539  10.224  10.586 -0.8020 -1.5408  0.2144
  747MOL0     H  812  -2.528  10.290  10.425 -1.5857  1.7731  0.7680
  747MOL0     H  813  -2.757  10.236  10.371  0.4082 -1.7351 -0.6591
  747MOL0     H  814  -2.780  10.143  10.517 -0.1024  0.4931 -1.2060
  747MOL0     H  815  -2.726  10.362  10.655 -1.3933  0.4543  0.3746
  747MOL0     H  816  -2.883  10.352  10.574 -0.6784  2.0291 -1.8663
  747MOL0     H  817  -2.629  10.508  10.500 -0.1320 -0.5411  1.1909
  747MOL0     H  818  -2.767  10.468  10.388 -1.7984 -2.3444  1.4541
  747MOL0     H  819  -2.792  10.596  10.658 -3.3776 -2.0166  1.0938
  747MOL0     H  820  -2.926  10.571  10.543  0.8878 -2.4811  1.1781
  747MOL0     H  821  -2.677  10.743  10.500  0.2244 -0.5000  0.4507
  747MOL0     H  822  -2.804  10.741  10.383  0.1256  0.7741  0.2191
  747MOL0     H  823  -2.886  10.828  10.660 -1.0543 -1.1546 -0.6963
  747MOL0     H  824  -2.945  10.891  10.497  0.5677  1.9943 -1.0836
  747MOL0     H  825  -2.845  11.073  10.618  0.6504 -0.0852  0.5742
  747MOL0     H  826  -2.760  11.024  10.469 -2.3986  0.9624  0.2890
  747MOL0     H  827  -2.311  10.226  10.505  0.7872  0.1324 -0.2641
  747MOL0     H  828  -2.095  10.102  10.550 -1.0895  1.9369  1.9958
  747MOL0     H  829  -1.930   9.641  10.811  0.5490 -0.0067  3.3673
  747MOL0     H  830  -1.692   9.602  10.893 -0.8150  0.7587  0.9907
  747MOL0     H  831   0.027   9.574  11.648  1.2407 -2.1030 -1.0589
  747MOL0     H  832   0.254   9.531  11.558  0.4667 -2.1169  0.2275
  747MOL0     H  833   0.454   9.708  10.996 -0.5721 -3.0623  0.5775
  747MOL0     H  834   0.683   9.780  10.941  0.3637  3.1309  1.8301
  747MOL0     H  835   0.930   9.655  10.894 -0.0669  2.2212 -2.3476
  747MOL0     H  836   0.901   9.820  10.932 -2.4780 -1.1112 -0.8773
  747MOL0     H  837   1.127   9.810  11.053  1.4889 -0.2636 -1.8029
  747MOL0     H  838   1.117   9.841  10.882  0.9222  1.0702 -0.4847
  747MOL0     H  839   1.138   9.601  10.810 -2.6186 -2.5159  0.5251
  747MOL0     H  840   1.162   9.555  10.978  0.9813  1.0067  0.8317
  747MOL0     H  841   1.338   9.716  11.012 -1.8939 -2.7580  0.5328
  747MOL0     H  842   1.339   9.772  10.847 -1.5084  2.7883  3.8200
  747MOL0     H  843   1.547   9.395  10.820 -3.0103 -1.5210 -1.7154
  747MOL0     H  844   0.818   9.549  11.280 -1.4828  0.8285  0.9511
  747MOL0     H  845   0.593   9.512  11.344  1.2395 -0.2629 -0.2406
  748MOL0     O  846   6.286   3.935   7.903 -0.1196  0.4686  0.7096
  748MOL0     C  847   6.323   3.865   7.997  0.2230  0.3513  0.1978
  748MOL0     O  848   6.245   3.821   8.088 -0.0318 -0.1515  0.3639
  748MOL0     C  849   6.111   3.860   8.099 -0.9222 -0.7800  0.3235
  748MOL0     C  850   6.075   3.891   8.231  0.7003  0.1760  0.5361
  748MOL0     C  851   5.943   3.936   8.255  0.0183 -0.3178 -0.0869
  748MOL0     C  852   5.848   3.945   8.147  0.6402  0.1584  0.3419
  748MOL0     O  853   5.724   4.003   8.173 -0.2020  0.5918 -0.0743
  748MOL0     C  854   5.612   3.935   8.132 -0.3894 -0.0419 -0.9962
  748MOL0     C  855   5.489   4.007   8.182  0.1421  0.1835  0.9754
  748MOL0     C  856   5.371   3.931   8.150  0.6849  0.4086  0.5365
  748MOL0     C  857   5.245   4.019   8.168 -0.4072  0.3285 -0.4739
  748MOL0     C  858   5.108   3.955   8.149 -0.0698 -0.3273  0.2339
  748MOL0     C  859   5.088   3.804   8.195 -1.2980 -0.3118  0.3552
  748MOL0     C  860   4.933   3.754   8.182  0.0154 -0.6117 -0.3270
  748MOL0     C  861   4.822   3.857   8.236 -0.4012 -0.1933 -0.7528
  748MOL0     N  862   4.691   3.814   8.195  0.3287 -0.0097  0.7691
  748MOL0     C  863   4.644   3.825   8.064  0.2234 -0.1080  0.1483
  748MOL0     C  864   4.539   3.738   8.046 -0.8291 -0.2793  0.6672
  748MOL0     C  865   4.463   3.721   7.914 -1.0683  1.0167 -0.0288
  748MOL0     C  866   4.317   3.745   7.926 -0.3675  0.3818 -0.6075
  748MOL0     C  867   4.256   3.768   7.792  0.7944  0.1160 -0.6281
  748MOL0     C  868   4.103   3.776   7.792  0.1767  0.1833 -0.4518
  748MOL0     O  869   4.068   3.876   7.884 -0.5977 -0.3433 -0.0840
  748MOL0     C  870   3.942   3.889   7.936  0.3099  0.0931 -0.8021
  748MOL0     C  871   3.908   3.981   8.043 -0.0123  1.1979 -0.2059
  748MOL0     C  872   3.786   3.977   8.117  0.4322  0.0232  0.6438
  748MOL0     C  873   3.777   4.072   8.239 -0.2707  0.0316  0.0342
  748MOL0     C  874   3.682   3.896   8.076  0.5355  0.5723 -0.6470
  748MOL0     C  875   3.546   3.882   8.135  0.6515 -0.0383 -0.4933
  748MOL0     O  876   3.467   3.772   8.094 -0.4415  0.1676  0.0908
  748MOL0     C  877   3.360   3.748   8.169 -1.1482  0.1303 -0.4334
  748MOL0     C  878   3.353   3.649   8.274 -0.2616 -0.1124  0.2620
  748MOL0     C  879   3.233   3.628   8.351  0.6839 -0.1132 -0.2570
  748MOL0     C  880   3.123   3.707   8.315  0.5545  0.6463  0.5419
  748MOL0     O  881   2.993   3.696   8.379 -1.4949  0.9254 -0.0611
  748MOL0     C  882   2.956   3.559   8.391  0.0653  0.3260 -0.3000
  748MOL0     C  883   2.808   3.553   8.404 -0.4285 -0.5088  0.1024
  748MOL0     C  884   2.745   3.521   8.281  0.3995 -0.2334  0.1855
  748MOL0     C  885   2.596   3.551   8.291 -0.7122  0.2991  1.1739
  748MOL0     C  886   2.511   3.549   8.162  0.2525 -0.2189 -0.7114
  748MOL0     C  887   2.363   3.536   8.191  0.7549 -0.6240 -0.3340
  748MOL0     C  888   2.272   3.591   8.082  0.3189 -0.6004 -0.9705
  748MOL0     C  889   2.133   3.610   8.138 -0.6782 -0.3561  0.1258
  748MOL0    Cl  890   2.024   3.595   8.017  0.4857 -0.0499  0.2592
  748MOL0     C  891   3.134   3.802   8.214  0.4497  0.0029 -0.1894
  748MOL0     C  892   3.258   3.822   8.143 -0.3079 -0.5252 -0.3799
  748MOL0     O  893   3.506   3.977   8.196  0.2486 -0.2730  0.4860
  748MOL0     C  894   3.711   3.816   7.959  0.3623 -0.5870  0.0513
  748MOL0     C  895   3.838   3.799   7.907 -0.4036 -0.1900 -0.3697
  748MOL0     N  896   4.525   3.675   8.169 -0.3950 -0.6676  0.4411
  748MOL0     N  897   4.603   3.729   8.258 -0.4855  0.6664  0.3017
  748MOL0     C  898   5.888   3.910   8.021  0.5919 -0.2339  0.6321
  748MOL0     C  899   6.019   3.867   7.993  0.9438  0.0094  0.4167
  748MOL0     C  900   6.472   3.839   8.001  1.1300 -0.6778  0.0453
  748MOL0     C  901   6.564   3.905   7.915 -0.1306  0.4234  0.1817
  748MOL0     C  902   6.707   3.899   7.933  0.2785  0.0317  0.6015
  748MOL0     C  903   6.754   3.820   8.043 -0.2104  0.1350  0.2999
  748MOL0     O  904   6.894   3.811   8.055  0.3193 -0.4650 -0.3587
  748MOL0     C  905   6.950   3.760   8.178 -0.1456  0.0684 -0.7668
  748MOL0     C  906   6.951   3.605   8.183 -0.8039  0.1717 -0.0362
  748MOL0     C  907   6.992   3.546   8.045 -0.7805 -0.3789 -0.8637
  748MOL0     C  908   7.041   3.403   8.048  0.7054 -0.8199 -0.1102
  748MOL0     C  909   6.949   3.307   8.107 -0.0651  0.7408  0.5370
  748MOL0     C  910   6.861   3.240   8.142 -0.1654  0.5895 -0.8447
  748MOL0     C  911   6.660   3.756   8.126 -0.2965 -0.1242  0.3265
  748MOL0     C  912   6.525   3.761   8.106  0.2445 -0.4532  0.4984
  748MOL0     H  913   6.139   3.886   8.318  2.5109 -0.4697 -0.7472
  748MOL0     H  914   5.893   3.964   8.347 -2.9316 -2.4324 -0.8757
  748MOL0     H  915   5.611   3.942   8.023 -1.4783  1.8761 -0.9061
  748MOL0     H  916   5.614   3.832   8.169  0.6615  0.6690  1.1032
  748MOL0     H  917   5.511   4.007   8.290  4.9371 -0.7843  0.2073
  748MOL0     H  918   5.481   4.111   8.150  0.8692 -0.2633 -0.7274
  748MOL0     H  919   5.377   3.885   8.051  0.1488  1.7590 -0.1476
  748MOL0     H  920   5.352   3.849   8.220 -2.0631 -1.1732 -1.8348
  748MOL0     H  921   5.237   4.049   8.273 -3.5999  1.0416 -0.8233
  748MOL0     H  922   5.265   4.114   8.116 -0.9974  2.0977  2.3139
  748MOL0     H  923   5.036   4.015   8.206  0.1606  0.8304 -0.6492
  748MOL0     H  924   5.077   3.967   8.045  0.7171  1.0184  0.1338
  748MOL0     H  925   5.139   3.733   8.130 -1.1441 -3.1462  3.3576
  748MOL0     H  926   5.124   3.785   8.296  0.4353 -0.6339 -0.3004
  748MOL0     H  927   4.917   3.725   8.078  1.9435 -1.2101 -0.4929
  748MOL0     H  928   4.925   3.666   8.247 -1.9934  1.4354  2.4663
  748MOL0     H  929   4.844   3.952   8.185  1.8893 -0.4784 -0.3756
  748MOL0     H  930   4.816   3.856   8.345 -1.6825 -1.2070 -0.8041
  748MOL0     H  931   4.688   3.891   7.990 -0.6876 -0.6405 -0.8820
  748MOL0     H  932   4.493   3.796   7.840 -1.1790  1.2085  0.1174
  748MOL0     H  933   4.484   3.624   7.869  1.7328  1.5162  0.0552
  748MOL0     H  934   4.308   3.839   7.981  0.2832  0.3829 -0.4953
  748MOL0     H  935   4.268   3.664   7.981  0.0114 -0.7372 -1.8536
  748MOL0     H  936   4.288   3.682   7.732  3.0238 -0.2573  0.9794
  748MOL0     H  937   4.298   3.858   7.745 -0.1493  0.1072 -1.5239
  748MOL0     H  938   4.071   3.679   7.831 -1.3231  1.1251  0.7386
  748MOL0     H  939   4.061   3.805   7.695  1.9057  0.5857 -1.1334
  748MOL0     H  940   3.985   4.054   8.064 -2.0284  3.2267  0.5596
  748MOL0     H  941   3.753   4.032   8.338  2.2042  1.0927  1.1457
  748MOL0     H  942   3.874   4.122   8.246 -1.8365  3.9213 -2.7933
  748MOL0     H  943   3.700   4.146   8.215 -1.2264 -1.2792 -1.1209
  748MOL0     H  944   3.435   3.589   8.313  0.4264  1.3185  1.1103
  748MOL0     H  945   3.235   3.553   8.429  3.7467 -1.3345 -1.3647
  748MOL0     H  946   2.993   3.506   8.302  1.3528 -0.8246  0.8695
  748MOL0     H  947   2.996   3.512   8.481 -2.5025 -0.5211  0.4844
  748MOL0     H  948   2.785   3.478   8.480  0.7968  2.1205  3.3278
  748MOL0     H  949   2.760   3.643   8.442 -0.2543 -0.1674 -0.4694
  748MOL0     H  950   2.757   3.417   8.251 -4.2254 -0.8878 -0.0070
  748MOL0     H  951   2.789   3.587   8.205  1.0285 -0.9230 -0.0675
  748MOL0     H  952   2.550   3.478   8.358 -1.2417 -0.6236 -0.1632
  748MOL0     H  953   2.596   3.655   8.324  2.6498 -0.6100  4.8542
  748MOL0     H  954   2.541   3.458   8.110 -0.9255 -1.0746  0.0729
  748MOL0     H  955   2.535   3.634   8.096 -0.4226 -1.0824 -2.1120
  748MOL0     H  956   2.335   3.433   8.216  2.2593 -0.3427  2.9551
  748MOL0     H  957   2.346   3.598   8.279  0.4849 -0.9122 -0.1822
  748MOL0     H  958   2.269   3.519   8.000  0.3003 -0.5314 -1.0306
  748MOL0     H  959   2.299   3.685   8.032  0.2415 -1.3236 -2.4202
  748MOL0     H  960   2.138   3.709   8.184 -1.7642 -0.1776 -0.1109
  748MOL0     H  961   2.111   3.534   8.213 -2.2460  0.1658  0.2296
  748MOL0     H  962   3.039   3.847   8.186  0.4369 -0.2105 -0.4839
  748MOL0     H  963   3.250   3.897   8.065  2.4052 -0.6491 -0.8974
  748MOL0     H  964   3.628   3.757   7.922 -2.0222  1.8263  1.2004
  748MOL0     H  965   3.845   3.726   7.827 -1.9527 -2.5302  1.4847
  748MOL0     H  966   5.825   3.922   7.933  1.4604  1.5582  0.2069
  748MOL0     H  967   6.038   3.835   7.891 -1.6117  2.2878 -0.9199
  748MOL0     H  968   6.530   3.966   7.832  0.4153 -0.4220 -0.6795
  748MOL0     H  969   6.777   3.956   7.872 -0.3508  0.2396  0.0637
  748MOL0     H  970   7.055   3.789   8.184  0.0607 -0.4449 -1.7715
  748MOL0     H  971   6.900   3.807   8.264 -1.8158  1.0819 -2.2310
  748MOL0     H  972   6.858   3.560   8.218 -0.8992  0.5140  0.1548
  748MOL0     H  973   7.031   3.578   8.253 -0.2738 -2.4007 -1.4968
  748MOL0     H  974   7.080   3.603   8.012 -1.7446  1.3450 -0.5661
  748MOL0     H  975   6.914   3.553   7.969 -0.0535 -0.4196 -1.6318
  748MOL0     H  976   7.146   3.396   8.076  0.8702  0.6614 -0.3060
  748MOL0     H  977   7.040   3.366   7.945  0.3313  6.2156 -3.1858
  748MOL0     H  978   6.785   3.173   8.178  1.4071 -0.5463  0.5495
  748MOL0     H  979   6.678   3.700   8.217  1.2229  0.3264  0.3390
  748MOL0     H  980   6.461   3.716   8.182 -1.9443  0.3393 -0.7992
  749MOL0     O  981   0.676  10.092  11.112  0.0763  0.5296  1.2045
  749MOL0     C  982   0.757  10.038  11.188 -0.2305  0.5380 -0.5059
  749MOL0     O  983   0.715   9.989  11.315 -0.4153 -0.3941 -0.3078
  749MOL0     C  984   0.581   9.989  11.341  0.8600  0.0891 -0.2562
  749MOL0     C  985   0.513  10.103  11.348 -0.2986 -0.2441 -0.0033
  749MOL0     C  986   0.375  10.106  11.373  0.5778  0.4175 -0.4286
  749MOL0     C  987   0.321   9.991  11.435  1.1184  0.8725  0.1422
  749MOL0     O  988   0.188  10.000  11.477 -0.0218  0.1926 -0.4103
  749MOL0     C  989   0.119   9.883  11.517  0.2925  0.3010 -1.0353
  749MOL0     C  990  -0.020   9.926  11.547  0.0175 -0.1545  0.2853
  749MOL0     C  991  -0.097   9.966  11.418 -0.0674  0.8377 -0.0578
  749MOL0     C  992  -0.228  10.039  11.444 -0.6661 -0.7029 -0.4292
  749MOL0     C  993  -0.296  10.096  11.313 -0.4696  0.0389  0.7929
  749MOL0     C  994  -0.371   9.985  11.228 -0.9610  0.5029 -0.7132
  749MOL0     C  995  -0.518   9.958  11.266  0.3945 -1.1115  0.8619
  749MOL0     C  996  -0.603   9.870  11.170 -0.2585  0.1230 -1.4898
  749MOL0     N  997  -0.539   9.738  11.136  0.7143 -0.9392  0.5197
  749MOL0     C  998  -0.462   9.720  11.020  0.6649  0.8085  0.1631
  749MOL0     C  999  -0.383   9.608  11.047 -0.1043 -0.0979 -0.8975
  749MOL0     C 1000  -0.272   9.544  10.969  0.1572 -0.0335 -0.1658
  749MOL0     C 1001  -0.156   9.643  10.961  0.0917  0.0901 -0.1891
  749MOL0     C 1002  -0.045   9.565  10.881 -0.3142 -0.1889  0.4570
  749MOL0     C 1003   0.088   9.649  10.851 -0.0740  0.2305 -0.3552
  749MOL0     O 1004   0.064   9.736  10.748  0.8219  0.1864 -0.4031
  749MOL0     C 1005   0.143   9.841  10.741  0.1709  1.6084 -0.0014
  749MOL0     C 1006   0.248   9.883  10.834  0.5933  0.5630  0.3024
  749MOL0     C 1007   0.321  10.000  10.822  0.3434 -0.8906 -0.7142
  749MOL0     C 1008   0.406  10.041  10.940 -0.2285  0.2702 -0.3365
  749MOL0     C 1009   0.304  10.074  10.707  0.0296 -0.7688  1.0747
  749MOL0     C 1010   0.384  10.195  10.676 -0.3414  0.3179  0.5566
  749MOL0     O 1011   0.512  10.202  10.716 -0.5110  0.1434  0.0773
  749MOL0     C 1012   0.594  10.309  10.673  0.3017 -0.1686  0.0624
  749MOL0     C 1013   0.695  10.353  10.762  0.8342  0.7194  0.5800
  749MOL0     C 1014   0.788  10.448  10.728  1.2340  0.3345  0.1671
  749MOL0     C 1015   0.780  10.510  10.603 -0.1627  0.6863  0.3550
  749MOL0     O 1016   0.880  10.600  10.590 -0.0670 -0.5087  0.5220
  749MOL0     C 1017   0.890  10.668  10.463  0.1208  0.9942  0.0099
  749MOL0     C 1018   0.978  10.786  10.481  0.4568 -0.1729  0.2355
  749MOL0     C 1019   1.126  10.753  10.494 -0.5421  0.0109  0.2100
  749MOL0     C 1020   1.200  10.742  10.369 -0.1747  0.3794  0.7023
  749MOL0     C 1021   1.327  10.666  10.363 -0.7212  0.3726 -0.2648
  749MOL0     C 1022   1.380  10.662  10.225  0.4442  0.6924  0.3964
  749MOL0     C 1023   1.514  10.584  10.223 -0.4776 -0.4132 -0.3217
  749MOL0     C 1024   1.589  10.594  10.093  0.1648  0.2005  0.2976
  749MOL0    Cl 1025   1.664  10.747  10.059  0.1982 -0.1655  0.1450
  749MOL0     C 1026   0.676  10.479  10.518 -0.2589  0.8461  0.7842
  749MOL0     C 1027   0.590  10.370  10.549  0.9734 -0.4729  0.0155
  749MOL0     O 1028   0.319  10.285  10.629  0.1804 -0.4715 -0.3310
  749MOL0     C 1029   0.215  10.035  10.604  0.1268  0.0316 -0.1576
  749MOL0     C 1030   0.135   9.926  10.627 -0.3328  0.2776 -0.5121
  749MOL0     N 1031  -0.432   9.553  11.167 -0.3595 -0.4635  0.7556
  749MOL0     N 1032  -0.529   9.629  11.214  0.2579 -0.1537  0.9207
  749MOL0     C 1033   0.387   9.869  11.433 -0.4238 -0.0549  1.0264
  749MOL0     C 1034   0.516   9.869  11.385 -0.1953 -0.1519  0.1075
  749MOL0     C 1035   0.895  10.056  11.152 -0.6255  0.6936  0.6146
  749MOL0     C 1036   0.950  10.075  11.028 -0.2774  0.3109  0.6744
  749MOL0     C 1037   1.082  10.078  11.000 -0.8027 -0.4757  0.4172
  749MOL0     C 1038   1.180  10.072  11.103  0.0526 -0.3733  0.2413
  749MOL0     O 1039   1.313  10.076  11.086 -0.2824  0.0454 -0.6052
  749MOL0     C 1040   1.363  10.137  10.969  0.2861 -0.0428 -0.3972
  749MOL0     C 1041   1.518  10.128  10.978  0.3509  0.3611  0.2366
  749MOL0     C 1042   1.562   9.980  10.957 -0.1077  0.0851 -0.2892
  749MOL0     C 1043   1.711   9.955  10.941 -1.7766 -0.8226  0.4805
  749MOL0     C 1044   1.737   9.813  10.953  0.2574 -0.2465  0.5786
  749MOL0     C 1045   1.760   9.698  10.955 -0.2399  0.2865 -0.0299
  749MOL0     C 1046   1.131  10.050  11.230  0.0518  0.5532 -0.2719
  749MOL0     C 1047   0.990  10.055  11.258  0.5030 -0.6659  0.2373
  749MOL0     H 1048   0.563  10.199  11.334 -0.0031 -0.4649 -0.5048
  749MOL0     H 1049   0.307  10.191  11.364 -1.7439 -0.9814  2.2145
  749MOL0     H 1050   0.116   9.804  11.441 -1.3918  0.1812 -0.8950
  749MOL0     H 1051   0.161   9.835  11.605  1.5128  1.7473 -0.7968
  749MOL0     H 1052  -0.068   9.850  11.608 -1.3945  1.1309  0.8556
  749MOL0     H 1053  -0.023  10.013  11.613 -2.5861 -0.1673  0.2925
  749MOL0     H 1054  -0.040  10.038  11.358 -2.2864  0.7585 -2.4328
  749MOL0     H 1055  -0.108   9.874  11.361 -0.0128 -0.0451  1.3256
  749MOL0     H 1056  -0.304   9.984  11.500  1.8180 -1.6420  2.2714
  749MOL0     H 1057  -0.204  10.127  11.505  1.1128 -1.0461 -0.5838
  749MOL0     H 1058  -0.367  10.177  11.332 -1.1881 -0.5923  0.8500
  749MOL0     H 1059  -0.219  10.139  11.248  0.3435 -1.3576  0.7872
  749MOL0     H 1060  -0.372  10.011  11.122 -1.4327 -1.7048 -1.2971
  749MOL0     H 1061  -0.305   9.899  11.245 -0.0396  0.4651 -3.8737
  749MOL0     H 1062  -0.527   9.904  11.361 -0.8362 -1.8564  0.3455
  749MOL0     H 1063  -0.579  10.048  11.261 -1.0374 -2.1238 -0.7065
  749MOL0     H 1064  -0.612   9.928  11.077  3.3444  1.3519 -1.2109
  749MOL0     H 1065  -0.699   9.852  11.219  0.1924  2.8144  0.6322
  749MOL0     H 1066  -0.427   9.790  10.945  2.4619  1.2692  1.3691
  749MOL0     H 1067  -0.247   9.451  11.022  1.5036  1.0329  1.1679
  749MOL0     H 1068  -0.299   9.511  10.869 -2.5055  0.8796  0.1732
  749MOL0     H 1069  -0.117   9.685  11.054  2.9199  1.1127 -1.7035
  749MOL0     H 1070  -0.189   9.729  10.903  0.6081 -1.2630 -2.6358
  749MOL0     H 1071  -0.085   9.529  10.786 -3.0852  2.1844  0.5772
  749MOL0     H 1072  -0.024   9.474  10.937  0.2148 -0.8019 -0.6895
  749MOL0     H 1073   0.176   9.590  10.824  1.3924  1.3926  1.5759
  749MOL0     H 1074   0.116   9.700  10.944 -1.6263 -0.7817  0.7237
  749MOL0     H 1075   0.272   9.819  10.918  2.0579  0.6740 -0.0090
  749MOL0     H 1076   0.507   9.998  10.931  0.5100  1.3128  2.2095
  749MOL0     H 1077   0.431  10.145  10.960  2.2491 -0.5483  1.3157
  749MOL0     H 1078   0.367  10.006  11.036 -1.7875 -0.9907 -1.3722
  749MOL0     H 1079   0.706  10.299  10.856 -0.4264  0.5234  0.6352
  749MOL0     H 1080   0.874  10.470  10.791 -0.1901 -1.1478  2.8205
  749MOL0     H 1081   0.926  10.600  10.386  0.6867 -0.2334  1.3164
  749MOL0     H 1082   0.790  10.708  10.443  0.3207  0.7555 -1.5741
  749MOL0     H 1083   0.956  10.844  10.391  0.1407  0.1689  0.5244
  749MOL0     H 1084   0.944  10.847  10.566  0.0344 -0.0551 -0.0141
  749MOL0     H 1085   1.136  10.654  10.541 -1.6835 -0.7074 -0.9845
  749MOL0     H 1086   1.180  10.825  10.555  0.3638  1.1018 -1.8008
  749MOL0     H 1087   1.131  10.701  10.295  1.2661 -1.2350  0.1838
  749MOL0     H 1088   1.228  10.840  10.328 -0.3004 -0.1135 -0.6375
  749MOL0     H 1089   1.309  10.563  10.396  2.1799  0.0750  0.7216
  749MOL0     H 1090   1.394  10.710  10.437 -2.2805  0.1014  1.3970
  749MOL0     H 1091   1.306  10.602  10.171  3.5217 -2.1964 -0.9132
  749MOL0     H 1092   1.384  10.760  10.177  2.3143  1.8035  2.6118
  749MOL0     H 1093   1.499  10.478  10.245  0.4195 -0.4196  0.2902
  749MOL0     H 1094   1.572  10.620  10.309 -0.7950  0.4324 -0.4556
  749MOL0     H 1095   1.513  10.562  10.021 -0.2541 -0.3660  0.9800
  749MOL0     H 1096   1.672  10.524  10.086 -1.2216 -1.3368 -3.5946
  749MOL0     H 1097   0.660  10.522  10.420  0.9321 -1.7185 -0.6585
  749MOL0     H 1098   0.520  10.351  10.468  1.3255  1.9312 -0.9169
  749MOL0     H 1099   0.202  10.096  10.516 -0.1019 -0.7456 -0.6785
  749MOL0     H 1100   0.080   9.895  10.539 -2.4115  0.2159  0.7506
  749MOL0     H 1101   0.354   9.788  11.497  1.9110  0.2988  2.7997
  749MOL0     H 1102   0.574   9.779  11.401  1.1507  0.8273  0.9218
  749MOL0     H 1103   0.877  10.084  10.948  0.0047  1.0996  0.4949
  749MOL0     H 1104   1.106  10.104  10.898 -0.4538  2.4391  1.1594
  749MOL0     H 1105   1.338  10.084  10.877  0.3730  1.1235 -1.1163
  749MOL0     H 1106   1.329  10.241  10.966  1.7013  0.4556  0.0590
  749MOL0     H 1107   1.559  10.165  11.072  0.7830 -3.6237  1.8196
  749MOL0     H 1108   1.561  10.183  10.894 -0.0787 -1.7639 -1.4580
  749MOL0     H 1109   1.521   9.952  10.859 -0.5271  0.0246 -0.0972
  749MOL0     H 1110   1.517   9.911  11.030  0.4815 -1.2980 -1.1767
  749MOL0     H 1111   1.771  10.005  11.018  1.7318 -0.6726 -2.0842
  749MOL0     H 1112   1.746   9.990  10.844 -0.0089 -0.6377  1.1521
  749MOL0     H 1113   1.796   9.597  10.962  0.5607  0.5209 -0.6274
  749MOL0     H 1114   1.210  10.034  11.303  1.6133 -1.1469 -2.2222
  749MOL0     H 1115   0.956  10.039  11.360  0.5823  1.1289  0.5775
  750MOL0     O 1116   2.529   0.243   5.875  0.0323  0.1487 -0.5685
  750MOL0     C 1117   2.528   0.342   5.798  0.1847 -0.4204 -0.1020
  750MOL0     O 1118   2.415   0.407   5.748 -0.1520  1.3660  0.4017
  750MOL0     C 1119   2.290   0.347   5.743 -0.2983 -0.5278 -0.7532
  750MOL0     C 1120   2.275   0.208   5.720 -0.4381 -1.3757  0.2409
  750MOL0     C 1121   2.161   0.161   5.675  0.9058 -0.4779 -0.5722
  750MOL0     C 1122   2.048   0.249   5.674 -0.0784  1.1184 -0.3569
  750MOL0     O 1123   1.922   0.215   5.639  0.2831  0.0830  0.0420
  750MOL0     C 1124   1.847   0.147   5.739  0.3743 -0.3680 -0.8735
  750MOL0     C 1125   1.702   0.132   5.693  0.2150 -0.1168  0.1379
  750MOL0     C 1126   1.609   0.257   5.690  0.6284 -0.0697 -0.2555
  750MOL0     C 1127   1.468   0.212   5.710  0.1247  0.0389 -0.1701
  750MOL0     C 1128   1.369   0.324   5.739 -1.2976 -0.7650  0.8169
  750MOL0     C 1129   1.217   0.281   5.738  0.4183 -0.9084 -0.4683
  750MOL0     C 1130   1.135   0.398   5.800 -0.1467  0.1637 -0.8784
  750MOL0     C 1131   1.125   0.510   5.693  0.0576 -0.3789 -0.5642
  750MOL0     N 1132   0.991   0.556   5.676 -0.3144 -0.1951 -0.2681
  750MOL0     C 1133   0.905   0.612   5.768 -0.1504 -0.0872 -0.2856
  750MOL0     C 1134   0.792   0.644   5.704  0.4898 -0.4697  0.1184
  750MOL0     C 1135   0.673   0.731   5.746 -1.0320  0.1170 -0.4750
  750MOL0     C 1136   0.602   0.803   5.631  0.4049 -0.1415 -0.1407
  750MOL0     C 1137   0.499   0.912   5.666  0.2308 -0.2934 -0.2141
  750MOL0     C 1138   0.418   0.948   5.547  0.0680 -1.4882  0.0067
  750MOL0     O 1139   0.308   1.022   5.588  0.0520  0.1430  0.3125
  750MOL0     C 1140   0.195   0.964   5.633 -0.0272 -0.0911 -0.4223
  750MOL0     C 1141   0.087   1.056   5.631  0.1368 -0.2370  0.4203
  750MOL0     C 1142  -0.039   1.021   5.673 -0.3418  0.3638 -0.7619
  750MOL0     C 1143  -0.139   1.126   5.687  0.0644 -0.6267  0.0496
  750MOL0     C 1144  -0.060   0.885   5.713 -0.8627 -0.2624  0.8057
  750MOL0     C 1145  -0.187   0.825   5.761 -0.0480 -0.6137  0.4664
  750MOL0     O 1146  -0.189   0.694   5.791  0.7025  0.1429 -0.1230
  750MOL0     C 1147  -0.284   0.650   5.877 -0.2674  0.1733 -0.1427
  750MOL0     C 1148  -0.402   0.616   5.833 -0.1804 -0.1010  0.8236
  750MOL0     C 1149  -0.506   0.575   5.915 -1.1331 -0.2567 -0.0972
  750MOL0     C 1150  -0.488   0.561   6.050  0.9067  0.3345 -0.7480
  750MOL0     O 1151  -0.585   0.525   6.138  0.4342 -0.6036 -0.0437
  750MOL0     C 1152  -0.721   0.564   6.093 -0.0363 -0.0912  0.8668
  750MOL0     C 1153  -0.816   0.550   6.210 -0.7121  1.0042  0.1101
  750MOL0     C 1154  -0.956   0.602   6.188 -0.2316  1.2036 -0.1153
  750MOL0     C 1155  -1.066   0.504   6.262  0.2619  0.3533 -0.2561
  750MOL0     C 1156  -1.130   0.392   6.183  0.1473 -0.1300  0.6215
  750MOL0     C 1157  -1.257   0.344   6.255 -0.0150  0.1527 -0.5886
  750MOL0     C 1158  -1.315   0.216   6.210  0.3902  0.0214 -0.3315
  750MOL0     C 1159  -1.385   0.227   6.076  0.3149  0.2459 -0.3961
  750MOL0    Cl 1160  -1.535   0.326   6.098  0.2346  0.0080  0.2088
  750MOL0     C 1161  -0.364   0.605   6.096 -0.1699  0.3619  0.4689
  750MOL0     C 1162  -0.257   0.636   6.013  0.3177  0.0202 -0.5002
  750MOL0     O 1163  -0.278   0.903   5.787  0.7941  0.1513  0.6109
  750MOL0     C 1164   0.052   0.797   5.715  0.8863  0.2274  0.1101
  750MOL0     C 1165   0.180   0.825   5.664  0.2467 -0.9891 -0.2693
  750MOL0     N 1166   0.813   0.600   5.574 -0.4460  0.5809  0.8609
  750MOL0     N 1167   0.929   0.548   5.558 -0.5942  0.4300  0.3178
  750MOL0     C 1168   2.059   0.378   5.714 -0.4178 -0.3797 -0.8421
  750MOL0     C 1169   2.180   0.431   5.743 -1.1489 -0.3588  0.2523
  750MOL0     C 1170   2.663   0.398   5.767 -0.4172  0.3327 -0.2774
  750MOL0     C 1171   2.769   0.378   5.854  0.1034  0.7303 -1.0020
  750MOL0     C 1172   2.902   0.426   5.833 -0.3545 -0.1134  0.3594
  750MOL0     C 1173   2.927   0.508   5.722  0.6251  0.1322 -0.1405
  750MOL0     O 1174   3.053   0.548   5.698  0.9757  0.4644  0.4782
  750MOL0     C 1175   3.081   0.617   5.569 -0.0308 -0.1452 -0.6275
  750MOL0     C 1176   3.231   0.637   5.551  0.5717  0.3291 -0.4170
  750MOL0     C 1177   3.289   0.737   5.657 -0.8031  1.0876 -0.6887
  750MOL0     C 1178   3.450   0.740   5.635  0.1477 -0.3616  0.3040
  750MOL0     C 1179   3.509   0.822   5.736 -0.3936  0.4637  0.1823
  750MOL0     C 1180   3.563   0.880   5.835 -0.8906 -0.1125  0.1643
  750MOL0     C 1181   2.816   0.533   5.637  0.4490 -0.9618  0.4057
  750MOL0     C 1182   2.684   0.479   5.658  0.3026  0.5860 -0.4473
  750MOL0     H 1183   2.351   0.132   5.734  0.8604  0.1857  2.0120
  750MOL0     H 1184   2.137   0.064   5.634  1.8187 -1.6480  1.5153
  750MOL0     H 1185   1.885   0.045   5.752  1.8444  0.2320 -0.2621
  750MOL0     H 1186   1.849   0.194   5.838 -2.3197 -0.9867 -0.4678
  750MOL0     H 1187   1.700   0.089   5.592 -3.8334  1.0678 -0.4563
  750MOL0     H 1188   1.665   0.067   5.773 -2.0570  3.2495  2.0894
  750MOL0     H 1189   1.631   0.328   5.770  0.6570  0.9848 -1.1639
  750MOL0     H 1190   1.615   0.318   5.599 -0.8192  3.7022  1.9292
  750MOL0     H 1191   1.446   0.162   5.615 -0.9782 -2.1670  1.1577
  750MOL0     H 1192   1.470   0.141   5.793  3.0899 -0.6802 -0.7647
  750MOL0     H 1193   1.401   0.365   5.835 -0.1742 -0.3219  0.2627
  750MOL0     H 1194   1.386   0.403   5.665  1.6946  0.0385  2.2321
  750MOL0     H 1195   1.181   0.268   5.635  1.6863 -1.5368 -0.8425
  750MOL0     H 1196   1.194   0.190   5.794 -0.6125  1.2619  2.9369
  750MOL0     H 1197   1.033   0.376   5.832 -0.5725 -0.1851 -2.4022
  750MOL0     H 1198   1.194   0.430   5.887 -1.1445  0.2157 -0.2051
  750MOL0     H 1199   1.155   0.488   5.590 -5.1818  1.2730 -2.7626
  750MOL0     H 1200   1.184   0.595   5.730 -1.2558 -0.6060  2.3229
  750MOL0     H 1201   0.944   0.635   5.867  1.3417 -2.1791 -0.3101
  750MOL0     H 1202   0.600   0.662   5.790  0.1377 -0.3696  0.7696
  750MOL0     H 1203   0.714   0.809   5.811  1.3461 -0.9734 -0.5914
  750MOL0     H 1204   0.555   0.726   5.569  0.3975  0.1566 -0.5055
  750MOL0     H 1205   0.668   0.843   5.554 -0.3090  0.6541 -0.3501
  750MOL0     H 1206   0.550   0.999   5.710 -2.3964 -0.2014  3.0715
  750MOL0     H 1207   0.438   0.876   5.750  0.3156 -0.1360 -0.0826
  750MOL0     H 1208   0.372   0.864   5.496 -1.2708 -0.2614 -0.8835
  750MOL0     H 1209   0.487   1.011   5.490 -1.6060  1.9967  1.5021
  750MOL0     H 1210   0.097   1.163   5.612 -4.2624  1.0110  3.4948
  750MOL0     H 1211  -0.097   1.224   5.660 -1.1603 -1.0048 -3.9004
  750MOL0     H 1212  -0.212   1.113   5.607 -2.6409 -1.8676  2.5380
  750MOL0     H 1213  -0.190   1.126   5.783 -1.1210  2.0082 -0.5025
  750MOL0     H 1214  -0.433   0.635   5.731  0.1859  1.7428  1.0250
  750MOL0     H 1215  -0.601   0.557   5.864 -1.3291  0.8716 -0.1487
  750MOL0     H 1216  -0.715   0.666   6.055 -1.6577 -1.0750 -2.3953
  750MOL0     H 1217  -0.755   0.495   6.015 -0.1399  0.3113  0.5560
  750MOL0     H 1218  -0.824   0.444   6.238  0.0365  1.0511  0.5218
  750MOL0     H 1219  -0.775   0.605   6.295 -1.6774  0.8756  0.6724
  750MOL0     H 1220  -0.967   0.608   6.079  2.0916 -0.1027 -0.4667
  750MOL0     H 1221  -0.959   0.700   6.237  0.4285  0.9247  0.4936
  750MOL0     H 1222  -1.037   0.467   6.361 -0.8454 -1.3209 -0.5130
  750MOL0     H 1223  -1.152   0.569   6.285  0.1846 -0.5239  2.1638
  750MOL0     H 1224  -1.061   0.306   6.186  0.6662  0.3018  3.3165
  750MOL0     H 1225  -1.166   0.432   6.088 -1.7268 -0.1436  1.2765
  750MOL0     H 1226  -1.236   0.335   6.362  0.9061  1.1777 -0.6524
  750MOL0     H 1227  -1.337   0.418   6.252 -1.4227 -1.2810  0.2827
  750MOL0     H 1228  -1.390   0.183   6.282  0.6769 -3.2699 -1.3947
  750MOL0     H 1229  -1.235   0.145   6.189 -1.1432 -1.8033 -0.2739
  750MOL0     H 1230  -1.411   0.125   6.047  0.6879  0.5220 -1.7952
  750MOL0     H 1231  -1.314   0.271   6.005  2.4678  1.2446  2.2003
  750MOL0     H 1232  -0.360   0.619   6.204  0.4812  1.3760  0.3253
  750MOL0     H 1233  -0.161   0.659   6.059  1.4105 -1.9918 -1.6226
  750MOL0     H 1234   0.035   0.696   5.752 -0.3289  1.0781  2.0465
  750MOL0     H 1235   0.259   0.751   5.671  1.7957  0.7676  2.0318
  750MOL0     H 1236   1.976   0.446   5.730  1.1309  1.0759  1.4973
  750MOL0     H 1237   2.200   0.537   5.758 -2.4241  0.2375 -1.8236
  750MOL0     H 1238   2.747   0.306   5.932  0.7846  0.1732 -1.3080
  750MOL0     H 1239   2.981   0.404   5.904 -2.2863  0.5066  2.8403
  750MOL0     H 1240   3.049   0.561   5.482  1.3579 -1.0276 -0.6007
  750MOL0     H 1241   3.023   0.710   5.567 -0.9614 -0.4410  3.3759
  750MOL0     H 1242   3.242   0.669   5.448  1.2548 -2.0420 -1.1516
  750MOL0     H 1243   3.281   0.540   5.562 -2.5987 -1.4714 -0.4716
  750MOL0     H 1244   3.258   0.712   5.759  0.1078 -2.7273 -1.2169
  750MOL0     H 1245   3.254   0.837   5.629 -4.2699 -0.1393 -1.2795
  750MOL0     H 1246   3.460   0.782   5.535 -2.0566 -1.2791 -0.3491
  750MOL0     H 1247   3.492   0.639   5.638  0.6285 -0.1571  0.6499
  750MOL0     H 1248   3.601   0.922   5.926  0.5429 -1.2101  0.1096
  750MOL0     H 1249   2.833   0.586   5.544 -0.8725 -1.7232 -0.3072
  750MOL0     H 1250   2.608   0.488   5.581 -0.6680  1.0259  0.5352
  751MOL0     O 1251   3.587   4.443   7.985 -0.4360 -0.8696 -0.5611
  751MOL0     C 1252   3.668   4.531   7.957 -0.1874  0.4118  1.4228
  751MOL0     O 1253   3.641   4.653   7.890  0.9336  1.1795  0.6404
  751MOL0     C 1254   3.517   4.680   7.838  0.1996 -0.4311 -0.0282
  751MOL0     C 1255   3.499   4.818   7.804 -0.7278 -0.2400  0.0348
  751MOL0     C 1256   3.378   4.854   7.745  0.0717 -0.4702  0.4448
  751MOL0     C 1257   3.275   4.756   7.712  0.0325 -0.0088 -0.7771
  751MOL0     O 1258   3.162   4.794   7.646 -0.1598  0.1034 -0.7962
  751MOL0     C 1259   3.097   4.914   7.682 -0.8300 -0.9159 -0.2509
  751MOL0     C 1260   2.952   4.903   7.636  0.7862  0.6898 -0.3601
  751MOL0     C 1261   2.940   4.920   7.486  0.2904  0.2829 -0.5073
  751MOL0     C 1262   2.968   5.067   7.445  0.3254 -0.9974 -1.4292
  751MOL0     C 1263   3.054   5.086   7.322  0.6226  0.3590  0.6077
  751MOL0     C 1264   3.203   5.096   7.360  1.0265 -0.2224 -0.0293
  751MOL0     C 1265   3.299   5.087   7.243 -0.0475 -0.2105  0.1402
  751MOL0     C 1266   3.285   5.211   7.158 -0.4782  0.6441  0.4642
  751MOL0     N 1267   3.358   5.330   7.205  0.4218  0.3992  0.5496
  751MOL0     C 1268   3.492   5.333   7.244  0.2212 -0.1955  0.4084
  751MOL0     C 1269   3.502   5.462   7.280 -0.1524 -0.3467 -0.0506
  751MOL0     C 1270   3.638   5.521   7.310  0.6274  0.7993 -0.1140
  751MOL0     C 1271   3.756   5.463   7.227  0.0229  0.0796  0.0136
  751MOL0     C 1272   3.804   5.331   7.300 -0.1030  0.0668 -0.2100
  751MOL0     C 1273   3.956   5.313   7.272 -0.3162 -0.2807  0.5307
  751MOL0     O 1274   4.019   5.256   7.387 -0.5065 -0.1043  0.1597
  751MOL0     C 1275   4.151   5.262   7.382  0.0605  0.7803 -0.6926
  751MOL0     C 1276   4.230   5.310   7.279 -0.7321 -1.0188 -0.4461
  751MOL0     C 1277   4.366   5.327   7.289 -0.8075  0.4225 -0.1226
  751MOL0     C 1278   4.452   5.398   7.177 -0.0626  0.4643 -0.3182
  751MOL0     C 1279   4.429   5.287   7.412  0.3350  0.1728  0.2403
  751MOL0     C 1280   4.569   5.316   7.440  0.0402  0.1210 -0.1279
  751MOL0     O 1281   4.657   5.213   7.458 -0.4082  0.6176  0.7753
  751MOL0     C 1282   4.790   5.248   7.454 -0.4745  0.7066  0.6030
  751MOL0     C 1283   4.861   5.261   7.570 -0.6521  0.7495 -0.2624
  751MOL0     C 1284   4.994   5.297   7.566  0.0348  0.3361 -0.1639
  751MOL0     C 1285   5.066   5.312   7.451  0.1908 -0.7542 -0.1713
  751MOL0     O 1286   5.200   5.355   7.455  0.3800 -0.4982  0.0029
  751MOL0     C 1287   5.277   5.357   7.332  0.5989 -0.5131 -0.7656
  751MOL0     C 1288   5.413   5.420   7.361  0.2140 -0.3089 -0.1572
  751MOL0     C 1289   5.522   5.317   7.412  0.7306 -0.0087 -0.3002
  751MOL0     C 1290   5.650   5.391   7.419 -0.9549  0.5799 -0.0353
  751MOL0     C 1291   5.776   5.305   7.418  0.3206 -0.1425  0.5006
  751MOL0     C 1292   5.913   5.382   7.394 -0.4696 -0.1144 -0.9906
  751MOL0     C 1293   6.027   5.282   7.360 -0.1819 -0.5985  0.7567
  751MOL0     C 1294   6.078   5.202   7.473  0.6173  0.5558 -0.1221
  751MOL0    Cl 1295   6.158   5.308   7.599  0.3184  0.1689  0.0580
  751MOL0     C 1296   5.002   5.282   7.330  0.0409  0.7179 -1.2185
  751MOL0     C 1297   4.862   5.239   7.327 -0.1090 -0.4252 -0.0011
  751MOL0     O 1298   4.595   5.434   7.471  0.1045 -1.0664 -0.0188
  751MOL0     C 1299   4.343   5.240   7.513 -1.0347  0.6297  0.0536
  751MOL0     C 1300   4.210   5.219   7.499  0.7825 -0.2169 -0.4845
  751MOL0     N 1301   3.379   5.526   7.273  0.1961 -0.4950  0.3417
  751MOL0     N 1302   3.292   5.446   7.223 -0.5430 -0.3816  0.2015
  751MOL0     C 1303   3.303   4.617   7.732  0.7298  0.0912  0.6584
  751MOL0     C 1304   3.430   4.580   7.783  0.7883 -0.7154 -0.1118
  751MOL0     C 1305   3.808   4.517   8.006  0.2696 -0.4065 -0.1434
  751MOL0     C 1306   3.850   4.404   8.069  0.7209  1.0121 -0.2005
  751MOL0     C 1307   3.984   4.382   8.110  0.3457 -0.4820  0.4747
  751MOL0     C 1308   4.083   4.482   8.080  0.8512 -0.0062  0.1633
  751MOL0     O 1309   4.206   4.461   8.124  0.2780  1.3557 -0.1491
  751MOL0     C 1310   4.295   4.572   8.136 -0.6881  0.0298 -0.5431
  751MOL0     C 1311   4.437   4.535   8.176  0.9910 -0.6513  0.4076
  751MOL0     C 1312   4.504   4.472   8.055  1.0793 -0.0716 -0.1834
  751MOL0     C 1313   4.652   4.433   8.105  0.3533 -0.3516  0.5214
  751MOL0     C 1314   4.661   4.304   8.170  0.7616 -0.1417 -0.1228
  751MOL0     C 1315   4.656   4.188   8.204  0.1625  0.6673 -0.1227
  751MOL0     C 1316   4.041   4.594   7.999  0.2099 -0.3500 -0.0368
  751MOL0     C 1317   3.907   4.611   7.961  0.3651 -0.6091  0.1039
  751MOL0     H 1318   3.578   4.891   7.823 -2.3803  1.2304  1.6669
  751MOL0     H 1319   3.361   4.954   7.707 -2.3180 -0.5600  1.1345
  751MOL0     H 1320   3.100   4.922   7.792 -1.2236 -4.1212  0.0959
  751MOL0     H 1321   3.148   4.995   7.630 -1.7894  1.0641  1.7088
  751MOL0     H 1322   2.916   4.810   7.682 -0.3005  1.3039  0.0722
  751MOL0     H 1323   2.889   4.977   7.686 -1.1393 -0.7770 -0.4930
  751MOL0     H 1324   3.016   4.853   7.447  1.9514  1.4327  0.6232
  751MOL0     H 1325   2.840   4.885   7.457 -0.0158  0.5016  0.2631
  751MOL0     H 1326   2.876   5.123   7.426  1.2315 -0.1064 -3.5064
  751MOL0     H 1327   3.012   5.115   7.533  1.1064 -3.5390 -0.3279
  751MOL0     H 1328   3.038   5.008   7.247  3.3746 -0.6520  0.9327
  751MOL0     H 1329   3.021   5.181   7.280 -0.0615  0.0163  0.3700
  751MOL0     H 1330   3.218   5.187   7.419  0.1631  1.3242 -2.0510
  751MOL0     H 1331   3.228   5.015   7.428  0.5653  0.8489  1.4654
  751MOL0     H 1332   3.402   5.086   7.278 -0.0424 -0.0738  0.1306
  751MOL0     H 1333   3.294   5.003   7.173  0.9783 -0.1713  0.0173
  751MOL0     H 1334   3.180   5.233   7.136 -0.2544  1.2976  0.0375
  751MOL0     H 1335   3.321   5.186   7.058 -1.0373  2.1884 -0.1542
  751MOL0     H 1336   3.565   5.253   7.252  0.0663 -0.4733 -0.8247
  751MOL0     H 1337   3.627   5.627   7.282  1.4778  0.5412 -1.5018
  751MOL0     H 1338   3.646   5.509   7.419 -2.1693 -1.5976 -0.0530
  751MOL0     H 1339   3.840   5.533   7.229  1.7306 -1.7214 -2.0519
  751MOL0     H 1340   3.734   5.445   7.121  0.2813 -0.1721  0.0005
  751MOL0     H 1341   3.751   5.241   7.269 -0.6507  0.1798  0.3813
  751MOL0     H 1342   3.783   5.334   7.408 -1.2098 -1.2129 -0.3648
  751MOL0     H 1343   4.000   5.405   7.233  3.2646 -1.9983  0.1119
  751MOL0     H 1344   3.958   5.235   7.195 -1.4285 -1.1509  1.3333
  751MOL0     H 1345   4.199   5.330   7.177  0.0572 -2.7395 -1.0761
  751MOL0     H 1346   4.535   5.329   7.158  0.2529  0.2793  1.5935
  751MOL0     H 1347   4.401   5.408   7.080 -0.6351 -2.2484 -0.3656
  751MOL0     H 1348   4.483   5.499   7.204 -1.3213  0.8670 -0.2972
  751MOL0     H 1349   4.810   5.251   7.665 -0.9739  0.2348 -0.4833
  751MOL0     H 1350   5.054   5.331   7.650  1.1967  2.6692 -1.8130
  751MOL0     H 1351   5.282   5.256   7.291 -0.5802 -0.5829 -0.7712
  751MOL0     H 1352   5.225   5.420   7.260 -1.1167  0.8012  1.4879
  751MOL0     H 1353   5.443   5.469   7.268  1.8161  2.0773  1.4695
  751MOL0     H 1354   5.398   5.496   7.438 -2.1454 -1.0153  0.1702
  751MOL0     H 1355   5.530   5.229   7.348 -0.8033 -0.6621  0.3610
  751MOL0     H 1356   5.499   5.282   7.513 -0.7027  0.7031 -0.3492
  751MOL0     H 1357   5.656   5.460   7.334  0.2825  2.1353  1.2428
  751MOL0     H 1358   5.645   5.459   7.505  3.8362  0.6336  0.4629
  751MOL0     H 1359   5.756   5.238   7.334  0.2644 -3.0287  2.6533
  751MOL0     H 1360   5.785   5.242   7.507  1.3149  1.2264  1.4140
  751MOL0     H 1361   5.910   5.458   7.316  2.4062 -0.0217 -1.1033
  751MOL0     H 1362   5.944   5.432   7.486 -0.2988  0.1407 -1.1841
  751MOL0     H 1363   6.113   5.342   7.330 -1.5019  0.6120 -0.7725
  751MOL0     H 1364   6.001   5.219   7.275 -1.6657 -2.3505  2.3985
  751MOL0     H 1365   6.156   5.137   7.433  1.8671  1.0564  1.3985
  751MOL0     H 1366   5.999   5.136   7.508 -0.0454 -0.0366 -2.5148
  751MOL0     H 1367   5.053   5.273   7.235  4.0017  1.3858  0.6354
  751MOL0     H 1368   4.806   5.216   7.237 -3.3344 -0.9235  1.9795
  751MOL0     H 1369   4.388   5.232   7.611 -0.6510  1.9024  0.0019
  751MOL0     H 1370   4.164   5.176   7.587  0.9959 -2.0294 -1.2185
  751MOL0     H 1371   3.221   4.557   7.695 -0.6559  0.9743  2.1573
  751MOL0     H 1372   3.458   4.475   7.777 -0.7035 -1.1116 -6.1926
  751MOL0     H 1373   3.771   4.335   8.097  1.4886  0.4630  0.6580
  751MOL0     H 1374   4.018   4.298   8.170 -1.2631 -1.1576  0.4935
  751MOL0     H 1375   4.311   4.623   8.040 -0.7808  0.4500 -0.3371
  751MOL0     H 1376   4.246   4.638   8.208 -1.7711  0.1359 -1.3512
  751MOL0     H 1377   4.435   4.454   8.249  4.0868 -3.4765 -2.3644
  751MOL0     H 1378   4.497   4.623   8.201  0.8255  0.5318 -2.9178
  751MOL0     H 1379   4.519   4.550   7.980 -0.9738  1.4659  0.9290
  751MOL0     H 1380   4.444   4.389   8.016 -2.0753  0.9780  2.0064
  751MOL0     H 1381   4.688   4.508   8.177 -0.5644 -1.9493  2.7740
  751MOL0     H 1382   4.706   4.430   8.010  0.9827 -1.3632  0.9037
  751MOL0     H 1383   4.662   4.088   8.242 -0.4652  0.2312 -1.1342
  751MOL0     H 1384   4.113   4.670   7.973  1.1136 -0.5689  1.7417
  751MOL0     H 1385   3.875   4.702   7.911 -1.5348 -1.5449 -0.4803
  752MOL0     O 1386   4.288   0.977   1.846  0.6954  0.3142 -0.1820
  752MOL0     C 1387   4.333   0.879   1.786  0.2590  0.3994 -0.3621
  752MOL0     O 1388   4.264   0.795   1.705  0.1764 -0.1555  0.3148
  752MOL0     C 1389   4.131   0.798   1.662 -0.0686  0.0224  0.4595
  752MOL0     C 1390   4.107   0.741   1.534 -0.0462  0.4954 -0.4606
  752MOL0     C 1391   3.976   0.713   1.491  0.1231  0.4762 -0.7215
  752MOL0     C 1392   3.864   0.762   1.566 -0.4750 -0.1246  0.3313
  752MOL0     O 1393   3.739   0.733   1.512  0.0174 -0.5272  0.3123
  752MOL0     C 1394   3.640   0.834   1.541 -0.1024  0.4412  0.2599
  752MOL0     C 1395   3.500   0.798   1.494  0.5537  0.4581 -0.0835
  752MOL0     C 1396   3.426   0.713   1.595  0.0239 -0.3390  0.8715
  752MOL0     C 1397   3.306   0.633   1.537  0.8243  0.1547 -0.4317
  752MOL0     C 1398   3.249   0.547   1.649 -0.1209  0.2036  0.0609
  752MOL0     C 1399   3.100   0.508   1.620 -0.7793  0.8224  0.8928
  752MOL0     C 1400   3.047   0.399   1.711 -0.8188  0.2548 -0.0430
  752MOL0     C 1401   2.926   0.441   1.783 -0.3870  0.1861  0.9470
  752MOL0     N 1402   2.910   0.368   1.902 -0.1281 -0.0297  0.4750
  752MOL0     C 1403   2.846   0.243   1.905  0.0673 -0.7671 -0.0088
  752MOL0     C 1404   2.867   0.193   2.028 -0.4192  0.4370 -0.1001
  752MOL0     C 1405   2.826   0.067   2.078 -0.1676 -0.0634 -0.1930
  752MOL0     C 1406   2.677   0.048   2.058 -0.4373 -0.0753  1.1989
  752MOL0     C 1407   2.645  -0.093   2.099  0.1166  0.2094 -0.5902
  752MOL0     C 1408   2.497  -0.119   2.085 -0.1237 -0.2811 -0.1196
  752MOL0     O 1409   2.406  -0.014   2.115  0.5956  0.2574  0.9680
  752MOL0     C 1410   2.268  -0.038   2.126 -0.8582 -0.2658 -0.8002
  752MOL0     C 1411   2.215  -0.164   2.104 -1.0050 -0.1210  0.5131
  752MOL0     C 1412   2.076  -0.184   2.119 -0.0492  0.8882  0.0067
  752MOL0     C 1413   2.030  -0.321   2.087  0.1060 -0.5238  1.1790
  752MOL0     C 1414   1.989  -0.070   2.141  0.0462  0.3179 -0.2673
  752MOL0     C 1415   1.836  -0.079   2.156  0.0011 -0.2492 -0.2423
  752MOL0     O 1416   1.775   0.036   2.222  0.8440 -0.1731  0.1529
  752MOL0     C 1417   1.635   0.027   2.233  0.6156  0.3152 -0.0060
  752MOL0     C 1418   1.570  -0.061   2.316  0.1816 -0.7482 -0.2302
  752MOL0     C 1419   1.426  -0.059   2.329  0.1732  0.3304  0.6933
  752MOL0     C 1420   1.351   0.014   2.239  0.1508 -0.4847  0.3036
  752MOL0     O 1421   1.219   0.007   2.228  0.6690 -0.4086 -0.7196
  752MOL0     C 1422   1.178  -0.104   2.147  0.3375  0.1047  1.2013
  752MOL0     C 1423   1.032  -0.116   2.111  0.4920 -0.2397 -0.3916
  752MOL0     C 1424   0.967   0.004   2.045  0.6220 -0.0258 -0.4507
  752MOL0     C 1425   1.032   0.053   1.917  0.0936 -1.0616  0.8071
  752MOL0     C 1426   1.041  -0.042   1.796  0.3136  0.8581 -0.0897
  752MOL0     C 1427   1.069   0.028   1.654 -0.3348  0.3410 -0.2631
  752MOL0     C 1428   1.184   0.128   1.665 -0.0051 -0.1891 -0.1367
  752MOL0     C 1429   1.258   0.160   1.535  0.2709  0.2650  0.4160
  752MOL0    Cl 1430   1.346   0.018   1.479 -0.2409 -0.3716  0.3359
  752MOL0     C 1431   1.419   0.099   2.148 -0.4025  0.5720 -0.8456
  752MOL0     C 1432   1.558   0.115   2.152  0.7193  0.6219 -0.3294
  752MOL0     O 1433   1.777  -0.172   2.111 -0.8430  0.1275 -0.0069
  752MOL0     C 1434   2.053   0.054   2.163  0.2857 -0.0986  0.0128
  752MOL0     C 1435   2.187   0.068   2.160 -0.6869  0.2893  0.3313
  752MOL0     N 1436   2.938   0.293   2.094  0.1823 -0.0262  0.4995
  752MOL0     N 1437   2.975   0.394   2.020  0.4308 -0.1452  0.1451
  752MOL0     C 1438   3.885   0.828   1.689 -0.7004 -0.1728 -0.1323
  752MOL0     C 1439   4.024   0.826   1.745  0.5172  0.7185 -0.1789
  752MOL0     C 1440   4.477   0.864   1.805  0.1383  1.5094 -0.3753
  752MOL0     C 1441   4.551   0.739   1.799  0.4972  0.1144  0.5777
  752MOL0     C 1442   4.691   0.734   1.822 -0.2163 -0.1275 -0.1708
  752MOL0     C 1443   4.763   0.850   1.851  1.0666 -0.4748 -0.4090
  752MOL0     O 1444   4.894   0.844   1.879 -0.2967 -0.0297 -0.2849
  752MOL0     C 1445   4.975   0.916   1.782  0.1815  0.2920  0.0887
  752MOL0     C 1446   5.127   0.883   1.809  0.0708  0.1072  0.1371
  752MOL0     C 1447   5.218   0.949   1.694 -0.0276  0.7236 -0.5737
  752MOL0     C 1448   5.365   0.907   1.708 -0.4509  0.3716 -0.1069
  752MOL0     C 1449   5.423   0.961   1.837  0.9064 -0.7851  0.7875
  752MOL0     C 1450   5.467   1.003   1.938 -0.4561 -0.2042  0.6909
  752MOL0     C 1451   4.690   0.973   1.865  0.6346  0.2288 -0.2431
  752MOL0     C 1452   4.557   0.979   1.842 -0.6313  0.3222 -0.1037
  752MOL0     H 1453   4.193   0.719   1.472  1.1417  0.3061  1.1926
  752MOL0     H 1454   3.968   0.660   1.397  0.9486 -1.2371  0.1337
  752MOL0     H 1455   3.633   0.848   1.649 -1.8112  2.0762 -0.0241
  752MOL0     H 1456   3.664   0.934   1.502  0.3580  0.8231  1.4651
  752MOL0     H 1457   3.439   0.886   1.468 -1.8424 -0.5754  1.6254
  752MOL0     H 1458   3.512   0.742   1.401 -2.1255 -0.7418  0.1913
  752MOL0     H 1459   3.493   0.639   1.641 -1.9975 -3.3588 -0.7269
  752MOL0     H 1460   3.381   0.779   1.669 -0.4555  0.9545 -0.5229
  752MOL0     H 1461   3.231   0.701   1.496  1.2029 -0.8346 -2.9057
  752MOL0     H 1462   3.335   0.572   1.451 -0.0049  1.7025 -1.8826
  752MOL0     H 1463   3.305   0.456   1.671  0.7242  0.2387 -1.8278
  752MOL0     H 1464   3.249   0.610   1.739  0.4993 -1.2150  1.0796
  752MOL0     H 1465   3.048   0.601   1.641  1.0141  1.9624  0.5019
  752MOL0     H 1466   3.089   0.471   1.518 -0.0380  3.8220 -0.3557
  752MOL0     H 1467   3.026   0.310   1.651 -1.5226  1.4960 -1.7071
  752MOL0     H 1468   3.123   0.371   1.784 -1.8823 -3.6664 -0.2338
  752MOL0     H 1469   2.838   0.448   1.719  0.1159 -3.2385 -0.3259
  752MOL0     H 1470   2.939   0.541   1.824  2.5702  0.8242 -1.2241
  752MOL0     H 1471   2.798   0.192   1.822  2.3365 -0.6697 -1.4556
  752MOL0     H 1472   2.887  -0.007   2.026 -1.4989  0.5104 -2.7232
  752MOL0     H 1473   2.863   0.059   2.181  2.1508 -1.7738 -1.0821
  752MOL0     H 1474   2.643   0.049   1.954  0.2795 -2.8357  0.8380
  752MOL0     H 1475   2.624   0.127   2.111 -1.3069 -0.6304  1.1844
  752MOL0     H 1476   2.687  -0.102   2.200  1.4403 -0.4700 -1.1696
  752MOL0     H 1477   2.710  -0.161   2.042  0.0750  0.4530 -0.9252
  752MOL0     H 1478   2.462  -0.198   2.152  0.6863 -0.5405  0.0023
  752MOL0     H 1479   2.475  -0.164   1.989  0.0006 -0.8523  0.1164
  752MOL0     H 1480   2.284  -0.243   2.077 -1.3465  0.3465 -1.9679
  752MOL0     H 1481   1.971  -0.328   1.995 -0.1458  1.6348  1.1385
  752MOL0     H 1482   2.111  -0.393   2.072  0.1553  0.0095 -1.6163
  752MOL0     H 1483   1.971  -0.369   2.166 -2.2461 -1.1293 -0.8183
  752MOL0     H 1484   1.625  -0.114   2.394 -0.0138 -0.3615  0.1743
  752MOL0     H 1485   1.359  -0.112   2.396 -2.1284 -0.0643 -1.7189
  752MOL0     H 1486   1.223  -0.091   2.048 -0.3251  1.0577  1.0058
  752MOL0     H 1487   1.215  -0.190   2.204  1.6310  1.2206  2.1065
  752MOL0     H 1488   1.019  -0.213   2.062 -0.4178 -1.0679  1.3935
  752MOL0     H 1489   0.970  -0.136   2.199  1.7655 -0.8282  0.3957
  752MOL0     H 1490   0.964   0.093   2.110 -1.5805 -0.6522  0.3841
  752MOL0     H 1491   0.868  -0.024   2.010  2.0635 -3.5021 -2.1831
  752MOL0     H 1492   0.972   0.142   1.892  1.5953  0.3816  2.0949
  752MOL0     H 1493   1.128   0.103   1.932 -0.2774  0.5665 -1.5995
  752MOL0     H 1494   0.948  -0.099   1.785  0.5242  0.7016 -1.1903
  752MOL0     H 1495   1.125  -0.110   1.812 -0.0697 -0.3152 -2.5981
  752MOL0     H 1496   1.100  -0.057   1.593  0.9470  0.6267 -0.0580
  752MOL0     H 1497   0.986   0.082   1.607 -1.1820 -0.5905  0.1388
  752MOL0     H 1498   1.258   0.095   1.738  1.1002  0.0701 -1.1110
  752MOL0     H 1499   1.146   0.226   1.698 -1.7961 -0.8457 -0.1044
  752MOL0     H 1500   1.337   0.232   1.560 -0.9520  2.0223 -0.5429
  752MOL0     H 1501   1.186   0.198   1.462 -2.2502  0.1409  2.6605
  752MOL0     H 1502   1.365   0.160   2.076 -0.7030 -0.1495 -1.2366
  752MOL0     H 1503   1.610   0.179   2.082  0.0518 -1.9819 -3.4359
  752MOL0     H 1504   2.003   0.143   2.199 -0.0632 -0.4544  0.4218
  752MOL0     H 1505   2.236   0.164   2.173 -0.2893  0.6021 -2.6772
  752MOL0     H 1506   3.802   0.864   1.749 -0.7000 -1.3473  0.6127
  752MOL0     H 1507   4.047   0.868   1.842  0.5898 -0.3861  0.3026
  752MOL0     H 1508   4.501   0.644   1.779  2.5685 -0.8726 -0.2092
  752MOL0     H 1509   4.744   0.643   1.796 -1.3207 -0.9018  0.1872
  752MOL0     H 1510   4.959   0.873   1.682 -0.7464 -1.6310  1.0169
  752MOL0     H 1511   4.947   1.021   1.778 -2.0907 -0.2358  0.7302
  752MOL0     H 1512   5.134   0.775   1.817 -1.1085 -0.1069 -1.2709
  752MOL0     H 1513   5.149   0.934   1.903 -0.9899  3.3708 -1.2271
  752MOL0     H 1514   5.213   1.058   1.704 -5.2767  0.6641  0.7014
  752MOL0     H 1515   5.187   0.922   1.593 -3.3388 -0.2979  0.5860
  752MOL0     H 1516   5.416   0.942   1.617  1.3065  0.4341  0.8698
  752MOL0     H 1517   5.382   0.799   1.718 -1.4597 -0.3419 -4.1772
  752MOL0     H 1518   5.505   1.048   2.028 -1.3973 -0.9744  1.4864
  752MOL0     H 1519   4.740   1.064   1.894 -3.2198  2.6939 -0.6798
  752MOL0     H 1520   4.524   1.081   1.855 -2.1354  0.3417 -3.0892
  753MOL0     O 1521   5.340  10.071   2.868 -0.1902  0.0765 -0.9185
  753MOL0     C 1522   5.314   9.948   2.868 -0.2548 -0.4226  0.3763
  753MOL0     O 1523   5.191   9.890   2.861  0.2360 -0.3033  0.7223
  753MOL0     C 1524   5.084   9.969   2.887  0.7693  0.5778  0.5203
  753MOL0     C 1525   4.990   9.918   2.975 -0.2639  0.6685 -0.2137
  753MOL0     C 1526   4.873   9.981   2.997 -0.1138  0.9067  0.3474
  753MOL0     C 1527   4.834  10.094   2.931 -0.7426 -0.3699 -0.0995
  753MOL0     O 1528   4.710  10.148   2.955  0.2772 -0.6110 -0.0558
  753MOL0     C 1529   4.597  10.082   3.022  0.2206  0.4087 -0.5018
  753MOL0     C 1530   4.588  10.137   3.168 -0.1559  0.5991 -0.2562
  753MOL0     C 1531   4.482  10.061   3.248  0.9116 -0.4447  0.4207
  753MOL0     C 1532   4.345  10.064   3.190  1.3791 -0.1504 -0.3329
  753MOL0     C 1533   4.245   9.996   3.282  0.7574  0.6237 -0.2530
  753MOL0     C 1534   4.106   9.997   3.211  0.0264 -0.4745 -0.1889
  753MOL0     C 1535   4.003   9.970   3.321  0.7949 -0.3201 -0.1708
  753MOL0     C 1536   3.866   9.990   3.252  0.1040 -0.1526 -0.4878
  753MOL0     N 1537   3.761   9.907   3.310 -0.3004 -0.3825 -0.2255
  753MOL0     C 1538   3.722   9.909   3.440 -0.1681 -0.2380 -0.0209
  753MOL0     C 1539   3.621   9.815   3.443 -0.5623 -0.7033  0.0143
  753MOL0     C 1540   3.559   9.785   3.572 -0.2423 -0.6026  0.7882
  753MOL0     C 1541   3.401   9.782   3.559 -0.7244  0.8539 -0.3819
  753MOL0     C 1542   3.347   9.911   3.510  0.3541 -0.1873  1.2083
  753MOL0     C 1543   3.205   9.897   3.502  0.0732  0.5942 -0.4543
  753MOL0     O 1544   3.151  10.015   3.440  0.2149  0.2414 -0.6500
  753MOL0     C 1545   3.088   9.997   3.319  0.6570 -0.6182  0.2140
  753MOL0     C 1546   3.149   9.985   3.193 -0.5882 -0.0096 -0.6031
  753MOL0     C 1547   3.066   9.964   3.076  0.4640  0.3151  0.0968
  753MOL0     C 1548   3.141   9.967   2.944 -0.6930  0.0528  0.2592
  753MOL0     C 1549   2.925   9.962   3.091  0.6256  0.5955 -0.0846
  753MOL0     C 1550   2.828   9.950   2.971  0.2029  0.2097 -0.9404
  753MOL0     O 1551   2.876   9.953   2.841  0.0426  0.6014  0.5751
  753MOL0     C 1552   2.783   9.911   2.743 -0.8656 -1.1148  0.0621
  753MOL0     C 1553   2.696   9.797   2.745 -0.4160 -0.0801 -0.7421
  753MOL0     C 1554   2.614   9.758   2.635 -0.7488  0.4915  0.1909
  753MOL0     C 1555   2.606   9.846   2.525 -0.0815 -0.3043 -0.7229
  753MOL0     O 1556   2.519   9.821   2.427  0.5746  0.1797  0.5643
  753MOL0     C 1557   2.446   9.922   2.365 -0.1793 -0.4177  0.8174
  753MOL0     C 1558   2.308   9.933   2.436 -0.4919 -0.3933 -0.3258
  753MOL0     C 1559   2.217  10.047   2.381  0.2918 -0.2161  0.2288
  753MOL0     C 1560   2.064  10.013   2.393 -0.2295  0.3746  0.3540
  753MOL0     C 1561   2.014   9.960   2.529 -0.2319 -0.2126  0.7414
  753MOL0     C 1562   1.868   9.923   2.526 -0.0529 -0.0572 -0.1681
  753MOL0     C 1563   1.829   9.874   2.671  0.6899 -0.0525  0.6331
  753MOL0     C 1564   1.743   9.755   2.653 -0.3771 -0.2782  0.4150
  753MOL0    Cl 1565   1.583   9.818   2.582  0.0946  0.3714  0.1658
  753MOL0     C 1566   2.699   9.956   2.518 -0.6479 -0.6885 -0.3889
  753MOL0     C 1567   2.788   9.987   2.620  0.5698 -0.1326 -0.6887
  753MOL0     O 1568   2.711   9.927   3.003  0.2807  0.1376 -0.0982
  753MOL0     C 1569   2.862   9.974   3.215  0.5939 -0.1907 -0.2273
  753MOL0     C 1570   2.946   9.998   3.327  0.0866  0.9083  0.5215
  753MOL0     N 1571   3.610   9.757   3.319 -0.5553  0.3209  0.3409
  753MOL0     N 1572   3.692   9.817   3.237 -0.3483  0.2209 -0.0992
  753MOL0     C 1573   4.921  10.148   2.838  0.1588 -0.0225  0.2950
  753MOL0     C 1574   5.038  10.086   2.812 -0.9068  0.0074 -0.3230
  753MOL0     C 1575   5.427   9.863   2.836  1.3241  0.1738 -0.1279
  753MOL0     C 1576   5.550   9.907   2.812 -1.1762 -0.2877 -0.0067
  753MOL0     C 1577   5.662   9.819   2.806  0.4200 -0.3284 -0.5471
  753MOL0     C 1578   5.639   9.686   2.841 -0.4212 -0.6803  0.2006
  753MOL0     O 1579   5.742   9.608   2.815  0.1294  0.2260 -0.0266
  753MOL0     C 1580   5.762   9.488   2.886 -0.7531  0.1361  0.7936
  753MOL0     C 1581   5.905   9.441   2.889  0.6241  0.0481  0.0873
  753MOL0     C 1582   6.007   9.546   2.938 -0.0518  0.3408  0.3167
  753MOL0     C 1583   6.048   9.642   2.825 -1.0775  0.5320 -0.4133
  753MOL0     C 1584   6.159   9.714   2.889  0.4515 -0.0937  0.6085
  753MOL0     C 1585   6.243   9.772   2.962  0.0523 -0.6085 -0.1184
  753MOL0     C 1586   5.512   9.643   2.871 -0.7183  0.8488  0.1702
  753MOL0     C 1587   5.404   9.731   2.876  0.5690 -0.4077 -0.4090
  753MOL0     H 1588   5.021   9.822   3.015  1.3767  0.8772 -0.8657
  753MOL0     H 1589   4.808   9.925   3.063  0.6014  1.9034  1.9614
  753MOL0     H 1590   4.505  10.100   2.965  0.0235 -0.2667 -0.3998
  753MOL0     H 1591   4.612   9.974   3.014 -0.3799  0.4313 -2.7976
  753MOL0     H 1592   4.682  10.127   3.223 -0.1963 -2.3084 -0.5190
  753MOL0     H 1593   4.549  10.239   3.168  0.2460  0.8901  3.5656
  753MOL0     H 1594   4.507   9.954   3.243  2.1977 -0.1342 -0.0511
  753MOL0     H 1595   4.477  10.110   3.345 -0.3819  2.8908 -1.1973
  753MOL0     H 1596   4.316  10.169   3.172  0.6546 -0.2947 -0.0508
  753MOL0     H 1597   4.346  10.017   3.091 -0.4996 -0.3440 -0.3016
  753MOL0     H 1598   4.260   9.889   3.299 -1.5163 -0.1448 -2.4341
  753MOL0     H 1599   4.242  10.050   3.377  0.5521  0.9090 -0.4204
  753MOL0     H 1600   4.093  10.096   3.166  5.5977  2.1030  2.8573
  753MOL0     H 1601   4.089   9.926   3.129  1.9027  1.8733 -2.8144
  753MOL0     H 1602   4.016   9.869   3.360 -1.2702 -0.3742  0.4800
  753MOL0     H 1603   4.011  10.042   3.403 -3.0241  0.9649 -0.7669
  753MOL0     H 1604   3.872   9.971   3.144 -0.9221 -2.2810 -0.2275
  753MOL0     H 1605   3.838  10.094   3.270  0.8579  0.0281 -0.3316
  753MOL0     H 1606   3.754   9.971   3.523  0.5501 -0.8881  0.2055
  753MOL0     H 1607   3.585   9.684   3.605  2.3345 -0.0732  0.5895
  753MOL0     H 1608   3.589   9.856   3.649  0.9345 -0.1264 -0.0818
  753MOL0     H 1609   3.363   9.748   3.655  1.5187  1.3102  0.7251
  753MOL0     H 1610   3.374   9.705   3.485  1.6169 -3.0275  2.4404
  753MOL0     H 1611   3.375   9.932   3.406  1.5037 -0.3241  1.4767
  753MOL0     H 1612   3.388   9.988   3.576 -0.8370  2.6393 -1.1181
  753MOL0     H 1613   3.170   9.889   3.606  0.7314  0.0249 -0.2685
  753MOL0     H 1614   3.166   9.804   3.458  1.1319 -0.1033  0.0392
  753MOL0     H 1615   3.257   9.980   3.203 -0.7404 -0.8900  0.8661
  753MOL0     H 1616   3.124   9.877   2.885 -1.7466 -1.1391  2.3055
  753MOL0     H 1617   3.099  10.052   2.889 -1.0058  1.2618  2.2558
  753MOL0     H 1618   3.245  10.001   2.951 -0.4797 -0.1299 -1.5815
  753MOL0     H 1619   2.686   9.733   2.832 -0.7441  2.8838  1.5724
  753MOL0     H 1620   2.549   9.672   2.638  0.5609 -0.5157  1.3518
  753MOL0     H 1621   2.499  10.018   2.365  3.0745 -2.0514 -1.0464
  753MOL0     H 1622   2.433   9.894   2.260 -0.6301 -2.8359  1.4485
  753MOL0     H 1623   2.253   9.839   2.430 -0.9117 -0.2970  1.5115
  753MOL0     H 1624   2.327   9.964   2.539 -0.8825  3.9596 -1.3809
  753MOL0     H 1625   2.241  10.071   2.278  0.5512 -0.8714  0.1280
  753MOL0     H 1626   2.220  10.141   2.436 -1.1493  0.1707 -0.3127
  753MOL0     H 1627   2.017  10.110   2.376  0.2871  0.6273  0.3583
  753MOL0     H 1628   2.035   9.953   2.307 -2.1093  1.1138  0.4324
  753MOL0     H 1629   2.040  10.031   2.608 -0.4309  0.1259  0.5053
  753MOL0     H 1630   2.076   9.875   2.557 -1.1795 -1.8759 -1.8497
  753MOL0     H 1631   1.804  10.011   2.512 -1.2447 -0.0004  4.1891
  753MOL0     H 1632   1.849   9.859   2.439  1.3650 -0.3630 -0.2790
  753MOL0     H 1633   1.779   9.959   2.719  1.3151  0.6311  0.0941
  753MOL0     H 1634   1.920   9.846   2.725  1.4969  1.4741  0.1251
  753MOL0     H 1635   1.720   9.695   2.742 -4.5054 -2.1333 -1.6367
  753MOL0     H 1636   1.799   9.686   2.590  0.5771 -0.8567  1.8287
  753MOL0     H 1637   2.709  10.021   2.432 -1.8088  0.8150  0.5744
  753MOL0     H 1638   2.849  10.076   2.623  0.5965 -0.1637  0.0499
  753MOL0     H 1639   2.758   9.963   3.245  0.7302  0.0940  0.3507
  753MOL0     H 1640   2.891  10.003   3.421  0.1440 -2.4908  0.8434
  753MOL0     H 1641   4.889  10.234   2.780 -1.9000 -0.1954  1.0934
  753MOL0     H 1642   5.091  10.121   2.723  0.9440  2.2135  1.5240
  753MOL0     H 1643   5.574  10.008   2.779  1.0904 -0.3508  1.2364
  753MOL0     H 1644   5.752   9.853   2.756 -0.3410  1.4645 -0.7726
  753MOL0     H 1645   5.721   9.505   2.986  0.4575  0.5516  1.2408
  753MOL0     H 1646   5.701   9.408   2.842 -0.5161  0.5158 -0.2405
  753MOL0     H 1647   5.937   9.413   2.789  2.7808  0.2700  0.6789
  753MOL0     H 1648   5.918   9.359   2.961 -1.4184  0.3590  0.8850
  753MOL0     H 1649   6.080   9.499   3.005 -1.8032  1.3826  3.1277
  753MOL0     H 1650   5.951   9.614   3.004  0.0791  0.7919 -0.0341
  753MOL0     H 1651   5.973   9.709   2.784 -1.1267 -0.1145 -1.4118
  753MOL0     H 1652   6.093   9.597   2.736 -0.3184 -0.2622  0.3470
  753MOL0     H 1653   6.317   9.803   3.032 -0.9631  2.6561 -0.3068
  753MOL0     H 1654   5.503   9.542   2.907 -1.4654  0.6519 -0.5490
  753MOL0     H 1655   5.302   9.697   2.893 -0.9142  2.3877 -2.7742
  754MOL0     O 1656   7.783   7.217   1.546  0.1017 -0.0930 -0.5342
  754MOL0     C 1657   7.825   7.241   1.436 -0.4806 -0.4060 -1.5106
  754MOL0     O 1658   7.797   7.359   1.365  0.2727  0.5038  0.0792
  754MOL0     C 1659   7.681   7.422   1.379  0.5220 -0.6300 -0.0286
  754MOL0     C 1660   7.565   7.378   1.445 -0.4345 -0.3619 -0.0073
  754MOL0     C 1661   7.454   7.466   1.456  0.0182 -0.5027 -0.9299
  754MOL0     C 1662   7.446   7.591   1.392  0.5371 -0.2013  0.2214
  754MOL0     O 1663   7.330   7.670   1.373 -0.1720 -0.0700 -0.2919
  754MOL0     C 1664   7.217   7.654   1.456  0.1207  0.4793 -0.8240
  754MOL0     C 1665   7.127   7.782   1.439  0.4724 -0.1031  0.4217
  754MOL0     C 1666   6.974   7.749   1.472  0.1585 -0.2789 -0.8347
  754MOL0     C 1667   6.900   7.875   1.504 -0.2388  0.0856 -0.9055
  754MOL0     C 1668   6.743   7.852   1.525 -0.4323  0.2455 -0.2508
  754MOL0     C 1669   6.675   7.812   1.390  0.4008  0.4058  0.3557
  754MOL0     C 1670   6.527   7.788   1.417 -1.1355 -0.1573 -0.2711
  754MOL0     C 1671   6.458   7.715   1.313 -1.2792  1.2363  0.0056
  754MOL0     N 1672   6.311   7.682   1.314 -1.1576 -0.3476  0.4545
  754MOL0     C 1673   6.210   7.756   1.374 -0.1585  0.3982 -0.4401
  754MOL0     C 1674   6.096   7.699   1.326 -0.5538  0.1499 -0.3670
  754MOL0     C 1675   5.963   7.731   1.364  0.2319  0.2723  0.2061
  754MOL0     C 1676   5.938   7.862   1.448 -0.0574 -0.0109 -0.2661
  754MOL0     C 1677   5.793   7.860   1.495 -0.8631 -0.3309 -0.2607
  754MOL0     C 1678   5.767   7.976   1.586  0.8591  0.2835  0.3881
  754MOL0     O 1679   5.635   7.990   1.634 -0.6168  0.4754 -0.2469
  754MOL0     C 1680   5.542   8.058   1.563 -0.1508  0.5124  1.1182
  754MOL0     C 1681   5.564   8.096   1.427  0.0797  0.0642  0.2235
  754MOL0     C 1682   5.474   8.172   1.358  0.6666  0.4457 -0.6187
  754MOL0     C 1683   5.504   8.199   1.216 -0.0018  0.6249  0.2981
  754MOL0     C 1684   5.341   8.212   1.423 -0.4817 -0.4237  0.8742
  754MOL0     C 1685   5.249   8.314   1.368  0.3527 -0.1478 -0.5901
  754MOL0     O 1686   5.311   8.416   1.286 -0.0235 -0.3543 -0.8223
  754MOL0     C 1687   5.249   8.531   1.253  0.4503  0.7038 -0.6631
  754MOL0     C 1688   5.169   8.608   1.336  0.3010 -0.8468  0.5912
  754MOL0     C 1689   5.101   8.724   1.288  0.5922 -0.5823  0.0221
  754MOL0     C 1690   5.130   8.778   1.167  0.3844 -0.5243 -0.3862
  754MOL0     O 1691   5.079   8.898   1.131  0.4419 -0.0290  0.0913
  754MOL0     C 1692   5.024   8.927   0.996  0.5449 -0.4863  1.3584
  754MOL0     C 1693   5.072   9.053   0.925 -0.4269 -0.0663  1.0102
  754MOL0     C 1694   5.195   9.028   0.838 -0.6257  0.4935 -0.1984
  754MOL0     C 1695   5.223   9.156   0.760 -1.0671 -0.0923 -0.5506
  754MOL0     C 1696   5.350   9.160   0.684 -0.5419 -0.0801 -0.2755
  754MOL0     C 1697   5.336   9.254   0.560  0.2421 -0.1554  0.5573
  754MOL0     C 1698   5.475   9.257   0.496  0.1744  0.7514 -0.6478
  754MOL0     C 1699   5.458   9.331   0.361 -0.7503  0.2769  0.2501
  754MOL0    Cl 1700   5.616   9.297   0.287 -0.0523 -0.2996 -0.0346
  754MOL0     C 1701   5.217   8.705   1.091 -0.7274  0.0073  0.1777
  754MOL0     C 1702   5.279   8.579   1.129 -0.2838 -0.8882  0.3408
  754MOL0     O 1703   5.132   8.316   1.409 -0.1484  0.0242  0.2876
  754MOL0     C 1704   5.323   8.172   1.552 -0.0362  0.4510 -0.9644
  754MOL0     C 1705   5.422   8.096   1.621  0.2398 -0.4743 -0.2589
  754MOL0     N 1706   6.137   7.607   1.227  0.2863 -0.3373 -0.3951
  754MOL0     N 1707   6.267   7.584   1.230 -0.2115  0.4745 -0.4199
  754MOL0     C 1708   7.561   7.631   1.322 -0.4526  0.2145 -0.4402
  754MOL0     C 1709   7.682   7.555   1.323  0.0753 -0.2976  0.3442
  754MOL0     C 1710   7.922   7.146   1.375  0.0349 -0.4668 -0.1543
  754MOL0     C 1711   7.969   7.179   1.246 -0.1963 -0.4818  0.2364
  754MOL0     C 1712   8.068   7.101   1.197  1.0243 -0.4775  0.3548
  754MOL0     C 1713   8.106   6.977   1.263  0.5337  0.4433  0.3685
  754MOL0     O 1714   8.205   6.892   1.227  0.7779 -0.4159  0.0727
  754MOL0     C 1715   8.245   6.901   1.080 -0.0046  0.0769 -0.7111
  754MOL0     C 1716   8.382   6.976   1.069  0.6196 -0.4420  0.7048
  754MOL0     C 1717   8.507   6.891   1.108  0.2171  0.8640  0.6100
  754MOL0     C 1718   8.641   6.949   1.060  0.1607 -0.1196  0.1980
  754MOL0     C 1719   8.741   6.846   1.054 -0.1031  0.6436 -0.5420
  754MOL0     C 1720   8.835   6.771   1.038 -0.6646 -0.2102 -0.6387
  754MOL0     C 1721   8.047   6.950   1.389 -0.7723  0.2725  0.0778
  754MOL0     C 1722   7.960   7.035   1.448 -0.0989  0.3093 -0.3413
  754MOL0     H 1723   7.558   7.277   1.483  1.0025 -0.8152 -0.8744
  754MOL0     H 1724   7.354   7.427   1.474 -0.1680  0.7644  1.0999
  754MOL0     H 1725   7.163   7.565   1.423  1.6107 -1.0243  0.6037
  754MOL0     H 1726   7.229   7.651   1.564 -3.4611  0.4948 -0.3168
  754MOL0     H 1727   7.158   7.857   1.512  0.2720 -1.5908  2.0921
  754MOL0     H 1728   7.141   7.815   1.336  1.8234 -1.4062  0.1576
  754MOL0     H 1729   6.927   7.705   1.384 -0.5153  1.7434 -1.5346
  754MOL0     H 1730   6.967   7.688   1.563 -1.0605  1.2787  0.1633
  754MOL0     H 1731   6.941   7.912   1.598  0.6532 -0.7100 -0.9698
  754MOL0     H 1732   6.921   7.954   1.431 -2.6316  3.0430  1.3270
  754MOL0     H 1733   6.726   7.772   1.597 -1.4700  2.3477  1.9657
  754MOL0     H 1734   6.700   7.945   1.560  2.4172  1.6277 -0.0938
  754MOL0     H 1735   6.695   7.895   1.322  2.1137  0.2225  0.5909
  754MOL0     H 1736   6.720   7.720   1.352 -0.2785  0.6566 -1.1401
  754MOL0     H 1737   6.522   7.729   1.509 -0.0232  1.0342  0.6011
  754MOL0     H 1738   6.468   7.877   1.442 -0.1051  0.1550  1.2174
  754MOL0     H 1739   6.501   7.614   1.306 -1.0069  1.4117 -0.9860
  754MOL0     H 1740   6.474   7.757   1.214  1.0311  2.3930  0.8120
  754MOL0     H 1741   6.218   7.847   1.432  0.9755  0.9768 -1.4335
  754MOL0     H 1742   5.895   7.753   1.282  1.3360  0.7178 -0.6217
  754MOL0     H 1743   5.915   7.640   1.401 -1.3917  0.0151 -2.3112
  754MOL0     H 1744   5.962   7.953   1.393 -0.9736  1.3696  1.5222
  754MOL0     H 1745   6.006   7.868   1.534  0.1733 -0.6449 -0.3986
  754MOL0     H 1746   5.766   7.767   1.545 -1.5932 -1.8607 -3.3033
  754MOL0     H 1747   5.732   7.866   1.405  1.0011 -1.9879 -1.7275
  754MOL0     H 1748   5.803   8.068   1.541  2.3013 -0.5871 -0.2935
  754MOL0     H 1749   5.816   7.964   1.683 -0.8806  0.8114  1.3821
  754MOL0     H 1750   5.651   8.070   1.367  0.6489  2.7310 -0.2547
  754MOL0     H 1751   5.612   8.189   1.200 -0.3218  0.4361 -1.9236
  754MOL0     H 1752   5.447   8.127   1.157 -0.5739  2.3575 -1.3615
  754MOL0     H 1753   5.474   8.300   1.188 -0.7922 -0.1658 -1.8931
  754MOL0     H 1754   5.146   8.577   1.437 -2.6989  5.9673  2.5445
  754MOL0     H 1755   5.024   8.772   1.348  0.7151  2.7317 -2.2039
  754MOL0     H 1756   5.026   8.836   0.935  0.4162  0.0366  0.5633
  754MOL0     H 1757   4.916   8.941   1.004  0.6364  1.2790  0.1824
  754MOL0     H 1758   4.997   9.114   0.874  1.2401  0.9996 -0.2718
  754MOL0     H 1759   5.103   9.119   1.007 -1.2105  1.0465  0.4402
  754MOL0     H 1760   5.177   8.945   0.769 -0.8098  0.4191 -0.0622
  754MOL0     H 1761   5.279   9.000   0.903 -1.5884  0.9151  1.2755
  754MOL0     H 1762   5.139   9.156   0.689 -0.5851  0.4219 -1.1267
  754MOL0     H 1763   5.218   9.248   0.818  1.3991 -0.8702  1.0487
  754MOL0     H 1764   5.373   9.059   0.651  0.4080 -0.5246  1.5890
  754MOL0     H 1765   5.430   9.194   0.750  2.2801 -2.2660 -2.3217
  754MOL0     H 1766   5.260   9.215   0.493 -2.1976 -0.4424  3.2933
  754MOL0     H 1767   5.303   9.355   0.589 -0.1696 -0.3744  0.8516
  754MOL0     H 1768   5.495   9.151   0.478 -0.5855  0.1648  1.6565
  754MOL0     H 1769   5.552   9.295   0.563  1.1338  0.0849 -1.3573
  754MOL0     H 1770   5.449   9.439   0.376 -0.5108 -0.1093  4.1232
  754MOL0     H 1771   5.374   9.286   0.307  0.7417 -3.2805  0.6051
  754MOL0     H 1772   5.251   8.746   0.996 -3.3745 -1.1661 -1.3724
  754MOL0     H 1773   5.361   8.540   1.068 -0.3732  1.0684 -1.1365
  754MOL0     H 1774   5.241   8.214   1.609 -0.7496 -1.7064 -0.3021
  754MOL0     H 1775   5.420   8.075   1.728  1.0028 -4.6538 -0.8870
  754MOL0     H 1776   7.566   7.730   1.278 -1.3920  0.3920 -0.1791
  754MOL0     H 1777   7.771   7.593   1.273  1.2285 -1.2934  1.5768
  754MOL0     H 1778   7.919   7.261   1.195 -0.7545 -1.5709 -1.0511
  754MOL0     H 1779   8.106   7.138   1.102 -1.0526 -0.5166 -0.5350
  754MOL0     H 1780   8.250   6.797   1.045 -2.0528 -0.7841  1.2991
  754MOL0     H 1781   8.166   6.948   1.021 -0.0993 -0.2470 -0.8462
  754MOL0     H 1782   8.367   7.066   1.129 -7.0018 -2.1870  2.6240
  754MOL0     H 1783   8.371   6.999   0.963 -2.7684 -2.7402  0.3646
  754MOL0     H 1784   8.494   6.799   1.049 -1.5061  2.6624 -2.0352
  754MOL0     H 1785   8.511   6.869   1.215  1.1831 -2.8707 -0.0472
  754MOL0     H 1786   8.662   7.034   1.127 -1.5355 -1.6537  2.8506
  754MOL0     H 1787   8.628   6.994   0.962 -3.4512  2.1294  1.5127
  754MOL0     H 1788   8.921   6.709   1.023  0.0976  0.7066 -0.1355
  754MOL0     H 1789   8.058   6.864   1.454 -1.2552  0.9561  1.0695
  754MOL0     H 1790   7.922   7.003   1.545 -0.3365 -1.4090 -0.9635
  755MOL0     O 1791   7.896   9.272   3.702  0.0396  0.0618 -0.3660
  755MOL0     C 1792   7.987   9.295   3.618  0.3195  0.2441  0.3556
  755MOL0     O 1793   7.969   9.333   3.487 -0.5476 -0.1522  1.0350
  755MOL0     C 1794   7.842   9.344   3.446  0.3196 -0.9109 -0.2986
  755MOL0     C 1795   7.784   9.246   3.373 -0.1733  0.8835 -0.0863
  755MOL0     C 1796   7.643   9.240   3.349  0.1441 -0.5911 -0.7703
  755MOL0     C 1797   7.558   9.346   3.399 -1.4466  0.4356  0.0041
  755MOL0     O 1798   7.421   9.340   3.373  0.2967  0.4340 -0.6630
  755MOL0     C 1799   7.327   9.409   3.457 -0.1637 -0.4997 -0.0161
  755MOL0     C 1800   7.207   9.328   3.451 -0.5756  0.3530 -0.2539
  755MOL0     C 1801   7.130   9.350   3.319 -0.3762  0.5400 -0.6598
  755MOL0     C 1802   7.006   9.249   3.294  0.4595 -0.2724 -0.4525
  755MOL0     C 1803   6.875   9.325   3.311  0.0117 -0.6923  0.2925
  755MOL0     C 1804   6.764   9.221   3.302 -0.0016 -0.2030  1.0428
  755MOL0     C 1805   6.627   9.282   3.299  0.5771 -0.6405  0.1450
  755MOL0     C 1806   6.532   9.188   3.231  0.3840 -0.9652  0.8039
  755MOL0     N 1807   6.459   9.106   3.328 -0.0445  0.3130  1.0771
  755MOL0     C 1808   6.502   8.989   3.386  0.2441 -0.2147 -0.6984
  755MOL0     C 1809   6.396   8.936   3.444 -0.2143 -0.0266  0.4017
  755MOL0     C 1810   6.395   8.815   3.526 -0.3984  0.6782  0.7050
  755MOL0     C 1811   6.439   8.690   3.439 -0.3487  0.4818 -1.0745
  755MOL0     C 1812   6.358   8.684   3.304 -0.1585  0.4545  0.4951
  755MOL0     C 1813   6.391   8.546   3.235 -0.8818  0.3564  0.3220
  755MOL0     O 1814   6.334   8.552   3.101  0.0418 -0.2903 -0.0782
  755MOL0     C 1815   6.234   8.465   3.062 -0.2302  0.2587  0.1559
  755MOL0     C 1816   6.214   8.339   3.119 -0.0617  0.0632  0.8353
  755MOL0     C 1817   6.100   8.265   3.082 -0.9303 -0.6353  0.0709
  755MOL0     C 1818   6.080   8.125   3.142  0.6772 -0.1847  0.2854
  755MOL0     C 1819   6.020   8.314   2.969  0.3031  0.3926 -0.7615
  755MOL0     C 1820   5.898   8.250   2.919 -0.2078 -0.0648  0.2118
  755MOL0     O 1821   5.793   8.328   2.879 -0.8415 -0.1784 -0.9074
  755MOL0     C 1822   5.667   8.284   2.865 -0.3970  0.3824  0.7844
  755MOL0     C 1823   5.632   8.204   2.761 -0.3814  0.0584  0.3879
  755MOL0     C 1824   5.505   8.160   2.742 -0.0251 -0.2527  0.4139
  755MOL0     C 1825   5.396   8.210   2.813 -0.4456 -0.7300 -0.8969
  755MOL0     O 1826   5.270   8.163   2.782  0.0379 -0.8784 -0.0699
  755MOL0     C 1827   5.160   8.218   2.852 -0.6492  0.2344 -0.5909
  755MOL0     C 1828   5.022   8.167   2.810  0.3743 -0.6265 -0.0412
  755MOL0     C 1829   4.993   8.208   2.667  0.6988  0.1068 -0.5745
  755MOL0     C 1830   5.040   8.105   2.559 -0.3830 -0.4686  0.3225
  755MOL0     C 1831   4.998   8.123   2.416 -0.0167 -0.6130  0.1711
  755MOL0     C 1832   4.847   8.104   2.389 -0.2432  0.6914  0.3321
  755MOL0     C 1833   4.817   8.118   2.243  0.1761 -0.3949  0.0019
  755MOL0     C 1834   4.668   8.090   2.221  0.4446  0.2748  0.2972
  755MOL0    Cl 1835   4.653   8.057   2.052 -0.2210  0.4786 -0.3442
  755MOL0     C 1836   5.428   8.294   2.923 -0.2680 -0.5870  0.2841
  755MOL0     C 1837   5.566   8.327   2.935  0.9020 -0.3117 -0.2480
  755MOL0     O 1838   5.890   8.127   2.935  0.3034  0.8228  0.2329
  755MOL0     C 1839   6.049   8.429   2.908  0.1173  0.0704  0.4381
  755MOL0     C 1840   6.155   8.506   2.955 -0.3864  0.7148 -0.6445
  755MOL0     N 1841   6.288   9.021   3.424 -0.0348 -0.3239  0.7374
  755MOL0     N 1842   6.324   9.129   3.359 -0.4279  0.0346 -0.0624
  755MOL0     C 1843   7.630   9.445   3.475  0.7497 -0.2047  0.4727
  755MOL0     C 1844   7.769   9.455   3.487 -0.0657  0.2668 -0.6719
  755MOL0     C 1845   8.120   9.262   3.666  0.2080 -0.1796  0.0871
  755MOL0     C 1846   8.154   9.290   3.803  0.5287  0.0753 -0.1629
  755MOL0     C 1847   8.267   9.249   3.863 -0.0424 -0.5127  0.2717
  755MOL0     C 1848   8.358   9.175   3.780  0.1879 -0.4405  0.1147
  755MOL0     O 1849   8.486   9.150   3.834  0.0283  0.2298  0.4842
  755MOL0     C 1850   8.598   9.161   3.742  0.9976 -0.6045 -0.6204
  755MOL0     C 1851   8.726   9.192   3.825  0.2157 -1.1612 -0.2559
  755MOL0     C 1852   8.704   9.286   3.949 -0.0332 -0.2327 -1.2410
  755MOL0     C 1853   8.827   9.272   4.039 -0.5297  0.3659 -0.6385
  755MOL0     C 1854   8.818   9.314   4.181 -0.4417 -0.2434 -0.2970
  755MOL0     C 1855   8.819   9.326   4.297  0.1341  0.5384  0.1773
  755MOL0     C 1856   8.325   9.156   3.646  0.2523 -0.1842  0.2036
  755MOL0     C 1857   8.213   9.197   3.582  0.1579  0.8635 -0.2910
  755MOL0     H 1858   7.847   9.170   3.329 -1.6884  0.4140 -1.5298
  755MOL0     H 1859   7.591   9.166   3.290 -4.4787  2.2739 -0.7684
  755MOL0     H 1860   7.362   9.409   3.560  0.0813  2.4012 -0.0277
  755MOL0     H 1861   7.320   9.513   3.425  1.3223  0.6320  2.9711
  755MOL0     H 1862   7.235   9.225   3.475 -1.4787  0.6782  2.4870
  755MOL0     H 1863   7.137   9.357   3.530  1.6347 -2.6505  3.1021
  755MOL0     H 1864   7.082   9.448   3.313 -2.1405 -0.2229  0.2097
  755MOL0     H 1865   7.191   9.348   3.229 -0.4014 -0.0210 -0.6698
  755MOL0     H 1866   7.008   9.214   3.191 -2.1382  0.1493 -0.6993
  755MOL0     H 1867   7.023   9.166   3.363  1.1640 -0.6671 -1.0921
  755MOL0     H 1868   6.866   9.380   3.406 -2.0763  0.1489 -0.3404
  755MOL0     H 1869   6.875   9.394   3.227 -2.6746 -0.5323  0.3632
  755MOL0     H 1870   6.781   9.171   3.206  1.5396 -1.5904  2.0043
  755MOL0     H 1871   6.774   9.153   3.387 -0.5089 -1.2727  0.2704
  755MOL0     H 1872   6.598   9.301   3.403  0.3750 -0.7450  0.1081
  755MOL0     H 1873   6.630   9.380   3.249 -0.4702 -0.1482  1.0055
  755MOL0     H 1874   6.593   9.122   3.168  3.7691  2.0018  0.6443
  755MOL0     H 1875   6.457   9.235   3.168 -1.6025 -1.8090  2.4167
  755MOL0     H 1876   6.600   8.942   3.387  0.6919  0.6135 -2.5016
  755MOL0     H 1877   6.455   8.817   3.618  0.8979 -0.7298 -0.0626
  755MOL0     H 1878   6.291   8.801   3.555 -1.0905  1.5832 -1.1837
  755MOL0     H 1879   6.433   8.596   3.494  0.4376  1.1835  0.2670
  755MOL0     H 1880   6.545   8.705   3.415 -0.5754  0.6270 -2.0402
  755MOL0     H 1881   6.390   8.759   3.231 -1.8609  0.3923 -0.3687
  755MOL0     H 1882   6.250   8.690   3.319  0.1106  1.7318  2.1711
  755MOL0     H 1883   6.343   8.471   3.298 -1.7523  0.3598 -0.3079
  755MOL0     H 1884   6.497   8.523   3.226 -0.8167  0.1804  1.4843
  755MOL0     H 1885   6.279   8.297   3.195 -0.3445 -0.3668  0.8431
  755MOL0     H 1886   5.983   8.100   3.186  0.7137 -3.3569 -1.1583
  755MOL0     H 1887   6.089   8.054   3.059 -1.2383  1.7199 -1.6751
  755MOL0     H 1888   6.146   8.099   3.225 -0.1245 -1.8466  0.4495
  755MOL0     H 1889   5.708   8.158   2.699 -1.5658 -0.7904 -0.4868
  755MOL0     H 1890   5.479   8.091   2.663 -0.3155  0.7340 -0.3787
  755MOL0     H 1891   5.175   8.179   2.953  2.6101 -0.9281 -1.4029
  755MOL0     H 1892   5.164   8.327   2.848 -1.1318  0.4824  2.6339
  755MOL0     H 1893   5.016   8.058   2.818  0.6913 -0.5281  2.1529
  755MOL0     H 1894   4.945   8.216   2.870  1.9919  1.0418  0.7801
  755MOL0     H 1895   5.031   8.309   2.649 -2.1820  0.8548 -3.3195
  755MOL0     H 1896   4.885   8.214   2.653  0.3116 -2.5725  0.6040
  755MOL0     H 1897   5.149   8.117   2.557 -0.4575  0.5396  1.3280
  755MOL0     H 1898   5.008   8.007   2.596  1.1488 -1.0208  0.2573
  755MOL0     H 1899   5.050   8.046   2.357 -1.6684 -0.5105 -1.4958
  755MOL0     H 1900   5.033   8.220   2.380  1.1728 -0.9161  0.4671
  755MOL0     H 1901   4.830   8.006   2.435 -0.9219  0.8531  0.4418
  755MOL0     H 1902   4.788   8.179   2.444  0.3517 -0.4230  2.6131
  755MOL0     H 1903   4.883   8.046   2.193  0.6621 -0.5916  0.9117
  755MOL0     H 1904   4.849   8.218   2.212  1.2656 -1.2807 -1.8964
  755MOL0     H 1905   4.610   8.181   2.241  0.9936  0.4129  1.3347
  755MOL0     H 1906   4.622   8.008   2.277  2.2228 -1.0632 -0.1075
  755MOL0     H 1907   5.343   8.315   2.987 -2.3625 -0.1815 -2.4451
  755MOL0     H 1908   5.594   8.404   3.007  2.6834 -2.5550  1.6356
  755MOL0     H 1909   5.987   8.462   2.825 -0.6340 -0.6607  0.6852
  755MOL0     H 1910   6.178   8.598   2.903 -0.4492  0.4435 -1.1543
  755MOL0     H 1911   7.575   9.526   3.523 -0.7205  0.7464 -2.5583
  755MOL0     H 1912   7.809   9.535   3.548 -0.1868 -1.6773  2.1586
  755MOL0     H 1913   8.087   9.344   3.869 -2.9170 -0.6838 -2.7483
  755MOL0     H 1914   8.288   9.278   3.965  1.0659 -0.5307  0.0606
  755MOL0     H 1915   8.620   9.072   3.682  3.2433  1.4850 -3.1165
  755MOL0     H 1916   8.579   9.239   3.669  1.1640 -1.5706 -1.7296
  755MOL0     H 1917   8.797   9.245   3.760  1.8502 -0.5629  1.9202
  755MOL0     H 1918   8.774   9.098   3.852  0.2848 -1.2223 -0.5829
  755MOL0     H 1919   8.618   9.249   4.006 -0.6755  2.0216 -0.6577
  755MOL0     H 1920   8.691   9.390   3.921 -2.1171  0.2285  1.1058
  755MOL0     H 1921   8.907   9.323   3.984 -0.0619 -0.4860 -0.7643
  755MOL0     H 1922   8.859   9.168   4.039 -0.1238  0.4517  1.1012
  755MOL0     H 1923   8.827   9.329   4.404  1.0724 -0.2759  0.1488
  755MOL0     H 1924   8.382   9.090   3.581  0.8157  0.3788  0.1170
  755MOL0     H 1925   8.194   9.160   3.482  1.2809  0.4893 -0.3789
  756MOL0     O 1926   7.915   3.183   7.014  0.1044  1.1930 -0.0454
  756MOL0     C 1927   7.953   3.076   6.958 -0.4071  0.7035 -0.8153
  756MOL0     O 1928   7.877   2.965   6.937 -0.0334  0.3274  0.7069
  756MOL0     C 1929   7.764   2.946   7.008 -0.6352  0.3216 -0.7608
  756MOL0     C 1930   7.744   2.994   7.146 -0.4558  0.1863 -0.3363
  756MOL0     C 1931   7.623   2.957   7.214  0.2346  0.4566  0.4713
  756MOL0     C 1932   7.513   2.896   7.144 -0.1968 -0.0083  0.3783
  756MOL0     O 1933   7.406   2.832   7.205 -0.4496 -0.5686 -0.0071
  756MOL0     C 1934   7.374   2.870   7.343  0.3939  0.4081  0.1186
  756MOL0     C 1935   7.247   2.807   7.382 -1.0374 -0.1898  0.5150
  756MOL0     C 1936   7.209   2.878   7.520  0.8943  0.0454 -0.2824
  756MOL0     C 1937   7.066   2.841   7.562  1.0441  0.5506  0.0007
  756MOL0     C 1938   7.020   2.892   7.697  0.2351  0.3016 -0.4801
  756MOL0     C 1939   6.975   3.044   7.687 -0.0689  0.6768 -0.5552
  756MOL0     C 1940   6.900   3.087   7.816  0.0663 -0.2466  0.1733
  756MOL0     C 1941   6.771   2.995   7.845 -0.0115 -0.0221  0.4253
  756MOL0     N 1942   6.668   3.055   7.930 -0.2211 -0.1523 -0.5730
  756MOL0     C 1943   6.609   3.176   7.904  0.1135 -0.1490 -0.5740
  756MOL0     C 1944   6.531   3.203   8.011  1.1369  0.5315  0.7641
  756MOL0     C 1945   6.482   3.334   8.044  0.3648 -0.5273 -0.2689
  756MOL0     C 1946   6.338   3.347   8.020  0.5387 -0.5416 -0.1337
  756MOL0     C 1947   6.305   3.484   8.080 -0.0063  0.5490  0.0608
  756MOL0     C 1948   6.153   3.500   8.094  0.2660 -0.9184  0.0264
  756MOL0     O 1949   6.110   3.525   7.952  0.0210 -0.2790 -0.7309
  756MOL0     C 1950   5.980   3.561   7.946  0.1169 -0.3998  0.9056
  756MOL0     C 1951   5.939   3.609   7.826 -0.6521  0.6205  0.2902
  756MOL0     C 1952   5.801   3.637   7.800 -0.0314 -0.4512  0.0984
  756MOL0     C 1953   5.776   3.706   7.669 -0.1431 -0.1949 -0.3220
  756MOL0     C 1954   5.706   3.613   7.908 -0.8560 -0.4554  0.8321
  756MOL0     C 1955   5.563   3.618   7.889  0.5375  0.9027  0.3418
  756MOL0     O 1956   5.480   3.619   8.004  0.0458 -0.0510  0.4434
  756MOL0     C 1957   5.348   3.566   7.992  0.2689  1.2414 -0.0154
  756MOL0     C 1958   5.254   3.618   7.902 -0.0057  0.9014  0.4730
  756MOL0     C 1959   5.133   3.553   7.896 -0.5139 -0.0527  0.7511
  756MOL0     C 1960   5.094   3.452   7.992  0.5284 -0.5632 -0.0375
  756MOL0     O 1961   4.974   3.383   8.009  0.7604  0.0436 -0.0457
  756MOL0     C 1962   4.859   3.416   7.925  0.1680  0.5878 -0.6691
  756MOL0     C 1963   4.750   3.311   7.965  0.8001  0.2681 -0.2913
  756MOL0     C 1964   4.610   3.354   7.922  0.4957 -0.4758  0.5801
  756MOL0     C 1965   4.492   3.284   8.002 -1.0701 -0.3399 -0.5459
  756MOL0     C 1966   4.352   3.324   7.955 -0.4338 -0.5783 -0.2616
  756MOL0     C 1967   4.319   3.316   7.803 -0.0618  0.1710 -0.1950
  756MOL0     C 1968   4.330   3.177   7.742 -0.5070 -0.5558 -0.3383
  756MOL0     C 1969   4.196   3.106   7.744  0.1565 -0.3028 -0.1253
  756MOL0    Cl 1970   4.063   3.209   7.675  0.6483  0.1627 -0.0792
  756MOL0     C 1971   5.186   3.414   8.091  0.7907 -0.2889 -0.3091
  756MOL0     C 1972   5.317   3.470   8.089 -0.1772 -0.3071 -0.2067
  756MOL0     O 1973   5.522   3.587   7.775  0.0765  0.5535  0.2580
  756MOL0     C 1974   5.753   3.568   8.034 -0.0390  0.0398  1.1850
  756MOL0     C 1975   5.888   3.543   8.049  0.2911 -0.8706 -0.0690
  756MOL0     N 1976   6.535   3.092   8.091  0.0146 -0.7243 -0.0957
  756MOL0     N 1977   6.623   3.009   8.049 -0.1924  0.1594 -0.3806
  756MOL0     C 1978   7.533   2.866   7.003 -0.4115  0.1322 -0.0841
  756MOL0     C 1979   7.658   2.891   6.947  0.0439  0.1326 -0.2115
  756MOL0     C 1980   8.087   3.073   6.908  0.1225  0.3967  0.2758
  756MOL0     C 1981   8.154   2.954   6.867 -0.6524 -0.2206  0.5076
  756MOL0     C 1982   8.282   2.952   6.808 -0.0279 -1.2673  0.3056
  756MOL0     C 1983   8.345   3.079   6.785 -0.2768 -0.3322  0.3256
  756MOL0     O 1984   8.467   3.095   6.717  0.3058 -0.9051  0.0889
  756MOL0     C 1985   8.537   2.970   6.679  0.4735  0.1259 -0.2142
  756MOL0     C 1986   8.481   2.911   6.547 -0.1892 -0.1155  0.0857
  756MOL0     C 1987   8.478   3.025   6.441  0.4974 -0.3762 -1.0889
  756MOL0     C 1988   8.338   3.077   6.415  0.0820  0.5128  0.1275
  756MOL0     C 1989   8.344   3.154   6.294 -0.2265 -0.0309 -0.5414
  756MOL0     C 1990   8.341   3.221   6.193 -0.1454 -0.4256 -0.2402
  756MOL0     C 1991   8.277   3.193   6.818  0.3184 -0.1911  0.1558
  756MOL0     C 1992   8.148   3.191   6.875 -0.6647  0.2854  0.0302
  756MOL0     H 1993   7.826   3.042   7.198 -1.4929  1.4423  0.1823
  756MOL0     H 1994   7.599   2.965   7.320 -1.0206 -0.7473  0.3056
  756MOL0     H 1995   7.451   2.831   7.411 -0.1454 -1.9558 -0.5320
  756MOL0     H 1996   7.359   2.979   7.342  0.5062  0.4188 -1.2144
  756MOL0     H 1997   7.174   2.833   7.305 -0.6767  3.3579  1.2128
  756MOL0     H 1998   7.261   2.698   7.385 -3.7821 -0.7342 -1.8125
  756MOL0     H 1999   7.281   2.841   7.594  1.9294  0.0276 -1.2693
  756MOL0     H 2000   7.221   2.987   7.513 -1.5346  0.3787  0.0925
  756MOL0     H 2001   6.991   2.872   7.489 -1.0786 -2.1465  0.8423
  756MOL0     H 2002   7.056   2.732   7.572  1.1805 -0.0090 -4.3565
  756MOL0     H 2003   6.940   2.830   7.739 -1.2985  3.3829  1.4987
  756MOL0     H 2004   7.102   2.881   7.768  0.2260  1.3189 -0.2896
  756MOL0     H 2005   7.065   3.103   7.670  0.3574 -0.7998 -4.5642
  756MOL0     H 2006   6.910   3.067   7.602 -0.6439 -2.1514 -0.9815
  756MOL0     H 2007   6.974   3.072   7.895  1.5759 -3.1154 -1.6372
  756MOL0     H 2008   6.866   3.191   7.807 -0.2350 -0.2405  1.2470
  756MOL0     H 2009   6.818   2.910   7.896  0.3189 -0.6360 -0.8461
  756MOL0     H 2010   6.720   2.961   7.754 -2.8885 -0.6335  2.1324
  756MOL0     H 2011   6.630   3.246   7.823  0.5687 -0.5700 -0.8208
  756MOL0     H 2012   6.498   3.350   8.151  0.0666 -0.2929 -0.2579
  756MOL0     H 2013   6.541   3.414   8.000  0.3756 -0.0707  0.5505
  756MOL0     H 2014   6.279   3.267   8.066 -0.6137 -0.1893 -0.9609
  756MOL0     H 2015   6.326   3.353   7.911 -2.4630  1.5803  0.1845
  756MOL0     H 2016   6.350   3.558   8.013  2.3045 -1.2484 -0.5290
  756MOL0     H 2017   6.354   3.507   8.175  0.3797 -0.0656  0.0188
  756MOL0     H 2018   6.130   3.588   8.155 -0.2781 -0.3208 -1.0136
  756MOL0     H 2019   6.101   3.414   8.136 -0.2245 -1.1157 -0.9709
  756MOL0     H 2020   6.022   3.632   7.761 -1.9360  1.1686 -1.2192
  756MOL0     H 2021   5.765   3.622   7.600  1.0658 -1.0833  0.5220
  756MOL0     H 2022   5.679   3.756   7.672 -0.1116 -0.1273 -0.4310
  756MOL0     H 2023   5.858   3.766   7.629 -0.1676 -0.4242 -0.7288
  756MOL0     H 2024   5.284   3.689   7.826 -1.6356 -0.8587 -1.9841
  756MOL0     H 2025   5.054   3.590   7.832  2.7894  1.9273 -2.5334
  756MOL0     H 2026   4.828   3.520   7.944  0.5921  0.4951  0.6404
  756MOL0     H 2027   4.884   3.407   7.819 -4.0699 -0.2396 -1.7536
  756MOL0     H 2028   4.771   3.214   7.918  3.0688  0.0727  0.9951
  756MOL0     H 2029   4.751   3.293   8.072  0.2565  1.5701 -0.0502
  756MOL0     H 2030   4.589   3.325   7.819  1.4433  0.7933  0.0118
  756MOL0     H 2031   4.595   3.462   7.930 -0.9881 -0.3743 -2.3986
  756MOL0     H 2032   4.500   3.175   7.996 -3.7266 -0.5887 -0.4275
  756MOL0     H 2033   4.513   3.319   8.103  3.4197 -2.2213 -0.5788
  756MOL0     H 2034   4.331   3.422   8.000 -2.7314 -2.0019  2.0990
  756MOL0     H 2035   4.271   3.266   8.000 -0.3867 -0.6564 -0.2775
  756MOL0     H 2036   4.218   3.353   7.784  0.0086 -0.3316 -1.6399
  756MOL0     H 2037   4.386   3.382   7.747  0.5049 -0.2410 -0.0130
  756MOL0     H 2038   4.406   3.120   7.797 -2.2981 -1.8443  0.8965
  756MOL0     H 2039   4.353   3.183   7.635  3.8290 -1.8762  0.3294
  756MOL0     H 2040   4.172   3.085   7.849  1.1559 -0.4182  0.0891
  756MOL0     H 2041   4.187   3.014   7.686 -1.6665 -2.0223  2.6428
  756MOL0     H 2042   5.139   3.361   8.173 -1.4533  2.8912  0.6736
  756MOL0     H 2043   5.388   3.438   8.165  2.4169  0.4650 -2.1317
  756MOL0     H 2044   5.685   3.547   8.116 -0.2373  0.1382  1.0476
  756MOL0     H 2045   5.911   3.493   8.142 -0.6329  1.2181  1.3660
  756MOL0     H 2046   7.453   2.822   6.945  0.1261  1.3094 -1.7986
  756MOL0     H 2047   7.679   2.873   6.842 -0.3090  0.8099 -0.4045
  756MOL0     H 2048   8.107   2.859   6.891  1.0598 -0.8793  1.4573
  756MOL0     H 2049   8.335   2.860   6.787  1.8070 -1.2178  3.8811
  756MOL0     H 2050   8.637   3.006   6.651  0.7525  0.1604  0.7884
  756MOL0     H 2051   8.544   2.887   6.750 -1.6239 -0.9366 -1.1541
  756MOL0     H 2052   8.387   2.857   6.559  1.4037 -2.9439  0.8622
  756MOL0     H 2053   8.552   2.832   6.520 -0.4885  0.2578 -1.9055
  756MOL0     H 2054   8.506   2.974   6.349 -0.4940 -0.5531 -1.3028
  756MOL0     H 2055   8.554   3.101   6.460 -0.3297  0.4937 -1.1738
  756MOL0     H 2056   8.299   3.134   6.500  2.1319  1.1140  0.7275
  756MOL0     H 2057   8.267   2.995   6.403 -1.7217  1.9402  0.7424
  756MOL0     H 2058   8.349   3.295   6.116 -1.5694  0.2186  0.2015
  756MOL0     H 2059   8.312   3.290   6.785  0.0363 -0.2551 -0.3374
  756MOL0     H 2060   8.100   3.288   6.877  0.3702  0.8017  0.4573
  757MOL0     O 2061   8.547   4.840   9.618 -0.3708  1.0999 -0.4634
  757MOL0     C 2062   8.525   4.771   9.519 -0.7144  0.5433  0.1526
  757MOL0     O 2063   8.555   4.810   9.390 -0.5206  0.4674 -0.1842
  757MOL0     C 2064   8.626   4.927   9.364 -0.3188 -0.6045  1.2608
  757MOL0     C 2065   8.763   4.917   9.361  0.9498 -1.1691 -0.6205
  757MOL0     C 2066   8.836   5.033   9.327  0.3528 -0.0504 -0.0199
  757MOL0     C 2067   8.769   5.157   9.302  0.7843  0.0589 -0.0859
  757MOL0     O 2068   8.828   5.264   9.238  0.0418  0.0358  0.6240
  757MOL0     C 2069   8.976   5.263   9.226  0.3264 -0.0051 -0.0830
  757MOL0     C 2070   9.008   5.401   9.164  0.0329  0.3723 -0.1669
  757MOL0     C 2071   8.963   5.512   9.259 -0.6436  0.1715 -0.0656
  757MOL0     C 2072   9.035   5.642   9.217  0.4161  0.3959 -0.3047
  757MOL0     C 2073   9.003   5.763   9.307 -1.0730 -0.1324  0.4435
  757MOL0     C 2074   9.096   5.886   9.279  0.6525  0.5553 -0.1120
  757MOL0     C 2075   9.052   6.011   9.355 -0.1434  0.0590 -0.3257
  757MOL0     C 2076   9.057   6.007   9.509  0.0611 -0.6730 -0.1488
  757MOL0     N 2077   9.193   5.973   9.545  0.3135  0.8324 -0.1567
  757MOL0     C 2078   9.240   5.841   9.554  0.3575 -0.4823  0.4025
  757MOL0     C 2079   9.376   5.847   9.551 -0.2628 -0.4454  1.1137
  757MOL0     C 2080   9.467   5.726   9.536  0.0368  0.1583  0.2016
  757MOL0     C 2081   9.459   5.659   9.399 -0.9598  0.2762 -0.3469
  757MOL0     C 2082   9.548   5.530   9.402  0.1537  0.7745  0.2220
  757MOL0     C 2083   9.478   5.401   9.458 -0.2018 -0.7307 -0.0515
  757MOL0     O 2084   9.377   5.372   9.360  0.4446  0.7033 -0.2118
  757MOL0     C 2085   9.319   5.242   9.377  0.2838  0.4189  0.6845
  757MOL0     C 2086   9.284   5.199   9.504 -0.4598 -0.1737 -0.3794
  757MOL0     C 2087   9.228   5.070   9.518 -0.5244  0.6330  0.6340
  757MOL0     C 2088   9.198   5.042   9.662  0.9333  0.3117 -0.2432
  757MOL0     C 2089   9.198   4.987   9.404 -0.4326 -0.5519  0.1577
  757MOL0     C 2090   9.131   4.858   9.417 -0.5876 -0.5741 -0.7926
  757MOL0     O 2091   9.156   4.787   9.539 -0.1077  0.1907  0.2717
  757MOL0     C 2092   9.074   4.684   9.568 -0.4484 -0.4347 -0.4100
  757MOL0     C 2093   9.115   4.560   9.547 -0.3483  1.1437 -0.7845
  757MOL0     C 2094   9.041   4.450   9.581 -0.0375 -0.3679 -0.0358
  757MOL0     C 2095   8.907   4.473   9.632 -0.2629 -0.3086  0.7405
  757MOL0     O 2096   8.832   4.374   9.675 -0.3812  0.3166 -0.5339
  757MOL0     C 2097   8.721   4.400   9.758 -0.0422 -0.0452 -0.5730
  757MOL0     C 2098   8.704   4.275   9.848  0.5029 -0.3124 -0.0778
  757MOL0     C 2099   8.565   4.260   9.910 -0.6966  0.5905  0.2895
  757MOL0     C 2100   8.543   4.337  10.042 -0.3396 -0.1934  0.2383
  757MOL0     C 2101   8.387   4.313  10.081  0.1942 -0.1854  0.1116
  757MOL0     C 2102   8.342   4.377  10.217  0.2334  0.1979 -1.1577
  757MOL0     C 2103   8.197   4.399  10.224 -0.2202 -0.2126  0.1366
  757MOL0     C 2104   8.161   4.459  10.354  0.2564  0.4469 -0.3867
  757MOL0    Cl 2105   8.228   4.619  10.375 -0.4578  0.3310  0.3551
  757MOL0     C 2106   8.855   4.602   9.629 -0.7121 -1.3535  0.3036
  757MOL0     C 2107   8.939   4.712   9.600  0.0633 -0.2069 -0.2632
  757MOL0     O 2108   9.059   4.818   9.332 -0.3976 -0.5000  1.1516
  757MOL0     C 2109   9.223   5.038   9.279 -0.2051  1.3010 -0.0550
  757MOL0     C 2110   9.288   5.158   9.269  0.1616  0.5015  0.8821
  757MOL0     N 2111   9.411   5.982   9.534  0.2054  0.5401 -0.1920
  757MOL0     N 2112   9.305   6.055   9.542 -0.0149 -0.0856 -0.0506
  757MOL0     C 2113   8.638   5.167   9.338 -0.2138  0.1752  0.7587
  757MOL0     C 2114   8.567   5.048   9.359 -0.2924 -0.5857 -0.7632
  757MOL0     C 2115   8.451   4.640   9.524 -0.3613  0.0220  0.6440
  757MOL0     C 2116   8.366   4.609   9.637 -0.6073 -0.6891  0.8986
  757MOL0     C 2117   8.292   4.484   9.645  0.0238 -0.3382 -0.0199
  757MOL0     C 2118   8.300   4.401   9.533  0.5233  0.3166 -0.8060
  757MOL0     O 2119   8.221   4.295   9.498  0.7571  0.2411 -0.0934
  757MOL0     C 2120   8.140   4.234   9.600  0.1340  0.0542  0.2479
  757MOL0     C 2121   7.998   4.299   9.627  0.1210 -0.0793  0.7461
  757MOL0     C 2122   7.970   4.329   9.773  0.3002  0.3198 -0.3925
  757MOL0     C 2123   7.982   4.201   9.861  0.2794 -0.6726  0.4707
  757MOL0     C 2124   7.937   4.234  10.000  0.5237 -1.4758 -0.2853
  757MOL0     C 2125   7.892   4.265  10.111  0.6210  0.8437  0.0938
  757MOL0     C 2126   8.381   4.438   9.422  0.4593 -0.3715  0.0332
  757MOL0     C 2127   8.466   4.545   9.419  0.0999  0.0806 -0.4192
  757MOL0     H 2128   8.824   4.835   9.398  2.8698  1.6236  3.1311
  757MOL0     H 2129   8.942   5.021   9.308  0.8635  0.9868  1.8293
  757MOL0     H 2130   9.035   5.241   9.316  4.1885 -1.0983 -2.6356
  757MOL0     H 2131   9.001   5.189   9.150 -0.6354 -1.9362  1.3869
  757MOL0     H 2132   9.114   5.407   9.141  0.2251 -0.2412  0.5237
  757MOL0     H 2133   8.945   5.401   9.074 -0.8677  0.9786  0.4418
  757MOL0     H 2134   8.854   5.522   9.253 -0.3807  3.2368 -1.7498
  757MOL0     H 2135   8.985   5.475   9.360 -1.9525  3.8108  1.7469
  757MOL0     H 2136   9.142   5.620   9.219  0.4549  0.6290  0.2040
  757MOL0     H 2137   9.011   5.656   9.111  0.3333  0.1125 -0.3259
  757MOL0     H 2138   8.897   5.791   9.304 -0.2730  3.6536  2.0351
  757MOL0     H 2139   9.023   5.735   9.411 -0.1770 -0.3338  0.2185
  757MOL0     H 2140   9.196   5.853   9.309  1.4016  1.3374 -1.6420
  757MOL0     H 2141   9.101   5.918   9.175  1.5339  0.8348  0.0134
  757MOL0     H 2142   9.105   6.095   9.309 -1.6372  0.4465 -1.4007
  757MOL0     H 2143   8.947   6.035   9.335 -0.4031  0.1025  1.0279
  757MOL0     H 2144   8.976   5.949   9.555 -0.9991  1.8598  1.4011
  757MOL0     H 2145   9.039   6.110   9.542 -0.0536  0.0044 -2.1570
  757MOL0     H 2146   9.183   5.749   9.549 -0.0553 -0.1617 -3.1809
  757MOL0     H 2147   9.570   5.753   9.559  0.1317 -1.3896  1.8408
  757MOL0     H 2148   9.450   5.656   9.618 -1.2835  0.9748  0.6451
  757MOL0     H 2149   9.503   5.734   9.333 -0.0948  1.4556  1.4886
  757MOL0     H 2150   9.357   5.637   9.365 -0.6030 -1.3402 -0.4515
  757MOL0     H 2151   9.638   5.556   9.457  1.4880 -0.6419 -1.1973
  757MOL0     H 2152   9.587   5.515   9.301  1.5516 -3.1432  1.1820
  757MOL0     H 2153   9.445   5.414   9.561  1.9658  2.7454  0.3887
  757MOL0     H 2154   9.543   5.314   9.457 -1.0694 -1.3954  0.1455
  757MOL0     H 2155   9.306   5.257   9.593  1.6697 -1.3832 -0.0556
  757MOL0     H 2156   9.261   5.103   9.726  1.2498  0.1176 -0.3643
  757MOL0     H 2157   9.093   5.052   9.691  1.0856  2.0938 -0.2167
  757MOL0     H 2158   9.235   4.941   9.685  2.6958  0.9459 -0.1808
  757MOL0     H 2159   9.217   4.536   9.518 -0.8888 -0.3196 -1.5717
  757MOL0     H 2160   9.074   4.348   9.564  1.8007 -0.1812  2.0346
  757MOL0     H 2161   8.737   4.488   9.822  2.2637 -1.0571  0.3916
  757MOL0     H 2162   8.638   4.406   9.688 -1.6414  0.4314  1.2729
  757MOL0     H 2163   8.714   4.195   9.775 -1.1203  0.1035 -0.8072
  757MOL0     H 2164   8.780   4.278   9.927 -0.9169  0.9991  1.3366
  757MOL0     H 2165   8.553   4.154   9.934  2.3845  0.1693  0.4103
  757MOL0     H 2166   8.488   4.285   9.837 -0.3168  1.0399  0.0372
  757MOL0     H 2167   8.601   4.289  10.121  1.2576  0.1203 -0.6801
  757MOL0     H 2168   8.575   4.442  10.037  0.2208 -0.4006 -1.0337
  757MOL0     H 2169   8.365   4.206  10.082  2.1296 -0.6230  1.4010
  757MOL0     H 2170   8.322   4.361  10.007  2.0363  1.4402 -0.5304
  757MOL0     H 2171   8.385   4.329  10.305 -0.0805  0.7449 -0.6977
  757MOL0     H 2172   8.396   4.472  10.221 -1.0940  0.9557 -0.2284
  757MOL0     H 2173   8.137   4.308  10.212 -1.5925  0.6311  0.3408
  757MOL0     H 2174   8.164   4.454  10.135 -0.4362 -0.2704  0.1787
  757MOL0     H 2175   8.191   4.402  10.442 -1.1310  0.3893  0.0749
  757MOL0     H 2176   8.052   4.467  10.358  0.2038 -0.5331  0.7568
  757MOL0     H 2177   8.750   4.621   9.646 -0.1335  2.5484  0.3705
  757MOL0     H 2178   8.893   4.810   9.598  0.5547  0.0252 -2.0419
  757MOL0     H 2179   9.193   4.982   9.191 -3.6285 -0.0206  1.7445
  757MOL0     H 2180   9.325   5.195   9.174  1.6591  0.9506  1.6054
  757MOL0     H 2181   8.580   5.258   9.345 -1.4629 -0.4578 -0.7342
  757MOL0     H 2182   8.459   5.044   9.375 -0.0611 -2.7672  0.7867
  757MOL0     H 2183   8.355   4.679   9.719  1.4971 -1.1927  1.6738
  757MOL0     H 2184   8.223   4.468   9.726 -2.7855  1.4430 -1.8756
  757MOL0     H 2185   8.126   4.126   9.589 -1.1497  0.0547  1.5472
  757MOL0     H 2186   8.196   4.236   9.695 -2.0574  0.1510  1.6021
  757MOL0     H 2187   7.914   4.250   9.578  2.1345 -0.7660 -2.3390
  757MOL0     H 2188   7.999   4.400   9.586 -1.3480 -0.1148  0.5861
  757MOL0     H 2189   7.868   4.365   9.783  0.4082  1.9821 -4.0177
  757MOL0     H 2190   8.044   4.398   9.815  0.2273  0.3844 -0.3693
  757MOL0     H 2191   8.080   4.154   9.869  0.1380 -0.7149  2.2978
  757MOL0     H 2192   7.915   4.131   9.811  0.3681  0.8631 -1.9712
  757MOL0     H 2193   7.842   4.293  10.201 -0.3393  1.6278 -0.6669
  757MOL0     H 2194   8.374   4.380   9.331  3.8745 -0.2347 -0.4407
  757MOL0     H 2195   8.521   4.558   9.326 -1.9162  2.4346 -1.3906
  758MOL0     O 2196   6.763  11.044   5.477 -0.1836 -0.4508 -0.2191
  758MOL0     C 2197   6.808  11.095   5.372  0.2159 -1.0421  0.2333
  758MOL0     O 2198   6.860  11.034   5.264  0.2646 -0.1314 -0.8501
  758MOL0     C 2199   6.872  10.898   5.258  0.1132  0.2324  1.1006
  758MOL0     C 2200   6.853  10.791   5.353  0.2183 -0.1154 -0.7575
  758MOL0     C 2201   6.861  10.659   5.316 -0.3906  0.4915  0.1626
  758MOL0     C 2202   6.884  10.618   5.186  0.9358 -0.4909  0.2079
  758MOL0     O 2203   6.873  10.488   5.151 -0.4622 -0.2453 -0.7122
  758MOL0     C 2204   6.999  10.424   5.148  0.5755  0.7181  0.4831
  758MOL0     C 2205   6.983  10.288   5.220 -0.5203  0.7053  0.7372
  758MOL0     C 2206   6.937  10.288   5.366  0.1710 -0.0148 -0.2776
  758MOL0     C 2207   6.884  10.148   5.409 -0.0998  0.2926 -0.2863
  758MOL0     C 2208   6.841  10.161   5.561  0.6011 -0.1374  0.6354
  758MOL0     C 2209   6.846  10.028   5.625  0.3309 -0.3356  0.3016
  758MOL0     C 2210   6.808  10.035   5.778 -0.0246 -0.5711  0.5079
  758MOL0     C 2211   6.875   9.925   5.866 -0.5721 -0.3808 -1.1333
  758MOL0     N 2212   6.844   9.793   5.827  0.3553  0.3087  0.2227
  758MOL0     C 2213   6.904   9.733   5.713  0.4673 -0.9797 -0.4791
  758MOL0     C 2214   6.850   9.607   5.717  0.1145  0.3543 -0.6960
  758MOL0     C 2215   6.887   9.497   5.629  0.4534 -0.8383  0.0132
  758MOL0     C 2216   6.779   9.460   5.537 -0.0508  0.7416 -0.2142
  758MOL0     C 2217   6.816   9.322   5.465 -0.2650  0.4943  0.3116
  758MOL0     C 2218   6.707   9.261   5.380  0.6412 -0.3952  0.4484
  758MOL0     O 2219   6.686   9.352   5.264  0.2554  0.8186 -0.4687
  758MOL0     C 2220   6.595   9.299   5.170 -0.1340  0.5767  0.6606
  758MOL0     C 2221   6.604   9.350   5.035  1.1470 -0.5447 -0.8780
  758MOL0     C 2222   6.512   9.304   4.932  0.1031 -0.9065 -1.0867
  758MOL0     C 2223   6.528   9.383   4.806  0.1894  0.1066 -0.4810
  758MOL0     C 2224   6.407   9.215   4.963 -1.2254 -0.5794  0.0268
  758MOL0     C 2225   6.283   9.185   4.886 -0.5033 -0.1998 -0.0889
  758MOL0     O 2226   6.260   9.263   4.781  0.1265  0.2759 -0.6755
  758MOL0     C 2227   6.137   9.255   4.718 -0.4003  0.5404  0.7764
  758MOL0     C 2228   6.045   9.355   4.732  0.7221  0.8568 -0.0832
  758MOL0     C 2229   5.926   9.355   4.660 -0.1915  0.2348 -0.2186
  758MOL0     C 2230   5.887   9.243   4.590 -0.1679  0.4209  0.5025
  758MOL0     O 2231   5.758   9.243   4.533  0.4766 -0.5514  0.9329
  758MOL0     C 2232   5.698   9.126   4.472  0.2489 -0.4384 -0.1426
  758MOL0     C 2233   5.547   9.137   4.450 -0.1325  0.1794 -0.3725
  758MOL0     C 2234   5.499   9.220   4.340 -0.2482  0.1594 -0.0954
  758MOL0     C 2235   5.348   9.244   4.344 -1.0580 -0.3766  0.7188
  758MOL0     C 2236   5.309   9.322   4.219  0.0782 -1.0729  0.3708
  758MOL0     C 2237   5.160   9.367   4.229 -0.2882 -0.0284 -0.1308
  758MOL0     C 2238   5.114   9.448   4.116  0.6811 -0.5962 -0.4248
  758MOL0     C 2239   4.981   9.515   4.137  1.0612  0.1574  0.7826
  758MOL0    Cl 2240   4.854   9.420   4.219  0.5816 -0.4275 -0.0010
  758MOL0     C 2241   5.979   9.135   4.572  0.2496 -1.0823  0.6176
  758MOL0     C 2242   6.104   9.147   4.628  0.0778  0.0466 -0.1115
  758MOL0     O 2243   6.216   9.093   4.915 -0.9756  0.1307  0.3074
  758MOL0     C 2244   6.417   9.152   5.092  0.1708  0.0884  0.9890
  758MOL0     C 2245   6.500   9.200   5.185  0.1718 -0.6194 -0.5665
  758MOL0     N 2246   6.762   9.584   5.825 -0.4401 -0.0910 -0.5486
  758MOL0     N 2247   6.762   9.702   5.889  0.5977  0.0837  0.0607
  758MOL0     C 2248   6.893  10.721   5.088 -0.6180 -0.6586  0.6045
  758MOL0     C 2249   6.894  10.861   5.122 -0.3067  0.2033  0.0575
  758MOL0     C 2250   6.832  11.242   5.376 -1.1605  0.2363 -0.6141
  758MOL0     C 2251   6.754  11.322   5.452 -0.1291  0.1614 -0.7626
  758MOL0     C 2252   6.775  11.458   5.462  0.3699 -0.3579  0.4871
  758MOL0     C 2253   6.880  11.521   5.398 -0.5567 -0.5746 -0.4321
  758MOL0     O 2254   6.884  11.660   5.400 -1.0331  0.3992 -0.0201
  758MOL0     C 2255   7.007  11.739   5.380  0.4127  0.4152 -1.0209
  758MOL0     C 2256   7.090  11.729   5.513 -0.3244 -0.5830  0.2206
  758MOL0     C 2257   7.225  11.789   5.483  0.3373  0.0874  0.8545
  758MOL0     C 2258   7.305  11.816   5.610  0.5392 -1.0725 -0.4257
  758MOL0     C 2259   7.447  11.804   5.576 -0.0844 -0.1311  0.8370
  758MOL0     C 2260   7.563  11.797   5.547  0.1829 -0.0018 -0.1013
  758MOL0     C 2261   6.965  11.443   5.318 -0.0698 -0.1868  0.4902
  758MOL0     C 2262   6.939  11.302   5.312  0.3269 -0.1091 -0.7515
  758MOL0     H 2263   6.837  10.808   5.459  1.4013 -0.6712 -0.4781
  758MOL0     H 2264   6.845  10.587   5.395 -0.2762  0.5607  0.2496
  758MOL0     H 2265   7.021  10.412   5.042  0.1106  0.3044  0.4318
  758MOL0     H 2266   7.079  10.484   5.194  0.3546  0.9952  0.5069
  758MOL0     H 2267   6.911  10.229   5.163 -1.1014 -0.1995  2.3671
  758MOL0     H 2268   7.082  10.242   5.210 -0.2882  1.1897  0.7723
  758MOL0     H 2269   7.026  10.319   5.422  1.3791  0.7384 -2.4892
  758MOL0     H 2270   6.862  10.363   5.392  1.3368  0.2557  2.7719
  758MOL0     H 2271   6.799  10.115   5.348  0.3819 -0.1045 -0.7546
  758MOL0     H 2272   6.965  10.075   5.403 -0.4262 -0.1449  0.3924
  758MOL0     H 2273   6.902  10.237   5.612 -0.7900  0.0305  2.1514
  758MOL0     H 2274   6.741  10.206   5.571  0.9262  0.0864  4.2099
  758MOL0     H 2275   6.777   9.964   5.569 -0.5218  0.5500  0.3123
  758MOL0     H 2276   6.952  10.004   5.626  0.5118  0.2956 -1.3744
  758MOL0     H 2277   6.842  10.133   5.811  1.2226 -0.1102 -1.8976
  758MOL0     H 2278   6.699  10.039   5.784 -0.2446  0.3346 -2.4788
  758MOL0     H 2279   6.835   9.932   5.968  2.4366 -1.2922  0.2177
  758MOL0     H 2280   6.982   9.945   5.870 -0.3215 -1.7857  0.8271
  758MOL0     H 2281   6.989   9.770   5.657  0.0516 -2.6141 -2.3320
  758MOL0     H 2282   6.971   9.535   5.571 -2.5373  0.0719 -4.1974
  758MOL0     H 2283   6.908   9.413   5.697 -0.6859  0.9994  2.8140
  758MOL0     H 2284   6.760   9.538   5.463  0.1709  1.7397  0.7553
  758MOL0     H 2285   6.683   9.463   5.589  0.3565 -0.0929  0.6065
  758MOL0     H 2286   6.835   9.252   5.547  0.0151  0.7614  0.4771
  758MOL0     H 2287   6.903   9.337   5.400  2.0918 -1.5252  2.7433
  758MOL0     H 2288   6.619   9.256   5.444  0.9471  0.7034  0.9794
  758MOL0     H 2289   6.738   9.162   5.346  0.7912  0.0764 -0.8512
  758MOL0     H 2290   6.675   9.428   5.008 -0.1398  0.4934 -1.3546
  758MOL0     H 2291   6.454   9.464   4.802  0.0043 -0.1051 -1.6555
  758MOL0     H 2292   6.626   9.431   4.810  0.3384 -0.2286 -0.0129
  758MOL0     H 2293   6.520   9.322   4.715 -2.8364 -2.6637  1.3986
  758MOL0     H 2294   6.065   9.441   4.795 -0.2348  0.8460  0.2601
  758MOL0     H 2295   5.859   9.439   4.671  2.1445  2.3446 -1.1801
  758MOL0     H 2296   5.748   9.106   4.376  2.8129 -0.3015  1.0904
  758MOL0     H 2297   5.728   9.049   4.543  1.3214 -0.2860 -0.4111
  758MOL0     H 2298   5.500   9.038   4.443 -0.3727  0.3306 -0.9564
  758MOL0     H 2299   5.499   9.185   4.535 -2.3185 -2.7900  0.2571
  758MOL0     H 2300   5.527   9.182   4.241 -0.0894 -0.3903  0.1607
  758MOL0     H 2301   5.554   9.314   4.349 -0.0275 -0.1004  1.6305
  758MOL0     H 2302   5.299   9.147   4.336 -3.2117  0.7889 -2.9629
  758MOL0     H 2303   5.313   9.286   4.438  1.0362  2.5691  0.3087
  758MOL0     H 2304   5.327   9.270   4.124  0.0443 -0.3445 -0.0416
  758MOL0     H 2305   5.360   9.419   4.227 -2.1783  0.0260  2.4695
  758MOL0     H 2306   5.088   9.284   4.234 -2.9790  1.9303 -2.6492
  758MOL0     H 2307   5.139   9.417   4.324  1.3424 -3.6874  2.4001
  758MOL0     H 2308   5.085   9.389   4.028 -2.1579  1.0883 -0.7372
  758MOL0     H 2309   5.184   9.529   4.095 -0.4260  0.2139 -1.1482
  758MOL0     H 2310   4.935   9.545   4.042  0.4402 -1.7198  0.4524
  758MOL0     H 2311   4.996   9.607   4.195  2.2736  0.4427  0.0413
  758MOL0     H 2312   5.956   9.048   4.511 -1.2361 -1.1626  1.2415
  758MOL0     H 2313   6.177   9.068   4.618 -0.0492  0.1992 -2.7291
  758MOL0     H 2314   6.348   9.072   5.116 -2.0127  1.3321 -0.7718
  758MOL0     H 2315   6.478   9.154   5.281  0.1561  1.1969  0.3350
  758MOL0     H 2316   6.913  10.715   4.982 -4.2910  1.5072 -0.3731
  758MOL0     H 2317   6.903  10.940   5.048 -0.1077  1.6588  1.5689
  758MOL0     H 2318   6.672  11.280   5.510 -0.6454  2.9562  0.6854
  758MOL0     H 2319   6.703  11.524   5.510 -0.0386 -0.2223 -0.3028
  758MOL0     H 2320   7.059  11.712   5.288  0.4400 -0.0217 -0.8801
  758MOL0     H 2321   6.971  11.842   5.374 -0.0413  0.3983  0.8776
  758MOL0     H 2322   7.104  11.624   5.540  1.5177 -0.7071 -1.0055
  758MOL0     H 2323   7.041  11.776   5.599 -1.3988  0.9741 -1.1608
  758MOL0     H 2324   7.200  11.876   5.421  0.1518  0.1019  0.9499
  758MOL0     H 2325   7.270  11.717   5.414  1.6473  2.4837 -0.9645
  758MOL0     H 2326   7.282  11.754   5.697  0.7326  0.7163  0.9762
  758MOL0     H 2327   7.283  11.920   5.639 -0.4169 -0.9385 -1.5749
  758MOL0     H 2328   7.669  11.807   5.541  0.1398  0.5121 -0.1122
  758MOL0     H 2329   7.046  11.484   5.258  1.2438 -0.2961  2.1155
  758MOL0     H 2330   7.001  11.243   5.244 -0.4546  0.2200 -1.7690
  759MOL0     O 2331   1.960   4.133  10.088 -0.2541  0.1041  0.4740
  759MOL0     C 2332   2.061   4.081  10.123 -0.2184  1.4355  0.1006
  759MOL0     O 2333   2.083   4.032  10.245 -0.4107 -0.8541  0.3660
  759MOL0     C 2334   1.992   4.037  10.349 -0.5364 -0.2235 -0.4955
  759MOL0     C 2335   1.992   3.933  10.447  0.7942  0.4269  0.0686
  759MOL0     C 2336   1.901   3.940  10.560 -0.4110 -0.4342 -0.2165
  759MOL0     C 2337   1.807   4.047  10.574  0.2514 -0.4088 -0.2915
  759MOL0     O 2338   1.719   4.052  10.676 -0.3521  0.2893 -0.6870
  759MOL0     C 2339   1.580   4.079  10.636  1.2669  0.0065 -0.4670
  759MOL0     C 2340   1.486   3.950  10.666  0.1262 -0.9619 -1.0217
  759MOL0     C 2341   1.347   3.997  10.632 -0.3454 -0.4016 -0.0211
  759MOL0     C 2342   1.258   3.889  10.691 -0.0266 -0.0175  0.1194
  759MOL0     C 2343   1.109   3.912  10.652 -0.8207  0.0707 -0.2350
  759MOL0     C 2344   1.077   3.886  10.510  0.2879 -0.6592  0.1936
  759MOL0     C 2345   0.930   3.928  10.482 -0.3562  0.8600 -0.0571
  759MOL0     C 2346   0.917   4.077  10.450  0.8757 -0.2551  1.2315
  759MOL0     N 2347   0.790   4.111  10.379 -0.1204 -0.1364 -0.4633
  759MOL0     C 2348   0.763   4.146  10.249 -0.6697 -0.1660  0.5216
  759MOL0     C 2349   0.633   4.170  10.240 -0.4827 -0.1847  0.7114
  759MOL0     C 2350   0.562   4.199  10.110 -0.3516  0.0021  0.1175
  759MOL0     C 2351   0.453   4.100  10.079  0.8155 -0.4634 -0.6365
  759MOL0     C 2352   0.504   3.954  10.075  0.1313  0.9027 -0.2237
  759MOL0     C 2353   0.400   3.856  10.009 -0.1923 -0.6167  0.2486
  759MOL0     O 2354   0.373   3.876   9.865 -0.2270  0.3946  0.2207
  759MOL0     C 2355   0.243   3.929   9.835 -0.1629 -1.1475  0.0911
  759MOL0     C 2356   0.123   3.887   9.883 -0.2010 -0.4134 -0.4951
  759MOL0     C 2357   0.008   3.957   9.850  0.9054 -0.5180  0.0953
  759MOL0     C 2358  -0.121   3.894   9.892  0.0341 -0.7712  0.3713
  759MOL0     C 2359   0.008   4.072   9.768  0.7183 -0.2671 -0.4996
  759MOL0     C 2360  -0.122   4.133   9.717 -0.5612  0.2016 -0.0142
  759MOL0     O 2361  -0.201   4.053   9.645  0.5305 -0.3827  1.3309
  759MOL0     C 2362  -0.330   4.104   9.619 -0.2560  0.5906 -1.1042
  759MOL0     C 2363  -0.358   4.212   9.538  0.6691  0.1884  0.2239
  759MOL0     C 2364  -0.490   4.257   9.519 -0.4431 -1.0688 -0.7120
  759MOL0     C 2365  -0.598   4.182   9.571  0.3208 -0.5369  0.0744
  759MOL0     O 2366  -0.715   4.240   9.531  0.1486 -0.5732  0.5451
  759MOL0     C 2367  -0.834   4.158   9.562  0.3804 -0.1285  1.1361
  759MOL0     C 2368  -0.953   4.245   9.538 -0.5874 -0.4659  0.3430
  759MOL0     C 2369  -1.069   4.147   9.541  0.7628 -0.4946 -0.1055
  759MOL0     C 2370  -1.202   4.222   9.577  0.9745 -1.1183  0.6043
  759MOL0     C 2371  -1.271   4.311   9.463  0.0525  0.4460  0.2340
  759MOL0     C 2372  -1.375   4.412   9.512 -0.2478  0.3564 -0.0366
  759MOL0     C 2373  -1.306   4.544   9.549 -0.1252  0.2726 -0.1866
  759MOL0     C 2374  -1.395   4.638   9.616  0.0037 -0.4262  0.3821
  759MOL0    Cl 2375  -1.328   4.809   9.616  0.4987 -0.4300  0.0683
  759MOL0     C 2376  -0.569   4.071   9.647  0.3736  0.1419 -0.2080
  759MOL0     C 2377  -0.435   4.028   9.670  0.6776  0.1610 -0.7057
  759MOL0     O 2378  -0.140   4.255   9.737 -0.1397 -0.1660 -0.4372
  759MOL0     C 2379   0.130   4.116   9.726 -0.7966  0.1534 -0.0545
  759MOL0     C 2380   0.246   4.040   9.755 -0.4597  0.4991 -0.5426
  759MOL0     N 2381   0.583   4.151  10.364  0.2114  0.5353 -0.5106
  759MOL0     N 2382   0.674   4.112  10.446 -0.2091  0.8864  0.0021
  759MOL0     C 2383   1.802   4.143  10.473 -0.2065 -0.3376 -0.4277
  759MOL0     C 2384   1.900   4.146  10.368  0.3741  0.1910  1.1965
  759MOL0     C 2385   2.161   4.057  10.014 -0.5868  0.0579 -0.9500
  759MOL0     C 2386   2.288   3.997  10.045 -0.0311  0.4739 -0.3869
  759MOL0     C 2387   2.371   3.957   9.936 -0.5346  0.1608 -0.0154
  759MOL0     C 2388   2.330   3.955   9.807  0.0580  0.0233 -0.7706
  759MOL0     O 2389   2.410   3.896   9.708 -1.0297 -0.3717 -0.2739
  759MOL0     C 2390   2.360   3.828   9.589  0.2560  0.5577 -0.0771
  759MOL0     C 2391   2.316   3.684   9.616  0.4376 -0.5132  0.1889
  759MOL0     C 2392   2.439   3.594   9.635 -0.0507  0.5370 -0.5021
  759MOL0     C 2393   2.395   3.450   9.664 -0.1270 -0.0763 -0.1662
  759MOL0     C 2394   2.505   3.374   9.733  0.4833 -0.0972  0.6961
  759MOL0     C 2395   2.588   3.294   9.783  0.3409 -0.8631 -0.0515
  759MOL0     C 2396   2.200   4.008   9.790  0.4094 -0.2473 -0.3884
  759MOL0     C 2397   2.125   4.069   9.887 -0.2996  0.5459  0.3711
  759MOL0     H 2398   2.049   3.842  10.428 -0.9951 -0.8459  0.6089
  759MOL0     H 2399   1.912   3.867  10.640  1.1991 -0.5184 -0.4867
  759MOL0     H 2400   1.543   4.167  10.689 -1.1824 -0.0560 -1.8979
  759MOL0     H 2401   1.564   4.104  10.531  0.4706  2.3966  0.1611
  759MOL0     H 2402   1.518   3.864  10.607 -0.4513 -2.1542  0.3323
  759MOL0     H 2403   1.509   3.933  10.772  0.2006  1.5417 -0.5812
  759MOL0     H 2404   1.334   4.089  10.690  1.7963 -0.0319 -0.0500
  759MOL0     H 2405   1.328   3.999  10.525 -2.2112  0.5450  0.2805
  759MOL0     H 2406   1.295   3.790  10.661  0.2709 -0.2360  1.1555
  759MOL0     H 2407   1.255   3.894  10.800 -3.6292  1.6707  0.1018
  759MOL0     H 2408   1.044   3.850  10.714  0.0272  0.7428  1.3948
  759MOL0     H 2409   1.079   4.015  10.673 -1.8665  0.1779 -2.0658
  759MOL0     H 2410   1.139   3.938  10.436 -0.9200 -1.3685 -1.3813
  759MOL0     H 2411   1.088   3.779  10.490 -0.9626 -1.0595  1.4930
  759MOL0     H 2412   0.889   3.881  10.392 -0.1084  0.0410  0.2509
  759MOL0     H 2413   0.859   3.910  10.564 -2.5190  0.7790 -1.8535
  759MOL0     H 2414   1.000   4.118  10.392  1.8971  0.3453  3.0420
  759MOL0     H 2415   0.923   4.133  10.544 -0.0170  1.9012  0.0589
  759MOL0     H 2416   0.839   4.158  10.172 -2.5856  4.4443 -1.0226
  759MOL0     H 2417   0.536   4.305  10.117  2.4682  0.8819 -1.4498
  759MOL0     H 2418   0.640   4.184  10.036 -0.4770 -0.2768  0.0422
  759MOL0     H 2419   0.411   4.130   9.982 -2.4333 -0.9966  0.4688
  759MOL0     H 2420   0.373   4.113  10.152  0.3497  1.2151 -1.4100
  759MOL0     H 2421   0.535   3.913  10.172  0.3241  0.1129 -0.6121
  759MOL0     H 2422   0.592   3.946  10.011 -2.2587 -1.8928 -3.5154
  759MOL0     H 2423   0.310   3.872  10.069 -1.9798 -0.0713 -2.3571
  759MOL0     H 2424   0.431   3.752  10.021 -0.6605 -0.8847 -0.7100
  759MOL0     H 2425   0.139   3.795   9.938 -0.9967 -3.5672 -4.9632
  759MOL0     H 2426  -0.202   3.967   9.884 -0.0733 -1.0053 -0.8386
  759MOL0     H 2427  -0.149   3.811   9.828  0.5495 -2.1402  1.8618
  759MOL0     H 2428  -0.112   3.859   9.995 -1.6656  1.4773  1.3787
  759MOL0     H 2429  -0.277   4.272   9.496  0.3549 -0.1430 -0.8877
  759MOL0     H 2430  -0.505   4.347   9.461  1.0712  1.0030  1.9311
  759MOL0     H 2431  -0.835   4.080   9.485  2.5545  2.9445 -2.3496
  759MOL0     H 2432  -0.832   4.129   9.667  0.7102 -1.6691  0.7212
  759MOL0     H 2433  -0.961   4.325   9.612 -1.1505  1.4187 -1.6434
  759MOL0     H 2434  -0.946   4.286   9.437 -1.5032 -2.1162 -0.4242
  759MOL0     H 2435  -1.062   4.069   9.618  0.3994  0.7465  1.2272
  759MOL0     H 2436  -1.074   4.100   9.442  1.5450 -1.2992  0.2213
  759MOL0     H 2437  -1.278   4.150   9.606 -0.7328  0.6478  0.7093
  759MOL0     H 2438  -1.176   4.278   9.668  1.3282 -1.3424  0.6449
  759MOL0     H 2439  -1.331   4.236   9.411 -1.8209  0.1702  2.6216
  759MOL0     H 2440  -1.188   4.351   9.403  0.1396  0.0722  0.0990
  759MOL0     H 2441  -1.441   4.425   9.426 -0.7238  2.8060  0.6197
  759MOL0     H 2442  -1.437   4.364   9.588 -0.1643  2.5846  1.5405
  759MOL0     H 2443  -1.269   4.589   9.457  1.1275 -1.1817 -0.4228
  759MOL0     H 2444  -1.222   4.530   9.619 -0.7386 -1.7518  0.2072
  759MOL0     H 2445  -1.412   4.612   9.721 -0.8033 -0.5768  0.2223
  759MOL0     H 2446  -1.497   4.634   9.577 -1.1261  1.5537  2.8030
  759MOL0     H 2447  -0.652   4.012   9.683 -0.8029  0.5108 -2.1916
  759MOL0     H 2448  -0.415   3.933   9.719 -3.5669  0.5202  2.2320
  759MOL0     H 2449   0.143   4.204   9.663  2.9261 -0.5493 -0.5044
  759MOL0     H 2450   0.338   4.087   9.720  0.3983 -0.6204  0.1111
  759MOL0     H 2451   1.728   4.222  10.480 -2.0931 -1.9558 -1.0702
  759MOL0     H 2452   1.906   4.231  10.302  0.9630  0.1258  1.1662
  759MOL0     H 2453   2.326   3.989  10.146 -3.0965 -0.3226  0.8059
  759MOL0     H 2454   2.467   3.917   9.967 -0.3075  1.5152  1.1711
  759MOL0     H 2455   2.285   3.889   9.536 -2.1851  0.2990  2.7918
  759MOL0     H 2456   2.444   3.812   9.522  0.3946 -0.3969  0.3202
  759MOL0     H 2457   2.250   3.637   9.543 -0.3359  0.2986  0.3399
  759MOL0     H 2458   2.251   3.681   9.704 -0.4692  0.0599 -0.4435
  759MOL0     H 2459   2.487   3.629   9.727  0.6958 -1.5504 -0.0520
  759MOL0     H 2460   2.514   3.600   9.556  0.9077 -0.0215  0.3289
  759MOL0     H 2461   2.370   3.397   9.571  0.8429 -0.9921  0.0722
  759MOL0     H 2462   2.308   3.454   9.730  0.4770 -0.0888  0.6479
  759MOL0     H 2463   2.675   3.242   9.816 -0.1269 -2.7062 -1.5130
  759MOL0     H 2464   2.154   3.999   9.691 -1.7232 -0.4298  0.5542
  759MOL0     H 2465   2.027   4.102   9.855  0.9051  2.2482 -1.9382
  760MOL0     O 2466   8.170   5.592  10.666 -0.5819 -0.5690  0.6047
  760MOL0     C 2467   8.139   5.474  10.674  0.1014  0.7587  0.0714
  760MOL0     O 2468   8.225   5.370  10.648  0.0146 -0.1864 -0.3649
  760MOL0     C 2469   8.360   5.394  10.660  0.5482 -0.3447 -0.0855
  760MOL0     C 2470   8.448   5.348  10.560  0.1805 -0.4757  0.5089
  760MOL0     C 2471   8.583   5.366  10.574  0.6634 -0.6698  0.3489
  760MOL0     C 2472   8.639   5.439  10.682  0.8615 -0.1130 -0.2500
  760MOL0     O 2473   8.777   5.427  10.685  0.1537 -0.6933 -0.0902
  760MOL0     C 2474   8.835   5.466  10.806 -0.8512 -1.1702  0.4546
  760MOL0     C 2475   8.987   5.470  10.799  0.4226 -0.4511 -0.1935
  760MOL0     C 2476   9.040   5.329  10.763 -0.4738 -0.3791  0.2621
  760MOL0     C 2477   9.185   5.356  10.739  0.1196  0.3426 -0.2264
  760MOL0     C 2478   9.265   5.225  10.723 -0.0533 -0.2621  0.1884
  760MOL0     C 2479   9.409   5.262  10.684 -0.5876  0.6008  0.4721
  760MOL0     C 2480   9.494   5.290  10.801 -0.1873 -0.0013 -0.5740
  760MOL0     C 2481   9.610   5.373  10.764  0.0710  0.2825  0.7161
  760MOL0     N 2482   9.585   5.517  10.770  0.1358 -0.0886 -0.4453
  760MOL0     C 2483   9.496   5.579  10.856  1.1428  0.3735 -0.0589
  760MOL0     C 2484   9.468   5.695  10.800  0.0558  0.2009 -0.2221
  760MOL0     C 2485   9.372   5.805  10.852 -0.3589  0.2806  0.4214
  760MOL0     C 2486   9.232   5.753  10.840 -0.0505  0.7289  0.7529
  760MOL0     C 2487   9.129   5.860  10.857 -0.0523  0.2831  1.1422
  760MOL0     C 2488   9.100   5.891  11.005 -0.0202 -0.7336  0.2925
  760MOL0     O 2489   9.013   5.789  11.063 -0.5632 -0.5500 -0.2690
  760MOL0     C 2490   8.882   5.795  11.056  0.6602  0.6336 -0.3253
  760MOL0     C 2491   8.808   5.887  10.982  0.0012 -0.0511 -0.2279
  760MOL0     C 2492   8.672   5.895  10.989  0.3032  1.0531  0.3840
  760MOL0     C 2493   8.603   6.001  10.916 -0.2696 -0.1108 -0.6566
  760MOL0     C 2494   8.602   5.790  11.054 -0.0862  0.2541  0.0204
  760MOL0     C 2495   8.455   5.784  11.067  0.0276 -0.0952  0.3180
  760MOL0     O 2496   8.376   5.888  11.027 -0.3792 -0.3758 -0.1813
  760MOL0     C 2497   8.245   5.870  11.005 -0.3188  0.7613 -0.4554
  760MOL0     C 2498   8.199   5.815  10.877 -0.3759  0.5228  0.3606
  760MOL0     C 2499   8.060   5.811  10.853 -0.9718 -0.4437  0.7586
  760MOL0     C 2500   7.966   5.853  10.954 -0.0921 -0.6938  0.3679
  760MOL0     O 2501   7.830   5.847  10.933  0.8295 -0.1372  0.4472
  760MOL0     C 2502   7.738   5.922  11.011  0.0357 -0.1501  0.3679
  760MOL0     C 2503   7.598   5.926  10.945  0.3738  0.1945 -0.0285
  760MOL0     C 2504   7.514   5.798  10.952  0.3717  0.3263  0.7967
  760MOL0     C 2505   7.363   5.828  10.932 -0.5425 -0.4618  0.9340
  760MOL0     C 2506   7.284   5.711  10.887 -0.3679  0.5154 -0.3022
  760MOL0     C 2507   7.241   5.629  11.010 -0.4124 -0.5793  0.2798
  760MOL0     C 2508   7.136   5.523  10.954 -0.9685 -0.3900 -0.1917
  760MOL0     C 2509   7.082   5.434  11.062  0.2144  0.1993 -1.0691
  760MOL0    Cl 2510   6.954   5.525  11.141  0.2607  0.3772  0.3011
  760MOL0     C 2511   8.019   5.901  11.073 -0.2275 -0.0640 -0.2514
  760MOL0     C 2512   8.157   5.899  11.103  0.5793  0.1554 -0.3841
  760MOL0     O 2513   8.409   5.688  11.127 -0.2250  0.1275  0.2203
  760MOL0     C 2514   8.674   5.691  11.121  0.0027  0.7053 -0.4629
  760MOL0     C 2515   8.816   5.685  11.111  0.5294 -0.1204 -0.7923
  760MOL0     N 2516   9.538   5.709  10.678 -0.0077  0.8155  0.0866
  760MOL0     N 2517   9.612   5.606  10.663  0.2343  0.1122 -0.2419
  760MOL0     C 2518   8.552   5.490  10.774 -0.1578  0.9937 -0.6564
  760MOL0     C 2519   8.411   5.465  10.765 -0.3022 -0.3862  0.2068
  760MOL0     C 2520   7.998   5.437  10.695 -0.8518 -0.9652 -0.9857
  760MOL0     C 2521   7.889   5.524  10.712  0.6576 -0.5815  0.0040
  760MOL0     C 2522   7.759   5.482  10.732  0.7566 -0.0873 -0.2866
  760MOL0     C 2523   7.731   5.345  10.756 -0.4029 -0.4862 -0.1067
  760MOL0     O 2524   7.615   5.298  10.800  0.0380 -0.8686 -0.0060
  760MOL0     C 2525   7.544   5.369  10.902  0.0222 -0.0350  0.0620
  760MOL0     C 2526   7.468   5.269  10.988 -0.1685 -0.8620  1.5427
  760MOL0     C 2527   7.557   5.149  11.022 -0.2935 -0.0337 -0.0448
  760MOL0     C 2528   7.689   5.189  11.090 -1.0895  0.9367 -0.7064
  760MOL0     C 2529   7.774   5.071  11.120 -0.1884  0.4102  0.4690
  760MOL0     C 2530   7.855   4.993  11.160  0.1455 -0.4584  0.1767
  760MOL0     C 2531   7.834   5.252  10.746 -0.4855 -0.0759 -0.7652
  760MOL0     C 2532   7.966   5.301  10.720 -0.4074 -1.0428  0.4798
  760MOL0     H 2533   8.407   5.279  10.486 -1.3905 -0.4546  1.3042
  760MOL0     H 2534   8.646   5.326  10.495  0.2328  1.2139 -1.0090
  760MOL0     H 2535   8.802   5.569  10.822 -1.3156 -0.6603 -2.9322
  760MOL0     H 2536   8.800   5.396  10.883  0.9361 -0.9716  1.5085
  760MOL0     H 2537   9.016   5.535  10.715  2.3357  0.9633  1.4740
  760MOL0     H 2538   9.030   5.504  10.894  2.0138 -3.2209  0.1884
  760MOL0     H 2539   9.032   5.261  10.848  2.2411 -1.0477  0.0448
  760MOL0     H 2540   9.007   5.301  10.663  1.6758  2.0189 -1.2359
  760MOL0     H 2541   9.195   5.418  10.650  0.0691 -3.1499 -2.8686
  760MOL0     H 2542   9.221   5.413  10.825 -0.8572 -2.3087  2.1128
  760MOL0     H 2543   9.259   5.160  10.810  1.1934  0.9829  1.2427
  760MOL0     H 2544   9.228   5.168  10.637  3.8427  0.2141 -2.0125
  760MOL0     H 2545   9.445   5.170  10.635  1.8322  0.8739  1.6224
  760MOL0     H 2546   9.422   5.344  10.613 -0.6274  0.0983 -0.1229
  760MOL0     H 2547   9.439   5.335  10.884 -0.7017 -1.2575 -0.2164
  760MOL0     H 2548   9.530   5.193  10.837  1.7179  1.4915  1.8973
  760MOL0     H 2549   9.658   5.344  10.670  1.2750 -0.6166  1.5676
  760MOL0     H 2550   9.691   5.360  10.838  1.7023 -2.7571 -1.3948
  760MOL0     H 2551   9.453   5.549  10.951 -1.9516  0.3612 -1.3395
  760MOL0     H 2552   9.401   5.825  10.955  1.2027 -2.9180  0.7473
  760MOL0     H 2553   9.390   5.890  10.785  0.9214 -0.8264 -0.7161
  760MOL0     H 2554   9.214   5.677  10.916 -3.2056  0.6105  0.0705
  760MOL0     H 2555   9.222   5.708  10.741  0.3687  2.7507 -0.2638
  760MOL0     H 2556   9.038   5.833  10.802  0.5896 -2.0426  1.1393
  760MOL0     H 2557   9.167   5.947  10.802 -0.6079 -1.1347 -1.7020
  760MOL0     H 2558   9.062   5.993  11.014  1.7460  0.1011 -1.0517
  760MOL0     H 2559   9.192   5.878  11.063 -0.8794 -1.6334  1.5016
  760MOL0     H 2560   8.858   5.963  10.922 -3.0516  0.4293 -2.4313
  760MOL0     H 2561   8.547   6.076  10.971 -0.8604 -0.6310 -0.5412
  760MOL0     H 2562   8.679   6.051  10.855 -0.6285  2.4858  0.8738
  760MOL0     H 2563   8.531   5.948  10.853 -0.5778 -0.4601 -0.0197
  760MOL0     H 2564   8.263   5.781  10.796 -1.0331  1.1258 -0.4264
  760MOL0     H 2565   8.021   5.779  10.756 -0.0947 -1.8492  0.8381
  760MOL0     H 2566   7.727   5.890  11.114 -0.3291  1.7583  0.9662
  760MOL0     H 2567   7.774   6.026  11.016  0.5438 -0.2603 -0.6384
  760MOL0     H 2568   7.549   6.016  10.983  1.8742  0.9503  0.1973
  760MOL0     H 2569   7.606   5.951  10.839 -0.2605 -0.1716 -0.1652
  760MOL0     H 2570   7.525   5.753  11.051  1.4128  2.9510  1.9990
  760MOL0     H 2571   7.550   5.733  10.872 -0.6911  0.6096  0.0747
  760MOL0     H 2572   7.312   5.879  11.015  0.6024 -0.4213  1.6303
  760MOL0     H 2573   7.354   5.903  10.853 -0.0696  2.2912  3.3283
  760MOL0     H 2574   7.343   5.642  10.826  0.7452 -1.0830  2.4085
  760MOL0     H 2575   7.191   5.745  10.842 -2.1032 -1.5850  1.4866
  760MOL0     H 2576   7.327   5.590  11.065 -0.9782 -0.2057  1.4710
  760MOL0     H 2577   7.199   5.697  11.086  0.6652  1.5456 -0.9307
  760MOL0     H 2578   7.193   5.453  10.892 -1.9473 -2.0191  0.6727
  760MOL0     H 2579   7.048   5.568  10.907 -2.0905 -1.4796  0.7747
  760MOL0     H 2580   7.154   5.409  11.141  0.6450 -0.8711 -1.7760
  760MOL0     H 2581   7.046   5.337  11.027  1.0134  0.5348 -2.9827
  760MOL0     H 2582   7.942   5.926  11.146  0.2733  0.3029  0.1580
  760MOL0     H 2583   8.176   5.932  11.204 -0.5124 -1.8939  0.5522
  760MOL0     H 2584   8.632   5.604  11.170 -2.0188  0.4733 -2.4679
  760MOL0     H 2585   8.880   5.615  11.165  0.3671  0.8509  0.7278
  760MOL0     H 2586   8.591   5.548  10.857 -0.4652  0.1024  0.1311
  760MOL0     H 2587   8.348   5.510  10.840 -1.7381  2.0109 -2.2530
  760MOL0     H 2588   7.900   5.629  10.690 -1.2092 -0.0105  1.4831
  760MOL0     H 2589   7.682   5.557  10.742  0.2205 -0.9134  2.5829
  760MOL0     H 2590   7.605   5.428  10.971 -0.6305 -2.5634  3.0387
  760MOL0     H 2591   7.472   5.433  10.852  1.6978 -0.8180 -3.7166
  760MOL0     H 2592   7.387   5.241  10.920  2.5634 -1.6172 -1.7230
  760MOL0     H 2593   7.439   5.329  11.074 -0.9710  0.3733  0.4377
  760MOL0     H 2594   7.579   5.087  10.935 -1.7831  1.8891 -1.8980
  760MOL0     H 2595   7.498   5.093  11.096 -0.8326  0.8935  0.2380
  760MOL0     H 2596   7.657   5.238  11.183 -2.1717  0.2591 -0.7097
  760MOL0     H 2597   7.750   5.261  11.035  2.5941  0.1123  1.8791
  760MOL0     H 2598   7.944   4.937  11.179  0.8259  0.6192  0.2565
  760MOL0     H 2599   7.809   5.152  10.778  2.8709 -1.5084 -2.1287
  760MOL0     H 2600   8.046   5.227  10.727  0.6293 -0.1486 -1.1191
  761MOL0     O 2601   7.048   4.660   6.788  0.1384  0.0417 -0.2481
  761MOL0     C 2602   7.087   4.546   6.796 -0.3205  0.4552 -0.5588
  761MOL0     O 2603   7.048   4.440   6.723  0.0954 -0.4282  0.7305
  761MOL0     C 2604   6.946   4.464   6.632 -0.6447 -0.3917  0.0806
  761MOL0     C 2605   6.971   4.424   6.498  0.7159  0.1052 -0.6480
  761MOL0     C 2606   6.859   4.419   6.417  0.2109  0.3072  0.9841
  761MOL0     C 2607   6.740   4.476   6.451  1.5050  0.2389 -0.2521
  761MOL0     O 2608   6.643   4.490   6.352  0.4178  0.5292  0.2970
  761MOL0     C 2609   6.527   4.575   6.379  0.1735  0.4446  1.3368
  761MOL0     C 2610   6.422   4.594   6.256 -0.2567  0.2657  0.5521
  761MOL0     C 2611   6.337   4.474   6.226  0.9059  0.6807 -0.1674
  761MOL0     C 2612   6.242   4.481   6.103  1.5283  0.5476 -0.7979
  761MOL0     C 2613   6.145   4.364   6.110  0.3989 -0.7108  0.8071
  761MOL0     C 2614   6.040   4.369   6.005 -0.3297 -0.1664 -0.2053
  761MOL0     C 2615   5.931   4.263   6.015  0.2010  0.2575  0.5113
  761MOL0     C 2616   5.837   4.261   5.899  0.3167 -1.1544  0.1835
  761MOL0     N 2617   5.729   4.160   5.926 -0.3616 -0.1890  0.3857
  761MOL0     C 2618   5.752   4.024   5.948 -1.4571 -0.4734 -0.3535
  761MOL0     C 2619   5.637   3.979   5.999 -1.0124  0.7008  1.1350
  761MOL0     C 2620   5.634   3.839   6.069 -0.5129 -0.2362  0.0229
  761MOL0     C 2621   5.496   3.783   6.071 -0.0866 -0.5932  0.0619
  761MOL0     C 2622   5.459   3.721   5.933 -0.9881 -0.2050 -1.2564
  761MOL0     C 2623   5.310   3.707   5.919  0.0534  0.3264  0.1771
  761MOL0     O 2624   5.268   3.624   6.035 -0.4039  0.5874 -0.5333
  761MOL0     C 2625   5.148   3.559   6.022 -0.0377 -0.1238 -0.2785
  761MOL0     C 2626   5.137   3.424   6.067  0.3155  0.7158 -0.5753
  761MOL0     C 2627   5.017   3.366   6.057  0.4435  1.3200  0.6400
  761MOL0     C 2628   5.015   3.217   6.101 -0.5997  0.2341  0.1150
  761MOL0     C 2629   4.902   3.427   5.992  0.4039 -0.5589  0.6632
  761MOL0     C 2630   4.773   3.345   5.960  0.0110  0.3589  0.3731
  761MOL0     O 2631   4.793   3.215   5.916  0.8865  0.1864  0.4488
  761MOL0     C 2632   4.681   3.131   5.913  0.4623 -0.8732 -0.5930
  761MOL0     C 2633   4.560   3.170   5.850 -0.2879 -0.2539  0.1928
  761MOL0     C 2634   4.449   3.087   5.851  0.2200 -0.8795  0.2542
  761MOL0     C 2635   4.453   2.968   5.926 -0.2681 -0.2686 -0.2779
  761MOL0     O 2636   4.345   2.893   5.954  0.5789 -0.1027  0.2817
  761MOL0     C 2637   4.276   2.917   6.073  0.0064  0.0122  0.5405
  761MOL0     C 2638   4.155   3.008   6.050  0.2129 -0.2346 -0.4555
  761MOL0     C 2639   4.036   2.933   5.992  0.0642  0.1968  0.1080
  761MOL0     C 2640   4.027   2.930   5.838 -0.6283 -0.0659  0.4959
  761MOL0     C 2641   3.927   2.826   5.785 -0.3499  0.8481  0.0063
  761MOL0     C 2642   3.965   2.679   5.815 -0.2410  0.3626 -0.1466
  761MOL0     C 2643   4.091   2.631   5.733  0.0672 -0.0407 -0.0971
  761MOL0     C 2644   4.081   2.479   5.716 -0.2639 -0.1497 -0.5369
  761MOL0    Cl 2645   4.233   2.411   5.651  0.1239  0.1419  0.0112
  761MOL0     C 2646   4.568   2.932   5.998 -0.0573  0.5665  0.0940
  761MOL0     C 2647   4.682   3.012   5.983 -0.1352  0.1428 -0.3211
  761MOL0     O 2648   4.669   3.401   5.982  0.0255 -0.4840 -0.3614
  761MOL0     C 2649   4.917   3.546   5.942 -1.3586 -0.3972  0.3763
  761MOL0     C 2650   5.031   3.618   5.963 -1.0788 -0.3101  0.1263
  761MOL0     N 2651   5.543   4.076   5.980 -0.9846 -0.2747 -1.1500
  761MOL0     N 2652   5.595   4.190   5.939 -0.5690  0.5049 -0.6155
  761MOL0     C 2653   6.720   4.524   6.586 -0.5955  0.0323  0.4639
  761MOL0     C 2654   6.823   4.511   6.680  0.7076  0.1346 -0.2688
  761MOL0     C 2655   7.197   4.515   6.896 -0.6711  0.2647  0.7511
  761MOL0     C 2656   7.239   4.386   6.918  0.3185 -0.2525 -0.3800
  761MOL0     C 2657   7.356   4.365   6.995  0.6587 -1.0721 -0.1289
  761MOL0     C 2658   7.441   4.465   7.035 -0.3464  0.9048 -0.2270
  761MOL0     O 2659   7.550   4.426   7.106 -0.5225 -0.2718 -0.4448
  761MOL0     C 2660   7.638   4.525   7.157  0.2151  1.0520  0.0759
  761MOL0     C 2661   7.745   4.448   7.246 -0.2352  0.4801 -0.1467
  761MOL0     C 2662   7.814   4.318   7.197  0.2943 -1.1076 -0.5626
  761MOL0     C 2663   7.891   4.308   7.068 -0.0362  0.2531  0.5450
  761MOL0     C 2664   8.001   4.398   7.045  0.5148 -0.4561 -0.7327
  761MOL0     C 2665   8.102   4.461   7.016  0.9088  0.5175 -0.6297
  761MOL0     C 2666   7.406   4.592   7.000  0.6267  0.4629  0.0458
  761MOL0     C 2667   7.287   4.621   6.930  0.1752  0.1955 -0.4456
  761MOL0     H 2668   7.070   4.387   6.473  0.5464 -0.9904  0.2364
  761MOL0     H 2669   6.851   4.385   6.314  0.9767 -0.3008  1.1157
  761MOL0     H 2670   6.465   4.520   6.450  1.8719 -1.3802  1.4980
  761MOL0     H 2671   6.547   4.678   6.408 -0.8714  1.3018 -0.7855
  761MOL0     H 2672   6.353   4.673   6.289 -0.0108 -0.0994  2.0115
  761MOL0     H 2673   6.483   4.643   6.179  0.5896  1.1995  1.7659
  761MOL0     H 2674   6.401   4.387   6.206 -1.4095 -0.5415 -2.8464
  761MOL0     H 2675   6.274   4.453   6.313  1.4374 -0.2288  0.0104
  761MOL0     H 2676   6.185   4.574   6.111  0.7937 -0.0180  0.9495
  761MOL0     H 2677   6.299   4.483   6.009 -1.3440  2.7735 -2.6686
  761MOL0     H 2678   6.209   4.276   6.102  0.4004 -0.5844 -0.9436
  761MOL0     H 2679   6.105   4.376   6.211 -0.2401  2.6930  0.2965
  761MOL0     H 2680   5.994   4.467   5.993 -2.5290 -1.3073 -2.0097
  761MOL0     H 2681   6.101   4.366   5.914 -0.9864  3.1859 -0.8974
  761MOL0     H 2682   5.979   4.165   6.026 -1.5305 -0.4526  2.2777
  761MOL0     H 2683   5.866   4.291   6.099  0.4545  2.5551  0.0327
  761MOL0     H 2684   5.891   4.242   5.806  1.0205  1.6629 -0.0969
  761MOL0     H 2685   5.792   4.361   5.894  2.6475  0.1975  3.0466
  761MOL0     H 2686   5.844   3.966   5.947 -0.7421  0.6282  0.2858
  761MOL0     H 2687   5.698   3.775   6.007  2.4909  3.1851 -0.7185
  761MOL0     H 2688   5.672   3.847   6.171  0.5244 -1.0867 -0.2772
  761MOL0     H 2689   5.423   3.863   6.088 -0.1516 -0.1080 -2.2453
  761MOL0     H 2690   5.490   3.719   6.160  0.1122  1.4536  1.6266
  761MOL0     H 2691   5.498   3.619   5.937 -1.2684 -0.2964  1.2795
  761MOL0     H 2692   5.504   3.774   5.849 -0.6734 -0.5971 -1.3380
  761MOL0     H 2693   5.303   3.669   5.817  0.0859  2.1176 -0.5372
  761MOL0     H 2694   5.262   3.805   5.918 -0.0527  0.2692 -0.3603
  761MOL0     H 2695   5.226   3.385   6.115 -0.3435  0.0988  0.1688
  761MOL0     H 2696   4.997   3.147   6.019  0.0365 -0.5443  0.6289
  761MOL0     H 2697   5.094   3.187   6.170 -2.6148 -1.4347  1.8276
  761MOL0     H 2698   4.930   3.204   6.168  0.2659  0.3179  1.2474
  761MOL0     H 2699   4.550   3.263   5.796  2.6752 -0.0589 -0.1870
  761MOL0     H 2700   4.358   3.108   5.796 -0.4983 -2.5423  0.7528
  761MOL0     H 2701   4.239   2.826   6.122  2.5857 -0.0128  2.6919
  761MOL0     H 2702   4.337   2.960   6.153  0.1211 -2.4970  1.9218
  761MOL0     H 2703   4.141   3.056   6.148 -1.3533  1.6467 -1.5399
  761MOL0     H 2704   4.175   3.092   5.983  2.0590  1.8675  2.4401
  761MOL0     H 2705   3.956   3.001   6.025  0.4909  1.0006 -0.4673
  761MOL0     H 2706   4.025   2.835   6.039 -0.2419  0.3598  0.3876
  761MOL0     H 2707   4.010   3.034   5.809 -0.7319 -0.6781 -1.8010
  761MOL0     H 2708   4.120   2.903   5.787 -0.0973 -1.3058  2.0236
  761MOL0     H 2709   3.914   2.842   5.678  1.4092  0.7787 -0.2456
  761MOL0     H 2710   3.832   2.837   5.839 -1.0445 -1.1700 -0.6900
  761MOL0     H 2711   3.983   2.653   5.920  2.9072 -0.1074 -0.6997
  761MOL0     H 2712   3.878   2.623   5.778 -0.6530 -0.1690  1.5255
  761MOL0     H 2713   4.184   2.656   5.785  0.1110  0.3767 -0.3698
  761MOL0     H 2714   4.090   2.664   5.629 -2.3126  1.5610  0.3323
  761MOL0     H 2715   3.998   2.462   5.646  0.7870 -0.6197 -1.7179
  761MOL0     H 2716   4.057   2.425   5.808  0.0636 -0.0612 -0.3972
  761MOL0     H 2717   4.562   2.846   6.064 -0.1387 -0.0551 -0.7209
  761MOL0     H 2718   4.776   2.991   6.032 -1.3167 -1.6071  1.3442
  761MOL0     H 2719   4.829   3.587   5.892 -1.6010  0.4122  1.4278
  761MOL0     H 2720   5.035   3.719   5.923  6.3475 -0.1872 -0.0370
  761MOL0     H 2721   6.635   4.580   6.623  1.1684  4.3276 -1.3192
  761MOL0     H 2722   6.816   4.539   6.785  0.6389  1.0509 -0.5022
  761MOL0     H 2723   7.175   4.305   6.886  0.7580 -0.0966 -1.7037
  761MOL0     H 2724   7.370   4.263   7.030  0.1217 -0.9821  0.3617
  761MOL0     H 2725   7.692   4.571   7.074  0.5424  0.5396  0.0047
  761MOL0     H 2726   7.583   4.608   7.203  0.1152  1.4578 -0.7572
  761MOL0     H 2727   7.700   4.422   7.342  1.1027  1.3713  0.7538
  761MOL0     H 2728   7.833   4.512   7.261  1.5066 -2.0625  1.1142
  761MOL0     H 2729   7.734   4.244   7.201 -0.0213 -0.7244  1.0367
  761MOL0     H 2730   7.889   4.301   7.275 -2.1192  0.1119  2.2346
  761MOL0     H 2731   7.818   4.321   6.988 -0.6349 -1.2469  0.8001
  761MOL0     H 2732   7.940   4.212   7.050  0.2970  0.8378 -1.9569
  761MOL0     H 2733   8.192   4.504   6.978 -1.0825  4.5763 -1.2976
  761MOL0     H 2734   7.472   4.678   7.013  3.1650 -1.5527  1.8471
  761MOL0     H 2735   7.276   4.724   6.896  3.5159  1.2428  1.1744
  762MOL0     O 2736   9.932   1.962   7.474 -0.0286  0.5579  0.5949
  762MOL0     C 2737   9.941   2.069   7.535 -0.5844 -0.1526  0.0109
  762MOL0     O 2738   9.850   2.114   7.622  0.5835  0.6745 -0.7643
  762MOL0     C 2739   9.731   2.050   7.618  0.4282  0.4785 -0.2873
  762MOL0     C 2740   9.673   2.009   7.736  0.7751 -0.1863 -0.0626
  762MOL0     C 2741   9.545   1.940   7.739 -0.4284 -0.6841 -0.3916
  762MOL0     C 2742   9.479   1.913   7.619 -0.5048 -0.7461  0.6047
  762MOL0     O 2743   9.362   1.836   7.635 -0.2395  0.4865 -0.7264
  762MOL0     C 2744   9.298   1.800   7.511 -0.3210  0.3662 -0.5736
  762MOL0     C 2745   9.179   1.711   7.533 -0.1199 -0.7533 -1.1672
  762MOL0     C 2746   9.135   1.676   7.392  0.1644 -0.1137 -0.6243
  762MOL0     C 2747   9.017   1.580   7.391  0.5532 -0.1323 -0.0482
  762MOL0     C 2748   8.980   1.530   7.248 -0.8669  0.4921  0.5427
  762MOL0     C 2749   8.857   1.428   7.250  0.2428 -0.0935  0.8148
  762MOL0     C 2750   8.714   1.495   7.233 -1.0339 -0.4874  0.2593
  762MOL0     C 2751   8.596   1.405   7.252  0.2089 -0.3035  0.1368
  762MOL0     N 2752   8.470   1.463   7.200 -0.6751  0.1824 -0.0699
  762MOL0     C 2753   8.379   1.392   7.120  0.2150 -0.1387 -0.0770
  762MOL0     C 2754   8.290   1.487   7.086  0.6730  0.0781  0.3048
  762MOL0     C 2755   8.181   1.445   6.987 -0.0222 -0.7819 -1.2794
  762MOL0     C 2756   8.045   1.460   7.049  0.2686  0.2895 -0.4630
  762MOL0     C 2757   8.008   1.596   7.097 -0.5719  0.0129 -0.1544
  762MOL0     C 2758   8.003   1.687   6.983 -0.5642 -0.4504 -0.0715
  762MOL0     O 2759   7.901   1.663   6.885 -0.2226 -0.4350  0.0736
  762MOL0     C 2760   7.765   1.673   6.905  0.0789  0.7900  0.0187
  762MOL0     C 2761   7.680   1.609   6.821 -0.4165 -0.7133  0.4512
  762MOL0     C 2762   7.541   1.621   6.810 -0.2724  0.6112  0.0796
  762MOL0     C 2763   7.481   1.549   6.697  0.0904 -0.5655 -0.1739
  762MOL0     C 2764   7.478   1.682   6.921 -0.5893  0.1187 -0.1650
  762MOL0     C 2765   7.336   1.689   6.929  0.3322 -0.3322  0.0640
  762MOL0     O 2766   7.286   1.759   7.025  0.2548  0.0133 -0.3445
  762MOL0     C 2767   7.152   1.806   7.030  1.1490  0.0705  0.6489
  762MOL0     C 2768   7.119   1.885   7.140 -0.1989 -0.1743  0.3794
  762MOL0     C 2769   7.002   1.955   7.152 -0.0551 -0.4250  0.7411
  762MOL0     C 2770   6.903   1.946   7.050 -0.6865  0.0968  0.6501
  762MOL0     O 2771   6.776   1.995   7.063  0.0031  0.3893 -0.4306
  762MOL0     C 2772   6.701   2.036   6.948  0.4527 -0.7119 -0.0992
  762MOL0     C 2773   6.585   2.116   6.996 -0.9592 -0.0609  0.6633
  762MOL0     C 2774   6.642   2.245   7.069 -0.5967  0.2333  0.4631
  762MOL0     C 2775   6.531   2.336   7.133  0.5390 -0.6860 -0.3937
  762MOL0     C 2776   6.413   2.373   7.039  0.0555 -0.2108  1.0808
  762MOL0     C 2777   6.297   2.440   7.109  0.3084  1.0158  0.1514
  762MOL0     C 2778   6.203   2.347   7.180 -0.6299  0.0156 -0.1662
  762MOL0     C 2779   6.092   2.414   7.267  0.4434 -0.6067  0.4404
  762MOL0    Cl 2780   6.017   2.308   7.394  0.0931 -0.2956  0.0840
  762MOL0     C 2781   6.928   1.870   6.934 -0.0189  0.0564 -0.0050
  762MOL0     C 2782   7.050   1.803   6.924 -0.4296 -0.2408 -0.1932
  762MOL0     O 2783   7.269   1.629   6.843 -0.3847 -0.0230  0.3046
  762MOL0     C 2784   7.562   1.741   7.024 -0.1695 -0.2673  0.3699
  762MOL0     C 2785   7.704   1.747   7.014 -0.4374 -0.6159  0.0426
  762MOL0     N 2786   8.325   1.612   7.139  0.2470 -0.2368 -0.1792
  762MOL0     N 2787   8.434   1.592   7.204 -0.6037 -0.6404  0.2376
  762MOL0     C 2788   9.537   1.966   7.500 -0.7776 -0.6227  0.5214
  762MOL0     C 2789   9.659   2.034   7.501 -0.1145  0.4710 -0.3765
  762MOL0     C 2790  10.068   2.137   7.524  0.5436  0.4992  0.4704
  762MOL0     C 2791  10.179   2.083   7.463  0.0792  0.5528 -0.3724
  762MOL0     C 2792  10.293   2.163   7.449  0.3694 -0.2237 -0.0747
  762MOL0     C 2793  10.305   2.294   7.512 -0.5006  0.0216 -0.2964
  762MOL0     O 2794  10.424   2.369   7.502  1.2124 -0.6212 -0.4631
  762MOL0     C 2795  10.412   2.509   7.537  0.0451  0.6272 -0.0119
  762MOL0     C 2796  10.544   2.579   7.504  0.2283  0.2482 -0.8066
  762MOL0     C 2797  10.658   2.527   7.595  0.3007 -0.9684  0.4274
  762MOL0     C 2798  10.792   2.569   7.532  0.1759  1.0095 -0.6057
  762MOL0     C 2799  10.793   2.710   7.501 -0.4843  0.2903  0.6177
  762MOL0     C 2800  10.799   2.824   7.471  0.3378 -0.6176 -0.2861
  762MOL0     C 2801  10.187   2.345   7.580 -0.0528  0.4240 -1.0089
  762MOL0     C 2802  10.076   2.265   7.581 -0.2848  0.0522  0.5671
  762MOL0     H 2803   9.725   2.025   7.831  1.9949  1.3765 -0.9408
  762MOL0     H 2804   9.510   1.915   7.839  0.9130  0.1751  0.3264
  762MOL0     H 2805   9.279   1.891   7.455 -1.8819  0.9096  0.7570
  762MOL0     H 2806   9.375   1.744   7.458  1.3298  0.7195  1.3241
  762MOL0     H 2807   9.216   1.624   7.588 -0.6919  0.1878  0.7826
  762MOL0     H 2808   9.104   1.757   7.597  1.0542 -0.2393 -0.1057
  762MOL0     H 2809   9.095   1.770   7.354 -0.7187  0.1570  0.9057
  762MOL0     H 2810   9.207   1.638   7.319  1.1995  0.3005  0.1644
  762MOL0     H 2811   9.046   1.497   7.456  0.2635  0.1489  0.4459
  762MOL0     H 2812   8.933   1.636   7.432  2.4439  3.5349 -0.7388
  762MOL0     H 2813   8.960   1.618   7.186  1.2803  0.7281  0.0927
  762MOL0     H 2814   9.071   1.484   7.207  0.3334  0.3819  3.1633
  762MOL0     H 2815   8.880   1.357   7.171  1.1381  0.6460  0.3820
  762MOL0     H 2816   8.863   1.383   7.350 -1.9709  0.3633  1.2088
  762MOL0     H 2817   8.706   1.584   7.296  0.1313  1.3603 -2.0584
  762MOL0     H 2818   8.715   1.536   7.132  0.3120  3.2728  1.6235
  762MOL0     H 2819   8.581   1.385   7.359  0.7533  0.0816  0.2884
  762MOL0     H 2820   8.611   1.315   7.191 -3.0956 -2.1865  1.7934
  762MOL0     H 2821   8.387   1.289   7.086  0.9736  0.2810 -1.2065
  762MOL0     H 2822   8.189   1.502   6.894 -0.0722 -0.8031 -1.2966
  762MOL0     H 2823   8.209   1.343   6.958  0.9272 -0.5605 -1.1725
  762MOL0     H 2824   8.026   1.390   7.131  0.0936  1.3673  0.4400
  762MOL0     H 2825   7.973   1.427   6.974  0.2276 -1.0536  0.1374
  762MOL0     H 2826   8.083   1.627   7.171 -0.1792 -1.1108 -0.0468
  762MOL0     H 2827   7.913   1.594   7.151 -0.3727  0.2800  0.2067
  762MOL0     H 2828   8.102   1.700   6.940 -0.4949 -1.8878 -0.4040
  762MOL0     H 2829   7.997   1.787   7.028  3.7895  0.6855 -1.5294
  762MOL0     H 2830   7.732   1.556   6.742  0.8869  0.5488  0.4283
  762MOL0     H 2831   7.554   1.503   6.629 -0.8782 -2.2705 -0.1240
  762MOL0     H 2832   7.416   1.465   6.723 -0.8161 -0.4211 -1.8043
  762MOL0     H 2833   7.420   1.622   6.643  1.7572  1.2477  0.2797
  762MOL0     H 2834   7.192   1.901   7.219  2.0664 -2.4354 -1.0858
  762MOL0     H 2835   6.967   1.998   7.245 -1.3633 -0.6799  0.3936
  762MOL0     H 2836   6.778   2.089   6.891  0.4300  0.8772  1.3016
  762MOL0     H 2837   6.660   1.957   6.884 -0.0691  0.3894 -1.1796
  762MOL0     H 2838   6.522   2.147   6.912 -1.7535 -2.5754  0.2475
  762MOL0     H 2839   6.521   2.051   7.056  0.5722 -0.6499  1.7181
  762MOL0     H 2840   6.695   2.313   7.001  0.3572  0.1260  1.0711
  762MOL0     H 2841   6.715   2.214   7.144  0.9258  0.1718 -0.9876
  762MOL0     H 2842   6.497   2.278   7.220 -3.3790  1.6611 -0.1343
  762MOL0     H 2843   6.581   2.425   7.171  0.1090 -0.1795 -0.9895
  762MOL0     H 2844   6.370   2.290   6.981 -0.5313  2.4952 -2.7489
  762MOL0     H 2845   6.451   2.428   6.952 -1.0391 -2.3265 -0.8613
  762MOL0     H 2846   6.324   2.533   7.161 -1.9867  0.4024  2.6074
  762MOL0     H 2847   6.232   2.482   7.031  0.1203  0.0543 -0.2273
  762MOL0     H 2848   6.255   2.261   7.223  3.2994  1.9769 -0.5968
  762MOL0     H 2849   6.149   2.300   7.097  0.9977 -1.1861 -0.5846
  762MOL0     H 2850   6.020   2.461   7.199  2.2307  1.3037 -0.2380
  762MOL0     H 2851   6.138   2.498   7.320 -1.6938  2.8455 -2.5920
  762MOL0     H 2852   6.872   1.876   6.841  0.9841 -0.5907 -0.6799
  762MOL0     H 2853   7.063   1.751   6.830 -3.0787 -2.0338  0.3212
  762MOL0     H 2854   7.517   1.778   7.116 -1.5641 -1.8424  0.3656
  762MOL0     H 2855   7.767   1.781   7.095 -2.2303  4.9392 -0.5260
  762MOL0     H 2856   9.488   1.947   7.405 -2.9180  4.2457  0.3502
  762MOL0     H 2857   9.705   2.068   7.409  1.5833  1.3519  0.7544
  762MOL0     H 2858  10.183   1.980   7.429  3.1928  0.7230 -0.7614
  762MOL0     H 2859  10.377   2.129   7.389 -0.9731  0.9458 -2.7923
  762MOL0     H 2860  10.332   2.550   7.474 -2.6999 -1.5193  1.8904
  762MOL0     H 2861  10.382   2.532   7.639 -1.2285  0.7605 -0.4018
  762MOL0     H 2862  10.518   2.685   7.511  1.1826  0.5942 -2.2795
  762MOL0     H 2863  10.563   2.555   7.399 -1.9088  0.7959 -1.3777
  762MOL0     H 2864  10.656   2.419   7.610 -2.4916 -0.7443  2.2579
  762MOL0     H 2865  10.658   2.577   7.692  2.3649  2.4224 -1.1285
  762MOL0     H 2866  10.800   2.515   7.436 -0.1494 -1.4062  0.6353
  762MOL0     H 2867  10.870   2.543   7.604 -0.7186  0.1721  0.0919
  762MOL0     H 2868  10.813   2.923   7.433  1.9406 -0.1558  1.3479
  762MOL0     H 2869  10.174   2.445   7.620 -0.3435 -0.4949  1.3664
  762MOL0     H 2870   9.986   2.313   7.620 -0.2359 -0.1751  0.9660
  763MOL0     O 2871   3.298   5.969   9.745 -0.1205  0.1680 -0.1177
  763MOL0     C 2872   3.346   5.874   9.813 -0.2677  0.8604  0.7282
  763MOL0     O 2873   3.282   5.819   9.917  0.1282  0.5230 -0.2243
  763MOL0     C 2874   3.167   5.878   9.951 -0.6983  0.4345 -0.1709
  763MOL0     C 2875   3.048   5.812   9.937 -1.2548  0.0036 -0.1933
  763MOL0     C 2876   2.931   5.875   9.977  0.0707  0.2925  0.2682
  763MOL0     C 2877   2.925   6.003  10.025 -0.5516  0.2294 -0.7755
  763MOL0     O 2878   2.801   6.052  10.048  0.4739 -0.5180  0.4303
  763MOL0     C 2879   2.783   6.151  10.152  0.4721  0.3117  0.2234
  763MOL0     C 2880   2.799   6.091  10.298  0.4950 -0.0974  0.7297
  763MOL0     C 2881   2.706   5.970  10.331 -1.1928 -0.2449 -0.7965
  763MOL0     C 2882   2.556   6.006  10.354 -0.2567 -0.3026  0.3696
  763MOL0     C 2883   2.472   5.886  10.394  0.0858  1.2004 -0.9398
  763MOL0     C 2884   2.327   5.921  10.399  0.2668  0.5495 -0.2984
  763MOL0     C 2885   2.231   5.802  10.423 -0.3719 -0.1095  0.2214
  763MOL0     C 2886   2.081   5.844  10.407  0.0320  0.1660  0.4774
  763MOL0     N 2887   2.045   5.801  10.272 -0.0601  0.2227 -0.6953
  763MOL0     C 2888   2.040   5.666  10.227  0.4243 -0.2139 -0.5838
  763MOL0     C 2889   2.013   5.687  10.094 -0.1122 -0.7509 -0.4754
  763MOL0     C 2890   1.989   5.575  10.002  0.3894  0.5682  0.6816
  763MOL0     C 2891   1.838   5.540   9.997  0.0946  0.1323  0.2355
  763MOL0     C 2892   1.804   5.424   9.907  0.5577 -0.3308 -0.2196
  763MOL0     C 2893   1.655   5.376   9.926 -0.6966 -0.1926  0.3097
  763MOL0     O 2894   1.578   5.492   9.932  0.3441  0.0528 -0.2117
  763MOL0     C 2895   1.450   5.471   9.972 -0.3695  0.7737 -0.8346
  763MOL0     C 2896   1.385   5.570  10.057 -0.3712  0.8485 -0.8633
  763MOL0     C 2897   1.260   5.546  10.112  0.9399  0.0314  0.5907
  763MOL0     C 2898   1.214   5.659  10.204 -0.3763 -0.3101  0.1217
  763MOL0     C 2899   1.188   5.428  10.076  0.2457  0.9328 -0.1184
  763MOL0     C 2900   1.052   5.389  10.126 -1.0965 -0.8757 -0.3643
  763MOL0     O 2901   1.002   5.262  10.085  0.4937 -0.1903  0.9735
  763MOL0     C 2902   0.880   5.224  10.133 -0.9284  0.1705  0.3237
  763MOL0     C 2903   0.768   5.299  10.123  0.2352  0.0708 -0.1101
  763MOL0     C 2904   0.641   5.248  10.169 -0.5957  0.5609 -1.2972
  763MOL0     C 2905   0.631   5.115  10.212  0.1157 -0.2135 -0.2686
  763MOL0     O 2906   0.514   5.073  10.263 -0.6401 -0.2688  0.2933
  763MOL0     C 2907   0.494   4.934  10.318  0.2392 -0.3232  0.6035
  763MOL0     C 2908   0.350   4.909  10.366 -0.1272 -0.5217  0.3845
  763MOL0     C 2909   0.246   4.876  10.257  0.7609  0.5208 -1.1920
  763MOL0     C 2910   0.110   4.930  10.299  0.0891 -0.8669 -0.2052
  763MOL0     C 2911   0.011   4.889  10.186 -0.1098 -0.0546 -0.0615
  763MOL0     C 2912  -0.143   4.937  10.213 -0.5316 -0.2009 -0.9589
  763MOL0     C 2913  -0.240   4.903  10.100 -0.3173  0.3842 -0.8908
  763MOL0     C 2914  -0.378   4.933  10.144  0.0146  0.4150  0.0973
  763MOL0    Cl 2915  -0.488   4.918   9.997 -0.1592  0.5431  0.3164
  763MOL0     C 2916   0.749   5.036  10.225  0.9651 -0.3332  0.0873
  763MOL0     C 2917   0.867   5.096  10.176 -0.2992  0.0553  0.6803
  763MOL0     O 2918   1.002   5.464  10.210 -0.3111  0.6271  0.1824
  763MOL0     C 2919   1.242   5.349   9.975  0.8991 -0.1153  0.8134
  763MOL0     C 2920   1.379   5.362   9.933  0.5810 -0.0994 -1.0437
  763MOL0     N 2921   2.011   5.825  10.069 -0.4401  0.1258  0.3786
  763MOL0     N 2922   2.030   5.887  10.177 -0.4429  0.1537 -0.4294
  763MOL0     C 2923   3.050   6.074  10.042 -0.0594  0.4706  0.0045
  763MOL0     C 2924   3.173   6.010  10.003  0.4217  0.6362 -0.2414
  763MOL0     C 2925   3.491   5.847   9.801 -0.1585  0.4701 -0.1951
  763MOL0     C 2926   3.564   5.800   9.915 -0.3391  0.3725  0.4434
  763MOL0     C 2927   3.704   5.796   9.906 -0.3572 -0.8727 -0.3728
  763MOL0     C 2928   3.771   5.821   9.785  1.0927  0.0560  0.0941
  763MOL0     O 2929   3.903   5.820   9.788 -0.6701 -0.0844 -0.1279
  763MOL0     C 2930   3.975   5.703   9.736  0.6928  0.6757  0.4420
  763MOL0     C 2931   4.089   5.663   9.826 -0.1284 -0.6564  0.0201
  763MOL0     C 2932   4.194   5.778   9.843  0.0103  0.3863 -0.7253
  763MOL0     C 2933   4.234   5.864   9.718  0.2255 -0.1514  0.8304
  763MOL0     C 2934   4.306   5.770   9.619 -0.8025 -0.2360 -1.1011
  763MOL0     C 2935   4.362   5.689   9.545  1.0633  0.7044 -0.4111
  763MOL0     C 2936   3.694   5.852   9.666 -0.3018 -0.8797 -0.7629
  763MOL0     C 2937   3.553   5.870   9.676  0.8332  0.1513 -0.0153
  763MOL0     H 2938   3.053   5.709   9.902 -0.5883 -0.9897  2.5509
  763MOL0     H 2939   2.837   5.820   9.977 -0.1296  0.6254 -0.1105
  763MOL0     H 2940   2.846   6.235  10.121 -1.2743  1.7781  0.5434
  763MOL0     H 2941   2.679   6.183  10.162 -0.4471 -2.3884  0.1837
  763MOL0     H 2942   2.905   6.073  10.320  1.2797 -0.5277 -2.7468
  763MOL0     H 2943   2.770   6.176  10.361  0.9606 -0.5420  1.5635
  763MOL0     H 2944   2.710   5.892  10.254  1.3517 -2.4837  1.3686
  763MOL0     H 2945   2.753   5.918  10.416  1.1259 -0.8556 -2.3373
  763MOL0     H 2946   2.557   6.088  10.427  1.2249 -0.3539  0.4254
  763MOL0     H 2947   2.517   6.036  10.256  1.7795  0.0063 -0.3903
  763MOL0     H 2948   2.488   5.804  10.323 -0.8992 -0.2580  0.4534
  763MOL0     H 2949   2.507   5.845  10.489  1.6747 -0.2051 -2.0866
  763MOL0     H 2950   2.313   5.998  10.476  0.2628  1.8333 -1.5312
  763MOL0     H 2951   2.294   5.961  10.303 -1.3207  1.2764  0.5077
  763MOL0     H 2952   2.262   5.729  10.348  1.6498  2.1827 -1.3564
  763MOL0     H 2953   2.244   5.757  10.522 -1.8986  2.8753  1.9500
  763MOL0     H 2954   2.061   5.952  10.409  2.3360  0.6589 -0.0024
  763MOL0     H 2955   2.032   5.776  10.477  1.0160 -0.0098  1.0132
  763MOL0     H 2956   2.063   5.573  10.278  1.8709 -0.4278 -1.5597
  763MOL0     H 2957   2.035   5.609   9.909  0.3853 -0.1736  0.4017
  763MOL0     H 2958   2.040   5.482  10.028  1.3695  0.5414 -1.1148
  763MOL0     H 2959   1.788   5.633   9.968 -3.1870 -0.0108  4.4452
  763MOL0     H 2960   1.797   5.531  10.098  2.4756  4.4080  1.8683
  763MOL0     H 2961   1.873   5.340   9.909  0.0779 -0.7229 -0.0169
  763MOL0     H 2962   1.813   5.466   9.806 -1.1439  0.9458  0.0981
  763MOL0     H 2963   1.645   5.308  10.012 -1.3200 -0.7868 -0.2184
  763MOL0     H 2964   1.633   5.310   9.842 -0.7860 -0.7985  0.7994
  763MOL0     H 2965   1.455   5.647  10.088  1.4901 -1.2503  0.4932
  763MOL0     H 2966   1.212   5.618  10.305 -2.5132  1.6707  0.9738
  763MOL0     H 2967   1.285   5.742  10.200  0.2651 -0.2804  5.1619
  763MOL0     H 2968   1.112   5.686  10.177 -1.6610 -2.0266  2.8512
  763MOL0     H 2969   0.769   5.404  10.096 -0.5283  1.1700  3.5449
  763MOL0     H 2970   0.555   5.313  10.164 -0.1243  1.2297 -0.8381
  763MOL0     H 2971   0.515   4.859  10.242  2.9955  0.9417  0.0017
  763MOL0     H 2972   0.556   4.909  10.405  1.1436 -3.2400 -0.7391
  763MOL0     H 2973   0.353   4.823  10.434  1.6998  1.2895  2.7869
  763MOL0     H 2974   0.317   4.996  10.424  1.4567 -0.1375  0.7717
  763MOL0     H 2975   0.229   4.768  10.248 -1.2925  0.4412  2.1169
  763MOL0     H 2976   0.275   4.915  10.159  1.9488  0.9938 -0.6710
  763MOL0     H 2977   0.077   4.887  10.394 -0.0074  2.3082  1.3306
  763MOL0     H 2978   0.116   5.038  10.315  0.7852 -1.1090  1.2489
  763MOL0     H 2979   0.012   4.780  10.175  3.2117  0.0397 -2.0172
  763MOL0     H 2980   0.046   4.929  10.090  1.6855 -2.0946 -0.3097
  763MOL0     H 2981  -0.174   4.898  10.310 -0.8670  0.1040 -0.9408
  763MOL0     H 2982  -0.143   5.047  10.213 -0.6965 -0.1561 -3.2795
  763MOL0     H 2983  -0.223   4.797  10.079 -3.7889 -0.9287  1.8879
  763MOL0     H 2984  -0.225   4.966  10.012  2.0968  0.3013 -0.6102
  763MOL0     H 2985  -0.386   5.036  10.181 -0.7566  0.4748 -0.2299
  763MOL0     H 2986  -0.416   4.862  10.218 -3.7927  0.9729 -1.0972
  763MOL0     H 2987   0.745   4.930  10.248 -0.4455 -0.5470 -0.9994
  763MOL0     H 2988   0.953   5.030  10.179  0.8566  1.5615  2.7500
  763MOL0     H 2989   1.190   5.262   9.936  1.1910 -0.1748  0.5503
  763MOL0     H 2990   1.416   5.283   9.868  0.2208 -0.2525 -1.0668
  763MOL0     H 2991   3.047   6.181  10.064 -1.2496  0.8438 -1.7857
  763MOL0     H 2992   3.267   6.064  10.006 -0.0076  1.6281  5.0211
  763MOL0     H 2993   3.527   5.762  10.010  0.2010  0.5721  0.7357
  763MOL0     H 2994   3.771   5.760   9.984 -2.0729 -0.3749  1.3931
  763MOL0     H 2995   3.906   5.619   9.733  0.0459  1.1929  0.4827
  763MOL0     H 2996   4.014   5.708   9.634 -1.6175 -3.1903 -0.8477
  763MOL0     H 2997   4.131   5.569   9.789  0.4633  0.2344 -1.7173
  763MOL0     H 2998   4.060   5.638   9.928 -1.1919 -0.3630 -0.1965
  763MOL0     H 2999   4.283   5.729   9.883 -0.9002 -0.6091  0.1592
  763MOL0     H 3000   4.152   5.848   9.916 -1.3546  0.0814 -1.1781
  763MOL0     H 3001   4.294   5.952   9.743 -0.7948  1.1491 -1.0134
  763MOL0     H 3002   4.145   5.906   9.669 -0.1619  1.0439  2.4589
  763MOL0     H 3003   4.386   5.614   9.472 -4.0286 -1.0695 -0.6248
  763MOL0     H 3004   3.748   5.867   9.573 -0.6852 -0.5776 -0.9394
  763MOL0     H 3005   3.494   5.902   9.591 -2.3462  0.0575  2.0173
  764MOL0     O 3006   1.273  11.033   2.540 -0.2185 -0.3539  0.4106
  764MOL0     C 3007   1.330  10.960   2.460 -0.2148  0.8340  0.1318
  764MOL0     O 3008   1.269  10.871   2.375  0.5424 -0.1217 -0.0446
  764MOL0     C 3009   1.137  10.857   2.377  1.6358  0.4725 -0.1121
  764MOL0     C 3010   1.076  10.847   2.253  0.5921 -0.3942 -0.0868
  764MOL0     C 3011   0.940  10.822   2.235  0.5980  0.1511 -0.7037
  764MOL0     C 3012   0.856  10.818   2.352 -0.1678 -0.2437  0.2974
  764MOL0     O 3013   0.722  10.827   2.331  0.4639  0.0778  0.4706
  764MOL0     C 3014   0.636  10.821   2.441  0.3109  0.3995 -0.3348
  764MOL0     C 3015   0.490  10.854   2.403 -0.3192  1.1073  0.2922
  764MOL0     C 3016   0.380  10.815   2.505  0.5716  0.0442 -0.2033
  764MOL0     C 3017   0.254  10.893   2.480  0.1273 -0.7210  0.5078
  764MOL0     C 3018   0.203  10.866   2.336 -0.7508  0.0462 -0.9803
  764MOL0     C 3019   0.065  10.937   2.329  0.1233 -1.2400  0.0224
  764MOL0     C 3020  -0.027  10.862   2.242 -1.3733 -0.4708  0.8836
  764MOL0     C 3021  -0.168  10.927   2.232 -0.4085 -0.2836  0.1233
  764MOL0     N 3022  -0.255  10.843   2.157  0.0148  1.1588  0.2772
  764MOL0     C 3023  -0.295  10.870   2.034  1.6842  0.2607 -0.5631
  764MOL0     C 3024  -0.359  10.755   1.990 -0.5491 -0.3167  0.1748
  764MOL0     C 3025  -0.446  10.742   1.874  0.3681 -0.1834  0.2999
  764MOL0     C 3026  -0.414  10.620   1.784  0.0650 -0.7272 -0.4719
  764MOL0     C 3027  -0.473  10.629   1.646 -0.2138 -0.2269 -0.5979
  764MOL0     C 3028  -0.629  10.658   1.656  0.4894  0.1393  0.2568
  764MOL0     O 3029  -0.680  10.602   1.533  0.1048  0.1800  0.4532
  764MOL0     C 3030  -0.814  10.623   1.535 -0.8322 -0.8124 -0.1989
  764MOL0     C 3031  -0.877  10.723   1.460 -0.7894 -0.1332  0.2868
  764MOL0     C 3032  -1.008  10.711   1.420  1.4352 -1.0265 -0.0763
  764MOL0     C 3033  -1.070  10.820   1.343  0.3428  0.4746  0.2452
  764MOL0     C 3034  -1.089  10.607   1.474 -0.2476  0.1195 -0.0572
  764MOL0     C 3035  -1.237  10.588   1.446 -0.2435 -0.8986 -0.7654
  764MOL0     O 3036  -1.293  10.519   1.546 -0.3918  0.2534  0.1544
  764MOL0     C 3037  -1.431  10.515   1.545  0.5321  0.8154 -0.4561
  764MOL0     C 3038  -1.514  10.621   1.598 -0.1558  0.1066  0.6951
  764MOL0     C 3039  -1.649  10.614   1.594  0.2578 -0.3505  0.4572
  764MOL0     C 3040  -1.714  10.498   1.555 -0.3375  0.3211  0.0702
  764MOL0     O 3041  -1.853  10.478   1.569  0.4580  0.5450  0.1895
  764MOL0     C 3042  -1.884  10.352   1.631 -0.4226  0.4303 -0.6879
  764MOL0     C 3043  -2.013  10.368   1.708 -0.1429 -0.3590  0.2056
  764MOL0     C 3044  -2.007  10.486   1.804  0.4825  0.2062 -0.4884
  764MOL0     C 3045  -2.101  10.470   1.931 -0.1664 -0.3660  0.2870
  764MOL0     C 3046  -2.191  10.594   1.969  0.2035  0.4200 -0.3476
  764MOL0     C 3047  -2.109  10.689   2.056  0.4029 -0.7580 -0.2309
  764MOL0     C 3048  -2.206  10.799   2.098 -0.9998  0.4068 -0.4688
  764MOL0     C 3049  -2.145  10.902   2.190 -0.2618 -0.4245  0.3132
  764MOL0    Cl 3050  -2.283  11.007   2.234  0.4145 -0.4331 -0.3109
  764MOL0     C 3051  -1.631  10.401   1.504  0.3875  0.6457  0.5165
  764MOL0     C 3052  -1.492  10.409   1.495 -0.1468  0.1292  0.1637
  764MOL0     O 3053  -1.293  10.644   1.354  1.0772 -0.0545 -0.4312
  764MOL0     C 3054  -1.020  10.515   1.554  0.4001  0.5211  0.3147
  764MOL0     C 3055  -0.886  10.526   1.589  0.1666  0.2464 -0.1313
  764MOL0     N 3056  -0.358  10.667   2.089  0.0708 -1.0760 -0.2666
  764MOL0     N 3057  -0.286  10.713   2.192  0.0623 -0.3410  0.1896
  764MOL0     C 3058   0.917  10.825   2.476 -0.5299  0.1061 -0.3194
  764MOL0     C 3059   1.054  10.839   2.489 -0.0167  0.8490 -0.6678
  764MOL0     C 3060   1.479  10.962   2.462 -0.1572 -0.1050 -0.5099
  764MOL0     C 3061   1.549  11.021   2.569 -0.8660  0.4111  0.2327
  764MOL0     C 3062   1.689  11.020   2.578  1.0063 -0.5605  0.1360
  764MOL0     C 3063   1.755  10.948   2.480  0.0731 -0.1640  1.8160
  764MOL0     O 3064   1.888  10.916   2.479  0.1783 -0.1326 -0.1010
  764MOL0     C 3065   1.973  11.032   2.513 -0.3529 -1.1980  0.3559
  764MOL0     C 3066   2.115  11.008   2.455  0.6563 -0.1117 -0.1200
  764MOL0     C 3067   2.211  11.122   2.480 -0.0201 -0.0263 -0.0556
  764MOL0     C 3068   2.345  11.066   2.436 -0.2259 -0.1071  0.9442
  764MOL0     C 3069   2.442  11.173   2.462  0.3474 -0.4684 -0.0583
  764MOL0     C 3070   2.501  11.275   2.471  0.7427 -0.8605 -0.0365
  764MOL0     C 3071   1.683  10.886   2.374  0.3818 -0.2564 -1.1179
  764MOL0     C 3072   1.548  10.898   2.362  0.8426 -0.1857 -0.5476
  764MOL0     H 3073   1.137  10.876   2.169 -0.5772 -0.4538 -0.9834
  764MOL0     H 3074   0.892  10.830   2.138  0.1880  0.6047 -0.4686
  764MOL0     H 3075   0.651  10.723   2.487 -1.3315  0.0844 -0.4473
  764MOL0     H 3076   0.654  10.891   2.523  1.8508  1.0867 -1.2100
  764MOL0     H 3077   0.484  10.957   2.366 -0.2912  1.4553  1.2245
  764MOL0     H 3078   0.487  10.783   2.319  0.6424 -1.0475  1.9702
  764MOL0     H 3079   0.362  10.707   2.499 -0.8953  0.1343  1.8315
  764MOL0     H 3080   0.416  10.832   2.607 -1.0796 -0.9393  0.5809
  764MOL0     H 3081   0.180  10.880   2.559 -0.3462  0.8088  0.3569
  764MOL0     H 3082   0.283  10.998   2.490  1.0304 -1.0639  1.8192
  764MOL0     H 3083   0.273  10.902   2.260 -1.1276  3.9213  0.3206
  764MOL0     H 3084   0.180  10.759   2.330  1.0894 -0.6578  2.2038
  764MOL0     H 3085   0.021  10.940   2.429  0.7228 -1.3003  0.2920
  764MOL0     H 3086   0.077  11.039   2.291  1.6130 -1.0559  0.9362
  764MOL0     H 3087   0.020  10.859   2.143 -5.3566 -1.3588 -1.1979
  764MOL0     H 3088  -0.036  10.767   2.295 -0.0614 -0.1086  1.7934
  764MOL0     H 3089  -0.162  11.028   2.189 -2.6941  0.8813  2.2760
  764MOL0     H 3090  -0.209  10.946   2.331 -0.7525 -1.2933  0.1793
  764MOL0     H 3091  -0.290  10.965   1.983  0.3255 -0.7125 -2.7016
  764MOL0     H 3092  -0.549  10.733   1.910  0.7832  0.6392  1.7859
  764MOL0     H 3093  -0.431  10.839   1.825 -1.3642 -0.5931 -1.1352
  764MOL0     H 3094  -0.439  10.524   1.829  2.1750 -1.6744 -1.1765
  764MOL0     H 3095  -0.306  10.623   1.766  0.1526  0.5445  0.1548
  764MOL0     H 3096  -0.455  10.533   1.597  0.5096 -0.9972  1.1187
  764MOL0     H 3097  -0.436  10.710   1.583  0.0867  1.1661  1.2947
  764MOL0     H 3098  -0.644  10.765   1.670 -0.4105 -0.0438  0.8200
  764MOL0     H 3099  -0.674  10.611   1.744 -0.6272  2.2003  0.8529
  764MOL0     H 3100  -0.816  10.809   1.434 -2.7400  0.9809 -0.8627
  764MOL0     H 3101  -1.148  10.865   1.406 -1.7110  0.6341 -2.2552
  764MOL0     H 3102  -0.994  10.895   1.320  0.3070 -0.1578 -2.2035
  764MOL0     H 3103  -1.109  10.784   1.247  3.5744  0.2062 -1.0955
  764MOL0     H 3104  -1.467  10.708   1.642 -0.6962  0.4110  0.6807
  764MOL0     H 3105  -1.713  10.691   1.637  0.5619  0.2183 -0.0987
  764MOL0     H 3106  -1.892  10.273   1.556 -2.6099 -1.7043  1.6075
  764MOL0     H 3107  -1.809  10.330   1.708 -1.4803  2.0797  0.8908
  764MOL0     H 3108  -2.091  10.383   1.634  0.6042 -1.1224 -0.7633
  764MOL0     H 3109  -2.034  10.275   1.761  1.0191 -1.2930 -0.9227
  764MOL0     H 3110  -2.051  10.570   1.749  0.8138  1.9280  1.7288
  764MOL0     H 3111  -1.906  10.517   1.833  0.0628  2.1914 -0.9387
  764MOL0     H 3112  -2.172  10.387   1.918 -0.8632 -0.4425  3.6726
  764MOL0     H 3113  -2.028  10.447   2.008  1.2681  0.8757 -0.6552
  764MOL0     H 3114  -2.284  10.566   2.018  1.1926  1.3660  2.2323
  764MOL0     H 3115  -2.224  10.636   1.873 -1.6585  0.8070  0.4213
  764MOL0     H 3116  -2.077  10.633   2.145 -1.2985 -0.4773  0.6124
  764MOL0     H 3117  -2.033  10.739   1.996 -1.7176  0.2297 -2.2293
  764MOL0     H 3118  -2.286  10.750   2.153 -0.2741 -1.5382 -1.0568
  764MOL0     H 3119  -2.253  10.858   2.019 -0.6183  0.2886 -0.7888
  764MOL0     H 3120  -2.068  10.968   2.150 -1.5676  1.4267  0.6802
  764MOL0     H 3121  -2.105  10.844   2.274 -0.6164 -1.9505 -0.5390
  764MOL0     H 3122  -1.674  10.304   1.483  1.1819  0.3414  0.2504
  764MOL0     H 3123  -1.438  10.322   1.460 -3.6509 -0.7615 -3.8366
  764MOL0     H 3124  -1.065  10.437   1.614 -0.8927  1.4155  0.5398
  764MOL0     H 3125  -0.833  10.448   1.644 -2.3601 -0.7852  0.9584
  764MOL0     H 3126   0.853  10.831   2.564 -2.8694  0.6789 -1.9709
  764MOL0     H 3127   1.092  10.821   2.589  3.0397  1.0654 -1.7028
  764MOL0     H 3128   1.490  11.073   2.644 -1.2774  0.9874 -0.4815
  764MOL0     H 3129   1.738  11.058   2.667  0.3248 -1.9219  1.1294
  764MOL0     H 3130   1.933  11.118   2.458  1.5910 -0.1432  0.5064
  764MOL0     H 3131   1.966  11.051   2.620  2.5916  0.4867  0.3493
  764MOL0     H 3132   2.102  10.990   2.348 -1.5051 -1.0840  0.2683
  764MOL0     H 3133   2.161  10.919   2.500  0.4533 -0.6941 -1.0436
  764MOL0     H 3134   2.211  11.148   2.586 -1.7174 -1.8212  0.4433
  764MOL0     H 3135   2.202  11.212   2.419  1.7192 -0.2864 -0.7696
  764MOL0     H 3136   2.344  11.037   2.331 -2.8517 -1.1715  1.1786
  764MOL0     H 3137   2.386  10.981   2.491  1.6197  0.4862  0.5581
  764MOL0     H 3138   2.543  11.372   2.482  0.4808 -0.8117  0.5710
  764MOL0     H 3139   1.746  10.848   2.295  2.3038  0.2424  0.1155
  764MOL0     H 3140   1.501  10.849   2.277  0.7671  0.4566 -0.8826
  765MOL0     O 3141   0.414   8.067   0.149 -0.2222  1.2657  0.0622
  765MOL0     C 3142   0.445   8.014   0.041 -0.2005 -0.0941  0.0677
  765MOL0     O 3143   0.380   7.910  -0.021 -0.5112  0.1274  0.3225
  765MOL0     C 3144   0.245   7.886   0.014 -1.0273  0.3250  0.4647
  765MOL0     C 3145   0.146   7.980   0.039 -0.0348 -0.3615 -0.0541
  765MOL0     C 3146   0.005   7.946   0.046  0.5169  0.3752 -0.0286
  765MOL0     C 3147  -0.028   7.809   0.028 -0.6001 -0.8863 -0.4152
  765MOL0     O 3148  -0.159   7.761   0.028  0.3502 -0.0411  0.1955
  765MOL0     C 3149  -0.243   7.810  -0.069  0.7637  0.1537 -0.1461
  765MOL0     C 3150  -0.391   7.756  -0.053  0.9580  0.1652 -0.4266
  765MOL0     C 3151  -0.492   7.821  -0.148 -0.2765  0.5267 -0.3416
  765MOL0     C 3152  -0.612   7.728  -0.162  0.8622  0.6348  0.1850
  765MOL0     C 3153  -0.717   7.784  -0.257 -0.0667  0.9755  0.0887
  765MOL0     C 3154  -0.658   7.803  -0.404  0.3832 -0.2266  0.3227
  765MOL0     C 3155  -0.761   7.768  -0.524  0.2252 -0.6168  0.2391
  765MOL0     C 3156  -0.701   7.811  -0.665  0.9795  0.5332  0.4553
  765MOL0     N 3157  -0.705   7.949  -0.695  0.3221  0.4060  0.2935
  765MOL0     C 3158  -0.819   8.021  -0.713 -0.2538 -0.7971 -0.5712
  765MOL0     C 3159  -0.774   8.144  -0.752  0.4441  0.3110  0.0846
  765MOL0     C 3160  -0.863   8.258  -0.794 -0.4321  0.7787 -0.1017
  765MOL0     C 3161  -0.974   8.213  -0.897 -0.3892 -0.1861  0.0068
  765MOL0     C 3162  -1.095   8.301  -0.915 -0.0433 -0.4250  0.2840
  765MOL0     C 3163  -1.214   8.297  -0.812  0.0416  0.5129  0.1144
  765MOL0     O 3164  -1.288   8.175  -0.829 -0.6293 -0.2441 -0.3531
  765MOL0     C 3165  -1.398   8.172  -0.914 -0.3346 -0.1000 -1.1485
  765MOL0     C 3166  -1.415   8.269  -1.013 -0.0743  0.3568 -0.4129
  765MOL0     C 3167  -1.524   8.261  -1.100  0.2043 -0.3760 -0.4489
  765MOL0     C 3168  -1.529   8.349  -1.228  0.0328  0.0258 -0.0886
  765MOL0     C 3169  -1.622   8.169  -1.073 -0.7623 -0.4662 -0.9295
  765MOL0     C 3170  -1.756   8.181  -1.142  0.2189 -0.9290  0.0638
  765MOL0     O 3171  -1.817   8.304  -1.140 -0.8328 -0.2987  0.2240
  765MOL0     C 3172  -1.947   8.323  -1.194  0.3278 -0.1863  0.4533
  765MOL0     C 3173  -2.038   8.412  -1.132 -0.1181 -0.3586 -0.1468
  765MOL0     C 3174  -2.168   8.430  -1.181 -1.0248 -0.2316  0.3587
  765MOL0     C 3175  -2.221   8.362  -1.296  0.0006  0.1314  0.0490
  765MOL0     O 3176  -2.351   8.387  -1.326  0.1292 -0.2581 -0.4002
  765MOL0     C 3177  -2.409   8.338  -1.446  0.4052 -0.1897 -0.0355
  765MOL0     C 3178  -2.542   8.405  -1.493 -0.1481 -0.6771 -0.0266
  765MOL0     C 3179  -2.663   8.363  -1.407  0.8395 -0.4733  1.2821
  765MOL0     C 3180  -2.797   8.392  -1.478 -0.1073 -0.1199  0.7410
  765MOL0     C 3181  -2.906   8.439  -1.377 -1.1487  0.3399 -0.2363
  765MOL0     C 3182  -2.976   8.324  -1.304  0.0124 -0.2094 -0.0971
  765MOL0     C 3183  -3.118   8.373  -1.256 -0.0034  0.7467  1.3762
  765MOL0     C 3184  -3.231   8.375  -1.369 -0.0499 -0.0198  1.1848
  765MOL0    Cl 3185  -3.284   8.201  -1.383 -0.5044  0.4539 -0.2877
  765MOL0     C 3186  -2.126   8.276  -1.359  0.9460  0.3546 -0.5049
  765MOL0     C 3187  -1.996   8.258  -1.307  0.5321  0.9643 -0.3227
  765MOL0     O 3188  -1.819   8.074  -1.163 -0.4180  0.5265  0.4747
  765MOL0     C 3189  -1.597   8.060  -0.979  0.3881  0.3250  0.0377
  765MOL0     C 3190  -1.485   8.065  -0.897  0.6794 -0.5840 -0.8174
  765MOL0     N 3191  -0.641   8.147  -0.753  0.0788  0.8636 -0.2539
  765MOL0     N 3192  -0.597   8.025  -0.719  0.1730 -0.8083  0.4223
  765MOL0     C 3193   0.073   7.721  -0.008 -0.3174 -0.4349  0.9015
  765MOL0     C 3194   0.202   7.753  -0.010 -0.0015  0.4705 -0.5534
  765MOL0     C 3195   0.581   8.048  -0.013 -0.0030  0.4967  0.2576
  765MOL0     C 3196   0.661   8.149   0.042 -0.2576 -0.2369  0.1566
  765MOL0     C 3197   0.793   8.170  -0.001 -0.0169 -0.1667  0.3300
  765MOL0     C 3198   0.837   8.104  -0.120  0.2504 -0.5415 -0.1435
  765MOL0     O 3199   0.967   8.114  -0.163  0.2891 -0.4226 -0.0220
  765MOL0     C 3200   1.055   8.214  -0.104 -0.3387 -0.1294 -0.5521
  765MOL0     C 3201   1.192   8.195  -0.173 -0.9439  0.3299  0.3122
  765MOL0     C 3202   1.293   8.289  -0.111  0.0026 -0.0826 -0.2888
  765MOL0     C 3203   1.330   8.259   0.042 -0.1839  0.3034 -0.0994
  765MOL0     C 3204   1.460   8.309   0.085  0.3078 -0.2931  0.8151
  765MOL0     C 3205   1.562   8.366   0.110 -0.5404  0.1054  0.6116
  765MOL0     C 3206   0.745   8.014  -0.184  0.0008  0.3916  0.2699
  765MOL0     C 3207   0.622   7.986  -0.132  0.0214 -1.0876 -0.4886
  765MOL0     H 3208   0.179   8.084   0.044  0.4478 -0.5818  2.8064
  765MOL0     H 3209  -0.069   8.026   0.046  2.7361  2.5796 -0.9001
  765MOL0     H 3210  -0.241   7.918  -0.052  0.2625  0.0789  0.4424
  765MOL0     H 3211  -0.196   7.794  -0.166  0.1220 -1.3517 -0.2259
  765MOL0     H 3212  -0.383   7.649  -0.076 -0.8601 -0.7072  2.4899
  765MOL0     H 3213  -0.425   7.751   0.051 -1.7703 -0.0296 -1.2522
  765MOL0     H 3214  -0.529   7.912  -0.099 -1.8350 -2.1522  3.9712
  765MOL0     H 3215  -0.445   7.847  -0.244  0.9889  0.2493  0.1879
  765MOL0     H 3216  -0.575   7.631  -0.198  1.6741 -0.7322  4.1599
  765MOL0     H 3217  -0.653   7.702  -0.064  1.2526  2.4968  0.8876
  765MOL0     H 3218  -0.799   7.713  -0.258  1.9055 -1.4300 -0.4533
  765MOL0     H 3219  -0.738   7.886  -0.224  0.8233  0.3001  2.9960
  765MOL0     H 3220  -0.632   7.909  -0.416 -2.8817  0.8728  1.7800
  765MOL0     H 3221  -0.568   7.744  -0.422  2.2551  2.3314  0.7970
  765MOL0     H 3222  -0.789   7.662  -0.523 -0.0729 -0.9074 -5.3147
  765MOL0     H 3223  -0.856   7.822  -0.512 -0.5655 -1.5751 -1.2985
  765MOL0     H 3224  -0.755   7.752  -0.739  0.2018  2.2585 -0.3962
  765MOL0     H 3225  -0.595   7.786  -0.676  1.6296  2.7286  1.1817
  765MOL0     H 3226  -0.923   7.992  -0.701 -1.0688  1.6253 -1.0728
  765MOL0     H 3227  -0.914   8.296  -0.705 -1.6935  1.6923 -1.1666
  765MOL0     H 3228  -0.805   8.341  -0.835  1.4351 -1.7493 -3.0264
  765MOL0     H 3229  -1.000   8.108  -0.877 -0.5096 -0.6894 -2.5477
  765MOL0     H 3230  -0.924   8.214  -0.994 -2.2632 -3.6250 -1.1716
  765MOL0     H 3231  -1.148   8.279  -1.008 -0.0508  0.8008 -0.0163
  765MOL0     H 3232  -1.056   8.402  -0.926 -2.5886  1.0189  2.9317
  765MOL0     H 3233  -1.265   8.392  -0.827  3.7463  2.2606 -2.6812
  765MOL0     H 3234  -1.177   8.295  -0.709  0.7854 -0.1753 -0.1520
  765MOL0     H 3235  -1.333   8.338  -1.029  0.6319 -0.3803 -0.0637
  765MOL0     H 3236  -1.592   8.438  -1.224 -0.0453 -0.0377  0.1257
  765MOL0     H 3237  -1.427   8.379  -1.252 -0.3936  0.5343 -1.3205
  765MOL0     H 3238  -1.565   8.291  -1.313 -1.0688 -1.9096  1.5899
  765MOL0     H 3239  -2.011   8.474  -1.048  2.0241 -0.7523 -0.4749
  765MOL0     H 3240  -2.223   8.496  -1.114  3.1835  1.6116  2.3533
  765MOL0     H 3241  -2.342   8.338  -1.533 -0.8304 -2.3452 -1.0815
  765MOL0     H 3242  -2.437   8.233  -1.431  0.1878 -0.1667 -0.2852
  765MOL0     H 3243  -2.523   8.512  -1.488  0.8738 -0.6732 -2.5495
  765MOL0     H 3244  -2.547   8.376  -1.599 -0.2870  1.6096 -0.6979
  765MOL0     H 3245  -2.656   8.433  -1.323 -0.5135 -0.2823  1.2484
  765MOL0     H 3246  -2.658   8.259  -1.374 -0.8904 -0.2246  2.4803
  765MOL0     H 3247  -2.793   8.472  -1.552 -0.4984 -0.5162  0.2803
  765MOL0     H 3248  -2.835   8.304  -1.532  1.9875 -1.2224  0.9479
  765MOL0     H 3249  -2.987   8.496  -1.424 -1.8546 -0.5873 -0.1745
  765MOL0     H 3250  -2.863   8.509  -1.305 -0.0460 -2.2924  1.8321
  765MOL0     H 3251  -2.993   8.239  -1.372 -2.6161  0.5054 -0.4482
  765MOL0     H 3252  -2.909   8.287  -1.226 -0.1641 -0.7827 -0.2105
  765MOL0     H 3253  -3.115   8.469  -1.204 -0.7987  0.4205  2.0553
  765MOL0     H 3254  -3.148   8.304  -1.176  0.9434 -0.9294  0.3452
  765MOL0     H 3255  -3.186   8.405  -1.465 -1.0415 -0.9017  0.4177
  765MOL0     H 3256  -3.315   8.443  -1.352  1.0026  1.3970  0.9086
  765MOL0     H 3257  -2.155   8.223  -1.449  4.1950  0.8630 -1.9875
  765MOL0     H 3258  -1.921   8.204  -1.364  3.0103  2.5442  1.2808
  765MOL0     H 3259  -1.678   7.988  -0.968  1.8529 -1.3282  0.3895
  765MOL0     H 3260  -1.470   7.995  -0.816  0.9347 -2.6308 -2.5237
  765MOL0     H 3261   0.039   7.619  -0.025 -1.1055  0.2076 -1.9595
  765MOL0     H 3262   0.277   7.679  -0.035  0.4863  0.8064 -0.1165
  765MOL0     H 3263   0.621   8.215   0.118 -1.2222  0.6928 -1.1128
  765MOL0     H 3264   0.861   8.234   0.054 -0.3221  1.6764 -1.3285
  765MOL0     H 3265   1.014   8.316  -0.102  0.4900  0.3422 -3.1117
  765MOL0     H 3266   1.069   8.201   0.003 -1.5315  1.8148 -0.1040
  765MOL0     H 3267   1.183   8.201  -0.282 -2.0596 -0.6305  0.3340
  765MOL0     H 3268   1.234   8.096  -0.155 -1.2499 -0.5518 -3.1666
  765MOL0     H 3269   1.253   8.391  -0.117  0.1977 -0.0677 -1.8082
  765MOL0     H 3270   1.383   8.289  -0.174  1.9755  1.0965  2.3722
  765MOL0     H 3271   1.323   8.154   0.075  0.4373  0.6381  1.1490
  765MOL0     H 3272   1.253   8.311   0.099  0.5433 -2.3490  3.7499
  765MOL0     H 3273   1.645   8.426   0.142 -0.3650 -0.0229  0.4001
  765MOL0     H 3274   0.781   7.962  -0.272 -2.7552 -1.4145  0.0885
  765MOL0     H 3275   0.568   7.908  -0.185  0.1832 -1.4025 -0.1966
  766MOL0     O 3276   7.415  11.042   9.796 -0.5312  0.4294 -0.3763
  766MOL0     C 3277   7.396  11.127   9.886  0.4249 -0.6844  1.2646
  766MOL0     O 3278   7.277  11.193   9.903  0.3387  0.2882  0.3560
  766MOL0     C 3279   7.168  11.146   9.826 -0.1324  0.3241 -0.3016
  766MOL0     C 3280   7.077  11.056   9.888 -0.0124 -0.2278 -0.6326
  766MOL0     C 3281   6.955  11.025   9.823 -0.7514 -0.0699 -0.3023
  766MOL0     C 3282   6.921  11.088   9.707 -0.1584 -0.2946  0.1825
  766MOL0     O 3283   6.792  11.079   9.647  0.1329 -0.3061 -0.2026
  766MOL0     C 3284   6.678  11.103   9.735 -0.1506  1.4379  0.1036
  766MOL0     C 3285   6.554  11.084   9.650  0.5311  0.2152  0.0297
  766MOL0     C 3286   6.431  11.098   9.738  0.5364  0.4998  1.1669
  766MOL0     C 3287   6.308  11.124   9.650  0.4916 -0.6254 -0.4071
  766MOL0     C 3288   6.295  11.031   9.525 -0.7565 -0.5060 -0.1665
  766MOL0     C 3289   6.220  10.896   9.558 -0.3455 -0.6746  0.2174
  766MOL0     C 3290   6.064  10.920   9.592 -0.4089  0.0218 -0.2383
  766MOL0     C 3291   6.019  10.779   9.640  0.7050  0.1641 -0.4023
  766MOL0     N 3292   5.923  10.791   9.747  0.3275  0.3556 -0.5433
  766MOL0     C 3293   5.937  10.847   9.874  0.0811  0.1414  0.4628
  766MOL0     C 3294   5.819  10.832   9.932 -0.1021  0.9411 -0.2566
  766MOL0     C 3295   5.787  10.877  10.071 -0.5409  0.1118 -0.5842
  766MOL0     C 3296   5.755  11.026  10.074 -0.2238 -0.2618  0.3786
  766MOL0     C 3297   5.690  11.075  10.202  0.3769 -0.1419 -0.0085
  766MOL0     C 3298   5.688  11.230  10.211  0.4429 -0.1663  0.2680
  766MOL0     O 3299   5.634  11.305  10.096  0.2003  0.1354 -0.1089
  766MOL0     C 3300   5.499  11.312  10.073  1.0997 -0.5629 -0.1809
  766MOL0     C 3301   5.401  11.249  10.145 -0.9250 -1.4949 -0.5208
  766MOL0     C 3302   5.271  11.249  10.105 -0.1247 -0.3988  0.5465
  766MOL0     C 3303   5.168  11.157  10.183  0.5103 -0.0868  0.3265
  766MOL0     C 3304   5.227  11.330   9.997 -0.0862 -0.3221  0.0343
  766MOL0     C 3305   5.093  11.315   9.931  0.2806 -0.8592  0.1397
  766MOL0     O 3306   5.059  11.418   9.843  0.4896  0.2137  0.0744
  766MOL0     C 3307   4.949  11.415   9.761  0.0262  0.3832 -0.3181
  766MOL0     C 3308   4.935  11.329   9.655  0.2530  0.5329 -0.0916
  766MOL0     C 3309   4.819  11.341   9.579  0.5750 -0.4406  0.0474
  766MOL0     C 3310   4.723  11.438   9.604 -0.1334 -0.4695 -0.0164
  766MOL0     O 3311   4.604  11.466   9.540  0.1452  0.5729  0.2539
  766MOL0     C 3312   4.541  11.361   9.461  0.5115  0.4373  1.1687
  766MOL0     C 3313   4.405  11.403   9.412 -0.4544  0.1798  0.6777
  766MOL0     C 3314   4.303  11.421   9.527 -0.4478  0.8502 -0.5925
  766MOL0     C 3315   4.289  11.569   9.575 -0.4729  0.2859 -1.1859
  766MOL0     C 3316   4.171  11.587   9.675 -0.3891 -0.7632 -0.2088
  766MOL0     C 3317   4.176  11.721   9.753 -0.3392  0.5835 -0.2588
  766MOL0     C 3318   4.119  11.837   9.671 -0.9162  0.6429 -0.1226
  766MOL0     C 3319   4.162  11.966   9.740  0.1732 -1.2276  0.1738
  766MOL0    Cl 3320   4.120  12.102   9.620 -0.1642  0.0191 -0.0875
  766MOL0     C 3321   4.736  11.518   9.719  1.1465  1.3082  0.4986
  766MOL0     C 3322   4.851  11.513   9.794 -0.3901  0.7002 -0.4111
  766MOL0     O 3323   5.025  11.221   9.951 -0.2236  0.4291 -0.1953
  766MOL0     C 3324   5.319  11.415   9.928 -0.6865 -0.2368 -1.1180
  766MOL0     C 3325   5.454  11.395   9.968 -0.3849  0.5018 -0.3662
  766MOL0     N 3326   5.727  10.770   9.849 -1.3281 -0.5344  0.9149
  766MOL0     N 3327   5.802  10.723   9.748 -0.1294  0.7754  0.1958
  766MOL0     C 3328   7.009  11.185   9.651 -0.9492 -1.0565 -0.5144
  766MOL0     C 3329   7.129  11.212   9.706  0.0092 -0.1260  0.1159
  766MOL0     C 3330   7.513  11.173   9.971 -0.0564 -0.0768 -0.3607
  766MOL0     C 3331   7.649  11.135   9.929  0.0581 -0.6358 -0.4827
  766MOL0     C 3332   7.752  11.184  10.008 -0.4100  0.5161  0.3138
  766MOL0     C 3333   7.735  11.262  10.123  0.6529 -0.1050  0.1114
  766MOL0     O 3334   7.842  11.299  10.195 -0.8349 -0.7793  0.3103
  766MOL0     C 3335   7.838  11.429  10.272  0.3883  0.9832 -0.2537
  766MOL0     C 3336   7.981  11.471  10.305 -0.0513 -0.0291 -0.5036
  766MOL0     C 3337   8.057  11.487  10.174 -0.9856 -0.1278  1.6791
  766MOL0     C 3338   8.210  11.510  10.193 -0.8272 -0.6032  0.3239
  766MOL0     C 3339   8.292  11.523  10.071 -0.6361 -0.6706  0.6856
  766MOL0     C 3340   8.370  11.515   9.975 -0.9969  0.1145 -0.3629
  766MOL0     C 3341   7.606  11.288  10.160  0.3237  1.2047  0.6314
  766MOL0     C 3342   7.491  11.232  10.095 -0.4036 -0.1746 -0.5144
  766MOL0     H 3343   7.106  11.006   9.979 -0.2313 -2.7052 -1.8517
  766MOL0     H 3344   6.899  10.942   9.865  0.3828 -0.1972  1.0134
  766MOL0     H 3345   6.672  11.031   9.817  1.3501 -1.0673 -1.8512
  766MOL0     H 3346   6.674  11.205   9.776 -0.0535  1.9561 -1.1196
  766MOL0     H 3347   6.554  11.161   9.572  0.7438  2.9555  2.5641
  766MOL0     H 3348   6.563  10.987   9.599  3.0305  0.7947 -0.7492
  766MOL0     H 3349   6.423  11.000   9.786  0.4425 -2.6025 -4.2368
  766MOL0     H 3350   6.440  11.181   9.809  1.7475  1.5824 -0.1791
  766MOL0     H 3351   6.224  11.125   9.720  0.2605  1.9326 -0.6305
  766MOL0     H 3352   6.314  11.227   9.616 -0.8656  0.1721  1.6041
  766MOL0     H 3353   6.225  11.084   9.460 -0.7007  0.4597  0.5432
  766MOL0     H 3354   6.393  11.032   9.475  1.1192  1.4301  3.1442
  766MOL0     H 3355   6.216  10.834   9.468 -0.8656  0.7822 -0.8074
  766MOL0     H 3356   6.276  10.843   9.635  1.0470 -2.6510 -2.0178
  766MOL0     H 3357   6.056  10.995   9.671 -0.8316  0.4874 -0.7156
  766MOL0     H 3358   6.007  10.944   9.502 -1.9063 -2.5198 -0.0808
  766MOL0     H 3359   6.105  10.727   9.683  0.1877  1.6245  2.6768
  766MOL0     H 3360   5.976  10.722   9.558  1.5274 -0.9923 -0.0565
  766MOL0     H 3361   6.027  10.893   9.914  0.9200 -1.0607  0.0253
  766MOL0     H 3362   5.707  10.813  10.109  0.5308 -0.1558  1.3564
  766MOL0     H 3363   5.878  10.857  10.128  0.5883  3.8268 -0.7931
  766MOL0     H 3364   5.690  11.044   9.988 -0.3720 -0.1286  0.5174
  766MOL0     H 3365   5.850  11.078  10.056  0.0970 -1.5793 -2.2703
  766MOL0     H 3366   5.751  11.025  10.277  1.9760  0.6804 -0.7139
  766MOL0     H 3367   5.592  11.026  10.202 -0.1142  0.4213 -4.3873
  766MOL0     H 3368   5.788  11.271  10.229  0.5657  0.3608 -1.4858
  766MOL0     H 3369   5.618  11.258  10.290 -4.0179 -2.0680 -2.6043
  766MOL0     H 3370   5.421  11.188  10.233 -0.0186  1.4586  1.4610
  766MOL0     H 3371   5.157  11.057  10.141 -0.7274 -1.2359  3.1664
  766MOL0     H 3372   5.207  11.145  10.284 -0.3368  1.3583  0.8524
  766MOL0     H 3373   5.071  11.206  10.185  0.3216 -0.4443  0.0461
  766MOL0     H 3374   5.009  11.252   9.637 -0.1720  0.5607 -2.3010
  766MOL0     H 3375   4.803  11.267   9.502 -0.0762 -0.8653  0.5708
  766MOL0     H 3376   4.603  11.345   9.372  2.2139 -0.5059  2.4464
  766MOL0     H 3377   4.540  11.269   9.520  1.7921  0.8034  1.8196
  766MOL0     H 3378   4.412  11.503   9.369 -0.8031  0.5386  1.4148
  766MOL0     H 3379   4.359  11.338   9.337 -2.8808  0.8147  1.5051
  766MOL0     H 3380   4.338  11.359   9.611 -0.9252  0.2782 -0.8134
  766MOL0     H 3381   4.205  11.378   9.510 -0.3217 -1.3404  3.1694
  766MOL0     H 3382   4.388  11.595   9.614 -0.4661  3.8248 -3.1434
  766MOL0     H 3383   4.260  11.626   9.486  0.7755 -1.6648 -2.9566
  766MOL0     H 3384   4.189  11.504   9.744  1.0171 -1.0876 -0.9452
  766MOL0     H 3385   4.070  11.579   9.633 -0.4652  0.6661 -0.3416
  766MOL0     H 3386   4.117  11.709   9.844  1.4544 -3.5412  0.6362
  766MOL0     H 3387   4.278  11.742   9.787  0.9842 -0.2760 -3.3025
  766MOL0     H 3388   4.010  11.837   9.667 -1.0355 -1.5139  1.3856
  766MOL0     H 3389   4.167  11.827   9.573  1.6893 -1.6624  1.2409
  766MOL0     H 3390   4.270  11.962   9.758 -0.0600  0.4449  2.4068
  766MOL0     H 3391   4.107  11.982   9.833 -1.5863 -2.7154 -0.5494
  766MOL0     H 3392   4.653  11.578   9.754 -1.2453 -2.8009  2.6794
  766MOL0     H 3393   4.864  11.577   9.881  1.6426 -1.5285  1.0498
  766MOL0     H 3394   5.289  11.484   9.850 -2.9299 -0.8034 -0.8267
  766MOL0     H 3395   5.528  11.456   9.918  1.6143  0.1703  2.0240
  766MOL0     H 3396   6.981  11.238   9.561 -1.7036 -2.2986 -1.0372
  766MOL0     H 3397   7.193  11.293   9.672  1.2379 -1.8854 -2.0437
  766MOL0     H 3398   7.670  11.089   9.833 -1.1347  0.0960 -1.1159
  766MOL0     H 3399   7.847  11.142   9.977 -0.2729  0.9711  0.1086
  766MOL0     H 3400   7.796  11.499  10.200  2.0811 -2.3769 -5.0191
  766MOL0     H 3401   7.784  11.409  10.365  0.4975  1.1775 -0.1498
  766MOL0     H 3402   8.025  11.387  10.360 -1.9966 -0.2833  0.7704
  766MOL0     H 3403   7.988  11.556  10.373  0.0672 -1.1956  0.9948
  766MOL0     H 3404   8.023  11.578  10.124  0.7803 -1.6308 -2.7248
  766MOL0     H 3405   8.045  11.410  10.098 -2.9357  0.7375  1.0524
  766MOL0     H 3406   8.249  11.440  10.268  2.0159  2.3010  1.8250
  766MOL0     H 3407   8.217  11.605  10.247  0.6788 -0.5987  0.1612
  766MOL0     H 3408   8.458  11.516   9.914  2.3058  2.6014  3.8790
  766MOL0     H 3409   7.580  11.333  10.256 -1.0003 -2.3264  2.1031
  766MOL0     H 3410   7.388  11.240  10.129  0.3098  1.1484  1.5104
  767MOL0     O 3411   7.242   1.453   2.004 -0.4876 -0.2778  0.6434
  767MOL0     C 3412   7.220   1.429   1.887 -0.3005  0.1970  0.3285
  767MOL0     O 3413   7.106   1.462   1.814 -0.5577  0.4256 -0.4401
  767MOL0     C 3414   7.004   1.539   1.862  0.4458  0.2752 -0.3409
  767MOL0     C 3415   7.007   1.636   1.961 -0.7245  0.3105 -0.6144
  767MOL0     C 3416   6.899   1.718   1.983  0.1764  1.3190 -0.3538
  767MOL0     C 3417   6.777   1.703   1.914 -0.8015  0.0294 -0.5761
  767MOL0     O 3418   6.674   1.782   1.948  0.0649 -0.1655 -0.3633
  767MOL0     C 3419   6.555   1.782   1.865 -0.8599 -1.4195  0.2893
  767MOL0     C 3420   6.477   1.907   1.902 -0.6803  0.2576  0.4516
  767MOL0     C 3421   6.339   1.890   1.831 -0.0875  0.1787  0.2517
  767MOL0     C 3422   6.247   2.003   1.881  0.5403  0.6014 -0.3754
  767MOL0     C 3423   6.122   2.016   1.784 -0.2809 -0.6038  0.5506
  767MOL0     C 3424   6.040   2.152   1.777  0.9044  0.3004 -0.3485
  767MOL0     C 3425   5.902   2.145   1.714  0.4475  0.0186 -0.9652
  767MOL0     C 3426   5.905   2.087   1.567  0.0427 -0.3938 -0.4292
  767MOL0     N 3427   5.771   2.049   1.530 -0.1869 -0.1608 -0.3874
  767MOL0     C 3428   5.662   2.029   1.606 -0.0909 -0.1076  0.2416
  767MOL0     C 3429   5.560   2.053   1.521  0.3783  0.9320  0.1553
  767MOL0     C 3430   5.421   2.042   1.560 -0.3369  0.2981  0.3741
  767MOL0     C 3431   5.380   1.897   1.594 -0.3626 -0.2286 -0.0135
  767MOL0     C 3432   5.234   1.872   1.590  0.3260 -0.0132 -0.3365
  767MOL0     C 3433   5.153   1.948   1.689 -0.1088  0.8045 -0.7420
  767MOL0     O 3434   5.165   1.883   1.818 -0.0631 -0.0666  0.2500
  767MOL0     C 3435   5.066   1.904   1.910  0.1046 -0.5725  0.1775
  767MOL0     C 3436   5.060   1.824   2.022  0.0489 -0.0309  0.0768
  767MOL0     C 3437   4.970   1.841   2.127 -0.1478  0.4098 -0.6270
  767MOL0     C 3438   4.980   1.749   2.250 -0.0429  0.7442  0.3157
  767MOL0     C 3439   4.878   1.952   2.120  0.1241  0.8262  0.0608
  767MOL0     C 3440   4.770   1.988   2.223  0.1124 -0.4002  0.4272
  767MOL0     O 3441   4.709   2.101   2.197 -0.0788  0.0092 -0.2400
  767MOL0     C 3442   4.587   2.135   2.242  1.6132 -0.3425  0.2513
  767MOL0     C 3443   4.475   2.054   2.203 -1.1466 -0.9402 -0.9231
  767MOL0     C 3444   4.349   2.091   2.244  0.1071  0.5419 -0.6275
  767MOL0     C 3445   4.321   2.208   2.320  0.5369  0.7965 -0.0301
  767MOL0     O 3446   4.191   2.251   2.338  0.1732  0.3353  0.2247
  767MOL0     C 3447   4.149   2.366   2.409 -0.4923  0.6798 -0.0446
  767MOL0     C 3448   4.009   2.373   2.439  0.3031  0.4218 -0.8151
  767MOL0     C 3449   3.953   2.231   2.482  1.1550 -0.3752  0.1392
  767MOL0     C 3450   4.035   2.136   2.569  0.0432  0.3424 -0.2606
  767MOL0     C 3451   3.948   2.042   2.644 -0.1095 -0.4073  0.2556
  767MOL0     C 3452   4.009   1.992   2.781 -0.6026 -0.3485  0.3933
  767MOL0     C 3453   3.908   1.906   2.860 -0.5050 -0.4629 -0.4506
  767MOL0     C 3454   3.970   1.834   2.974 -0.6027  0.1801  0.3010
  767MOL0    Cl 3455   4.038   1.672   2.926  0.4884  0.2389 -0.1603
  767MOL0     C 3456   4.434   2.282   2.360  0.2938  0.3247  0.1831
  767MOL0     C 3457   4.567   2.238   2.331  0.1297 -0.4586  0.3093
  767MOL0     O 3458   4.738   1.911   2.309 -0.1679 -1.1890 -0.3274
  767MOL0     C 3459   4.878   2.034   2.003  0.1197  1.3256 -0.5951
  767MOL0     C 3460   4.963   2.007   1.896  0.1664 -0.2488  0.2135
  767MOL0     N 3461   5.609   2.073   1.389  0.3498  0.1810 -0.7579
  767MOL0     N 3462   5.733   2.055   1.396 -0.4643 -0.3744 -0.5768
  767MOL0     C 3463   6.774   1.592   1.832  0.5591 -0.3461  0.5198
  767MOL0     C 3464   6.880   1.517   1.797  0.5880 -0.5362 -0.3965
  767MOL0     C 3465   7.323   1.345   1.813  0.1134 -0.3197 -0.6984
  767MOL0     C 3466   7.447   1.306   1.877  0.9554 -0.0201 -0.5283
  767MOL0     C 3467   7.535   1.224   1.805  0.2296  0.2163  0.0208
  767MOL0     C 3468   7.522   1.196   1.673  0.6640 -0.3804 -0.2784
  767MOL0     O 3469   7.604   1.101   1.625 -1.0138 -0.0126  0.4966
  767MOL0     C 3470   7.659   1.122   1.491  1.1625 -0.7609 -0.0872
  767MOL0     C 3471   7.771   1.017   1.466  0.3743  0.0166 -0.1122
  767MOL0     C 3472   7.889   1.040   1.567  0.6359 -0.3263 -0.1374
  767MOL0     C 3473   8.005   0.951   1.522  0.0400  0.3521 -0.6159
  767MOL0     C 3474   8.086   0.937   1.644  0.2145 -0.1368  0.5408
  767MOL0     C 3475   8.164   0.938   1.734  0.0711 -0.3484 -0.4459
  767MOL0     C 3476   7.407   1.245   1.603 -0.0001 -0.5372  0.2496
  767MOL0     C 3477   7.313   1.313   1.676 -0.1519 -0.2788  0.0716
  767MOL0     H 3478   7.107   1.647   2.002  0.0214  0.4878 -2.3843
  767MOL0     H 3479   6.898   1.805   2.048 -1.7346  2.5150 -1.8748
  767MOL0     H 3480   6.584   1.773   1.760  1.3911 -1.1529  0.8307
  767MOL0     H 3481   6.490   1.698   1.894  0.5785 -2.9550 -0.7803
  767MOL0     H 3482   6.466   1.908   2.011  2.2876  0.6450  0.8121
  767MOL0     H 3483   6.533   1.993   1.864  0.0511 -0.6967 -0.7034
  767MOL0     H 3484   6.363   1.909   1.726  1.0940  1.5252  0.7314
  767MOL0     H 3485   6.300   1.788   1.843  0.9406 -0.5408 -2.0864
  767MOL0     H 3486   6.218   1.984   1.984  0.4783  1.0517 -0.3111
  767MOL0     H 3487   6.289   2.103   1.882 -0.8872  1.2543 -1.3577
  767MOL0     H 3488   6.155   1.995   1.681 -0.6791  0.9085  0.0882
  767MOL0     H 3489   6.063   1.934   1.827 -1.8756 -1.0780 -2.2481
  767MOL0     H 3490   6.030   2.205   1.872 -3.5222  0.6910 -0.8636
  767MOL0     H 3491   6.090   2.226   1.714 -0.3854  2.8727  1.4573
  767MOL0     H 3492   5.842   2.086   1.783 -0.6586  3.9890  1.8463
  767MOL0     H 3493   5.859   2.245   1.710  1.8363  0.6053 -3.0844
  767MOL0     H 3494   5.980   2.008   1.558  2.6952  2.0335 -0.8976
  767MOL0     H 3495   5.932   2.166   1.497 -0.4959  0.7423  0.6033
  767MOL0     H 3496   5.643   2.014   1.712 -0.3149 -2.1312 -0.0426
  767MOL0     H 3497   5.402   2.111   1.642 -2.1106  0.4886 -0.1603
  767MOL0     H 3498   5.361   2.077   1.475 -0.2990  1.4500  0.8026
  767MOL0     H 3499   5.418   1.868   1.693  1.3124  0.6878 -0.3540
  767MOL0     H 3500   5.435   1.836   1.522  2.7880  3.3349 -0.9508
  767MOL0     H 3501   5.212   1.766   1.607 -3.2746  0.7758  0.8596
  767MOL0     H 3502   5.193   1.902   1.492  2.7764  1.6024 -0.9669
  767MOL0     H 3503   5.049   1.947   1.656 -0.8809 -0.3047  1.4973
  767MOL0     H 3504   5.191   2.049   1.707  3.5468 -0.6728  0.7536
  767MOL0     H 3505   5.131   1.743   2.033 -1.3623 -1.2087  0.7742
  767MOL0     H 3506   5.081   1.759   2.291 -1.1149  0.5927  3.2424
  767MOL0     H 3507   4.906   1.759   2.329 -1.5098  0.3451 -0.9562
  767MOL0     H 3508   4.965   1.650   2.206 -0.6610  1.0025 -0.0631
  767MOL0     H 3509   4.488   1.964   2.143  1.8758 -1.8461  0.8442
  767MOL0     H 3510   4.264   2.047   2.194  0.1857 -1.1742  0.6701
  767MOL0     H 3511   4.197   2.380   2.506 -3.1199  2.2378  1.1383
  767MOL0     H 3512   4.176   2.459   2.357  0.3500 -1.0331 -2.9122
  767MOL0     H 3513   3.999   2.449   2.517  2.4386 -1.4340  1.4288
  767MOL0     H 3514   3.953   2.425   2.361  0.7689 -0.0024 -1.4421
  767MOL0     H 3515   3.921   2.183   2.389 -1.0822 -2.2106  1.7313
  767MOL0     H 3516   3.864   2.255   2.541  0.7227 -1.9117  0.1449
  767MOL0     H 3517   4.101   2.075   2.506  1.2222  2.1714 -0.8648
  767MOL0     H 3518   4.092   2.183   2.650  1.5040 -0.9476 -0.4853
  767MOL0     H 3519   3.927   1.956   2.579 -0.8688 -0.3166  0.3752
  767MOL0     H 3520   3.851   2.091   2.656  0.0713  0.4510 -1.4267
  767MOL0     H 3521   4.080   1.916   2.746 -0.8133 -0.0135 -0.8311
  767MOL0     H 3522   4.055   2.067   2.845  0.0448 -1.3978  1.1991
  767MOL0     H 3523   3.862   1.828   2.798 -3.9092 -1.3475  2.8231
  767MOL0     H 3524   3.826   1.970   2.894  0.8151  1.7113 -1.1481
  767MOL0     H 3525   3.896   1.822   3.054 -0.9559  0.5501  0.0349
  767MOL0     H 3526   4.053   1.892   3.015  0.4530  0.7103 -2.3775
  767MOL0     H 3527   4.426   2.378   2.411  2.2622 -0.6937  2.5949
  767MOL0     H 3528   4.662   2.280   2.364 -0.2135 -0.0988  0.8578
  767MOL0     H 3529   4.835   2.134   2.002  0.1899  1.3734  0.2933
  767MOL0     H 3530   4.960   2.077   1.812  4.1501 -0.4174 -0.2330
  767MOL0     H 3531   6.683   1.583   1.773 -1.1869 -0.6610  3.0943
  767MOL0     H 3532   6.861   1.435   1.729 -0.7852 -1.5951  1.1741
  767MOL0     H 3533   7.459   1.325   1.983 -1.7854 -2.2070  0.3044
  767MOL0     H 3534   7.627   1.191   1.853  0.2419  2.0165  1.3444
  767MOL0     H 3535   7.576   1.103   1.424 -0.6355  0.0244  1.8137
  767MOL0     H 3536   7.706   1.220   1.479 -2.2648  1.0021 -0.1569
  767MOL0     H 3537   7.799   1.033   1.361 -0.6964 -4.4898 -1.2766
  767MOL0     H 3538   7.735   0.915   1.478 -2.8912  0.8809 -1.4942
  767MOL0     H 3539   7.852   1.022   1.668 -1.8662  1.2973 -0.6510
  767MOL0     H 3540   7.918   1.145   1.565 -0.8044  0.1044 -0.1117
  767MOL0     H 3541   8.058   0.996   1.438 -0.5720 -0.6379 -1.5569
  767MOL0     H 3542   7.965   0.852   1.500 -2.5380  1.2105 -0.1935
  767MOL0     H 3543   8.243   0.952   1.805  1.3106 -0.6610 -1.6868
  767MOL0     H 3544   7.397   1.207   1.502  2.4607 -1.6838  0.3613
  767MOL0     H 3545   7.220   1.327   1.623 -0.2105 -0.8567  0.0155
  768MOL0     O 3546   6.665   7.999  10.395 -0.5065 -0.6551  0.5257
  768MOL0     C 3547   6.675   8.045  10.274 -0.5888 -0.1245 -0.1622
  768MOL0     O 3548   6.577   8.044  10.180 -0.3374 -0.4227  0.8478
  768MOL0     C 3549   6.456   7.991  10.213 -0.4260 -0.4914 -0.0619
  768MOL0     C 3550   6.439   7.855  10.234  0.0847  0.0030  0.4540
  768MOL0     C 3551   6.311   7.798  10.251  0.6103 -0.5178 -0.2178
  768MOL0     C 3552   6.191   7.883  10.268  0.0907  0.0826 -0.7686
  768MOL0     O 3553   6.065   7.836  10.294  0.2311 -0.1653 -0.7662
  768MOL0     C 3554   6.053   7.719  10.377  0.7189 -0.2396 -0.5560
  768MOL0     C 3555   5.908   7.675  10.397 -0.0298 -0.2539  0.6534
  768MOL0     C 3556   5.833   7.785  10.466  0.2771 -0.4089 -0.6025
  768MOL0     C 3557   5.685   7.769  10.442  0.3403  0.0432 -0.4271
  768MOL0     C 3558   5.610   7.854  10.533  0.7357 -0.2187 -0.0428
  768MOL0     C 3559   5.458   7.845  10.499 -0.2223 -0.2187  1.2305
  768MOL0     C 3560   5.373   7.938  10.580  0.0343 -0.1347  0.0013
  768MOL0     C 3561   5.247   7.984  10.498  0.5715  0.2899  0.3454
  768MOL0     N 3562   5.163   8.059  10.591 -1.0465 -0.7581  0.1069
  768MOL0     C 3563   5.095   8.001  10.688  0.1049  0.1963 -0.4472
  768MOL0     C 3564   5.022   8.102  10.735 -0.3737  0.5217 -0.2892
  768MOL0     C 3565   4.915   8.094  10.854 -0.8653  0.1751 -0.5079
  768MOL0     C 3566   4.808   8.206  10.866  0.1328  0.0364  1.2614
  768MOL0     C 3567   4.713   8.224  10.745 -0.7511 -0.4684 -0.2012
  768MOL0     C 3568   4.618   8.344  10.774 -0.0974  1.0891  0.0379
  768MOL0     O 3569   4.499   8.319  10.698 -0.0099  0.0945 -0.4073
  768MOL0     C 3570   4.378   8.316  10.764  1.1581  0.4101 -0.5717
  768MOL0     C 3571   4.288   8.208  10.745 -0.2659 -0.6718 -0.5089
  768MOL0     C 3572   4.159   8.218  10.793  0.7965  0.8932  0.7818
  768MOL0     C 3573   4.074   8.093  10.770 -0.0446 -0.8697  0.3762
  768MOL0     C 3574   4.116   8.331  10.861  0.1459 -0.7279 -0.2025
  768MOL0     C 3575   3.975   8.353  10.906  0.2271  1.7783  0.4441
  768MOL0     O 3576   3.877   8.311  10.828  0.1982 -0.3982 -0.1262
  768MOL0     C 3577   3.748   8.343  10.876  0.6706  0.3597 -0.3993
  768MOL0     C 3578   3.686   8.256  10.958  0.2794 -0.2442  0.2264
  768MOL0     C 3579   3.561   8.284  11.013  0.6053 -0.2002  0.4891
  768MOL0     C 3580   3.496   8.407  10.984  0.1587  0.2215 -0.2351
  768MOL0     O 3581   3.399   8.444  11.072 -0.2673  0.7145  0.2085
  768MOL0     C 3582   3.340   8.575  11.056  0.2404 -0.0477 -0.2047
  768MOL0     C 3583   3.200   8.587  11.136 -0.0294 -0.2255 -0.4422
  768MOL0     C 3584   3.101   8.485  11.076 -0.1465  0.2552  0.4366
  768MOL0     C 3585   2.963   8.486  11.149  0.8557  1.1217  0.3991
  768MOL0     C 3586   2.864   8.414  11.061 -0.0242  0.0843 -0.4125
  768MOL0     C 3587   2.747   8.357  11.139  1.1593  0.5637  0.4670
  768MOL0     C 3588   2.616   8.365  11.058 -0.2134  0.9823 -0.2211
  768MOL0     C 3589   2.507   8.300  11.152  0.8352  0.3832  0.2098
  768MOL0    Cl 3590   2.358   8.298  11.065  0.1056 -0.1650  0.1122
  768MOL0     C 3591   3.553   8.494  10.901 -0.1303 -0.3274  0.2469
  768MOL0     C 3592   3.679   8.457  10.843 -0.2013 -0.0301 -0.0597
  768MOL0     O 3593   3.961   8.420  11.011  0.3652  0.3607  0.2260
  768MOL0     C 3594   4.208   8.442  10.876 -0.2781 -0.1481 -0.8957
  768MOL0     C 3595   4.331   8.432  10.822  0.9420 -0.3086  0.1343
  768MOL0     N 3596   5.049   8.221  10.669 -0.5712  0.0460 -0.3790
  768MOL0     N 3597   5.142   8.194  10.586 -0.6720  0.1161 -0.1443
  768MOL0     C 3598   6.216   8.020  10.250 -0.1482 -0.3748 -0.0579
  768MOL0     C 3599   6.345   8.067  10.220 -0.3058 -0.6337 -0.8029
  768MOL0     C 3600   6.799   8.107  10.235 -0.6367  0.3769 -0.5106
  768MOL0     C 3601   6.926   8.055  10.271 -0.2071  0.0544 -0.3419
  768MOL0     C 3602   7.048   8.118  10.224  0.6505  0.1092 -0.3776
  768MOL0     C 3603   7.039   8.234  10.144 -0.2105 -0.0105  0.2995
  768MOL0     O 3604   7.151   8.294  10.093 -0.2292 -0.3919  0.0120
  768MOL0     C 3605   7.275   8.259  10.136 -0.1293  0.1328  0.2593
  768MOL0     C 3606   7.384   8.327  10.054  0.6477 -0.1928 -0.2730
  768MOL0     C 3607   7.534   8.282  10.095 -0.2118  0.3505 -0.2907
  768MOL0     C 3608   7.645   8.369  10.047  0.0231 -0.3108  0.0417
  768MOL0     C 3609   7.634   8.397   9.908  0.3323 -0.0744  0.2176
  768MOL0     C 3610   7.629   8.410   9.782 -0.0135 -0.3102 -0.1318
  768MOL0     C 3611   6.912   8.283  10.114 -0.7644  0.1817  0.3076
  768MOL0     C 3612   6.800   8.222  10.161  0.5351 -0.3944 -0.2500
  768MOL0     H 3613   6.524   7.787  10.234 -0.8171 -1.1525  1.2452
  768MOL0     H 3614   6.308   7.690  10.249 -1.2954 -0.5070 -2.1076
  768MOL0     H 3615   6.119   7.640  10.340  3.7047  1.8967 -0.1730
  768MOL0     H 3616   6.086   7.741  10.479  0.2839  0.6760 -0.5960
  768MOL0     H 3617   5.868   7.653  10.298 -0.5720  0.2100  0.7723
  768MOL0     H 3618   5.909   7.576  10.445  0.6077 -0.1778  0.8075
  768MOL0     H 3619   5.859   7.772  10.571  2.3094 -1.0481 -1.1361
  768MOL0     H 3620   5.865   7.885  10.436 -1.1293  0.4571  0.6572
  768MOL0     H 3621   5.661   7.789  10.337  1.0138  0.6792 -0.4663
  768MOL0     H 3622   5.654   7.668  10.469  0.4562  1.0171  4.1407
  768MOL0     H 3623   5.625   7.829  10.639 -0.1175  0.3556  0.2237
  768MOL0     H 3624   5.646   7.955  10.509  1.6480 -0.9976 -2.1850
  768MOL0     H 3625   5.448   7.871  10.393 -0.0169  1.4230  1.5853
  768MOL0     H 3626   5.428   7.740  10.500  0.5608 -0.5715 -1.9231
  768MOL0     H 3627   5.346   7.888  10.674 -0.7991 -1.8829 -1.1227
  768MOL0     H 3628   5.429   8.027  10.608  0.0840 -0.3747  0.6849
  768MOL0     H 3629   5.198   7.897  10.454  1.1218 -0.2567  0.8099
  768MOL0     H 3630   5.287   8.043  10.414  1.3506 -1.1616 -0.3359
  768MOL0     H 3631   5.095   7.897  10.720 -2.6362  0.8765  2.3384
  768MOL0     H 3632   4.864   7.997  10.845 -2.2997  0.9476 -1.1215
  768MOL0     H 3633   4.974   8.080  10.945  3.1308  0.4597 -2.8199
  768MOL0     H 3634   4.851   8.305  10.885  2.1835 -1.0709  2.8059
  768MOL0     H 3635   4.750   8.180  10.955  1.9669 -0.1837  2.4426
  768MOL0     H 3636   4.643   8.141  10.737 -0.3653 -0.7051 -1.3357
  768MOL0     H 3637   4.778   8.247  10.659  0.1294 -2.0700 -0.0032
  768MOL0     H 3638   4.669   8.440  10.766 -0.1457  1.1399  0.3525
  768MOL0     H 3639   4.582   8.340  10.877  0.0736  1.7427  0.1251
  768MOL0     H 3640   4.328   8.126  10.687  0.6554  0.6643 -1.8547
  768MOL0     H 3641   4.136   8.003  10.758  0.3407 -0.9343  2.4149
  768MOL0     H 3642   4.004   8.075  10.853 -0.4204  0.8495  0.4772
  768MOL0     H 3643   4.017   8.099  10.677  1.0047  1.7870 -0.1768
  768MOL0     H 3644   3.724   8.164  11.001  1.7777  1.3123  2.3767
  768MOL0     H 3645   3.517   8.219  11.087 -1.3907 -1.0052 -1.2876
  768MOL0     H 3646   3.397   8.660  11.095 -1.2806 -0.4598  3.2372
  768MOL0     H 3647   3.320   8.596  10.950 -3.3037  0.1334  0.4075
  768MOL0     H 3648   3.225   8.569  11.241 -1.3806 -2.6304 -0.4552
  768MOL0     H 3649   3.166   8.690  11.130  2.3793  0.5785 -1.4287
  768MOL0     H 3650   3.141   8.383  11.077  1.0619  0.6675 -1.2080
  768MOL0     H 3651   3.092   8.515  10.971 -1.3897 -0.5275  0.2966
  768MOL0     H 3652   2.969   8.444  11.250  1.4896  1.2190  0.4071
  768MOL0     H 3653   2.923   8.588  11.159  3.1064  2.3208 -1.6259
  768MOL0     H 3654   2.918   8.337  11.005 -0.8853  0.1564 -1.3506
  768MOL0     H 3655   2.815   8.482  10.991 -0.2044 -0.5701 -0.9218
  768MOL0     H 3656   2.773   8.254  11.166  0.3302  0.4568  0.8862
  768MOL0     H 3657   2.725   8.416  11.229  1.2571 -1.0395  1.5941
  768MOL0     H 3658   2.627   8.319  10.960  0.6838 -1.8675  1.1047
  768MOL0     H 3659   2.583   8.467  11.039 -2.3691  0.7805  1.9929
  768MOL0     H 3660   2.500   8.348  11.251  2.0143 -1.2060  1.1176
  768MOL0     H 3661   2.537   8.198  11.177  3.7631  1.0957 -0.0393
  768MOL0     H 3662   3.527   8.596  10.875  0.6782 -0.2237 -0.1859
  768MOL0     H 3663   3.713   8.520  10.762  0.2182 -0.1900 -0.0101
  768MOL0     H 3664   4.172   8.542  10.900  0.4868  0.4591 -2.1763
  768MOL0     H 3665   4.392   8.522  10.828 -0.5788  0.7417  0.3287
  768MOL0     H 3666   6.129   8.084  10.257 -0.1644 -0.5284  1.4690
  768MOL0     H 3667   6.353   8.174  10.203 -2.0152 -0.4211 -0.4113
  768MOL0     H 3668   6.927   7.963  10.329 -0.2071  1.2154  1.5901
  768MOL0     H 3669   7.141   8.069  10.251  0.4475 -0.3216 -0.4519
  768MOL0     H 3670   7.292   8.283  10.242  2.3035  0.1384 -0.0823
  768MOL0     H 3671   7.298   8.154  10.115  0.6192  0.0958  1.1760
  768MOL0     H 3672   7.390   8.436  10.059  1.1037 -0.1061 -2.0909
  768MOL0     H 3673   7.353   8.300   9.953 -2.3372 -1.0242  0.7490
  768MOL0     H 3674   7.559   8.183  10.058  1.1689  0.3877  0.4536
  768MOL0     H 3675   7.543   8.273  10.204  2.3640 -3.2558 -0.6385
  768MOL0     H 3676   7.742   8.325  10.072  0.5902  0.0719 -1.4136
  768MOL0     H 3677   7.627   8.467  10.094 -3.2586 -0.4703 -0.6485
  768MOL0     H 3678   7.623   8.418   9.675  1.1109  0.6613 -0.1441
  768MOL0     H 3679   6.899   8.369  10.049 -2.2316 -0.2977 -0.0669
  768MOL0     H 3680   6.701   8.263  10.142  0.0790 -1.0525  0.6114
  769MOL0     O 3681   8.065   5.942   5.149 -0.1906  0.6630  0.2421
  769MOL0     C 3682   8.131   5.943   5.051  0.2486  0.5104  0.8487
  769MOL0     O 3683   8.084   5.916   4.927 -0.0470 -0.2781  0.0672
  769MOL0     C 3684   7.949   5.885   4.916 -0.4402  1.2700  0.1112
  769MOL0     C 3685   7.845   5.982   4.945  0.1354  0.4471  0.4711
  769MOL0     C 3686   7.711   5.953   4.930  0.5220  0.1559  0.7779
  769MOL0     C 3687   7.669   5.825   4.905  0.7330 -1.1616  0.5423
  769MOL0     O 3688   7.533   5.800   4.894 -0.1125  0.3587  0.7372
  769MOL0     C 3689   7.483   5.662   4.891 -0.9140  0.6368 -0.9682
  769MOL0     C 3690   7.335   5.675   4.872 -0.1313 -0.0000 -0.4462
  769MOL0     C 3691   7.260   5.750   4.984 -0.0721  0.9199  0.2975
  769MOL0     C 3692   7.121   5.781   4.947 -0.7626  0.0888 -0.1355
  769MOL0     C 3693   7.121   5.889   4.842  0.1840  0.4664 -0.2594
  769MOL0     C 3694   6.978   5.957   4.821 -0.1009  1.0290 -0.5538
  769MOL0     C 3695   6.901   5.886   4.706  0.6390  0.2863 -0.8004
  769MOL0     C 3696   6.766   5.950   4.684 -0.0601 -0.6158  0.0596
  769MOL0     N 3697   6.682   5.913   4.791 -0.6838  0.2066 -0.4155
  769MOL0     C 3698   6.596   5.808   4.792 -0.1751  1.0361  0.4687
  769MOL0     C 3699   6.536   5.810   4.908 -0.1207 -0.6196 -0.4356
  769MOL0     C 3700   6.405   5.741   4.940 -0.4526  0.2075 -0.5047
  769MOL0     C 3701   6.415   5.587   4.919 -1.0061 -0.5051  0.7160
  769MOL0     C 3702   6.302   5.505   4.979  0.1588 -0.0529 -0.0910
  769MOL0     C 3703   6.300   5.502   5.128 -0.3400  0.1737  0.1266
  769MOL0     O 3704   6.231   5.607   5.192 -0.0681  0.2460  0.0740
  769MOL0     C 3705   6.197   5.603   5.329  0.1221 -0.3592  1.0404
  769MOL0     C 3706   6.219   5.492   5.410  0.1297  0.4723  0.2300
  769MOL0     C 3707   6.170   5.488   5.540  0.1803  0.9436  0.0838
  769MOL0     C 3708   6.193   5.358   5.606 -0.1297 -0.2988 -0.0926
  769MOL0     C 3709   6.082   5.583   5.585 -0.6603 -0.2189 -0.6031
  769MOL0     C 3710   6.023   5.589   5.724  0.1250 -0.4395  0.3512
  769MOL0     O 3711   5.893   5.642   5.731 -0.1445  0.1266  0.2733
  769MOL0     C 3712   5.829   5.620   5.846  0.7299 -0.5668 -0.3412
  769MOL0     C 3713   5.782   5.487   5.881 -0.3629  0.0216 -0.4730
  769MOL0     C 3714   5.718   5.478   6.000 -0.3986 -0.2907  0.1994
  769MOL0     C 3715   5.689   5.587   6.091  0.9964 -0.4795 -0.1124
  769MOL0     O 3716   5.627   5.562   6.206 -0.2387 -0.6092 -0.3913
  769MOL0     C 3717   5.676   5.612   6.332 -0.4683  0.3410  0.1943
  769MOL0     C 3718   5.563   5.562   6.428  0.1004  0.2907 -0.0303
  769MOL0     C 3719   5.455   5.666   6.453 -0.1001 -0.8505 -0.3714
  769MOL0     C 3720   5.339   5.612   6.530 -0.2483 -0.7085 -0.5724
  769MOL0     C 3721   5.239   5.723   6.578  0.0584 -0.5910 -0.3103
  769MOL0     C 3722   5.302   5.835   6.664 -0.1901 -0.3022  0.7627
  769MOL0     C 3723   5.375   5.788   6.793  0.6402 -0.2236  0.1922
  769MOL0     C 3724   5.287   5.742   6.911 -0.2981  0.5696 -0.5632
  769MOL0    Cl 3725   5.384   5.642   7.034 -0.0981 -0.0864  0.0022
  769MOL0     C 3726   5.725   5.720   6.043  1.1621  0.2114 -0.9166
  769MOL0     C 3727   5.792   5.730   5.924 -1.1108 -0.2348  0.3223
  769MOL0     O 3728   6.084   5.552   5.822 -0.3694 -0.0785  0.3609
  769MOL0     C 3729   6.071   5.704   5.505  0.3595 -0.0502 -0.5321
  769MOL0     C 3730   6.125   5.718   5.381 -0.7971  0.3368  0.1305
  769MOL0     N 3731   6.588   5.909   4.981  0.0631  0.0084 -0.3906
  769MOL0     N 3732   6.679   5.971   4.914 -0.3095 -0.2435 -0.9893
  769MOL0     C 3733   7.776   5.731   4.879  0.6473  0.3603 -0.0819
  769MOL0     C 3734   7.913   5.749   4.893 -0.6769 -0.4974  0.3924
  769MOL0     C 3735   8.273   5.969   5.060 -0.5073  0.3914 -0.3748
  769MOL0     C 3736   8.350   5.936   5.175 -1.0179 -0.4842  0.1322
  769MOL0     C 3737   8.491   5.958   5.182 -0.0525 -0.4138 -0.4595
  769MOL0     C 3738   8.553   6.028   5.078 -0.6011 -0.0326  0.2742
  769MOL0     O 3739   8.688   6.054   5.074 -0.4528  0.5494  0.8562
  769MOL0     C 3740   8.767   6.056   5.192 -0.4933 -0.8935  0.7028
  769MOL0     C 3741   8.883   6.155   5.188 -0.2002 -0.5903 -0.2195
  769MOL0     C 3742   8.953   6.170   5.049 -0.4221 -0.5470  0.1968
  769MOL0     C 3743   9.083   6.253   5.060  0.8282  0.2820  1.0748
  769MOL0     C 3744   9.053   6.393   5.044 -0.2656 -0.6330  0.0360
  769MOL0     C 3745   9.046   6.517   5.034  0.2598  0.1581 -1.1493
  769MOL0     C 3746   8.476   6.070   4.968 -0.6283 -0.6807  0.3133
  769MOL0     C 3747   8.343   6.036   4.957  0.7293  0.6707  0.6451
  769MOL0     H 3748   7.876   6.085   4.957  0.1474  0.2940  2.0270
  769MOL0     H 3749   7.631   6.027   4.933 -0.5378 -0.6704 -2.4414
  769MOL0     H 3750   7.527   5.603   4.810  1.7316  0.0638  0.7698
  769MOL0     H 3751   7.496   5.613   4.988 -1.9805 -0.8629 -1.5357
  769MOL0     H 3752   7.322   5.718   4.773  1.8592  0.5360 -0.5276
  769MOL0     H 3753   7.302   5.571   4.872 -0.3612  0.0681  0.3691
  769MOL0     H 3754   7.260   5.689   5.075 -1.1758 -0.9478 -0.9071
  769MOL0     H 3755   7.307   5.842   5.020 -0.2847  1.5884 -1.0619
  769MOL0     H 3756   7.074   5.695   4.899 -0.3789 -0.7064  0.9010
  769MOL0     H 3757   7.059   5.808   5.033  1.3788  2.0472  0.9159
  769MOL0     H 3758   7.197   5.959   4.878  1.9506 -2.3281  1.9485
  769MOL0     H 3759   7.149   5.843   4.747 -0.8687  0.4396 -0.5694
  769MOL0     H 3760   6.916   5.967   4.911 -3.7038 -0.2377 -2.6473
  769MOL0     H 3761   6.998   6.060   4.791  0.2589  1.0746 -0.1597
  769MOL0     H 3762   6.956   5.896   4.612  1.6165 -1.6180 -0.4791
  769MOL0     H 3763   6.881   5.782   4.734 -3.3950  1.2356  0.5240
  769MOL0     H 3764   6.728   5.910   4.590  0.4308  0.1785 -0.4802
  769MOL0     H 3765   6.773   6.059   4.682  1.3988 -0.6979 -0.7378
  769MOL0     H 3766   6.566   5.748   4.707  0.2374  0.0968  0.9662
  769MOL0     H 3767   6.380   5.756   5.046 -2.2244  0.7160 -0.9553
  769MOL0     H 3768   6.323   5.781   4.880 -1.1853 -1.0101 -0.3415
  769MOL0     H 3769   6.514   5.558   4.955 -0.4259 -2.9146 -2.3504
  769MOL0     H 3770   6.420   5.568   4.812 -1.8349  2.1755  0.1337
  769MOL0     H 3771   6.324   5.401   4.952  1.5563  0.1626  0.1559
  769MOL0     H 3772   6.205   5.549   4.953  0.6118  0.4089 -1.0506
  769MOL0     H 3773   6.394   5.476   5.176  0.2667  1.1856 -0.4718
  769MOL0     H 3774   6.236   5.417   5.150 -2.3225  0.9520 -2.1102
  769MOL0     H 3775   6.273   5.407   5.368  1.0974  1.1580  0.0529
  769MOL0     H 3776   6.124   5.353   5.691 -0.8665 -0.8446 -0.7007
  769MOL0     H 3777   6.179   5.275   5.536  2.3758  0.4353 -1.5781
  769MOL0     H 3778   6.299   5.354   5.631  0.1164  0.8286 -0.8507
  769MOL0     H 3779   5.793   5.399   5.818 -0.0990  0.3517 -0.8987
  769MOL0     H 3780   5.688   5.379   6.034  0.0723 -0.8902 -1.0739
  769MOL0     H 3781   5.775   5.575   6.361 -0.5980  0.7111  1.1530
  769MOL0     H 3782   5.686   5.721   6.330 -1.1160  0.3889 -0.4861
  769MOL0     H 3783   5.512   5.477   6.383  0.7626 -0.2187  0.1765
  769MOL0     H 3784   5.610   5.535   6.522 -1.8916  1.1567  1.3019
  769MOL0     H 3785   5.414   5.710   6.362 -5.9109  0.0623  2.2363
  769MOL0     H 3786   5.502   5.744   6.514 -3.0609  0.6301  0.1721
  769MOL0     H 3787   5.287   5.536   6.472 -0.8466 -0.4028 -0.4545
  769MOL0     H 3788   5.384   5.567   6.618 -2.4008 -0.8419  0.5308
  769MOL0     H 3789   5.160   5.677   6.638 -0.1308  3.3718  2.8592
  769MOL0     H 3790   5.192   5.760   6.487  2.7841  0.7297 -1.2723
  769MOL0     H 3791   5.370   5.886   6.595 -1.3450 -1.0258 -1.0091
  769MOL0     H 3792   5.228   5.912   6.688 -2.2533 -1.9631  0.0747
  769MOL0     H 3793   5.434   5.869   6.837 -2.4118  1.8432  0.7749
  769MOL0     H 3794   5.438   5.707   6.755 -0.0487 -0.3961 -0.6272
  769MOL0     H 3795   5.210   5.670   6.882 -0.5546  0.4983  0.2668
  769MOL0     H 3796   5.243   5.829   6.960 -3.2455 -1.4256  0.6276
  769MOL0     H 3797   5.709   5.797   6.119  1.9644 -0.7966  0.3146
  769MOL0     H 3798   5.839   5.819   5.883 -2.6477  0.3798 -0.1944
  769MOL0     H 3799   5.998   5.776   5.541 -0.4161 -1.7861  1.5892
  769MOL0     H 3800   6.110   5.811   5.326  0.3556  1.5166  1.6941
  769MOL0     H 3801   7.746   5.629   4.857  0.0537  0.1105  1.7375
  769MOL0     H 3802   7.985   5.668   4.878  0.6054  0.7594 -0.5975
  769MOL0     H 3803   8.298   5.882   5.253  0.1113 -3.3326 -0.9569
  769MOL0     H 3804   8.541   5.921   5.271 -0.9278 -2.5286 -0.7760
  769MOL0     H 3805   8.706   6.071   5.281  2.6839  1.8385  2.6864
  769MOL0     H 3806   8.817   5.959   5.201  0.2830 -0.6209 -0.4510
  769MOL0     H 3807   8.959   6.132   5.264 -1.6524  0.5129  1.6400
  769MOL0     H 3808   8.853   6.258   5.209  0.8430 -0.4554  0.6921
  769MOL0     H 3809   8.893   6.219   4.972 -1.3079 -3.7392 -1.2810
  769MOL0     H 3810   8.978   6.071   5.010  0.7473  0.1633 -0.9561
  769MOL0     H 3811   9.148   6.222   4.978 -1.6724 -1.5648 -0.3368
  769MOL0     H 3812   9.124   6.255   5.161 -0.8837 -0.2233  1.8130
  769MOL0     H 3813   9.040   6.624   5.040 -1.9017 -0.0029  1.8862
  769MOL0     H 3814   8.526   6.118   4.885 -1.5969 -1.0032 -0.4794
  769MOL0     H 3815   8.282   6.065   4.872 -1.8333  0.3104  2.2396
  770MOL0     O 3816   2.688   0.675   9.779 -0.9234 -0.4782  0.5263
  770MOL0     C 3817   2.743   0.593   9.701 -0.6015  0.1297 -0.0084
  770MOL0     O 3818   2.681   0.517   9.601  0.0944  0.1840 -0.6805
  770MOL0     C 3819   2.549   0.529   9.565 -0.0008 -0.5922 -0.0650
  770MOL0     C 3820   2.516   0.470   9.442  0.0107 -0.5513 -0.1363
  770MOL0     C 3821   2.392   0.472   9.387 -0.0806 -0.8231 -0.3263
  770MOL0     C 3822   2.290   0.540   9.462 -0.2340 -0.0861  0.9090
  770MOL0     O 3823   2.171   0.574   9.395 -0.2336 -0.4471  0.5079
  770MOL0     C 3824   2.129   0.475   9.296 -0.6358  0.2353  0.3216
  770MOL0     C 3825   1.981   0.516   9.259 -0.1146  0.6437 -0.7579
  770MOL0     C 3826   1.914   0.436   9.152  0.4050  0.1280 -0.6486
  770MOL0     C 3827   1.770   0.476   9.136 -0.0927 -0.9322 -0.3919
  770MOL0     C 3828   1.715   0.400   9.018 -0.4707  0.1332  0.2778
  770MOL0     C 3829   1.570   0.443   8.983 -0.0737 -0.2715  0.7767
  770MOL0     C 3830   1.466   0.415   9.091  0.0371 -0.1389 -0.1439
  770MOL0     C 3831   1.321   0.431   9.038 -0.6505 -1.2348 -0.6737
  770MOL0     N 3832   1.218   0.408   9.141 -0.0304  0.3107  0.1997
  770MOL0     C 3833   1.183   0.488   9.243 -0.0542 -0.3452  0.0899
  770MOL0     C 3834   1.119   0.400   9.321  0.1970  0.9347 -0.4247
  770MOL0     C 3835   1.057   0.436   9.452  0.1395  0.9535  0.5816
  770MOL0     C 3836   0.950   0.547   9.431  0.2011 -0.2285 -0.1410
  770MOL0     C 3837   0.817   0.509   9.373  0.7934 -0.2314 -0.8640
  770MOL0     C 3838   0.740   0.394   9.428  0.0768 -0.1956  0.0569
  770MOL0     O 3839   0.626   0.452   9.499  0.2617 -0.1762  0.3141
  770MOL0     C 3840   0.519   0.461   9.413 -0.3983 -0.4709  0.4577
  770MOL0     C 3841   0.447   0.351   9.370  0.2665  0.6939 -0.1350
  770MOL0     C 3842   0.339   0.363   9.283  0.2728  0.6723  0.3941
  770MOL0     C 3843   0.261   0.236   9.243  0.5867  0.0352  0.7388
  770MOL0     C 3844   0.308   0.494   9.237  0.1186 -1.2061  0.2724
  770MOL0     C 3845   0.194   0.524   9.149  0.4596 -0.1165  0.0614
  770MOL0     O 3846   0.093   0.435   9.109  0.5768 -0.0219  0.0984
  770MOL0     C 3847   0.001   0.485   9.021  0.1168 -0.5266  0.3979
  770MOL0     C 3848   0.004   0.442   8.888 -0.1715 -0.3863 -0.3430
  770MOL0     C 3849  -0.104   0.480   8.807  0.2964  0.0256  0.4322
  770MOL0     C 3850  -0.223   0.542   8.861 -0.1391  0.8887 -0.6327
  770MOL0     O 3851  -0.321   0.559   8.762 -0.7869 -0.3306 -0.1490
  770MOL0     C 3852  -0.431   0.634   8.802 -0.0128 -0.5147 -0.6009
  770MOL0     C 3853  -0.553   0.616   8.708  0.4178  0.1236 -0.2518
  770MOL0     C 3854  -0.670   0.693   8.762 -0.1129  0.1833 -0.0127
  770MOL0     C 3855  -0.792   0.647   8.689  0.2184 -0.6210 -0.5211
  770MOL0     C 3856  -0.920   0.730   8.723 -0.5243 -0.3791 -0.1065
  770MOL0     C 3857  -0.993   0.674   8.841  0.2238 -0.1672  0.4644
  770MOL0     C 3858  -1.132   0.742   8.843  0.5822 -0.0152 -0.3424
  770MOL0     C 3859  -1.225   0.700   8.954 -0.2208  1.3726  0.0603
  770MOL0    Cl 3860  -1.396   0.766   8.909  0.3015 -0.3915 -0.0372
  770MOL0     C 3861  -0.224   0.584   8.991 -0.1154  0.1078 -1.3524
  770MOL0     C 3862  -0.111   0.562   9.069  0.2739 -0.8921  0.2469
  770MOL0     O 3863   0.194   0.637   9.100 -0.8685 -0.3902  0.7678
  770MOL0     C 3864   0.388   0.603   9.278 -1.4456  0.2851 -0.1846
  770MOL0     C 3865   0.496   0.581   9.359 -0.0474 -0.4937  0.5984
  770MOL0     N 3866   1.122   0.273   9.272 -0.4203 -0.3609 -0.1786
  770MOL0     N 3867   1.177   0.277   9.163  0.3324 -1.0519  0.2652
  770MOL0     C 3868   2.320   0.609   9.578  0.8833 -0.2671 -0.7241
  770MOL0     C 3869   2.448   0.599   9.633  0.1506 -0.5722 -0.0779
  770MOL0     C 3870   2.890   0.563   9.720 -0.0435 -0.0566  0.0292
  770MOL0     C 3871   2.951   0.481   9.630  0.2265  0.2592  0.0820
  770MOL0     C 3872   3.093   0.455   9.635 -0.3388  0.1828 -0.0931
  770MOL0     C 3873   3.169   0.507   9.738  0.1203 -0.0008 -0.4671
  770MOL0     O 3874   3.298   0.467   9.740 -0.5543 -0.5549 -0.2520
  770MOL0     C 3875   3.380   0.514   9.849 -0.3253  0.3463 -0.0954
  770MOL0     C 3876   3.518   0.457   9.820 -0.5664 -0.3201  0.3534
  770MOL0     C 3877   3.621   0.507   9.918 -0.3410 -0.1447 -0.1281
  770MOL0     C 3878   3.760   0.454   9.874 -0.1868 -0.1608  0.0908
  770MOL0     C 3879   3.853   0.483   9.987  0.3400  0.2950  0.4396
  770MOL0     C 3880   3.933   0.505  10.065 -1.6207  0.8039 -0.6458
  770MOL0     C 3881   3.106   0.590   9.838  0.6096  0.2238  0.3219
  770MOL0     C 3882   2.969   0.613   9.828  0.2106  0.1737  0.7523
  770MOL0     H 3883   2.598   0.420   9.391  0.5683 -1.2158  1.3519
  770MOL0     H 3884   2.394   0.418   9.292  0.6692 -1.7803  0.2163
  770MOL0     H 3885   2.188   0.480   9.204  0.2079 -1.4275  0.7456
  770MOL0     H 3886   2.128   0.381   9.352 -0.5525  1.3589  2.3260
  770MOL0     H 3887   1.920   0.517   9.350  0.3391 -0.2702 -0.4400
  770MOL0     H 3888   1.994   0.614   9.210  0.8178  0.5388 -0.7214
  770MOL0     H 3889   1.975   0.453   9.063  1.3483 -0.4788 -0.1430
  770MOL0     H 3890   1.923   0.330   9.178 -1.0877 -0.0316 -0.6878
  770MOL0     H 3891   1.707   0.459   9.224  0.4867  1.2618  0.4999
  770MOL0     H 3892   1.765   0.582   9.110  1.8519 -0.8684 -0.6143
  770MOL0     H 3893   1.784   0.418   8.935  0.9247 -1.0267  1.1443
  770MOL0     H 3894   1.723   0.291   9.022 -2.3860 -0.1548 -1.7776
  770MOL0     H 3895   1.573   0.551   8.966  1.4505 -0.2275  1.1512
  770MOL0     H 3896   1.535   0.409   8.886 -1.2719  2.1258  0.2965
  770MOL0     H 3897   1.476   0.308   9.109  0.2213 -0.0411  0.3562
  770MOL0     H 3898   1.480   0.478   9.179 -0.0306 -1.0296  0.5149
  770MOL0     H 3899   1.307   0.360   8.956  0.0860 -1.0156 -0.9931
  770MOL0     H 3900   1.318   0.532   8.997  1.0545 -0.5825  0.7060
  770MOL0     H 3901   1.205   0.593   9.256  0.9438 -0.6585  1.1482
  770MOL0     H 3902   1.009   0.355   9.508 -0.7274  1.3999  0.5063
  770MOL0     H 3903   1.142   0.473   9.510 -0.2498  1.4666  0.8307
  770MOL0     H 3904   0.988   0.622   9.362  0.4855  1.7220  1.9834
  770MOL0     H 3905   0.937   0.596   9.528 -0.2072 -1.7319  0.6038
  770MOL0     H 3906   0.821   0.496   9.265  1.2511 -0.5290 -0.8132
  770MOL0     H 3907   0.754   0.597   9.384 -1.7634 -2.0560  0.1005
  770MOL0     H 3908   0.798   0.339   9.503 -2.2535 -0.0247  2.1075
  770MOL0     H 3909   0.721   0.325   9.345  4.1845  0.2207 -1.4637
  770MOL0     H 3910   0.488   0.255   9.400 -1.3651 -0.5462 -1.6684
  770MOL0     H 3911   0.325   0.147   9.246 -1.2445 -1.3359  0.4977
  770MOL0     H 3912   0.178   0.224   9.314  0.2540  0.6973  0.4726
  770MOL0     H 3913   0.226   0.245   9.140  0.1029  2.1724  1.0309
  770MOL0     H 3914   0.082   0.376   8.851 -0.2868  0.1697 -1.6196
  770MOL0     H 3915  -0.110   0.458   8.701  0.8831 -1.8254  0.7505
  770MOL0     H 3916  -0.463   0.597   8.900 -0.7140  0.5784 -0.4017
  770MOL0     H 3917  -0.398   0.738   8.809 -0.1642 -0.4795 -0.3834
  770MOL0     H 3918  -0.541   0.647   8.604  2.4815  1.8577  0.4285
  770MOL0     H 3919  -0.573   0.508   8.713 -4.2843  0.7447 -0.7967
  770MOL0     H 3920  -0.645   0.799   8.748  4.2293 -0.7939 -1.0562
  770MOL0     H 3921  -0.675   0.676   8.870  1.3676 -1.3015 -0.1345
  770MOL0     H 3922  -0.778   0.660   8.581  0.8060 -1.2529 -0.5252
  770MOL0     H 3923  -0.796   0.541   8.716  1.3872 -0.4591  0.3334
  770MOL0     H 3924  -0.988   0.727   8.637 -2.4220  0.1354  1.3100
  770MOL0     H 3925  -0.894   0.833   8.749  0.6421 -1.0178  1.4166
  770MOL0     H 3926  -0.997   0.565   8.831  1.7169 -0.2501  0.5241
  770MOL0     H 3927  -0.946   0.704   8.935 -1.2588 -1.5913  1.7142
  770MOL0     H 3928  -1.191   0.728   8.752 -0.8553  3.5729 -0.1335
  770MOL0     H 3929  -1.119   0.850   8.853  1.6557  0.2267 -3.3155
  770MOL0     H 3930  -1.204   0.740   9.053 -1.9273  2.6137 -0.0432
  770MOL0     H 3931  -1.226   0.590   8.955  0.4957  1.3036  3.0912
  770MOL0     H 3932  -0.304   0.635   9.044  1.2849  0.9277  0.0285
  770MOL0     H 3933  -0.106   0.607   9.167  5.1178  2.7993 -1.3289
  770MOL0     H 3934   0.369   0.705   9.246  0.3445  0.9586  0.7484
  770MOL0     H 3935   0.559   0.666   9.382 -2.1457  1.8762 -1.6665
  770MOL0     H 3936   2.234   0.660   9.620 -0.6906 -2.2210 -1.3955
  770MOL0     H 3937   2.466   0.643   9.731 -2.2287  0.0680  0.1435
  770MOL0     H 3938   2.894   0.436   9.549 -0.9821 -0.9867  1.5769
  770MOL0     H 3939   3.145   0.390   9.566  0.7339  1.1651 -0.2340
  770MOL0     H 3940   3.382   0.623   9.844 -0.5148  0.3105 -1.2186
  770MOL0     H 3941   3.336   0.486   9.945 -0.4494  0.7621 -0.0264
  770MOL0     H 3942   3.545   0.474   9.715  0.3725  0.6641  0.7350
  770MOL0     H 3943   3.505   0.349   9.822  2.0074 -1.1102 -5.1625
  770MOL0     H 3944   3.601   0.459  10.014 -1.5651 -0.3459 -0.4739
  770MOL0     H 3945   3.613   0.616   9.926 -1.5560 -0.1712 -0.8363
  770MOL0     H 3946   3.791   0.512   9.786  2.7725 -1.1788  0.3726
  770MOL0     H 3947   3.751   0.346   9.861 -2.3432  0.0344 -0.4277
  770MOL0     H 3948   4.015   0.529  10.130 -2.4551 -0.7706  1.0850
  770MOL0     H 3949   3.165   0.626   9.922  1.0135  1.3829 -0.4410
  770MOL0     H 3950   2.911   0.679   9.892  0.2572 -0.1875  1.1703
  771MOL0     O 3951  11.266   2.687   9.735  0.0432  0.5396 -0.2426
  771MOL0     C 3952  11.310   2.752   9.647  0.0524 -0.3450  0.2745
  771MOL0     O 3953  11.257   2.872   9.611 -0.6485 -0.2047  0.2859
  771MOL0     C 3954  11.125   2.898   9.639  0.4745  0.1055  0.1099
  771MOL0     C 3955  11.023   2.813   9.599 -0.3044  0.4067  0.2451
  771MOL0     C 3956  10.884   2.847   9.618  0.1573 -0.0241  0.6324
  771MOL0     C 3957  10.852   2.969   9.674  0.3852  0.0301 -1.1673
  771MOL0     O 3958  10.714   3.002   9.702 -0.6737  0.7640  0.8311
  771MOL0     C 3959  10.689   3.126   9.760  0.1129 -0.0762 -0.1119
  771MOL0     C 3960  10.534   3.145   9.746 -0.0530 -0.3728 -0.1452
  771MOL0     C 3961  10.477   3.274   9.819  0.4173 -1.2305 -0.3937
  771MOL0     C 3962  10.329   3.304   9.777 -0.1999  1.0337  0.1126
  771MOL0     C 3963  10.274   3.420   9.859 -0.0863  0.9580  0.4477
  771MOL0     C 3964  10.233   3.378  10.003 -0.8368  0.2155  0.5174
  771MOL0     C 3965  10.149   3.482  10.068 -0.3197 -0.1909  0.4453
  771MOL0     C 3966  10.115   3.451  10.211  0.1294 -0.5955  0.2930
  771MOL0     N 3967  10.006   3.357  10.224  0.5412  0.5437 -0.0408
  771MOL0     C 3968   9.883   3.354  10.165 -0.0790  0.3779 -0.4930
  771MOL0     C 3969   9.833   3.240  10.215  0.2893  0.3363 -0.2004
  771MOL0     C 3970   9.692   3.188  10.187 -0.2702  0.3778 -0.2642
  771MOL0     C 3971   9.579   3.266  10.261 -0.0501 -0.1042  0.1850
  771MOL0     C 3972   9.547   3.393  10.176  0.2102  0.3227  0.4130
  771MOL0     C 3973   9.474   3.365  10.038  0.0662 -0.6930  0.5334
  771MOL0     O 3974   9.425   3.484   9.965  0.2091  1.3503 -0.3790
  771MOL0     C 3975   9.321   3.549  10.030 -0.2810  0.0701 -0.1047
  771MOL0     C 3976   9.348   3.667  10.078  0.2320 -0.4520 -0.2677
  771MOL0     C 3977   9.250   3.759  10.123  0.3825  0.5249  0.8634
  771MOL0     C 3978   9.308   3.888  10.171  0.1538 -0.0948 -0.8344
  771MOL0     C 3979   9.114   3.712  10.126  0.7658  0.0641 -1.1735
  771MOL0     C 3980   9.003   3.792  10.184 -0.1850 -0.2287 -0.4616
  771MOL0     O 3981   8.902   3.725  10.240  0.1192  0.2671 -1.0172
  771MOL0     C 3982   8.778   3.778  10.276  0.0225 -0.2691  0.3641
  771MOL0     C 3983   8.722   3.902  10.225  0.2648 -0.5980 -0.6502
  771MOL0     C 3984   8.591   3.948  10.271  0.2973  0.3376  0.3973
  771MOL0     C 3985   8.511   3.864  10.359  0.9295  0.3745  0.5985
  771MOL0     O 3986   8.379   3.886  10.392  0.1358  0.1469  0.7549
  771MOL0     C 3987   8.330   4.012  10.356 -0.0115  0.4608 -0.5566
  771MOL0     C 3988   8.187   4.025  10.393 -0.3613 -0.4185 -0.9307
  771MOL0     C 3989   8.090   3.971  10.287  0.4252  0.4399  0.6860
  771MOL0     C 3990   7.948   3.986  10.318 -0.1247 -0.1641 -0.3935
  771MOL0     C 3991   7.898   3.887  10.429  0.1266 -1.2218  0.2495
  771MOL0     C 3992   7.749   3.897  10.455 -0.0784 -0.2333  0.3654
  771MOL0     C 3993   7.694   3.800  10.565 -0.0534  0.5319  0.5040
  771MOL0     C 3994   7.750   3.659  10.549 -0.6983 -0.3828 -0.2633
  771MOL0    Cl 3995   7.720   3.601  10.385 -0.6139 -0.0991 -0.2049
  771MOL0     C 3996   8.565   3.744  10.407  0.4681  0.0475  0.3820
  771MOL0     C 3997   8.697   3.706  10.367  0.5380  0.7103 -0.4446
  771MOL0     O 3998   9.014   3.918  10.180  0.6746 -0.0296  0.3523
  771MOL0     C 3999   9.085   3.573  10.089 -0.5014 -0.3261 -0.3366
  771MOL0     C 4000   9.192   3.500  10.036  0.8100  0.1073 -0.3443
  771MOL0     N 4001   9.927   3.176  10.297  0.7751 -0.0346  0.3729
  771MOL0     N 4002  10.028   3.251  10.310  0.6659 -0.1821  0.5012
  771MOL0     C 4003  10.953   3.052   9.723 -0.2256  0.9164 -0.1070
  771MOL0     C 4004  11.086   3.022   9.693  0.1346  0.0900 -0.4477
  771MOL0     C 4005  11.432   2.712   9.575  0.3052 -0.4597 -0.5211
  771MOL0     C 4006  11.488   2.798   9.475  0.1540 -0.4334 -0.1436
  771MOL0     C 4007  11.603   2.753   9.406 -0.0214 -0.2810 -0.0917
  771MOL0     C 4008  11.659   2.632   9.439  0.0826 -0.8913 -0.4047
  771MOL0     O 4009  11.761   2.577   9.366 -0.0609 -0.0437 -0.0122
  771MOL0     C 4010  11.859   2.661   9.305 -0.0842 -0.4753 -0.1832
  771MOL0     C 4011  12.003   2.630   9.355 -0.3830  0.6244 -0.2116
  771MOL0     C 4012  12.044   2.482   9.358  0.5556  0.3039  0.2567
  771MOL0     C 4013  12.174   2.471   9.435  0.5933 -0.5689  0.5046
  771MOL0     C 4014  12.148   2.485   9.580 -0.9892  0.5415 -0.5358
  771MOL0     C 4015  12.131   2.486   9.703  0.5668  0.1281 -0.8493
  771MOL0     C 4016  11.615   2.551   9.546  0.3760  0.0622 -0.2556
  771MOL0     C 4017  11.493   2.590   9.604 -0.2869 -0.1735 -0.1047
  771MOL0     H 4018  11.053   2.718   9.556  2.1111 -0.1005  2.7956
  771MOL0     H 4019  10.817   2.774   9.573 -2.9848  0.1648  4.3797
  771MOL0     H 4020  10.726   3.123   9.863  1.6932  1.8296 -0.5520
  771MOL0     H 4021  10.736   3.215   9.716  0.3558 -0.7372 -1.2356
  771MOL0     H 4022  10.520   3.148   9.637 -3.9774 -3.5021  0.0570
  771MOL0     H 4023  10.468   3.062   9.775 -2.7638  1.4321 -0.7411
  771MOL0     H 4024  10.484   3.260   9.927 -1.3750  2.8234  0.4396
  771MOL0     H 4025  10.549   3.352   9.792  0.7437 -1.4120 -0.0566
  771MOL0     H 4026  10.324   3.336   9.672  1.0353  1.4838  0.1696
  771MOL0     H 4027  10.268   3.215   9.796  2.8265 -0.9427  1.4388
  771MOL0     H 4028  10.342   3.506   9.862  0.8777  0.1894  1.9927
  771MOL0     H 4029  10.181   3.447   9.808 -0.3405  0.9985  0.9214
  771MOL0     H 4030  10.182   3.284   9.981  0.4761  0.0851 -2.4853
  771MOL0     H 4031  10.321   3.358  10.064 -0.4268 -2.1104 -0.7174
  771MOL0     H 4032  10.218   3.567  10.070  0.1084 -0.5209 -0.0448
  771MOL0     H 4033  10.059   3.501  10.009 -0.2585  0.0799  0.4391
  771MOL0     H 4034  10.089   3.550  10.248 -1.8972 -0.7919 -0.4357
  771MOL0     H 4035  10.201   3.427  10.273  0.8342 -2.1887 -1.2194
  771MOL0     H 4036   9.839   3.425  10.096 -3.0105 -1.8866 -1.1570
  771MOL0     H 4037   9.679   3.172  10.079 -0.0105 -2.7310  0.0672
  771MOL0     H 4038   9.682   3.086  10.226 -0.5374 -0.7736 -3.0463
  771MOL0     H 4039   9.611   3.303  10.359  0.4708  0.8069 -0.3046
  771MOL0     H 4040   9.490   3.204  10.274 -1.9695  2.6422  1.1468
  771MOL0     H 4041   9.638   3.448  10.150 -2.3140  3.3769 -3.0248
  771MOL0     H 4042   9.482   3.461  10.232  1.7279  1.0694  1.3351
  771MOL0     H 4043   9.389   3.297  10.053  1.8419 -3.5087 -1.2172
  771MOL0     H 4044   9.532   3.307   9.965  1.1034  1.6427 -0.6165
  771MOL0     H 4045   9.446   3.714  10.078 -0.3730  0.8625 -0.4339
  771MOL0     H 4046   9.368   3.883  10.262  0.5913 -0.6524 -1.1508
  771MOL0     H 4047   9.368   3.934  10.092 -0.7860  3.3936  0.3039
  771MOL0     H 4048   9.233   3.963  10.199 -1.6712 -0.1813 -4.8036
  771MOL0     H 4049   8.781   3.955  10.150  2.3495 -2.3428 -0.3656
  771MOL0     H 4050   8.561   4.045  10.234  1.3605  0.9290  1.0575
  771MOL0     H 4051   8.382   4.088  10.416 -3.6667  0.6291  2.8243
  771MOL0     H 4052   8.325   4.037  10.250 -3.6941  1.1349 -0.3591
  771MOL0     H 4053   8.179   3.978  10.491 -1.3435 -0.1769 -0.8880
  771MOL0     H 4054   8.171   4.132  10.405 -1.7744 -0.5475 -1.4689
  771MOL0     H 4055   8.116   3.867  10.270 -0.5085  0.6037 -2.1775
  771MOL0     H 4056   8.104   4.037  10.201 -1.7406  0.2332  0.1324
  771MOL0     H 4057   7.917   4.088  10.343 -1.2827 -0.1822 -1.6630
  771MOL0     H 4058   7.904   3.975  10.218 -1.8590  0.9824  0.2048
  771MOL0     H 4059   7.950   3.916  10.520 -0.2259  0.9573 -0.1840
  771MOL0     H 4060   7.930   3.792  10.385  1.9300 -0.9681  0.9432
  771MOL0     H 4061   7.712   4.000  10.467 -2.6266 -1.1063  0.6896
  771MOL0     H 4062   7.719   3.858  10.357  0.0834  0.7056 -0.0736
  771MOL0     H 4063   7.585   3.794  10.557 -0.0257 -1.7334  1.2989
  771MOL0     H 4064   7.715   3.842  10.664  0.9322  2.0715 -0.3106
  771MOL0     H 4065   7.707   3.593  10.624  1.3303 -0.7599  0.6018
  771MOL0     H 4066   7.857   3.661  10.569 -0.1768 -0.9773 -2.6171
  771MOL0     H 4067   8.497   3.690  10.473 -2.2124  1.8279 -0.7382
  771MOL0     H 4068   8.733   3.609  10.402 -1.4558  0.2232  0.3549
  771MOL0     H 4069   8.985   3.531  10.097 -1.1744  1.6114  4.2078
  771MOL0     H 4070   9.174   3.405   9.986 -1.4376 -2.4408  4.5993
  771MOL0     H 4071  10.942   3.149   9.771  2.2279 -0.2009  3.0878
  771MOL0     H 4072  11.158   3.100   9.713  1.4603 -0.9450 -1.0447
  771MOL0     H 4073  11.439   2.891   9.450 -2.3668 -1.9604 -1.3126
  771MOL0     H 4074  11.641   2.806   9.319 -0.8817  0.6630  0.0912
  771MOL0     H 4075  11.873   2.643   9.198  4.2248 -2.9779  0.5414
  771MOL0     H 4076  11.838   2.767   9.320 -0.5328 -0.3209 -1.7463
  771MOL0     H 4077  12.001   2.650   9.462 -0.4754 -4.2869  0.9628
  771MOL0     H 4078  12.077   2.689   9.301  1.9722 -2.0234 -0.1362
  771MOL0     H 4079  12.061   2.459   9.252 -1.6693  2.6382 -0.7361
  771MOL0     H 4080  11.960   2.424   9.396 -0.9795  2.7618  0.8883
  771MOL0     H 4081  12.249   2.544   9.405  0.2195 -0.6143 -0.5733
  771MOL0     H 4082  12.210   2.369   9.415  1.0320 -0.4649  0.7446
  771MOL0     H 4083  12.113   2.474   9.808 -1.3890 -0.0439 -1.1599
  771MOL0     H 4084  11.653   2.454   9.577 -2.0802 -0.1508  2.5868
  771MOL0     H 4085  11.462   2.530   9.689  1.5324  3.0901  3.2034
  772MOL0     O 4086   4.533   1.269   9.899 -0.1621  0.2011 -0.0400
  772MOL0     C 4087   4.454   1.202   9.834 -0.1331  1.0398  0.0061
  772MOL0     O 4088   4.486   1.129   9.722 -0.1845 -0.3391  0.3488
  772MOL0     C 4089   4.614   1.133   9.671  0.4350  0.1590  0.3500
  772MOL0     C 4090   4.686   1.251   9.661  0.2142 -0.7131  0.1136
  772MOL0     C 4091   4.820   1.260   9.612  0.7801 -0.3491 -0.0608
  772MOL0     C 4092   4.883   1.144   9.569 -0.6629  0.0277 -0.1582
  772MOL0     O 4093   5.008   1.157   9.511 -0.1113  0.5632 -0.7725
  772MOL0     C 4094   5.075   1.039   9.468 -1.5629 -0.2528 -0.2699
  772MOL0     C 4095   5.207   1.083   9.391  0.2496  0.3574 -0.3877
  772MOL0     C 4096   5.308   0.976   9.396  0.7875 -0.1848 -0.2066
  772MOL0     C 4097   5.261   0.845   9.328  0.5582  0.7006 -0.2098
  772MOL0     C 4098   5.383   0.754   9.320  0.0913 -1.1018  0.4694
  772MOL0     C 4099   5.352   0.618   9.256 -1.1098  0.7651  0.0133
  772MOL0     C 4100   5.470   0.521   9.259 -0.5647  0.4542  1.3154
  772MOL0     C 4101   5.472   0.443   9.395  0.4735  0.0815  0.2045
  772MOL0     N 4102   5.569   0.330   9.392  0.0255 -0.1993 -0.0365
  772MOL0     C 4103   5.690   0.331   9.337 -0.1784 -0.0397 -1.1151
  772MOL0     C 4104   5.736   0.206   9.340  0.7800  0.1470 -1.0270
  772MOL0     C 4105   5.856   0.153   9.265  0.0129 -0.1654 -0.7037
  772MOL0     C 4106   5.811   0.063   9.157  0.2374 -0.3973  0.2669
  772MOL0     C 4107   5.933   0.010   9.072 -0.1732  0.4860  0.0696
  772MOL0     C 4108   5.866  -0.104   8.990 -0.1139  1.1165 -0.1652
  772MOL0     O 4109   5.972  -0.134   8.901  0.0533 -0.1027  0.3475
  772MOL0     C 4110   5.940  -0.180   8.772 -0.1206  0.6902  0.2267
  772MOL0     C 4111   6.019  -0.144   8.660 -0.3398 -0.7100 -0.0732
  772MOL0     C 4112   5.993  -0.190   8.534  0.5146  0.6608 -0.3665
  772MOL0     C 4113   6.095  -0.156   8.423  0.2998 -0.2752  0.2167
  772MOL0     C 4114   5.877  -0.271   8.512  1.2498  0.4414  0.1620
  772MOL0     C 4115   5.834  -0.334   8.379  0.1879 -0.6328 -0.2811
  772MOL0     O 4116   5.695  -0.362   8.363  0.3197  0.2819  0.0454
  772MOL0     C 4117   5.644  -0.452   8.264  0.9796  0.5256 -0.8648
  772MOL0     C 4118   5.680  -0.463   8.134  1.1744 -0.0567  0.3955
  772MOL0     C 4119   5.603  -0.562   8.055 -0.3574 -0.4960 -0.1792
  772MOL0     C 4120   5.501  -0.641   8.107  0.5447 -0.3102  0.1577
  772MOL0     O 4121   5.441  -0.728   8.024  0.2041 -0.2508  0.0733
  772MOL0     C 4122   5.326  -0.787   8.072  0.5599  0.1462  0.0675
  772MOL0     C 4123   5.277  -0.876   7.958 -0.3962  0.1106  0.3191
  772MOL0     C 4124   5.150  -0.946   8.016  0.1018  0.0519  0.0414
  772MOL0     C 4125   5.088  -1.050   7.910 -0.2708 -0.0439  0.0748
  772MOL0     C 4126   4.936  -1.062   7.935  0.1409 -0.2565  0.3725
  772MOL0     C 4127   4.872  -1.140   7.823  0.5453  0.4300  0.5661
  772MOL0     C 4128   4.724  -1.121   7.812  0.4936  0.1991  0.3942
  772MOL0     C 4129   4.681  -1.237   7.730  0.0947 -0.3868  0.2417
  772MOL0    Cl 4130   4.504  -1.237   7.715 -0.0159  0.1730 -0.4550
  772MOL0     C 4131   5.456  -0.610   8.243  0.3163  0.2039  0.0953
  772MOL0     C 4132   5.540  -0.528   8.321 -0.4345  0.5931  0.4215
  772MOL0     O 4133   5.924  -0.359   8.294 -0.4739  0.6564 -0.7017
  772MOL0     C 4134   5.794  -0.306   8.623 -0.3088 -0.7822 -0.1820
  772MOL0     C 4135   5.837  -0.266   8.751  0.0494  0.2854  0.2863
  772MOL0     N 4136   5.640   0.131   9.408 -0.1910 -0.4425  0.3856
  772MOL0     N 4137   5.544   0.210   9.447  0.1037 -0.2101  0.2152
  772MOL0     C 4138   4.806   1.024   9.575 -0.1544  0.1306  0.0461
  772MOL0     C 4139   4.672   1.017   9.628 -0.3437  0.4943  0.2714
  772MOL0     C 4140   4.307   1.206   9.872  1.1975  0.1665  0.0007
  772MOL0     C 4141   4.208   1.114   9.817 -0.0339 -0.0199 -0.2550
  772MOL0     C 4142   4.088   1.108   9.878  0.3553  0.0153  0.4518
  772MOL0     C 4143   4.046   1.201   9.981 -0.1016  0.1747 -0.0826
  772MOL0     O 4144   3.922   1.180  10.032  0.1053 -0.5193  0.6422
  772MOL0     C 4145   3.829   1.266   9.978  0.9300  0.0173 -0.2180
  772MOL0     C 4146   3.686   1.207   9.994 -0.3026  0.2853  1.2603
  772MOL0     C 4147   3.604   1.211   9.867  0.0378  0.2326  0.3806
  772MOL0     C 4148   3.461   1.155   9.888 -0.6050 -0.3316 -0.1645
  772MOL0     C 4149   3.453   1.012   9.918  0.4538 -0.3760  0.4629
  772MOL0     C 4150   3.449   0.895   9.951  0.6645  0.0692 -0.2060
  772MOL0     C 4151   4.135   1.293  10.030 -1.4107 -0.1932  0.0309
  772MOL0     C 4152   4.264   1.301   9.976  0.2849 -0.2243 -0.5415
  772MOL0     H 4153   4.626   1.337   9.686  1.0475  1.6544 -4.9059
  772MOL0     H 4154   4.877   1.352   9.613 -0.1649  0.2599 -0.8270
  772MOL0     H 4155   5.107   0.982   9.555  1.0799  2.5431  0.7726
  772MOL0     H 4156   5.006   0.982   9.405 -1.7472 -0.5323  0.1765
  772MOL0     H 4157   5.179   1.100   9.287  0.6190 -0.9294 -0.7229
  772MOL0     H 4158   5.250   1.174   9.433  0.3437  0.1781 -0.0891
  772MOL0     H 4159   5.407   1.008   9.363  1.3861  0.4363  1.9951
  772MOL0     H 4160   5.335   0.959   9.501  0.8765  0.3159 -0.1453
  772MOL0     H 4161   5.188   0.799   9.395 -0.2423  2.7933  0.4317
  772MOL0     H 4162   5.215   0.870   9.232  1.1012 -2.1594 -1.3112
  772MOL0     H 4163   5.466   0.808   9.273 -0.2777 -1.3693 -0.5212
  772MOL0     H 4164   5.420   0.736   9.421  1.1383  1.2473  0.5810
  772MOL0     H 4165   5.280   0.570   9.323  2.6944 -0.6676  3.5067
  772MOL0     H 4166   5.302   0.615   9.158  4.4151 -2.2594 -3.1943
  772MOL0     H 4167   5.450   0.447   9.181 -0.2317  2.2396 -0.5613
  772MOL0     H 4168   5.559   0.577   9.227 -1.6738  0.8408 -1.3916
  772MOL0     H 4169   5.373   0.397   9.408 -0.0709  1.6053  1.8805
  772MOL0     H 4170   5.511   0.512   9.470  0.3632  2.0175 -1.4417
  772MOL0     H 4171   5.737   0.405   9.274  1.7413  0.3130  0.6425
  772MOL0     H 4172   5.919   0.226   9.214  1.1090 -2.1868 -2.4217
  772MOL0     H 4173   5.903   0.098   9.347 -2.6638 -3.0069 -0.8798
  772MOL0     H 4174   5.746   0.111   9.083 -1.8398 -1.3142  1.4091
  772MOL0     H 4175   5.755  -0.020   9.201 -0.7475 -1.6187 -2.9733
  772MOL0     H 4176   6.018  -0.030   9.127  0.3795 -0.0504 -1.1502
  772MOL0     H 4177   5.973   0.086   9.004 -0.5991 -0.7796 -1.6413
  772MOL0     H 4178   5.779  -0.075   8.932 -0.7567 -0.3605  0.0200
  772MOL0     H 4179   5.836  -0.197   9.039  2.7953 -0.1400 -0.5452
  772MOL0     H 4180   6.101  -0.073   8.673  0.7115 -1.4069 -2.3299
  772MOL0     H 4181   6.179  -0.095   8.459  1.8695 -1.6206 -1.0062
  772MOL0     H 4182   6.139  -0.246   8.378  1.8253 -0.0506  1.1928
  772MOL0     H 4183   6.056  -0.112   8.331 -1.3006 -2.3276 -0.1623
  772MOL0     H 4184   5.757  -0.400   8.091  0.8191 -0.5416 -0.9857
  772MOL0     H 4185   5.632  -0.591   7.955 -1.4964 -1.6735 -0.2006
  772MOL0     H 4186   5.349  -0.850   8.159 -2.5955  0.4022  1.2574
  772MOL0     H 4187   5.245  -0.721   8.104 -1.2674 -1.9265 -0.0245
  772MOL0     H 4188   5.272  -0.809   7.872  0.2213  0.0635  0.2419
  772MOL0     H 4189   5.359  -0.946   7.939  0.8139  1.6560 -0.3933
  772MOL0     H 4190   5.080  -0.866   8.042  0.6500 -0.0162  1.8040
  772MOL0     H 4191   5.189  -1.005   8.098  1.1784  0.9008  0.1617
  772MOL0     H 4192   5.103  -1.026   7.804 -4.7680 -2.6937 -1.4846
  772MOL0     H 4193   5.130  -1.150   7.923  2.8478  0.7021 -2.9206
  772MOL0     H 4194   4.895  -0.961   7.946 -0.5516 -0.3458 -1.1187
  772MOL0     H 4195   4.924  -1.114   8.030  1.2499 -3.2349 -0.9847
  772MOL0     H 4196   4.917  -1.126   7.724 -3.6783  0.6186 -1.5287
  772MOL0     H 4197   4.906  -1.241   7.851 -1.4822 -0.3772  0.2978
  772MOL0     H 4198   4.708  -1.031   7.753  2.2866  1.5718  1.8764
  772MOL0     H 4199   4.683  -1.111   7.913  0.1746  1.0032  0.1863
  772MOL0     H 4200   4.695  -1.336   7.775 -1.3932 -1.7373 -2.0404
  772MOL0     H 4201   4.734  -1.242   7.634  1.4101  1.3901  0.8273
  772MOL0     H 4202   5.369  -0.662   8.281 -0.6380  2.2351  0.8399
  772MOL0     H 4203   5.529  -0.526   8.429 -0.5009  1.5731  0.4057
  772MOL0     H 4204   5.705  -0.364   8.602 -0.2587 -1.3979  1.1539
  772MOL0     H 4205   5.774  -0.295   8.834 -2.9369 -1.1438 -2.2700
  772MOL0     H 4206   4.851   0.935   9.532 -0.5448  0.1575 -0.4332
  772MOL0     H 4207   4.610   0.928   9.626 -0.1680  0.3783 -0.0373
  772MOL0     H 4208   4.239   1.039   9.745  0.0341 -0.6940  0.4677
  772MOL0     H 4209   4.008   1.037   9.856  0.8260  0.1711 -1.9891
  772MOL0     H 4210   3.840   1.364  10.025  3.9059 -1.1853  1.9497
  772MOL0     H 4211   3.847   1.280   9.871 -0.2806  2.2015 -0.1808
  772MOL0     H 4212   3.638   1.266  10.072 -0.8440  0.6678  0.6474
  772MOL0     H 4213   3.697   1.104  10.030 -0.0840  0.0459  0.5250
  772MOL0     H 4214   3.657   1.160   9.786 -1.8606  2.2775 -2.3470
  772MOL0     H 4215   3.595   1.316   9.838 -0.6068 -0.0441 -0.4845
  772MOL0     H 4216   3.406   1.194   9.802 -0.3703  1.8604  0.6077
  772MOL0     H 4217   3.418   1.209   9.973 -1.2943 -2.2311  0.7503
  772MOL0     H 4218   3.454   0.800  10.000 -0.2145  0.6830  1.1429
  772MOL0     H 4219   4.116   1.371  10.103  1.2400  0.8413 -0.2677
  772MOL0     H 4220   4.321   1.386  10.012 -1.9861  0.6476  1.2445
  773MOL0     O 4221   0.826  10.739   5.621 -0.1125 -0.2849 -0.4754
  773MOL0     C 4222   0.897  10.828   5.668  0.0197  0.2816 -0.3346
  773MOL0     O 4223   0.863  10.956   5.673  0.1827  0.1284 -0.4918
  773MOL0     C 4224   0.741  10.976   5.736  0.5530 -0.4457  0.1777
  773MOL0     C 4225   0.646  11.067   5.686 -0.1902 -0.2714 -0.0130
  773MOL0     C 4226   0.520  11.088   5.751 -0.0871 -0.1242 -0.6093
  773MOL0     C 4227   0.496  11.020   5.881  0.3610 -0.6048  0.9525
  773MOL0     O 4228   0.380  11.044   5.958 -0.1867 -0.1740  0.7698
  773MOL0     C 4229   0.300  11.173   5.934  0.5153 -0.4114  0.1788
  773MOL0     C 4230   0.262  11.232   6.065  0.9653  0.7917  0.0342
  773MOL0     C 4231   0.208  11.378   6.045 -0.4167  0.6231 -0.8814
  773MOL0     C 4232   0.155  11.422   6.181  0.0589  0.0297  0.1754
  773MOL0     C 4233   0.070  11.558   6.176  0.8259 -1.1004  0.2681
  773MOL0     C 4234   0.151  11.673   6.127 -0.6217  0.3239 -0.3476
  773MOL0     C 4235   0.083  11.807   6.115 -0.5194  0.1065 -0.7349
  773MOL0     C 4236   0.150  11.912   6.214 -0.4717  0.0394  0.4253
  773MOL0     N 4237   0.269  11.977   6.154  0.5833  0.8961  0.3686
  773MOL0     C 4238   0.396  11.948   6.205  0.6109 -0.4775  0.5445
  773MOL0     C 4239   0.484  11.965   6.099 -0.6358 -0.0869 -0.1827
  773MOL0     C 4240   0.638  11.941   6.101 -0.0807 -1.1962 -0.4944
  773MOL0     C 4241   0.673  11.811   6.042 -0.0648 -0.1964 -0.6613
  773MOL0     C 4242   0.637  11.696   6.139 -0.8152 -0.3351 -0.9270
  773MOL0     C 4243   0.713  11.706   6.270  0.2983 -0.5147 -0.4923
  773MOL0     O 4244   0.845  11.756   6.259  0.1953  0.4103  0.0881
  773MOL0     C 4245   0.950  11.678   6.241 -0.4838 -0.1994 -0.3565
  773MOL0     C 4246   1.056  11.763   6.208  0.0307  0.0575  0.5636
  773MOL0     C 4247   1.186  11.707   6.203  0.5747 -0.0377 -0.0431
  773MOL0     C 4248   1.302  11.798   6.173  0.6963  0.0867  0.4007
  773MOL0     C 4249   1.197  11.569   6.236  0.1060 -0.0187  0.8672
  773MOL0     C 4250   1.328  11.490   6.235  0.1780 -0.1169  0.2191
  773MOL0     O 4251   1.402  11.493   6.119  0.2731 -0.3100 -0.4336
  773MOL0     C 4252   1.538  11.459   6.127 -0.3763 -0.4794 -0.1635
  773MOL0     C 4253   1.593  11.331   6.153  0.0181  0.3117 -0.2566
  773MOL0     C 4254   1.726  11.301   6.149 -0.6478 -0.5439 -0.0563
  773MOL0     C 4255   1.818  11.405   6.119 -0.2786 -1.1881  0.6009
  773MOL0     O 4256   1.956  11.389   6.103  0.3017 -0.3854  0.4109
  773MOL0     C 4257   1.979  11.266   6.025 -1.0038 -0.5611 -0.5365
  773MOL0     C 4258   2.120  11.265   5.961  0.1483 -0.4110  0.4297
  773MOL0     C 4259   2.229  11.285   6.072  0.2356  0.1352  0.2260
  773MOL0     C 4260   2.364  11.303   6.004  0.4579  0.0675  0.2962
  773MOL0     C 4261   2.481  11.248   6.092  0.2629  0.1626  0.4163
  773MOL0     C 4262   2.611  11.235   6.011  0.7686 -0.1168 -0.2867
  773MOL0     C 4263   2.733  11.226   6.101 -0.7211 -0.0212 -0.2387
  773MOL0     C 4264   2.861  11.208   6.026  0.1482  0.1130 -0.1577
  773MOL0    Cl 4265   2.898  11.353   5.917  0.0503 -0.3908  0.2786
  773MOL0     C 4266   1.766  11.537   6.103  0.0421  0.5279  0.3070
  773MOL0     C 4267   1.624  11.561   6.090 -0.5214 -0.4166  0.3311
  773MOL0     O 4268   1.363  11.433   6.339 -0.3304 -0.0404  0.1283
  773MOL0     C 4269   1.082  11.480   6.248  0.4109  0.2419 -0.0541
  773MOL0     C 4270   0.962  11.541   6.246 -0.5099  1.3423  0.3541
  773MOL0     N 4271   0.405  12.005   5.987 -0.1212 -0.2605  0.1319
  773MOL0     N 4272   0.274  12.001   6.018  0.1778  0.1565  1.0058
  773MOL0     C 4273   0.584  10.922   5.916 -0.0851  0.1042 -0.9966
  773MOL0     C 4274   0.709  10.908   5.857 -0.1276 -0.1462  0.1907
  773MOL0     C 4275   1.040  10.780   5.713  0.3831  0.0728 -0.4731
  773MOL0     C 4276   1.061  10.643   5.735 -0.0588  0.1369 -0.0047
  773MOL0     C 4277   1.189  10.600   5.785  1.5641 -0.0390 -0.0730
  773MOL0     C 4278   1.292  10.691   5.811 -0.5236 -0.2678  0.0362
  773MOL0     O 4279   1.414  10.638   5.842  0.1688  0.5399  0.2232
  773MOL0     C 4280   1.533  10.720   5.852 -0.3046 -0.0987 -0.1930
  773MOL0     C 4281   1.663  10.647   5.845  0.3165 -0.1427 -0.3648
  773MOL0     C 4282   1.687  10.553   5.961  0.4485 -0.8415 -0.6078
  773MOL0     C 4283   1.784  10.449   5.923  0.1001 -0.2620 -0.0799
  773MOL0     C 4284   1.901  10.487   5.848  0.3972 -0.1824  1.4629
  773MOL0     C 4285   1.996  10.525   5.782  1.1937  0.5036  1.4276
  773MOL0     C 4286   1.264  10.831   5.800  0.2281  0.3424 -0.0540
  773MOL0     C 4287   1.133  10.872   5.761  0.5487 -0.9926  0.1727
  773MOL0     H 4288   0.688  11.128   5.607 -1.4223  1.2281  0.4437
  773MOL0     H 4289   0.451  11.152   5.698  1.8672  0.8675 -2.0840
  773MOL0     H 4290   0.342  11.246   5.865 -0.0264  0.9297  1.2321
  773MOL0     H 4291   0.201  11.145   5.895  0.4998 -0.8803  0.5355
  773MOL0     H 4292   0.199  11.163   6.122  2.4483 -2.0948 -1.5811
  773MOL0     H 4293   0.351  11.234   6.128  0.0159 -0.7016  1.5021
  773MOL0     H 4294   0.283  11.451   6.013  0.3503  0.7571  1.0562
  773MOL0     H 4295   0.133  11.388   5.966 -2.2375  0.0975  0.6797
  773MOL0     H 4296   0.078  11.359   6.226  0.4061 -1.8510 -1.7516
  773MOL0     H 4297   0.232  11.427   6.259 -0.8949 -0.4353  1.1753
  773MOL0     H 4298  -0.013  11.546   6.107  0.2273 -1.7052  1.0888
  773MOL0     H 4299   0.036  11.593   6.274 -0.1208  0.6879 -0.6400
  773MOL0     H 4300   0.231  11.686   6.201 -1.9537  0.2266  1.1446
  773MOL0     H 4301   0.194  11.659   6.027  2.0113 -0.2495  0.7849
  773MOL0     H 4302   0.083  11.832   6.009 -3.0783 -2.1474 -1.3621
  773MOL0     H 4303  -0.020  11.794   6.150 -0.2553 -3.2257 -0.9321
  773MOL0     H 4304   0.189  11.858   6.301 -0.5491  0.6742  0.8590
  773MOL0     H 4305   0.081  11.987   6.254 -0.8059  0.8913 -1.6034
  773MOL0     H 4306   0.429  11.909   6.301  1.6190  0.3171  0.5412
  773MOL0     H 4307   0.668  12.025   6.039 -1.5000  0.9942  1.6073
  773MOL0     H 4308   0.671  11.943   6.205 -0.1634 -2.6791 -0.4194
  773MOL0     H 4309   0.780  11.805   6.018  0.4444 -0.2347  1.4303
  773MOL0     H 4310   0.604  11.802   5.958 -3.2931  3.7920  1.1973
  773MOL0     H 4311   0.648  11.597   6.095  1.1672 -0.2627 -0.6939
  773MOL0     H 4312   0.532  11.693   6.170  0.1356  1.2870  3.0657
  773MOL0     H 4313   0.700  11.609   6.319 -2.7124 -0.0371 -0.1717
  773MOL0     H 4314   0.658  11.775   6.335 -0.6950 -1.1264 -0.6664
  773MOL0     H 4315   1.031  11.868   6.192  0.1902  0.1162  0.7032
  773MOL0     H 4316   1.394  11.750   6.137  1.4888  0.9057  1.2669
  773MOL0     H 4317   1.272  11.866   6.093  0.7698 -1.4220 -0.9839
  773MOL0     H 4318   1.328  11.853   6.264  1.7289  0.2377  0.0312
  773MOL0     H 4319   1.529  11.257   6.200 -0.1309 -0.8802 -2.2298
  773MOL0     H 4320   1.772  11.207   6.179 -1.0367  0.1257  2.9878
  773MOL0     H 4321   1.970  11.174   6.083 -2.1369 -0.3633 -0.3684
  773MOL0     H 4322   1.914  11.259   5.938  0.4331  0.3505 -1.7317
  773MOL0     H 4323   2.132  11.174   5.902 -0.7861  0.1648 -0.6757
  773MOL0     H 4324   2.135  11.348   5.892 -0.2750 -1.7146 -1.2865
  773MOL0     H 4325   2.240  11.204   6.144  1.8784  0.6492  0.6002
  773MOL0     H 4326   2.207  11.373   6.132 -0.0242  0.5124 -0.4122
  773MOL0     H 4327   2.365  11.252   5.907  3.3850  1.2936 -0.4496
  773MOL0     H 4328   2.380  11.408   5.980 -0.4195 -0.6912 -4.7222
  773MOL0     H 4329   2.456  11.151   6.136  1.4677  0.3751  1.6251
  773MOL0     H 4330   2.494  11.313   6.179  0.3060 -0.0899  0.6021
  773MOL0     H 4331   2.593  11.142   5.958  0.4326 -0.4382  0.3824
  773MOL0     H 4332   2.632  11.318   5.943  2.3268 -1.5009 -1.5662
  773MOL0     H 4333   2.714  11.134   6.157  1.6754  0.8125  2.1266
  773MOL0     H 4334   2.729  11.303   6.178 -0.3927 -0.5133  0.2723
  773MOL0     H 4335   2.857  11.116   5.967 -1.3701 -0.3793  0.6571
  773MOL0     H 4336   2.946  11.188   6.093 -0.3187  0.0665  0.4276
  773MOL0     H 4337   1.844  11.611   6.087 -0.3305  0.6067 -1.3117
  773MOL0     H 4338   1.590  11.661   6.067 -0.3982 -0.7160 -1.2297
  773MOL0     H 4339   1.103  11.375   6.262 -1.2275 -0.1552 -0.4283
  773MOL0     H 4340   0.871  11.486   6.269 -0.7447  1.0738 -1.0985
  773MOL0     H 4341   0.562  10.847   5.991 -0.0777 -0.3396 -1.4358
  773MOL0     H 4342   0.778  10.848   5.915  2.3556  2.4034  0.0733
  773MOL0     H 4343   0.979  10.572   5.727 -0.6337  0.1116  4.0647
  773MOL0     H 4344   1.194  10.492   5.786 -1.8275 -0.3306 -1.0180
  773MOL0     H 4345   1.536  10.786   5.765  0.2549  0.6214  0.3542
  773MOL0     H 4346   1.543  10.775   5.946  1.2666 -0.4348 -0.1300
  773MOL0     H 4347   1.743  10.722   5.847  0.0986  0.1802 -2.0306
  773MOL0     H 4348   1.664  10.616   5.740 -1.9736  3.5120 -1.6544
  773MOL0     H 4349   1.601  10.498   6.001  0.1255 -0.5470 -0.8901
  773MOL0     H 4350   1.731  10.615   6.039 -0.9788 -1.0663  0.4023
  773MOL0     H 4351   1.726  10.370   5.875 -0.0254  0.4843 -1.1876
  773MOL0     H 4352   1.809  10.393   6.014  0.0299 -1.8695 -1.0138
  773MOL0     H 4353   2.086  10.562   5.736  0.1769 -0.2824 -1.3763
  773MOL0     H 4354   1.343  10.903   5.816  0.9575 -0.5184  0.3091
  773MOL0     H 4355   1.101  10.976   5.769  0.3116 -1.1722  2.1471
  774MOL0     O 4356   9.066   7.658   0.139 -0.7076  0.7607 -0.2172
  774MOL0     C 4357   9.120   7.555   0.100  0.0914  0.6842 -0.4994
  774MOL0     O 4358   9.058   7.464   0.022 -0.7165  0.1379  0.4385
  774MOL0     C 4359   8.922   7.461   0.027 -0.2979 -0.4560  0.2026
  774MOL0     C 4360   8.849   7.393   0.127 -0.4494 -0.2199 -0.7881
  774MOL0     C 4361   8.708   7.386   0.119 -0.7992  0.1714 -0.2042
  774MOL0     C 4362   8.639   7.455   0.015  0.1733  0.0367 -0.7178
  774MOL0     O 4363   8.499   7.446  -0.003  0.3064 -0.2333 -0.4387
  774MOL0     C 4364   8.426   7.390   0.103 -0.0001 -0.1387  0.0388
  774MOL0     C 4365   8.284   7.449   0.096 -0.6418 -0.0449  0.5387
  774MOL0     C 4366   8.212   7.416   0.227 -0.1184  0.1621 -0.5367
  774MOL0     C 4367   8.050   7.428   0.214  0.2319  0.3576  0.3744
  774MOL0     C 4368   7.956   7.463   0.337 -0.2380  0.0480 -0.6472
  774MOL0     C 4369   7.985   7.352   0.445  0.4654  0.1991 -0.5554
  774MOL0     C 4370   7.883   7.363   0.551 -0.2450 -0.2009  0.2855
  774MOL0     C 4371   7.926   7.267   0.665 -0.0796 -0.1921  0.6937
  774MOL0     N 4372   7.856   7.318   0.788 -0.4373 -0.0596  0.6248
  774MOL0     C 4373   7.725   7.379   0.784  0.4065  0.4109 -0.9124
  774MOL0     C 4374   7.690   7.402   0.917 -0.7595 -0.7827  0.5454
  774MOL0     C 4375   7.565   7.462   0.988 -0.5426 -0.5397  0.0310
  774MOL0     C 4376   7.459   7.495   0.886 -0.4894  0.4287 -0.0314
  774MOL0     C 4377   7.356   7.584   0.952 -0.1196 -0.3926 -0.5191
  774MOL0     C 4378   7.241   7.627   0.856  1.2889  0.5587 -0.3364
  774MOL0     O 4379   7.191   7.497   0.798 -0.0725 -0.5917 -0.0214
  774MOL0     C 4380   7.073   7.508   0.719  0.1332 -0.1321  1.6571
  774MOL0     C 4381   7.032   7.391   0.656  0.1049  0.7592 -0.2332
  774MOL0     C 4382   6.913   7.384   0.578 -0.1445 -0.7171 -0.1239
  774MOL0     C 4383   6.887   7.248   0.523 -0.2351  0.3303  0.9439
  774MOL0     C 4384   6.832   7.498   0.551  0.1056 -0.2802  0.4634
  774MOL0     C 4385   6.704   7.502   0.477  0.4357 -0.0789 -0.2321
  774MOL0     O 4386   6.663   7.620   0.422  0.2027 -0.7108 -0.4381
  774MOL0     C 4387   6.550   7.635   0.343 -0.4347  0.1461  0.2682
  774MOL0     C 4388   6.425   7.592   0.394 -0.2183 -0.4457 -0.0874
  774MOL0     C 4389   6.317   7.608   0.317  0.6112  0.1308  0.8530
  774MOL0     C 4390   6.317   7.671   0.190  0.4282  0.3624 -0.2552
  774MOL0     O 4391   6.196   7.698   0.130  0.6448  0.4248  0.2487
  774MOL0     C 4392   6.185   7.769   0.005  0.3308 -0.4137 -0.0297
  774MOL0     C 4393   6.038   7.770  -0.029 -0.0790  0.4114 -0.2558
  774MOL0     C 4394   5.942   7.837   0.068  0.1958  0.0113  0.1565
  774MOL0     C 4395   5.884   7.970   0.024  0.4716  0.8682 -0.2369
  774MOL0     C 4396   5.787   8.026   0.131  0.4891  0.5223 -0.3638
  774MOL0     C 4397   5.710   8.155   0.079 -0.5369  0.1942  0.2209
  774MOL0     C 4398   5.577   8.188   0.164 -1.6501 -0.0691  0.6570
  774MOL0     C 4399   5.611   8.267   0.296 -0.6511 -0.3286  0.4302
  774MOL0    Cl 4400   5.461   8.337   0.354 -0.3902 -0.1294  0.1619
  774MOL0     C 4401   6.437   7.720   0.142 -0.5753  0.3486 -0.3084
  774MOL0     C 4402   6.551   7.700   0.220  0.2541 -0.6035 -0.7480
  774MOL0     O 4403   6.649   7.396   0.475  0.4329 -0.7139  0.7213
  774MOL0     C 4404   6.873   7.619   0.615 -0.0337  0.4239 -0.5580
  774MOL0     C 4405   6.990   7.628   0.694  0.3879  0.3655 -1.1148
  774MOL0     N 4406   7.807   7.362   0.981  0.2189 -0.6553 -0.5821
  774MOL0     N 4407   7.898   7.301   0.911 -0.4751  0.4480  0.0822
  774MOL0     C 4408   8.712   7.520  -0.079 -0.0223 -0.2133  0.1050
  774MOL0     C 4409   8.850   7.536  -0.072 -0.8947 -0.6063 -0.9534
  774MOL0     C 4410   9.254   7.528   0.146 -0.3486 -0.4880 -0.6236
  774MOL0     C 4411   9.294   7.576   0.272  0.8814 -0.8622  0.1505
  774MOL0     C 4412   9.424   7.540   0.316 -0.0167 -0.4093  0.4146
  774MOL0     C 4413   9.500   7.447   0.245  0.4007  0.6240 -0.2415
  774MOL0     O 4414   9.623   7.407   0.300 -0.1461 -0.4025 -0.1728
  774MOL0     C 4415   9.711   7.321   0.225  0.4600 -0.1018  0.4247
  774MOL0     C 4416   9.820   7.269   0.310 -0.0368  0.7693 -0.0953
  774MOL0     C 4417   9.918   7.176   0.236 -0.4293 -0.2519  0.6714
  774MOL0     C 4418  10.033   7.141   0.330 -0.3946  0.3373 -0.3805
  774MOL0     C 4419  10.114   7.034   0.272 -0.1951  0.7471  0.2149
  774MOL0     C 4420  10.177   6.936   0.237  0.4404 -0.8807  0.3101
  774MOL0     C 4421   9.458   7.404   0.116 -0.1008 -0.1109  0.0008
  774MOL0     C 4422   9.333   7.443   0.070 -0.8563 -0.2865 -1.4189
  774MOL0     H 4423   8.904   7.341   0.204  2.1379  0.5189 -2.0227
  774MOL0     H 4424   8.665   7.327   0.199 -2.2011  0.0945 -0.9817
  774MOL0     H 4425   8.433   7.282   0.088 -1.7874 -0.4476  1.0874
  774MOL0     H 4426   8.475   7.418   0.197 -0.0685 -2.1689  0.7302
  774MOL0     H 4427   8.286   7.556   0.074  3.6988 -0.4157 -1.9817
  774MOL0     H 4428   8.225   7.404   0.015 -0.3749  2.7255 -1.3386
  774MOL0     H 4429   8.231   7.313   0.257  2.2359  0.7874  0.3561
  774MOL0     H 4430   8.244   7.488   0.303 -4.5853  1.6939  0.2167
  774MOL0     H 4431   8.025   7.498   0.134 -1.2300  1.6992  1.9393
  774MOL0     H 4432   8.024   7.338   0.158 -0.6229  1.3318 -0.8392
  774MOL0     H 4433   7.983   7.562   0.375 -2.5673 -0.0987  1.6580
  774MOL0     H 4434   7.852   7.477   0.308 -0.6847  1.7114  1.5059
  774MOL0     H 4435   7.973   7.253   0.400 -1.2488  0.5090 -0.8592
  774MOL0     H 4436   8.080   7.372   0.495  1.0250  0.1631 -1.5677
  774MOL0     H 4437   7.885   7.465   0.591  0.0606 -0.2600  0.4213
  774MOL0     H 4438   7.785   7.326   0.519 -0.5689  2.5015 -2.2706
  774MOL0     H 4439   8.032   7.285   0.683  0.5233 -0.7590 -1.9730
  774MOL0     H 4440   7.906   7.161   0.650 -1.6518  0.4580 -2.6683
  774MOL0     H 4441   7.671   7.412   0.696 -0.2102 -4.6339 -2.7646
  774MOL0     H 4442   7.530   7.405   1.075 -0.4845  2.2325  2.0256
  774MOL0     H 4443   7.607   7.553   1.034  0.0180  0.2686 -1.9787
  774MOL0     H 4444   7.413   7.401   0.853  0.6698  0.7031 -2.6781
  774MOL0     H 4445   7.492   7.548   0.796 -0.4553 -1.8785 -1.4586
  774MOL0     H 4446   7.395   7.672   1.004 -0.3518 -1.7380  2.0917
  774MOL0     H 4447   7.299   7.528   1.027 -1.5608  0.9079 -0.5810
  774MOL0     H 4448   7.271   7.686   0.769 -1.0300  2.0502 -0.2183
  774MOL0     H 4449   7.154   7.676   0.901 -1.9532 -1.2209 -4.0245
  774MOL0     H 4450   7.099   7.306   0.666  0.5586  0.9181 -1.7507
  774MOL0     H 4451   6.827   7.198   0.600  1.0667 -0.0473  1.7342
  774MOL0     H 4452   6.845   7.262   0.423 -2.5199  2.2622  2.0759
  774MOL0     H 4453   6.978   7.187   0.518 -1.1209 -1.4396  3.9779
  774MOL0     H 4454   6.417   7.545   0.492  2.2415  1.5020  1.1616
  774MOL0     H 4455   6.218   7.585   0.355 -1.1895  4.6769 -0.4377
  774MOL0     H 4456   6.218   7.874   0.005 -0.1917 -0.2323 -1.0882
  774MOL0     H 4457   6.240   7.715  -0.072 -1.6813 -0.7319 -1.3113
  774MOL0     H 4458   6.025   7.796  -0.134 -0.5062 -0.8768 -0.5473
  774MOL0     H 4459   6.010   7.665  -0.014 -1.5494  1.0517  1.9319
  774MOL0     H 4460   5.994   7.840   0.164  0.3046 -2.0531  0.2115
  774MOL0     H 4461   5.857   7.768   0.079 -0.4527  1.0789  2.2211
  774MOL0     H 4462   5.964   8.040  -0.003  3.7931 -1.5818  2.3401
  774MOL0     H 4463   5.819   7.948  -0.061 -1.0825  0.9310  0.8859
  774MOL0     H 4464   5.838   8.038   0.227 -2.2364 -1.7676  1.5626
  774MOL0     H 4465   5.708   7.954   0.158 -0.3413  2.5305  3.1364
  774MOL0     H 4466   5.778   8.240   0.077 -0.8201  0.4102 -0.8717
  774MOL0     H 4467   5.678   8.138  -0.024 -1.2869  1.0648  0.3028
  774MOL0     H 4468   5.518   8.097   0.174  0.2194 -1.5478 -0.8306
  774MOL0     H 4469   5.529   8.259   0.096 -0.5809  0.2073  0.1603
  774MOL0     H 4470   5.679   8.350   0.276  2.7399 -3.0617 -0.4441
  774MOL0     H 4471   5.657   8.198   0.368 -1.2383  0.7359  1.8712
  774MOL0     H 4472   6.450   7.779   0.051  0.0174  0.2820 -0.2709
  774MOL0     H 4473   6.642   7.748   0.184  0.5559 -1.2838 -0.9078
  774MOL0     H 4474   6.822   7.713   0.597  3.1408  2.9171  2.2934
  774MOL0     H 4475   7.028   7.718   0.741  0.5315  0.4374 -1.3663
  774MOL0     H 4476   8.662   7.564  -0.164 -2.9900 -1.7740  0.8894
  774MOL0     H 4477   8.909   7.594  -0.142  0.4191 -0.2480  0.3858
  774MOL0     H 4478   9.237   7.642   0.337  1.0723 -1.3978  0.8744
  774MOL0     H 4479   9.460   7.596   0.401 -2.9355  2.6002 -0.1229
  774MOL0     H 4480   9.650   7.244   0.177  1.5588 -1.0902  0.5721
  774MOL0     H 4481   9.753   7.376   0.141 -1.8927 -0.0422 -0.8145
  774MOL0     H 4482   9.782   7.216   0.399  1.4602  1.8732  1.2621
  774MOL0     H 4483   9.872   7.356   0.351 -2.5713  1.3613  2.1339
  774MOL0     H 4484   9.964   7.227   0.151  0.4924  0.4974  1.5881
  774MOL0     H 4485   9.858   7.091   0.202  0.0603 -1.4017  2.5237
  774MOL0     H 4486   9.997   7.102   0.426 -1.7503 -0.2002 -1.0770
  774MOL0     H 4487  10.092   7.232   0.342 -0.8437  0.2899  3.2533
  774MOL0     H 4488  10.233   6.845   0.223  1.6036  0.1272 -2.3104
  774MOL0     H 4489   9.521   7.339   0.056 -1.4094  0.5452 -2.2236
  774MOL0     H 4490   9.311   7.408  -0.030 -1.7427  1.8474 -2.0330
  775MOL0     O 4491   9.027   6.403  11.037 -0.4799 -1.1367 -0.1275
  775MOL0     C 4492   9.057   6.376  10.925  0.8406 -0.8187  0.7382
  775MOL0     O 4493   8.979   6.401  10.813  0.1176  0.1597 -0.7170
  775MOL0     C 4494   8.848   6.453  10.818 -0.1899  0.7776  0.0722
  775MOL0     C 4495   8.735   6.376  10.805 -0.5804  0.6409 -0.4954
  775MOL0     C 4496   8.608   6.433  10.775 -0.1317 -1.2280 -0.1132
  775MOL0     C 4497   8.594   6.573  10.768 -0.0379  0.4062 -0.0253
  775MOL0     O 4498   8.466   6.631  10.757  0.0069 -0.6437  0.2181
  775MOL0     C 4499   8.446   6.712  10.641  0.2273  0.2050 -0.0042
  775MOL0     C 4500   8.294   6.714  10.592 -0.7907  0.3494 -0.2512
  775MOL0     C 4501   8.204   6.748  10.705  0.7863 -0.1417  0.7292
  775MOL0     C 4502   8.065   6.693  10.683 -0.4723  0.3996 -0.3746
  775MOL0     C 4503   7.976   6.788  10.596 -0.3755  0.0964  0.2537
  775MOL0     C 4504   7.837   6.713  10.573  0.6766 -0.1776 -0.3522
  775MOL0     C 4505   7.765   6.802  10.467 -0.4078  0.3664  0.2252
  775MOL0     C 4506   7.648   6.726  10.403 -1.0961 -0.1319  0.2399
  775MOL0     N 4507   7.589   6.797  10.291 -0.5067 -0.0360  0.1158
  775MOL0     C 4508   7.620   6.800  10.161 -0.5244  0.1979  0.3930
  775MOL0     C 4509   7.538   6.889  10.104 -0.8031 -0.0714  0.3931
  775MOL0     C 4510   7.526   6.927   9.951 -0.3903 -0.1967 -0.2810
  775MOL0     C 4511   7.399   6.880   9.902  0.2648  0.3594  0.5774
  775MOL0     C 4512   7.388   6.888   9.752  0.2751  0.6161 -0.1569
  775MOL0     C 4513   7.447   6.767   9.686  0.5102 -0.5538  0.2883
  775MOL0     O 4514   7.427   6.765   9.544 -0.3429 -0.6369  0.3066
  775MOL0     C 4515   7.307   6.727   9.485  0.4428 -0.6069 -0.5356
  775MOL0     C 4516   7.206   6.666   9.556  0.2191 -0.1461  0.8300
  775MOL0     C 4517   7.095   6.615   9.481  0.8170 -0.6238 -0.7699
  775MOL0     C 4518   7.024   6.510   9.559  0.1248  1.0197  0.0656
  775MOL0     C 4519   7.075   6.639   9.350  0.0911  0.1768  0.2684
  775MOL0     C 4520   6.957   6.589   9.265 -0.4472 -1.2630 -0.5391
  775MOL0     O 4521   6.853   6.522   9.326  0.2013 -0.7644  0.2401
  775MOL0     C 4522   6.734   6.502   9.270 -0.3655  0.2576  0.2540
  775MOL0     C 4523   6.667   6.380   9.279  0.6675  0.5167  0.0698
  775MOL0     C 4524   6.544   6.345   9.209 -0.4037 -0.8332  1.0910
  775MOL0     C 4525   6.489   6.445   9.130 -1.4102 -1.0306 -0.1698
  775MOL0     O 4526   6.379   6.423   9.050  0.3904 -0.1602 -0.4479
  775MOL0     C 4527   6.356   6.508   8.935  0.1723 -0.1243  0.9651
  775MOL0     C 4528   6.260   6.447   8.829 -0.4459  0.0319 -0.6666
  775MOL0     C 4529   6.126   6.408   8.892 -0.0788 -0.4830 -0.1901
  775MOL0     C 4530   6.040   6.332   8.789 -0.3096 -0.5508  0.3083
  775MOL0     C 4531   5.902   6.298   8.843  0.0843  0.2827  0.1422
  775MOL0     C 4532   5.796   6.235   8.750  0.2599  0.5449  0.9502
  775MOL0     C 4533   5.839   6.101   8.681 -0.4876 -0.5209  0.6353
  775MOL0     C 4534   5.728   6.028   8.611 -0.5053  0.1120  0.1814
  775MOL0    Cl 4535   5.584   5.994   8.714 -0.1299  0.0120  0.2124
  775MOL0     C 4536   6.556   6.571   9.118 -0.0852  0.0135 -0.8081
  775MOL0     C 4537   6.668   6.602   9.195  0.0538  0.1856 -0.2422
  775MOL0     O 4538   6.971   6.601   9.144 -0.1523  0.3208 -0.0789
  775MOL0     C 4539   7.164   6.724   9.287 -0.5251  0.6352  0.3637
  775MOL0     C 4540   7.281   6.767   9.351 -0.3747  0.2320  0.3086
  775MOL0     N 4541   7.466   6.941  10.205  0.8459 -0.3592 -0.1037
  775MOL0     N 4542   7.491   6.883  10.313  0.6437  0.7046 -0.1758
  775MOL0     C 4543   8.704   6.649  10.789 -0.3488  0.9596  0.1082
  775MOL0     C 4544   8.827   6.593  10.823 -0.8739 -0.1777  0.1168
  775MOL0     C 4545   9.183   6.306  10.910  0.5751  0.7227  0.3266
  775MOL0     C 4546   9.253   6.230  11.006  0.7430 -0.6746 -0.0098
  775MOL0     C 4547   9.360   6.153  10.964  0.7325 -0.1898 -0.7550
  775MOL0     C 4548   9.412   6.159  10.834  0.0394 -0.8917 -1.4304
  775MOL0     O 4549   9.523   6.091  10.816 -0.1596  0.0821 -0.2024
  775MOL0     C 4550   9.572   6.063  10.685  0.2794  0.1384 -0.1051
  775MOL0     C 4551   9.686   6.148  10.633 -0.5446  0.2376  0.1240
  775MOL0     C 4552   9.825   6.083  10.685 -0.1662 -0.2648 -0.6793
  775MOL0     C 4553   9.945   6.175  10.652  0.6057 -0.0935  0.6438
  775MOL0     C 4554  10.082   6.125  10.699  0.0209 -0.5370 -0.4901
  775MOL0     C 4555  10.196   6.106  10.737  0.0067  0.7678  0.3784
  775MOL0     C 4556   9.352   6.250  10.753 -0.1085  0.0534 -0.5246
  775MOL0     C 4557   9.239   6.328  10.782 -0.2486 -0.4830 -0.4242
  775MOL0     H 4558   8.748   6.269  10.823 -0.8085  1.1558  3.6479
  775MOL0     H 4559   8.520   6.371  10.757 -0.8061 -0.0212 -1.1131
  775MOL0     H 4560   8.475   6.806  10.688  1.8439 -1.5095  2.7668
  775MOL0     H 4561   8.510   6.681  10.559 -0.0441 -1.9959  0.5385
  775MOL0     H 4562   8.291   6.794  10.518  0.0595  1.2063  0.6173
  775MOL0     H 4563   8.283   6.609  10.563  1.1660  0.3125 -0.9883
  775MOL0     H 4564   8.247   6.712  10.798  0.2117 -2.1290  0.2621
  775MOL0     H 4565   8.193   6.856  10.717  1.5541  0.1014 -0.5026
  775MOL0     H 4566   8.070   6.594  10.638 -1.8933  0.4478 -0.6723
  775MOL0     H 4567   8.020   6.677  10.781  0.8401  0.4332  0.2565
  775MOL0     H 4568   7.956   6.880  10.653 -0.8953 -0.0810  0.3604
  775MOL0     H 4569   8.012   6.807  10.494 -0.1005 -0.2063  0.2940
  775MOL0     H 4570   7.859   6.609  10.551  2.0875 -1.0997  4.3480
  775MOL0     H 4571   7.787   6.710  10.670  2.1386 -1.3063  0.3797
  775MOL0     H 4572   7.723   6.883  10.527 -2.6326 -0.0574 -0.6511
  775MOL0     H 4573   7.837   6.841  10.394 -2.2036 -0.4104 -2.0956
  775MOL0     H 4574   7.568   6.711  10.476 -1.6350  1.4696  0.0266
  775MOL0     H 4575   7.692   6.634  10.364  1.0506  1.9584 -2.7402
  775MOL0     H 4576   7.711   6.751  10.125  0.0568 -1.0240  3.2431
  775MOL0     H 4577   7.521   7.036   9.951 -1.4748 -0.0925  3.3223
  775MOL0     H 4578   7.613   6.889   9.897  2.0836  1.4050  2.2735
  775MOL0     H 4579   7.325   6.934   9.961 -2.0153 -3.5800  1.7292
  775MOL0     H 4580   7.376   6.775   9.924 -1.6997  0.8248  0.8759
  775MOL0     H 4581   7.432   6.979   9.711 -0.4129 -0.2627 -3.0441
  775MOL0     H 4582   7.281   6.893   9.730  0.6916 -1.2939 -3.2435
  775MOL0     H 4583   7.404   6.675   9.727 -1.6110  0.3343  0.1672
  775MOL0     H 4584   7.554   6.751   9.704  0.5911 -0.7876 -0.3631
  775MOL0     H 4585   7.212   6.629   9.657  0.0962 -1.2439  0.4431
  775MOL0     H 4586   7.077   6.467   9.645 -0.1509 -0.5629 -0.5187
  775MOL0     H 4587   6.917   6.524   9.576 -0.5869 -3.5361  0.7472
  775MOL0     H 4588   7.018   6.418   9.500 -1.9197  1.3021 -0.2518
  775MOL0     H 4589   6.724   6.313   9.342 -1.2639  0.2690  1.6777
  775MOL0     H 4590   6.494   6.248   9.218 -2.2410 -0.3846 -2.4665
  775MOL0     H 4591   6.312   6.604   8.963  0.3783  0.1244  0.4296
  775MOL0     H 4592   6.449   6.528   8.882 -0.6463  3.2992  0.5999
  775MOL0     H 4593   6.237   6.523   8.754 -0.3660  0.2598 -0.4616
  775MOL0     H 4594   6.312   6.357   8.795  0.4418  0.8230 -1.4559
  775MOL0     H 4595   6.061   6.484   8.937 -1.4133 -1.4893 -0.3421
  775MOL0     H 4596   6.129   6.339   8.977  0.0839  1.1213  1.1779
  775MOL0     H 4597   6.030   6.391   8.697 -1.0436 -1.2812 -0.0895
  775MOL0     H 4598   6.094   6.241   8.761  2.9461  0.4873  2.6135
  775MOL0     H 4599   5.856   6.391   8.877 -2.7714 -0.5900 -1.0504
  775MOL0     H 4600   5.913   6.244   8.938 -1.1146  1.5023  1.0290
  775MOL0     H 4601   5.694   6.222   8.788  0.1594 -1.2056  0.1429
  775MOL0     H 4602   5.786   6.313   8.674 -0.9226 -0.7757 -0.3126
  775MOL0     H 4603   5.883   6.027   8.748  0.4760 -0.9513 -0.4148
  775MOL0     H 4604   5.912   6.122   8.601 -0.2527 -0.4524  0.8669
  775MOL0     H 4605   5.768   5.939   8.560  3.6112 -1.1094  4.7593
  775MOL0     H 4606   5.686   6.097   8.538 -1.6863 -0.1266  0.6274
  775MOL0     H 4607   6.515   6.644   9.049 -0.6779 -1.7224 -2.3971
  775MOL0     H 4608   6.696   6.706   9.201 -4.0598  1.4330  0.6416
  775MOL0     H 4609   7.163   6.759   9.184 -2.0400 -1.6813 -0.5039
  775MOL0     H 4610   7.357   6.818   9.292  0.7882 -1.2260  0.4660
  775MOL0     H 4611   8.700   6.758  10.787  2.1313  1.1034 -0.9920
  775MOL0     H 4612   8.913   6.656  10.839 -1.5383  0.9628 -0.6714
  775MOL0     H 4613   9.211   6.224  11.105 -3.8098  0.4765 -1.6130
  775MOL0     H 4614   9.405   6.079  11.030  0.7417  0.5880  0.1247
  775MOL0     H 4615   9.609   5.960  10.682  1.1034  0.4209 -3.1365
  775MOL0     H 4616   9.486   6.054  10.618  0.0560  0.0517  0.1927
  775MOL0     H 4617   9.678   6.254  10.660  2.6084  0.2829  1.2973
  775MOL0     H 4618   9.686   6.145  10.524 -1.0385 -2.9087  0.1250
  775MOL0     H 4619   9.842   5.988  10.634  1.8770 -0.0415 -0.5085
  775MOL0     H 4620   9.823   6.071  10.794 -1.7739  2.1885 -0.3486
  775MOL0     H 4621   9.929   6.275  10.694  0.3658  0.0039  0.3229
  775MOL0     H 4622   9.947   6.190  10.544  3.5598 -0.2335  0.6073
  775MOL0     H 4623  10.293   6.077  10.772 -0.0647 -0.1319 -0.1194
  775MOL0     H 4624   9.389   6.248  10.650  0.4762 -1.8355 -0.3185
  775MOL0     H 4625   9.202   6.407  10.717  1.6931  0.8607 -0.0061
  776MOL0     O 4626   9.446   4.460   5.371 -0.3781 -0.5987  0.3599
  776MOL0     C 4627   9.537   4.427   5.294 -0.7673 -0.4742  0.6476
  776MOL0     O 4628   9.523   4.326   5.202  0.5874 -0.1248  0.8305
  776MOL0     C 4629   9.390   4.286   5.185  0.0836 -0.4013 -0.1606
  776MOL0     C 4630   9.284   4.372   5.141  0.4796  0.2991 -0.4988
  776MOL0     C 4631   9.157   4.327   5.100  0.3478 -0.1969 -0.4576
  776MOL0     C 4632   9.132   4.191   5.117 -1.0314  0.7036 -0.0760
  776MOL0     O 4633   9.006   4.155   5.085  0.2854  0.0419  0.1464
  776MOL0     C 4634   8.947   4.037   5.144  0.6201 -0.1589  0.0109
  776MOL0     C 4635   8.798   4.060   5.179 -0.5891 -0.1260  0.1118
  776MOL0     C 4636   8.756   3.995   5.310 -0.6035  0.7166 -1.2306
  776MOL0     C 4637   8.609   3.999   5.321  0.3199 -0.2034 -0.0015
  776MOL0     C 4638   8.558   3.910   5.439 -0.1617  0.5321  1.0864
  776MOL0     C 4639   8.404   3.897   5.436  0.3071  0.3512  0.8046
  776MOL0     C 4640   8.359   3.831   5.556  1.3268 -0.1092 -0.4699
  776MOL0     C 4641   8.209   3.798   5.570  0.2809 -0.2732 -0.4168
  776MOL0     N 4642   8.194   3.696   5.677  0.9793 -0.3020 -0.3035
  776MOL0     C 4643   8.169   3.733   5.807  0.1116  0.3878  0.1079
  776MOL0     C 4644   8.207   3.619   5.877  0.8992  1.4301  0.2288
  776MOL0     C 4645   8.210   3.605   6.032  0.5507  0.1542  0.0290
  776MOL0     C 4646   8.338   3.669   6.087  0.1488  0.1355  0.3100
  776MOL0     C 4647   8.343   3.824   6.078 -0.4219  0.4547 -0.2892
  776MOL0     C 4648   8.480   3.882   6.112 -0.0139  0.4172 -0.0123
  776MOL0     O 4649   8.519   3.847   6.253  0.0250  0.0014  0.5021
  776MOL0     C 4650   8.441   3.897   6.363 -0.1210 -0.2392 -0.7556
  776MOL0     C 4651   8.349   3.998   6.352 -0.2149 -0.1930 -0.0186
  776MOL0     C 4652   8.268   4.040   6.464  0.7751 -1.1808  0.1081
  776MOL0     C 4653   8.171   4.155   6.457  0.1758  0.1921 -0.3537
  776MOL0     C 4654   8.285   3.976   6.586  0.0920 -0.3982 -0.8498
  776MOL0     C 4655   8.222   4.020   6.711  0.7730 -0.3752 -0.1113
  776MOL0     O 4656   8.300   4.020   6.818 -0.1739 -0.2094 -0.7552
  776MOL0     C 4657   8.249   4.030   6.942 -1.3401  0.2234 -0.4772
  776MOL0     C 4658   8.209   3.912   7.005  0.0107 -0.8184  0.4734
  776MOL0     C 4659   8.155   3.914   7.133  0.0608  0.6220 -0.5064
  776MOL0     C 4660   8.158   4.037   7.206 -0.0920 -0.4632  0.3586
  776MOL0     O 4661   8.119   4.046   7.341 -0.5414  0.1843  0.4748
  776MOL0     C 4662   8.027   3.956   7.402  1.1108  0.3665 -0.3413
  776MOL0     C 4663   7.883   3.997   7.359 -0.3655 -0.5290 -0.4430
  776MOL0     C 4664   7.778   3.920   7.443  0.2074  0.9700  0.5169
  776MOL0     C 4665   7.641   3.944   7.387  0.5860 -0.7185  0.3336
  776MOL0     C 4666   7.575   4.069   7.444  0.1182  0.4567  0.1671
  776MOL0     C 4667   7.467   4.117   7.350 -0.4211 -0.4929  0.5859
  776MOL0     C 4668   7.396   4.238   7.415  0.6155  0.2841 -0.6658
  776MOL0     C 4669   7.275   4.284   7.335 -0.6096  0.0024  0.0109
  776MOL0    Cl 4670   7.175   4.372   7.462 -0.0119  0.1067  0.6910
  776MOL0     C 4671   8.215   4.154   7.150 -0.0048 -1.2133  0.4273
  776MOL0     C 4672   8.259   4.144   7.017  0.0868 -0.5138  0.2249
  776MOL0     O 4673   8.105   4.044   6.718 -0.5517 -0.1683  0.5803
  776MOL0     C 4674   8.373   3.868   6.600  0.2258  0.8187  0.2987
  776MOL0     C 4675   8.445   3.830   6.486  0.0452  0.0757  0.4253
  776MOL0     N 4676   8.260   3.524   5.794  0.2888 -0.1425 -0.3996
  776MOL0     N 4677   8.243   3.571   5.672  0.2151  0.1436 -0.0991
  776MOL0     C 4678   9.233   4.099   5.151 -0.1908  0.6209  0.8228
  776MOL0     C 4679   9.361   4.154   5.195 -0.1141  0.0605  0.6566
  776MOL0     C 4680   9.669   4.487   5.315 -0.2476  0.3701  0.1386
  776MOL0     C 4681   9.761   4.484   5.205 -0.1569 -1.0135 -0.7333
  776MOL0     C 4682   9.886   4.547   5.224  0.3413 -0.1717 -0.4525
  776MOL0     C 4683   9.915   4.609   5.342  0.1031 -0.0095  0.2664
  776MOL0     O 4684  10.044   4.667   5.347 -0.4151  0.1931  0.6860
  776MOL0     C 4685  10.075   4.749   5.460  0.4329 -0.1712 -0.3691
  776MOL0     C 4686  10.181   4.848   5.418  0.8599 -0.9118 -0.1665
  776MOL0     C 4687  10.116   4.965   5.339 -0.5262 -0.1289 -0.2536
  776MOL0     C 4688  10.222   5.048   5.261  0.1085 -0.1694 -0.1166
  776MOL0     C 4689  10.324   5.093   5.354  0.5479  0.8493  0.8793
  776MOL0     C 4690  10.418   5.143   5.400 -0.4269 -1.2335  0.0944
  776MOL0     C 4691   9.829   4.605   5.451 -0.4529  0.0846 -0.4774
  776MOL0     C 4692   9.700   4.557   5.440 -0.0843 -0.0806 -0.1322
  776MOL0     H 4693   9.298   4.479   5.127 -3.1090  0.9572  0.0927
  776MOL0     H 4694   9.077   4.396   5.075  0.3643  0.5417  1.3242
  776MOL0     H 4695   8.948   3.960   5.066  1.7935  0.1971 -0.3613
  776MOL0     H 4696   9.000   3.989   5.227  0.8590 -2.3921 -1.3693
  776MOL0     H 4697   8.787   4.169   5.180 -2.0428 -0.2504 -0.3127
  776MOL0     H 4698   8.735   4.035   5.093 -1.4016  0.5914  0.4835
  776MOL0     H 4699   8.772   3.887   5.309 -0.8735  0.6726 -1.0504
  776MOL0     H 4700   8.818   4.040   5.389 -2.6029  2.5529 -0.6302
  776MOL0     H 4701   8.579   4.102   5.345 -1.8433 -0.4106 -1.5330
  776MOL0     H 4702   8.565   3.955   5.232  0.5563 -0.8987  0.2245
  776MOL0     H 4703   8.596   3.808   5.426 -0.0705  0.9460 -3.2642
  776MOL0     H 4704   8.594   3.951   5.534  0.1127 -1.0510  1.6899
  776MOL0     H 4705   8.357   3.994   5.419 -0.0112 -0.2395 -2.3377
  776MOL0     H 4706   8.374   3.843   5.346  2.1757 -1.8254  1.4008
  776MOL0     H 4707   8.417   3.741   5.576  0.6523 -0.6533 -0.9073
  776MOL0     H 4708   8.388   3.901   5.634  1.5462  0.0424 -0.6842
  776MOL0     H 4709   8.170   3.750   5.480  1.1799 -3.6657  0.8483
  776MOL0     H 4710   8.144   3.884   5.587 -2.7401 -2.7574  1.8955
  776MOL0     H 4711   8.143   3.830   5.847 -0.2397 -0.2545  1.4903
  776MOL0     H 4712   8.123   3.650   6.079 -0.0743  0.6205 -1.5161
  776MOL0     H 4713   8.210   3.499   6.059 -0.9244  0.5887  1.9488
  776MOL0     H 4714   8.428   3.633   6.037 -0.2400 -1.8810  0.9986
  776MOL0     H 4715   8.341   3.646   6.193 -0.5791  0.7200  0.4709
  776MOL0     H 4716   8.257   3.875   6.122 -1.3674  0.5354 -2.0886
  776MOL0     H 4717   8.335   3.847   5.971 -0.4394  1.7401 -0.0271
  776MOL0     H 4718   8.491   3.987   6.083 -0.4091 -0.1166 -2.3635
  776MOL0     H 4719   8.557   3.840   6.045  1.2093  1.9543  0.3730
  776MOL0     H 4720   8.352   4.067   6.269  1.0865 -2.4767 -2.0226
  776MOL0     H 4721   8.185   4.196   6.356  1.1083 -3.2873 -1.7805
  776MOL0     H 4722   8.066   4.129   6.471  0.2680  0.4335  0.8422
  776MOL0     H 4723   8.192   4.237   6.526  0.8775 -0.3540  0.0853
  776MOL0     H 4724   8.224   3.822   6.948  1.7576 -0.0898 -0.2978
  776MOL0     H 4725   8.133   3.817   7.176  0.0585  0.8997  0.1352
  776MOL0     H 4726   8.040   3.855   7.363  0.2248 -0.1740  0.7323
  776MOL0     H 4727   8.027   3.959   7.511 -2.4298 -0.8726 -0.1935
  776MOL0     H 4728   7.874   4.101   7.395  1.2167 -0.2577 -0.7395
  776MOL0     H 4729   7.848   3.990   7.256 -3.7968  0.8594  0.4777
  776MOL0     H 4730   7.779   3.938   7.551  1.6527 -1.7432  1.0630
  776MOL0     H 4731   7.797   3.812   7.443 -0.1937  0.8826 -0.9075
  776MOL0     H 4732   7.649   3.974   7.282  0.0212 -1.3129  0.1113
  776MOL0     H 4733   7.576   3.856   7.391 -0.0343 -0.2902 -0.1538
  776MOL0     H 4734   7.647   4.151   7.447  0.1260  0.4268  1.0886
  776MOL0     H 4735   7.535   4.054   7.544  2.0502  0.9408  1.0478
  776MOL0     H 4736   7.500   4.156   7.253  1.6633 -0.0753  1.4163
  776MOL0     H 4737   7.389   4.040   7.342 -0.4956 -0.4117  0.5248
  776MOL0     H 4738   7.465   4.321   7.430 -0.7398  1.0761  1.4902
  776MOL0     H 4739   7.363   4.206   7.514  0.6200  1.2462 -0.3482
  776MOL0     H 4740   7.215   4.199   7.301 -1.5427  0.6084  0.0976
  776MOL0     H 4741   7.311   4.347   7.254  0.2052  0.5022  0.7506
  776MOL0     H 4742   8.222   4.254   7.192 -0.6179  0.3058 -2.7849
  776MOL0     H 4743   8.312   4.232   6.981  1.0938 -0.4903  1.6660
  776MOL0     H 4744   8.393   3.815   6.692  0.6026 -2.9444 -1.7477
  776MOL0     H 4745   8.515   3.747   6.486  0.7195  0.6010 -1.3307
  776MOL0     H 4746   9.217   3.992   5.159  0.3949  0.4956  0.3907
  776MOL0     H 4747   9.448   4.096   5.225  1.8520  2.6280  0.2708
  776MOL0     H 4748   9.754   4.431   5.110  4.1776 -2.2855 -0.5599
  776MOL0     H 4749   9.966   4.542   5.151  1.4950 -0.0746  0.7645
  776MOL0     H 4750   9.987   4.804   5.497 -0.2112  0.8730 -3.2236
  776MOL0     H 4751  10.111   4.689   5.544  2.5484  1.2675 -0.1764
  776MOL0     H 4752  10.245   4.804   5.341  0.3240 -1.4083 -0.3368
  776MOL0     H 4753  10.236   4.878   5.507 -1.6880 -2.7223  2.2096
  776MOL0     H 4754  10.069   5.030   5.414  0.6057  0.5424 -0.1004
  776MOL0     H 4755  10.047   4.936   5.259  1.8583 -0.6945 -2.2332
  776MOL0     H 4756  10.173   5.136   5.218 -2.9272 -0.5766  2.1650
  776MOL0     H 4757  10.268   4.994   5.178  0.1052 -1.0131  0.4214
  776MOL0     H 4758  10.504   5.188   5.446  1.4384 -1.5373 -2.8154
  776MOL0     H 4759   9.848   4.659   5.543 -0.5592  1.9727 -1.5029
  776MOL0     H 4760   9.627   4.562   5.520  0.3060  0.2488  0.2089
  777MOL0     O 4761   8.286   7.336   1.141 -0.4247  0.2465 -0.1848
  777MOL0     C 4762   8.324   7.448   1.168  0.4219 -0.1832 -0.3484
  777MOL0     O 4763   8.451   7.483   1.201  0.0731  0.6746 -0.5280
  777MOL0     C 4764   8.536   7.378   1.247  0.7382  0.4784  0.1286
  777MOL0     C 4765   8.671   7.392   1.208  0.1352  0.2434 -0.1692
  777MOL0     C 4766   8.762   7.307   1.255  0.0086  0.5844  0.1452
  777MOL0     C 4767   8.731   7.201   1.336 -0.8193 -0.5242 -0.6435
  777MOL0     O 4768   8.845   7.125   1.366 -0.1643  0.3205  0.1454
  777MOL0     C 4769   8.839   7.037   1.476 -0.0781  0.5238 -0.3946
  777MOL0     C 4770   8.969   6.973   1.497 -0.4167  0.2605  0.6930
  777MOL0     C 4771   9.083   7.072   1.517 -0.1354  0.0055  0.5088
  777MOL0     C 4772   9.212   6.986   1.540  0.6494 -1.0326  0.1901
  777MOL0     C 4773   9.242   6.971   1.693  0.3667 -0.4094 -0.1006
  777MOL0     C 4774   9.327   6.840   1.714  0.5810 -0.0233 -1.0692
  777MOL0     C 4775   9.476   6.881   1.685 -0.1844 -0.4461  0.2671
  777MOL0     C 4776   9.565   6.762   1.732  0.5953  0.1783 -0.7677
  777MOL0     N 4777   9.519   6.632   1.674  0.3422  0.1123  0.1073
  777MOL0     C 4778   9.531   6.523   1.747 -0.5469  1.3572 -0.3155
  777MOL0     C 4779   9.518   6.417   1.661 -0.0480  0.1710  1.3234
  777MOL0     C 4780   9.525   6.273   1.702 -0.1184  0.5231 -0.0111
  777MOL0     C 4781   9.430   6.246   1.818 -0.5085 -0.0046  0.0240
  777MOL0     C 4782   9.280   6.256   1.783 -0.5539  0.4512 -0.1827
  777MOL0     C 4783   9.195   6.206   1.896  1.1332 -0.2654  0.2697
  777MOL0     O 4784   9.056   6.218   1.867  0.7242 -0.1637 -0.5882
  777MOL0     C 4785   8.960   6.222   1.970  0.0094 -0.5587 -0.1410
  777MOL0     C 4786   8.987   6.218   2.105  0.3004 -0.1257 -0.2366
  777MOL0     C 4787   8.886   6.201   2.199  0.3737  0.2344 -0.3067
  777MOL0     C 4788   8.913   6.205   2.343 -0.5828  0.0686  0.4511
  777MOL0     C 4789   8.751   6.191   2.155  0.1464  0.4291 -0.2392
  777MOL0     C 4790   8.638   6.175   2.244  0.3644  0.3108  0.0681
  777MOL0     O 4791   8.520   6.203   2.190 -0.0059  0.4169  0.0303
  777MOL0     C 4792   8.410   6.174   2.269 -0.2527  0.6377 -0.0672
  777MOL0     C 4793   8.349   6.282   2.325 -0.3226  0.7412  0.2789
  777MOL0     C 4794   8.245   6.262   2.416  0.9166 -1.3895 -0.1919
  777MOL0     C 4795   8.201   6.130   2.444 -0.0625  0.2221  0.5442
  777MOL0     O 4796   8.099   6.110   2.537 -0.0389  0.6283 -0.1484
  777MOL0     C 4797   8.040   6.224   2.597 -0.7272 -0.1307 -0.2011
  777MOL0     C 4798   7.924   6.187   2.698  0.4585 -0.2944  0.3045
  777MOL0     C 4799   7.837   6.071   2.646 -0.1215  0.5396  0.4906
  777MOL0     C 4800   7.712   6.073   2.734  0.0148  0.3670  0.4747
  777MOL0     C 4801   7.616   5.958   2.714  0.1950  1.6991  0.9584
  777MOL0     C 4802   7.608   5.904   2.562 -0.4604 -0.1527  0.0393
  777MOL0     C 4803   7.493   5.803   2.540 -0.1381 -0.4566 -0.2260
  777MOL0     C 4804   7.498   5.757   2.399 -0.2012 -0.1182 -0.6562
  777MOL0    Cl 4805   7.429   5.874   2.275  0.2043 -0.8527 -0.5445
  777MOL0     C 4806   8.256   6.013   2.376  0.0538  0.2024  0.4463
  777MOL0     C 4807   8.366   6.043   2.289 -0.7777 -0.2458 -0.4427
  777MOL0     O 4808   8.652   6.140   2.357  0.2603 -0.1059  0.2329
  777MOL0     C 4809   8.725   6.210   2.017  0.2718  0.8227 -0.1067
  777MOL0     C 4810   8.827   6.219   1.925  0.4206 -0.4318  0.8548
  777MOL0     N 4811   9.498   6.470   1.530 -0.3574 -0.8253 -0.5018
  777MOL0     N 4812   9.509   6.597   1.540  0.1519  0.3631  0.4691
  777MOL0     C 4813   8.599   7.182   1.379  0.1333  0.0340 -0.8377
  777MOL0     C 4814   8.502   7.280   1.338 -0.0937  0.6676  0.0963
  777MOL0     C 4815   8.222   7.559   1.168  0.0058  1.0105  0.2560
  777MOL0     C 4816   8.088   7.536   1.137  0.5430  0.4676  0.6269
  777MOL0     C 4817   8.000   7.642   1.118 -0.0174 -0.2462  0.1470
  777MOL0     C 4818   8.024   7.771   1.141 -0.8301 -0.2324 -0.1806
  777MOL0     O 4819   7.929   7.877   1.136 -0.6130 -0.1221 -1.0310
  777MOL0     C 4820   7.798   7.864   1.072 -0.1221  1.0496 -0.4373
  777MOL0     C 4821   7.739   8.006   1.046 -1.0914 -0.1978 -0.1489
  777MOL0     C 4822   7.594   7.996   0.988  0.6317  0.3410  0.8291
  777MOL0     C 4823   7.593   7.929   0.844 -0.3886 -0.2488  0.2801
  777MOL0     C 4824   7.476   7.954   0.765  0.2096  0.6718  0.4074
  777MOL0     C 4825   7.382   7.971   0.690 -0.5853 -1.0626 -0.7138
  777MOL0     C 4826   8.156   7.792   1.195 -0.0929 -0.4258  0.5333
  777MOL0     C 4827   8.254   7.693   1.205  0.1064 -0.7460  0.4855
  777MOL0     H 4828   8.707   7.468   1.140 -0.9498  0.7463 -0.2074
  777MOL0     H 4829   8.866   7.332   1.238  0.8469 -1.7556  1.3460
  777MOL0     H 4830   8.805   7.090   1.565 -2.2933 -2.1737  0.4900
  777MOL0     H 4831   8.767   6.958   1.453 -2.0571  1.4163  2.2485
  777MOL0     H 4832   8.965   6.908   1.585  1.4527 -1.1148 -0.1808
  777MOL0     H 4833   8.984   6.908   1.410  1.0527 -1.3567  2.0917
  777MOL0     H 4834   9.095   7.135   1.428 -0.3154  0.3949  0.7589
  777MOL0     H 4835   9.053   7.146   1.592 -0.2377 -0.3912  0.8618
  777MOL0     H 4836   9.200   6.886   1.497  1.8664 -0.1627 -2.3864
  777MOL0     H 4837   9.295   7.044   1.498 -0.3728  0.9310  0.7490
  777MOL0     H 4838   9.297   7.058   1.730 -0.2919  0.1021 -0.3021
  777MOL0     H 4839   9.151   6.948   1.748  0.1838 -3.5443 -1.4912
  777MOL0     H 4840   9.312   6.805   1.816 -1.0800  2.1536 -0.5113
  777MOL0     H 4841   9.295   6.771   1.635 -0.6137  0.9416 -1.4600
  777MOL0     H 4842   9.489   6.921   1.584 -2.1082  2.2134  0.9437
  777MOL0     H 4843   9.495   6.961   1.757 -4.0356  1.4256 -0.5143
  777MOL0     H 4844   9.551   6.741   1.839  0.4697 -2.2426 -1.1985
  777MOL0     H 4845   9.670   6.778   1.705  0.1959 -0.0884 -2.6109
  777MOL0     H 4846   9.550   6.510   1.853 -1.7974 -1.4387 -0.3261
  777MOL0     H 4847   9.506   6.221   1.608  3.1500 -0.8993 -0.0038
  777MOL0     H 4848   9.624   6.248   1.741 -0.1975  0.6605  0.2845
  777MOL0     H 4849   9.449   6.330   1.886  1.5999  2.7273 -3.5922
  777MOL0     H 4850   9.460   6.154   1.868  1.0190 -0.5357 -1.7751
  777MOL0     H 4851   9.260   6.187   1.701  0.7891 -3.5812  2.5493
  777MOL0     H 4852   9.250   6.357   1.757  1.0665  0.5587 -1.8015
  777MOL0     H 4853   9.226   6.250   1.992  0.2392 -2.5139  1.6853
  777MOL0     H 4854   9.215   6.100   1.914  1.1913 -0.4109 -0.6470
  777MOL0     H 4855   9.089   6.223   2.141  0.9560 -0.3567 -1.9864
  777MOL0     H 4856   9.017   6.229   2.369 -0.1150 -0.9779 -0.3391
  777MOL0     H 4857   8.856   6.290   2.381  1.7414  3.2043 -2.3701
  777MOL0     H 4858   8.879   6.114   2.393  0.3621 -0.3639  0.3460
  777MOL0     H 4859   8.389   6.381   2.304 -0.5438  0.4504 -1.6196
  777MOL0     H 4860   8.216   6.358   2.458  1.2626 -0.6709 -1.5487
  777MOL0     H 4861   8.112   6.279   2.659 -2.7528  0.6471  1.5991
  777MOL0     H 4862   8.006   6.288   2.515  3.5029 -1.4713 -3.3099
  777MOL0     H 4863   7.958   6.161   2.799  0.3779 -5.2495 -0.7038
  777MOL0     H 4864   7.864   6.279   2.700 -0.3417 -0.8066  0.2884
  777MOL0     H 4865   7.890   5.978   2.667 -2.1220 -0.7576  0.1099
  777MOL0     H 4866   7.812   6.078   2.539 -2.0588  0.0693  0.8739
  777MOL0     H 4867   7.752   6.068   2.835  1.5923  1.4625 -0.0509
  777MOL0     H 4868   7.654   6.165   2.727 -1.1539 -0.3791  0.0453
  777MOL0     H 4869   7.520   5.980   2.761 -1.2403 -0.8949 -0.5557
  777MOL0     H 4870   7.655   5.866   2.759 -2.7155 -0.5910 -0.8100
  777MOL0     H 4871   7.618   5.990   2.495  1.7834  0.9251  1.5949
  777MOL0     H 4872   7.699   5.845   2.546 -0.5083 -0.4260  0.7321
  777MOL0     H 4873   7.399   5.852   2.562 -0.0121 -0.2463 -0.1533
  777MOL0     H 4874   7.507   5.726   2.617 -0.3171  0.2908  0.5607
  777MOL0     H 4875   7.429   5.672   2.397  0.0900 -0.4333  1.2431
  777MOL0     H 4876   7.598   5.723   2.370 -0.4439 -2.9234  1.3564
  777MOL0     H 4877   8.212   5.915   2.396  1.0214 -0.5494 -1.0016
  777MOL0     H 4878   8.419   5.959   2.244 -1.3073 -0.1772 -1.2115
  777MOL0     H 4879   8.624   6.210   1.977  0.7099 -2.3901 -1.5190
  777MOL0     H 4880   8.817   6.219   1.817 -0.4042  0.2782  0.9199
  777MOL0     H 4881   8.573   7.097   1.441 -1.1409  0.9747 -0.0184
  777MOL0     H 4882   8.395   7.268   1.352 -0.1905  0.2431 -0.9200
  777MOL0     H 4883   8.052   7.435   1.118  0.8902  0.3030  0.8267
  777MOL0     H 4884   7.898   7.624   1.086 -0.0114 -0.0074 -0.0074
  777MOL0     H 4885   7.815   7.808   0.980  2.1365 -1.9786  1.6299
  777MOL0     H 4886   7.729   7.817   1.143  2.5647  1.1530  2.4385
  777MOL0     H 4887   7.797   8.060   0.970 -1.4038  1.2723  0.6260
  777MOL0     H 4888   7.742   8.069   1.135 -0.9372 -1.3522  0.6773
  777MOL0     H 4889   7.553   8.097   0.978  0.6745  0.3604  0.8535
  777MOL0     H 4890   7.525   7.943   1.054 -0.9527  2.3433  0.9054
  777MOL0     H 4891   7.604   7.822   0.864  2.6017  0.0922  1.0324
  777MOL0     H 4892   7.679   7.965   0.786 -0.6006 -2.2701 -1.4011
  777MOL0     H 4893   7.304   7.979   0.617 -1.8425  0.0284  0.6778
  777MOL0     H 4894   8.190   7.895   1.200  1.5702 -0.7706 -2.0904
  777MOL0     H 4895   8.358   7.711   1.233  0.7795 -0.7629 -1.8268
  778MOL0     O 4896   7.121   5.464   4.677 -0.0277 -0.0699 -0.1387
  778MOL0     C 4897   7.127   5.520   4.571  0.1729  0.1656  0.9808
  778MOL0     O 4898   7.025   5.570   4.505  0.0521  0.2584 -0.3438
  778MOL0     C 4899   6.897   5.532   4.533  0.1152 -0.2292 -0.6473
  778MOL0     C 4900   6.799   5.621   4.482 -0.0891 -0.4485  0.3426
  778MOL0     C 4901   6.666   5.600   4.502  0.7981 -0.0794  0.4469
  778MOL0     C 4902   6.610   5.488   4.558  0.7100  1.0898  0.2033
  778MOL0     O 4903   6.478   5.458   4.579 -0.6924  0.1362 -0.2030
  778MOL0     C 4904   6.379   5.542   4.517 -0.3458  0.9243 -0.1592
  778MOL0     C 4905   6.237   5.483   4.512  0.0100 -0.1924 -0.8131
  778MOL0     C 4906   6.177   5.461   4.654  0.5818  0.4818  0.3790
  778MOL0     C 4907   6.045   5.386   4.655 -0.4098  0.5016 -0.1882
  778MOL0     C 4908   5.996   5.355   4.797  1.2582  0.2195  0.0445
  778MOL0     C 4909   5.856   5.293   4.798  0.1925 -0.0251 -0.1964
  778MOL0     C 4910   5.788   5.296   4.939 -0.4933  0.0246  0.7807
  778MOL0     C 4911   5.636   5.313   4.925  0.1178  0.5473  0.2762
  778MOL0     N 4912   5.560   5.276   5.054 -0.4327 -0.3804  0.2340
  778MOL0     C 4913   5.532   5.141   5.098 -0.0147 -0.4095  0.4702
  778MOL0     C 4914   5.438   5.166   5.194  0.0963 -0.5714  0.7233
  778MOL0     C 4915   5.377   5.062   5.281  0.7884 -0.4739  0.3150
  778MOL0     C 4916   5.463   4.950   5.342  0.0587 -0.0844  0.4244
  778MOL0     C 4917   5.380   4.846   5.424 -0.0058 -0.5026 -0.9852
  778MOL0     C 4918   5.254   4.791   5.355  0.2884 -0.2746 -0.4316
  778MOL0     O 4919   5.227   4.691   5.446  0.6756  0.7082 -0.2360
  778MOL0     C 4920   5.118   4.604   5.439  0.3657 -0.2817  0.4194
  778MOL0     C 4921   5.023   4.629   5.343 -0.3514  0.1803  0.0918
  778MOL0     C 4922   4.906   4.556   5.319 -0.3492  0.2171  0.0973
  778MOL0     C 4923   4.819   4.592   5.199 -1.0582 -0.4337  1.1628
  778MOL0     C 4924   4.890   4.445   5.405  0.5997  0.2192  0.3539
  778MOL0     C 4925   4.771   4.356   5.400 -0.4132  0.8171 -0.6884
  778MOL0     O 4926   4.663   4.390   5.323 -0.9555 -0.0668 -0.5732
  778MOL0     C 4927   4.554   4.310   5.327 -0.0925 -0.1537 -0.1066
  778MOL0     C 4928   4.535   4.200   5.234 -0.7617 -0.0894  0.1889
  778MOL0     C 4929   4.410   4.125   5.233  0.3728 -0.2251 -0.5140
  778MOL0     C 4930   4.310   4.160   5.331  0.0668 -0.7657  0.2047
  778MOL0     O 4931   4.183   4.093   5.331  0.1906  0.1146  0.5790
  778MOL0     C 4932   4.182   3.953   5.329  0.3801 -0.2524 -0.3251
  778MOL0     C 4933   4.040   3.916   5.391  0.0690 -0.9112 -0.9979
  778MOL0     C 4934   3.929   3.939   5.286  0.4310 -0.1994  0.9401
  778MOL0     C 4935   3.785   3.932   5.348  0.1265  0.5366 -0.5499
  778MOL0     C 4936   3.683   3.939   5.240 -0.2736  0.1275  0.5064
  778MOL0     C 4937   3.541   3.951   5.288  0.6723 -0.3158  0.0723
  778MOL0     C 4938   3.441   4.007   5.190 -0.4224  0.0538  0.9873
  778MOL0     C 4939   3.307   4.036   5.244 -0.7199 -0.1129 -0.2022
  778MOL0    Cl 4940   3.212   4.097   5.096 -0.1139  0.1308  0.1906
  778MOL0     C 4941   4.337   4.258   5.430  0.1011  0.2193 -0.4779
  778MOL0     C 4942   4.456   4.336   5.431  0.2083  1.1398 -0.2746
  778MOL0     O 4943   4.772   4.250   5.463 -0.1711 -0.7653 -0.3316
  778MOL0     C 4944   4.984   4.426   5.512  0.2050 -0.4882 -0.2420
  778MOL0     C 4945   5.098   4.503   5.529 -1.0478 -0.3902  0.1525
  778MOL0     N 4946   5.401   5.304   5.194  0.2598  1.0239  0.2514
  778MOL0     N 4947   5.484   5.368   5.119 -0.2157 -0.0319  0.2924
  778MOL0     C 4948   6.710   5.397   4.601 -0.1954  0.1306 -0.0684
  778MOL0     C 4949   6.850   5.417   4.588 -0.2081  0.0362  0.8689
  778MOL0     C 4950   7.254   5.535   4.504 -0.4996 -0.4400 -0.3979
  778MOL0     C 4951   7.368   5.485   4.574 -0.1476 -0.2194  0.3231
  778MOL0     C 4952   7.495   5.501   4.515  0.4151  0.5690  1.0301
  778MOL0     C 4953   7.511   5.562   4.387 -0.3095  0.3861 -0.8685
  778MOL0     O 4954   7.637   5.563   4.341 -1.2072  0.8367  0.2967
  778MOL0     C 4955   7.673   5.609   4.217 -0.0223  0.4212 -0.4408
  778MOL0     C 4956   7.814   5.549   4.175  0.3101 -0.2512  0.8719
  778MOL0     C 4957   7.900   5.645   4.081 -0.5027  1.0508  0.5046
  778MOL0     C 4958   8.007   5.724   4.155  0.3507 -0.9161  0.5697
  778MOL0     C 4959   8.133   5.659   4.180  0.3579 -0.6943  0.1538
  778MOL0     C 4960   8.222   5.579   4.201  0.2091  0.3500 -0.7707
  778MOL0     C 4961   7.393   5.606   4.325 -0.5433 -1.1568  0.5834
  778MOL0     C 4962   7.268   5.591   4.376 -0.1299  0.5570  0.7459
  778MOL0     H 4963   6.827   5.718   4.443 -2.8551  0.3581  0.1216
  778MOL0     H 4964   6.602   5.674   4.455  0.9769 -1.1421 -1.5850
  778MOL0     H 4965   6.374   5.640   4.564 -0.5599  0.1371  1.5436
  778MOL0     H 4966   6.404   5.553   4.411 -0.0243 -4.1038 -0.8788
  778MOL0     H 4967   6.164   5.544   4.458 -1.5404  2.0100  3.2671
  778MOL0     H 4968   6.254   5.384   4.468  1.7506 -0.3633  0.1621
  778MOL0     H 4969   6.249   5.405   4.715  0.4763  1.1481  1.1298
  778MOL0     H 4970   6.163   5.556   4.707  0.5285 -0.7334  2.6999
  778MOL0     H 4971   5.970   5.443   4.599  0.1605  0.8013 -0.6607
  778MOL0     H 4972   6.056   5.290   4.604  1.6698  1.1963 -1.1401
  778MOL0     H 4973   6.063   5.280   4.839 -0.5325 -1.7884 -0.4813
  778MOL0     H 4974   5.999   5.446   4.857 -1.4799 -0.6418  1.6917
  778MOL0     H 4975   5.799   5.357   4.730  2.9841  0.0597 -2.6405
  778MOL0     H 4976   5.864   5.192   4.756  2.7728 -0.5613  1.3249
  778MOL0     H 4977   5.806   5.201   4.990  3.2887  1.0282  1.6536
  778MOL0     H 4978   5.829   5.377   5.001  3.0617 -1.2400  0.3315
  778MOL0     H 4979   5.601   5.249   4.843  3.3116 -0.7325 -0.2204
  778MOL0     H 4980   5.615   5.419   4.907 -0.0006  0.8641  2.1299
  778MOL0     H 4981   5.577   5.048   5.065 -1.0192 -0.1323 -1.8755
  778MOL0     H 4982   5.320   5.115   5.358  1.2314  0.7273 -0.1598
  778MOL0     H 4983   5.297   5.020   5.219 -1.4322  0.9905  2.0351
  778MOL0     H 4984   5.534   4.998   5.410  2.0553 -3.5089  0.9771
  778MOL0     H 4985   5.521   4.892   5.270  0.0565  0.2163  0.1773
  778MOL0     H 4986   5.340   4.893   5.514  2.6638 -2.2061  1.2625
  778MOL0     H 4987   5.449   4.762   5.436 -1.0744 -1.8096 -3.3382
  778MOL0     H 4988   5.290   4.754   5.258  0.9080  0.5251 -0.5210
  778MOL0     H 4989   5.174   4.865   5.348  0.0439 -0.3951  0.9385
  778MOL0     H 4990   5.037   4.715   5.279  0.3777 -1.6299 -2.3748
  778MOL0     H 4991   4.728   4.649   5.221 -2.8803 -1.3813 -3.0166
  778MOL0     H 4992   4.874   4.655   5.129  0.2310 -1.2747  1.3960
  778MOL0     H 4993   4.788   4.494   5.160  1.0679 -0.7157  0.0621
  778MOL0     H 4994   4.625   4.185   5.175 -0.4467  0.1356  0.6017
  778MOL0     H 4995   4.393   4.061   5.147 -0.0706  2.8373 -2.8630
  778MOL0     H 4996   4.186   3.919   5.226 -1.8337  0.1592 -0.6057
  778MOL0     H 4997   4.263   3.932   5.399 -1.3377  1.3285  2.3194
  778MOL0     H 4998   4.044   3.809   5.417  3.6405 -0.9670 -1.3333
  778MOL0     H 4999   4.024   3.974   5.482 -0.8789 -0.7461 -1.2543
  778MOL0     H 5000   3.938   3.863   5.208 -0.8414  0.5903 -0.0077
  778MOL0     H 5001   3.931   4.039   5.241  0.0942 -0.6855 -0.1937
  778MOL0     H 5002   3.768   3.840   5.404  1.4740  0.3093 -0.4612
  778MOL0     H 5003   3.772   4.008   5.425  1.3360 -0.7420  0.9958
  778MOL0     H 5004   3.683   3.850   5.176  0.5190 -0.6147  1.5181
  778MOL0     H 5005   3.702   4.024   5.174 -1.4163 -0.9341 -1.3011
  778MOL0     H 5006   3.511   3.851   5.321  1.1681 -1.1599 -1.9093
  778MOL0     H 5007   3.530   4.016   5.376 -3.3834  0.9999 -1.1842
  778MOL0     H 5008   3.428   3.948   5.099 -2.0761  3.0400 -0.8471
  778MOL0     H 5009   3.493   4.098   5.159 -2.7892  0.7849 -1.1237
  778MOL0     H 5010   3.316   4.113   5.320 -3.9741  1.1176 -0.9046
  778MOL0     H 5011   3.265   3.945   5.288  1.0688 -0.4879  0.8098
  778MOL0     H 5012   4.268   4.272   5.513 -1.8363  1.7898 -2.2346
  778MOL0     H 5013   4.470   4.410   5.509 -0.5748 -0.6410  1.6287
  778MOL0     H 5014   4.954   4.350   5.583  2.3816 -1.2291 -0.0750
  778MOL0     H 5015   5.171   4.495   5.608  0.4920  3.0742 -0.7190
  778MOL0     H 5016   6.688   5.303   4.650 -3.7344 -0.0648 -1.6665
  778MOL0     H 5017   6.916   5.347   4.638  0.5572  0.7739  0.9100
  778MOL0     H 5018   7.364   5.442   4.674  1.3688  1.6252  1.2397
  778MOL0     H 5019   7.585   5.458   4.556  1.9262  0.2149 -2.3783
  778MOL0     H 5020   7.595   5.575   4.148  1.7483 -2.7508 -1.0484
  778MOL0     H 5021   7.690   5.717   4.219 -2.0127  0.8399 -2.0396
  778MOL0     H 5022   7.800   5.462   4.109  1.0358  2.5920 -3.4755
  778MOL0     H 5023   7.871   5.520   4.264 -0.8220  1.0170  2.0550
  778MOL0     H 5024   7.829   5.715   4.037 -0.9382  0.4596  0.2403
  778MOL0     H 5025   7.943   5.583   4.002  0.2622  0.3248  1.4557
  778MOL0     H 5026   7.971   5.753   4.255  0.4388 -0.2469  0.4105
  778MOL0     H 5027   8.012   5.815   4.094 -2.8928 -1.8879 -1.3967
  778MOL0     H 5028   8.298   5.506   4.221  0.0847  0.1773 -0.9309
  778MOL0     H 5029   7.394   5.652   4.227 -2.3825 -2.3314 -0.0367
  778MOL0     H 5030   7.184   5.613   4.310  1.4595  0.0143 -1.5870
  779MOL0     O 5031   4.051   6.082   8.449  0.0911  0.1707  0.2741
  779MOL0     C 5032   4.060   6.123   8.334 -0.1499 -0.9124 -0.1093
  779MOL0     O 5033   3.953   6.150   8.250  0.0785 -0.2339  0.7985
  779MOL0     C 5034   3.829   6.102   8.287 -0.1026  0.1412 -0.4134
  779MOL0     C 5035   3.758   6.020   8.202  0.2949  0.5152 -0.0551
  779MOL0     C 5036   3.621   5.985   8.231 -0.5985  0.5608 -0.2575
  779MOL0     C 5037   3.565   6.028   8.351 -0.5192  0.0563 -0.1975
  779MOL0     O 5038   3.444   5.986   8.383 -0.4796 -0.9231  0.1007
  779MOL0     C 5039   3.432   5.910   8.506  0.1451  0.2641 -0.1785
  779MOL0     C 5040   3.285   5.878   8.544  0.2827  1.1448  0.7213
  779MOL0     C 5041   3.197   5.994   8.615  0.5272  0.4761 -0.2092
  779MOL0     C 5042   3.202   6.127   8.552 -0.6652 -0.0772 -0.5526
  779MOL0     C 5043   3.114   6.222   8.633 -0.5615  0.5464  0.5164
  779MOL0     C 5044   3.113   6.365   8.576 -0.0103 -0.0002  1.0692
  779MOL0     C 5045   3.058   6.463   8.679  0.3483 -0.1262 -0.0939
  779MOL0     C 5046   2.976   6.579   8.621  0.0396 -0.2874  0.3913
  779MOL0     N 5047   2.838   6.536   8.594  0.4461 -0.0027  0.2741
  779MOL0     C 5048   2.782   6.488   8.480  1.3207  0.1325  0.2061
  779MOL0     C 5049   2.651   6.467   8.506  0.2532  0.5118  0.0296
  779MOL0     C 5050   2.536   6.429   8.412 -0.7227  0.0595 -0.1526
  779MOL0     C 5051   2.425   6.339   8.470 -0.4662  0.3698  0.4907
  779MOL0     C 5052   2.302   6.346   8.380 -0.5653  0.2326  1.0569
  779MOL0     C 5053   2.171   6.294   8.453 -0.0666 -0.2905  0.0293
  779MOL0     O 5054   2.070   6.268   8.359  0.6251  0.5437  0.2868
  779MOL0     C 5055   1.954   6.209   8.409  0.1491  0.9786  1.7606
  779MOL0     C 5056   1.907   6.194   8.535 -0.0309 -0.1122 -0.4627
  779MOL0     C 5057   1.795   6.116   8.576 -0.0127  0.0010  0.5314
  779MOL0     C 5058   1.754   6.107   8.723 -0.5720  0.6600 -0.4554
  779MOL0     C 5059   1.736   6.033   8.480 -0.0195  0.3119  0.5564
  779MOL0     C 5060   1.631   5.932   8.515  0.3375 -0.8925  0.5822
  779MOL0     O 5061   1.528   5.974   8.592 -0.1514 -0.1377 -0.0651
  779MOL0     C 5062   1.430   5.877   8.614  0.5248 -0.8747  0.0806
  779MOL0     C 5063   1.439   5.777   8.719  0.6106 -0.4399  0.3037
  779MOL0     C 5064   1.327   5.707   8.763 -0.0669  0.6310  1.2437
  779MOL0     C 5065   1.202   5.713   8.689  0.7348 -1.1256 -0.8303
  779MOL0     O 5066   1.097   5.620   8.716 -0.5184 -0.2675  0.0056
  779MOL0     C 5067   0.966   5.675   8.703 -0.9244 -0.7610  0.6603
  779MOL0     C 5068   0.945   5.757   8.832 -0.3476  0.3321 -0.1781
  779MOL0     C 5069   0.798   5.793   8.844  0.1147 -0.0619 -0.2310
  779MOL0     C 5070   0.772   5.900   8.962 -0.5345 -0.1747  1.0097
  779MOL0     C 5071   0.631   5.945   8.988 -0.3416  0.2037  0.0612
  779MOL0     C 5072   0.633   5.993   9.135 -0.4865  0.2341 -0.3388
  779MOL0     C 5073   0.701   6.125   9.148  0.0203  0.6398 -0.4643
  779MOL0     C 5074   0.677   6.179   9.286  0.5858 -0.0370 -0.2874
  779MOL0    Cl 5075   0.511   6.216   9.321  0.0010 -0.0793 -0.0789
  779MOL0     C 5076   1.201   5.796   8.571  0.6534 -0.3202 -0.4792
  779MOL0     C 5077   1.305   5.884   8.545  0.6766 -1.1186 -0.4447
  779MOL0     O 5078   1.643   5.822   8.462  0.8538  0.2773  0.2416
  779MOL0     C 5079   1.775   6.039   8.344 -0.5954 -0.5009 -0.6530
  779MOL0     C 5080   1.873   6.137   8.315  0.6493  0.0888  0.3127
  779MOL0     N 5081   2.630   6.516   8.638  0.1768  0.6124  0.1737
  779MOL0     N 5082   2.742   6.546   8.690 -0.4522  0.0937 -0.4734
  779MOL0     C 5083   3.633   6.122   8.431 -0.1527  0.8001  0.1147
  779MOL0     C 5084   3.762   6.157   8.395  1.0412  0.1518 -0.1309
  779MOL0     C 5085   4.194   6.120   8.262  0.8219  0.2444  0.3114
  779MOL0     C 5086   4.214   6.164   8.128  0.0601 -0.4418  0.1351
  779MOL0     C 5087   4.348   6.178   8.075 -0.5811  0.6530  0.1255
  779MOL0     C 5088   4.453   6.139   8.147 -0.7094 -0.2496  1.2810
  779MOL0     O 5089   4.572   6.163   8.081  0.7785 -0.3500 -0.0766
  779MOL0     C 5090   4.696   6.098   8.123 -0.2249  0.0769 -0.8033
  779MOL0     C 5091   4.795   6.082   8.011 -0.1721 -0.1923 -0.6574
  779MOL0     C 5092   4.735   6.012   7.896 -0.6117 -0.6805  0.6618
  779MOL0     C 5093   4.671   6.102   7.783 -0.1853  1.0379 -0.1309
  779MOL0     C 5094   4.774   6.204   7.743 -0.2843  0.0943  0.4506
  779MOL0     C 5095   4.853   6.274   7.688 -0.1510 -0.9734  1.1801
  779MOL0     C 5096   4.429   6.069   8.260  0.8553 -0.4952 -0.6663
  779MOL0     C 5097   4.303   6.055   8.321  0.0089  0.7170  0.5056
  779MOL0     H 5098   3.800   5.997   8.104  0.0847 -1.1230  0.2071
  779MOL0     H 5099   3.566   5.913   8.171 -0.5202 -1.0840  1.5386
  779MOL0     H 5100   3.471   5.810   8.484  4.9748  2.2067 -2.0835
  779MOL0     H 5101   3.491   5.963   8.581 -2.8735  2.7741  0.6348
  779MOL0     H 5102   3.240   5.838   8.453  1.3849  1.0934  0.1798
  779MOL0     H 5103   3.277   5.786   8.601 -1.6491 -0.4262 -1.8439
  779MOL0     H 5104   3.090   5.968   8.619  1.0498 -1.9687 -0.3282
  779MOL0     H 5105   3.236   5.998   8.717  2.0355 -1.9805 -0.5946
  779MOL0     H 5106   3.307   6.159   8.554 -0.0059 -1.9185 -2.5331
  779MOL0     H 5107   3.178   6.121   8.446 -2.6667  1.4825 -0.2402
  779MOL0     H 5108   3.010   6.188   8.627 -0.8971  1.6920 -1.0381
  779MOL0     H 5109   3.160   6.223   8.732 -0.2368 -1.2557  0.4029
  779MOL0     H 5110   3.212   6.396   8.543  1.1680 -1.9755  2.4663
  779MOL0     H 5111   3.044   6.365   8.492  0.0117  1.2748  1.0306
  779MOL0     H 5112   2.992   6.411   8.749 -0.8910  1.5585  0.0445
  779MOL0     H 5113   3.147   6.507   8.725 -0.5497  2.9811 -1.0728
  779MOL0     H 5114   3.029   6.617   8.533  1.4778 -0.5373  1.1094
  779MOL0     H 5115   2.977   6.661   8.693  4.0278 -1.3675  1.8500
  779MOL0     H 5116   2.830   6.470   8.385  1.1785 -0.2184  0.2004
  779MOL0     H 5117   2.494   6.524   8.377  1.3596  1.5710  1.2806
  779MOL0     H 5118   2.582   6.373   8.330  0.9803  0.4729  0.4954
  779MOL0     H 5119   2.402   6.388   8.565  3.3615 -1.2151  2.4520
  779MOL0     H 5120   2.459   6.236   8.481 -4.7131 -1.3604 -0.6382
  779MOL0     H 5121   2.313   6.292   8.286  1.5544  3.5676 -0.7951
  779MOL0     H 5122   2.289   6.451   8.355 -0.4349  0.3953  1.6495
  779MOL0     H 5123   2.140   6.364   8.530 -0.7970 -0.9102  0.3075
  779MOL0     H 5124   2.184   6.196   8.500 -1.3315  0.7665  2.7866
  779MOL0     H 5125   1.964   6.245   8.612 -1.8013 -2.4567  2.6241
  779MOL0     H 5126   1.669   6.174   8.741  0.1739  1.6860 -0.7067
  779MOL0     H 5127   1.722   6.005   8.748 -0.6067  0.9381  0.6441
  779MOL0     H 5128   1.835   6.140   8.787 -0.5588  0.7330 -0.5096
  779MOL0     H 5129   1.526   5.760   8.781  0.3740 -2.7542  0.0646
  779MOL0     H 5130   1.339   5.643   8.850 -0.2894 -2.0941 -0.6207
  779MOL0     H 5131   0.941   5.729   8.612 -4.6796 -1.4884  1.0884
  779MOL0     H 5132   0.888   5.599   8.698  0.4407 -2.1376 -1.1627
  779MOL0     H 5133   0.970   5.694   8.918 -0.2613 -0.0435 -0.4769
  779MOL0     H 5134   1.000   5.851   8.834  0.2556  0.0354 -1.7432
  779MOL0     H 5135   0.730   5.710   8.865 -0.5644  0.6035  0.2811
  779MOL0     H 5136   0.763   5.822   8.745  1.3727 -1.8683 -1.2553
  779MOL0     H 5137   0.815   5.859   9.054  0.0859  0.9332  1.2272
  779MOL0     H 5138   0.836   5.986   8.941  1.2275 -1.3495  1.4231
  779MOL0     H 5139   0.556   5.866   8.979  0.0824 -0.2582  0.5144
  779MOL0     H 5140   0.612   6.032   8.925 -0.7188 -1.8413 -2.8710
  779MOL0     H 5141   0.526   5.996   9.160 -1.0669 -0.4604 -2.5311
  779MOL0     H 5142   0.676   5.917   9.201 -1.8678  1.3796  2.0257
  779MOL0     H 5143   0.651   6.197   9.083 -2.6348  1.0913  1.9023
  779MOL0     H 5144   0.807   6.124   9.120  0.0938  2.8014 -0.4342
  779MOL0     H 5145   0.734   6.272   9.293 -0.8428  0.7346  1.7087
  779MOL0     H 5146   0.700   6.110   9.368 -0.1454  0.2697  0.1858
  779MOL0     H 5147   1.120   5.788   8.499  0.4716  1.6193 -0.5355
  779MOL0     H 5148   1.300   5.967   8.475 -0.5762  0.7621  1.7446
  779MOL0     H 5149   1.714   5.988   8.269  0.4641 -2.1288 -0.4538
  779MOL0     H 5150   1.914   6.144   8.215  1.0479  0.5616  0.5101
  779MOL0     H 5151   3.585   6.156   8.522 -1.7941 -0.7837 -0.0998
  779MOL0     H 5152   3.823   6.226   8.453 -1.5021  2.1836  0.3262
  779MOL0     H 5153   4.124   6.200   8.080 -0.2292 -2.1737 -0.7062
  779MOL0     H 5154   4.362   6.219   7.975 -1.1031 -3.1121 -1.6864
  779MOL0     H 5155   4.728   6.158   8.209 -0.7645 -0.1033 -0.4725
  779MOL0     H 5156   4.676   5.997   8.158 -0.6554  0.6955  0.7969
  779MOL0     H 5157   4.879   6.027   8.054  0.3657  2.9215  2.7913
  779MOL0     H 5158   4.808   6.185   7.974 -4.4155  0.1396 -1.8113
  779MOL0     H 5159   4.658   5.944   7.934 -1.6469  0.2942  0.3767
  779MOL0     H 5160   4.807   5.944   7.850 -2.7555 -0.4989 -3.3524
  779MOL0     H 5161   4.587   6.154   7.830 -0.0524 -0.2648  1.6640
  779MOL0     H 5162   4.626   6.042   7.703 -2.4887 -1.3431  2.7189
  779MOL0     H 5163   4.916   6.320   7.614 -2.9078  2.3100  0.6379
  779MOL0     H 5164   4.508   6.024   8.320  1.9421  0.6112 -1.2078
  779MOL0     H 5165   4.302   5.999   8.414  2.8539  1.8700  1.3470
  780MOL0     O 5166   5.802   5.444   2.691  0.3039  0.3259  0.0828
  780MOL0     C 5167   5.881   5.395   2.608  0.4550 -0.5888 -0.1125
  780MOL0     O 5168   5.860   5.285   2.530 -0.3364  0.4788 -0.0620
  780MOL0     C 5169   5.738   5.222   2.517  0.2147  0.0261 -0.2700
  780MOL0     C 5170   5.726   5.104   2.436 -0.5782 -0.2474  1.0450
  780MOL0     C 5171   5.596   5.043   2.413 -0.8360  0.1788 -1.0813
  780MOL0     C 5172   5.482   5.092   2.484  1.3153  0.6195  0.5638
  780MOL0     O 5173   5.360   5.033   2.483 -0.5215  0.4483 -0.3464
  780MOL0     C 5174   5.334   4.920   2.389 -0.3818 -1.5726 -0.0426
  780MOL0     C 5175   5.193   4.854   2.390  0.4058 -0.1924  0.2778
  780MOL0     C 5176   5.085   4.957   2.346 -0.1073 -0.1851 -0.5851
  780MOL0     C 5177   4.966   4.931   2.422  0.8308  0.5516  0.7546
  780MOL0     C 5178   4.869   5.054   2.409 -1.2774 -0.3369 -0.4567
  780MOL0     C 5179   4.744   5.036   2.501  0.0925  0.7487  0.1813
  780MOL0     C 5180   4.643   5.145   2.465  0.7154  0.1215  0.6006
  780MOL0     C 5181   4.514   5.142   2.544  0.6186 -0.2010  0.1092
  780MOL0     N 5182   4.425   5.031   2.513  0.6766  0.0138  0.5098
  780MOL0     C 5183   4.322   5.046   2.425  0.5633 -0.4915  0.1579
  780MOL0     C 5184   4.260   4.929   2.419  0.3505  0.6976 -0.3595
  780MOL0     C 5185   4.144   4.890   2.331  0.0721 -0.7567 -0.5717
  780MOL0     C 5186   4.009   4.879   2.406 -0.4075 -0.7803 -0.2295
  780MOL0     C 5187   3.957   5.016   2.475  0.3766 -0.3623 -0.0272
  780MOL0     C 5188   3.822   5.000   2.534  0.2682  0.0985 -0.1425
  780MOL0     O 5189   3.796   5.096   2.637 -0.1920 -0.3723 -0.4620
  780MOL0     C 5190   3.670   5.130   2.665 -0.4094 -0.2464  0.5986
  780MOL0     C 5191   3.557   5.080   2.595 -0.4819  0.9333  0.0064
  780MOL0     C 5192   3.431   5.131   2.629  0.1695  0.7085  0.1860
  780MOL0     C 5193   3.308   5.105   2.540  0.4466  0.7575  0.5635
  780MOL0     C 5194   3.421   5.224   2.738  0.6445 -0.6390 -0.1652
  780MOL0     C 5195   3.289   5.269   2.779  0.2958 -0.2267 -0.4244
  780MOL0     O 5196   3.211   5.164   2.824 -0.1642  0.3433 -0.1262
  780MOL0     C 5197   3.083   5.189   2.861 -0.4264 -0.4079 -0.2377
  780MOL0     C 5198   2.982   5.100   2.817 -0.4350  0.5686 -0.0250
  780MOL0     C 5199   2.851   5.117   2.861  1.4580  1.0776 -0.7947
  780MOL0     C 5200   2.804   5.215   2.944 -0.8724 -0.5728  0.5949
  780MOL0     O 5201   2.673   5.210   2.973  0.3397 -0.1752 -0.1734
  780MOL0     C 5202   2.644   5.213   3.114 -1.0457  0.3375  0.5625
  780MOL0     C 5203   2.498   5.206   3.144 -0.1396  0.4306  0.0158
  780MOL0     C 5204   2.423   5.067   3.117  0.1315 -0.4236 -0.3529
  780MOL0     C 5205   2.440   4.982   3.241 -0.5127  0.4521 -0.4583
  780MOL0     C 5206   2.406   4.840   3.220 -0.7251  0.8724  1.4429
  780MOL0     C 5207   2.411   4.774   3.349  0.3251  0.0066 -0.2908
  780MOL0     C 5208   2.388   4.622   3.343 -0.2358  0.2825 -1.0900
  780MOL0     C 5209   2.488   4.540   3.261  0.3090  0.0441 -0.2002
  780MOL0    Cl 5210   2.490   4.362   3.318  0.0276  0.1814 -0.5029
  780MOL0     C 5211   2.902   5.302   2.988 -0.7479 -0.3779  0.1243
  780MOL0     C 5212   3.036   5.291   2.951 -0.0569 -0.1888  0.8023
  780MOL0     O 5213   3.256   5.388   2.785 -0.0888  0.8123  0.2101
  780MOL0     C 5214   3.536   5.273   2.806 -0.1341 -0.6943  0.4385
  780MOL0     C 5215   3.658   5.228   2.763  0.2490 -0.2272 -0.4403
  780MOL0     N 5216   4.319   4.840   2.512 -0.2773 -0.3631  0.1849
  780MOL0     N 5217   4.416   4.907   2.571 -1.2414 -0.5678 -0.3622
  780MOL0     C 5218   5.491   5.201   2.561  0.4042 -0.6414 -0.0191
  780MOL0     C 5219   5.617   5.263   2.577  1.2443  0.6298  0.3544
  780MOL0     C 5220   6.011   5.468   2.591  0.2390  0.4297 -0.4595
  780MOL0     C 5221   6.009   5.611   2.589 -0.2477 -0.0317  1.0500
  780MOL0     C 5222   6.135   5.679   2.562  0.4088 -0.0638  0.5948
  780MOL0     C 5223   6.252   5.616   2.522  0.3321  0.1414  0.1195
  780MOL0     O 5224   6.354   5.690   2.482  0.6321 -0.7166  0.7488
  780MOL0     C 5225   6.479   5.623   2.447  0.0507 -0.3026 -0.0146
  780MOL0     C 5226   6.589   5.727   2.466 -0.2824 -0.0831  0.6616
  780MOL0     C 5227   6.712   5.701   2.384 -0.2764  0.7447  0.2072
  780MOL0     C 5228   6.793   5.832   2.364 -0.0220 -0.1591  0.7601
  780MOL0     C 5229   6.925   5.814   2.291 -0.3855 -0.7749  0.5121
  780MOL0     C 5230   7.036   5.792   2.248  0.0244 -0.0988 -0.4990
  780MOL0     C 5231   6.248   5.475   2.522 -0.0274  0.1931  0.3275
  780MOL0     C 5232   6.130   5.405   2.554  0.3718 -0.0941 -0.1251
  780MOL0     H 5233   5.815   5.061   2.391 -0.1572  1.0798  0.5372
  780MOL0     H 5234   5.593   4.954   2.352  0.2993 -0.0178 -0.8734
  780MOL0     H 5235   5.348   4.963   2.289 -4.5045  0.5386  0.0803
  780MOL0     H 5236   5.409   4.847   2.423  0.9403  0.4341  1.5348
  780MOL0     H 5237   5.193   4.782   2.308  1.2014  0.3293 -0.1987
  780MOL0     H 5238   5.169   4.801   2.483 -0.9920 -1.3070 -0.6844
  780MOL0     H 5239   5.123   5.060   2.353  0.9756 -0.6187  0.3700
  780MOL0     H 5240   5.058   4.943   2.242  3.0007 -0.8027 -1.4294
  780MOL0     H 5241   4.900   4.847   2.395 -1.1212  1.2065  3.0345
  780MOL0     H 5242   4.991   4.926   2.528  0.2497 -0.2911  0.8696
  780MOL0     H 5243   4.922   5.149   2.423 -0.7149 -0.4965 -1.3921
  780MOL0     H 5244   4.839   5.056   2.304 -1.9731  0.7490 -0.2506
  780MOL0     H 5245   4.701   4.937   2.480  0.9086  0.6792 -1.3250
  780MOL0     H 5246   4.773   5.030   2.606  2.3595  1.1717 -0.3678
  780MOL0     H 5247   4.700   5.234   2.495  0.3150  0.5334  0.1421
  780MOL0     H 5248   4.615   5.150   2.360 -1.0059 -1.0217  0.9618
  780MOL0     H 5249   4.460   5.238   2.537 -0.1543 -0.5997  0.4629
  780MOL0     H 5250   4.538   5.129   2.650 -0.8829  0.7604  0.6026
  780MOL0     H 5251   4.296   5.132   2.363  1.3316 -0.3444  0.0272
  780MOL0     H 5252   4.147   4.962   2.249  3.6365 -0.5984 -0.4648
  780MOL0     H 5253   4.165   4.799   2.274  0.6529 -0.0576 -1.4911
  780MOL0     H 5254   4.020   4.805   2.486  1.2818  1.3408  1.6323
  780MOL0     H 5255   3.927   4.847   2.341 -0.3730  0.4233 -0.8808
  780MOL0     H 5256   3.954   5.095   2.399 -2.5115 -0.6456 -0.3304
  780MOL0     H 5257   4.026   5.042   2.555 -0.6456 -0.5090  0.9266
  780MOL0     H 5258   3.825   4.897   2.571  0.1464  0.2159  0.1982
  780MOL0     H 5259   3.752   5.008   2.451 -0.7019 -0.2855  0.6196
  780MOL0     H 5260   3.557   4.997   2.525 -1.3388  2.2193 -1.5720
  780MOL0     H 5261   3.219   5.067   2.591  1.2071 -0.4013  1.0722
  780MOL0     H 5262   3.285   5.198   2.488 -1.7956 -0.0063  0.0337
  780MOL0     H 5263   3.340   5.028   2.468  0.8000  1.3653  0.0615
  780MOL0     H 5264   3.010   5.017   2.752 -1.9645  2.2160 -3.0507
  780MOL0     H 5265   2.784   5.038   2.828  3.6051 -1.7596  1.0938
  780MOL0     H 5266   2.697   5.137   3.171 -1.5831 -0.2804  0.2524
  780MOL0     H 5267   2.683   5.307   3.153  0.5901 -0.7759  1.7180
  780MOL0     H 5268   2.465   5.225   3.247  0.0555 -2.1021  0.6282
  780MOL0     H 5269   2.456   5.286   3.082 -0.0235  2.5182  2.4526
  780MOL0     H 5270   2.462   5.016   3.029 -1.2941 -2.2488  0.0188
  780MOL0     H 5271   2.316   5.081   3.100  0.0474  1.8812  1.4359
  780MOL0     H 5272   2.543   4.979   3.277 -0.1317 -3.0478 -1.4328
  780MOL0     H 5273   2.377   5.026   3.319 -0.7159 -0.1763 -0.2560
  780MOL0     H 5274   2.487   4.801   3.158 -1.3285 -1.9500  2.3223
  780MOL0     H 5275   2.315   4.822   3.162  1.0675 -0.1099 -1.2575
  780MOL0     H 5276   2.511   4.791   3.391 -0.3504 -0.4797  1.6026
  780MOL0     H 5277   2.336   4.817   3.415 -0.4538  2.8210 -2.7865
  780MOL0     H 5278   2.293   4.588   3.301  1.1934 -2.0172 -2.7632
  780MOL0     H 5279   2.400   4.593   3.447 -0.2185  0.4486 -1.0466
  780MOL0     H 5280   2.582   4.596   3.265 -0.2557  1.2488 -2.2095
  780MOL0     H 5281   2.462   4.546   3.155 -0.2537 -2.7901 -0.2851
  780MOL0     H 5282   2.875   5.379   3.059 -2.1216  0.0163 -0.7740
  780MOL0     H 5283   3.104   5.365   2.992  0.7694 -0.4545 -0.0646
  780MOL0     H 5284   3.526   5.340   2.892 -0.4670  1.9380 -1.5076
  780MOL0     H 5285   3.747   5.245   2.824 -0.5591 -2.4381  1.4846
  780MOL0     H 5286   5.398   5.242   2.598  0.9113  0.0918  0.4722
  780MOL0     H 5287   5.605   5.356   2.631  2.5920  0.4579  1.0120
  780MOL0     H 5288   5.918   5.664   2.615 -0.1701  1.5952 -1.6175
  780MOL0     H 5289   6.140   5.787   2.561 -2.1797  0.1681  2.5619
  780MOL0     H 5290   6.503   5.530   2.500 -0.9212 -0.0851  0.8570
  780MOL0     H 5291   6.470   5.609   2.339 -0.8210 -0.3882  0.0553
  780MOL0     H 5292   6.623   5.736   2.570 -2.2216 -0.0140  1.3289
  780MOL0     H 5293   6.547   5.823   2.433 -0.1362 -0.0641  0.5273
  780MOL0     H 5294   6.681   5.676   2.282  1.1589  1.3638 -0.4217
  780MOL0     H 5295   6.761   5.613   2.426 -3.3826 -1.0294  0.3227
  780MOL0     H 5296   6.816   5.880   2.460 -1.0528 -0.6154  1.2429
  780MOL0     H 5297   6.725   5.894   2.305 -0.0096 -1.5592 -0.7903
  780MOL0     H 5298   7.128   5.755   2.209  0.5508 -0.0678  0.6700
  780MOL0     H 5299   6.334   5.414   2.497  0.0345  1.3041 -2.4987
  780MOL0     H 5300   6.133   5.297   2.556 -4.2374 -0.4032  1.4571
  781MOL0     O 5301   0.633   9.753   7.958  0.7275 -0.2274 -0.7068
  781MOL0     C 5302   0.710   9.828   7.896  0.5486 -0.0493  0.0240
  781MOL0     O 5303   0.671   9.922   7.804  0.1945  0.1674  0.3626
  781MOL0     C 5304   0.536   9.915   7.775  0.4803  0.0769 -0.2689
  781MOL0     C 5305   0.485   9.807   7.697 -0.9570  0.1131  0.8793
  781MOL0     C 5306   0.353   9.818   7.629 -0.1206 -0.0427  0.0460
  781MOL0     C 5307   0.270   9.926   7.665 -0.2245  0.0467 -0.9460
  781MOL0     O 5308   0.147   9.955   7.608 -0.1539 -0.4766  0.3484
  781MOL0     C 5309   0.090   9.838   7.543 -0.4678  0.0934 -0.5359
  781MOL0     C 5310  -0.059   9.836   7.562 -0.6063  0.2544 -0.2021
  781MOL0     C 5311  -0.127   9.933   7.467 -0.4507  0.3632  0.4588
  781MOL0     C 5312  -0.275   9.956   7.507 -0.4788  0.1160 -0.7033
  781MOL0     C 5313  -0.340  10.068   7.423  0.6424  0.3649 -0.0609
  781MOL0     C 5314  -0.478  10.094   7.470  0.1411 -0.3800 -0.5936
  781MOL0     C 5315  -0.551  10.207   7.389  0.2790 -0.5387 -0.4005
  781MOL0     C 5316  -0.614  10.172   7.255 -0.5709 -0.3935  0.2281
  781MOL0     N 5317  -0.696  10.040   7.271 -0.4196  0.3786  0.2348
  781MOL0     C 5318  -0.812  10.016   7.339  0.0135  0.1105  0.1668
  781MOL0     C 5319  -0.847   9.891   7.299 -0.1031 -0.2029 -0.2890
  781MOL0     C 5320  -0.966   9.821   7.367 -0.5823  0.1247  0.3108
  781MOL0     C 5321  -1.085   9.817   7.280 -0.3202  0.0665 -0.7020
  781MOL0     C 5322  -1.124   9.934   7.200  0.7662 -1.8854 -0.8768
  781MOL0     C 5323  -1.275   9.944   7.164 -0.2598  0.1288  0.2155
  781MOL0     O 5324  -1.319   9.804   7.135 -0.1749 -0.1148 -0.4647
  781MOL0     C 5325  -1.446   9.765   7.176 -0.6342 -0.1018  0.3549
  781MOL0     C 5326  -1.469   9.630   7.191 -0.2100 -0.5650  0.1037
  781MOL0     C 5327  -1.596   9.588   7.229  0.0397 -0.6080 -0.2016
  781MOL0     C 5328  -1.609   9.449   7.253  0.5088  0.3607  0.7835
  781MOL0     C 5329  -1.701   9.684   7.248  0.4417  0.1877  0.7895
  781MOL0     C 5330  -1.839   9.650   7.279  0.3901  0.1848 -0.0565
  781MOL0     O 5331  -1.898   9.740   7.360  0.1907  0.0656 -0.0794
  781MOL0     C 5332  -2.016   9.707   7.424 -0.1970  0.0904  0.4914
  781MOL0     C 5333  -2.050   9.573   7.471 -0.0435  0.7664  0.1873
  781MOL0     C 5334  -2.168   9.545   7.538 -0.3078 -0.2624  0.3100
  781MOL0     C 5335  -2.251   9.655   7.568  0.2955  0.1012 -0.3812
  781MOL0     O 5336  -2.362   9.630   7.646  0.0210 -0.5657 -0.2782
  781MOL0     C 5337  -2.471   9.728   7.648  0.0591  0.1341  0.2843
  781MOL0     C 5338  -2.599   9.663   7.700 -0.7001  1.0114  0.5064
  781MOL0     C 5339  -2.716   9.750   7.713  0.6588 -0.2291  0.4329
  781MOL0     C 5340  -2.834   9.659   7.754  0.5300  0.3996 -0.1662
  781MOL0     C 5341  -2.961   9.748   7.777 -0.5964  0.4705  0.1238
  781MOL0     C 5342  -3.007   9.824   7.658  0.2314 -0.7461 -0.2314
  781MOL0     C 5343  -3.139   9.895   7.688 -0.6769 -0.9897 -0.6971
  781MOL0     C 5344  -3.226   9.916   7.563 -0.5761  0.2839 -0.2465
  781MOL0    Cl 5345  -3.393   9.958   7.609  0.0256  0.2041 -0.0583
  781MOL0     C 5346  -2.224   9.787   7.532 -0.1282 -0.0586  0.8056
  781MOL0     C 5347  -2.103   9.810   7.468  0.4341 -0.9563 -0.7142
  781MOL0     O 5348  -1.896   9.557   7.214 -0.7741 -0.0745 -0.2772
  781MOL0     C 5349  -1.684   9.817   7.216 -0.1371  0.2134 -0.1396
  781MOL0     C 5350  -1.555   9.850   7.170  0.0968  0.0683 -0.0633
  781MOL0     N 5351  -0.767   9.842   7.204  0.9416  0.9347  0.8806
  781MOL0     N 5352  -0.671   9.924   7.188 -0.6733 -0.8528  0.1188
  781MOL0     C 5353   0.319  10.018   7.764 -0.5679  0.2578 -0.0860
  781MOL0     C 5354   0.446  10.015   7.808 -0.4891 -0.6110 -0.5379
  781MOL0     C 5355   0.858   9.814   7.922  0.0343  0.6530 -0.1293
  781MOL0     C 5356   0.947   9.922   7.921 -0.1677  0.0423  0.6175
  781MOL0     C 5357   1.090   9.905   7.940 -0.4353 -0.6307 -0.1977
  781MOL0     C 5358   1.137   9.776   7.957 -0.6355  0.9598 -0.2507
  781MOL0     O 5359   1.277   9.769   7.969 -0.2141 -0.3252  0.2116
  781MOL0     C 5360   1.323   9.635   8.003 -0.1996 -0.2210  0.2308
  781MOL0     C 5361   1.473   9.650   8.039  1.1334  0.1217  0.3254
  781MOL0     C 5362   1.495   9.761   8.145 -0.7044  0.7074 -0.2061
  781MOL0     C 5363   1.633   9.736   8.211  0.4989 -0.2169  0.8444
  781MOL0     C 5364   1.734   9.730   8.104 -0.0236  0.2191  0.6488
  781MOL0     C 5365   1.823   9.718   8.025 -0.7781 -0.2320  0.2076
  781MOL0     C 5366   1.052   9.665   7.955 -0.0751 -0.2964 -0.3862
  781MOL0     C 5367   0.912   9.688   7.958 -0.3958  0.7980  0.1643
  781MOL0     H 5368   0.560   9.733   7.671  1.6412  3.2086 -1.3158
  781MOL0     H 5369   0.328   9.744   7.554  0.7162  0.9502 -1.2453
  781MOL0     H 5370   0.119   9.833   7.438 -1.8302 -3.5060 -0.8940
  781MOL0     H 5371   0.113   9.741   7.589 -0.9365 -0.1318 -0.7623
  781MOL0     H 5372  -0.099   9.735   7.558 -0.5223  0.2036  0.1686
  781MOL0     H 5373  -0.067   9.871   7.665  0.8014 -0.7277  0.2707
  781MOL0     H 5374  -0.081  10.031   7.482  0.2312 -0.2151  2.4158
  781MOL0     H 5375  -0.122   9.884   7.370 -2.1222 -2.6834  1.7797
  781MOL0     H 5376  -0.329   9.862   7.493  0.1223 -0.4987  0.8299
  781MOL0     H 5377  -0.279   9.982   7.613  1.3143  3.6440 -1.3627
  781MOL0     H 5378  -0.278  10.158   7.419  0.3041  0.5620 -2.2428
  781MOL0     H 5379  -0.341  10.036   7.318  1.3000  0.0873  0.0175
  781MOL0     H 5380  -0.529   9.998   7.470 -0.7323 -0.0809  3.5580
  781MOL0     H 5381  -0.477  10.124   7.575 -0.6193  1.1351 -0.9771
  781MOL0     H 5382  -0.632  10.247   7.450  0.5190  2.5060 -1.8539
  781MOL0     H 5383  -0.479  10.287   7.369  1.9047 -1.3991  1.6211
  781MOL0     H 5384  -0.531  10.153   7.187 -1.4145 -0.8710 -0.6977
  781MOL0     H 5385  -0.680  10.252   7.220 -5.0864 -3.2588  1.2514
  781MOL0     H 5386  -0.872  10.072   7.410 -2.2859 -0.9294 -0.8628
  781MOL0     H 5387  -0.931   9.723   7.401  0.1695  0.9189  1.9006
  781MOL0     H 5388  -0.982   9.876   7.460  1.1851 -0.0213  0.7240
  781MOL0     H 5389  -1.170   9.800   7.346 -1.1577  3.3774 -0.7349
  781MOL0     H 5390  -1.072   9.731   7.214  0.8489 -0.8471  0.6346
  781MOL0     H 5391  -1.052   9.950   7.119  1.8846  1.9053  0.6438
  781MOL0     H 5392  -1.118  10.027   7.257 -0.8602 -0.0606 -3.4634
  781MOL0     H 5393  -1.277  10.013   7.080 -2.0081  1.2206  1.0910
  781MOL0     H 5394  -1.323   9.985   7.254  1.3459  0.5429  0.9258
  781MOL0     H 5395  -1.390   9.560   7.169 -0.5614 -1.8299  2.5427
  781MOL0     H 5396  -1.639   9.431   7.357  1.8305 -2.7036  0.7483
  781MOL0     H 5397  -1.681   9.389   7.196  0.1518 -0.4900  2.0876
  781MOL0     H 5398  -1.514   9.394   7.246  0.8242  0.8002  1.4373
  781MOL0     H 5399  -1.985   9.489   7.448 -0.6887  0.7280 -1.7270
  781MOL0     H 5400  -2.188   9.444   7.572  1.0327  0.0615  2.2291
  781MOL0     H 5401  -2.438   9.819   7.699  1.3448  0.1764 -0.5703
  781MOL0     H 5402  -2.491   9.760   7.546  0.1320  2.6077  0.9904
  781MOL0     H 5403  -2.610   9.577   7.633  1.0049  0.2663  1.1316
  781MOL0     H 5404  -2.587   9.621   7.800 -2.8985  0.0851  0.4377
  781MOL0     H 5405  -2.731   9.803   7.618  1.6062  0.2481  0.5424
  781MOL0     H 5406  -2.702   9.821   7.795 -1.2569 -2.2934  2.6976
  781MOL0     H 5407  -2.851   9.579   7.681  1.6696  0.2883 -0.3282
  781MOL0     H 5408  -2.805   9.602   7.843 -0.9847 -1.2228 -0.6403
  781MOL0     H 5409  -2.936   9.822   7.854 -1.3703  0.7415  0.1143
  781MOL0     H 5410  -3.032   9.676   7.816 -0.1537  0.9383  1.8969
  781MOL0     H 5411  -2.938   9.902   7.626 -1.0725  1.2506  1.5589
  781MOL0     H 5412  -3.020   9.755   7.574  0.9800  0.9993 -1.8613
  781MOL0     H 5413  -3.122   9.995   7.728  2.3507 -1.6035 -0.2246
  781MOL0     H 5414  -3.187   9.832   7.764  3.9621 -0.7132  2.8858
  781MOL0     H 5415  -3.229   9.829   7.497  2.2523  0.6685 -1.0380
  781MOL0     H 5416  -3.186   9.997   7.501 -1.5763  1.7511  0.9635
  781MOL0     H 5417  -2.292   9.869   7.553  0.1111  0.3085  0.1893
  781MOL0     H 5418  -2.092   9.911   7.429  1.0976 -0.0497  1.6336
  781MOL0     H 5419  -1.768   9.885   7.216  0.5694  1.1395  1.4230
  781MOL0     H 5420  -1.538   9.952   7.138  1.5163 -0.2110 -0.2537
  781MOL0     H 5421   0.254  10.099   7.793  1.2295  2.1238 -1.0276
  781MOL0     H 5422   0.473  10.091   7.881 -0.6640 -0.4792 -0.6102
  781MOL0     H 5423   0.908  10.019   7.891  0.5090 -0.1315 -0.9135
  781MOL0     H 5424   1.166   9.983   7.949 -0.2116 -1.0497  2.3758
  781MOL0     H 5425   1.272   9.601   8.094  0.0830  1.4621  1.0553
  781MOL0     H 5426   1.316   9.573   7.913 -1.4917  0.9748 -0.5159
  781MOL0     H 5427   1.528   9.688   7.952 -0.6062  4.4901  0.8922
  781MOL0     H 5428   1.513   9.553   8.071  0.5127 -1.0674 -2.2008
  781MOL0     H 5429   1.419   9.754   8.224  1.3143  1.4681  1.9125
  781MOL0     H 5430   1.489   9.857   8.094 -1.8043 -0.2301 -1.9378
  781MOL0     H 5431   1.627   9.648   8.275 -1.5253  1.1708  2.7267
  781MOL0     H 5432   1.650   9.826   8.271 -2.3895  0.3647  0.9476
  781MOL0     H 5433   1.904   9.690   7.962 -0.9231  2.2266 -1.2342
  781MOL0     H 5434   1.086   9.562   7.952 -1.2838 -0.7338  0.2718
  781MOL0     H 5435   0.851   9.604   7.989  2.4124 -0.4576  2.7958
  782MOL0     O 5436   9.130   0.599   6.143  0.7501 -0.1681 -0.3122
  782MOL0     C 5437   9.165   0.718   6.163 -0.5018  0.0040  0.0962
  782MOL0     O 5438   9.080   0.826   6.172  0.6462  0.1169 -0.2220
  782MOL0     C 5439   8.946   0.810   6.146  0.0162  0.4386  0.4401
  782MOL0     C 5440   8.854   0.753   6.234  0.3330  0.7209  0.2453
  782MOL0     C 5441   8.722   0.748   6.194  0.8483  0.3385  0.3974
  782MOL0     C 5442   8.673   0.792   6.068 -0.0260  0.1005 -0.7809
  782MOL0     O 5443   8.534   0.782   6.052  0.3266  0.7614  0.0701
  782MOL0     C 5444   8.501   0.811   5.916 -1.2317  0.4638  0.3045
  782MOL0     C 5445   8.357   0.774   5.881  0.3269 -0.4864  0.1058
  782MOL0     C 5446   8.253   0.798   5.989  0.6294  0.0449  0.3439
  782MOL0     C 5447   8.111   0.773   5.933 -0.4999  0.0750 -0.4664
  782MOL0     C 5448   8.006   0.768   6.041 -0.0032 -0.5988 -0.2074
  782MOL0     C 5449   7.868   0.774   5.986  0.7332 -0.0251  0.9044
  782MOL0     C 5450   7.840   0.662   5.883  0.5844 -0.3399 -0.0873
  782MOL0     C 5451   7.694   0.665   5.835  0.5274  0.5952 -1.2863
  782MOL0     N 5452   7.594   0.687   5.944 -0.0821  0.2165  0.1010
  782MOL0     C 5453   7.492   0.785   5.933  0.2436 -0.4613  0.2689
  782MOL0     C 5454   7.412   0.766   6.044 -0.8225 -0.3454  0.3025
  782MOL0     C 5455   7.268   0.822   6.079  0.3042  0.6114 -0.4262
  782MOL0     C 5456   7.169   0.720   6.122 -0.2546 -0.2737 -0.5852
  782MOL0     C 5457   7.140   0.627   6.008  1.3147  0.9202  0.2081
  782MOL0     C 5458   7.027   0.690   5.916  0.4873  0.7867  0.5327
  782MOL0     O 5459   6.979   0.599   5.821  0.0666  0.3228 -0.6155
  782MOL0     C 5460   6.856   0.538   5.847 -0.6762  0.5042 -0.2871
  782MOL0     C 5461   6.798   0.517   5.975 -0.1617 -1.0574 -0.8218
  782MOL0     C 5462   6.679   0.449   6.003 -0.1511 -0.3711  0.9279
  782MOL0     C 5463   6.648   0.418   6.141 -0.0613 -0.1062  0.1785
  782MOL0     C 5464   6.598   0.420   5.886  0.1373 -0.2678 -0.2342
  782MOL0     C 5465   6.459   0.360   5.889 -1.0309  0.4323 -0.5218
  782MOL0     O 5466   6.384   0.373   5.781  0.5100 -0.3275 -0.5121
  782MOL0     C 5467   6.247   0.363   5.781  0.7619  0.7661  0.6432
  782MOL0     C 5468   6.195   0.327   5.654  1.2410 -0.5920 -0.7702
  782MOL0     C 5469   6.055   0.330   5.641 -0.3506  0.5529  0.9966
  782MOL0     C 5470   5.969   0.343   5.750 -0.8684  0.4087 -0.3859
  782MOL0     O 5471   5.837   0.348   5.717 -0.1112 -0.7001  0.2875
  782MOL0     C 5472   5.748   0.348   5.822  0.8869  0.0631  0.6838
  782MOL0     C 5473   5.615   0.297   5.769 -0.0128  0.2676  0.6558
  782MOL0     C 5474   5.496   0.328   5.864 -0.5675 -0.3712  0.3269
  782MOL0     C 5475   5.373   0.256   5.817  0.4009  0.2339 -0.0669
  782MOL0     C 5476   5.245   0.283   5.910  0.6774  0.1415 -0.3800
  782MOL0     C 5477   5.146   0.172   5.876 -0.6052  1.7598 -0.2825
  782MOL0     C 5478   5.003   0.210   5.929 -0.3458  0.0949  0.1872
  782MOL0     C 5479   4.988   0.184   6.084 -0.3671  0.0258  0.2511
  782MOL0    Cl 5480   4.827   0.217   6.130 -0.0423 -0.2316 -0.0983
  782MOL0     C 5481   6.027   0.371   5.881  0.5619  0.2265  0.1096
  782MOL0     C 5482   6.168   0.391   5.894  0.0450 -0.1749  0.4838
  782MOL0     O 5483   6.430   0.291   5.985 -0.0996  0.5142  0.4532
  782MOL0     C 5484   6.652   0.443   5.756  0.2809 -1.3834  0.4555
  782MOL0     C 5485   6.777   0.496   5.740 -0.2511  0.1963  0.2014
  782MOL0     N 5486   7.488   0.669   6.122 -0.1694  0.2634  0.4940
  782MOL0     N 5487   7.587   0.624   6.062  0.7702 -0.2493  0.2102
  782MOL0     C 5488   8.766   0.855   5.981 -0.5865 -0.4104 -1.4310
  782MOL0     C 5489   8.901   0.868   6.025  0.2233 -0.1630  0.1258
  782MOL0     C 5490   9.304   0.745   6.172 -0.9160  0.6602 -0.0883
  782MOL0     C 5491   9.361   0.873   6.160 -0.1621  0.0134  0.2517
  782MOL0     C 5492   9.499   0.889   6.165  0.4919 -0.3291 -0.3994
  782MOL0     C 5493   9.583   0.787   6.185  1.0775  1.0186  0.3902
  782MOL0     O 5494   9.715   0.810   6.190  0.2865  0.6586  0.1377
  782MOL0     C 5495   9.809   0.700   6.165  0.1241 -0.0042 -0.2594
  782MOL0     C 5496   9.949   0.731   6.147 -0.3018  0.3547  0.0498
  782MOL0     C 5497   9.977   0.771   6.007 -0.8333 -0.0539  0.4436
  782MOL0     C 5498  10.136   0.795   5.977  0.3357  0.7412 -0.0912
  782MOL0     C 5499  10.155   0.842   5.846 -0.1699 -0.1274 -0.7295
  782MOL0     C 5500  10.172   0.872   5.729  0.4821 -0.2559  0.6555
  782MOL0     C 5501   9.530   0.654   6.208 -0.1328  0.4928 -0.6681
  782MOL0     C 5502   9.389   0.636   6.194 -0.4521 -0.4655  0.1335
  782MOL0     H 5503   8.880   0.713   6.331 -1.8432 -0.5998  0.3467
  782MOL0     H 5504   8.641   0.720   6.261  0.1211  0.3819 -0.4428
  782MOL0     H 5505   8.513   0.918   5.895  2.2083 -0.4513 -3.4742
  782MOL0     H 5506   8.568   0.760   5.848 -1.4651  3.0683 -2.0604
  782MOL0     H 5507   8.327   0.832   5.793 -0.5844  2.5646  2.2305
  782MOL0     H 5508   8.349   0.670   5.851 -2.5786  0.0072 -1.2047
  782MOL0     H 5509   8.269   0.718   6.061 -1.5752 -0.4594  0.3502
  782MOL0     H 5510   8.269   0.894   6.040  2.7298 -0.9860  1.8162
  782MOL0     H 5511   8.090   0.847   5.855  1.9985  1.9058  0.4692
  782MOL0     H 5512   8.107   0.682   5.872 -1.0420 -0.0086 -0.3115
  782MOL0     H 5513   8.023   0.682   6.107  3.0274  0.6372  0.7863
  782MOL0     H 5514   8.028   0.858   6.099  1.7629 -0.4928 -0.9894
  782MOL0     H 5515   7.812   0.764   6.080 -0.3817 -3.6203  0.0290
  782MOL0     H 5516   7.838   0.868   5.940 -0.2618 -0.4500  0.6489
  782MOL0     H 5517   7.906   0.663   5.796  0.6462  0.1963 -0.0331
  782MOL0     H 5518   7.853   0.567   5.935  0.2568 -0.1561  0.3377
  782MOL0     H 5519   7.673   0.567   5.792  3.7353  0.0575 -1.8828
  782MOL0     H 5520   7.688   0.738   5.754  3.4864 -0.8032 -2.8710
  782MOL0     H 5521   7.485   0.858   5.853  0.7640  0.3066  0.9158
  782MOL0     H 5522   7.271   0.908   6.146  1.4522 -1.5860  2.5602
  782MOL0     H 5523   7.224   0.855   5.984 -2.3000 -0.9721  0.1353
  782MOL0     H 5524   7.083   0.763   6.173 -0.4586 -1.5153  0.1506
  782MOL0     H 5525   7.222   0.658   6.194 -0.4321 -0.7100 -0.8306
  782MOL0     H 5526   7.098   0.534   6.050 -0.1951  0.9786 -1.1165
  782MOL0     H 5527   7.231   0.596   5.956  0.2325 -3.0962  0.3219
  782MOL0     H 5528   7.070   0.773   5.860  0.8421  0.3900  0.2109
  782MOL0     H 5529   6.945   0.724   5.981  1.3778  2.2704  0.9276
  782MOL0     H 5530   6.868   0.534   6.057 -2.4765  1.4263  0.8197
  782MOL0     H 5531   6.592   0.326   6.159  2.7347 -1.5954  2.1436
  782MOL0     H 5532   6.744   0.392   6.188  1.0258 -1.1877 -2.4086
  782MOL0     H 5533   6.611   0.508   6.192  3.1470  1.9869 -0.8328
  782MOL0     H 5534   6.251   0.301   5.565  2.2865 -0.0485 -0.2868
  782MOL0     H 5535   6.011   0.297   5.547 -0.3377  0.9638  0.8439
  782MOL0     H 5536   5.775   0.285   5.907 -0.7145  0.7147  1.7167
  782MOL0     H 5537   5.752   0.450   5.861 -0.1982  0.8621 -1.1687
  782MOL0     H 5538   5.586   0.355   5.681 -0.2373 -0.8907 -0.0458
  782MOL0     H 5539   5.618   0.191   5.744 -0.1839 -0.1701  2.3414
  782MOL0     H 5540   5.476   0.435   5.870 -0.1393 -0.3319  1.1869
  782MOL0     H 5541   5.530   0.314   5.967  1.0460  0.7693 -0.0252
  782MOL0     H 5542   5.349   0.275   5.712 -4.1832  2.2888  1.1000
  782MOL0     H 5543   5.404   0.151   5.827  0.4342  0.3802  1.6322
  782MOL0     H 5544   5.193   0.378   5.897  2.4700  1.3834  0.9388
  782MOL0     H 5545   5.282   0.285   6.013  0.2262 -1.5326 -0.1575
  782MOL0     H 5546   5.134   0.147   5.771  2.9367  1.3457 -0.7013
  782MOL0     H 5547   5.182   0.081   5.926 -1.9922  0.9836 -0.6558
  782MOL0     H 5548   4.931   0.147   5.875  0.0038 -2.0411  2.0726
  782MOL0     H 5549   4.983   0.313   5.898  1.6660  0.1822 -1.0375
  782MOL0     H 5550   5.055   0.249   6.140  1.3584 -2.7091  1.5485
  782MOL0     H 5551   5.005   0.082   6.119 -0.0875  0.1834  0.5663
  782MOL0     H 5552   5.964   0.389   5.967 -1.8461 -1.1570 -1.2458
  782MOL0     H 5553   6.211   0.413   5.991 -2.2401 -1.2595  1.8210
  782MOL0     H 5554   6.608   0.411   5.662  1.0003 -3.0558  0.6623
  782MOL0     H 5555   6.818   0.517   5.642 -2.7853 -0.1995 -1.0293
  782MOL0     H 5556   8.738   0.910   5.891  0.4043  1.1871 -0.8142
  782MOL0     H 5557   8.983   0.912   5.970  2.5434 -2.2573  1.7147
  782MOL0     H 5558   9.305   0.965   6.150  1.4699  0.8451 -1.7119
  782MOL0     H 5559   9.545   0.987   6.150 -1.5577  0.9130  1.0000
  782MOL0     H 5560   9.810   0.639   6.256 -2.5731  0.8021  0.4025
  782MOL0     H 5561   9.779   0.634   6.083  1.3279 -2.3112  1.0403
  782MOL0     H 5562  10.011   0.641   6.152  0.8118  0.7494 -3.6825
  782MOL0     H 5563   9.985   0.800   6.223 -0.0849 -2.2060  2.4199
  782MOL0     H 5564   9.914   0.859   5.989 -1.4721  0.1831  3.3572
  782MOL0     H 5565   9.941   0.693   5.938 -0.8650 -1.8181  2.3386
  782MOL0     H 5566  10.198   0.705   5.981  1.5969  1.5870 -0.1700
  782MOL0     H 5567  10.182   0.867   6.045 -0.7882  0.8455  0.5856
  782MOL0     H 5568  10.165   0.890   5.624 -0.5358 -1.1595  0.5543
  782MOL0     H 5569   9.594   0.569   6.230 -1.4419 -0.5113 -0.5549
  782MOL0     H 5570   9.343   0.541   6.221  0.4674 -1.0996 -0.4843
  783MOL0     O 5571   7.289   0.264  11.031 -0.2801 -0.1246 -0.4074
  783MOL0     C 5572   7.368   0.171  11.038  1.3547  0.5672  0.1361
  783MOL0     O 5573   7.333   0.040  11.020 -0.0954  0.5673 -0.3396
  783MOL0     C 5574   7.204   0.008  10.990  0.3788 -0.3352  0.9665
  783MOL0     C 5575   7.196  -0.095  10.891 -0.5352  0.4654  0.6092
  783MOL0     C 5576   7.069  -0.147  10.850  0.1104 -1.2134  0.0752
  783MOL0     C 5577   6.947  -0.094  10.907  0.6721 -0.0505 -0.3892
  783MOL0     O 5578   6.830  -0.155  10.866  0.4236 -0.4302 -0.6943
  783MOL0     C 5579   6.697  -0.087  10.889 -0.1386 -0.4028  0.4247
  783MOL0     C 5580   6.592  -0.175  10.825  0.8610 -0.0071 -0.1604
  783MOL0     C 5581   6.451  -0.160  10.875  0.9038 -0.5456 -0.0828
  783MOL0     C 5582   6.395  -0.022  10.875  0.0854 -0.5596  0.5370
  783MOL0     C 5583   6.244  -0.014  10.880  0.6621 -0.0576 -0.7343
  783MOL0     C 5584   6.211   0.132  10.863  0.7276 -0.3368 -0.6334
  783MOL0     C 5585   6.056   0.148  10.835  0.0783  0.6560  0.3453
  783MOL0     C 5586   6.010   0.290  10.864  0.4012 -0.7228  0.1042
  783MOL0     N 5587   5.867   0.322  10.851  0.4751 -0.1890  0.4645
  783MOL0     C 5588   5.785   0.275  10.750 -0.8149 -0.2536  0.9921
  783MOL0     C 5589   5.659   0.311  10.791 -0.6934  0.1837 -0.4692
  783MOL0     C 5590   5.531   0.295  10.710  0.5359 -0.9220  0.1471
  783MOL0     C 5591   5.449   0.424  10.714  0.4751 -0.4666  0.1161
  783MOL0     C 5592   5.349   0.445  10.606 -0.1467 -0.1488  0.6941
  783MOL0     C 5593   5.220   0.381  10.649 -0.6213 -0.1730  0.0715
  783MOL0     O 5594   5.116   0.403  10.553  0.4145  0.0980 -0.5719
  783MOL0     C 5595   4.987   0.421  10.593 -0.0492  0.8349 -0.4525
  783MOL0     C 5596   4.893   0.475  10.502  0.2109  0.2895 -0.0474
  783MOL0     C 5597   4.763   0.488  10.530  0.7083  0.5839 -0.3066
  783MOL0     C 5598   4.675   0.572  10.434 -0.2100 -0.0257 -0.2001
  783MOL0     C 5599   4.707   0.427  10.642  0.4153 -0.6240 -0.6674
  783MOL0     C 5600   4.565   0.406  10.669  0.9650  0.5395  0.2057
  783MOL0     O 5601   4.480   0.384  10.567 -0.2899 -0.3436  1.0077
  783MOL0     C 5602   4.349   0.341  10.570  0.0626  0.1391 -0.4799
  783MOL0     C 5603   4.270   0.292  10.676 -0.1769 -0.6918 -0.9329
  783MOL0     C 5604   4.133   0.273  10.667  0.7718  0.6311 -0.0498
  783MOL0     C 5605   4.057   0.283  10.545  0.0847 -0.0069  0.5451
  783MOL0     O 5606   3.920   0.249  10.534  0.5127 -0.4351 -0.6269
  783MOL0     C 5607   3.870   0.195  10.409 -0.0554  0.2543 -0.2569
  783MOL0     C 5608   3.728   0.146  10.439  0.1479 -0.5903 -0.4289
  783MOL0     C 5609   3.622   0.255  10.457 -0.1287 -0.1875  0.1971
  783MOL0     C 5610   3.483   0.188  10.452 -0.9327  0.5987 -0.0557
  783MOL0     C 5611   3.386   0.299  10.483 -0.3539  1.3776 -0.0991
  783MOL0     C 5612   3.253   0.242  10.441 -0.2613  0.9744 -0.3652
  783MOL0     C 5613   3.152   0.354  10.453  0.7900  0.0252 -0.3953
  783MOL0     C 5614   3.019   0.322  10.395  0.4943  0.5394 -0.1496
  783MOL0    Cl 5615   2.990   0.144  10.389 -0.0111 -0.0216  0.3034
  783MOL0     C 5616   4.135   0.325  10.437  0.3019 -0.5895 -0.3980
  783MOL0     C 5617   4.273   0.359  10.452  0.1887  0.1578 -0.2114
  783MOL0     O 5618   4.527   0.409  10.786  0.9643  0.3234  0.6012
  783MOL0     C 5619   4.804   0.381  10.731  0.2550 -0.3749 -0.1391
  783MOL0     C 5620   4.936   0.377  10.713 -0.1401 -0.6556 -0.0234
  783MOL0     N 5621   5.663   0.364  10.919 -0.4215 -0.3599  0.6615
  783MOL0     N 5622   5.793   0.367  10.960  1.2874  0.5042  0.6489
  783MOL0     C 5623   6.961   0.013  11.003  1.3134 -0.4264  0.4213
  783MOL0     C 5624   7.082   0.060  11.044 -0.8951 -0.2630 -0.0662
  783MOL0     C 5625   7.505   0.203  11.080 -0.5736 -0.2541 -0.1222
  783MOL0     C 5626   7.557   0.338  11.094  0.0218 -0.5229 -0.4770
  783MOL0     C 5627   7.692   0.351  11.134  1.0855 -0.0333  0.0816
  783MOL0     C 5628   7.785   0.245  11.149  0.7643  0.9024  0.0530
  783MOL0     O 5629   7.918   0.263  11.168  0.3496 -0.0429  0.6526
  783MOL0     C 5630   8.004   0.146  11.185  0.1458  0.1357  0.4780
  783MOL0     C 5631   8.142   0.213  11.192  1.5254 -0.1359  0.4519
  783MOL0     C 5632   8.149   0.288  11.324  0.2260 -0.7069  0.7169
  783MOL0     C 5633   8.287   0.327  11.333 -1.0706  0.5824  0.1225
  783MOL0     C 5634   8.327   0.383  11.460  0.3047 -0.5499  0.1585
  783MOL0     C 5635   8.349   0.426  11.568  0.4627 -0.2866  0.4420
  783MOL0     C 5636   7.718   0.119  11.151 -0.4113  0.4949  0.0954
  783MOL0     C 5637   7.587   0.097  11.123 -0.0570 -0.2196  0.2724
  783MOL0     H 5638   7.285  -0.127  10.838 -0.5096  1.5568 -0.0516
  783MOL0     H 5639   7.060  -0.225  10.776 -0.4525  0.3147 -1.5429
  783MOL0     H 5640   6.675  -0.070  10.994 -3.3167  2.8742 -0.5642
  783MOL0     H 5641   6.696   0.014  10.848 -1.4184 -0.7031 -0.3274
  783MOL0     H 5642   6.587  -0.158  10.718  0.5784 -0.6994 -0.2609
  783MOL0     H 5643   6.617  -0.279  10.846  3.1730  0.5268 -0.0007
  783MOL0     H 5644   6.377  -0.210  10.812 -1.4665 -0.4612  2.4386
  783MOL0     H 5645   6.447  -0.207  10.974  0.2038  1.6802  1.0336
  783MOL0     H 5646   6.441   0.040  10.952  1.1176  0.2188 -0.6711
  783MOL0     H 5647   6.410   0.029  10.780 -2.1747 -1.0542 -0.1593
  783MOL0     H 5648   6.197  -0.081  10.807  0.6637 -0.1808 -0.6233
  783MOL0     H 5649   6.209  -0.055  10.975 -0.6269 -0.8815 -1.5273
  783MOL0     H 5650   6.223   0.179  10.962 -1.0866  1.2465 -1.1169
  783MOL0     H 5651   6.269   0.183  10.786  0.2556 -2.9864 -2.9026
  783MOL0     H 5652   6.036   0.108  10.735 -1.7477 -0.1413  0.9913
  783MOL0     H 5653   6.010   0.072  10.900  0.3984  1.6905  1.8358
  783MOL0     H 5654   6.056   0.363  10.797  0.5188 -0.4723  0.4539
  783MOL0     H 5655   6.037   0.328  10.963  0.0418 -0.3897  0.0756
  783MOL0     H 5656   5.813   0.232  10.654  1.2733 -2.2393  2.3891
  783MOL0     H 5657   5.558   0.263  10.609 -1.3690 -2.2913  0.0245
  783MOL0     H 5658   5.471   0.213  10.751  0.1336  0.1198  1.7268
  783MOL0     H 5659   5.520   0.508  10.707  2.6219 -2.3268 -2.4644
  783MOL0     H 5660   5.397   0.428  10.810  1.2950  1.9683  0.5437
  783MOL0     H 5661   5.383   0.402  10.512 -0.5919 -0.8100  0.8276
  783MOL0     H 5662   5.328   0.550  10.581  1.2778 -1.0280 -6.0357
  783MOL0     H 5663   5.192   0.416  10.749  2.5344  0.6686  0.7798
  783MOL0     H 5664   5.233   0.273  10.654  2.8365  0.1548  0.8538
  783MOL0     H 5665   4.931   0.500  10.404  2.3079 -0.9744  0.3717
  783MOL0     H 5666   4.736   0.601  10.348  1.6657  0.8797  1.3456
  783MOL0     H 5667   4.578   0.532  10.407 -1.0571  0.4880  1.8671
  783MOL0     H 5668   4.649   0.664  10.488  0.9012 -0.0434  0.4069
  783MOL0     H 5669   4.308   0.277  10.777 -1.4753 -1.4068 -0.5308
  783MOL0     H 5670   4.076   0.252  10.757  0.3675  2.3272  0.1069
  783MOL0     H 5671   3.857   0.270  10.331  1.4124 -0.4110 -1.1952
  783MOL0     H 5672   3.931   0.118  10.360 -0.6306  0.5230 -1.4286
  783MOL0     H 5673   3.700   0.078  10.357 -1.5639 -0.6303  0.1431
  783MOL0     H 5674   3.725   0.079  10.525  2.4543 -0.5446 -0.2500
  783MOL0     H 5675   3.633   0.327  10.376  3.7945 -0.8533 -0.0146
  783MOL0     H 5676   3.626   0.312  10.550  0.5445  0.1625 -0.0441
  783MOL0     H 5677   3.470   0.161  10.347  0.0462  2.0321 -0.5685
  783MOL0     H 5678   3.464   0.103  10.519 -0.7000  0.9040  0.4024
  783MOL0     H 5679   3.424   0.378  10.418  2.5672 -0.2707 -0.5556
  783MOL0     H 5680   3.387   0.320  10.591  0.2785  0.3775  0.1084
  783MOL0     H 5681   3.260   0.202  10.340 -2.4995 -1.9787  0.5223
  783MOL0     H 5682   3.226   0.161  10.509  1.7787  1.7958  1.5737
  783MOL0     H 5683   3.198   0.443  10.409 -0.3793  2.2085  2.4637
  783MOL0     H 5684   3.132   0.376  10.559  1.4487 -0.0331 -0.2525
  783MOL0     H 5685   3.011   0.366  10.295 -1.5595  0.6475  0.0197
  783MOL0     H 5686   2.938   0.363  10.455 -1.3994 -2.1824 -0.6618
  783MOL0     H 5687   4.095   0.330  10.336  0.2518  0.0934 -0.3534
  783MOL0     H 5688   4.327   0.392  10.363 -2.1573 -1.1756 -2.2718
  783MOL0     H 5689   4.766   0.332  10.820  1.6939  0.4026  0.9446
  783MOL0     H 5690   4.999   0.332  10.789  2.6122 -0.7843 -2.2191
  783MOL0     H 5691   6.866   0.055  11.035 -0.6033 -1.7236 -3.0602
  783MOL0     H 5692   7.091   0.143  11.112 -1.5324  0.9888 -1.4500
  783MOL0     H 5693   7.490   0.423  11.082  0.4076 -0.4899 -2.7959
  783MOL0     H 5694   7.743   0.447  11.135  4.5081 -1.6520 -1.4641
  783MOL0     H 5695   7.980   0.092  11.278 -0.8071 -1.4305 -0.6301
  783MOL0     H 5696   7.996   0.082  11.097 -2.8317  3.4868 -1.9401
  783MOL0     H 5697   8.159   0.267  11.098 -2.0903 -2.0609 -1.5014
  783MOL0     H 5698   8.220   0.136  11.194  2.2935  0.5629 -1.1429
  783MOL0     H 5699   8.117   0.212  11.396 -2.8151 -0.7314 -0.5474
  783MOL0     H 5700   8.077   0.370  11.329  1.1215  0.2997 -1.4790
  783MOL0     H 5701   8.326   0.391  11.254 -2.5470  2.0050  0.4882
  783MOL0     H 5702   8.354   0.241  11.323 -0.7610  1.0160 -1.8422
  783MOL0     H 5703   8.374   0.463  11.665 -3.2855 -0.3362  1.6016
  783MOL0     H 5704   7.771   0.026  11.167 -0.0958 -0.2402 -4.0526
  783MOL0     H 5705   7.552  -0.006  11.122  0.1091 -0.2936  1.1896
  784MOL0     O 5706   0.931   8.878   0.974  0.2249  0.1270 -0.1453
  784MOL0     C 5707   1.037   8.913   1.030 -0.0753  0.0224 -0.4870
  784MOL0     O 5708   1.056   8.933   1.172  0.0196  0.4052  0.1905
  784MOL0     C 5709   0.953   8.899   1.258 -0.5133  0.0261  0.3247
  784MOL0     C 5710   0.877   9.002   1.312  0.4055 -0.4783 -0.4054
  784MOL0     C 5711   0.780   8.970   1.411 -0.5415  0.2564  0.1056
  784MOL0     C 5712   0.753   8.840   1.451 -0.0548 -0.6754  0.8793
  784MOL0     O 5713   0.647   8.826   1.537 -0.3496  0.1663 -0.3315
  784MOL0     C 5714   0.588   8.696   1.533 -0.1675  0.0928  0.4581
  784MOL0     C 5715   0.480   8.696   1.644  0.3206 -0.3856 -0.0120
  784MOL0     C 5716   0.347   8.759   1.601  0.1577 -0.1008  0.3473
  784MOL0     C 5717   0.250   8.788   1.715 -0.5905  0.6016  0.4702
  784MOL0     C 5718   0.119   8.845   1.661  0.1366 -0.3514 -0.2133
  784MOL0     C 5719   0.005   8.827   1.767 -0.2283  0.1076 -0.5611
  784MOL0     C 5720  -0.135   8.870   1.716  0.1597  0.0255 -0.0493
  784MOL0     C 5721  -0.212   8.755   1.649  0.9242  0.2140  0.3519
  784MOL0     N 5722  -0.358   8.785   1.655  1.0041 -0.1111 -0.7883
  784MOL0     C 5723  -0.439   8.792   1.772 -1.0609  0.5593  0.6400
  784MOL0     C 5724  -0.560   8.820   1.720 -0.1968  0.5990 -0.3568
  784MOL0     C 5725  -0.677   8.853   1.810  0.6420 -0.0635 -0.3002
  784MOL0     C 5726  -0.814   8.886   1.746  0.5276 -0.6824 -0.6135
  784MOL0     C 5727  -0.877   8.754   1.682 -0.9610 -0.1730  0.6000
  784MOL0     C 5728  -0.933   8.658   1.785  0.4380 -0.2677  0.0226
  784MOL0     O 5729  -1.054   8.576   1.753  0.1107 -0.2433  0.2276
  784MOL0     C 5730  -1.188   8.617   1.765  0.1159 -0.8187 -1.2500
  784MOL0     C 5731  -1.241   8.732   1.818  0.0719  0.5270 -0.3144
  784MOL0     C 5732  -1.379   8.767   1.819 -0.6640  0.1128 -0.5203
  784MOL0     C 5733  -1.409   8.895   1.891  0.0590 -0.5347 -0.7299
  784MOL0     C 5734  -1.478   8.679   1.765  0.8385  0.7127 -0.7528
  784MOL0     C 5735  -1.627   8.693   1.759  0.1794 -0.9627 -0.2961
  784MOL0     O 5736  -1.692   8.611   1.683 -0.9551  0.2915 -0.6624
  784MOL0     C 5737  -1.817   8.617   1.651  0.4624 -0.4243 -0.1314
  784MOL0     C 5738  -1.842   8.669   1.521  0.0746  0.7154 -1.0794
  784MOL0     C 5739  -1.979   8.695   1.480 -0.4686  0.0408 -0.2362
  784MOL0     C 5740  -2.081   8.671   1.575  0.2753  1.0569  0.5442
  784MOL0     O 5741  -2.209   8.685   1.522  0.3405 -0.2916  0.3787
  784MOL0     C 5742  -2.325   8.708   1.611 -0.0253  0.3669 -0.3391
  784MOL0     C 5743  -2.445   8.739   1.516  0.2250 -0.0119 -0.8050
  784MOL0     C 5744  -2.435   8.879   1.460 -0.7758  0.4018  0.4971
  784MOL0     C 5745  -2.574   8.924   1.423 -0.5663 -0.3199  1.1444
  784MOL0     C 5746  -2.571   9.069   1.372 -0.0133 -0.6507  0.1924
  784MOL0     C 5747  -2.510   9.085   1.240 -0.3174  0.6448  0.1758
  784MOL0     C 5748  -2.569   9.006   1.128 -0.3132  0.3084  0.0460
  784MOL0     C 5749  -2.717   9.034   1.115 -0.3142  0.5774  0.2308
  784MOL0    Cl 5750  -2.766   8.915   0.989  0.4244  0.1799 -0.2086
  784MOL0     C 5751  -2.053   8.633   1.707  0.4095  0.4107  0.3102
  784MOL0     C 5752  -1.922   8.600   1.741  0.0926  0.2339  0.4318
  784MOL0     O 5753  -1.685   8.777   1.832  0.5405  0.4083 -0.3999
  784MOL0     C 5754  -1.421   8.563   1.713  0.4166 -0.3347  0.1342
  784MOL0     C 5755  -1.284   8.529   1.712  0.3864  0.4925  0.9116
  784MOL0     N 5756  -0.559   8.829   1.586 -0.2368 -0.0958  0.5100
  784MOL0     N 5757  -0.435   8.811   1.548 -0.2611  0.1165  0.0869
  784MOL0     C 5758   0.817   8.735   1.379  0.0327 -1.3300 -0.3061
  784MOL0     C 5759   0.924   8.767   1.296 -1.5754  0.2373 -0.3192
  784MOL0     C 5760   1.147   8.961   0.951 -0.2696  0.2909  0.6270
  784MOL0     C 5761   1.274   8.983   1.007  0.1779  1.0686  0.0135
  784MOL0     C 5762   1.383   9.015   0.932 -0.6521  0.8588  0.9469
  784MOL0     C 5763   1.381   9.018   0.793  0.0552 -0.3480  0.1337
  784MOL0     O 5764   1.494   9.038   0.715  0.1228 -0.2065  0.0513
  784MOL0     C 5765   1.625   8.993   0.763 -0.1224 -0.0608  0.3471
  784MOL0     C 5766   1.709   9.006   0.641  0.2207 -1.0148 -0.1250
  784MOL0     C 5767   1.840   8.936   0.653  0.0252 -0.4309  0.3603
  784MOL0     C 5768   1.909   8.911   0.520  0.6247 -0.2817  0.3424
  784MOL0     C 5769   1.964   9.035   0.458  0.3174  0.1410 -0.7553
  784MOL0     C 5770   1.984   9.128   0.384 -0.1782 -0.2588  0.1099
  784MOL0     C 5771   1.250   9.005   0.731 -0.0391  0.0748 -0.3342
  784MOL0     C 5772   1.140   8.983   0.815 -0.0725  0.2686 -0.0589
  784MOL0     H 5773   0.891   9.100   1.267 -1.0664 -0.8201 -1.7119
  784MOL0     H 5774   0.731   9.050   1.466 -0.4477  0.3951 -0.0106
  784MOL0     H 5775   0.551   8.655   1.439 -0.7801  0.6791  0.4390
  784MOL0     H 5776   0.664   8.624   1.566 -0.2448  0.4443  1.4496
  784MOL0     H 5777   0.456   8.597   1.685 -1.2719  1.1905  3.2133
  784MOL0     H 5778   0.518   8.760   1.724 -0.7259  0.2535  0.0004
  784MOL0     H 5779   0.367   8.850   1.544 -0.2670  1.1009  2.0375
  784MOL0     H 5780   0.304   8.679   1.540 -0.2337 -0.0366  0.5366
  784MOL0     H 5781   0.236   8.708   1.789 -1.4755  3.3510  3.4684
  784MOL0     H 5782   0.290   8.861   1.785 -2.3341  0.6234  1.4980
  784MOL0     H 5783   0.130   8.949   1.629 -0.4570  0.1522  1.1406
  784MOL0     H 5784   0.095   8.801   1.564  2.3745 -0.5909 -0.7260
  784MOL0     H 5785   0.020   8.723   1.797  1.1923  0.3790 -0.2231
  784MOL0     H 5786   0.042   8.890   1.849  2.2130 -0.3382 -1.2175
  784MOL0     H 5787  -0.194   8.903   1.802  0.9337  1.4500 -0.0400
  784MOL0     H 5788  -0.127   8.956   1.650 -1.6975  0.2035 -0.1039
  784MOL0     H 5789  -0.193   8.656   1.692 -0.3880 -1.2744 -2.2288
  784MOL0     H 5790  -0.179   8.748   1.545 -2.5205 -0.0195 -0.8421
  784MOL0     H 5791  -0.411   8.794   1.877 -1.9073 -1.0440  0.9316
  784MOL0     H 5792  -0.690   8.762   1.870  1.9807  0.1417  0.3405
  784MOL0     H 5793  -0.643   8.930   1.880  0.4404 -0.0474 -0.2202
  784MOL0     H 5794  -0.790   8.958   1.667  1.3178  1.9283  1.8261
  784MOL0     H 5795  -0.873   8.940   1.820  2.8246  0.1187  0.7331
  784MOL0     H 5796  -0.795   8.711   1.623 -0.1723  3.4457 -1.2084
  784MOL0     H 5797  -0.951   8.780   1.607  0.8562 -2.1151 -2.0366
  784MOL0     H 5798  -0.941   8.710   1.881  1.6156  2.3238 -1.1830
  784MOL0     H 5799  -0.847   8.591   1.796 -1.2598 -2.4438  0.9869
  784MOL0     H 5800  -1.172   8.806   1.857 -0.6800  0.3688  1.4047
  784MOL0     H 5801  -1.482   8.954   1.835 -1.1071 -0.1753  1.0680
  784MOL0     H 5802  -1.460   8.857   1.980 -1.2002 -2.7662 -2.3114
  784MOL0     H 5803  -1.317   8.951   1.909 -0.7361  0.7050 -0.4281
  784MOL0     H 5804  -1.754   8.680   1.458  0.1267 -1.4375 -1.4518
  784MOL0     H 5805  -2.009   8.732   1.382  0.7895  0.0882 -0.6246
  784MOL0     H 5806  -2.343   8.617   1.669  2.8703  0.0976  0.2746
  784MOL0     H 5807  -2.304   8.800   1.667  0.1194  2.3358 -3.3751
  784MOL0     H 5808  -2.440   8.663   1.438  0.7615 -1.4295  0.5538
  784MOL0     H 5809  -2.540   8.715   1.564  0.6934 -3.0173 -1.1709
  784MOL0     H 5810  -2.367   8.882   1.374 -2.0282  0.0728 -0.5418
  784MOL0     H 5811  -2.398   8.953   1.532  0.7234 -0.0824  0.2744
  784MOL0     H 5812  -2.620   8.850   1.357  1.9392 -0.9167 -0.0313
  784MOL0     H 5813  -2.643   8.927   1.508 -0.7302  3.1151  1.0640
  784MOL0     H 5814  -2.521   9.135   1.443 -0.3049 -0.2572  0.0316
  784MOL0     H 5815  -2.675   9.105   1.373 -0.3636 -1.6182 -0.1091
  784MOL0     H 5816  -2.525   9.189   1.211  1.0584 -0.0214 -3.5803
  784MOL0     H 5817  -2.402   9.065   1.248 -0.9748 -4.6937 -0.3088
  784MOL0     H 5818  -2.543   8.901   1.145 -0.5999  0.3263  0.6060
  784MOL0     H 5819  -2.520   9.025   1.032 -0.0843  0.0123  0.1035
  784MOL0     H 5820  -2.740   9.136   1.085 -2.1672  0.1225 -0.0158
  784MOL0     H 5821  -2.772   9.007   1.206 -1.7492  2.0831 -0.1479
  784MOL0     H 5822  -2.135   8.608   1.775 -0.1992  2.8006  0.5373
  784MOL0     H 5823  -1.895   8.562   1.839  4.0632  2.4718  0.4167
  784MOL0     H 5824  -1.477   8.479   1.675 -2.1876  0.9790  0.8474
  784MOL0     H 5825  -1.249   8.437   1.666 -0.6763  0.9226 -0.8243
  784MOL0     H 5826   0.785   8.633   1.396  0.6713 -1.1140  2.8236
  784MOL0     H 5827   0.978   8.685   1.250  0.7297  0.4766  1.7190
  784MOL0     H 5828   1.286   8.961   1.113  3.5652  0.7391 -0.3419
  784MOL0     H 5829   1.472   9.038   0.989 -1.1924  1.8160  1.4313
  784MOL0     H 5830   1.676   9.056   0.836  0.4119 -1.1334  0.9317
  784MOL0     H 5831   1.617   8.895   0.811 -1.5553  0.7060  1.7842
  784MOL0     H 5832   1.725   9.111   0.616 -0.4695  0.4270  4.5042
  784MOL0     H 5833   1.656   8.959   0.557  1.6257 -1.8231 -0.5914
  784MOL0     H 5834   1.833   8.838   0.701 -0.3234 -0.2098  0.7713
  784MOL0     H 5835   1.907   8.996   0.716  1.4349 -1.3159 -0.2503
  784MOL0     H 5836   1.838   8.881   0.443  0.4662  2.9075 -0.8808
  784MOL0     H 5837   1.986   8.834   0.535  0.3747 -0.3806  1.1759
  784MOL0     H 5838   2.010   9.200   0.309  0.1645 -0.6279 -0.1279
  784MOL0     H 5839   1.235   9.040   0.630  1.1118 -0.2957 -0.6452
  784MOL0     H 5840   1.040   8.976   0.773  1.0786 -2.9416 -2.7025
  785MOL0     O 5841   7.323  10.117   1.112  0.0962 -0.0493 -0.4396
  785MOL0     C 5842   7.315  10.202   1.198 -0.5297 -0.3913  0.5141
  785MOL0     O 5843   7.198  10.255   1.251  0.7614 -0.5151 -0.3822
  785MOL0     C 5844   7.078  10.209   1.203 -0.8689 -0.0239  0.7949
  785MOL0     C 5845   7.037  10.078   1.227 -0.0746 -0.3431 -0.5312
  785MOL0     C 5846   6.907  10.042   1.193 -1.3418 -0.8580  0.6841
  785MOL0     C 5847   6.833  10.126   1.102 -0.0290  0.1765 -0.4849
  785MOL0     O 5848   6.720  10.076   1.046 -0.0849  0.4500  0.2092
  785MOL0     C 5849   6.608  10.160   1.015 -0.0504 -1.0961  0.4495
  785MOL0     C 5850   6.493  10.077   0.967  0.1949  1.2670  0.0356
  785MOL0     C 5851   6.396  10.183   0.919  0.1873 -0.0751  0.3761
  785MOL0     C 5852   6.269  10.118   0.879  0.4189 -0.7755 -0.7733
  785MOL0     C 5853   6.166  10.224   0.835  0.1620  0.6594 -0.2913
  785MOL0     C 5854   6.031  10.161   0.822  0.9206  0.3820  0.1399
  785MOL0     C 5855   5.925  10.276   0.794  0.6789 -0.3830  0.6006
  785MOL0     C 5856   5.782  10.231   0.755 -0.3130  0.2849  0.3998
  785MOL0     N 5857   5.702  10.353   0.713  0.2111  0.7715  0.7854
  785MOL0     C 5858   5.627  10.433   0.797  0.2644  0.0436  0.6525
  785MOL0     C 5859   5.561  10.510   0.711  0.4281  0.9894  0.4240
  785MOL0     C 5860   5.482  10.621   0.743  0.1783 -0.5125 -0.0867
  785MOL0     C 5861   5.335  10.593   0.701 -0.4499  1.0772  0.1795
  785MOL0     C 5862   5.242  10.683   0.778  0.2577 -1.0979  0.5450
  785MOL0     C 5863   5.093  10.669   0.733  0.2795 -0.2902  0.5117
  785MOL0     O 5864   5.012  10.780   0.759 -0.8245 -0.1279  0.1097
  785MOL0     C 5865   4.875  10.758   0.774 -0.4516  0.9577  0.1202
  785MOL0     C 5866   4.810  10.639   0.736  1.0348  0.2283  0.0524
  785MOL0     C 5867   4.665  10.634   0.744  0.7385 -0.4859  1.5921
  785MOL0     C 5868   4.613  10.497   0.695  0.9571 -0.3054 -0.0407
  785MOL0     C 5869   4.589  10.746   0.793 -0.8832  0.5010  0.4450
  785MOL0     C 5870   4.441  10.743   0.804 -0.2498  0.0698 -0.1622
  785MOL0     O 5871   4.390  10.862   0.852  0.5078  0.1781 -0.0151
  785MOL0     C 5872   4.260  10.891   0.874 -0.1096 -0.1435 -0.3653
  785MOL0     C 5873   4.226  11.019   0.867 -0.5143 -0.7683 -0.6349
  785MOL0     C 5874   4.099  11.061   0.897  0.4975  1.1530 -0.0839
  785MOL0     C 5875   3.994  10.968   0.906  0.2348 -0.2611  0.3259
  785MOL0     O 5876   3.866  11.003   0.929  0.1553 -0.1602  0.4793
  785MOL0     C 5877   3.838  11.123   1.002 -0.2379  0.8475 -0.3078
  785MOL0     C 5878   3.756  11.085   1.116 -0.1069 -0.5211  0.0948
  785MOL0     C 5879   3.703  11.217   1.174 -0.3971  0.5668  0.5964
  785MOL0     C 5880   3.553  11.228   1.197  0.4849 -0.5269  0.2923
  785MOL0     C 5881   3.514  11.369   1.253 -0.0125  0.4889  0.0266
  785MOL0     C 5882   3.361  11.385   1.265 -0.0211 -0.1800  0.5648
  785MOL0     C 5883   3.296  11.395   1.128 -0.7006 -0.3326  0.2637
  785MOL0     C 5884   3.157  11.447   1.149 -0.1313 -0.5329 -0.5613
  785MOL0    Cl 5885   3.154  11.601   1.247 -0.1210 -0.0104 -0.2630
  785MOL0     C 5886   4.028  10.837   0.906  1.2966  0.3593 -0.3106
  785MOL0     C 5887   4.162  10.801   0.896 -0.0678 -0.4366 -0.0868
  785MOL0     O 5888   4.373  10.647   0.771 -0.2844  0.4080  0.8565
  785MOL0     C 5889   4.663  10.858   0.837  0.5404  0.3934  0.2301
  785MOL0     C 5890   4.801  10.863   0.817 -0.4730 -0.2762  0.3600
  785MOL0     N 5891   5.583  10.475   0.581 -0.0093 -0.7203 -0.0480
  785MOL0     N 5892   5.669  10.390   0.581 -0.2184  0.6145  0.1654
  785MOL0     C 5893   6.883  10.256   1.075 -0.9157 -0.2295  0.3759
  785MOL0     C 5894   6.997  10.306   1.145 -0.1024  0.6259  0.1425
  785MOL0     C 5895   7.445  10.256   1.256  0.2088  0.5804  0.1171
  785MOL0     C 5896   7.451  10.354   1.352 -0.4557 -0.2915  0.2682
  785MOL0     C 5897   7.570  10.394   1.414 -1.1991 -0.2085 -0.8625
  785MOL0     C 5898   7.690  10.351   1.366 -0.7224  0.8865 -0.9326
  785MOL0     O 5899   7.813  10.396   1.404  0.6776  0.0653 -0.4555
  785MOL0     C 5900   7.832  10.508   1.485 -1.0517  0.2901 -0.0533
  785MOL0     C 5901   7.842  10.461   1.636  0.5749  0.3925  0.2974
  785MOL0     C 5902   7.829  10.600   1.708  0.9074 -0.1738  0.3281
  785MOL0     C 5903   7.962  10.655   1.750 -0.1308  0.1327  0.1688
  785MOL0     C 5904   7.953  10.798   1.772  0.5721  0.9162 -0.3667
  785MOL0     C 5905   7.973  10.915   1.781 -0.8048 -0.1151 -1.3198
  785MOL0     C 5906   7.692  10.253   1.274  0.2618  0.3862  0.0362
  785MOL0     C 5907   7.572  10.204   1.215  0.6782  0.6360 -0.6515
  785MOL0     H 5908   7.102  10.015   1.287  0.4781  0.5992 -0.1196
  785MOL0     H 5909   6.867   9.945   1.221  1.1824 -2.3846 -0.6743
  785MOL0     H 5910   6.576  10.210   1.107  0.8732  1.2852 -0.4606
  785MOL0     H 5911   6.640  10.244   0.953  0.2875 -0.2002  1.7751
  785MOL0     H 5912   6.532  10.013   0.888 -1.6538 -0.2173  0.2551
  785MOL0     H 5913   6.447  10.025   1.052  1.1143  0.5777  0.1267
  785MOL0     H 5914   6.385  10.266   0.989  0.5798  1.7548 -1.6252
  785MOL0     H 5915   6.439  10.227   0.829  1.3965 -0.6954  0.6306
  785MOL0     H 5916   6.285  10.052   0.794  0.6074  0.4355 -1.7152
  785MOL0     H 5917   6.231  10.066   0.967  2.9416  1.8709  2.1613
  785MOL0     H 5918   6.153  10.294   0.918 -1.4629 -0.0044  0.0551
  785MOL0     H 5919   6.198  10.276   0.745  0.2754  0.3373 -0.4401
  785MOL0     H 5920   6.040  10.093   0.738  2.0659  0.0880  0.4873
  785MOL0     H 5921   5.999  10.107   0.911  2.6394 -0.5388  0.2472
  785MOL0     H 5922   5.918  10.343   0.880 -1.2315  1.8251 -1.1496
  785MOL0     H 5923   5.971  10.336   0.715 -0.5959  0.7824  0.7166
  785MOL0     H 5924   5.732  10.198   0.847 -0.0516  1.1788  0.8652
  785MOL0     H 5925   5.792  10.157   0.674 -0.5971  2.1679 -1.4359
  785MOL0     H 5926   5.617  10.417   0.904  1.4371 -4.3983  0.3011
  785MOL0     H 5927   5.481  10.630   0.852  2.8202 -4.9611  0.5436
  785MOL0     H 5928   5.516  10.709   0.687  1.0477  0.2043  1.5199
  785MOL0     H 5929   5.320  10.487   0.720  1.4554  1.1827  3.0886
  785MOL0     H 5930   5.315  10.606   0.595 -1.2930  0.6433  0.2767
  785MOL0     H 5931   5.284  10.781   0.754 -1.4438 -0.6502 -0.8135
  785MOL0     H 5932   5.248  10.676   0.887  2.3699 -1.0477  0.4779
  785MOL0     H 5933   5.062  10.574   0.777  0.3328 -1.2523 -1.4153
  785MOL0     H 5934   5.080  10.648   0.627 -0.5454 -3.1067  1.1004
  785MOL0     H 5935   4.861  10.547   0.708 -0.1695 -0.5074  0.1784
  785MOL0     H 5936   4.559  10.508   0.601 -0.2984  1.8958  0.8475
  785MOL0     H 5937   4.681  10.412   0.691 -2.2924 -3.0924 -0.6667
  785MOL0     H 5938   4.543  10.463   0.773  0.2538 -0.1771 -0.6042
  785MOL0     H 5939   4.292  11.104   0.850 -0.6978 -0.9136 -2.2562
  785MOL0     H 5940   4.087  11.169   0.887  2.4160  1.1715 -3.9948
  785MOL0     H 5941   3.923  11.176   1.047 -2.6427  1.6462  3.7496
  785MOL0     H 5942   3.785  11.194   0.938  1.6761  2.1075 -0.5820
  785MOL0     H 5943   3.675  11.026   1.072 -0.4536 -3.5299  4.1850
  785MOL0     H 5944   3.804  11.026   1.195 -0.2494 -0.0792  0.5194
  785MOL0     H 5945   3.719  11.301   1.106 -0.6163 -0.2644 -0.5145
  785MOL0     H 5946   3.748  11.241   1.270  0.3488 -1.7162  0.8785
  785MOL0     H 5947   3.493  11.220   1.106  0.4441  1.2333  0.1335
  785MOL0     H 5948   3.520  11.154   1.270  2.2156  0.2335  1.9241
  785MOL0     H 5949   3.531  11.451   1.182  0.2403  1.1992  0.8890
  785MOL0     H 5950   3.565  11.385   1.349 -0.5492 -3.1923  1.0823
  785MOL0     H 5951   3.320  11.300   1.319 -1.6867  0.2246  0.0063
  785MOL0     H 5952   3.345  11.474   1.327  1.6946 -1.3911  2.9040
  785MOL0     H 5953   3.297  11.295   1.083  0.2660 -0.4580  0.5240
  785MOL0     H 5954   3.344  11.468   1.062 -3.1749 -0.4050 -1.7532
  785MOL0     H 5955   3.099  11.372   1.203  0.7419 -0.8266  0.0018
  785MOL0     H 5956   3.110  11.464   1.052 -0.2821 -0.0033 -0.3972
  785MOL0     H 5957   3.946  10.767   0.907  0.6382  1.1187  0.4164
  785MOL0     H 5958   4.180  10.694   0.906  0.6553 -0.4242 -1.1621
  785MOL0     H 5959   4.623  10.944   0.890  3.0032  1.1447  1.0323
  785MOL0     H 5960   4.847  10.959   0.841 -3.9257  2.3611 -2.4717
  785MOL0     H 5961   6.827  10.324   1.010 -2.5114 -1.0825  0.8018
  785MOL0     H 5962   7.036  10.406   1.135  1.5170  0.0209  0.1043
  785MOL0     H 5963   7.361  10.400   1.394  2.0808  2.0037  3.7174
  785MOL0     H 5964   7.570  10.471   1.490  2.2325 -1.5802  0.7437
  785MOL0     H 5965   7.930  10.548   1.456  1.0624 -1.2316  4.1760
  785MOL0     H 5966   7.757  10.587   1.469 -0.7909  0.3285 -1.1512
  785MOL0     H 5967   7.938  10.411   1.653  1.1757  1.7718  1.1772
  785MOL0     H 5968   7.763  10.389   1.661 -0.2860  1.3377  0.3728
  785MOL0     H 5969   7.769  10.594   1.799  1.0828 -0.0677  0.4524
  785MOL0     H 5970   7.778  10.671   1.643 -0.6514 -1.3568  0.2058
  785MOL0     H 5971   8.040  10.629   1.679 -1.1925 -0.3041 -0.8827
  785MOL0     H 5972   7.994  10.609   1.844 -1.2014  0.6148  0.7989
  785MOL0     H 5973   8.001  11.017   1.798 -1.2649 -0.2075  0.1993
  785MOL0     H 5974   7.780  10.210   1.228 -0.8092  0.3151 -2.0660
  785MOL0     H 5975   7.579  10.122   1.145 -2.6714  0.8490 -1.4063
  786MOL0     O 5976   2.344   6.396   1.885 -0.0812  0.3151  0.2713
  786MOL0     C 5977   2.414   6.290   1.885 -0.5374  0.4395 -0.6038
  786MOL0     O 5978   2.372   6.162   1.885 -0.0941 -0.2085 -0.4302
  786MOL0     C 5979   2.248   6.127   1.940  0.3825 -0.1049  0.2129
  786MOL0     C 5980   2.175   6.009   1.905  0.5391 -1.0941  0.1359
  786MOL0     C 5981   2.054   5.973   1.964 -0.2177 -0.4968  0.7557
  786MOL0     C 5982   1.995   6.059   2.060  0.1504  0.0717 -0.5188
  786MOL0     O 5983   1.872   6.028   2.113 -0.5394 -0.4917 -0.3607
  786MOL0     C 5984   1.777   5.954   2.034 -0.1504 -0.2505  0.3750
  786MOL0     C 5985   1.628   5.978   2.060  0.0184 -0.1262  0.0553
  786MOL0     C 5986   1.584   6.106   1.985  0.6096 -0.9806 -0.0227
  786MOL0     C 5987   1.443   6.149   2.040 -0.0877 -0.4758  0.0409
  786MOL0     C 5988   1.367   6.234   1.938  0.4494  0.3373  0.5127
  786MOL0     C 5989   1.272   6.339   1.980  0.2358 -1.1509 -0.0723
  786MOL0     C 5990   1.190   6.291   2.096 -0.2638 -0.3522 -0.2522
  786MOL0     C 5991   1.093   6.404   2.150 -1.0654  0.1451 -0.5856
  786MOL0     N 5992   1.001   6.470   2.057  0.1970  0.0486  0.3838
  786MOL0     C 5993   0.889   6.411   2.006  0.1827 -0.0651 -0.3429
  786MOL0     C 5994   0.836   6.503   1.916  0.2073  0.0085 -0.3191
  786MOL0     C 5995   0.707   6.502   1.829 -0.0785  0.4263 -0.3197
  786MOL0     C 5996   0.589   6.440   1.911  0.5118 -0.0959 -0.1173
  786MOL0     C 5997   0.459   6.505   1.865 -0.1575 -0.3497 -0.4422
  786MOL0     C 5998   0.336   6.480   1.958 -0.8947  0.3084 -0.6020
  786MOL0     O 5999   0.217   6.512   1.886  0.0514  0.8548 -0.1911
  786MOL0     C 6000   0.099   6.460   1.929  0.2758  0.6460  1.0260
  786MOL0     C 6001   0.078   6.413   2.059  0.2621  0.1387  0.5484
  786MOL0     C 6002  -0.045   6.367   2.096 -0.5322 -0.5669 -0.3607
  786MOL0     C 6003  -0.065   6.352   2.244 -0.6831  0.5638 -0.0561
  786MOL0     C 6004  -0.152   6.348   2.009 -0.0917  0.0669 -0.2123
  786MOL0     C 6005  -0.289   6.317   2.059  0.1625 -0.7793 -0.8014
  786MOL0     O 6006  -0.352   6.416   2.133 -0.4334  0.1621 -0.3610
  786MOL0     C 6007  -0.472   6.412   2.191 -0.7378  0.0226 -0.8494
  786MOL0     C 6008  -0.490   6.505   2.291 -0.1808 -0.0028  0.7174
  786MOL0     C 6009  -0.604   6.509   2.371  0.3838 -0.3066 -0.5359
  786MOL0     C 6010  -0.706   6.417   2.350  1.0132  0.2260 -0.0197
  786MOL0     O 6011  -0.825   6.424   2.420  0.9295 -0.1852  0.0891
  786MOL0     C 6012  -0.936   6.355   2.365 -0.6644 -0.4144 -0.0560
  786MOL0     C 6013  -1.044   6.379   2.469  0.6067 -0.4806 -0.3462
  786MOL0     C 6014  -1.174   6.312   2.437  0.2427  0.2485 -0.5112
  786MOL0     C 6015  -1.292   6.333   2.532  1.2485 -0.2590 -0.2724
  786MOL0     C 6016  -1.419   6.292   2.462  0.7518 -0.1680 -0.2485
  786MOL0     C 6017  -1.546   6.332   2.540 -0.5169  0.5783  0.1144
  786MOL0     C 6018  -1.666   6.342   2.448 -0.6585  0.1006 -0.3601
  786MOL0     C 6019  -1.797   6.344   2.530  0.0696 -0.3271  0.1349
  786MOL0    Cl 6020  -1.932   6.360   2.410  0.4548  0.0589  0.1616
  786MOL0     C 6021  -0.699   6.342   2.229  0.6394  0.6038 -0.2678
  786MOL0     C 6022  -0.580   6.333   2.154  0.8981 -0.1008  0.6252
  786MOL0     O 6023  -0.344   6.224   2.013  0.1802  0.5692  0.5432
  786MOL0     C 6024  -0.133   6.395   1.876 -0.1368  0.5639 -0.1632
  786MOL0     C 6025  -0.010   6.449   1.839 -0.0691 -0.9144 -0.1679
  786MOL0     N 6026   0.916   6.620   1.927 -0.2541 -0.4703 -0.3691
  786MOL0     N 6027   1.014   6.597   2.014 -0.4101 -0.3902  0.3649
  786MOL0     C 6028   2.055   6.175   2.094  0.0643 -0.2079 -0.0991
  786MOL0     C 6029   2.184   6.205   2.036  1.0355  0.4100 -0.7185
  786MOL0     C 6030   2.555   6.314   1.859 -0.1701  0.8870 -0.2086
  786MOL0     C 6031   2.653   6.207   1.837  0.4468 -0.0306  0.1441
  786MOL0     C 6032   2.789   6.229   1.819  0.2755  0.4045 -0.1859
  786MOL0     C 6033   2.842   6.356   1.826  0.6960 -0.0174  0.1821
  786MOL0     O 6034   2.973   6.373   1.813 -0.4837  0.2140 -0.1184
  786MOL0     C 6035   3.028   6.502   1.830  0.5584  0.6243  0.3008
  786MOL0     C 6036   3.174   6.485   1.880 -0.9476  0.0832 -0.4366
  786MOL0     C 6037   3.288   6.570   1.809 -0.4451 -0.1552 -0.7612
  786MOL0     C 6038   3.396   6.607   1.912  0.0944  0.3738  0.5625
  786MOL0     C 6039   3.521   6.627   1.841 -0.1767  0.7244  0.1682
  786MOL0     C 6040   3.626   6.635   1.782 -0.3965 -0.4491  0.1115
  786MOL0     C 6041   2.749   6.462   1.852 -0.1687 -0.4091  0.4274
  786MOL0     C 6042   2.605   6.444   1.862 -0.9751  0.4380 -0.7143
  786MOL0     H 6043   2.217   5.941   1.831  2.0442 -0.9239  0.8070
  786MOL0     H 6044   2.009   5.881   1.928 -2.0092 -0.2311  2.1354
  786MOL0     H 6045   1.791   5.982   1.930  3.5923  3.6295  1.6631
  786MOL0     H 6046   1.796   5.846   2.037  0.7784 -0.1674 -1.6034
  786MOL0     H 6047   1.566   5.899   2.018 -0.2560  1.4087 -2.6318
  786MOL0     H 6048   1.607   5.985   2.167 -0.6478  2.7650 -0.1929
  786MOL0     H 6049   1.661   6.184   1.990  1.6222 -1.7552 -2.3245
  786MOL0     H 6050   1.570   6.092   1.878  1.1722 -3.3006  0.1594
  786MOL0     H 6051   1.393   6.053   2.055 -0.1283 -0.3037  1.0472
  786MOL0     H 6052   1.456   6.191   2.140  3.2315 -0.1175 -0.4430
  786MOL0     H 6053   1.437   6.289   1.875 -1.9272  1.7713 -1.0530
  786MOL0     H 6054   1.318   6.162   1.872  2.1838  1.0147 -1.6468
  786MOL0     H 6055   1.323   6.433   2.005 -0.6577 -0.7444  0.2398
  786MOL0     H 6056   1.199   6.361   1.902 -0.7589  0.4193  1.2308
  786MOL0     H 6057   1.135   6.204   2.060  1.7846 -0.3398 -3.9504
  786MOL0     H 6058   1.257   6.262   2.178 -1.2840  2.2639  1.6610
  786MOL0     H 6059   1.153   6.478   2.202 -0.1265 -2.2828  2.0633
  786MOL0     H 6060   1.034   6.361   2.232  1.2305  1.4751  1.9309
  786MOL0     H 6061   0.863   6.307   2.027 -0.4641  0.1142 -0.2359
  786MOL0     H 6062   0.683   6.602   1.792 -0.9091  0.1022 -0.6844
  786MOL0     H 6063   0.720   6.436   1.743  0.4549 -0.8814  0.7384
  786MOL0     H 6064   0.604   6.454   2.019  0.5769 -0.4220 -0.0828
  786MOL0     H 6065   0.583   6.333   1.892  2.2098 -0.2341 -0.0276
  786MOL0     H 6066   0.436   6.473   1.763 -2.0370  1.7920 -0.7674
  786MOL0     H 6067   0.456   6.615   1.868 -4.4488 -0.2203 -1.8838
  786MOL0     H 6068   0.344   6.543   2.047 -3.2242 -1.1767  0.7818
  786MOL0     H 6069   0.344   6.378   1.998 -1.4239  0.1737 -0.8376
  786MOL0     H 6070   0.146   6.450   2.134 -0.3149  1.9257  0.2336
  786MOL0     H 6071  -0.117   6.440   2.283 -0.5519  0.4442  0.3897
  786MOL0     H 6072  -0.118   6.262   2.275  1.3916 -0.2892  1.2232
  786MOL0     H 6073   0.029   6.347   2.299 -0.6661  2.0458  0.0962
  786MOL0     H 6074  -0.406   6.567   2.322 -0.4376 -0.5295  2.6025
  786MOL0     H 6075  -0.600   6.581   2.451  0.5524 -2.5245  1.5612
  786MOL0     H 6076  -0.975   6.393   2.269 -0.0022 -1.4107 -0.7305
  786MOL0     H 6077  -0.922   6.248   2.350  0.7271 -0.2417 -0.1299
  786MOL0     H 6078  -1.005   6.342   2.565  2.8265  0.1606 -0.9228
  786MOL0     H 6079  -1.067   6.486   2.475 -0.1850 -0.5218 -2.0130
  786MOL0     H 6080  -1.153   6.205   2.433  1.2548  0.3406  1.1332
  786MOL0     H 6081  -1.204   6.339   2.335  1.3612  1.2929 -0.5861
  786MOL0     H 6082  -1.279   6.273   2.623 -3.3155 -0.1164  0.7117
  786MOL0     H 6083  -1.297   6.439   2.559  0.7525 -0.1965 -0.5952
  786MOL0     H 6084  -1.411   6.187   2.433  3.1830  0.2293 -1.2932
  786MOL0     H 6085  -1.414   6.341   2.364  3.0163  2.0962  0.8590
  786MOL0     H 6086  -1.562   6.253   2.614 -1.8171  0.3197 -0.4129
  786MOL0     H 6087  -1.535   6.419   2.606  0.7809 -1.4736  2.8232
  786MOL0     H 6088  -1.665   6.261   2.375 -1.7693 -0.1163 -0.1533
  786MOL0     H 6089  -1.656   6.431   2.386 -0.2354 -0.2209 -0.7592
  786MOL0     H 6090  -1.799   6.423   2.605 -0.4086 -2.8107  2.9286
  786MOL0     H 6091  -1.817   6.246   2.574 -1.6779 -2.1550 -4.1385
  786MOL0     H 6092  -0.787   6.292   2.192  1.1937 -1.9491  1.5566
  786MOL0     H 6093  -0.591   6.264   2.072 -0.6802 -2.1153  2.4139
  786MOL0     H 6094  -0.212   6.401   1.802  0.2632  2.4683 -0.4889
  786MOL0     H 6095   0.006   6.482   1.736  3.2063 -1.8073 -0.0549
  786MOL0     H 6096   1.996   6.240   2.158 -0.8312 -0.2652 -0.8321
  786MOL0     H 6097   2.242   6.287   2.076  0.6594  1.5810 -2.4645
  786MOL0     H 6098   2.620   6.104   1.832  1.2826 -0.2577 -2.5636
  786MOL0     H 6099   2.841   6.136   1.796 -2.0890 -0.5820 -1.9746
  786MOL0     H 6100   3.017   6.560   1.738  0.6800  0.4319  0.1630
  786MOL0     H 6101   2.978   6.559   1.909 -1.9011  3.0159 -2.7241
  786MOL0     H 6102   3.204   6.380   1.870 -0.9568  0.0218  0.1790
  786MOL0     H 6103   3.167   6.515   1.984  1.8125  1.3352 -0.5379
  786MOL0     H 6104   3.231   6.650   1.761 -0.3118 -0.0960 -0.8195
  786MOL0     H 6105   3.334   6.507   1.732  1.3565  0.2867 -0.0920
  786MOL0     H 6106   3.396   6.522   1.981  0.2645 -1.5570 -1.6444
  786MOL0     H 6107   3.372   6.701   1.961 -1.3523  1.0273 -1.2551
  786MOL0     H 6108   3.713   6.633   1.719 -1.0972  2.2061 -1.1028
  786MOL0     H 6109   2.779   6.564   1.872 -0.0107 -0.4020  0.1627
  786MOL0     H 6110   2.543   6.532   1.873 -0.7319  0.6367 -0.9178
  787MOL0     O 6111   7.386   8.383   8.444  0.4744 -0.2554 -0.2789
  787MOL0     C 6112   7.345   8.349   8.555  0.3788  0.3932  0.2762
  787MOL0     O 6113   7.427   8.289   8.649  0.1797 -0.3083  0.1445
  787MOL0     C 6114   7.561   8.275   8.611  0.5695 -1.4953  0.2990
  787MOL0     C 6115   7.608   8.142   8.589  0.1945 -0.6769 -0.0741
  787MOL0     C 6116   7.744   8.121   8.570  0.3844  0.7488  1.5104
  787MOL0     C 6117   7.838   8.225   8.565  0.3591  0.2390 -0.9899
  787MOL0     O 6118   7.965   8.181   8.542 -0.6881 -0.0641 -0.4934
  787MOL0     C 6119   8.073   8.241   8.615  0.3974  1.0368  0.5804
  787MOL0     C 6120   8.204   8.162   8.592 -0.2502 -0.2069 -0.0726
  787MOL0     C 6121   8.262   8.164   8.456 -0.1892 -0.1891  0.6070
  787MOL0     C 6122   8.228   8.030   8.385 -0.3329 -0.3402 -0.0732
  787MOL0     C 6123   8.292   8.017   8.242  0.0976  0.0880 -0.0192
  787MOL0     C 6124   8.266   8.138   8.150  0.1679 -0.3105  0.9775
  787MOL0     C 6125   8.126   8.194   8.160  0.5075  0.0416 -0.1379
  787MOL0     C 6126   8.025   8.081   8.120 -0.0237 -0.6832  0.6908
  787MOL0     N 6127   7.909   8.125   8.036  0.3876 -0.2442  0.6725
  787MOL0     C 6128   7.809   8.210   8.087  0.4942  0.2525 -0.1032
  787MOL0     C 6129   7.734   8.241   7.980  1.1963 -0.1224  0.2427
  787MOL0     C 6130   7.617   8.332   7.968  0.3104  0.3094 -0.4450
  787MOL0     C 6131   7.507   8.306   8.072  0.1704 -0.1938 -0.7333
  787MOL0     C 6132   7.446   8.164   8.072  0.2242  0.5866 -0.2030
  787MOL0     C 6133   7.321   8.155   8.163  0.6435  1.1547 -0.0075
  787MOL0     O 6134   7.221   8.232   8.100  0.4403 -0.6765 -0.0027
  787MOL0     C 6135   7.088   8.210   8.123  0.0317  0.8038 -0.3719
  787MOL0     C 6136   7.024   8.131   8.224  0.7291 -0.5675 -0.3767
  787MOL0     C 6137   6.885   8.126   8.233 -0.3517  1.0517  1.3015
  787MOL0     C 6138   6.834   8.047   8.346  0.1507 -0.1537  0.6632
  787MOL0     C 6139   6.807   8.192   8.134 -0.3010 -1.4921 -0.1700
  787MOL0     C 6140   6.658   8.187   8.118  0.1575 -0.0829 -0.1546
  787MOL0     O 6141   6.604   8.219   7.998  0.1961 -1.4743  0.8984
  787MOL0     C 6142   6.471   8.205   7.995  0.5835 -0.1950  0.5627
  787MOL0     C 6143   6.386   8.313   7.998 -0.3711  0.3467  0.2248
  787MOL0     C 6144   6.252   8.294   7.962  0.5428  1.2538 -0.5758
  787MOL0     C 6145   6.204   8.162   7.944 -0.1475  0.2781 -0.3330
  787MOL0     O 6146   6.071   8.136   7.906  0.1694  0.0422 -0.4750
  787MOL0     C 6147   6.028   8.202   7.792 -0.0201 -0.7775  0.4949
  787MOL0     C 6148   5.933   8.110   7.714 -0.0260 -1.1173  0.3778
  787MOL0     C 6149   5.841   8.179   7.615  0.1306  0.2017 -0.0619
  787MOL0     C 6150   5.926   8.248   7.509 -0.4609 -0.4717  0.3786
  787MOL0     C 6151   5.833   8.293   7.393 -0.0722 -0.7098  0.0034
  787MOL0     C 6152   5.797   8.184   7.295  0.8829  0.2729 -0.5664
  787MOL0     C 6153   5.697   8.241   7.192  0.0585  0.9466 -0.1144
  787MOL0     C 6154   5.681   8.130   7.095  0.5316 -0.2423  0.0021
  787MOL0    Cl 6155   5.575   8.179   6.958  0.1136 -0.1131 -0.1666
  787MOL0     C 6156   6.291   8.054   7.942  0.7046 -0.5698 -0.6893
  787MOL0     C 6157   6.421   8.077   7.960  0.0411  0.0922  0.1312
  787MOL0     O 6158   6.586   8.163   8.218 -0.3891  0.1534  0.1109
  787MOL0     C 6159   6.871   8.265   8.037 -0.3540  0.0295 -0.1736
  787MOL0     C 6160   7.010   8.278   8.033 -0.1877 -0.3588 -0.9276
  787MOL0     N 6161   7.769   8.149   7.879 -0.2878  0.3117  0.3534
  787MOL0     N 6162   7.878   8.088   7.907 -0.3444  0.0733  0.5755
  787MOL0     C 6163   7.794   8.357   8.580 -0.3884 -0.5070 -0.8900
  787MOL0     C 6164   7.655   8.378   8.611  0.3194 -0.3217  0.8054
  787MOL0     C 6165   7.199   8.362   8.570 -0.2914  0.1423 -0.0080
  787MOL0     C 6166   7.103   8.385   8.469 -0.6065  0.0191  0.2208
  787MOL0     C 6167   6.967   8.393   8.492 -0.7100  0.0843  0.4817
  787MOL0     C 6168   6.920   8.373   8.614  0.9696 -0.4532 -0.1804
  787MOL0     O 6169   6.787   8.389   8.650  0.0083  0.3132  0.5378
  787MOL0     C 6170   6.683   8.332   8.562 -0.2557 -0.1589  0.3145
  787MOL0     C 6171   6.542   8.384   8.598  0.0534  0.6531 -0.3634
  787MOL0     C 6172   6.421   8.300   8.568 -0.2693 -0.1600 -0.3893
  787MOL0     C 6173   6.286   8.361   8.618  0.9224 -0.3541  0.3029
  787MOL0     C 6174   6.191   8.251   8.606  0.3931 -0.4941 -0.8594
  787MOL0     C 6175   6.117   8.154   8.608 -0.3293 -0.2022 -0.4136
  787MOL0     C 6176   7.010   8.359   8.723 -0.2353  0.0604 -0.2246
  787MOL0     C 6177   7.151   8.352   8.696  0.1969 -1.0342  0.7819
  787MOL0     H 6178   7.550   8.050   8.595 -0.8045 -0.1062 -0.7192
  787MOL0     H 6179   7.788   8.022   8.564  0.7173  0.9039  1.4028
  787MOL0     H 6180   8.080   8.335   8.561  2.4109  2.4966  3.1207
  787MOL0     H 6181   8.047   8.254   8.721 -0.8905 -0.9905  0.5736
  787MOL0     H 6182   8.274   8.209   8.662 -0.5861  0.1086  0.0589
  787MOL0     H 6183   8.185   8.059   8.624 -0.2871  0.0124  0.6510
  787MOL0     H 6184   8.216   8.249   8.404 -1.0938 -1.3051 -0.4734
  787MOL0     H 6185   8.371   8.169   8.462  0.0254 -1.6279 -1.2442
  787MOL0     H 6186   8.257   7.943   8.445 -0.4470  0.4779  1.1958
  787MOL0     H 6187   8.119   8.036   8.384 -0.4573 -2.1463 -0.3742
  787MOL0     H 6188   8.399   8.010   8.261 -0.0503  3.8386  3.4657
  787MOL0     H 6189   8.252   7.929   8.190 -1.5176  0.6120  0.2625
  787MOL0     H 6190   8.328   8.224   8.179  1.5148 -0.5646 -0.9873
  787MOL0     H 6191   8.290   8.121   8.045  3.4023  2.4918  1.0862
  787MOL0     H 6192   8.102   8.227   8.261  0.3818  0.6455 -0.3665
  787MOL0     H 6193   8.106   8.264   8.079 -4.0673 -2.6104 -1.7035
  787MOL0     H 6194   7.988   8.033   8.210  1.2378 -2.5266  0.2663
  787MOL0     H 6195   8.081   8.012   8.057  1.9163  2.1053 -0.8562
  787MOL0     H 6196   7.818   8.253   8.186  0.9995 -0.3074  0.1003
  787MOL0     H 6197   7.645   8.436   7.990  0.4797 -0.4101  3.3919
  787MOL0     H 6198   7.578   8.319   7.867 -0.5679  0.2585 -0.1058
  787MOL0     H 6199   7.422   8.374   8.056 -0.1141 -0.3112  0.1949
  787MOL0     H 6200   7.539   8.336   8.172  2.6935  3.2102 -2.3717
  787MOL0     H 6201   7.521   8.094   8.111 -0.0018  0.4741  0.0356
  787MOL0     H 6202   7.421   8.134   7.970 -0.2486  3.0249 -0.8669
  787MOL0     H 6203   7.336   8.191   8.265  0.1446  1.2882  0.0171
  787MOL0     H 6204   7.298   8.048   8.166  4.0320  0.2551 -1.0171
  787MOL0     H 6205   7.084   8.090   8.305  3.3128  0.6814 -1.5295
  787MOL0     H 6206   6.740   7.997   8.321 -0.7366  1.4088  0.7533
  787MOL0     H 6207   6.906   7.970   8.376  4.3156  4.0302  2.6424
  787MOL0     H 6208   6.814   8.119   8.426 -0.7219  0.4389 -0.0754
  787MOL0     H 6209   6.426   8.414   7.993 -0.3888  0.3050 -2.3070
  787MOL0     H 6210   6.185   8.377   7.942 -0.7547  0.4308  0.2075
  787MOL0     H 6211   5.979   8.296   7.819  1.0335 -0.3424  0.9564
  787MOL0     H 6212   6.119   8.234   7.739 -0.0862 -1.3372  0.0309
  787MOL0     H 6213   5.987   8.030   7.662 -1.2049 -1.5153 -0.2711
  787MOL0     H 6214   5.871   8.054   7.784 -1.2355 -1.3041 -0.7922
  787MOL0     H 6215   5.772   8.239   7.676 -1.4957 -1.6346  0.0016
  787MOL0     H 6216   5.776   8.100   7.577  0.1883  0.3380 -0.4464
  787MOL0     H 6217   5.980   8.330   7.556 -1.3643  0.7751 -0.6743
  787MOL0     H 6218   6.004   8.180   7.474  0.6351 -0.0416  1.8700
  787MOL0     H 6219   5.885   8.376   7.343 -0.2239  0.6945  2.0531
  787MOL0     H 6220   5.743   8.338   7.436  0.1277  1.9858 -2.0521
  787MOL0     H 6221   5.890   8.155   7.244  1.8690  4.1178 -1.2236
  787MOL0     H 6222   5.745   8.097   7.338  0.0276  0.8632 -0.3739
  787MOL0     H 6223   5.742   8.316   7.126  3.0734 -0.4334  0.1991
  787MOL0     H 6224   5.605   8.281   7.236 -0.0629 -1.4960  2.1516
  787MOL0     H 6225   5.628   8.054   7.153  1.5144 -1.3158 -0.4766
  787MOL0     H 6226   5.773   8.084   7.061  1.3294 -1.0136  2.9050
  787MOL0     H 6227   6.255   7.956   7.911  1.0816 -0.9818  0.1147
  787MOL0     H 6228   6.489   7.992   7.954 -0.2305 -0.0349 -1.9194
  787MOL0     H 6229   6.812   8.327   7.970 -1.0580  2.3323  2.4064
  787MOL0     H 6230   7.060   8.340   7.959  2.5519  0.5916  1.4870
  787MOL0     H 6231   7.867   8.437   8.590  0.0975 -1.1339  0.9463
  787MOL0     H 6232   7.621   8.475   8.644 -0.1337 -0.9196  2.1712
  787MOL0     H 6233   7.136   8.394   8.366  3.5230  0.1577  1.4093
  787MOL0     H 6234   6.900   8.437   8.418 -1.7799  0.2919  1.5447
  787MOL0     H 6235   6.699   8.373   8.462 -0.4435  0.7474  0.6479
  787MOL0     H 6236   6.693   8.223   8.571  1.5885  0.1226  3.5499
  787MOL0     H 6237   6.533   8.482   8.550  3.1054 -0.4886 -3.7134
  787MOL0     H 6238   6.534   8.385   8.707  2.0324  0.5672 -0.1729
  787MOL0     H 6239   6.427   8.203   8.618 -3.4610 -0.3535 -0.1890
  787MOL0     H 6240   6.414   8.297   8.459 -0.8602 -0.9621 -0.3400
  787MOL0     H 6241   6.263   8.441   8.547  0.3813  0.3844  1.2784
  787MOL0     H 6242   6.286   8.399   8.721  0.1719  1.0357 -0.1735
  787MOL0     H 6243   6.054   8.068   8.603 -2.7537  1.4335  0.1415
  787MOL0     H 6244   6.974   8.345   8.824 -0.1648 -0.5785 -0.2811
  787MOL0     H 6245   7.216   8.330   8.780 -0.4782  1.0348  1.9116
  788MOL0     O 6246   8.991   9.540   9.479 -0.3181  0.2965 -0.1271
  788MOL0     C 6247   8.947   9.498   9.374  0.2502 -1.5133 -0.4148
  788MOL0     O 6248   8.947   9.575   9.258 -0.0691  0.8360  0.1674
  788MOL0     C 6249   9.026   9.689   9.249 -0.7070 -0.8785 -0.2794
  788MOL0     C 6250   9.168   9.685   9.232 -0.2490 -0.5519 -0.3477
  788MOL0     C 6251   9.231   9.809   9.223  0.2218 -0.5853  0.1886
  788MOL0     C 6252   9.162   9.934   9.223  0.0118  0.0174 -0.5490
  788MOL0     O 6253   9.238  10.045   9.194 -0.7041  0.0138 -0.2867
  788MOL0     C 6254   9.184  10.178   9.226 -0.0085 -0.4470  0.5433
  788MOL0     C 6255   9.111  10.239   9.101  1.2234 -0.9867 -0.0518
  788MOL0     C 6256   9.208  10.260   8.985 -1.4163 -0.2327 -0.3876
  788MOL0     C 6257   9.196  10.382   8.889  0.5215  0.3657 -0.9814
  788MOL0     C 6258   9.051  10.376   8.821 -0.5410  0.6120  0.4494
  788MOL0     C 6259   9.016  10.489   8.725  0.0314 -0.5876 -0.1330
  788MOL0     C 6260   9.138  10.531   8.638 -0.1451 -0.5410  0.3594
  788MOL0     C 6261   9.083  10.621   8.529 -0.0065  0.0684 -0.0795
  788MOL0     N 6262   8.993  10.735   8.576 -0.8148 -0.1537 -0.2164
  788MOL0     C 6263   9.038  10.845   8.648  0.3675  0.5861  0.2383
  788MOL0     C 6264   8.926  10.919   8.668 -0.3843 -0.0623 -0.9942
  788MOL0     C 6265   8.922  11.049   8.733  0.0631  0.6912  0.0155
  788MOL0     C 6266   8.841  11.031   8.861 -1.0957 -0.0507  0.7945
  788MOL0     C 6267   8.819  11.167   8.934  0.4665 -0.6328  0.8981
  788MOL0     C 6268   8.676  11.219   8.921  0.0065 -1.1184 -0.3494
  788MOL0     O 6269   8.583  11.117   8.965 -0.4668 -0.4726 -0.8400
  788MOL0     C 6270   8.456  11.166   9.021 -0.2052 -0.2448  0.1860
  788MOL0     C 6271   8.404  11.293   8.995  0.6107 -0.5740 -1.0021
  788MOL0     C 6272   8.267  11.328   9.038 -0.1476 -0.1732 -0.0231
  788MOL0     C 6273   8.220  11.472   9.019 -0.5751 -0.6337 -0.4241
  788MOL0     C 6274   8.179  11.232   9.094  0.3770  0.3911 -0.8079
  788MOL0     C 6275   8.041  11.265   9.137  0.6330  0.4920  0.2921
  788MOL0     O 6276   7.941  11.190   9.080 -0.0145 -0.0428  0.5949
  788MOL0     C 6277   7.807  11.211   9.107  0.2656 -0.1378 -0.0284
  788MOL0     C 6278   7.713  11.113   9.127  0.0289  0.3454 -0.5471
  788MOL0     C 6279   7.575  11.133   9.115 -0.1809 -0.2594  0.5630
  788MOL0     C 6280   7.523  11.264   9.099 -0.3629  0.7865  0.4257
  788MOL0     O 6281   7.387  11.289   9.087 -0.1783 -0.0849  0.4158
  788MOL0     C 6282   7.296  11.195   9.151 -0.5002 -0.4119  0.1518
  788MOL0     C 6283   7.173  11.262   9.202 -0.4459 -0.2311 -0.0552
  788MOL0     C 6284   7.100  11.351   9.103 -0.0332  0.5279 -0.1376
  788MOL0     C 6285   6.970  11.400   9.167 -0.0069  0.4419  0.1198
  788MOL0     C 6286   6.856  11.296   9.180  0.5528 -0.4075  0.4784
  788MOL0     C 6287   6.729  11.369   9.231  0.0190  0.0741 -0.1402
  788MOL0     C 6288   6.625  11.267   9.272 -0.8168  0.1505 -0.8673
  788MOL0     C 6289   6.482  11.318   9.293 -0.2433  0.2108 -0.9607
  788MOL0    Cl 6290   6.457  11.436   9.423 -0.4029  0.4292 -0.1764
  788MOL0     C 6291   7.618  11.368   9.095  0.4846 -0.1932 -0.0974
  788MOL0     C 6292   7.754  11.341   9.093  0.3719  0.2712  0.0605
  788MOL0     O 6293   8.025  11.336   9.234  0.1491  0.7130 -0.1438
  788MOL0     C 6294   8.232  11.107   9.121  0.3431 -0.7182  1.0761
  788MOL0     C 6295   8.367  11.074   9.074 -0.3696  0.4182 -0.2600
  788MOL0     N 6296   8.820  10.854   8.610  1.3136  0.5438 -0.3409
  788MOL0     N 6297   8.863  10.750   8.552 -0.7950  0.0946 -0.6699
  788MOL0     C 6298   9.020   9.921   9.232 -0.1387  0.0685  0.0970
  788MOL0     C 6299   8.955   9.806   9.263 -0.3132 -0.0500  0.4142
  788MOL0     C 6300   8.895   9.358   9.372  0.4606  0.8993 -0.9314
  788MOL0     C 6301   8.855   9.302   9.493  0.6576 -0.9506 -0.2288
  788MOL0     C 6302   8.805   9.170   9.493 -0.1879  0.6251  0.2362
  788MOL0     C 6303   8.809   9.082   9.390  0.3917  0.7966  0.5390
  788MOL0     O 6304   8.771   8.949   9.411  0.4573  0.2364 -0.0183
  788MOL0     C 6305   8.777   8.852   9.312  0.4744  0.0779 -0.1449
  788MOL0     C 6306   8.761   8.710   9.373  1.2829  1.0461  0.2577
  788MOL0     C 6307   8.840   8.700   9.503  0.5214  0.0540  0.3322
  788MOL0     C 6308   8.989   8.732   9.485  0.5010  0.1316  0.1775
  788MOL0     C 6309   9.061   8.658   9.380  0.5438 -0.8547 -0.0671
  788MOL0     C 6310   9.120   8.598   9.295 -0.3496 -0.2292 -0.7500
  788MOL0     C 6311   8.851   9.139   9.271 -0.4624 -0.4463  0.3239
  788MOL0     C 6312   8.895   9.278   9.258  0.5095  0.5633 -0.1706
  788MOL0     H 6313   9.224   9.592   9.243  1.3010  0.1844 -1.7211
  788MOL0     H 6314   9.340   9.807   9.220  0.1931 -0.5912 -0.9832
  788MOL0     H 6315   9.120  10.158   9.312 -0.7308 -0.5226 -0.0082
  788MOL0     H 6316   9.256  10.252   9.264 -0.2948 -0.7210  1.6617
  788MOL0     H 6317   9.037  10.170   9.060  3.3178 -2.9271 -0.7799
  788MOL0     H 6318   9.054  10.330   9.123 -1.1737 -2.3435 -0.3607
  788MOL0     H 6319   9.314  10.242   9.004 -1.5662 -3.3510 -1.7833
  788MOL0     H 6320   9.201  10.166   8.928  1.9102 -2.1270  2.0303
  788MOL0     H 6321   9.216  10.468   8.953 -1.3687  1.3533 -1.6533
  788MOL0     H 6322   9.277  10.374   8.815  2.0255 -3.1890  0.7772
  788MOL0     H 6323   9.039  10.279   8.773 -0.5676 -0.7251  3.0109
  788MOL0     H 6324   8.985  10.376   8.908  1.5275  0.5113  2.1128
  788MOL0     H 6325   8.928  10.470   8.662 -1.0436  2.6895  0.1449
  788MOL0     H 6326   8.976  10.566   8.792 -0.8361 -0.1840 -1.0696
  788MOL0     H 6327   9.200  10.603   8.692 -0.8596  0.6182 -0.3082
  788MOL0     H 6328   9.198  10.448   8.601 -0.7801 -1.3265  1.0516
  788MOL0     H 6329   9.015  10.558   8.471 -1.7177  0.1510  1.6916
  788MOL0     H 6330   9.158  10.665   8.463  0.8830  3.4757  2.8424
  788MOL0     H 6331   9.134  10.877   8.688  0.8272  1.6944 -1.6304
  788MOL0     H 6332   9.022  11.086   8.758 -0.7604  1.5151  2.3363
  788MOL0     H 6333   8.873  11.124   8.670  1.5170  2.8222  1.3092
  788MOL0     H 6334   8.894  10.958   8.922  2.7625  1.6288 -0.2462
  788MOL0     H 6335   8.748  10.980   8.835  0.2188 -2.1601 -0.0618
  788MOL0     H 6336   8.890  11.250   8.926 -0.6110  0.2990  0.7006
  788MOL0     H 6337   8.813  11.141   9.040 -0.3471 -1.2782  0.6960
  788MOL0     H 6338   8.654  11.244   8.817 -0.6303 -0.9188 -0.1703
  788MOL0     H 6339   8.669  11.315   8.972 -1.2092 -1.1067 -0.5162
  788MOL0     H 6340   8.457  11.378   8.952  0.0216  0.2595 -0.1172
  788MOL0     H 6341   8.201  11.503   9.122 -3.4502 -2.4684 -0.2967
  788MOL0     H 6342   8.302  11.531   8.977  0.3782 -1.1362  0.6703
  788MOL0     H 6343   8.126  11.485   8.964 -1.1031 -2.4497 -0.0339
  788MOL0     H 6344   7.749  11.011   9.122 -0.4726  0.2129 -2.3727
  788MOL0     H 6345   7.513  11.045   9.125 -0.0174 -0.6157 -1.3045
  788MOL0     H 6346   7.275  11.127   9.067 -2.2776 -1.0850  1.0955
  788MOL0     H 6347   7.354  11.139   9.225  0.6794  3.8043  2.7200
  788MOL0     H 6348   7.102  11.183   9.229 -0.8179  0.7634  2.0553
  788MOL0     H 6349   7.200  11.315   9.293 -0.3098 -1.2055  0.4917
  788MOL0     H 6350   7.089  11.299   9.008 -0.0190  1.3330 -0.5858
  788MOL0     H 6351   7.165  11.438   9.088  0.3940  0.1227 -0.6712
  788MOL0     H 6352   6.992  11.425   9.271 -1.2063  0.9316  0.2655
  788MOL0     H 6353   6.939  11.486   9.106  1.4988  0.8577 -0.1177
  788MOL0     H 6354   6.890  11.219   9.249  1.9392 -0.5403 -0.3227
  788MOL0     H 6355   6.827  11.245   9.088 -2.8581 -0.3271  1.3878
  788MOL0     H 6356   6.749  11.439   9.312  0.6999 -1.6807  1.2714
  788MOL0     H 6357   6.675  11.422   9.152  0.4091 -0.5485 -0.8479
  788MOL0     H 6358   6.655  11.218   9.365 -3.9531  0.6485  0.5532
  788MOL0     H 6359   6.620  11.188   9.196  1.9995 -0.4850 -0.4935
  788MOL0     H 6360   6.421  11.230   9.315 -2.0177  1.8062  0.9297
  788MOL0     H 6361   6.462  11.357   9.193  2.5720  1.0435 -1.2967
  788MOL0     H 6362   7.584  11.470   9.085 -1.4786 -0.8822 -0.8006
  788MOL0     H 6363   7.832  11.416   9.080  0.9024 -0.1812  0.5731
  788MOL0     H 6364   8.171  11.037   9.177 -0.4655 -0.4926  0.5008
  788MOL0     H 6365   8.415  10.977   9.084  0.8721  1.2063  2.2588
  788MOL0     H 6366   8.965  10.013   9.212  0.6200  0.3697 -0.6575
  788MOL0     H 6367   8.849   9.807   9.282 -0.5450 -0.7536 -0.7321
  788MOL0     H 6368   8.860   9.351   9.590  1.6240 -3.8145  1.2832
  788MOL0     H 6369   8.770   9.127   9.587 -2.8264 -0.5239 -1.1644
  788MOL0     H 6370   8.703   8.868   9.233 -1.7469 -1.2560  1.5468
  788MOL0     H 6371   8.881   8.854   9.278 -0.0689 -0.9610 -2.0101
  788MOL0     H 6372   8.801   8.643   9.297 -2.5990  2.3842 -3.3798
  788MOL0     H 6373   8.657   8.679   9.386  1.8288 -2.1375 -1.9355
  788MOL0     H 6374   8.837   8.600   9.549  1.1944 -0.4016 -0.5629
  788MOL0     H 6375   8.804   8.769   9.579  3.0327  1.5613  0.2800
  788MOL0     H 6376   9.036   8.693   9.576  2.0181 -1.7695 -1.3319
  788MOL0     H 6377   9.005   8.840   9.482 -1.3915  0.6131  3.2692
  788MOL0     H 6378   9.177   8.533   9.231 -0.7243  0.7462 -2.1082
  788MOL0     H 6379   8.855   9.075   9.184 -0.5335 -0.7792  0.5634
  788MOL0     H 6380   8.922   9.320   9.162  0.7800  0.1779 -0.2682
  789MOL0     O 6381   1.667   3.262   8.774 -0.3892  0.1816  0.0027
  789MOL0     C 6382   1.678   3.339   8.868  0.4504  0.2188 -0.0277
  789MOL0     O 6383   1.570   3.400   8.918 -0.7293 -0.1407 -0.5288
  789MOL0     C 6384   1.462   3.411   8.833 -0.8696 -0.2875 -0.3101
  789MOL0     C 6385   1.348   3.332   8.856 -0.7154  0.3007  0.5836
  789MOL0     C 6386   1.236   3.342   8.775 -0.0422  0.3536 -0.0719
  789MOL0     C 6387   1.233   3.442   8.681  0.1813 -0.4271 -0.8993
  789MOL0     O 6388   1.115   3.461   8.609 -0.0355  0.3421  0.4668
  789MOL0     C 6389   1.112   3.571   8.519 -0.4470  0.2069 -0.4614
  789MOL0     C 6390   0.968   3.587   8.474 -0.2056  0.4853 -0.3071
  789MOL0     C 6391   0.928   3.460   8.400  0.2106  0.8318 -0.6432
  789MOL0     C 6392   0.777   3.468   8.363 -0.4957 -0.8089  0.4271
  789MOL0     C 6393   0.731   3.359   8.275  0.4905  0.1186 -0.3470
  789MOL0     C 6394   0.627   3.415   8.171 -0.4929  0.2505 -0.1980
  789MOL0     C 6395   0.581   3.307   8.067 -0.1365 -0.0365 -0.1498
  789MOL0     C 6396   0.474   3.367   7.977  1.0190  0.3782  0.6041
  789MOL0     N 6397   0.416   3.266   7.882 -0.1336  0.4331  0.2686
  789MOL0     C 6398   0.288   3.229   7.889  0.3667  0.5843 -0.1490
  789MOL0     C 6399   0.262   3.141   7.789 -0.2425  0.1907 -0.3101
  789MOL0     C 6400   0.123   3.105   7.731  0.5679  0.3591 -0.5323
  789MOL0     C 6401   0.037   3.006   7.808  0.1708 -0.1084 -0.8313
  789MOL0     C 6402   0.004   3.066   7.951 -1.1336  0.5460 -0.1058
  789MOL0     C 6403  -0.124   2.996   8.006  0.0641  0.3045 -0.2699
  789MOL0     O 6404  -0.219   3.097   8.036  0.3946 -0.4632 -0.3126
  789MOL0     C 6405  -0.342   3.053   8.092  0.1170  0.4293  0.1704
  789MOL0     C 6406  -0.390   2.923   8.090  0.0776 -0.8409  0.3900
  789MOL0     C 6407  -0.523   2.898   8.135 -0.3138  0.3030  0.2903
  789MOL0     C 6408  -0.555   2.759   8.148  0.3737 -0.0922 -0.2625
  789MOL0     C 6409  -0.611   3.000   8.173  0.5771 -0.0193 -0.0266
  789MOL0     C 6410  -0.755   2.977   8.216 -0.2674  0.2222  0.3063
  789MOL0     O 6411  -0.815   2.853   8.201  0.3756  0.0995 -0.1700
  789MOL0     C 6412  -0.944   2.842   8.229 -0.4606  0.6631  0.4845
  789MOL0     C 6413  -1.004   2.844   8.353 -0.0637 -1.1056 -0.9826
  789MOL0     C 6414  -1.134   2.805   8.375  0.7175  0.2945 -0.1954
  789MOL0     C 6415  -1.219   2.789   8.269  0.4785 -0.0865  0.6255
  789MOL0     O 6416  -1.356   2.768   8.276 -0.0890  0.3528  0.1958
  789MOL0     C 6417  -1.433   2.704   8.166 -0.1544 -0.0957 -0.2106
  789MOL0     C 6418  -1.576   2.711   8.204 -0.1123  0.3787 -0.4353
  789MOL0     C 6419  -1.608   2.676   8.347 -0.5877  0.8070 -0.3857
  789MOL0     C 6420  -1.608   2.522   8.360  0.4098 -0.6740 -0.1721
  789MOL0     C 6421  -1.488   2.473   8.445  0.5239  0.0660 -0.6520
  789MOL0     C 6422  -1.511   2.484   8.597 -0.2275  0.7365  0.3598
  789MOL0     C 6423  -1.407   2.557   8.670  0.9459 -0.4292  0.1635
  789MOL0     C 6424  -1.268   2.491   8.664 -0.4542  0.0902  0.1323
  789MOL0    Cl 6425  -1.269   2.345   8.761  0.5320 -0.0741 -0.1419
  789MOL0     C 6426  -1.163   2.790   8.143 -0.0993 -0.6786 -0.4206
  789MOL0     C 6427  -1.023   2.806   8.116 -0.2130  0.5627 -0.0377
  789MOL0     O 6428  -0.807   3.081   8.255 -0.1089 -0.2080  0.0667
  789MOL0     C 6429  -0.555   3.131   8.177  0.1726  0.3197  0.3014
  789MOL0     C 6430  -0.420   3.158   8.127 -0.2276  0.3678 -0.6747
  789MOL0     N 6431   0.393   3.115   7.731  0.5102 -0.7422 -0.0584
  789MOL0     N 6432   0.482   3.198   7.782 -0.5256  0.1935 -0.1509
  789MOL0     C 6433   1.348   3.515   8.653  0.3337  0.4248  0.2085
  789MOL0     C 6434   1.456   3.513   8.738  0.2543 -0.5025 -0.5091
  789MOL0     C 6435   1.802   3.340   8.945  0.6096 -0.3564 -0.6630
  789MOL0     C 6436   1.921   3.300   8.897 -0.4027 -0.3617  0.1430
  789MOL0     C 6437   2.038   3.293   8.969 -0.4498 -0.4991  0.0973
  789MOL0     C 6438   2.043   3.343   9.097 -0.4648 -0.4556  0.1390
  789MOL0     O 6439   2.151   3.341   9.182 -0.6554  0.7482  0.0532
  789MOL0     C 6440   2.265   3.253   9.139 -0.3604  0.5433 -0.6744
  789MOL0     C 6441   2.384   3.300   9.239 -0.3006 -0.4688 -0.2933
  789MOL0     C 6442   2.442   3.435   9.192  0.8010 -0.0762  0.3441
  789MOL0     C 6443   2.528   3.424   9.065  0.2234  0.5471  0.1471
  789MOL0     C 6444   2.650   3.358   9.103  0.0919 -0.3997 -0.2963
  789MOL0     C 6445   2.745   3.298   9.135 -0.0786  0.4101 -0.5433
  789MOL0     C 6446   1.924   3.390   9.144  0.7582  0.2010  0.0875
  789MOL0     C 6447   1.803   3.380   9.080 -0.2633  0.5947 -0.3802
  789MOL0     H 6448   1.354   3.254   8.931 -2.1688  0.2288  0.6625
  789MOL0     H 6449   1.154   3.273   8.787  0.5419 -0.5066 -0.8846
  789MOL0     H 6450   1.142   3.662   8.571 -1.6222  1.6646 -2.2127
  789MOL0     H 6451   1.172   3.567   8.428  0.0415  1.8235 -0.2370
  789MOL0     H 6452   0.900   3.628   8.550  0.3944  2.4167 -0.7696
  789MOL0     H 6453   0.971   3.658   8.392 -2.3340 -2.0224 -2.7696
  789MOL0     H 6454   0.997   3.439   8.318  0.1061 -2.6799  0.0214
  789MOL0     H 6455   0.944   3.368   8.456  0.4321  0.4334 -1.3446
  789MOL0     H 6456   0.723   3.471   8.458  1.3233  1.3415  1.5059
  789MOL0     H 6457   0.757   3.566   8.318  2.2756 -0.9463 -1.3641
  789MOL0     H 6458   0.811   3.300   8.230  0.5386  0.8537 -1.2438
  789MOL0     H 6459   0.682   3.292   8.346 -2.7901  0.8054 -1.7936
  789MOL0     H 6460   0.543   3.449   8.232  0.9461 -1.7071  3.1418
  789MOL0     H 6461   0.664   3.497   8.109 -1.9636  1.3005  0.2720
  789MOL0     H 6462   0.661   3.267   8.004  0.0948  0.2000 -0.0059
  789MOL0     H 6463   0.541   3.222   8.124  0.6142 -0.7008 -0.5885
  789MOL0     H 6464   0.515   3.449   7.917 -3.7203  1.9161 -1.0086
  789MOL0     H 6465   0.389   3.404   8.036  0.3362 -2.3405  1.4914
  789MOL0     H 6466   0.212   3.273   7.952  0.7144  0.2176  0.5451
  789MOL0     H 6467   0.061   3.196   7.725 -0.6637 -0.2180  2.0901
  789MOL0     H 6468   0.129   3.062   7.631  1.1642 -2.0113  0.4575
  789MOL0     H 6469   0.071   2.902   7.814 -1.6772 -0.7631 -0.9098
  789MOL0     H 6470  -0.056   3.008   7.751  0.1960  0.3302 -0.8639
  789MOL0     H 6471  -0.015   3.173   7.947 -0.9448  0.5623 -0.6301
  789MOL0     H 6472   0.087   3.038   8.016 -0.5654 -0.0423 -1.0521
  789MOL0     H 6473  -0.100   2.947   8.101  0.8791 -1.6970 -1.4503
  789MOL0     H 6474  -0.167   2.923   7.937  3.2332 -1.2402 -0.7779
  789MOL0     H 6475  -0.325   2.844   8.054 -0.6237 -1.8132  1.2028
  789MOL0     H 6476  -0.470   2.698   8.181 -0.1880  0.0242  1.5102
  789MOL0     H 6477  -0.617   2.752   8.238  0.4731  1.1151 -0.0843
  789MOL0     H 6478  -0.600   2.710   8.062  1.9732  1.0071 -1.7973
  789MOL0     H 6479  -0.943   2.869   8.440 -0.6465 -0.8450 -0.6405
  789MOL0     H 6480  -1.162   2.787   8.478  4.4412 -0.4180  0.8634
  789MOL0     H 6481  -1.412   2.746   8.067  1.6089  0.5877  0.4072
  789MOL0     H 6482  -1.411   2.597   8.162  0.4095 -0.0975  1.9097
  789MOL0     H 6483  -1.616   2.807   8.169  1.1974  1.2604  0.3996
  789MOL0     H 6484  -1.629   2.639   8.142 -1.1583  0.6648  0.0955
  789MOL0     H 6485  -1.710   2.710   8.367 -0.2942  0.6959  1.5347
  789MOL0     H 6486  -1.534   2.715   8.418  1.7747 -1.4174 -1.4141
  789MOL0     H 6487  -1.707   2.491   8.394 -0.3170 -3.3543 -4.1522
  789MOL0     H 6488  -1.595   2.470   8.265  2.8877  0.8233 -0.7594
  789MOL0     H 6489  -1.400   2.531   8.416  0.5893  0.9353  1.1306
  789MOL0     H 6490  -1.472   2.365   8.430  0.1791 -0.0848  0.0154
  789MOL0     H 6491  -1.609   2.525   8.623 -0.9529  0.2412 -1.4620
  789MOL0     H 6492  -1.515   2.378   8.625 -2.8559  0.8033  0.5047
  789MOL0     H 6493  -1.444   2.567   8.772  1.5106  0.5443  0.2835
  789MOL0     H 6494  -1.413   2.661   8.636 -0.3752  0.1924  2.1588
  789MOL0     H 6495  -1.192   2.559   8.704  0.9515 -0.9604 -0.6822
  789MOL0     H 6496  -1.234   2.469   8.562  0.8377 -1.9176  0.9565
  789MOL0     H 6497  -1.211   2.771   8.047 -0.7138 -0.1935 -0.2183
  789MOL0     H 6498  -0.998   2.785   8.013  0.3149  0.7131  0.0589
  789MOL0     H 6499  -0.607   3.218   8.217  0.5555 -1.0480  4.2631
  789MOL0     H 6500  -0.387   3.261   8.133 -2.2250  1.0202  0.0060
  789MOL0     H 6501   1.351   3.588   8.573 -2.7043  0.2972 -0.1320
  789MOL0     H 6502   1.537   3.580   8.713  1.4409 -2.0935 -1.0937
  789MOL0     H 6503   1.919   3.285   8.789 -0.1069 -1.2064  0.2500
  789MOL0     H 6504   2.125   3.260   8.912 -0.9096 -1.0226 -0.3184
  789MOL0     H 6505   2.243   3.147   9.158 -0.8356  0.7693  0.0725
  789MOL0     H 6506   2.288   3.274   9.034  0.6889  0.5066 -0.4668
  789MOL0     H 6507   2.459   3.220   9.244 -0.4111 -0.6786 -1.6680
  789MOL0     H 6508   2.344   3.321   9.339  2.0697  0.3404  0.5581
  789MOL0     H 6509   2.491   3.481   9.279  0.9237  1.2227 -0.3904
  789MOL0     H 6510   2.363   3.505   9.164 -0.7209 -2.6569 -2.2339
  789MOL0     H 6511   2.537   3.524   9.021 -1.9505  1.7361  2.1842
  789MOL0     H 6512   2.485   3.355   8.992  3.0020 -1.8588  0.6224
  789MOL0     H 6513   2.840   3.258   9.166  0.4192  0.4858 -1.9208
  789MOL0     H 6514   1.932   3.420   9.247 -1.0691 -2.7769  1.2293
  789MOL0     H 6515   1.720   3.432   9.128 -0.7373 -1.7277  1.4875
  790MOL0     O 6516   7.128   3.293   7.418  0.4254 -0.1321  0.3087
  790MOL0     C 6517   7.159   3.420   7.429  0.1091 -0.3076 -0.0504
  790MOL0     O 6518   7.088   3.515   7.505 -0.3895  0.6106  0.1692
  790MOL0     C 6519   6.962   3.504   7.554  0.5238 -0.2856 -0.1560
  790MOL0     C 6520   6.923   3.597   7.648 -0.5949  0.3238  0.0225
  790MOL0     C 6521   6.795   3.606   7.695  0.1138  0.6106 -1.1399
  790MOL0     C 6522   6.699   3.508   7.652 -0.1663  0.0690  0.2626
  790MOL0     O 6523   6.568   3.500   7.700 -0.7543 -0.0195  0.4631
  790MOL0     C 6524   6.507   3.624   7.747  0.5266  0.6384 -0.9098
  790MOL0     C 6525   6.367   3.622   7.694  0.1037  0.6484  0.1619
  790MOL0     C 6526   6.365   3.624   7.542 -0.1321  0.2731  0.3888
  790MOL0     C 6527   6.217   3.652   7.490 -0.0753  0.3373  0.0624
  790MOL0     C 6528   6.210   3.656   7.334 -0.6193 -0.7559 -1.2368
  790MOL0     C 6529   6.076   3.612   7.277  0.0868 -0.2670  0.4634
  790MOL0     C 6530   5.968   3.723   7.321 -0.0634 -0.0646  0.6851
  790MOL0     C 6531   5.829   3.668   7.287  0.1533 -0.2680  0.4460
  790MOL0     N 6532   5.801   3.655   7.145  0.2102  0.0031 -0.1861
  790MOL0     C 6533   5.733   3.555   7.088  0.3105 -0.1191 -0.3605
  790MOL0     C 6534   5.725   3.587   6.954 -0.3658 -0.2252 -0.7012
  790MOL0     C 6535   5.645   3.513   6.857  0.2634  0.5142 -0.6625
  790MOL0     C 6536   5.506   3.575   6.837  0.6536 -0.8924  0.9359
  790MOL0     C 6537   5.426   3.563   6.967 -0.6541 -0.7620  0.0471
  790MOL0     C 6538   5.289   3.622   6.939 -0.0257  0.0538  0.3919
  790MOL0     O 6539   5.215   3.517   6.873 -0.7564 -0.6037  0.3530
  790MOL0     C 6540   5.078   3.520   6.885 -0.2243 -0.3337  0.7537
  790MOL0     C 6541   5.019   3.393   6.861  0.0773  0.3226 -0.3042
  790MOL0     C 6542   4.877   3.375   6.863  0.2886 -0.0301  0.7737
  790MOL0     C 6543   4.822   3.234   6.826  0.4926  0.5277  0.1502
  790MOL0     C 6544   4.791   3.490   6.874  0.3661  0.0472  0.0074
  790MOL0     C 6545   4.637   3.481   6.872  0.4405 -1.1443 -0.2106
  790MOL0     O 6546   4.569   3.599   6.903  0.3931 -0.0238 -0.0985
  790MOL0     C 6547   4.433   3.582   6.925 -0.0932 -0.1532  0.0661
  790MOL0     C 6548   4.346   3.567   6.816 -0.2120  0.3949 -0.2907
  790MOL0     C 6549   4.210   3.538   6.832 -0.3498  0.3789  0.6726
  790MOL0     C 6550   4.159   3.533   6.962  0.0830  0.4801  0.5980
  790MOL0     O 6551   4.020   3.519   6.977  0.5487 -0.0595 -1.4387
  790MOL0     C 6552   3.960   3.558   7.102 -0.4607 -0.7420 -0.2607
  790MOL0     C 6553   3.810   3.574   7.070 -0.1521  0.6072  0.7740
  790MOL0     C 6554   3.728   3.611   7.189 -0.1085 -0.0139  0.0802
  790MOL0     C 6555   3.578   3.604   7.169 -0.0866  0.0075  0.6002
  790MOL0     C 6556   3.536   3.699   7.056 -0.9488  0.3267  0.0088
  790MOL0     C 6557   3.388   3.701   7.031  0.1106 -0.0487  0.2775
  790MOL0     C 6558   3.332   3.791   6.921 -0.2143 -0.4759  0.8225
  790MOL0     C 6559   3.335   3.945   6.942 -0.0439 -0.2065 -0.1397
  790MOL0    Cl 6560   3.254   3.997   7.088  0.4040 -0.0341  0.0351
  790MOL0     C 6561   4.245   3.542   7.076  0.5954  0.7730 -0.3148
  790MOL0     C 6562   4.381   3.575   7.055 -0.3693 -0.0365  0.3182
  790MOL0     O 6563   4.580   3.374   6.857 -0.7887 -0.0514 -0.1226
  790MOL0     C 6564   4.847   3.615   6.906  0.6395  0.0632  0.0415
  790MOL0     C 6565   4.986   3.627   6.907 -0.2090  0.9765 -0.1856
  790MOL0     N 6566   5.778   3.713   6.941  0.3006 -0.0214  0.5075
  790MOL0     N 6567   5.815   3.755   7.056 -0.2167  0.6851  0.1325
  790MOL0     C 6568   6.730   3.412   7.559 -0.8810 -0.7908 -0.1880
  790MOL0     C 6569   6.860   3.415   7.511  0.0221  0.1569  0.2430
  790MOL0     C 6570   7.263   3.452   7.339 -0.5557 -0.4850  0.9991
  790MOL0     C 6571   7.307   3.584   7.315  1.1297 -0.3941  0.4745
  790MOL0     C 6572   7.401   3.614   7.220 -0.1952  0.1051  0.3307
  790MOL0     C 6573   7.472   3.518   7.144  0.2600  0.0149 -0.2302
  790MOL0     O 6574   7.575   3.567   7.068  0.2886 -0.4608  0.0233
  790MOL0     C 6575   7.640   3.459   7.001 -0.1726  0.5239  0.7161
  790MOL0     C 6576   7.743   3.520   6.910  0.5330  0.4073 -0.1216
  790MOL0     C 6577   7.835   3.614   6.988 -0.1179 -0.5682 -0.0708
  790MOL0     C 6578   7.961   3.654   6.912  0.0198  0.5526 -0.5771
  790MOL0     C 6579   8.073   3.560   6.934 -0.6060 -1.2486 -0.7046
  790MOL0     C 6580   8.174   3.497   6.956 -0.1257 -0.2228 -0.7380
  790MOL0     C 6581   7.430   3.388   7.160 -0.6064 -0.2933 -0.0512
  790MOL0     C 6582   7.331   3.359   7.258  0.8819  0.6324  0.0602
  790MOL0     H 6583   7.001   3.666   7.680 -1.8345  1.4547  0.6978
  790MOL0     H 6584   6.775   3.683   7.770  2.4325 -1.4217  1.8267
  790MOL0     H 6585   6.496   3.623   7.856  1.0860 -0.9368 -0.8412
  790MOL0     H 6586   6.557   3.713   7.708  0.7869  1.5294  1.3061
  790MOL0     H 6587   6.315   3.533   7.729  0.0813  0.1087 -1.2058
  790MOL0     H 6588   6.313   3.710   7.733  0.0755  0.8908 -0.4197
  790MOL0     H 6589   6.434   3.693   7.493  0.6479 -1.1533 -0.6151
  790MOL0     H 6590   6.387   3.528   7.495  0.8941  1.0676 -0.7971
  790MOL0     H 6591   6.156   3.565   7.517 -1.7931  0.9560 -1.6083
  790MOL0     H 6592   6.174   3.747   7.522  0.9759  0.3034  1.6621
  790MOL0     H 6593   6.235   3.760   7.314 -0.7701  0.3129  3.1771
  790MOL0     H 6594   6.278   3.596   7.272  0.6107  1.6163 -2.3044
  790MOL0     H 6595   6.094   3.601   7.169 -0.7882  3.3769 -0.1871
  790MOL0     H 6596   6.048   3.519   7.326 -1.8043  0.1279  0.1873
  790MOL0     H 6597   5.981   3.745   7.427 -0.3035  2.6319  0.2442
  790MOL0     H 6598   5.989   3.814   7.263  0.2190 -0.8955 -0.5718
  790MOL0     H 6599   5.763   3.744   7.331 -1.7386 -0.8917 -1.1931
  790MOL0     H 6600   5.808   3.576   7.342  2.5083  1.1099  4.0337
  790MOL0     H 6601   5.685   3.478   7.148  3.2879 -1.5247  0.4424
  790MOL0     H 6602   5.705   3.526   6.766  0.1266  1.9710 -0.5628
  790MOL0     H 6603   5.650   3.404   6.868 -1.5554  0.6155  1.8565
  790MOL0     H 6604   5.458   3.524   6.753  0.7321 -0.0941  0.3870
  790MOL0     H 6605   5.517   3.682   6.813 -0.8738  0.0620  4.0406
  790MOL0     H 6606   5.483   3.620   7.042  0.7274 -0.7613 -0.9601
  790MOL0     H 6607   5.423   3.462   7.010 -1.7539  0.4546  3.0882
  790MOL0     H 6608   5.291   3.706   6.868 -0.8754 -0.8295 -0.7254
  790MOL0     H 6609   5.246   3.650   7.036  2.0094 -2.5219  2.1605
  790MOL0     H 6610   5.078   3.304   6.844 -0.7290  0.0372 -1.7243
  790MOL0     H 6611   4.901   3.171   6.786  1.1443  2.2301 -1.4077
  790MOL0     H 6612   4.771   3.182   6.907 -1.9514 -2.6551 -3.0827
  790MOL0     H 6613   4.751   3.238   6.743  1.1160 -0.9709 -0.4911
  790MOL0     H 6614   4.392   3.591   6.720 -1.8430 -1.5780 -1.6537
  790MOL0     H 6615   4.153   3.539   6.739  1.5238 -0.8953 -0.5578
  790MOL0     H 6616   3.982   3.490   7.185  3.3355  2.1074  1.3739
  790MOL0     H 6617   3.999   3.656   7.129  0.7657 -1.6179  1.3441
  790MOL0     H 6618   3.798   3.654   6.997 -1.2356  0.0688  0.3286
  790MOL0     H 6619   3.773   3.475   7.042  1.6684 -1.6031  5.2410
  790MOL0     H 6620   3.751   3.712   7.224 -0.8002  0.7974 -1.6915
  790MOL0     H 6621   3.745   3.535   7.266  0.1425 -1.4403 -1.3402
  790MOL0     H 6622   3.544   3.506   7.135 -1.5403  0.8898 -0.6212
  790MOL0     H 6623   3.529   3.628   7.264  0.6409 -4.8630  2.5426
  790MOL0     H 6624   3.577   3.668   6.960 -3.1929 -1.5029 -0.4399
  790MOL0     H 6625   3.573   3.801   7.074 -1.4208  0.6713 -0.9367
  790MOL0     H 6626   3.355   3.600   7.004 -4.9478  2.0327 -2.8498
  790MOL0     H 6627   3.343   3.733   7.125  1.3873  1.1096  0.5265
  790MOL0     H 6628   3.229   3.763   6.896  0.0436 -0.0198 -0.8633
  790MOL0     H 6629   3.383   3.773   6.826  1.2170  1.6675  1.1234
  790MOL0     H 6630   3.291   3.998   6.856  1.0331 -0.8118 -1.0989
  790MOL0     H 6631   3.441   3.971   6.942  0.5520 -2.1263  3.1346
  790MOL0     H 6632   4.205   3.524   7.175  1.6420 -0.2528 -0.0607
  790MOL0     H 6633   4.449   3.584   7.139  2.3950  0.5295 -1.8478
  790MOL0     H 6634   4.795   3.703   6.943  1.0208  0.5387 -0.5335
  790MOL0     H 6635   5.030   3.727   6.910  2.6102 -0.0275 -2.8873
  790MOL0     H 6636   6.657   3.333   7.548 -1.3335 -0.5313  0.8268
  790MOL0     H 6637   6.886   3.342   7.435  1.3873  0.0170  0.8141
  790MOL0     H 6638   7.279   3.675   7.368  0.4120 -0.1818 -0.2565
  790MOL0     H 6639   7.431   3.719   7.210  0.7843 -0.2742 -1.1044
  790MOL0     H 6640   7.691   3.389   7.068  0.3592 -1.8148 -1.9191
  790MOL0     H 6641   7.559   3.409   6.946 -0.8404  3.1268 -0.8390
  790MOL0     H 6642   7.701   3.562   6.817 -2.1122 -1.0485  0.3130
  790MOL0     H 6643   7.815   3.442   6.882  0.7467  0.5544  0.0156
  790MOL0     H 6644   7.867   3.572   7.083 -0.3601 -2.1157 -0.6385
  790MOL0     H 6645   7.777   3.706   6.996  0.2713 -0.1048 -2.0116
  790MOL0     H 6646   8.009   3.752   6.925  1.5262  0.0374 -2.0407
  790MOL0     H 6647   7.940   3.651   6.805  0.0943 -2.0246 -0.5726
  790MOL0     H 6648   8.263   3.438   6.968  0.6893  1.2371  0.7565
  790MOL0     H 6649   7.478   3.309   7.104 -1.4998 -1.6019  0.9629
  790MOL0     H 6650   7.292   3.258   7.255 -0.8579  1.2604 -2.2321
  791MOL0     O 6651   8.471   1.759  10.899 -0.0473  0.0054 -0.0428
  791MOL0     C 6652   8.550   1.685  10.953 -0.9630  0.3614 -0.5543
  791MOL0     O 6653   8.523   1.617  11.072  0.1986 -0.3679  0.5108
  791MOL0     C 6654   8.391   1.617  11.109  0.1537 -0.5407  0.8914
  791MOL0     C 6655   8.291   1.545  11.041  1.0283  0.6042  0.2945
  791MOL0     C 6656   8.155   1.543  11.087 -0.5854 -0.0149  0.0629
  791MOL0     C 6657   8.113   1.620  11.192 -0.5365  0.3795 -0.7296
  791MOL0     O 6658   7.976   1.611  11.219  1.1580  0.1515  0.3552
  791MOL0     C 6659   7.939   1.683  11.342 -0.4141  0.1159 -0.0047
  791MOL0     C 6660   7.796   1.681  11.384 -0.1243 -0.8454  0.5262
  791MOL0     C 6661   7.729   1.543  11.392  0.3980 -0.0874  0.0421
  791MOL0     C 6662   7.588   1.543  11.444  0.3502  0.4363 -0.2369
  791MOL0     C 6663   7.519   1.404  11.430  0.4631 -0.3102  0.2238
  791MOL0     C 6664   7.369   1.431  11.429 -0.0942 -0.5280  0.4190
  791MOL0     C 6665   7.327   1.488  11.572  0.1703  0.0314  1.0570
  791MOL0     C 6666   7.174   1.506  11.592  0.5901  0.2577 -0.2695
  791MOL0     N 6667   7.137   1.529  11.737  0.4639  0.4455  0.1006
  791MOL0     C 6668   7.123   1.651  11.803  0.5633  0.8273 -0.0244
  791MOL0     C 6669   7.099   1.602  11.929 -0.1254  0.2157 -0.5648
  791MOL0     C 6670   7.093   1.684  12.060 -0.1693  0.0527 -0.0248
  791MOL0     C 6671   6.952   1.692  12.106  0.9613  0.1760  0.1675
  791MOL0     C 6672   6.944   1.735  12.259  0.0203  0.1273  1.3062
  791MOL0     C 6673   6.827   1.669  12.327  0.6633  0.4172 -0.0974
  791MOL0     O 6674   6.823   1.725  12.459  0.1175  0.0984  0.0402
  791MOL0     C 6675   6.744   1.666  12.561 -0.0902 -0.1326  0.0705
  791MOL0     C 6676   6.674   1.554  12.544  0.1253 -0.4563  0.4804
  791MOL0     C 6677   6.589   1.499  12.649 -0.6761  0.3433  0.2796
  791MOL0     C 6678   6.508   1.365  12.634  0.3317  0.1695  0.2584
  791MOL0     C 6679   6.560   1.585  12.754 -0.3270  0.3314 -0.1303
  791MOL0     C 6680   6.444   1.565  12.843 -0.7944 -0.4127 -0.0427
  791MOL0     O 6681   6.324   1.533  12.786  0.1116 -0.2195  0.0438
  791MOL0     C 6682   6.213   1.539  12.870  0.0549  0.2646 -0.4825
  791MOL0     C 6683   6.160   1.665  12.908 -0.2350 -0.4752  0.7120
  791MOL0     C 6684   6.033   1.671  12.970 -0.1478  0.8786  0.0254
  791MOL0     C 6685   5.956   1.550  12.986  0.3514 -0.3987 -0.1698
  791MOL0     O 6686   5.826   1.557  13.042  0.1539 -0.1107  0.8060
  791MOL0     C 6687   5.727   1.501  12.953  0.7868 -0.5245  1.1141
  791MOL0     C 6688   5.592   1.584  12.971  0.0748  0.0562 -0.4722
  791MOL0     C 6689   5.499   1.543  13.094 -0.4904 -0.2779  1.2656
  791MOL0     C 6690   5.454   1.390  13.093 -0.0591 -0.1462 -0.1452
  791MOL0     C 6691   5.351   1.352  13.196  0.2835  0.0935  0.2796
  791MOL0     C 6692   5.402   1.352  13.347  1.2042 -0.3791 -0.6470
  791MOL0     C 6693   5.302   1.299  13.455 -0.4724  0.7957  0.2856
  791MOL0     C 6694   5.350   1.306  13.601  0.1904  0.1226 -0.1297
  791MOL0    Cl 6695   5.493   1.199  13.606  0.1227  0.4301 -0.0949
  791MOL0     C 6696   6.017   1.432  12.950  1.1752  0.3673 -0.0348
  791MOL0     C 6697   6.139   1.428  12.888  0.1897 -0.0833 -0.1869
  791MOL0     O 6698   6.471   1.598  12.959  1.0039  0.1695  0.0956
  791MOL0     C 6699   6.639   1.702  12.776 -1.2423 -0.4434  0.1949
  791MOL0     C 6700   6.728   1.738  12.675  0.2441 -0.2423 -0.3654
  791MOL0     N 6701   7.105   1.460  11.925  0.4931  0.2215 -0.2312
  791MOL0     N 6702   7.129   1.416  11.809  0.9981  0.3385 -0.3335
  791MOL0     C 6703   8.211   1.687  11.273 -0.2750  1.0881 -0.5039
  791MOL0     C 6704   8.348   1.682  11.233  0.5323 -1.3863 -0.8142
  791MOL0     C 6705   8.687   1.711  10.915  0.2194 -0.3855  0.0452
  791MOL0     C 6706   8.742   1.736  10.787 -0.8343 -0.4170  0.6982
  791MOL0     C 6707   8.875   1.754  10.762 -0.2745 -0.0095  0.1187
  791MOL0     C 6708   8.966   1.748  10.861  0.0720 -0.5394 -0.2721
  791MOL0     O 6709   9.099   1.773  10.832 -0.3340  0.9643 -0.0949
  791MOL0     C 6710   9.183   1.680  10.898 -0.8321 -0.7949  0.4007
  791MOL0     C 6711   9.324   1.715  10.842 -0.5414 -0.4881 -0.4648
  791MOL0     C 6712   9.441   1.672  10.933  0.7360  1.1715  0.2884
  791MOL0     C 6713   9.568   1.748  10.908 -0.6399 -1.1509  0.7084
  791MOL0     C 6714   9.632   1.705  10.777  0.2482 -0.3855 -0.1914
  791MOL0     C 6715   9.694   1.697  10.671  0.1765  0.6044 -1.1504
  791MOL0     C 6716   8.926   1.712  10.990  0.5677  0.6874 -0.6000
  791MOL0     C 6717   8.788   1.691  11.011 -0.8464  0.4044 -0.1469
  791MOL0     H 6718   8.324   1.487  10.956 -0.6164 -1.4980  0.9946
  791MOL0     H 6719   8.080   1.485  11.034 -0.7986 -3.7886  3.9703
  791MOL0     H 6720   7.994   1.639  11.425 -0.2446 -1.1446 -0.7578
  791MOL0     H 6721   7.967   1.787  11.328  0.4028  0.1608  1.7194
  791MOL0     H 6722   7.797   1.736  11.479  2.2357  1.8456 -0.8952
  791MOL0     H 6723   7.738   1.743  11.316  1.0632  0.6924  0.8515
  791MOL0     H 6724   7.727   1.502  11.291  1.8119  2.8259 -1.2848
  791MOL0     H 6725   7.789   1.481  11.460  1.4879  0.6765 -0.2073
  791MOL0     H 6726   7.592   1.581  11.547  0.1908 -1.8204  0.6535
  791MOL0     H 6727   7.534   1.621  11.390  1.4777  1.5464  0.1826
  791MOL0     H 6728   7.549   1.360  11.335  0.4768 -0.0154  0.0916
  791MOL0     H 6729   7.547   1.336  11.511 -1.1347  1.5331  2.5015
  791MOL0     H 6730   7.340   1.502  11.350  1.3974 -1.5709 -1.1304
  791MOL0     H 6731   7.327   1.331  11.413 -1.5624  0.0206  0.6633
  791MOL0     H 6732   7.372   1.416  11.642  0.0546 -0.0952  1.0024
  791MOL0     H 6733   7.375   1.583  11.597 -1.5894  1.0218  0.8154
  791MOL0     H 6734   7.118   1.420  11.554  1.8310 -0.9402  0.5047
  791MOL0     H 6735   7.145   1.595  11.536  1.7016 -0.7809 -2.6051
  791MOL0     H 6736   7.143   1.750  11.763 -0.4179  1.3566  0.7475
  791MOL0     H 6737   7.140   1.615  12.131 -0.0776 -2.0348 -1.9868
  791MOL0     H 6738   7.134   1.785  12.048 -0.4537  0.1248 -0.3711
  791MOL0     H 6739   6.905   1.594  12.099  0.3815  0.4923 -0.4671
  791MOL0     H 6740   6.899   1.767  12.047 -2.6934 -0.4687  2.3573
  791MOL0     H 6741   6.924   1.842  12.249 -1.8022 -0.4095 -3.0956
  791MOL0     H 6742   7.031   1.713  12.320  0.7264  2.4668  1.2251
  791MOL0     H 6743   6.841   1.562  12.343 -0.7052 -0.0025 -1.5094
  791MOL0     H 6744   6.729   1.690  12.284  1.0587  2.9284  0.0818
  791MOL0     H 6745   6.674   1.487  12.459 -0.7998  1.6402 -1.2766
  791MOL0     H 6746   6.405   1.384  12.601 -0.2268 -1.3727  1.0109
  791MOL0     H 6747   6.558   1.296  12.566  0.2567 -0.3408  0.7072
  791MOL0     H 6748   6.497   1.321  12.734  0.9902  2.4389  1.3960
  791MOL0     H 6749   6.223   1.751  12.888  1.3126 -1.9148 -1.0251
  791MOL0     H 6750   5.992   1.770  12.985 -0.5887  0.5380  1.1788
  791MOL0     H 6751   5.756   1.514  12.848 -2.6110 -1.4266 -0.0398
  791MOL0     H 6752   5.710   1.395  12.976 -2.3907  0.1470  2.2532
  791MOL0     H 6753   5.607   1.691  12.989 -0.8444 -0.2618  2.8789
  791MOL0     H 6754   5.532   1.568  12.881 -0.2945  1.9491 -0.6006
  791MOL0     H 6755   5.418   1.617  13.091  0.9159  1.3001  0.6595
  791MOL0     H 6756   5.553   1.546  13.189 -0.4735 -1.1877  1.2910
  791MOL0     H 6757   5.420   1.355  12.996  1.6884 -3.1635  0.1899
  791MOL0     H 6758   5.546   1.338  13.123  0.0027  0.5199  0.8875
  791MOL0     H 6759   5.317   1.252  13.166  0.1197  0.4172 -0.6353
  791MOL0     H 6760   5.270   1.425  13.199 -0.3380 -0.5651 -0.2813
  791MOL0     H 6761   5.500   1.303  13.350  3.1627  3.2105 -0.9579
  791MOL0     H 6762   5.436   1.455  13.362  1.6062 -0.4519 -1.0384
  791MOL0     H 6763   5.272   1.195  13.438  2.7411 -0.3518  0.8733
  791MOL0     H 6764   5.213   1.361  13.443 -1.2727  0.1721  2.5184
  791MOL0     H 6765   5.263   1.278  13.662  1.7928 -3.5838  0.7503
  791MOL0     H 6766   5.373   1.412  13.614  3.7177 -0.3340 -1.5416
  791MOL0     H 6767   5.967   1.336  12.960 -0.4459  1.2142  0.3625
  791MOL0     H 6768   6.171   1.333  12.846 -0.2394 -0.1246 -0.4223
  791MOL0     H 6769   6.628   1.772  12.858 -1.6097  0.1630 -0.3700
  791MOL0     H 6770   6.791   1.826  12.691  0.4981 -0.7893  2.0575
  791MOL0     H 6771   8.170   1.732  11.363 -1.8422 -2.1978  0.5667
  791MOL0     H 6772   8.424   1.742  11.281 -0.6635  0.1045 -0.7147
  791MOL0     H 6773   8.682   1.751  10.698 -1.1115 -0.5439  0.8609
  791MOL0     H 6774   8.891   1.768  10.655 -2.2511 -1.0313 -0.3834
  791MOL0     H 6775   9.179   1.702  11.005 -3.2968  1.3781 -0.0533
  791MOL0     H 6776   9.150   1.578  10.874 -2.4106 -0.4838  1.1609
  791MOL0     H 6777   9.344   1.820  10.821 -0.4073 -0.0094  1.8306
  791MOL0     H 6778   9.324   1.658  10.749 -1.8791  0.8113 -1.3010
  791MOL0     H 6779   9.467   1.566  10.927  0.7257  1.0880  1.4856
  791MOL0     H 6780   9.406   1.686  11.035  1.3821  0.1961  0.6637
  791MOL0     H 6781   9.634   1.738  10.995 -0.9501  1.0699  1.2733
  791MOL0     H 6782   9.544   1.855  10.914  1.5566 -0.6553  2.0797
  791MOL0     H 6783   9.758   1.681  10.586  1.2485 -1.2303 -0.0731
  791MOL0     H 6784   8.986   1.700  11.080 -0.6458 -2.2803 -0.0925
  791MOL0     H 6785   8.765   1.668  11.114 -1.3963  0.7817 -0.1840
  792MOL0     O 6786   1.196  10.768   6.633  0.1821 -0.1516  0.3132
  792MOL0     C 6787   1.246  10.665   6.586 -0.3035 -0.0934 -0.3239
  792MOL0     O 6788   1.178  10.571   6.526  0.2248 -0.1639 -0.8710
  792MOL0     C 6789   1.041  10.556   6.566 -0.5385  0.1088  0.2392
  792MOL0     C 6790   0.955  10.511   6.465  0.7561  0.6389  0.1402
  792MOL0     C 6791   0.821  10.492   6.488  0.6626  0.1788 -0.5939
  792MOL0     C 6792   0.764  10.514   6.613 -0.5502  0.3436 -0.7526
  792MOL0     O 6793   0.631  10.487   6.638 -0.0787 -0.1017  0.2583
  792MOL0     C 6794   0.580  10.481   6.775 -0.0107 -0.7387 -0.8236
  792MOL0     C 6795   0.443  10.422   6.761 -0.6715  0.7544  0.5238
  792MOL0     C 6796   0.338  10.507   6.675 -0.0311 -0.3275 -1.1051
  792MOL0     C 6797   0.277  10.599   6.773 -0.1983  0.5595 -0.3455
  792MOL0     C 6798   0.237  10.731   6.710  1.1904 -0.9830  0.2878
  792MOL0     C 6799   0.131  10.799   6.795  0.4044  0.9145  0.1480
  792MOL0     C 6800   0.064  10.909   6.719  0.0831 -0.0109 -0.2324
  792MOL0     C 6801  -0.060  10.965   6.794 -0.2825 -0.3155 -0.0862
  792MOL0     N 6802  -0.186  10.903   6.743  0.1027  0.5714 -0.1842
  792MOL0     C 6803  -0.212  10.767   6.749  0.7864  0.3016 -0.3668
  792MOL0     C 6804  -0.336  10.756   6.692 -0.0675 -0.2786  0.4353
  792MOL0     C 6805  -0.419  10.632   6.661  0.1479 -0.3971  0.0528
  792MOL0     C 6806  -0.440  10.527   6.770 -0.4802 -0.0567 -0.1094
  792MOL0     C 6807  -0.498  10.398   6.720  0.0965 -0.1805 -0.2848
  792MOL0     C 6808  -0.619  10.424   6.624  0.3306  0.6941 -0.1187
  792MOL0     O 6809  -0.727  10.508   6.677 -0.3492 -0.3915 -0.3667
  792MOL0     C 6810  -0.826  10.450   6.757 -1.1681 -0.5046  0.0540
  792MOL0     C 6811  -0.811  10.348   6.851 -0.1202  0.4110  0.0514
  792MOL0     C 6812  -0.910  10.316   6.940  0.5550 -0.9878  1.1404
  792MOL0     C 6813  -0.875  10.222   7.046  0.1760  0.2121  0.7362
  792MOL0     C 6814  -1.038  10.377   6.928 -0.4676  0.2429 -0.5200
  792MOL0     C 6815  -1.162  10.338   7.003 -0.4214  0.4814 -0.0257
  792MOL0     O 6816  -1.277  10.400   6.976 -0.5524 -0.0525 -0.2639
  792MOL0     C 6817  -1.393  10.373   7.034  0.0013 -0.1705 -0.5606
  792MOL0     C 6818  -1.490  10.293   6.965 -0.6362  0.2874  0.8294
  792MOL0     C 6819  -1.607  10.265   7.027  0.6314  0.3119 -0.4645
  792MOL0     C 6820  -1.637  10.311   7.159  0.8029 -0.2202 -0.0591
  792MOL0     O 6821  -1.754  10.267   7.205 -0.4124  0.1479 -0.0123
  792MOL0     C 6822  -1.802  10.305   7.336 -0.3794 -0.2957  0.7608
  792MOL0     C 6823  -1.892  10.200   7.399 -0.4790 -1.0435 -0.5607
  792MOL0     C 6824  -2.037  10.203   7.332  0.2984  0.2202 -0.3034
  792MOL0     C 6825  -2.132  10.306   7.402  0.3697 -0.4162 -0.4341
  792MOL0     C 6826  -2.280  10.283   7.360  0.0928  0.2014 -0.5717
  792MOL0     C 6827  -2.366  10.406   7.415  0.5876  0.1281 -0.5837
  792MOL0     C 6828  -2.509  10.389   7.350  0.2522  0.7274 -0.3185
  792MOL0     C 6829  -2.521  10.442   7.205  0.2370 -0.0080 -0.1976
  792MOL0    Cl 6830  -2.492  10.620   7.200 -0.0569 -0.1642 -0.1488
  792MOL0     C 6831  -1.547  10.398   7.225 -0.3372 -0.1881 -0.2269
  792MOL0     C 6832  -1.426  10.429   7.160  0.4083  1.1098 -0.1094
  792MOL0     O 6833  -1.154  10.258   7.097 -0.3673  0.2553  0.6773
  792MOL0     C 6834  -1.049  10.475   6.829  0.3286 -0.4891 -0.0039
  792MOL0     C 6835  -0.947  10.517   6.745 -0.5284  0.8345  0.2523
  792MOL0     N 6836  -0.378  10.883   6.641 -0.5279  0.0512  0.1801
  792MOL0     N 6837  -0.284  10.969   6.679 -0.3749  0.0957 -0.9593
  792MOL0     C 6838   0.851  10.555   6.718 -0.0855  0.4691  0.0948
  792MOL0     C 6839   0.989  10.579   6.695  0.9264 -0.5061 -1.0180
  792MOL0     C 6840   1.392  10.655   6.580  0.6562 -0.7868 -0.1162
  792MOL0     C 6841   1.470  10.764   6.612 -0.8287  0.5104  0.1067
  792MOL0     C 6842   1.613  10.752   6.609  0.0375 -0.1582 -0.5431
  792MOL0     C 6843   1.667  10.624   6.597 -0.2406  0.1857  0.1911
  792MOL0     O 6844   1.803  10.613   6.618  0.6614  0.3690 -0.3813
  792MOL0     C 6845   1.880  10.497   6.583  0.0237  0.2332 -0.7617
  792MOL0     C 6846   2.019  10.540   6.583  0.1482 -0.0456  0.0783
  792MOL0     C 6847   2.117  10.420   6.556  0.1080 -0.1055  1.3198
  792MOL0     C 6848   2.097  10.356   6.411 -0.4337 -0.3778  0.4977
  792MOL0     C 6849   2.141  10.465   6.321 -0.3880  0.4284  1.0049
  792MOL0     C 6850   2.175  10.538   6.227  0.9561 -0.5200 -0.6776
  792MOL0     C 6851   1.584  10.513   6.578  0.1564 -0.0589  0.5674
  792MOL0     C 6852   1.450  10.530   6.566 -0.0082 -1.0475  1.0625
  792MOL0     H 6853   1.007  10.491   6.372  0.1374 -0.0884 -0.0665
  792MOL0     H 6854   0.743  10.459   6.420  0.5393 -0.0967 -0.3211
  792MOL0     H 6855   0.638  10.410   6.834  0.4874  1.3184  1.2582
  792MOL0     H 6856   0.558  10.581   6.812 -3.8158 -1.1463 -1.4866
  792MOL0     H 6857   0.473  10.331   6.708  0.7046  1.4635  0.0468
  792MOL0     H 6858   0.391  10.400   6.854  1.1526  0.4849  1.5186
  792MOL0     H 6859   0.399  10.555   6.597  2.1867 -1.5671 -0.2161
  792MOL0     H 6860   0.256  10.446   6.637  1.7464 -1.5219 -3.2535
  792MOL0     H 6861   0.201  10.551   6.836  1.5447  0.6183  1.9413
  792MOL0     H 6862   0.355  10.640   6.838 -0.2711 -1.3656  1.0733
  792MOL0     H 6863   0.324  10.794   6.692  3.1955 -3.6485  0.0019
  792MOL0     H 6864   0.196  10.708   6.611 -1.3386 -0.6650  1.1901
  792MOL0     H 6865   0.062  10.718   6.818  0.4255 -0.7114 -4.5164
  792MOL0     H 6866   0.178  10.835   6.887 -1.9365  1.0660  1.3454
  792MOL0     H 6867   0.136  10.989   6.699 -0.5001  0.1546 -1.8385
  792MOL0     H 6868   0.037  10.866   6.622  1.8449  1.5946 -1.5017
  792MOL0     H 6869  -0.061  11.073   6.781 -0.3949 -0.2290  0.6276
  792MOL0     H 6870  -0.039  10.946   6.899 -3.0328 -1.0485  0.4192
  792MOL0     H 6871  -0.160  10.685   6.798 -2.3426 -1.4827  0.1937
  792MOL0     H 6872  -0.521  10.669   6.647 -0.3330 -0.1519  3.4222
  792MOL0     H 6873  -0.391  10.582   6.568  0.8626 -0.9422  0.5471
  792MOL0     H 6874  -0.510  10.569   6.843  0.5005  2.0077 -0.2665
  792MOL0     H 6875  -0.345  10.512   6.822 -1.3021  0.8913  1.7856
  792MOL0     H 6876  -0.527  10.339   6.808  3.7568  1.0757  1.9888
  792MOL0     H 6877  -0.428  10.340   6.660  1.2728  1.0653 -0.1600
  792MOL0     H 6878  -0.661  10.328   6.590 -0.1349  1.5052 -1.9776
  792MOL0     H 6879  -0.579  10.465   6.531  0.3430  0.4389 -0.2285
  792MOL0     H 6880  -0.712  10.306   6.861 -0.4155 -1.1672 -2.7119
  792MOL0     H 6881  -0.940  10.134   7.034  0.7995 -0.1066 -0.5463
  792MOL0     H 6882  -0.767  10.205   7.035  0.4670  2.3756 -0.2573
  792MOL0     H 6883  -0.908  10.259   7.143  0.5229  0.8738  0.6066
  792MOL0     H 6884  -1.472  10.248   6.868 -1.4016  1.9299 -0.1186
  792MOL0     H 6885  -1.680  10.196   6.986  1.4897  0.8026 -3.0036
  792MOL0     H 6886  -1.714  10.318   7.400  0.0426  0.3650  0.0569
  792MOL0     H 6887  -1.852  10.402   7.329  0.0887 -0.0496  0.7782
  792MOL0     H 6888  -1.842  10.104   7.383  0.4120 -1.0335  1.7452
  792MOL0     H 6889  -1.906  10.208   7.508  1.7793  4.5357 -0.3422
  792MOL0     H 6890  -2.089  10.107   7.337 -2.0051  1.1670 -3.4356
  792MOL0     H 6891  -2.037  10.223   7.224 -2.8432  3.0882  0.0587
  792MOL0     H 6892  -2.128  10.300   7.511 -0.6055  1.2741 -0.2678
  792MOL0     H 6893  -2.090  10.403   7.375  1.7535 -1.2197 -1.3348
  792MOL0     H 6894  -2.308  10.185   7.399  1.5908  0.3704  1.0414
  792MOL0     H 6895  -2.299  10.286   7.252 -2.9781  2.6072 -0.1130
  792MOL0     H 6896  -2.368  10.398   7.524  1.4014 -2.7602 -0.6873
  792MOL0     H 6897  -2.329  10.498   7.369 -0.9884  2.7686  3.0240
  792MOL0     H 6898  -2.569  10.449   7.419 -0.5414 -0.3142 -0.0655
  792MOL0     H 6899  -2.548  10.287   7.339  1.3673  0.2697 -0.1113
  792MOL0     H 6900  -2.628  10.439   7.180  0.1152  0.0895  0.3132
  792MOL0     H 6901  -2.462  10.396   7.125  1.2018 -0.5721  0.8289
  792MOL0     H 6902  -1.554  10.436   7.326 -0.9745  2.4228 -1.1648
  792MOL0     H 6903  -1.358  10.508   7.191  2.3887 -0.7088  0.4666
  792MOL0     H 6904  -1.142  10.531   6.826 -0.1897 -1.2735 -3.7107
  792MOL0     H 6905  -0.965  10.601   6.679  2.2023 -0.0151 -1.7721
  792MOL0     H 6906   0.816  10.587   6.816 -2.0302 -4.6365  1.3408
  792MOL0     H 6907   1.052  10.620   6.774 -1.5052  1.6586 -0.0759
  792MOL0     H 6908   1.424  10.860   6.632 -1.7627 -0.3369  2.4028
  792MOL0     H 6909   1.670  10.843   6.627  0.7614 -0.0401 -3.1191
  792MOL0     H 6910   1.876  10.424   6.664  1.5116  0.5192 -0.4172
  792MOL0     H 6911   1.858  10.454   6.484  0.8608 -0.1267 -0.7903
  792MOL0     H 6912   2.034  10.584   6.682 -2.0984  2.0521 -0.4161
  792MOL0     H 6913   2.036  10.615   6.504  0.9740  0.1916  0.4737
  792MOL0     H 6914   2.094  10.344   6.631 -2.2870 -1.4574 -0.6374
  792MOL0     H 6915   2.215  10.463   6.581 -0.1850  0.9462  0.7555
  792MOL0     H 6916   1.995  10.327   6.388 -0.4716  0.5379 -0.6230
  792MOL0     H 6917   2.156  10.266   6.392 -1.9630 -1.0922 -1.1389
  792MOL0     H 6918   2.215  10.598   6.147 -0.5659  0.1930 -0.9430
  792MOL0     H 6919   1.627  10.414   6.579  0.2902 -0.0648 -1.5578
  792MOL0     H 6920   1.396  10.441   6.535  0.1428 -1.5183  2.1320
  793MOL0     O 6921   2.805   4.803   4.967  0.5890  0.0960 -0.3083
  793MOL0     C 6922   2.814   4.678   4.955 -0.1844 -0.3364 -0.1872
  793MOL0     O 6923   2.714   4.591   4.932 -0.0809  0.4036  0.1550
  793MOL0     C 6924   2.587   4.636   4.921  0.0941 -0.6698 -0.3803
  793MOL0     C 6925   2.540   4.763   4.897  0.1733 -0.8854  0.0174
  793MOL0     C 6926   2.406   4.785   4.882 -0.3552  0.3070  0.1170
  793MOL0     C 6927   2.309   4.678   4.897 -0.5731  0.0410  0.0279
  793MOL0     O 6928   2.177   4.702   4.895  0.1818 -0.6855 -0.7749
  793MOL0     C 6929   2.127   4.816   4.957  0.0615  0.3828 -0.2409
  793MOL0     C 6930   2.104   4.923   4.844  0.3048  0.4740 -0.3846
  793MOL0     C 6931   1.961   4.989   4.837 -0.9888  0.3180 -0.5081
  793MOL0     C 6932   1.836   4.909   4.822 -0.7971  0.6907  0.4540
  793MOL0     C 6933   1.718   5.004   4.806 -0.5301 -0.8981  0.2002
  793MOL0     C 6934   1.595   4.933   4.753  0.9473 -0.6408 -0.5207
  793MOL0     C 6935   1.472   5.017   4.785 -0.1097 -0.7671 -0.0483
  793MOL0     C 6936   1.346   4.952   4.737  0.7651  0.0731  0.3599
  793MOL0     N 6937   1.227   5.034   4.771 -0.0022  0.5992 -0.0232
  793MOL0     C 6938   1.168   5.048   4.895 -0.3333 -0.2594  0.1757
  793MOL0     C 6939   1.072   5.144   4.869  0.1602 -0.0309 -0.6247
  793MOL0     C 6940   0.972   5.189   4.966 -0.3159  0.1725  0.0539
  793MOL0     C 6941   0.847   5.253   4.901 -0.5347  0.4697  0.1175
  793MOL0     C 6942   0.767   5.156   4.823  0.5783  0.0413 -0.0816
  793MOL0     C 6943   0.619   5.182   4.801 -0.5752 -0.1236 -0.6408
  793MOL0     O 6944   0.574   5.080   4.708 -0.5970  0.0661  0.1832
  793MOL0     C 6945   0.451   5.059   4.665  0.2040  0.4889 -0.2392
  793MOL0     C 6946   0.418   4.945   4.597  0.7531  1.0272  0.1906
  793MOL0     C 6947   0.290   4.914   4.558  0.0537  0.7343 -0.7973
  793MOL0     C 6948   0.278   4.787   4.482  0.7607  0.6217 -0.3832
  793MOL0     C 6949   0.183   4.993   4.615 -0.3678  0.4843  0.3087
  793MOL0     C 6950   0.038   4.955   4.613 -0.5443  0.3226 -1.2979
  793MOL0     O 6951  -0.053   5.044   4.666  0.3887 -0.8585  0.4474
  793MOL0     C 6952  -0.145   4.997   4.750 -0.5074  0.1255  1.1289
  793MOL0     C 6953  -0.275   4.977   4.701  0.1620 -0.3537 -0.0921
  793MOL0     C 6954  -0.378   4.927   4.777 -0.3643  0.2877 -0.3152
  793MOL0     C 6955  -0.345   4.899   4.915  0.5686  1.2538 -0.3200
  793MOL0     O 6956  -0.437   4.843   5.007 -0.3362 -0.6298 -0.0917
  793MOL0     C 6957  -0.581   4.858   4.968 -0.5557 -0.6746 -0.1893
  793MOL0     C 6958  -0.666   4.815   5.089 -0.3060  0.6140  0.4705
  793MOL0     C 6959  -0.639   4.886   5.223 -0.0632  0.1076  0.7346
  793MOL0     C 6960  -0.719   4.806   5.332  0.9475 -0.2753 -0.6654
  793MOL0     C 6961  -0.685   4.863   5.478 -0.1266  0.1579 -0.0193
  793MOL0     C 6962  -0.538   4.807   5.513  0.0403 -0.4891  0.2659
  793MOL0     C 6963  -0.489   4.873   5.637  0.2173 -0.1407  0.6375
  793MOL0     C 6964  -0.376   4.805   5.699  0.0152 -0.1281 -0.2414
  793MOL0    Cl 6965  -0.429   4.639   5.756 -0.1013 -0.0453  0.1255
  793MOL0     C 6966  -0.212   4.892   4.955  0.1245  0.1475 -0.0507
  793MOL0     C 6967  -0.113   4.951   4.876  0.2860 -0.4455 -0.2142
  793MOL0     O 6968   0.007   4.847   4.563  0.0285  0.0830 -0.5272
  793MOL0     C 6969   0.222   5.118   4.673  0.2033 -0.2154 -0.1366
  793MOL0     C 6970   0.351   5.152   4.690 -0.5978  0.1493 -0.2392
  793MOL0     N 6971   1.066   5.174   4.735 -0.1978  0.1460 -0.3054
  793MOL0     N 6972   1.158   5.103   4.680 -0.2615  0.6330 -0.0114
  793MOL0     C 6973   2.355   4.546   4.908  0.7205 -0.9556  0.0684
  793MOL0     C 6974   2.489   4.529   4.939  0.4561  0.5050 -0.2055
  793MOL0     C 6975   2.950   4.620   4.965  0.0686 -0.2165  0.0680
  793MOL0     C 6976   3.062   4.710   4.952  0.2699  0.3879  0.3111
  793MOL0     C 6977   3.186   4.651   4.924  0.7495 -0.3811 -0.3881
  793MOL0     C 6978   3.208   4.513   4.959  0.0475 -0.4020  0.0914
  793MOL0     O 6979   3.330   4.445   4.947  0.0715 -0.5460 -0.4566
  793MOL0     C 6980   3.454   4.521   4.958  0.7521 -0.4033 -0.4786
  793MOL0     C 6981   3.564   4.421   4.975  0.2040  0.4118 -0.3280
  793MOL0     C 6982   3.707   4.480   4.972  0.2265 -0.2134  0.5503
  793MOL0     C 6983   3.749   4.553   4.844 -0.3698  0.0773 -0.6647
  793MOL0     C 6984   3.732   4.695   4.859  0.6111  0.1944  0.0303
  793MOL0     C 6985   3.703   4.814   4.875  0.2685  0.0817  1.0638
  793MOL0     C 6986   3.092   4.429   4.986 -0.0094 -0.1856 -0.6515
  793MOL0     C 6987   2.962   4.479   4.980 -0.7914  0.0392  0.0576
  793MOL0     H 6988   2.599   4.854   4.899 -0.8967  0.1341 -4.1036
  793MOL0     H 6989   2.387   4.887   4.850 -1.2210  0.0147 -0.3522
  793MOL0     H 6990   2.032   4.790   5.005 -0.2782  0.1125 -1.0345
  793MOL0     H 6991   2.196   4.854   5.032 -0.9288  1.7733  0.0231
  793MOL0     H 6992   2.169   5.011   4.852 -2.0660  2.3190 -0.4156
  793MOL0     H 6993   2.126   4.862   4.756  2.3729  0.7033 -0.0880
  793MOL0     H 6994   1.958   5.048   4.929  2.2195 -2.0589  1.3257
  793MOL0     H 6995   1.975   5.057   4.752  2.4699  0.6910  0.1894
  793MOL0     H 6996   1.838   4.851   4.729  0.1441  3.9662 -1.7696
  793MOL0     H 6997   1.826   4.839   4.905  0.5168 -0.9323 -0.6963
  793MOL0     H 6998   1.690   5.057   4.898 -0.3091  1.0665 -0.8026
  793MOL0     H 6999   1.747   5.072   4.725 -1.7532 -1.3153 -0.6067
  793MOL0     H 7000   1.600   4.911   4.646  3.6565 -0.8088 -0.4163
  793MOL0     H 7001   1.590   4.833   4.798  1.0472 -1.6188 -2.5527
  793MOL0     H 7002   1.470   5.023   4.894  0.0069 -1.9887  0.0324
  793MOL0     H 7003   1.474   5.119   4.745 -3.0850 -0.3821  0.5306
  793MOL0     H 7004   1.335   4.854   4.784 -1.1309 -0.5223 -1.2004
  793MOL0     H 7005   1.356   4.931   4.631  0.5648 -0.4721  0.4479
  793MOL0     H 7006   1.203   4.999   4.985 -0.6931 -0.9090 -0.0333
  793MOL0     H 7007   0.938   5.112   5.037  0.2736  0.3639  0.5543
  793MOL0     H 7008   1.023   5.270   5.019  2.7134 -2.6742  1.8616
  793MOL0     H 7009   0.865   5.343   4.843 -1.2238 -0.2873 -1.3158
  793MOL0     H 7010   0.793   5.290   4.989  1.2691  1.2653  0.9274
  793MOL0     H 7011   0.775   5.061   4.877  1.0951  0.9637  1.5371
  793MOL0     H 7012   0.814   5.162   4.725  0.6754  0.1271 -0.0297
  793MOL0     H 7013   0.621   5.274   4.743  0.0334 -1.0948 -2.2268
  793MOL0     H 7014   0.564   5.175   4.895  1.6013 -1.2664  0.6560
  793MOL0     H 7015   0.498   4.874   4.579 -0.9908 -0.8838 -0.3209
  793MOL0     H 7016   0.374   4.736   4.469  0.0551 -1.3327  1.4451
  793MOL0     H 7017   0.196   4.726   4.519 -2.9100  3.2030 -3.5196
  793MOL0     H 7018   0.247   4.811   4.380  0.8617  0.0452 -0.5526
  793MOL0     H 7019  -0.305   5.016   4.604  0.6116  3.3297  1.0822
  793MOL0     H 7020  -0.478   4.917   4.738 -1.0321  1.6275  0.9517
  793MOL0     H 7021  -0.602   4.961   4.936 -2.1031  0.1498  3.0594
  793MOL0     H 7022  -0.603   4.796   4.880  1.3069 -0.2460 -1.0216
  793MOL0     H 7023  -0.768   4.836   5.055 -0.3104 -2.2363 -1.5259
  793MOL0     H 7024  -0.650   4.708   5.100 -2.1700  0.3426  0.9286
  793MOL0     H 7025  -0.674   4.988   5.204  3.2054  0.9986 -1.2905
  793MOL0     H 7026  -0.532   4.894   5.245 -0.4519  0.8476  2.5172
  793MOL0     H 7027  -0.826   4.815   5.309  0.5565 -0.1569  1.0875
  793MOL0     H 7028  -0.699   4.699   5.326 -2.2831 -0.9517 -1.6082
  793MOL0     H 7029  -0.759   4.834   5.553 -2.5134  3.0040 -1.0649
  793MOL0     H 7030  -0.693   4.972   5.480  0.3624  0.1867  0.6940
  793MOL0     H 7031  -0.537   4.698   5.517  0.2834 -0.4420  1.6342
  793MOL0     H 7032  -0.465   4.833   5.435  2.6498 -0.5215  2.5385
  793MOL0     H 7033  -0.565   4.880   5.716  0.9652 -0.2792  1.3837
  793MOL0     H 7034  -0.459   4.975   5.611  1.4546 -0.4284  0.8580
  793MOL0     H 7035  -0.331   4.861   5.782  1.7410 -1.3396 -0.3173
  793MOL0     H 7036  -0.298   4.787   5.625  0.2721 -3.1658  0.6194
  793MOL0     H 7037  -0.185   4.842   5.047  1.1712 -0.8422 -0.8592
  793MOL0     H 7038  -0.011   4.951   4.912  0.2291  0.1130 -0.0460
  793MOL0     H 7039   0.151   5.196   4.702  1.3894  1.3228 -1.2165
  793MOL0     H 7040   0.379   5.251   4.725  0.1361  0.6116 -2.0341
  793MOL0     H 7041   2.280   4.468   4.918  0.0960 -0.4506 -0.5342
  793MOL0     H 7042   2.533   4.430   4.944 -2.6845 -1.0502 -1.0454
  793MOL0     H 7043   3.053   4.816   4.930  0.1848  0.0274 -1.5683
  793MOL0     H 7044   3.277   4.709   4.914  0.1248  0.3191 -2.7186
  793MOL0     H 7045   3.474   4.576   4.866  0.4064 -1.1459 -1.0018
  793MOL0     H 7046   3.453   4.584   5.048 -4.0108 -0.2685 -0.3967
  793MOL0     H 7047   3.562   4.351   4.892  2.4148  0.1469 -0.2146
  793MOL0     H 7048   3.560   4.366   5.070 -0.8064  1.9022  0.5456
  793MOL0     H 7049   3.783   4.407   5.001  2.6342  1.2020 -1.7243
  793MOL0     H 7050   3.700   4.546   5.059 -0.1822 -0.8433  1.0062
  793MOL0     H 7051   3.688   4.519   4.759 -2.0905  0.3390  0.4251
  793MOL0     H 7052   3.854   4.528   4.824 -0.3819 -0.4667 -0.0736
  793MOL0     H 7053   3.688   4.920   4.870 -1.2911 -0.1833 -1.5645
  793MOL0     H 7054   3.120   4.327   5.010  0.6059  0.1673  0.1840
  793MOL0     H 7055   2.874   4.416   4.989 -2.8870  1.8158 -4.5501
  794MOL0     O 7056   9.080   9.398   5.457 -0.5369 -0.0100  0.3683
  794MOL0     C 7057   9.086   9.277   5.437  0.0112  0.5739 -0.2458
  794MOL0     O 7058   8.983   9.192   5.407 -0.3862 -0.5083 -0.3627
  794MOL0     C 7059   8.863   9.243   5.384  0.1913  0.2471  0.3713
  794MOL0     C 7060   8.767   9.235   5.474  0.8045  0.6162 -0.9823
  794MOL0     C 7061   8.633   9.282   5.449 -1.2663  1.0881 -0.5537
  794MOL0     C 7062   8.605   9.347   5.331 -0.4974  0.5794 -0.7791
  794MOL0     O 7063   8.484   9.390   5.299  0.5607 -0.9917 -1.1871
  794MOL0     C 7064   8.364   9.307   5.323 -0.2465 -0.0853 -0.4149
  794MOL0     C 7065   8.251   9.378   5.250  0.3041  0.8154 -0.1746
  794MOL0     C 7066   8.111   9.313   5.279  0.7007 -0.0548  0.6373
  794MOL0     C 7067   8.004   9.360   5.175 -0.9200  0.5116  0.1929
  794MOL0     C 7068   7.860   9.310   5.205  0.6737  0.4297  0.0236
  794MOL0     C 7069   7.775   9.317   5.069  0.6571  0.0276 -1.1601
  794MOL0     C 7070   7.636   9.282   5.102 -0.2864 -0.3458 -0.2024
  794MOL0     C 7071   7.610   9.159   5.179 -0.1835  0.2678 -0.6412
  794MOL0     N 7072   7.462   9.120   5.170 -0.1426  0.1959  0.1089
  794MOL0     C 7073   7.347   9.202   5.162 -1.1198  0.1292  0.3990
  794MOL0     C 7074   7.251   9.111   5.187  0.2877  0.7306 -0.5072
  794MOL0     C 7075   7.104   9.146   5.206 -0.3166 -0.7323  0.3130
  794MOL0     C 7076   7.009   9.077   5.100  0.1668 -0.9229 -0.2184
  794MOL0     C 7077   7.047   8.934   5.061 -0.4471 -0.9771 -0.5357
  794MOL0     C 7078   6.930   8.896   4.967 -0.3873  0.7968  0.1550
  794MOL0     O 7079   6.813   8.871   5.045  0.0050 -0.2683  0.0512
  794MOL0     C 7080   6.695   8.856   4.972 -0.4706  0.4968  1.1211
  794MOL0     C 7081   6.681   8.860   4.824 -0.1584  0.2032  0.1293
  794MOL0     C 7082   6.558   8.832   4.763  0.1326  0.5626  0.4740
  794MOL0     C 7083   6.568   8.812   4.612 -0.1160 -0.1831 -0.5116
  794MOL0     C 7084   6.443   8.816   4.838 -0.0837  0.2069  0.0275
  794MOL0     C 7085   6.310   8.792   4.775  0.1217  0.8106 -0.9266
  794MOL0     O 7086   6.225   8.727   4.860  0.7039  0.3361  0.5402
  794MOL0     C 7087   6.093   8.721   4.818  0.4932  0.1755  0.4748
  794MOL0     C 7088   6.030   8.604   4.772 -0.4460 -0.2268 -0.2189
  794MOL0     C 7089   5.896   8.598   4.743  0.6425  1.3018  1.0493
  794MOL0     C 7090   5.812   8.711   4.748 -0.7752  0.0878 -0.5292
  794MOL0     O 7091   5.683   8.705   4.721  0.3789 -0.9133  0.4818
  794MOL0     C 7092   5.612   8.654   4.835 -0.4122  0.1839 -0.0559
  794MOL0     C 7093   5.553   8.779   4.907  0.1731 -0.7929 -0.8703
  794MOL0     C 7094   5.461   8.735   5.018 -0.0829  0.8119 -0.7796
  794MOL0     C 7095   5.393   8.856   5.091 -0.5778 -0.3494 -0.1922
  794MOL0     C 7096   5.309   8.804   5.219 -0.2415  0.0221 -0.6811
  794MOL0     C 7097   5.240   8.925   5.274  0.1486 -0.2610  0.5181
  794MOL0     C 7098   5.144   8.876   5.388 -0.3118  0.2061  0.7084
  794MOL0     C 7099   5.019   8.808   5.343  0.3394 -0.2469 -0.7458
  794MOL0    Cl 7100   4.886   8.769   5.475 -0.1736 -0.2983  0.1522
  794MOL0     C 7101   5.882   8.835   4.772 -0.2362  0.2620 -0.3928
  794MOL0     C 7102   6.022   8.836   4.812  0.0982 -0.9407  0.2084
  794MOL0     O 7103   6.296   8.813   4.661 -0.4050  0.2545  0.0683
  794MOL0     C 7104   6.463   8.807   4.975  0.1938 -0.0356  0.3644
  794MOL0     C 7105   6.584   8.822   5.045 -0.6089  0.0486 -0.0813
  794MOL0     N 7106   7.303   8.983   5.214  0.1706 -0.4555 -0.5032
  794MOL0     N 7107   7.432   8.991   5.197 -0.1769 -0.0389 -0.1157
  794MOL0     C 7108   8.708   9.373   5.242 -0.7910 -0.8225 -0.1699
  794MOL0     C 7109   8.836   9.314   5.262 -0.4465 -0.1417 -0.1803
  794MOL0     C 7110   9.224   9.211   5.443 -0.0699 -0.3706 -0.4096
  794MOL0     C 7111   9.228   9.081   5.469 -0.1939  0.8648 -0.5214
  794MOL0     C 7112   9.348   9.006   5.467  0.5326 -0.1613  0.8267
  794MOL0     C 7113   9.467   9.079   5.442  0.5532 -0.2541 -0.6336
  794MOL0     O 7114   9.581   9.012   5.440 -0.0089 -0.0648 -0.1027
  794MOL0     C 7115   9.610   8.937   5.563 -0.9043 -0.5064  0.3028
  794MOL0     C 7116   9.757   8.899   5.576 -0.4189  0.1178  0.1082
  794MOL0     C 7117   9.803   8.786   5.483 -0.3312 -0.4886  0.0932
  794MOL0     C 7118   9.812   8.636   5.529  0.0213 -0.2497 -0.1247
  794MOL0     C 7119   9.681   8.576   5.554  1.0559  0.0964  0.1153
  794MOL0     C 7120   9.572   8.555   5.601  0.2392  0.1595 -0.0378
  794MOL0     C 7121   9.465   9.207   5.423  0.1086 -1.4130  0.1908
  794MOL0     C 7122   9.346   9.286   5.422 -0.7053 -0.0908  0.7448
  794MOL0     H 7123   8.793   9.189   5.569  0.5031  1.3197 -0.5534
  794MOL0     H 7124   8.554   9.276   5.524  0.1579 -4.3513  0.9692
  794MOL0     H 7125   8.381   9.203   5.296 -0.4950 -0.4418  0.7520
  794MOL0     H 7126   8.340   9.310   5.429 -2.1632 -0.7226 -0.7866
  794MOL0     H 7127   8.244   9.477   5.297 -1.2155  1.0119 -0.7627
  794MOL0     H 7128   8.270   9.378   5.142 -1.0774  2.9884 -0.4901
  794MOL0     H 7129   8.113   9.203   5.286  0.4897 -0.1372 -0.4522
  794MOL0     H 7130   8.084   9.347   5.379  1.2347 -3.5037  2.1224
  794MOL0     H 7131   8.022   9.467   5.157  0.3100 -0.2472 -4.4473
  794MOL0     H 7132   8.024   9.320   5.075 -0.6111 -1.1333  0.8981
  794MOL0     H 7133   7.850   9.203   5.228  3.7534 -0.4283 -2.0219
  794MOL0     H 7134   7.823   9.377   5.283 -0.3513 -0.6237  0.4728
  794MOL0     H 7135   7.792   9.414   5.023  1.9953  0.4652  0.1606
  794MOL0     H 7136   7.812   9.246   4.994  1.4380  1.6957 -2.4116
  794MOL0     H 7137   7.597   9.369   5.156 -1.4963 -0.5676 -0.6943
  794MOL0     H 7138   7.582   9.283   5.007  0.2296  0.3425 -0.4997
  794MOL0     H 7139   7.627   9.171   5.287 -0.7928  1.0690 -0.6253
  794MOL0     H 7140   7.664   9.074   5.136  2.1025  1.0759  0.4843
  794MOL0     H 7141   7.327   9.306   5.137  0.7298  0.4151 -0.0119
  794MOL0     H 7142   7.078   9.121   5.309 -2.3208 -0.1612 -0.0128
  794MOL0     H 7143   7.096   9.255   5.212 -0.5811 -0.6934 -0.5191
  794MOL0     H 7144   7.014   9.143   5.013 -2.8946  2.1962  1.7189
  794MOL0     H 7145   6.909   9.089   5.143  1.0168 -0.9058  1.8649
  794MOL0     H 7146   7.058   8.866   5.146  5.5699 -0.5023 -0.4894
  794MOL0     H 7147   7.134   8.936   4.996 -2.2606 -2.9639 -3.2159
  794MOL0     H 7148   6.962   8.799   4.927  2.8805  0.9177  2.0929
  794MOL0     H 7149   6.920   8.965   4.882 -0.1424 -0.1844 -0.6943
  794MOL0     H 7150   6.764   8.890   4.761  0.3234 -1.2844  0.0303
  794MOL0     H 7151   6.668   8.796   4.571  0.0210 -0.0479 -0.2391
  794MOL0     H 7152   6.518   8.723   4.575 -0.9830  0.5581 -1.1539
  794MOL0     H 7153   6.536   8.911   4.578 -0.5599  0.0214  0.4588
  794MOL0     H 7154   6.088   8.514   4.757  2.7469  1.6019  0.3154
  794MOL0     H 7155   5.852   8.508   4.702  0.6295  1.8998 -0.3364
  794MOL0     H 7156   5.534   8.587   4.800  1.5047 -1.3216 -1.6761
  794MOL0     H 7157   5.670   8.593   4.905 -0.1523 -1.9135 -1.9830
  794MOL0     H 7158   5.640   8.835   4.941  0.0302 -2.8166  3.6040
  794MOL0     H 7159   5.492   8.843   4.843 -0.3996  0.2691  0.7071
  794MOL0     H 7160   5.528   8.676   5.082  0.7555 -0.5500 -2.8114
  794MOL0     H 7161   5.382   8.668   4.984  1.2620 -1.0124 -0.4708
  794MOL0     H 7162   5.474   8.925   5.116 -0.2099 -0.4451 -1.0888
  794MOL0     H 7163   5.323   8.904   5.022 -1.1845 -1.0360 -0.0605
  794MOL0     H 7164   5.362   8.763   5.305 -3.2305  1.9640  2.3592
  794MOL0     H 7165   5.234   8.730   5.190  0.2695 -2.1212  2.8726
  794MOL0     H 7166   5.317   8.995   5.309  0.3487  1.3519 -2.7169
  794MOL0     H 7167   5.180   8.972   5.195  0.2111 -0.3058  0.4440
  794MOL0     H 7168   5.120   8.973   5.432 -0.0027  2.2727 -3.1642
  794MOL0     H 7169   5.203   8.820   5.460  0.1416  0.4489  0.5349
  794MOL0     H 7170   5.037   8.708   5.304  0.7878 -0.6749  0.4992
  794MOL0     H 7171   4.959   8.877   5.283  0.4955  0.3377 -0.2484
  794MOL0     H 7172   5.836   8.933   4.770 -1.7189 -0.3246  1.9184
  794MOL0     H 7173   6.074   8.927   4.842  1.2910 -2.3355  2.6889
  794MOL0     H 7174   6.371   8.785   5.028 -0.4398 -1.1455 -1.1210
  794MOL0     H 7175   6.591   8.824   5.153 -2.9588  0.6989  0.1091
  794MOL0     H 7176   8.688   9.433   5.154  1.1021 -0.2239 -0.2547
  794MOL0     H 7177   8.927   9.318   5.203 -0.6631 -2.3571 -0.7296
  794MOL0     H 7178   9.134   9.036   5.499 -0.3965  2.2908  1.1321
  794MOL0     H 7179   9.355   8.898   5.474 -0.6451 -0.5659 -2.5207
  794MOL0     H 7180   9.578   8.995   5.650  0.5603 -2.0896  1.9954
  794MOL0     H 7181   9.559   8.839   5.566 -1.9221 -0.1974 -2.8246
  794MOL0     H 7182   9.781   8.879   5.681  1.3536 -0.4878 -0.3745
  794MOL0     H 7183   9.806   8.992   5.547 -1.7910  0.0421 -2.7782
  794MOL0     H 7184   9.902   8.821   5.451  0.0147 -0.0290  1.5910
  794MOL0     H 7185   9.739   8.788   5.395 -0.9455  0.3462  0.5490
  794MOL0     H 7186   9.873   8.625   5.620  1.1119 -0.1521 -0.8334
  794MOL0     H 7187   9.862   8.574   5.454 -0.3846 -1.4188  0.5377
  794MOL0     H 7188   9.492   8.504   5.650  1.7978 -2.0317  0.3870
  794MOL0     H 7189   9.559   9.255   5.398 -0.6066 -2.1848 -4.9353
  794MOL0     H 7190   9.356   9.391   5.399  0.0867 -0.2717  0.1957
  795MOL0     O 7191   9.620   4.240   9.498 -0.4996 -0.3725 -0.3827
  795MOL0     C 7192   9.530   4.199   9.425  0.1823  0.0873 -0.7701
  795MOL0     O 7193   9.474   4.264   9.319  0.4918 -0.0325 -0.2816
  795MOL0     C 7194   9.486   4.397   9.289 -0.0525  0.1212 -0.7090
  795MOL0     C 7195   9.610   4.452   9.263 -0.2714 -0.2293 -1.1454
  795MOL0     C 7196   9.627   4.585   9.216  0.4523  0.0906  0.4384
  795MOL0     C 7197   9.511   4.663   9.205  0.2758  0.5190  0.9564
  795MOL0     O 7198   9.523   4.790   9.163  0.2861 -0.9658  0.0332
  795MOL0     C 7199   9.649   4.864   9.155 -0.1333  0.6188  0.6836
  795MOL0     C 7200   9.627   5.009   9.143  0.0872  0.9095  0.0971
  795MOL0     C 7201   9.762   5.068   9.111 -0.8379  0.5634  0.0875
  795MOL0     C 7202   9.772   5.226   9.110 -0.3969  0.3592 -0.8353
  795MOL0     C 7203   9.653   5.292   9.040 -0.1139  0.0042  0.2039
  795MOL0     C 7204   9.674   5.443   9.019  0.7572 -0.4209 -0.5988
  795MOL0     C 7205   9.540   5.506   8.964  0.5118  0.7785  1.4037
  795MOL0     C 7206   9.429   5.559   9.051  0.0376  0.2987  0.8429
  795MOL0     N 7207   9.322   5.599   8.966  1.5449 -0.3730 -0.2484
  795MOL0     C 7208   9.236   5.507   8.896  0.3622 -0.1046 -0.6597
  795MOL0     C 7209   9.175   5.594   8.805 -0.8051 -0.6484 -0.4069
  795MOL0     C 7210   9.067   5.560   8.718 -0.2083 -0.0316  0.2663
  795MOL0     C 7211   8.966   5.482   8.783  1.6771 -0.2751 -0.5167
  795MOL0     C 7212   8.849   5.458   8.688  0.7694 -0.0920  0.0032
  795MOL0     C 7213   8.766   5.329   8.701 -0.0329 -0.0437 -0.5381
  795MOL0     O 7214   8.721   5.320   8.834  0.4760 -0.5467  0.2216
  795MOL0     C 7215   8.604   5.242   8.861  0.7252  0.0021  0.9456
  795MOL0     C 7216   8.534   5.158   8.774 -0.5134 -0.0623 -0.1540
  795MOL0     C 7217   8.423   5.078   8.816 -0.1789  0.7970  0.4129
  795MOL0     C 7218   8.360   4.981   8.715 -0.4310 -0.2342  0.9502
  795MOL0     C 7219   8.385   5.070   8.955 -0.4186 -0.7153 -0.7904
  795MOL0     C 7220   8.286   4.973   9.017 -0.2369  0.3645  0.2396
  795MOL0     O 7221   8.245   4.994   9.147  0.4857 -0.8106  0.5670
  795MOL0     C 7222   8.155   4.911   9.200 -0.2836 -0.3866 -0.6668
  795MOL0     C 7223   8.028   4.916   9.152 -0.2226 -0.0506 -0.6059
  795MOL0     C 7224   7.937   4.823   9.202  0.2398 -0.1907  0.0497
  795MOL0     C 7225   7.982   4.732   9.296 -0.8099 -0.0745 -0.5825
  795MOL0     O 7226   7.910   4.631   9.358 -0.7560 -0.0491  0.0397
  795MOL0     C 7227   7.783   4.672   9.391  0.2539 -0.1121  0.4444
  795MOL0     C 7228   7.739   4.578   9.506  0.5692 -0.7156  0.5352
  795MOL0     C 7229   7.584   4.565   9.501 -0.1501 -0.8352  0.3240
  795MOL0     C 7230   7.540   4.462   9.594  0.2912 -0.1761  0.0347
  795MOL0     C 7231   7.385   4.476   9.612  0.4290  0.5315  0.7392
  795MOL0     C 7232   7.340   4.380   9.714  0.3735  0.8438 -1.2130
  795MOL0     C 7233   7.314   4.236   9.662  0.8120  1.0604  0.4211
  795MOL0     C 7234   7.254   4.147   9.765 -1.0456 -0.2638  0.1360
  795MOL0    Cl 7235   7.072   4.180   9.760  0.4487 -0.0813  0.1331
  795MOL0     C 7236   8.114   4.724   9.334  0.0325  0.0293  0.7217
  795MOL0     C 7237   8.206   4.806   9.279  0.2338  0.8405 -0.0043
  795MOL0     O 7238   8.259   4.871   8.947  0.2558  0.2157  0.2871
  795MOL0     C 7239   8.446   5.167   9.036 -0.2087  0.7701 -0.2099
  795MOL0     C 7240   8.558   5.246   8.992 -0.1595 -0.0430  0.2941
  795MOL0     N 7241   9.213   5.730   8.834  0.3885  0.4623 -0.1963
  795MOL0     N 7242   9.287   5.726   8.937 -0.6918 -0.7381  0.3455
  795MOL0     C 7243   9.387   4.609   9.225 -0.3904 -0.3317 -0.4852
  795MOL0     C 7244   9.378   4.476   9.276  0.8902 -0.1844 -0.2077
  795MOL0     C 7245   9.491   4.057   9.459  0.7313 -0.1788  0.3053
  795MOL0     C 7246   9.537   3.995   9.585 -0.0905 -0.0737  1.1031
  795MOL0     C 7247   9.499   3.862   9.613  0.2631 -0.0918 -0.0930
  795MOL0     C 7248   9.415   3.788   9.530 -0.1086  0.8975  0.6303
  795MOL0     O 7249   9.399   3.655   9.540  0.2619 -0.3006  0.0412
  795MOL0     C 7250   9.357   3.608   9.666  0.4749 -0.0267 -0.6342
  795MOL0     C 7251   9.333   3.456   9.659  0.0462 -0.1033 -0.2154
  795MOL0     C 7252   9.252   3.402   9.543  0.1526 -0.5382 -0.6334
  795MOL0     C 7253   9.104   3.435   9.550 -0.3276  0.8181  0.1777
  795MOL0     C 7254   9.028   3.354   9.643  0.3681  0.1190 -0.4660
  795MOL0     C 7255   8.962   3.296   9.732 -0.2130 -0.3289  0.2580
  795MOL0     C 7256   9.378   3.843   9.405 -0.2030 -0.1775 -0.0627
  795MOL0     C 7257   9.414   3.976   9.371  0.6734  0.1958  0.4566
  795MOL0     H 7258   9.694   4.387   9.283 -1.9320 -2.2719 -0.3549
  795MOL0     H 7259   9.724   4.633   9.207  1.8628 -2.5770  0.4320
  795MOL0     H 7260   9.705   4.851   9.248  1.4823 -4.6609 -0.6453
  795MOL0     H 7261   9.714   4.836   9.072 -0.5587 -0.9408  0.8209
  795MOL0     H 7262   9.547   5.030   9.072  0.7757 -1.2880 -1.4316
  795MOL0     H 7263   9.588   5.048   9.237 -0.1446 -0.1475  0.4557
  795MOL0     H 7264   9.841   5.032   9.177  0.0756 -0.5892 -1.5681
  795MOL0     H 7265   9.792   5.037   9.010  2.1076 -0.2069  1.0938
  795MOL0     H 7266   9.770   5.258   9.215 -2.4551 -1.2255 -0.3162
  795MOL0     H 7267   9.864   5.258   9.061  0.0277 -0.0493 -0.3051
  795MOL0     H 7268   9.630   5.234   8.950 -1.5535 -0.6806  0.9827
  795MOL0     H 7269   9.563   5.287   9.102  0.2452  1.3470  0.8492
  795MOL0     H 7270   9.689   5.500   9.111  0.2772 -3.3196  1.3807
  795MOL0     H 7271   9.758   5.450   8.949 -0.3924  0.4243 -1.9714
  795MOL0     H 7272   9.570   5.595   8.907  2.6115  1.5854  3.5912
  795MOL0     H 7273   9.497   5.427   8.902 -1.4420  1.2821  2.0668
  795MOL0     H 7274   9.464   5.648   9.105 -2.7702  1.4683  0.8996
  795MOL0     H 7275   9.404   5.485   9.127  1.6187 -0.1229  0.9981
  795MOL0     H 7276   9.220   5.403   8.924 -1.9835  0.6383  1.1590
  795MOL0     H 7277   9.032   5.653   8.673  1.9098  0.4495 -0.5310
  795MOL0     H 7278   9.099   5.494   8.637 -1.7916 -2.2899  1.3593
  795MOL0     H 7279   8.937   5.529   8.877  1.9851 -1.7665  0.3474
  795MOL0     H 7280   9.010   5.383   8.799  1.6879 -0.1728  0.0828
  795MOL0     H 7281   8.893   5.455   8.588  0.9332  1.8295 -0.0093
  795MOL0     H 7282   8.782   5.544   8.692 -0.0716 -0.7604  1.5350
  795MOL0     H 7283   8.820   5.236   8.681  2.2949  1.2953 -0.7494
  795MOL0     H 7284   8.676   5.331   8.639  0.3528  1.2743 -1.0819
  795MOL0     H 7285   8.553   5.159   8.667 -3.6731  0.0635 -0.8135
  795MOL0     H 7286   8.400   5.004   8.616  0.4650 -1.1615  1.0726
  795MOL0     H 7287   8.399   4.880   8.733  0.4487 -0.1324 -0.2012
  795MOL0     H 7288   8.251   4.985   8.719 -0.7422  2.8051 -3.3540
  795MOL0     H 7289   8.009   4.996   9.080 -1.7750  0.3834  0.2361
  795MOL0     H 7290   7.841   4.832   9.151  0.8107  1.8458 -0.7889
  795MOL0     H 7291   7.787   4.773   9.432 -2.9666  0.1132  0.5104
  795MOL0     H 7292   7.727   4.668   9.296  2.2844 -0.4703 -0.7963
  795MOL0     H 7293   7.782   4.483   9.472  0.4440 -0.0078 -1.7967
  795MOL0     H 7294   7.789   4.617   9.595  0.7890  2.7296 -0.9623
  795MOL0     H 7295   7.547   4.545   9.400 -1.3291  0.8240  0.3879
  795MOL0     H 7296   7.548   4.657   9.548  0.8747  0.8247 -1.9543
  795MOL0     H 7297   7.568   4.372   9.539 -0.8533 -0.5095 -0.0402
  795MOL0     H 7298   7.591   4.465   9.691 -1.3993 -1.4859  1.0173
  795MOL0     H 7299   7.341   4.450   9.515 -5.5241  0.5340  3.0235
  795MOL0     H 7300   7.344   4.571   9.646 -0.4396 -0.2806  2.0755
  795MOL0     H 7301   7.416   4.372   9.792 -1.6189  1.9402  0.9938
  795MOL0     H 7302   7.245   4.418   9.752  0.5344  0.9612 -0.9267
  795MOL0     H 7303   7.407   4.195   9.623 -1.0327 -0.2930 -3.0452
  795MOL0     H 7304   7.251   4.235   9.572  1.5227 -1.5700 -0.1381
  795MOL0     H 7305   7.312   4.158   9.857  0.9659 -0.6309 -1.0153
  795MOL0     H 7306   7.289   4.044   9.747  1.0815  0.1861  1.3288
  795MOL0     H 7307   8.146   4.639   9.394 -0.6903 -1.7077 -1.2396
  795MOL0     H 7308   8.312   4.804   9.301  0.1609  0.3038  0.3293
  795MOL0     H 7309   8.412   5.176   9.138 -1.0248 -0.8278 -0.3159
  795MOL0     H 7310   8.612   5.316   9.055 -0.1511 -0.7325  1.0623
  795MOL0     H 7311   9.295   4.666   9.233  0.0963  0.1702  4.5443
  795MOL0     H 7312   9.286   4.426   9.304  0.0733  0.4996 -1.5238
  795MOL0     H 7313   9.593   4.054   9.657  0.8978  2.8963 -1.8549
  795MOL0     H 7314   9.546   3.810   9.696 -0.0911 -1.3215 -0.6321
  795MOL0     H 7315   9.423   3.632   9.750 -1.4360  1.1457  0.6352
  795MOL0     H 7316   9.257   3.643   9.695  0.6895 -0.4005  0.6169
  795MOL0     H 7317   9.287   3.423   9.753 -2.7598  2.2350 -0.5958
  795MOL0     H 7318   9.432   3.411   9.655  0.6731  1.1218  0.6685
  795MOL0     H 7319   9.258   3.294   9.528  0.6814 -0.5293 -0.4935
  795MOL0     H 7320   9.285   3.453   9.452 -0.6266  3.4943  1.1495
  795MOL0     H 7321   9.056   3.431   9.452 -1.1148 -1.4069  0.5993
  795MOL0     H 7322   9.094   3.534   9.595 -0.9168 -0.5024  3.2491
  795MOL0     H 7323   8.906   3.256   9.813 -1.0399 -0.1424 -0.2075
  795MOL0     H 7324   9.320   3.786   9.333 -1.7626 -0.3506  1.2695
  795MOL0     H 7325   9.371   4.007   9.276  1.5995 -1.8131 -0.6994
  796MOL0     O 7326   8.856   3.239   7.221 -0.2609 -0.6649  0.2018
  796MOL0     C 7327   8.873   3.357   7.238  0.1923  0.0701  0.0991
  796MOL0     O 7328   8.819   3.433   7.335 -0.2493 -0.6040 -0.3183
  796MOL0     C 7329   8.729   3.403   7.433 -0.4444  0.7122 -0.2449
  796MOL0     C 7330   8.704   3.276   7.487  0.9218  0.1346  0.6843
  796MOL0     C 7331   8.619   3.264   7.597 -1.0583  0.5270 -0.3244
  796MOL0     C 7332   8.550   3.370   7.651 -0.0028 -0.6708 -0.3024
  796MOL0     O 7333   8.458   3.340   7.748  0.1901 -0.1000  0.2748
  796MOL0     C 7334   8.378   3.454   7.795 -0.1382 -0.0010  0.3645
  796MOL0     C 7335   8.258   3.401   7.879  0.2650  0.0131  0.6585
  796MOL0     C 7336   8.182   3.504   7.944 -0.5268  0.3896 -1.3434
  796MOL0     C 7337   8.124   3.608   7.846  0.9696 -0.6401  0.7995
  796MOL0     C 7338   8.002   3.683   7.887  0.2719  0.1021 -0.6029
  796MOL0     C 7339   7.882   3.596   7.922 -0.6453  0.3023  1.1556
  796MOL0     C 7340   7.769   3.669   7.998 -0.6175  0.1789 -0.5726
  796MOL0     C 7341   7.661   3.573   8.040 -0.7311  0.1367  0.3562
  796MOL0     N 7342   7.563   3.639   8.125  0.5848 -0.6345  0.0741
  796MOL0     C 7343   7.580   3.726   8.230  0.0762 -0.2531 -0.4445
  796MOL0     C 7344   7.454   3.743   8.280  0.7587  0.6498 -1.1617
  796MOL0     C 7345   7.419   3.827   8.400  0.3121 -0.0311 -0.2670
  796MOL0     C 7346   7.426   3.753   8.534 -0.4191  0.2142  0.1920
  796MOL0     C 7347   7.311   3.654   8.560 -0.1781  0.9259  0.1037
  796MOL0     C 7348   7.173   3.728   8.573  0.8957 -0.0134  0.2630
  796MOL0     O 7349   7.066   3.636   8.581  0.3619  1.0471 -0.5348
  796MOL0     C 7350   6.935   3.684   8.567  0.3143 -1.1465 -0.9993
  796MOL0     C 7351   6.847   3.596   8.503  0.1772  1.1837  0.0260
  796MOL0     C 7352   6.708   3.627   8.482  0.0328 -0.2329 -0.6698
  796MOL0     C 7353   6.627   3.521   8.413  0.3082 -0.0645  0.9911
  796MOL0     C 7354   6.659   3.755   8.537 -0.2243 -0.1182 -0.0070
  796MOL0     C 7355   6.521   3.804   8.525  0.0201 -0.2905 -0.9560
  796MOL0     O 7356   6.484   3.916   8.604 -0.3592  0.5655 -0.5304
  796MOL0     C 7357   6.357   3.955   8.598 -0.4114 -0.2087  0.1670
  796MOL0     C 7358   6.314   4.046   8.508 -0.4074 -0.8888  1.4575
  796MOL0     C 7359   6.186   4.095   8.507  0.0175  0.2594 -1.3099
  796MOL0     C 7360   6.095   4.048   8.604 -1.2408  0.5991 -0.5692
  796MOL0     O 7361   5.966   4.088   8.608 -0.5282 -0.4415  0.2703
  796MOL0     C 7362   5.915   4.188   8.504  0.1564 -0.4701 -0.0370
  796MOL0     C 7363   5.771   4.228   8.550  0.5941 -0.3484 -0.1548
  796MOL0     C 7364   5.685   4.107   8.524 -0.5107  0.4166  0.7424
  796MOL0     C 7365   5.536   4.136   8.549  0.5219 -0.2736  0.1622
  796MOL0     C 7366   5.468   4.270   8.509 -0.4004  0.0487  0.2991
  796MOL0     C 7367   5.318   4.262   8.503 -0.1110  0.3103  0.1239
  796MOL0     C 7368   5.244   4.372   8.416  0.2626  0.1238  0.1316
  796MOL0     C 7369   5.094   4.355   8.456 -0.5025  0.1778  0.5047
  796MOL0    Cl 7370   5.026   4.194   8.413  0.0563  0.2229 -0.0898
  796MOL0     C 7371   6.132   3.955   8.698  0.0668  0.2171  0.8304
  796MOL0     C 7372   6.263   3.918   8.696 -0.0836  0.9623 -0.3788
  796MOL0     O 7373   6.441   3.751   8.449  0.0495 -0.5395  0.3850
  796MOL0     C 7374   6.755   3.837   8.603  0.2070  0.0286 -0.6356
  796MOL0     C 7375   6.884   3.807   8.624 -0.1183  0.2577  0.2317
  796MOL0     N 7376   7.366   3.674   8.203 -0.4728  0.0307  0.6037
  796MOL0     N 7377   7.426   3.606   8.110 -0.8332 -0.1145  0.2798
  796MOL0     C 7378   8.585   3.496   7.608 -0.0354 -0.1755 -0.3478
  796MOL0     C 7379   8.664   3.508   7.501  0.2305  0.0091  1.3805
  796MOL0     C 7380   8.952   3.431   7.136  0.0675  0.5352 -0.8123
  796MOL0     C 7381   9.046   3.358   7.061 -0.2037 -0.6447  0.0456
  796MOL0     C 7382   9.111   3.422   6.963  0.2513 -0.8782 -0.3606
  796MOL0     C 7383   9.093   3.562   6.940 -0.4037  1.0774 -1.0599
  796MOL0     O 7384   9.149   3.616   6.833  0.2247 -0.1615 -0.0513
  796MOL0     C 7385   9.257   3.557   6.759 -0.8345  0.9318 -0.2555
  796MOL0     C 7386   9.298   3.649   6.645 -0.6687 -0.6842  0.4652
  796MOL0     C 7387   9.422   3.598   6.569  0.3434  0.2752  0.4508
  796MOL0     C 7388   9.548   3.644   6.650  0.2276  0.1472 -0.1454
  796MOL0     C 7389   9.671   3.592   6.589 -0.5341  0.0514 -0.5733
  796MOL0     C 7390   9.774   3.554   6.535  0.1815 -0.7102 -0.7336
  796MOL0     C 7391   9.006   3.633   7.021 -0.7326  0.1520 -0.1154
  796MOL0     C 7392   8.933   3.567   7.119 -0.5373 -0.2340 -0.6992
  796MOL0     H 7393   8.752   3.187   7.448  2.4715  1.0741  0.3314
  796MOL0     H 7394   8.613   3.168   7.647  3.7431 -0.0359 -0.4458
  796MOL0     H 7395   8.443   3.519   7.854  1.5774 -0.0728 -1.3828
  796MOL0     H 7396   8.343   3.521   7.716 -2.3070 -0.9756  0.4200
  796MOL0     H 7397   8.192   3.335   7.821  0.7978 -1.0214  1.2015
  796MOL0     H 7398   8.302   3.329   7.948 -0.0423 -2.3963 -1.4815
  796MOL0     H 7399   8.109   3.445   7.999 -0.6496  1.3114 -0.4827
  796MOL0     H 7400   8.249   3.560   8.010  2.3665 -0.5265 -3.3062
  796MOL0     H 7401   8.208   3.675   7.828 -0.9507  1.6800 -0.1262
  796MOL0     H 7402   8.102   3.568   7.746 -0.4864  1.9502 -0.0370
  796MOL0     H 7403   8.031   3.734   7.980 -1.6733  0.7506 -0.3037
  796MOL0     H 7404   7.979   3.756   7.809 -1.4231  1.8313  1.3965
  796MOL0     H 7405   7.848   3.548   7.830 -0.9790  2.1823  0.2521
  796MOL0     H 7406   7.909   3.520   7.996 -0.4748 -0.0270  0.7561
  796MOL0     H 7407   7.817   3.705   8.090 -2.6040  0.7790  0.2966
  796MOL0     H 7408   7.724   3.749   7.939 -2.4019  1.1067  1.8428
  796MOL0     H 7409   7.712   3.493   8.095  0.8178  0.9890  0.2296
  796MOL0     H 7410   7.621   3.523   7.952  3.1139 -0.8336 -1.0642
  796MOL0     H 7411   7.672   3.773   8.264  0.9923 -0.8820 -1.9464
  796MOL0     H 7412   7.487   3.912   8.409 -2.1049  1.9461  0.2700
  796MOL0     H 7413   7.320   3.870   8.383  0.9583  1.4308 -0.5301
  796MOL0     H 7414   7.428   3.823   8.618 -3.1600  1.7941 -0.9357
  796MOL0     H 7415   7.522   3.701   8.542 -0.1491  1.0360  2.9528
  796MOL0     H 7416   7.341   3.593   8.646  2.5712 -1.7447 -2.4952
  796MOL0     H 7417   7.305   3.586   8.475 -2.7152 -1.2260  1.8400
  796MOL0     H 7418   7.157   3.798   8.490  0.9032  0.0321  0.3000
  796MOL0     H 7419   7.180   3.787   8.664 -0.0833  1.2429 -0.4450
  796MOL0     H 7420   6.898   3.509   8.462 -0.4804  1.2182 -0.9100
  796MOL0     H 7421   6.656   3.419   8.440 -0.3905 -1.0125 -1.4744
  796MOL0     H 7422   6.521   3.526   8.439  0.4958 -2.1944  2.3894
  796MOL0     H 7423   6.641   3.526   8.304 -3.1766  1.8955  0.4809
  796MOL0     H 7424   6.391   4.082   8.441 -2.9197  2.2677 -0.0214
  796MOL0     H 7425   6.151   4.169   8.436  0.2065  0.4122 -1.2461
  796MOL0     H 7426   5.975   4.279   8.515  0.5315 -0.9019  1.7082
  796MOL0     H 7427   5.910   4.157   8.399 -4.7232  3.0165 -1.1717
  796MOL0     H 7428   5.767   4.272   8.650  0.8647  1.8564 -1.0583
  796MOL0     H 7429   5.742   4.314   8.489  1.0716  0.1796  0.3474
  796MOL0     H 7430   5.714   4.019   8.582 -2.8749 -1.3073 -0.5088
  796MOL0     H 7431   5.687   4.081   8.417 -2.7069 -0.2172  0.8074
  796MOL0     H 7432   5.478   4.057   8.500 -1.3314  1.8977 -1.3679
  796MOL0     H 7433   5.513   4.135   8.656  0.2655 -2.7812  0.1298
  796MOL0     H 7434   5.499   4.285   8.406 -1.0488 -0.5382  0.0057
  796MOL0     H 7435   5.509   4.349   8.572  3.8617 -1.6721 -0.0013
  796MOL0     H 7436   5.298   4.158   8.474  0.4811  0.0673  0.5588
  796MOL0     H 7437   5.286   4.266   8.607  0.1083 -0.2873  0.2199
  796MOL0     H 7438   5.264   4.359   8.309 -0.6718 -0.0767 -0.0265
  796MOL0     H 7439   5.286   4.469   8.444  0.9276  0.0863 -0.7017
  796MOL0     H 7440   5.032   4.429   8.404  1.3848  0.0618 -2.1182
  796MOL0     H 7441   5.079   4.369   8.563  0.3301 -2.9920  1.1301
  796MOL0     H 7442   6.061   3.913   8.769  2.0341  1.2414  3.5911
  796MOL0     H 7443   6.291   3.849   8.775 -0.5909 -0.1343 -1.1258
  796MOL0     H 7444   6.727   3.931   8.650 -1.7747 -1.9694  2.5174
  796MOL0     H 7445   6.960   3.866   8.675  2.3517 -2.2236 -0.2900
  796MOL0     H 7446   8.554   3.584   7.662 -0.3243 -0.6623  0.2971
  796MOL0     H 7447   8.672   3.611   7.469 -1.7539 -0.3678 -0.5791
  796MOL0     H 7448   9.067   3.253   7.074  1.7122 -0.1227  1.8383
  796MOL0     H 7449   9.181   3.372   6.897 -1.2454 -2.1835 -1.0061
  796MOL0     H 7450   9.342   3.534   6.825 -0.6363 -3.4067 -1.7512
  796MOL0     H 7451   9.215   3.467   6.715  0.7781  0.6702 -1.3352
  796MOL0     H 7452   9.329   3.744   6.689  0.3600 -0.6476 -0.2973
  796MOL0     H 7453   9.222   3.663   6.569  0.4533  0.3023 -0.5198
  796MOL0     H 7454   9.432   3.630   6.465 -0.3979 -0.7170  0.0606
  796MOL0     H 7455   9.428   3.489   6.568  0.0598  0.0819 -4.4092
  796MOL0     H 7456   9.548   3.614   6.755  3.0618 -0.2974 -0.1819
  796MOL0     H 7457   9.552   3.753   6.647  2.6302  0.1558  1.1121
  796MOL0     H 7458   9.863   3.533   6.479  0.0999 -0.1155 -1.0856
  796MOL0     H 7459   9.003   3.742   7.018  0.4531  0.2438  1.0032
  796MOL0     H 7460   8.855   3.621   7.173 -2.2367 -2.2925 -0.9433
  797MOL0     O 7461   0.501   0.148   9.718 -0.1456 -0.2515  0.0664
  797MOL0     C 7462   0.478   0.227   9.818  0.7155 -0.6374  0.1205
  797MOL0     O 7463   0.358   0.243   9.878 -0.4265 -0.0330  0.3572
  797MOL0     C 7464   0.257   0.174   9.829  1.7345  0.0591  0.4091
  797MOL0     C 7465   0.206   0.188   9.705  0.0232 -0.0449  0.4588
  797MOL0     C 7466   0.094   0.113   9.666 -1.3780 -0.3076 -0.1414
  797MOL0     C 7467   0.026   0.037   9.758 -0.6962 -0.3953 -0.1107
  797MOL0     O 7468  -0.087  -0.029   9.708  0.6906  0.2518 -0.2324
  797MOL0     C 7469  -0.117  -0.159   9.762  0.3628  0.2196 -0.2353
  797MOL0     C 7470  -0.263  -0.179   9.802  0.1816  0.1774  0.5523
  797MOL0     C 7471  -0.359  -0.193   9.692  0.6634 -0.7232  0.8224
  797MOL0     C 7472  -0.342  -0.325   9.605 -0.0448  0.0960  0.0801
  797MOL0     C 7473  -0.367  -0.455   9.672  0.5680  0.1613  0.2337
  797MOL0     C 7474  -0.510  -0.478   9.723  0.5973 -0.2628  0.6184
  797MOL0     C 7475  -0.619  -0.468   9.614 -0.4164  0.4473  0.0090
  797MOL0     C 7476  -0.762  -0.503   9.663 -0.1902  0.3087  0.3716
  797MOL0     N 7477  -0.867  -0.518   9.554 -0.3219  0.5458 -0.0185
  797MOL0     C 7478  -0.857  -0.602   9.444  0.4411  0.1301 -0.1558
  797MOL0     C 7479  -0.972  -0.575   9.376 -0.1325  0.9644 -0.1116
  797MOL0     C 7480  -1.013  -0.628   9.241  0.9721  0.0844  0.4884
  797MOL0     C 7481  -1.077  -0.773   9.262 -0.2658 -0.8475 -0.0282
  797MOL0     C 7482  -1.162  -0.803   9.134  0.1729  0.3940 -0.4362
  797MOL0     C 7483  -1.205  -0.947   9.135 -0.2420 -0.3889  0.9235
  797MOL0     O 7484  -1.345  -0.954   9.119  0.0140  0.2693  0.1885
  797MOL0     C 7485  -1.402  -1.078   9.107 -0.2165  0.6664  1.4620
  797MOL0     C 7486  -1.545  -1.086   9.110  0.4270 -0.0646 -0.5597
  797MOL0     C 7487  -1.607  -1.208   9.114 -0.8094 -0.1965 -0.5917
  797MOL0     C 7488  -1.760  -1.207   9.161 -0.0952 -0.3503 -0.2369
  797MOL0     C 7489  -1.541  -1.333   9.090 -0.8963  0.1975  0.2067
  797MOL0     C 7490  -1.601  -1.471   9.078 -0.4308 -0.3014  0.3559
  797MOL0     O 7491  -1.732  -1.487   9.091 -0.0911 -0.7626 -0.3791
  797MOL0     C 7492  -1.778  -1.619   9.110 -0.0556 -0.2034 -0.0896
  797MOL0     C 7493  -1.741  -1.695   9.219 -1.1940  1.1296  0.7237
  797MOL0     C 7494  -1.801  -1.815   9.247  0.2629 -0.5005  0.3206
  797MOL0     C 7495  -1.883  -1.878   9.153 -0.3710  0.8385 -0.3012
  797MOL0     O 7496  -1.924  -2.017   9.166  0.2485 -0.2093 -0.3168
  797MOL0     C 7497  -1.962  -2.062   9.292  0.0106  0.6480  0.0156
  797MOL0     C 7498  -2.010  -2.205   9.269 -0.1666  0.4883 -0.2030
  797MOL0     C 7499  -2.101  -2.270   9.373 -0.0591 -0.3528  0.5809
  797MOL0     C 7500  -2.079  -2.224   9.513  0.3821 -0.2625 -0.4446
  797MOL0     C 7501  -2.162  -2.298   9.626  0.5909 -0.1089 -0.6860
  797MOL0     C 7502  -2.151  -2.239   9.775 -0.2671  0.5572  0.2167
  797MOL0     C 7503  -2.290  -2.257   9.848  0.1972 -0.3523 -0.2183
  797MOL0     C 7504  -2.268  -2.271  10.000  0.3261 -0.2853 -0.0482
  797MOL0    Cl 7505  -2.168  -2.407  10.040  0.6561  0.3984 -0.0969
  797MOL0     C 7506  -1.914  -1.805   9.036 -1.0008  0.1207  0.2189
  797MOL0     C 7507  -1.858  -1.675   9.008 -0.3555 -0.0713 -0.8429
  797MOL0     O 7508  -1.526  -1.561   9.041 -0.6313 -0.7731 -0.6978
  797MOL0     C 7509  -1.403  -1.322   9.072  0.1008  0.2192  0.0326
  797MOL0     C 7510  -1.334  -1.202   9.090  0.5259 -0.0513  0.6595
  797MOL0     N 7511  -1.044  -0.481   9.447 -0.3475 -0.5116  0.8472
  797MOL0     N 7512  -0.988  -0.452   9.557 -0.1698 -0.1764  0.6455
  797MOL0     C 7513   0.072   0.030   9.892 -0.7722  0.6396  0.0019
  797MOL0     C 7514   0.192   0.099   9.921  0.5479  1.1926  0.0593
  797MOL0     C 7515   0.585   0.320   9.859 -0.1547  0.0280  0.2732
  797MOL0     C 7516   0.691   0.356   9.771  0.5471  0.1212 -0.6989
  797MOL0     C 7517   0.789   0.446   9.808 -0.1763 -0.1412  0.4664
  797MOL0     C 7518   0.789   0.503   9.933  0.0180  0.2167  0.9837
  797MOL0     O 7519   0.874   0.607   9.975 -0.6106  0.0257 -0.5164
  797MOL0     C 7520   0.981   0.635   9.885 -0.1399  0.3322  0.3470
  797MOL0     C 7521   1.092   0.530   9.899 -0.2109  0.3470  0.0839
  797MOL0     C 7522   1.218   0.581   9.824  0.6111  0.7936 -0.1637
  797MOL0     C 7523   1.331   0.480   9.836 -0.1250  0.2974 -0.6169
  797MOL0     C 7524   1.432   0.506   9.739 -0.3032  0.4706  0.2477
  797MOL0     C 7525   1.518   0.539   9.657  0.1823  0.2946 -0.5008
  797MOL0     C 7526   0.697   0.452  10.023  0.5188 -0.1221  0.0965
  797MOL0     C 7527   0.586   0.369   9.983  0.2596  0.4054 -0.4176
  797MOL0     H 7528   0.247   0.256   9.630  1.7948 -0.6732  0.8193
  797MOL0     H 7529   0.052   0.126   9.566  0.0079  0.5959 -0.6341
  797MOL0     H 7530  -0.098  -0.231   9.682 -2.8755 -1.1161  0.0692
  797MOL0     H 7531  -0.058  -0.178   9.852 -1.4899  0.2716  1.0355
  797MOL0     H 7532  -0.268  -0.278   9.848  2.3906 -0.2555 -0.0524
  797MOL0     H 7533  -0.306  -0.105   9.870 -3.5528 -0.0073 -1.3529
  797MOL0     H 7534  -0.462  -0.188   9.730  1.1117 -0.2825  2.0601
  797MOL0     H 7535  -0.342  -0.108   9.625 -1.1625 -1.5737 -0.7930
  797MOL0     H 7536  -0.402  -0.320   9.514  1.4613  0.4796 -0.9372
  797MOL0     H 7537  -0.242  -0.334   9.561 -1.0871  1.4351 -2.7900
  797MOL0     H 7538  -0.328  -0.538   9.613 -0.9354 -0.1528 -0.3679
  797MOL0     H 7539  -0.312  -0.477   9.764  1.4042 -2.5593 -0.8249
  797MOL0     H 7540  -0.520  -0.576   9.770 -0.0493 -0.7076 -0.4031
  797MOL0     H 7541  -0.531  -0.402   9.799 -3.1920 -1.9987  1.5540
  797MOL0     H 7542  -0.622  -0.362   9.587 -1.8039  1.7924  4.4490
  797MOL0     H 7543  -0.582  -0.536   9.538  1.5087 -0.5946  1.7617
  797MOL0     H 7544  -0.791  -0.423   9.731 -2.6212  0.1672 -0.4129
  797MOL0     H 7545  -0.755  -0.596   9.721  1.7683 -0.0428 -0.3554
  797MOL0     H 7546  -0.785  -0.677   9.413  1.2329  0.2721  1.2322
  797MOL0     H 7547  -1.090  -0.566   9.194 -0.0250 -3.4145 -3.0046
  797MOL0     H 7548  -0.939  -0.648   9.163 -0.1767 -1.6392 -0.2247
  797MOL0     H 7549  -1.151  -0.762   9.342  0.4893 -2.3867  0.9256
  797MOL0     H 7550  -0.999  -0.847   9.280 -1.6171 -2.0405  1.1826
  797MOL0     H 7551  -1.095  -0.792   9.049  2.4236 -2.9219  0.7248
  797MOL0     H 7552  -1.245  -0.731   9.132  0.3808  0.6817  0.6365
  797MOL0     H 7553  -1.170  -1.011   9.217  0.9353 -0.8986  0.0384
  797MOL0     H 7554  -1.161  -0.983   9.042  0.7095 -1.2282  1.6731
  797MOL0     H 7555  -1.603  -0.998   9.136  0.0112  0.0345 -1.7860
  797MOL0     H 7556  -1.784  -1.125   9.229 -2.7786  0.5956 -2.1316
  797MOL0     H 7557  -1.819  -1.190   9.070 -0.1333 -0.3780 -0.2175
  797MOL0     H 7558  -1.793  -1.302   9.203  0.7370 -0.3942  0.3340
  797MOL0     H 7559  -1.694  -1.643   9.302 -1.3090  2.4487 -0.0050
  797MOL0     H 7560  -1.771  -1.869   9.337 -0.9751  0.4584  1.3395
  797MOL0     H 7561  -1.886  -2.066   9.371  0.8891 -0.2714 -0.8314
  797MOL0     H 7562  -2.052  -2.004   9.315  0.4839  0.9852  1.1113
  797MOL0     H 7563  -2.060  -2.209   9.171  2.6566  0.2653 -1.7488
  797MOL0     H 7564  -1.922  -2.271   9.270 -0.7472 -0.2975  0.7697
  797MOL0     H 7565  -2.096  -2.379   9.369  1.5525 -0.2907  0.2426
  797MOL0     H 7566  -2.203  -2.244   9.344 -1.7947 -2.6610  3.9646
  797MOL0     H 7567  -1.973  -2.238   9.538  0.6125  1.8274 -0.0415
  797MOL0     H 7568  -2.101  -2.117   9.521 -0.8978 -0.4471 -1.3110
  797MOL0     H 7569  -2.136  -2.404   9.625  0.7095 -0.0792 -0.8084
  797MOL0     H 7570  -2.265  -2.299   9.589  0.7331  0.4878 -1.1093
  797MOL0     H 7571  -2.074  -2.295   9.829 -1.5707 -0.4060  1.1433
  797MOL0     H 7572  -2.124  -2.134   9.768  0.0692  0.6335  2.2342
  797MOL0     H 7573  -2.347  -2.340   9.806  0.9500 -0.6528 -0.6723
  797MOL0     H 7574  -2.349  -2.169   9.823 -0.8242 -1.0468 -0.2983
  797MOL0     H 7575  -2.366  -2.270  10.047 -0.9398 -0.1244 -2.5378
  797MOL0     H 7576  -2.218  -2.179  10.031  1.9575 -1.1780  0.1032
  797MOL0     H 7577  -1.989  -1.845   8.968 -0.9771  2.1676 -1.1030
  797MOL0     H 7578  -1.894  -1.617   8.923 -2.1249  1.6951  1.0004
  797MOL0     H 7579  -1.347  -1.411   9.048 -0.2336  0.4930 -1.9776
  797MOL0     H 7580  -1.226  -1.204   9.078  0.5390 -0.9876  0.8902
  797MOL0     H 7581   0.032  -0.037   9.968  1.1169  0.0784  0.5529
  797MOL0     H 7582   0.231   0.102  10.022  0.3809 -0.4290  0.1982
  797MOL0     H 7583   0.686   0.312   9.672 -1.9388  3.5117 -2.3038
  797MOL0     H 7584   0.863   0.472   9.733 -0.4396 -1.0930 -0.1368
  797MOL0     H 7585   0.950   0.662   9.784  0.4827  0.8131  0.2804
  797MOL0     H 7586   1.028   0.729   9.916  0.4306  0.4868 -0.9378
  797MOL0     H 7587   1.057   0.432   9.866 -1.9564 -0.6345  4.2593
  797MOL0     H 7588   1.115   0.527  10.005 -1.7046  0.9499  0.4629
  797MOL0     H 7589   1.246   0.679   9.863  1.2074  0.9715 -1.0095
  797MOL0     H 7590   1.194   0.600   9.719  1.2520  3.3464  0.0820
  797MOL0     H 7591   1.291   0.378   9.831  4.6978 -1.8433 -1.0464
  797MOL0     H 7592   1.387   0.479   9.929  2.3924  0.8096 -2.0521
  797MOL0     H 7593   1.608   0.550   9.599  0.8542 -1.8826  0.0294
  797MOL0     H 7594   0.708   0.486  10.125  1.6970 -0.2217  0.0125
  797MOL0     H 7595   0.508   0.338  10.050  0.0846 -0.5455 -1.0369
  798MOL0     O 7596  10.181   9.862  10.267  0.4823  0.3542 -0.3203
  798MOL0     C 7597  10.143   9.753  10.292 -0.5116  1.1729  1.5418
  798MOL0     O 7598  10.015   9.704  10.276  0.6329 -0.4484 -0.1469
  798MOL0     C 7599   9.902   9.781  10.241  0.3271  0.6807  1.2710
  798MOL0     C 7600   9.793   9.713  10.176 -0.8361  0.2556  0.1680
  798MOL0     C 7601   9.676   9.779  10.120  0.1211 -0.4279 -0.0983
  798MOL0     C 7602   9.666   9.917  10.143  0.1097 -0.2016  0.1848
  798MOL0     O 7603   9.571   9.986  10.068  0.0400  0.4987  0.4587
  798MOL0     C 7604   9.467  10.056  10.134 -0.0975 -0.5282  0.1671
  798MOL0     C 7605   9.366  10.113  10.032 -0.6014  0.3961  0.6274
  798MOL0     C 7606   9.247  10.175  10.098  0.6674 -0.4580 -0.2861
  798MOL0     C 7607   9.152  10.247  10.002  0.1403  0.2628 -0.9580
  798MOL0     C 7608   9.057  10.327  10.089  0.2891  0.0510  0.0260
  798MOL0     C 7609   8.982  10.437  10.019  0.1452  0.0945 -1.1239
  798MOL0     C 7610   8.854  10.383   9.953 -0.1169  0.3203  0.4105
  798MOL0     C 7611   8.744  10.321  10.043 -0.2516  0.0979 -0.0515
  798MOL0     N 7612   8.619  10.305   9.964  0.1634 -0.3436 -0.7352
  798MOL0     C 7613   8.602  10.204   9.876 -0.3910 -0.5047  0.2179
  798MOL0     C 7614   8.478  10.229   9.826  1.1986 -0.8904  0.2091
  798MOL0     C 7615   8.421  10.144   9.718  0.0011 -0.0777  0.5195
  798MOL0     C 7616   8.291  10.089   9.772  0.2759  0.4938  0.1748
  798MOL0     C 7617   8.252   9.951   9.709 -0.2150 -0.2515 -0.0940
  798MOL0     C 7618   8.143   9.879   9.792  0.0574 -0.3454  0.0778
  798MOL0     O 7619   8.008   9.932   9.772  0.1896  0.4770 -0.5996
  798MOL0     C 7620   7.908   9.866   9.832  0.7447 -0.2854 -0.3458
  798MOL0     C 7621   7.927   9.763   9.927 -0.5687 -0.3821 -0.1825
  798MOL0     C 7622   7.813   9.709   9.986  0.6292  0.1912 -0.3265
  798MOL0     C 7623   7.829   9.592  10.082 -0.3965  0.5819  0.3190
  798MOL0     C 7624   7.674   9.749   9.936 -0.0051  0.2323  0.0004
  798MOL0     C 7625   7.545   9.701   9.992  0.0999 -0.4536  0.6595
  798MOL0     O 7626   7.435   9.767   9.952  0.8990 -0.1344  0.1743
  798MOL0     C 7627   7.305   9.726   9.975 -0.4710  0.1829 -0.4022
  798MOL0     C 7628   7.251   9.685  10.099  1.0034 -0.2800 -0.5504
  798MOL0     C 7629   7.114   9.672  10.114 -0.4623  0.1425 -0.6717
  798MOL0     C 7630   7.024   9.700  10.006  0.9449 -0.8207 -1.3850
  798MOL0     O 7631   6.884   9.697  10.022  0.3354 -0.0795  0.0958
  798MOL0     C 7632   6.833   9.624  10.136  0.4357  0.4874 -0.1064
  798MOL0     C 7633   6.687   9.595  10.119 -0.2085 -0.2836 -0.5094
  798MOL0     C 7634   6.631   9.538  10.243 -0.0005  0.0802  0.2354
  798MOL0     C 7635   6.476   9.558  10.226 -0.3506  0.0045  0.4438
  798MOL0     C 7636   6.406   9.509  10.360  0.2503 -0.3599 -0.9829
  798MOL0     C 7637   6.252   9.506  10.346  0.9813 -0.0743 -0.6527
  798MOL0     C 7638   6.178   9.643  10.324 -0.1669 -0.2341  0.3423
  798MOL0     C 7639   6.027   9.633  10.346 -0.6780 -0.1407  0.0721
  798MOL0    Cl 7640   5.997   9.594  10.525 -0.0330  0.4016  0.0263
  798MOL0     C 7641   7.080   9.745   9.888 -0.7818  0.6315  0.0243
  798MOL0     C 7642   7.220   9.751   9.872  0.1801  0.1368  1.0955
  798MOL0     O 7643   7.545   9.596  10.052 -0.6524 -0.1061  0.3360
  798MOL0     C 7644   7.663   9.846   9.834 -0.5889  0.0140 -0.7922
  798MOL0     C 7645   7.781   9.905   9.787  0.1411  0.0125 -0.1530
  798MOL0     N 7646   8.420  10.345   9.884  0.6279  0.2797  0.1803
  798MOL0     N 7647   8.505  10.381   9.972  0.7200  0.7012 -0.0029
  798MOL0     C 7648   9.760   9.977  10.227  0.0435 -0.3333 -0.4098
  798MOL0     C 7649   9.874   9.908  10.281 -0.5003 -0.3782  0.1822
  798MOL0     C 7650  10.242   9.663  10.351  0.1640  0.3868  1.0703
  798MOL0     C 7651  10.201   9.550  10.426  0.9325 -0.6864  0.5041
  798MOL0     C 7652  10.283   9.449  10.468  0.1145  0.6309 -0.1370
  798MOL0     C 7653  10.421   9.458  10.438  0.2283 -0.1847  0.1247
  798MOL0     O 7654  10.506   9.367  10.496  0.1561 -0.7951  0.4350
  798MOL0     C 7655  10.648   9.383  10.467 -0.1944 -0.3532  0.0690
  798MOL0     C 7656  10.721   9.252  10.467 -0.4787  0.2274 -1.0878
  798MOL0     C 7657  10.651   9.151  10.386  0.4359  0.3999  0.2633
  798MOL0     C 7658  10.718   9.006  10.398  0.4515  0.0461  0.4812
  798MOL0     C 7659  10.837   8.993  10.301  0.1157  0.7452 -0.1321
  798MOL0     C 7660  10.931   8.982  10.228 -0.1057 -0.1461 -0.4721
  798MOL0     C 7661  10.477   9.566  10.363  0.8546  0.2674 -0.3183
  798MOL0     C 7662  10.381   9.666  10.319 -0.1441 -0.0120  0.2992
  798MOL0     H 7663   9.818   9.612  10.143  2.8856  1.7449 -2.1886
  798MOL0     H 7664   9.601   9.731  10.057 -0.7605  1.0480 -0.2091
  798MOL0     H 7665   9.411   9.994  10.204 -0.8986 -0.9049 -0.7810
  798MOL0     H 7666   9.507  10.144  10.185 -0.4713 -0.5256  0.4606
  798MOL0     H 7667   9.414  10.177   9.958 -3.7251  1.0203 -1.0160
  798MOL0     H 7668   9.329  10.020   9.987  1.0069  0.2721 -0.5350
  798MOL0     H 7669   9.194  10.100  10.158 -0.1118 -0.7798 -1.3633
  798MOL0     H 7670   9.288  10.240  10.176 -1.5812 -0.6162  1.1214
  798MOL0     H 7671   9.210  10.308   9.932 -0.1976  3.8767  1.6475
  798MOL0     H 7672   9.088  10.177   9.947 -0.9715 -0.3695  1.0611
  798MOL0     H 7673   8.999  10.260  10.152 -1.4151 -0.4451 -1.9471
  798MOL0     H 7674   9.113  10.375  10.169 -1.9346  1.2564  0.9172
  798MOL0     H 7675   8.950  10.511  10.093  1.8091 -0.3853  0.1350
  798MOL0     H 7676   9.044  10.488   9.944 -1.1743  1.0548 -1.5908
  798MOL0     H 7677   8.809  10.471   9.905  2.9491  0.4220 -2.6930
  798MOL0     H 7678   8.885  10.310   9.877  1.3614 -0.2287  1.4913
  798MOL0     H 7679   8.717  10.379  10.133 -1.3990 -3.2431  1.9504
  798MOL0     H 7680   8.784  10.226  10.081 -0.3957 -0.0962 -0.3842
  798MOL0     H 7681   8.675  10.126   9.857 -0.3578 -0.7087  1.1398
  798MOL0     H 7682   8.407  10.195   9.623  2.2956 -2.6189 -1.3233
  798MOL0     H 7683   8.492  10.071   9.679 -1.1542 -1.1944  0.4212
  798MOL0     H 7684   8.211  10.163   9.766 -1.1945 -0.8374  1.9463
  798MOL0     H 7685   8.299  10.080   9.881  1.7460  0.2613  0.0639
  798MOL0     H 7686   8.337   9.882   9.707  2.5870  2.9377 -1.1436
  798MOL0     H 7687   8.222   9.966   9.605  0.0434  0.7231 -0.0414
  798MOL0     H 7688   8.170   9.870   9.898  0.3950 -2.1621 -0.1393
  798MOL0     H 7689   8.149   9.775   9.759 -1.5275 -0.1803 -0.8793
  798MOL0     H 7690   8.025   9.745   9.970 -0.6352  1.4573  0.8417
  798MOL0     H 7691   7.769   9.600  10.174  0.9119 -0.2878  1.2876
  798MOL0     H 7692   7.806   9.500  10.027 -0.1645  2.5071 -3.2526
  798MOL0     H 7693   7.935   9.580  10.107  0.3497  2.0799 -1.8413
  798MOL0     H 7694   7.316   9.653  10.180  0.1021  0.2751  0.4128
  798MOL0     H 7695   7.077   9.644  10.212  0.7021 -2.3338 -0.8489
  798MOL0     H 7696   6.887   9.530  10.148 -0.5621 -0.4446 -2.2978
  798MOL0     H 7697   6.853   9.692  10.219 -2.5265  1.9351 -0.4470
  798MOL0     H 7698   6.644   9.693  10.095 -2.0703 -0.5743  1.3323
  798MOL0     H 7699   6.680   9.528  10.033 -0.7504 -0.7890 -0.0861
  798MOL0     H 7700   6.664   9.581  10.337  3.9395 -2.0882  0.0449
  798MOL0     H 7701   6.656   9.432  10.253  0.0958  0.1287  0.4979
  798MOL0     H 7702   6.451   9.665  10.227 -1.3941 -0.1906 -1.1696
  798MOL0     H 7703   6.442   9.514  10.132 -0.3589  0.4885  0.2164
  798MOL0     H 7704   6.433   9.582  10.436 -0.3499  0.4907 -1.5759
  798MOL0     H 7705   6.449   9.412  10.388  1.2514 -0.2741 -2.1648
  798MOL0     H 7706   6.225   9.439  10.264 -2.4843 -1.5377  1.4722
  798MOL0     H 7707   6.206   9.452  10.430  0.4706  0.2441 -0.7219
  798MOL0     H 7708   6.208   9.685  10.228  0.9686 -1.1693  0.2740
  798MOL0     H 7709   6.224   9.717  10.390 -1.6252  0.4967  0.5774
  798MOL0     H 7710   5.969   9.560  10.289 -0.2413  0.0824 -0.6656
  798MOL0     H 7711   5.984   9.725  10.305 -2.1339 -0.4818  0.7848
  798MOL0     H 7712   7.002   9.763   9.815 -1.3421 -0.1326  0.4264
  798MOL0     H 7713   7.265   9.790   9.781 -0.2814  1.3404  1.3743
  798MOL0     H 7714   7.568   9.890   9.805 -1.8311 -0.6757  1.9418
  798MOL0     H 7715   7.768   9.977   9.707 -0.7025  0.8564  0.7195
  798MOL0     H 7716   9.752  10.083  10.246 -0.8440 -0.8732  2.8412
  798MOL0     H 7717   9.938   9.970  10.342  0.8988 -0.7329 -0.8853
  798MOL0     H 7718  10.099   9.550  10.463  1.6475 -3.5533  2.8230
  798MOL0     H 7719  10.240   9.372  10.531 -0.6382  0.4637 -0.8427
  798MOL0     H 7720  10.666   9.409  10.362  0.4501 -0.5709  0.1195
  798MOL0     H 7721  10.696   9.452  10.536  3.1688 -4.1379  1.9879
  798MOL0     H 7722  10.723   9.200  10.563 -0.4667  1.0370 -0.6403
  798MOL0     H 7723  10.820   9.271  10.424 -0.9482  1.4054 -1.6950
  798MOL0     H 7724  10.664   9.181  10.282  0.3779  1.7744  0.6279
  798MOL0     H 7725  10.547   9.128  10.411  0.2601 -0.8568 -1.4443
  798MOL0     H 7726  10.636   8.939  10.373  0.5325 -0.1146  0.6483
  798MOL0     H 7727  10.755   8.981  10.498 -0.6051  3.3626  1.8461
  798MOL0     H 7728  11.010   8.992  10.157 -0.4166  0.4397 -0.7445
  798MOL0     H 7729  10.583   9.588  10.354  0.8674  1.0353  1.2673
  798MOL0     H 7730  10.407   9.756  10.264 -0.1230  0.1291  0.5407
  799MOL0     O 7731   1.558   5.804   4.928  1.0333  0.6677  0.3927
  799MOL0     C 7732   1.647   5.828   5.009 -0.1380  0.1798  0.0181
  799MOL0     O 7733   1.630   5.882   5.135  0.0272  0.3423 -0.3366
  799MOL0     C 7734   1.509   5.935   5.148  0.1711 -0.5522  0.2572
  799MOL0     C 7735   1.398   5.854   5.156 -0.6357  0.3581 -0.4880
  799MOL0     C 7736   1.269   5.909   5.164  0.8885 -0.3877 -0.7272
  799MOL0     C 7737   1.247   6.045   5.155  0.2869  0.0572 -1.0197
  799MOL0     O 7738   1.120   6.094   5.163  0.0892  0.2976 -0.0106
  799MOL0     C 7739   1.094   6.239   5.177  0.0430  0.4790 -0.2742
  799MOL0     C 7740   0.946   6.280   5.166  0.1253  0.3171  1.2481
  799MOL0     C 7741   0.912   6.312   5.019  0.5911 -0.2615  0.9337
  799MOL0     C 7742   0.766   6.370   5.013  0.0271  0.9401  0.4293
  799MOL0     C 7743   0.723   6.441   4.885  0.2995  0.1653  0.3473
  799MOL0     C 7744   0.593   6.525   4.895 -0.0135  0.2508  0.4250
  799MOL0     C 7745   0.567   6.582   4.750  1.0556 -0.0452 -0.2312
  799MOL0     C 7746   0.424   6.639   4.746  0.3029 -0.3178  0.1340
  799MOL0     N 7747   0.373   6.662   4.609  0.4413  0.4531 -0.1578
  799MOL0     C 7748   0.443   6.665   4.492  0.6201 -0.5696 -0.1071
  799MOL0     C 7749   0.355   6.706   4.395  0.0805  1.0085 -0.1188
  799MOL0     C 7750   0.391   6.756   4.257 -0.7370  0.2494 -0.1757
  799MOL0     C 7751   0.405   6.627   4.170  0.0546  0.7836  0.5526
  799MOL0     C 7752   0.430   6.638   4.016  1.3912  1.2142 -0.4154
  799MOL0     C 7753   0.404   6.781   3.961  0.4197 -0.0700 -0.2432
  799MOL0     O 7754   0.260   6.801   3.928  0.3912 -0.0108  0.3597
  799MOL0     C 7755   0.215   6.921   3.879 -0.6163 -0.0181 -0.1383
  799MOL0     C 7756   0.296   7.016   3.810 -0.3771 -0.5150 -1.2005
  799MOL0     C 7757   0.238   7.128   3.759  0.4454 -0.4189  0.8783
  799MOL0     C 7758   0.332   7.217   3.682 -0.1189 -0.5932 -0.5112
  799MOL0     C 7759   0.093   7.153   3.774  0.3280 -0.3880  0.2577
  799MOL0     C 7760   0.037   7.290   3.740 -0.0890  0.1685  0.2566
  799MOL0     O 7761  -0.092   7.294   3.697 -0.0696  0.7476  0.2929
  799MOL0     C 7762  -0.136   7.409   3.654  1.1885 -0.4077 -0.1790
  799MOL0     C 7763  -0.063   7.468   3.543  0.4027  0.4244  0.2207
  799MOL0     C 7764  -0.114   7.581   3.481 -0.6424  0.1650 -0.1079
  799MOL0     C 7765  -0.232   7.640   3.521  0.3606  0.2216 -0.1321
  799MOL0     O 7766  -0.282   7.741   3.447  0.6870 -0.0039 -0.4318
  799MOL0     C 7767  -0.272   7.868   3.512  0.7818  0.0564 -0.0462
  799MOL0     C 7768  -0.244   7.983   3.411  0.3586 -0.2001  0.4761
  799MOL0     C 7769  -0.113   7.970   3.338  0.6320  0.2851  0.3879
  799MOL0     C 7770   0.015   7.989   3.426  1.0008 -0.3318 -0.6910
  799MOL0     C 7771   0.128   7.996   3.318  0.4733  0.0599 -0.7017
  799MOL0     C 7772   0.269   8.018   3.398 -0.4631  0.1758  0.8565
  799MOL0     C 7773   0.286   8.149   3.472  0.0691 -0.8743  0.0854
  799MOL0     C 7774   0.418   8.134   3.574 -0.2844 -0.8154  0.4161
  799MOL0    Cl 7775   0.347   8.103   3.732 -0.7912 -0.3147 -0.3890
  799MOL0     C 7776  -0.299   7.580   3.629 -0.5689 -0.4584 -0.0490
  799MOL0     C 7777  -0.248   7.473   3.701  0.0084 -0.1223 -0.3201
  799MOL0     O 7778   0.111   7.383   3.740  0.0557 -0.4543  0.7986
  799MOL0     C 7779   0.011   7.054   3.828  0.9993 -0.2737  0.1501
  799MOL0     C 7780   0.076   6.938   3.874 -0.2509 -1.1402  0.6235
  799MOL0     N 7781   0.228   6.718   4.462 -0.6673 -0.7907  0.2927
  799MOL0     N 7782   0.240   6.696   4.585  0.0102 -0.5250 -0.3212
  799MOL0     C 7783   1.362   6.130   5.144  0.1679  0.5056  0.1282
  799MOL0     C 7784   1.490   6.075   5.149  0.8026  0.9085  0.2193
  799MOL0     C 7785   1.783   5.796   4.968 -0.3746 -0.0952 -0.1434
  799MOL0     C 7786   1.802   5.746   4.830 -0.6977  0.2728  0.1253
  799MOL0     C 7787   1.928   5.724   4.780 -0.3272 -0.7638  0.2382
  799MOL0     C 7788   2.041   5.732   4.863  1.2645  0.4036 -0.8419
  799MOL0     O 7789   2.163   5.707   4.798  0.2133 -0.2287 -0.1058
  799MOL0     C 7790   2.271   5.667   4.880  0.2251  0.2263 -0.3237
  799MOL0     C 7791   2.373   5.572   4.812 -0.1971  0.2063  0.7300
  799MOL0     C 7792   2.450   5.640   4.703 -0.0833  0.7927 -0.3597
  799MOL0     C 7793   2.521   5.539   4.611  0.5496  0.2115 -0.1809
  799MOL0     C 7794   2.620   5.610   4.524  0.8766 -0.4456 -0.1732
  799MOL0     C 7795   2.694   5.678   4.454  0.4969  0.4572 -0.9586
  799MOL0     C 7796   2.020   5.772   4.995 -0.3027 -0.8853 -0.5927
  799MOL0     C 7797   1.888   5.793   5.057 -0.7074 -0.4723 -0.3411
  799MOL0     H 7798   1.418   5.748   5.170 -2.1286 -0.0010 -0.9081
  799MOL0     H 7799   1.178   5.862   5.200  1.2846  0.3042  1.2625
  799MOL0     H 7800   1.130   6.275   5.274  1.4696  0.8430 -0.9092
  799MOL0     H 7801   1.152   6.295   5.103  4.4238 -2.1765  0.7457
  799MOL0     H 7802   0.892   6.192   5.202 -0.0730 -0.9264 -1.7904
  799MOL0     H 7803   0.933   6.366   5.232  0.8574  0.8772  0.6813
  799MOL0     H 7804   0.980   6.386   4.976 -0.9379 -0.2725 -1.7490
  799MOL0     H 7805   0.914   6.221   4.958  1.2070 -0.3291  1.0557
  799MOL0     H 7806   0.688   6.298   5.039  0.7857 -1.0992 -2.4759
  799MOL0     H 7807   0.766   6.438   5.099 -3.9679  0.1985  1.2279
  799MOL0     H 7808   0.801   6.503   4.841 -1.5909  3.9071  1.8021
  799MOL0     H 7809   0.702   6.359   4.815  0.0872 -0.7938  1.4961
  799MOL0     H 7810   0.502   6.477   4.933 -0.0248 -0.2324 -0.2018
  799MOL0     H 7811   0.617   6.604   4.968  0.7984  0.7629 -0.3756
  799MOL0     H 7812   0.643   6.651   4.714 -0.4673  1.8822  0.0869
  799MOL0     H 7813   0.568   6.498   4.680  0.0907 -0.0210 -0.2857
  799MOL0     H 7814   0.436   6.729   4.807  1.3117 -0.1798 -0.2566
  799MOL0     H 7815   0.344   6.581   4.792  1.4394 -1.2677  0.9524
  799MOL0     H 7816   0.549   6.647   4.480  1.2024 -0.1071  3.3013
  799MOL0     H 7817   0.302   6.805   4.215  1.4990  0.3753 -5.5772
  799MOL0     H 7818   0.481   6.818   4.256 -0.5207  0.1603  3.1941
  799MOL0     H 7819   0.309   6.576   4.181 -0.3520  1.4023 -0.0057
  799MOL0     H 7820   0.481   6.558   4.207  1.0538  1.0031 -0.9887
  799MOL0     H 7821   0.359   6.575   3.962  2.8289 -0.7772 -0.1433
  799MOL0     H 7822   0.539   6.624   4.008  1.3072  0.1537  0.0740
  799MOL0     H 7823   0.466   6.794   3.872  2.3301 -0.0112  1.0483
  799MOL0     H 7824   0.439   6.860   4.028 -0.2486  1.0455 -1.1778
  799MOL0     H 7825   0.402   7.002   3.796  0.3673  2.5199  0.5564
  799MOL0     H 7826   0.373   7.291   3.751 -0.0109  0.1435 -1.3514
  799MOL0     H 7827   0.411   7.155   3.640  0.7486  0.0017  0.2233
  799MOL0     H 7828   0.274   7.264   3.601 -0.9033 -2.0791 -0.8640
  799MOL0     H 7829   0.026   7.414   3.511 -0.1507 -0.4317  0.0994
  799MOL0     H 7830  -0.066   7.613   3.389 -2.2869  2.1769 -0.3583
  799MOL0     H 7831  -0.366   7.882   3.565  0.5049  1.2059 -0.8080
  799MOL0     H 7832  -0.193   7.880   3.588 -1.0071  1.4570  1.6901
  799MOL0     H 7833  -0.334   7.981   3.350  0.0513 -2.9744  0.8783
  799MOL0     H 7834  -0.242   8.072   3.475  0.8235 -0.8711  1.4263
  799MOL0     H 7835  -0.109   8.041   3.255 -2.1525  0.0876 -0.0234
  799MOL0     H 7836  -0.101   7.880   3.277  0.5033  1.3972 -1.3536
  799MOL0     H 7837   0.013   8.082   3.484  1.8786 -1.4967  1.3365
  799MOL0     H 7838   0.014   7.912   3.503 -0.3502  2.8260  2.7621
  799MOL0     H 7839   0.126   8.087   3.257  5.2347  2.0144  1.5589
  799MOL0     H 7840   0.130   7.903   3.261 -3.0507 -1.3502  1.1466
  799MOL0     H 7841   0.285   7.946   3.479  0.5262  0.8418  1.2695
  799MOL0     H 7842   0.349   8.002   3.326  0.0527 -1.9993  1.8195
  799MOL0     H 7843   0.201   8.183   3.531 -0.3243 -0.6321 -0.6137
  799MOL0     H 7844   0.306   8.223   3.394  3.7395 -3.6415 -1.9695
  799MOL0     H 7845   0.459   8.235   3.567 -0.6870 -0.5469  1.7480
  799MOL0     H 7846   0.475   8.044   3.547 -0.8661 -0.6195 -1.6323
  799MOL0     H 7847  -0.387   7.635   3.661  0.6459  1.9024 -0.5581
  799MOL0     H 7848  -0.305   7.441   3.788 -1.1221  1.6622 -0.3768
  799MOL0     H 7849  -0.097   7.042   3.836  1.2242 -1.7881  1.5729
  799MOL0     H 7850   0.011   6.859   3.911  1.0005 -1.6523  1.8125
  799MOL0     H 7851   1.341   6.236   5.146 -0.4419  0.3857  1.5182
  799MOL0     H 7852   1.572   6.146   5.142 -0.0721  1.7668 -2.3853
  799MOL0     H 7853   1.720   5.726   4.761 -0.4009  1.0174 -0.4467
  799MOL0     H 7854   1.944   5.704   4.674  0.2714  0.1570  0.1438
  799MOL0     H 7855   2.318   5.756   4.922 -1.5792  0.0545  2.2565
  799MOL0     H 7856   2.237   5.611   4.967  2.9136 -1.2651 -0.1393
  799MOL0     H 7857   2.326   5.481   4.772  0.6681 -0.9799  2.3257
  799MOL0     H 7858   2.440   5.530   4.888  0.4025  1.0912  0.7033
  799MOL0     H 7859   2.523   5.713   4.737  0.1360 -0.5808  2.4148
  799MOL0     H 7860   2.376   5.704   4.652 -0.1937  0.4733 -0.6071
  799MOL0     H 7861   2.454   5.472   4.557 -0.4494  0.5154  0.6482
  799MOL0     H 7862   2.580   5.476   4.678  1.5787  0.9994 -0.3138
  799MOL0     H 7863   2.759   5.741   4.397  1.8054  0.7698  0.7789
  799MOL0     H 7864   2.107   5.802   5.054 -2.3065  0.1414  2.0626
  799MOL0     H 7865   1.889   5.812   5.164  1.1245 -2.1412 -0.0071
  800MOL0     O 7866   0.492   3.092   5.849 -0.0075  0.0249 -0.2959
  800MOL0     C 7867   0.516   3.118   5.728 -0.1957 -0.1894 -1.0354
  800MOL0     O 7868   0.430   3.140   5.631 -0.6690 -0.3863 -0.0709
  800MOL0     C 7869   0.293   3.145   5.645 -0.2726  0.3578  0.2289
  800MOL0     C 7870   0.220   3.162   5.769  0.4111 -0.5904 -0.2746
  800MOL0     C 7871   0.081   3.182   5.768  0.0599  0.4487  0.3860
  800MOL0     C 7872   0.011   3.178   5.644 -0.8665  0.3581 -0.4810
  800MOL0     O 7873  -0.125   3.195   5.627  0.3837 -0.7554 -0.3352
  800MOL0     C 7874  -0.213   3.227   5.737  0.0988  0.0066  0.0410
  800MOL0     C 7875  -0.344   3.263   5.678  0.4930  0.3420  0.7613
  800MOL0     C 7876  -0.448   3.286   5.793  0.0984 -0.0748  0.7785
  800MOL0     C 7877  -0.579   3.341   5.749 -0.3788  0.7828  0.4964
  800MOL0     C 7878  -0.667   3.369   5.868  0.3179  0.2649  0.3696
  800MOL0     C 7879  -0.726   3.231   5.914  0.3604  0.2716  0.2269
  800MOL0     C 7880  -0.843   3.247   6.018  0.9937  0.4025 -0.0170
  800MOL0     C 7881  -0.971   3.293   5.942 -0.3622  0.1751 -0.0690
  800MOL0     N 7882  -1.061   3.335   6.053  0.1468 -0.2943  0.2500
  800MOL0     C 7883  -1.094   3.468   6.075  0.6779  0.4902  0.2349
  800MOL0     C 7884  -1.212   3.463   6.144  0.1407  0.2600 -0.5140
  800MOL0     C 7885  -1.317   3.563   6.167  0.7753 -0.6361  0.2677
  800MOL0     C 7886  -1.450   3.558   6.082 -0.7380  0.7464 -0.0771
  800MOL0     C 7887  -1.520   3.415   6.112 -0.3508  0.3085  0.3275
  800MOL0     C 7888  -1.671   3.433   6.092  0.1676 -0.2632  0.4641
  800MOL0     O 7889  -1.739   3.312   6.089  0.4177  0.2852  0.0551
  800MOL0     C 7890  -1.817   3.295   6.197  0.0222  1.9229 -0.8482
  800MOL0     C 7891  -1.776   3.252   6.323 -0.4382 -0.3571 -0.0297
  800MOL0     C 7892  -1.856   3.245   6.433 -0.4928  0.3111  0.1924
  800MOL0     C 7893  -1.789   3.212   6.571 -0.5478  0.3978  0.2938
  800MOL0     C 7894  -1.996   3.283   6.417 -0.0805 -0.4440 -0.0635
  800MOL0     C 7895  -2.092   3.284   6.527 -1.5525 -0.3444  0.6188
  800MOL0     O 7896  -2.215   3.334   6.492 -0.2744 -0.4158 -0.4062
  800MOL0     C 7897  -2.313   3.344   6.591  0.6300 -0.0238  0.1740
  800MOL0     C 7898  -2.357   3.227   6.657  0.8017 -0.0968 -1.4126
  800MOL0     C 7899  -2.455   3.236   6.763 -0.0003  0.2440 -0.7843
  800MOL0     C 7900  -2.503   3.358   6.802  0.1151  0.7491 -0.5298
  800MOL0     O 7901  -2.590   3.380   6.906  0.2055  0.6464 -0.3981
  800MOL0     C 7902  -2.662   3.267   6.960 -0.4615  0.2737 -0.4267
  800MOL0     C 7903  -2.773   3.302   7.059  0.5430 -0.1319  0.4266
  800MOL0     C 7904  -2.847   3.191   7.132 -0.3421  0.2962  0.0274
  800MOL0     C 7905  -2.925   3.244   7.241  0.0593  0.6013 -0.7999
  800MOL0     C 7906  -2.982   3.135   7.328 -0.3831  0.2203 -0.0267
  800MOL0     C 7907  -3.108   3.066   7.275 -0.6372  0.5763  0.8288
  800MOL0     C 7908  -3.176   2.990   7.385  0.0059  0.2589  0.8573
  800MOL0     C 7909  -3.096   2.875   7.440 -0.2091 -0.1621 -0.7630
  800MOL0    Cl 7910  -3.179   2.810   7.590 -0.2952 -0.0544 -0.0611
  800MOL0     C 7911  -2.454   3.472   6.730 -0.3141  0.5541 -0.0429
  800MOL0     C 7912  -2.372   3.459   6.622  0.6460 -0.1644  0.0425
  800MOL0     O 7913  -2.064   3.241   6.640  0.3038 -0.4693  0.1839
  800MOL0     C 7914  -2.039   3.314   6.286  0.4130  0.1272 -0.0657
  800MOL0     C 7915  -1.949   3.318   6.175  0.9337 -0.2665 -0.1584
  800MOL0     N 7916  -1.237   3.329   6.181 -0.1345 -0.4069 -0.0869
  800MOL0     N 7917  -1.152   3.251   6.114 -0.4051  0.0960 -0.4010
  800MOL0     C 7918   0.076   3.140   5.527 -0.4266 -0.2005 -0.2693
  800MOL0     C 7919   0.221   3.125   5.528  0.5944  1.1390 -0.2533
  800MOL0     C 7920   0.666   3.138   5.700  0.0123 -1.2869  0.2385
  800MOL0     C 7921   0.710   3.174   5.566 -0.6933  0.0429 -0.1677
  800MOL0     C 7922   0.849   3.182   5.537 -0.5402  0.0678 -0.2777
  800MOL0     C 7923   0.945   3.163   5.641  0.0162  0.0601 -0.1725
  800MOL0     O 7924   1.080   3.189   5.641 -0.4163 -0.8023 -0.2703
  800MOL0     C 7925   1.120   3.261   5.530 -0.1976 -0.2649 -0.4596
  800MOL0     C 7926   1.263   3.294   5.532 -0.5354 -0.1297 -0.2314
  800MOL0     C 7927   1.356   3.187   5.482  0.3461  0.0655  0.2316
  800MOL0     C 7928   1.494   3.193   5.549 -0.0894  0.2943  0.2617
  800MOL0     C 7929   1.598   3.131   5.468 -0.5631  0.7139 -0.3659
  800MOL0     C 7930   1.682   3.074   5.407  0.2523 -0.5817 -0.0834
  800MOL0     C 7931   0.898   3.123   5.768 -0.9014 -0.3913 -0.2344
  800MOL0     C 7932   0.759   3.121   5.793 -0.6186  0.4367  0.7590
  800MOL0     H 7933   0.262   3.167   5.869 -0.0217 -0.7354 -0.0856
  800MOL0     H 7934   0.029   3.196   5.863 -2.0850  3.5015 -1.0718
  800MOL0     H 7935  -0.229   3.140   5.801 -1.6404 -1.6045 -2.4396
  800MOL0     H 7936  -0.178   3.308   5.802  0.9738 -0.0962 -0.2810
  800MOL0     H 7937  -0.323   3.362   5.637  3.5663  0.0178  1.2841
  800MOL0     H 7938  -0.383   3.195   5.603  4.8188  0.3277 -1.8035
  800MOL0     H 7939  -0.466   3.192   5.844 -1.1518 -0.2676  0.0260
  800MOL0     H 7940  -0.411   3.364   5.860 -1.3641  0.7072  0.7100
  800MOL0     H 7941  -0.555   3.429   5.689 -0.3771 -0.9277 -2.2006
  800MOL0     H 7942  -0.629   3.276   5.676 -0.6388  2.0539 -0.4875
  800MOL0     H 7943  -0.612   3.415   5.950  1.3427  1.0288 -0.7122
  800MOL0     H 7944  -0.747   3.439   5.841  0.6963  0.4306 -0.3368
  800MOL0     H 7945  -0.758   3.165   5.832  3.1398 -1.5948  0.4984
  800MOL0     H 7946  -0.636   3.180   5.951  0.5882 -1.6474 -2.6238
  800MOL0     H 7947  -0.862   3.156   6.076  1.4447 -0.6891 -1.5006
  800MOL0     H 7948  -0.818   3.327   6.088  0.6662  1.5662 -1.1939
  800MOL0     H 7949  -1.015   3.203   5.898 -0.0317  1.2871 -2.9317
  800MOL0     H 7950  -0.960   3.364   5.860  1.8625 -2.0731 -1.8877
  800MOL0     H 7951  -1.046   3.557   6.035 -0.1621  0.6565 -0.4361
  800MOL0     H 7952  -1.341   3.558   6.274 -0.4639 -1.4268 -0.0382
  800MOL0     H 7953  -1.287   3.667   6.147 -0.7614 -0.3978 -1.0088
  800MOL0     H 7954  -1.424   3.558   5.975 -0.1326  2.5640  0.0293
  800MOL0     H 7955  -1.520   3.637   6.110 -1.5194 -0.4084  1.3136
  800MOL0     H 7956  -1.501   3.387   6.216  0.7402 -0.8173 -0.1594
  800MOL0     H 7957  -1.486   3.340   6.042  1.6033  2.9122 -1.7158
  800MOL0     H 7958  -1.687   3.485   5.997  0.4020 -0.1090  0.5068
  800MOL0     H 7959  -1.712   3.499   6.170  0.6748 -0.1013  0.6005
  800MOL0     H 7960  -1.668   3.246   6.331  0.0526  4.0583 -0.6858
  800MOL0     H 7961  -1.852   3.138   6.622 -0.7394  0.6632  0.4437
  800MOL0     H 7962  -1.691   3.163   6.560 -0.5488  0.2629  0.8881
  800MOL0     H 7963  -1.769   3.303   6.627  1.9512  0.6039 -0.7794
  800MOL0     H 7964  -2.333   3.130   6.614  1.5310  0.1624 -1.5941
  800MOL0     H 7965  -2.492   3.142   6.804 -3.2174  1.2086 -1.2105
  800MOL0     H 7966  -2.702   3.208   6.876  0.0259  2.3344 -2.1916
  800MOL0     H 7967  -2.590   3.206   7.017 -0.7330 -0.2995 -0.6895
  800MOL0     H 7968  -2.734   3.368   7.137 -0.5763  0.8298  0.1917
  800MOL0     H 7969  -2.853   3.354   7.007 -0.9115 -1.2906  1.4359
  800MOL0     H 7970  -2.768   3.131   7.178  1.4439  0.8549 -2.1412
  800MOL0     H 7971  -2.910   3.130   7.067  0.1121 -1.1797  0.9322
  800MOL0     H 7972  -2.874   3.316   7.306 -1.3415 -0.7207  1.9915
  800MOL0     H 7973  -3.014   3.301   7.213 -0.4644  0.3133  0.2267
  800MOL0     H 7974  -2.997   3.169   7.431 -1.8634 -2.2781  0.6688
  800MOL0     H 7975  -2.901   3.061   7.334 -0.1561  0.2705 -1.9048
  800MOL0     H 7976  -3.183   3.130   7.229 -1.7731  0.8455  2.9312
  800MOL0     H 7977  -3.074   2.989   7.205 -1.4637  1.0498 -0.1141
  800MOL0     H 7978  -3.265   2.951   7.335  1.1573  1.2583 -2.2705
  800MOL0     H 7979  -3.206   3.057   7.466  0.5538  2.2834 -0.5117
  800MOL0     H 7980  -3.003   2.922   7.473 -1.6511  1.5627  1.1806
  800MOL0     H 7981  -3.093   2.794   7.367 -5.3123  1.5022 -3.3150
  800MOL0     H 7982  -2.486   3.571   6.760  1.0195  0.4877  1.7072
  800MOL0     H 7983  -2.353   3.544   6.557  3.0367 -0.7518 -0.1185
  800MOL0     H 7984  -2.139   3.348   6.260  0.2882  0.3145  0.6296
  800MOL0     H 7985  -1.971   3.358   6.077  2.9193 -1.1631 -1.0310
  800MOL0     H 7986   0.034   3.152   5.427  0.5132  0.9168 -0.5521
  800MOL0     H 7987   0.283   3.089   5.446 -2.1167 -2.9893 -0.7861
  800MOL0     H 7988   0.631   3.195   5.495 -0.4430 -2.6332 -1.3501
  800MOL0     H 7989   0.880   3.203   5.435 -0.5642  1.8566  0.0566
  800MOL0     H 7990   1.103   3.212   5.433 -3.5134 -1.4914  0.6147
  800MOL0     H 7991   1.058   3.350   5.523 -2.1991 -1.2687  2.6936
  800MOL0     H 7992   1.289   3.328   5.633 -2.6879  0.1531  0.2783
  800MOL0     H 7993   1.272   3.382   5.469 -0.0528  2.0375  2.6425
  800MOL0     H 7994   1.373   3.187   5.374  0.3972  0.1752  0.2389
  800MOL0     H 7995   1.315   3.087   5.499 -0.3830 -0.0356 -1.8466
  800MOL0     H 7996   1.489   3.142   5.646 -1.6001 -0.2252 -0.0629
  800MOL0     H 7997   1.537   3.290   5.577  0.7281 -0.9565  3.9547
  800MOL0     H 7998   1.760   3.027   5.351  0.8996 -0.1845  0.4724
  800MOL0     H 7999   0.964   3.101   5.851 -1.9868 -0.1518  0.7194
  800MOL0     H 8000   0.711   3.091   5.886 -3.5122 -0.7423 -0.9753
  801MOL0     O 8001   1.415   5.623   4.044 -0.1659  0.4690  0.2009
  801MOL0     C 8002   1.385   5.740   4.024  0.3982  0.1883 -0.2739
  801MOL0     O 8003   1.456   5.840   3.961 -0.0489  0.1837 -0.2857
  801MOL0     C 8004   1.584   5.806   3.935  0.0495 -0.4842 -0.4526
  801MOL0     C 8005   1.679   5.851   4.034  0.2658 -0.2751  1.6310
  801MOL0     C 8006   1.810   5.833   3.999 -0.1369 -0.6532 -0.3860
  801MOL0     C 8007   1.860   5.767   3.892  0.5939 -0.1692 -0.6444
  801MOL0     O 8008   1.995   5.736   3.883 -0.0974 -0.6772 -0.0073
  801MOL0     C 8009   2.056   5.801   3.772 -0.1025 -0.1410 -0.7514
  801MOL0     C 8010   2.203   5.808   3.803  0.2939  0.1026  0.2268
  801MOL0     C 8011   2.278   5.830   3.671  0.5606  0.0091 -0.5035
  801MOL0     C 8012   2.430   5.850   3.671 -0.0189 -0.2414  1.0441
  801MOL0     C 8013   2.480   5.901   3.535 -0.2743 -0.2509 -0.2746
  801MOL0     C 8014   2.616   5.968   3.546  0.3985 -0.0634  0.5919
  801MOL0     C 8015   2.736   5.878   3.588 -0.8670 -1.0371  0.2672
  801MOL0     C 8016   2.843   5.932   3.681  0.0488  0.3783  0.6764
  801MOL0     N 8017   2.781   5.979   3.804 -0.1192 -1.2108  0.6553
  801MOL0     C 8018   2.709   5.912   3.897  0.1726 -0.2986  0.0364
  801MOL0     C 8019   2.673   6.002   3.992  0.4375 -0.1948  0.4636
  801MOL0     C 8020   2.595   5.975   4.108 -0.0836  0.1448 -0.8786
  801MOL0     C 8021   2.448   5.931   4.078  0.0099 -0.0553  0.9209
  801MOL0     C 8022   2.387   5.906   4.214  0.4239  0.3280  0.4400
  801MOL0     C 8023   2.250   5.830   4.185  0.6975  0.4146 -0.1407
  801MOL0     O 8024   2.195   5.779   4.309  0.2192 -0.7051 -0.3737
  801MOL0     C 8025   2.059   5.784   4.313 -0.4117  0.1145 -0.3771
  801MOL0     C 8026   1.981   5.682   4.260  0.1055 -0.3506  0.1826
  801MOL0     C 8027   1.845   5.682   4.284  0.3640 -0.6123  0.0107
  801MOL0     C 8028   1.778   5.565   4.230  0.5229 -0.6626  0.3619
  801MOL0     C 8029   1.781   5.790   4.349 -0.4289  0.2732  0.2607
  801MOL0     C 8030   1.637   5.791   4.390 -0.3787  0.2512  0.3373
  801MOL0     O 8031   1.608   5.888   4.475  0.1583 -0.0087  0.1629
  801MOL0     C 8032   1.476   5.912   4.518 -0.4599  0.4054  0.0525
  801MOL0     C 8033   1.368   5.914   4.426 -0.1154  0.1318 -0.5442
  801MOL0     C 8034   1.242   5.947   4.474  0.8342 -0.1990 -0.8512
  801MOL0     C 8035   1.212   5.971   4.609 -0.4005  0.6305 -0.2984
  801MOL0     O 8036   1.084   6.005   4.645  0.4566 -0.2156 -0.2987
  801MOL0     C 8037   1.046   5.980   4.787  1.2775 -0.1819 -0.1016
  801MOL0     C 8038   0.897   5.989   4.793  0.3065  0.7995 -0.1640
  801MOL0     C 8039   0.812   5.894   4.700 -0.0734 -0.7780  0.0283
  801MOL0     C 8040   0.651   5.906   4.739 -0.5580  0.0898  0.6153
  801MOL0     C 8041   0.568   5.850   4.629  0.6618 -0.3903  0.6505
  801MOL0     C 8042   0.418   5.889   4.650  0.7764 -0.1741  0.1035
  801MOL0     C 8043   0.312   5.822   4.552 -0.5741  0.4235 -0.1622
  801MOL0     C 8044   0.283   5.673   4.572  0.2475 -0.9212 -1.0858
  801MOL0    Cl 8045   0.112   5.645   4.513  0.1033 -0.1700 -0.0786
  801MOL0     C 8046   1.324   5.966   4.702  0.8888  0.7045 -0.8604
  801MOL0     C 8047   1.453   5.942   4.654 -0.6660 -0.3453  0.4740
  801MOL0     O 8048   1.561   5.704   4.355  0.1716 -1.0876  0.2969
  801MOL0     C 8049   1.869   5.893   4.399 -0.3322  0.3539 -0.1799
  801MOL0     C 8050   2.007   5.893   4.379 -1.3572  0.5204  0.4248
  801MOL0     N 8051   2.722   6.124   3.962  0.4594 -0.5960  0.0609
  801MOL0     N 8052   2.779   6.115   3.845  0.5730  0.8029  0.3779
  801MOL0     C 8053   1.765   5.729   3.793 -0.1962 -0.2832  0.3439
  801MOL0     C 8054   1.630   5.749   3.812 -0.3351 -0.3229 -0.1116
  801MOL0     C 8055   1.248   5.781   4.060 -0.4703  0.2173  0.8031
  801MOL0     C 8056   1.186   5.894   3.995 -0.6011 -0.2661 -0.0432
  801MOL0     C 8057   1.054   5.928   4.023 -1.0813 -0.0324  1.0574
  801MOL0     C 8058   0.980   5.866   4.119  0.2493 -0.3112 -0.1464
  801MOL0     O 8059   0.855   5.916   4.151 -0.3234  0.1100 -0.1062
  801MOL0     C 8060   0.831   5.928   4.287 -0.4705 -0.9073 -0.0203
  801MOL0     C 8061   0.735   6.040   4.311  1.1673 -0.2175  0.0692
  801MOL0     C 8062   0.616   6.040   4.220 -1.2581  0.2629 -0.1391
  801MOL0     C 8063   0.498   6.123   4.270  0.6967 -0.3293 -0.1534
  801MOL0     C 8064   0.534   6.254   4.327  0.2484  0.5712  0.7875
  801MOL0     C 8065   0.579   6.365   4.366  1.2028 -0.3806  0.2693
  801MOL0     C 8066   1.038   5.753   4.176  1.4595 -0.0993  0.5185
  801MOL0     C 8067   1.163   5.712   4.149 -0.3056  0.3538  0.5451
  801MOL0     H 8068   1.642   5.916   4.113 -0.3053  2.0836 -0.4365
  801MOL0     H 8069   1.887   5.871   4.067 -0.6951  0.0901 -0.1520
  801MOL0     H 8070   2.033   5.742   3.682 -2.3287 -0.3207 -0.1140
  801MOL0     H 8071   2.026   5.905   3.761  1.9309  0.9070  2.3001
  801MOL0     H 8072   2.223   5.878   3.884 -0.0255 -0.4922  0.8360
  801MOL0     H 8073   2.234   5.706   3.827 -0.1794 -0.5903 -1.8604
  801MOL0     H 8074   2.245   5.754   3.599 -1.1471 -0.3209  0.5680
  801MOL0     H 8075   2.237   5.924   3.633  1.9025  0.2656 -1.3647
  801MOL0     H 8076   2.458   5.926   3.745  0.8752  1.8147 -1.2740
  801MOL0     H 8077   2.478   5.753   3.685  0.8203 -0.1173 -0.7322
  801MOL0     H 8078   2.489   5.826   3.455 -1.6387 -1.0271  0.2622
  801MOL0     H 8079   2.409   5.976   3.500  3.9890  2.9323 -3.1355
  801MOL0     H 8080   2.631   6.024   3.453 -1.4779  2.5181  1.7115
  801MOL0     H 8081   2.616   6.052   3.617 -0.9400  0.8615 -0.4428
  801MOL0     H 8082   2.691   5.789   3.633  1.9448 -2.6817  0.0710
  801MOL0     H 8083   2.784   5.855   3.493  3.0248 -1.8604  2.2438
  801MOL0     H 8084   2.891   6.022   3.642  0.6926  0.1033  0.8078
  801MOL0     H 8085   2.917   5.852   3.690  0.0057  0.3113  0.4402
  801MOL0     H 8086   2.677   5.808   3.888 -1.4893  0.1754  0.1288
  801MOL0     H 8087   2.646   5.898   4.166  1.3295  1.5953 -0.1207
  801MOL0     H 8088   2.600   6.069   4.164  5.6144  0.3958 -1.2256
  801MOL0     H 8089   2.459   5.842   4.016  1.5066  1.7194 -1.5460
  801MOL0     H 8090   2.381   6.003   4.030 -3.7913 -2.8906  1.5115
  801MOL0     H 8091   2.352   5.993   4.271 -0.5126  0.3006 -0.0851
  801MOL0     H 8092   2.460   5.853   4.276  0.7047  0.3520  0.1277
  801MOL0     H 8093   2.279   5.751   4.115  1.3577  1.6020 -1.2640
  801MOL0     H 8094   2.184   5.887   4.119  2.7537 -0.6939 -3.4368
  801MOL0     H 8095   2.030   5.610   4.195 -1.8078  0.4567 -2.3438
  801MOL0     H 8096   1.688   5.600   4.178  0.2032 -4.6298 -2.1339
  801MOL0     H 8097   1.840   5.522   4.151 -0.2673  1.7966 -1.7555
  801MOL0     H 8098   1.759   5.489   4.306  2.2803 -1.7052 -0.1764
  801MOL0     H 8099   1.390   5.887   4.324 -1.9321  2.5916 -1.6876
  801MOL0     H 8100   1.152   5.954   4.414 -0.7069 -0.3041  1.3240
  801MOL0     H 8101   1.067   5.879   4.824  0.8849 -0.3793 -0.4043
  801MOL0     H 8102   1.087   6.039   4.869 -2.7828  2.9021 -0.0173
  801MOL0     H 8103   0.877   5.972   4.899  1.3699  0.3996 -0.0178
  801MOL0     H 8104   0.861   6.091   4.777 -0.9358  0.0927 -2.2384
  801MOL0     H 8105   0.859   5.795   4.699  1.8031  0.0733  0.0728
  801MOL0     H 8106   0.819   5.928   4.597 -0.6630  0.6473  0.4390
  801MOL0     H 8107   0.636   5.846   4.829  0.3092  1.1123  1.4817
  801MOL0     H 8108   0.621   6.009   4.759 -1.9321  0.2867 -2.0312
  801MOL0     H 8109   0.583   5.742   4.614 -0.4453 -0.1666 -3.0050
  801MOL0     H 8110   0.598   5.880   4.529  1.1927 -2.0020  0.2943
  801MOL0     H 8111   0.372   5.880   4.749  2.8030 -1.4340  0.9886
  801MOL0     H 8112   0.415   5.996   4.630 -1.8553  0.0294  1.1279
  801MOL0     H 8113   0.336   5.852   4.449 -1.3531 -1.7362 -1.0146
  801MOL0     H 8114   0.218   5.870   4.581 -2.2045 -2.5820 -0.1525
  801MOL0     H 8115   0.295   5.639   4.676  0.0759 -1.0528 -1.1083
  801MOL0     H 8116   0.362   5.631   4.509 -0.6206 -0.3478 -2.6111
  801MOL0     H 8117   1.302   5.992   4.805 -3.8436 -0.7440 -1.2831
  801MOL0     H 8118   1.536   5.956   4.721  0.1083  2.5849 -0.9556
  801MOL0     H 8119   1.831   5.978   4.454  0.1760  0.8753 -0.6255
  801MOL0     H 8120   2.085   5.955   4.422 -0.1624  1.0572 -2.3231
  801MOL0     H 8121   1.803   5.672   3.709  2.2039 -0.3632  1.4116
  801MOL0     H 8122   1.568   5.735   3.724  3.2073  0.2123 -2.9282
  801MOL0     H 8123   1.248   5.956   3.931 -1.7452 -1.0999 -2.0106
  801MOL0     H 8124   1.019   6.018   3.973 -0.4456  0.3193  1.2323
  801MOL0     H 8125   0.788   5.836   4.329 -0.2165 -1.7776 -1.5896
  801MOL0     H 8126   0.926   5.956   4.333 -2.0731  0.1929  2.8842
  801MOL0     H 8127   0.796   6.131   4.316 -1.0281  1.3961 -1.0680
  801MOL0     H 8128   0.701   6.032   4.414 -2.0405  0.4671 -0.8333
  801MOL0     H 8129   0.585   5.935   4.220 -1.1559  0.1721  2.3731
  801MOL0     H 8130   0.654   6.063   4.120  1.3321  2.3956  1.2117
  801MOL0     H 8131   0.457   6.057   4.347  2.2806 -0.4578  0.6290
  801MOL0     H 8132   0.440   6.140   4.179  0.4333 -4.6485 -1.0284
  801MOL0     H 8133   0.599   6.468   4.387 -3.1106  0.4037  1.4799
  801MOL0     H 8134   0.976   5.703   4.250 -1.4976  1.2641 -0.8893
  801MOL0     H 8135   1.193   5.614   4.183 -0.4723 -0.2785 -1.0563
  802MOL0     O 8136   2.003   9.572   1.130  0.0606  0.1017 -0.3327
  802MOL0     C 8137   2.019   9.625   1.018  1.0204  0.3874  1.2889
  802MOL0     O 8138   1.907   9.658   0.939  0.5836  0.1661  0.4807
  802MOL0     C 8139   1.774   9.661   0.970 -0.7365 -0.8221  0.1127
  802MOL0     C 8140   1.676   9.639   0.881 -0.4482 -0.0567  0.3009
  802MOL0     C 8141   1.547   9.597   0.914  0.1726 -0.3803  0.4789
  802MOL0     C 8142   1.504   9.589   1.045 -0.5605 -0.1063  0.9617
  802MOL0     O 8143   1.378   9.544   1.098 -0.4453 -0.5351  0.1483
  802MOL0     C 8144   1.279   9.506   0.997 -0.8219  0.3172  0.6639
  802MOL0     C 8145   1.137   9.493   1.058 -0.6936  0.0127 -0.3770
  802MOL0     C 8146   1.038   9.401   0.987 -0.3047 -0.9949  1.0067
  802MOL0     C 8147   0.894   9.440   1.023  0.4058 -0.8200  0.0663
  802MOL0     C 8148   0.779   9.411   0.918  0.7493  0.4657 -0.4714
  802MOL0     C 8149   0.730   9.266   0.927  0.8957 -0.3712 -0.1224
  802MOL0     C 8150   0.644   9.241   1.050  0.0364  0.3457  0.0286
  802MOL0     C 8151   0.572   9.106   1.049 -0.3371 -0.0418 -0.6442
  802MOL0     N 8152   0.448   9.109   0.977  0.0676  0.2881  0.6078
  802MOL0     C 8153   0.332   9.165   1.012 -0.2934  0.2728  0.0887
  802MOL0     C 8154   0.243   9.148   0.913  0.4248 -0.5474 -0.1356
  802MOL0     C 8155   0.098   9.196   0.911  0.4966 -0.9598  0.3337
  802MOL0     C 8156   0.000   9.099   0.981 -0.5941 -0.4108  0.7685
  802MOL0     C 8157  -0.058   9.139   1.114  0.7129  0.1200 -0.0004
  802MOL0     C 8158  -0.172   9.044   1.158 -0.7305 -0.0598  0.1735
  802MOL0     O 8159  -0.264   9.052   1.048 -0.2681 -0.2751 -0.8376
  802MOL0     C 8160  -0.390   9.000   1.055 -0.4732  0.7343  0.1862
  802MOL0     C 8161  -0.456   8.979   0.938 -0.9134 -0.6020 -0.7486
  802MOL0     C 8162  -0.590   8.929   0.931 -0.0743  0.3412  0.3145
  802MOL0     C 8163  -0.653   8.921   0.788  0.5430 -1.0124 -0.4287
  802MOL0     C 8164  -0.643   8.883   1.055  0.7425 -0.3604  0.2198
  802MOL0     C 8165  -0.787   8.818   1.068  0.2723  0.0141 -0.2436
  802MOL0     O 8166  -0.844   8.811   1.195  0.1258 -0.2528  0.0303
  802MOL0     C 8167  -0.963   8.742   1.216  0.3448  0.0199  0.0176
  802MOL0     C 8168  -1.071   8.767   1.137 -1.0974 -0.1273  0.4217
  802MOL0     C 8169  -1.195   8.704   1.155 -0.1928 -0.4201 -0.3300
  802MOL0     C 8170  -1.213   8.610   1.268  0.4741 -0.6068  0.6030
  802MOL0     O 8171  -1.325   8.535   1.291 -0.1239  0.4758 -0.2246
  802MOL0     C 8172  -1.415   8.513   1.178  0.4030  0.5275  0.3723
  802MOL0     C 8173  -1.515   8.402   1.195 -0.3993  0.1936 -0.6382
  802MOL0     C 8174  -1.625   8.414   1.303  0.0946 -0.3258 -0.3414
  802MOL0     C 8175  -1.711   8.287   1.312 -0.0479  1.6470 -0.0418
  802MOL0     C 8176  -1.835   8.317   1.389 -0.1494  0.2091 -0.6744
  802MOL0     C 8177  -1.927   8.195   1.395  0.5020 -0.4631  0.3623
  802MOL0     C 8178  -1.865   8.089   1.481  0.2003  0.1494  0.0882
  802MOL0     C 8179  -1.960   7.981   1.519  0.2977  0.2754 -0.0463
  802MOL0    Cl 8180  -1.873   7.828   1.547  0.1958  0.2919  0.1359
  802MOL0     C 8181  -1.093   8.585   1.349  0.4179 -0.5928 -0.4623
  802MOL0     C 8182  -0.975   8.654   1.326  0.5849 -0.1325 -0.6345
  802MOL0     O 8183  -0.840   8.776   0.961 -0.0085 -0.4328 -0.3945
  802MOL0     C 8184  -0.567   8.900   1.168  0.3163  0.4821 -0.9021
  802MOL0     C 8185  -0.441   8.958   1.171  0.2704 -0.9071  1.4297
  802MOL0     N 8186   0.318   9.098   0.811  0.3738  0.4227  0.0025
  802MOL0     N 8187   0.433   9.069   0.843 -0.2135 -0.1108 -0.2227
  802MOL0     C 8188   1.601   9.627   1.142 -0.5015  1.3228 -0.0708
  802MOL0     C 8189   1.731   9.658   1.108  0.2445 -0.6593  0.5838
  802MOL0     C 8190   2.150   9.647   0.958  0.0707  0.4223 -0.4040
  802MOL0     C 8191   2.163   9.679   0.824 -0.3227  0.1766 -0.6390
  802MOL0     C 8192   2.286   9.704   0.767 -0.3959  0.0389 -0.1839
  802MOL0     C 8193   2.399   9.684   0.840  0.1052 -0.3815  0.1069
  802MOL0     O 8194   2.521   9.726   0.791  0.3285 -0.4724 -0.6119
  802MOL0     C 8195   2.640   9.690   0.860  0.2059  0.0042 -0.5199
  802MOL0     C 8196   2.677   9.541   0.856  0.3097  0.0493 -0.2947
  802MOL0     C 8197   2.813   9.498   0.918  0.5781  0.2721  0.5615
  802MOL0     C 8198   2.838   9.517   1.071  0.6648  0.3182 -0.3193
  802MOL0     C 8199   2.968   9.499   1.133 -0.8036 -0.4182 -0.0836
  802MOL0     C 8200   3.065   9.466   1.192 -0.1742  0.2797  0.9324
  802MOL0     C 8201   2.382   9.657   0.979 -0.6030  0.0842 -0.1545
  802MOL0     C 8202   2.264   9.631   1.043  0.1932 -0.4164  0.5221
  802MOL0     H 8203   1.704   9.653   0.777 -1.6470  2.2771  0.2450
  802MOL0     H 8204   1.491   9.569   0.825  2.4171 -0.7053 -0.9149
  802MOL0     H 8205   1.280   9.579   0.916  2.2405  1.3125  1.4600
  802MOL0     H 8206   1.310   9.411   0.951  0.7455  0.9200  0.3997
  802MOL0     H 8207   1.150   9.457   1.161  0.7648  0.1975 -0.4686
  802MOL0     H 8208   1.094   9.593   1.069  1.6915  1.1515 -0.6835
  802MOL0     H 8209   1.043   9.415   0.878  1.6932 -0.8573  1.0850
  802MOL0     H 8210   1.045   9.295   1.016 -0.7850 -0.0513  5.1064
  802MOL0     H 8211   0.874   9.401   1.124 -1.2629  0.2699  0.1939
  802MOL0     H 8212   0.896   9.549   1.027  0.5427 -0.8543  1.2630
  802MOL0     H 8213   0.691   9.464   0.956 -0.7883 -0.2872 -2.7852
  802MOL0     H 8214   0.807   9.446   0.818  0.1555 -3.2208 -2.0794
  802MOL0     H 8215   0.675   9.250   0.834 -1.5610 -0.2302  1.2419
  802MOL0     H 8216   0.816   9.197   0.927  1.8958  0.7855 -1.7570
  802MOL0     H 8217   0.707   9.263   1.136 -0.9340  2.3739  0.2927
  802MOL0     H 8218   0.561   9.312   1.059  0.5292  0.8982  0.2992
  802MOL0     H 8219   0.549   9.073   1.151  2.1789  2.1761  0.7806
  802MOL0     H 8220   0.641   9.030   1.012 -0.7635 -0.0518 -1.4324
  802MOL0     H 8221   0.302   9.209   1.106 -1.0719 -0.7456  0.3363
  802MOL0     H 8222   0.088   9.295   0.956  2.6617  0.1808 -1.4765
  802MOL0     H 8223   0.068   9.211   0.807 -1.2281  0.5312  0.9761
  802MOL0     H 8224   0.067   9.017   1.009  1.2111  1.3300  1.8615
  802MOL0     H 8225  -0.067   9.061   0.904  2.1483  0.1948 -2.1431
  802MOL0     H 8226  -0.112   9.233   1.098 -1.7844 -1.6492 -3.3487
  802MOL0     H 8227   0.027   9.135   1.182  1.3183 -1.9339 -0.8129
  802MOL0     H 8228  -0.218   9.079   1.251  1.7011  2.7774  0.4535
  802MOL0     H 8229  -0.143   8.939   1.161  2.0492  0.5826 -0.9570
  802MOL0     H 8230  -0.403   9.010   0.849 -0.3219  0.3756 -0.0796
  802MOL0     H 8231  -0.712   8.833   0.761  1.8209 -1.6596 -1.2117
  802MOL0     H 8232  -0.711   9.013   0.771  1.4172 -0.6209 -1.4084
  802MOL0     H 8233  -0.574   8.912   0.713  1.6393 -1.2002  0.7186
  802MOL0     H 8234  -1.054   8.845   1.062 -2.1395 -0.6883 -0.4358
  802MOL0     H 8235  -1.281   8.723   1.091 -0.2264  1.5358  0.2149
  802MOL0     H 8236  -1.470   8.608   1.171  0.2478  0.8220  3.8241
  802MOL0     H 8237  -1.363   8.489   1.085 -0.3822 -1.8437  0.4938
  802MOL0     H 8238  -1.567   8.414   1.099 -1.3319  1.8566  0.0443
  802MOL0     H 8239  -1.458   8.308   1.201  0.5846  0.8456  4.4166
  802MOL0     H 8240  -1.690   8.496   1.272 -0.0266  0.3882  1.6126
  802MOL0     H 8241  -1.577   8.443   1.397 -0.8481 -1.4917  0.5367
  802MOL0     H 8242  -1.740   8.254   1.211 -1.4542 -0.7098  1.0592
  802MOL0     H 8243  -1.650   8.209   1.358 -1.1934 -0.7545 -2.3583
  802MOL0     H 8244  -1.889   8.405   1.354 -0.4376  0.0274 -0.6887
  802MOL0     H 8245  -1.800   8.349   1.487 -1.9907 -0.4820  0.2526
  802MOL0     H 8246  -2.020   8.224   1.445 -0.8966 -2.0005 -1.2130
  802MOL0     H 8247  -1.957   8.166   1.294  2.4920  2.2406 -1.1376
  802MOL0     H 8248  -1.833   8.139   1.572  0.2058  1.1683 -0.4589
  802MOL0     H 8249  -1.782   8.041   1.429 -1.0379 -2.9205  0.7248
  802MOL0     H 8250  -2.035   7.963   1.441  1.1730  0.3529 -0.9150
  802MOL0     H 8251  -2.001   8.010   1.616 -0.4233  0.0081 -0.2608
  802MOL0     H 8252  -1.102   8.520   1.436  0.0830  1.2076  0.9286
  802MOL0     H 8253  -0.881   8.639   1.378  2.4312  0.3231 -3.5562
  802MOL0     H 8254  -0.607   8.868   1.263  0.5064  2.5911 -0.0501
  802MOL0     H 8255  -0.392   8.964   1.268 -1.1552  1.7471  2.0904
  802MOL0     H 8256   1.565   9.628   1.244 -0.1147  1.6435  0.0651
  802MOL0     H 8257   1.804   9.675   1.186  0.1183  0.1638  0.5321
  802MOL0     H 8258   2.078   9.709   0.764 -1.7109 -3.9719 -1.1247
  802MOL0     H 8259   2.295   9.747   0.668  1.6425 -0.4135 -0.2361
  802MOL0     H 8260   2.723   9.749   0.820  0.6536  0.9492  1.6121
  802MOL0     H 8261   2.637   9.721   0.965 -0.1226  0.8752 -0.7853
  802MOL0     H 8262   2.693   9.531   0.748  1.5164 -0.5840 -0.0674
  802MOL0     H 8263   2.592   9.481   0.888  0.2783  1.5593  2.8210
  802MOL0     H 8264   2.901   9.551   0.881  1.9815 -1.9762  0.4603
  802MOL0     H 8265   2.834   9.398   0.878  1.7048  0.8677 -0.3821
  802MOL0     H 8266   2.775   9.439   1.116 -1.3383  0.5361 -2.5409
  802MOL0     H 8267   2.808   9.614   1.112 -0.0700 -0.2348  0.4985
  802MOL0     H 8268   3.151   9.425   1.241  1.1785  2.7621  0.8009
  802MOL0     H 8269   2.468   9.640   1.044 -0.3514 -0.1559 -0.5407
  802MOL0     H 8270   2.259   9.601   1.147  0.1793 -1.3297  0.2638
  803MOL0     O 8271   1.351   0.406   2.319  0.1639 -0.1859  0.5829
  803MOL0     C 8272   1.372   0.417   2.439 -0.2915 -0.5049 -0.0115
  803MOL0     O 8273   1.270   0.431   2.539 -0.2189 -0.4437 -0.0523
  803MOL0     C 8274   1.141   0.408   2.505 -0.1861 -0.0041 -0.9015
  803MOL0     C 8275   1.049   0.517   2.510 -0.5558  0.2345  0.1768
  803MOL0     C 8276   0.910   0.499   2.476 -0.2545 -0.3412 -0.2938
  803MOL0     C 8277   0.871   0.373   2.436  0.3888 -0.2478 -0.6257
  803MOL0     O 8278   0.737   0.352   2.409 -0.9330 -0.1786  0.2280
  803MOL0     C 8279   0.630   0.401   2.494 -0.4452  1.0122  0.1830
  803MOL0     C 8280   0.496   0.329   2.488  0.5301 -0.9022 -0.4961
  803MOL0     C 8281   0.394   0.381   2.385 -1.2679 -0.4336  0.0830
  803MOL0     C 8282   0.255   0.354   2.431  0.0336  0.2368 -0.2164
  803MOL0     C 8283   0.148   0.386   2.327  0.7586 -0.3035  0.3458
  803MOL0     C 8284   0.011   0.316   2.360  0.4426  0.2045 -0.3982
  803MOL0     C 8285  -0.051   0.366   2.491  0.0296  0.6195  0.3896
  803MOL0     C 8286  -0.113   0.506   2.476 -0.3686  0.2812  0.4700
  803MOL0     N 8287  -0.218   0.506   2.375 -0.3773  0.1394 -0.0463
  803MOL0     C 8288  -0.339   0.440   2.397 -0.2505 -0.2948  0.3453
  803MOL0     C 8289  -0.400   0.455   2.272  0.1346 -0.3096 -0.1982
  803MOL0     C 8290  -0.523   0.404   2.218  0.2314 -0.1942  0.3989
  803MOL0     C 8291  -0.510   0.255   2.200  0.8805 -0.4281 -0.0313
  803MOL0     C 8292  -0.618   0.187   2.128  0.5334 -0.5104  0.5742
  803MOL0     C 8293  -0.758   0.200   2.197 -0.0528  0.5699 -0.0815
  803MOL0     O 8294  -0.847   0.141   2.111 -0.4421  0.1559  0.5031
  803MOL0     C 8295  -0.978   0.121   2.131 -0.2391 -0.1029 -0.2973
  803MOL0     C 8296  -1.058   0.053   2.033 -0.6233 -0.2087 -0.5924
  803MOL0     C 8297  -1.197   0.041   2.045 -0.4476 -0.8219 -0.6786
  803MOL0     C 8298  -1.264  -0.014   1.926 -0.5352 -0.1334  0.2744
  803MOL0     C 8299  -1.257   0.076   2.171  0.9785 -0.7389 -0.1585
  803MOL0     C 8300  -1.402   0.060   2.195  0.2231 -0.4293 -0.8520
  803MOL0     O 8301  -1.455   0.120   2.310  0.3026 -0.5638  0.0489
  803MOL0     C 8302  -1.584   0.111   2.339  1.4997 -0.2753 -0.3038
  803MOL0     C 8303  -1.662  -0.005   2.319  0.3765  0.0149  0.4476
  803MOL0     C 8304  -1.795  -0.014   2.362 -0.5409 -0.4844 -0.6113
  803MOL0     C 8305  -1.860   0.102   2.412 -0.0865 -0.9684 -0.6100
  803MOL0     O 8306  -1.994   0.104   2.452 -1.0493  0.5010  0.1777
  803MOL0     C 8307  -2.072  -0.014   2.441  0.2548 -0.6751  0.0153
  803MOL0     C 8308  -2.216   0.010   2.459 -0.0953  0.0241  0.6078
  803MOL0     C 8309  -2.292   0.084   2.345  0.5776  0.2286 -0.8560
  803MOL0     C 8310  -2.445   0.094   2.388  0.3151 -0.5136 -0.9005
  803MOL0     C 8311  -2.524   0.143   2.269  0.6679  0.5271  0.6558
  803MOL0     C 8312  -2.591   0.036   2.171 -0.4629 -0.0040 -0.5862
  803MOL0     C 8313  -2.694  -0.045   2.249  0.5338  0.2726  0.1918
  803MOL0     C 8314  -2.805  -0.093   2.147  0.2368  0.4772  0.1140
  803MOL0    Cl 8315  -2.760  -0.219   2.030  0.4143 -0.0168  0.0547
  803MOL0     C 8316  -1.783   0.224   2.429 -0.3481  0.1255 -0.6948
  803MOL0     C 8317  -1.647   0.222   2.388 -0.0967  0.8051 -0.3625
  803MOL0     O 8318  -1.462  -0.016   2.123  0.4430  0.5520  0.4235
  803MOL0     C 8319  -1.182   0.132   2.276  0.1920 -0.8074  0.1139
  803MOL0     C 8320  -1.047   0.158   2.249  0.1796  0.0947  0.0838
  803MOL0     N 8321  -0.323   0.531   2.193  0.4003  0.9582  0.4017
  803MOL0     N 8322  -0.211   0.562   2.249  0.0712 -0.1824 -1.2922
  803MOL0     C 8323   0.962   0.264   2.421 -0.1049 -0.2973  0.9943
  803MOL0     C 8324   1.102   0.284   2.447  1.2162  0.4374  0.0332
  803MOL0     C 8325   1.504   0.452   2.484 -0.0124 -0.1793  0.7093
  803MOL0     C 8326   1.542   0.477   2.615  0.0331 -0.3376 -0.6434
  803MOL0     C 8327   1.678   0.489   2.660 -0.2690 -0.7606  0.4888
  803MOL0     C 8328   1.778   0.494   2.557 -0.1836  1.2202 -0.3733
  803MOL0     O 8329   1.908   0.526   2.588  0.0078 -0.0469 -0.3984
  803MOL0     C 8330   1.962   0.531   2.719 -0.5365 -0.4821  0.1759
  803MOL0     C 8331   2.110   0.571   2.705  0.0364  0.9333  0.0095
  803MOL0     C 8332   2.127   0.677   2.591 -0.3798 -0.3957 -0.1073
  803MOL0     C 8333   2.270   0.711   2.559 -0.3737 -0.5848  0.1197
  803MOL0     C 8334   2.338   0.763   2.680  0.3266 -0.1607  0.0281
  803MOL0     C 8335   2.392   0.810   2.777  0.5357 -0.3642 -0.3860
  803MOL0     C 8336   1.733   0.483   2.419 -0.3836  0.6546  1.2360
  803MOL0     C 8337   1.602   0.458   2.385 -0.1300  0.0004  0.3548
  803MOL0     H 8338   1.090   0.613   2.541  1.2528 -0.3935 -0.1122
  803MOL0     H 8339   0.841   0.582   2.473  1.1929  0.8711 -1.7501
  803MOL0     H 8340   0.663   0.395   2.598  1.1445 -2.5334 -0.3955
  803MOL0     H 8341   0.611   0.503   2.460 -0.4964  0.6007 -1.0633
  803MOL0     H 8342   0.511   0.225   2.457 -0.2313 -1.2952  0.4238
  803MOL0     H 8343   0.453   0.346   2.587  0.5109 -1.2448 -0.4448
  803MOL0     H 8344   0.409   0.489   2.383 -0.6495 -0.4986  0.5752
  803MOL0     H 8345   0.406   0.336   2.286  1.8381  1.3271 -0.4639
  803MOL0     H 8346   0.232   0.250   2.454 -1.0219  0.6299  0.5826
  803MOL0     H 8347   0.239   0.406   2.526  0.7141 -1.4244  0.8440
  803MOL0     H 8348   0.140   0.493   2.307 -1.0777 -0.1864  1.4976
  803MOL0     H 8349   0.170   0.349   2.226  0.1386  0.2424  0.0087
  803MOL0     H 8350  -0.051   0.349   2.276 -0.3822  0.3370  0.2500
  803MOL0     H 8351   0.030   0.209   2.360 -0.8992 -0.0508 -0.7566
  803MOL0     H 8352  -0.129   0.293   2.517  0.2301  0.8654  1.7229
  803MOL0     H 8353   0.022   0.370   2.572 -2.1818  1.5817  2.4590
  803MOL0     H 8354  -0.036   0.575   2.441 -0.5650  0.2289 -0.0642
  803MOL0     H 8355  -0.137   0.531   2.580 -0.5428  0.1515  0.4616
  803MOL0     H 8356  -0.367   0.376   2.479 -0.2293 -2.1720 -1.0330
  803MOL0     H 8357  -0.601   0.417   2.294  0.6459 -4.0457  1.7180
  803MOL0     H 8358  -0.548   0.449   2.122 -0.9014 -1.0472  0.2767
  803MOL0     H 8359  -0.508   0.207   2.299  2.5976  0.6291  0.4905
  803MOL0     H 8360  -0.413   0.242   2.152  0.9882 -2.0970  0.5723
  803MOL0     H 8361  -0.584   0.085   2.109  0.4101 -0.8279  1.9738
  803MOL0     H 8362  -0.612   0.241   2.033  1.6957  1.5648  1.7493
  803MOL0     H 8363  -0.784   0.304   2.218 -3.7517 -0.2134 -0.2575
  803MOL0     H 8364  -0.748   0.143   2.290 -0.5100  0.2153 -0.2497
  803MOL0     H 8365  -1.002   0.021   1.945  1.9889  2.2431  0.0358
  803MOL0     H 8366  -1.354   0.045   1.912 -1.3404 -0.5472  3.0246
  803MOL0     H 8367  -1.189  -0.007   1.847  1.1255 -1.0797  1.6684
  803MOL0     H 8368  -1.285  -0.120   1.943 -0.7275  0.1609  2.1679
  803MOL0     H 8369  -1.617  -0.095   2.280 -1.7117 -0.3088 -1.4135
  803MOL0     H 8370  -1.853  -0.105   2.348  1.4773 -1.7330 -1.2630
  803MOL0     H 8371  -2.062  -0.052   2.339 -0.5290  1.3620 -0.8642
  803MOL0     H 8372  -2.029  -0.085   2.513  1.5399 -1.1329 -1.1513
  803MOL0     H 8373  -2.267  -0.086   2.472 -2.0678  1.0076  0.5198
  803MOL0     H 8374  -2.222   0.070   2.550  3.0315  1.5678 -0.0609
  803MOL0     H 8375  -2.278   0.041   2.245 -1.3211  1.9007 -1.9265
  803MOL0     H 8376  -2.256   0.187   2.333 -2.2968  1.3438 -0.7561
  803MOL0     H 8377  -2.486  -0.001   2.423 -2.7676 -0.2397 -3.2969
  803MOL0     H 8378  -2.457   0.166   2.469  2.9713  0.7115 -1.5039
  803MOL0     H 8379  -2.467   0.221   2.219 -0.1450  1.3243  0.9331
  803MOL0     H 8380  -2.610   0.187   2.322 -1.2793 -2.5171  0.3154
  803MOL0     H 8381  -2.656   0.088   2.100  0.3746  1.9309 -0.0135
  803MOL0     H 8382  -2.517  -0.031   2.127 -2.3997 -2.6275 -0.1290
  803MOL0     H 8383  -2.750   0.012   2.325 -4.2435 -1.4762 -1.6474
  803MOL0     H 8384  -2.656  -0.130   2.306 -3.7240 -1.1420  1.3198
  803MOL0     H 8385  -2.848  -0.007   2.097 -0.0150  0.9398  1.1014
  803MOL0     H 8386  -2.887  -0.144   2.198  1.5113 -1.0025  0.7848
  803MOL0     H 8387  -1.839   0.306   2.474 -1.8787 -2.3968  2.3137
  803MOL0     H 8388  -1.590   0.314   2.397 -0.1725  0.7673  0.6454
  803MOL0     H 8389  -1.223   0.164   2.372  1.4061  2.8020 -0.4086
  803MOL0     H 8390  -1.001   0.190   2.342 -2.0995  1.4403  0.8316
  803MOL0     H 8391   0.927   0.164   2.395 -1.0108 -0.1226  1.4757
  803MOL0     H 8392   1.174   0.205   2.433 -0.3801 -0.6851 -2.4726
  803MOL0     H 8393   1.465   0.484   2.690  0.6032 -1.9076  0.1279
  803MOL0     H 8394   1.697   0.495   2.766  0.0815  0.4257  0.3730
  803MOL0     H 8395   1.909   0.614   2.766 -0.6930 -0.5005  0.0362
  803MOL0     H 8396   1.952   0.443   2.782  2.2237  0.8336  2.6604
  803MOL0     H 8397   2.160   0.478   2.677 -1.4578 -0.1391  0.7187
  803MOL0     H 8398   2.142   0.608   2.803  0.4101  2.6075 -0.7216
  803MOL0     H 8399   2.065   0.763   2.617  0.3950  0.9621 -2.5210
  803MOL0     H 8400   2.091   0.629   2.500  2.0223 -0.0125 -1.3178
  803MOL0     H 8401   2.255   0.788   2.483  0.7803 -0.8878 -0.4387
  803MOL0     H 8402   2.322   0.633   2.504 -2.0359 -0.0492 -2.3661
  803MOL0     H 8403   2.434   0.868   2.857 -0.4311  0.3346 -0.3748
  803MOL0     H 8404   1.809   0.476   2.341  0.0648 -1.4846  1.7955
  803MOL0     H 8405   1.572   0.458   2.280  1.6429  2.3904 -0.2493
  804MOL0     O 8406  10.982   2.750   3.208 -0.5463  0.0731 -0.3849
  804MOL0     C 8407  11.024   2.745   3.324 -0.8079 -0.1100 -0.2462
  804MOL0     O 8408  10.965   2.810   3.428 -0.8914 -0.2957 -0.0481
  804MOL0     C 8409  10.865   2.891   3.400 -0.2322  0.6750  0.2540
  804MOL0     C 8410  10.890   3.025   3.373  0.4103  0.2939 -0.2853
  804MOL0     C 8411  10.780   3.116   3.357 -0.0900 -0.2370  0.3820
  804MOL0     C 8412  10.653   3.077   3.382 -0.2794 -0.5006 -0.4398
  804MOL0     O 8413  10.557   3.172   3.374  0.3376 -0.3605  0.1464
  804MOL0     C 8414  10.423   3.129   3.377  0.4685  0.3128  0.2787
  804MOL0     C 8415  10.339   3.247   3.360  1.1838  0.5378  0.0887
  804MOL0     C 8416  10.190   3.209   3.361 -0.8682 -0.2062 -0.0461
  804MOL0     C 8417  10.103   3.337   3.345 -0.0781  0.4541 -0.0638
  804MOL0     C 8418   9.950   3.308   3.327 -0.0691  1.0585 -0.2386
  804MOL0     C 8419   9.857   3.415   3.275  0.1075  0.0159  0.4378
  804MOL0     C 8420   9.809   3.519   3.379  0.3629 -0.5294 -0.2935
  804MOL0     C 8421   9.723   3.622   3.303  0.6303 -0.7758  0.2485
  804MOL0     N 8422   9.592   3.566   3.272 -0.0027  0.8921  0.1213
  804MOL0     C 8423   9.503   3.532   3.362  0.3147  0.1904 -1.4898
  804MOL0     C 8424   9.385   3.506   3.308  0.1572  0.0223  0.8802
  804MOL0     C 8425   9.256   3.475   3.375 -0.1877 -0.3508 -0.6768
  804MOL0     C 8426   9.154   3.581   3.334  0.3784 -0.0696 -0.1072
  804MOL0     C 8427   9.021   3.589   3.406  0.3759  0.3419 -0.3132
  804MOL0     C 8428   9.031   3.607   3.552 -0.1454  0.2661 -0.5542
  804MOL0     O 8429   8.904   3.633   3.621 -0.1587 -0.2018 -0.3457
  804MOL0     C 8430   8.803   3.540   3.624 -0.1559 -0.1142  0.1665
  804MOL0     C 8431   8.817   3.408   3.594 -0.2486 -0.5426 -0.4770
  804MOL0     C 8432   8.712   3.310   3.592  0.5024  0.0794 -0.3650
  804MOL0     C 8433   8.742   3.164   3.570  0.5823 -0.5049  0.6944
  804MOL0     C 8434   8.578   3.362   3.605  0.3087 -0.1662  0.2410
  804MOL0     C 8435   8.453   3.284   3.593  0.1647  0.6217 -0.1052
  804MOL0     O 8436   8.334   3.344   3.624 -0.2650 -0.0809  0.0233
  804MOL0     C 8437   8.227   3.268   3.601  0.4473 -0.8842  0.3454
  804MOL0     C 8438   8.195   3.169   3.699  0.1291  0.1293 -0.2644
  804MOL0     C 8439   8.089   3.081   3.680  0.2009  0.1862  0.5614
  804MOL0     C 8440   8.013   3.086   3.555  0.8547 -0.3693 -0.5707
  804MOL0     O 8441   7.921   2.988   3.521  0.8227  0.3073 -0.1020
  804MOL0     C 8442   7.874   2.894   3.621 -0.8877 -0.3150  0.3928
  804MOL0     C 8443   7.782   2.789   3.573  0.6301  0.0831  0.3410
  804MOL0     C 8444   7.799   2.760   3.420  0.8530  0.8471 -0.1617
  804MOL0     C 8445   7.923   2.677   3.405 -0.1309 -0.6276  0.0865
  804MOL0     C 8446   7.927   2.619   3.269  0.6026  1.0345 -0.1206
  804MOL0     C 8447   8.040   2.523   3.249  0.2085  0.5188  0.1315
  804MOL0     C 8448   8.025   2.432   3.130 -0.8884  0.3015  0.1259
  804MOL0     C 8449   8.069   2.504   2.998  0.4081  0.3168 -0.0557
  804MOL0    Cl 8450   8.078   2.375   2.873  0.0900 -0.3555 -0.0067
  804MOL0     C 8451   8.042   3.179   3.457 -0.2136  0.3711 -0.6213
  804MOL0     C 8452   8.148   3.269   3.481  1.2115 -0.4775 -0.0817
  804MOL0     O 8453   8.461   3.163   3.567 -0.1031 -0.3460 -0.8241
  804MOL0     C 8454   8.564   3.499   3.644 -0.4578 -0.0047  0.4908
  804MOL0     C 8455   8.676   3.587   3.655 -0.0877 -0.0335  0.1324
  804MOL0     N 8456   9.402   3.543   3.167  0.0184 -0.8471 -0.3597
  804MOL0     N 8457   9.530   3.578   3.152  0.4449 -0.2956  0.1853
  804MOL0     C 8458  10.621   2.938   3.405  0.3344 -0.5927 -0.6033
  804MOL0     C 8459  10.732   2.860   3.419  0.7665  0.4974  0.5903
  804MOL0     C 8460  11.128   2.639   3.344 -0.3299 -0.9216 -0.1705
  804MOL0     C 8461  11.190   2.616   3.470 -0.1470 -0.7724 -0.6527
  804MOL0     C 8462  11.305   2.529   3.482  0.3573  0.1903 -0.1367
  804MOL0     C 8463  11.354   2.450   3.372 -1.5307 -0.0282 -0.0288
  804MOL0     O 8464  11.458   2.360   3.371  0.2753 -0.0408  0.3756
  804MOL0     C 8465  11.575   2.380   3.449  0.1039 -0.3063  0.1039
  804MOL0     C 8466  11.599   2.258   3.547 -0.3250 -0.0978 -0.1176
  804MOL0     C 8467  11.616   2.138   3.461 -0.5530  1.0180  0.4506
  804MOL0     C 8468  11.739   2.139   3.370  0.5780  0.4586 -0.5571
  804MOL0     C 8469  11.771   2.005   3.316  0.5164  0.0315  0.4871
  804MOL0     C 8470  11.807   1.892   3.279  0.0772 -0.2135  0.5490
  804MOL0     C 8471  11.289   2.469   3.250  0.3558  0.1048 -0.7324
  804MOL0     C 8472  11.179   2.561   3.237 -0.3371  0.0578 -0.6518
  804MOL0     H 8473  10.994   3.056   3.372  0.5256  0.1809  2.2273
  804MOL0     H 8474  10.805   3.220   3.337  2.4712 -0.8779 -0.1606
  804MOL0     H 8475  10.405   3.062   3.292  0.7532 -0.5573  0.8781
  804MOL0     H 8476  10.405   3.071   3.469 -0.3759  0.2596  0.0882
  804MOL0     H 8477  10.364   3.325   3.433  1.0596  2.0717 -1.4628
  804MOL0     H 8478  10.366   3.281   3.260  0.8090 -0.4811 -0.3705
  804MOL0     H 8479  10.159   3.130   3.292  0.5092  1.0807 -2.2633
  804MOL0     H 8480  10.174   3.165   3.459 -1.0931 -1.1105 -0.4823
  804MOL0     H 8481  10.104   3.402   3.433  1.2415 -1.8875  1.7734
  804MOL0     H 8482  10.132   3.384   3.251  1.8445 -1.2715 -0.4060
  804MOL0     H 8483   9.953   3.217   3.267  2.2290  0.5234  0.6240
  804MOL0     H 8484   9.923   3.267   3.424 -0.7760 -1.4193 -1.4153
  804MOL0     H 8485   9.909   3.465   3.193 -1.0581  2.4951  1.1005
  804MOL0     H 8486   9.776   3.362   3.225 -0.1779  0.2669  0.6320
  804MOL0     H 8487   9.752   3.474   3.461  0.8796  0.7362  0.7931
  804MOL0     H 8488   9.898   3.566   3.423 -0.0550 -1.9052  2.2233
  804MOL0     H 8489   9.766   3.645   3.205 -0.5818 -0.6784 -0.2698
  804MOL0     H 8490   9.703   3.716   3.356 -1.8439 -0.1116 -1.6846
  804MOL0     H 8491   9.531   3.527   3.467 -2.3343 -1.4822 -0.7868
  804MOL0     H 8492   9.223   3.373   3.356  0.9150 -0.8824  0.1614
  804MOL0     H 8493   9.280   3.487   3.481 -2.9318  0.5609 -0.0796
  804MOL0     H 8494   9.126   3.566   3.229 -0.7147  0.7317  0.0502
  804MOL0     H 8495   9.196   3.681   3.325 -2.2652  1.0186 -1.2151
  804MOL0     H 8496   8.971   3.494   3.386  1.4849  0.0416 -1.8572
  804MOL0     H 8497   8.958   3.669   3.368  1.2773  1.1118 -0.2137
  804MOL0     H 8498   9.108   3.675   3.588 -0.2487 -0.4716  1.2010
  804MOL0     H 8499   9.071   3.511   3.586  0.2645  0.5084 -0.3532
  804MOL0     H 8500   8.916   3.378   3.560  0.5706 -0.1414  1.4001
  804MOL0     H 8501   8.713   3.130   3.470 -0.7789 -0.3694  1.0299
  804MOL0     H 8502   8.849   3.151   3.588  0.7987  2.7690  2.6157
  804MOL0     H 8503   8.696   3.098   3.643  2.6294 -3.0238 -0.1325
  804MOL0     H 8504   8.254   3.163   3.790 -0.4866  1.3051  0.2523
  804MOL0     H 8505   8.080   3.002   3.755  2.8153  2.6888  3.8105
  804MOL0     H 8506   7.962   2.843   3.661  1.0742  2.0067 -0.7369
  804MOL0     H 8507   7.833   2.948   3.707 -1.0011 -0.8308  0.6677
  804MOL0     H 8508   7.798   2.702   3.638 -2.2234 -2.2096 -1.7680
  804MOL0     H 8509   7.680   2.821   3.596  0.1529 -1.4625  0.4631
  804MOL0     H 8510   7.801   2.849   3.357  2.1267 -0.1313 -1.5644
  804MOL0     H 8511   7.711   2.701   3.393 -1.2750  4.5367 -2.0836
  804MOL0     H 8512   8.010   2.741   3.423 -0.1428 -0.2773 -1.0595
  804MOL0     H 8513   7.918   2.602   3.485 -2.1481 -0.7660 -0.1201
  804MOL0     H 8514   7.934   2.686   3.183  1.3318  0.5277 -0.4672
  804MOL0     H 8515   7.840   2.555   3.254  1.7705 -0.7257  0.2424
  804MOL0     H 8516   8.124   2.592   3.250 -2.1046  3.5979 -1.1619
  804MOL0     H 8517   8.040   2.461   3.340  0.8614 -1.8935 -1.4183
  804MOL0     H 8518   7.926   2.390   3.112 -0.7411  1.0225 -2.9235
  804MOL0     H 8519   8.098   2.351   3.142 -0.4249  0.6982  0.0035
  804MOL0     H 8520   8.172   2.540   3.009  0.3163  0.4694  0.3105
  804MOL0     H 8521   8.005   2.588   2.969 -0.6593  0.4663  2.5142
  804MOL0     H 8522   7.980   3.175   3.368 -1.6405  3.8140  0.0471
  804MOL0     H 8523   8.173   3.345   3.408 -0.1287 -0.4826 -0.5793
  804MOL0     H 8524   8.463   3.536   3.660  0.0942  1.0939  1.6149
  804MOL0     H 8525   8.671   3.691   3.684  0.7479 -0.3033  1.3003
  804MOL0     H 8526  10.524   2.892   3.422  0.6353 -1.4771 -1.1867
  804MOL0     H 8527  10.711   2.762   3.461 -1.3801  0.6587 -0.0024
  804MOL0     H 8528  11.163   2.673   3.559 -1.0145 -0.2109 -1.2691
  804MOL0     H 8529  11.345   2.504   3.580  0.0479  3.2646  0.8619
  804MOL0     H 8530  11.665   2.388   3.388 -0.5277 -0.3604 -0.8522
  804MOL0     H 8531  11.569   2.478   3.496  0.3793  1.4198 -3.2086
  804MOL0     H 8532  11.510   2.246   3.609 -1.9681 -1.2016 -2.5673
  804MOL0     H 8533  11.692   2.264   3.606  0.5882 -1.1621 -1.3802
  804MOL0     H 8534  11.526   2.107   3.407 -0.8787  2.1629  0.3095
  804MOL0     H 8535  11.631   2.056   3.531 -0.3690 -1.0339 -1.8898
  804MOL0     H 8536  11.828   2.176   3.420  0.6577 -0.9455  0.3978
  804MOL0     H 8537  11.713   2.195   3.280 -2.7215 -1.5755 -1.0343
  804MOL0     H 8538  11.818   1.788   3.255  0.6145 -0.1872  0.6859
  804MOL0     H 8539  11.322   2.424   3.157  2.4717  0.6776 -0.3053
  804MOL0     H 8540  11.129   2.576   3.142 -1.1779 -0.2740 -0.2674
  805MOL0     O 8541   9.871  10.088   1.336  0.4936 -0.4721  0.3006
  805MOL0     C 8542   9.961  10.023   1.289  0.0609  0.6228  1.3005
  805MOL0     O 8543   9.945   9.906   1.222  0.4469  0.0964  0.1313
  805MOL0     C 8544   9.820   9.844   1.230  0.8458 -0.0065 -0.2700
  805MOL0     C 8545   9.780   9.771   1.119 -0.7120  0.3722 -0.6188
  805MOL0     C 8546   9.654   9.698   1.111  0.7207 -0.1996 -0.0480
  805MOL0     C 8547   9.566   9.700   1.216 -1.0110  0.7935  0.1576
  805MOL0     O 8548   9.454   9.623   1.215  0.0062 -0.3037 -0.0458
  805MOL0     C 8549   9.330   9.692   1.212  0.0153 -1.0353  0.3826
  805MOL0     C 8550   9.214   9.592   1.192 -0.8344 -0.1578 -0.7271
  805MOL0     C 8551   9.190   9.554   1.039  0.7319  0.1428  0.0332
  805MOL0     C 8552   9.084   9.435   1.031  0.5670 -0.6454  0.5161
  805MOL0     C 8553   9.005   9.438   0.899  0.2359  0.0807 -0.4138
  805MOL0     C 8554   8.903   9.325   0.901  0.6125  0.8587  0.0250
  805MOL0     C 8555   8.813   9.316   0.772 -0.0361 -0.3972 -0.9149
  805MOL0     C 8556   8.686   9.230   0.784  0.7479  0.5939 -0.6716
  805MOL0     N 8557   8.606   9.229   0.656 -0.1769 -0.3868 -0.3920
  805MOL0     C 8558   8.675   9.212   0.537 -0.3608 -0.0205 -0.4494
  805MOL0     C 8559   8.596   9.273   0.444 -0.3289  0.0334 -0.1533
  805MOL0     C 8560   8.630   9.286   0.305 -0.1808 -0.7379 -0.7990
  805MOL0     C 8561   8.515   9.266   0.211 -0.1423  0.8098 -0.3616
  805MOL0     C 8562   8.415   9.383   0.215 -0.6628  0.1025 -0.5769
  805MOL0     C 8563   8.280   9.346   0.155  0.2343 -0.0959 -0.4867
  805MOL0     O 8564   8.219   9.243   0.236 -0.1055  0.1752  0.4612
  805MOL0     C 8565   8.084   9.223   0.247 -0.3528  0.0570 -0.7335
  805MOL0     C 8566   8.039   9.145   0.353  0.3494  0.3829  0.0616
  805MOL0     C 8567   7.905   9.102   0.365  0.4218 -0.2391 -0.5153
  805MOL0     C 8568   7.868   9.025   0.486  0.8886  0.1013  0.0477
  805MOL0     C 8569   7.813   9.140   0.255  0.8111 -0.0988  0.8515
  805MOL0     C 8570   7.665   9.105   0.247  0.3835  0.2403 -0.7473
  805MOL0     O 8571   7.595   9.095   0.363 -0.3472 -0.9163  0.4286
  805MOL0     C 8572   7.468   9.034   0.348 -0.1529 -0.4038 -0.8503
  805MOL0     C 8573   7.465   8.891   0.358  0.1878 -0.5388 -0.4186
  805MOL0     C 8574   7.344   8.829   0.332  0.1019  0.0695  0.0531
  805MOL0     C 8575   7.226   8.898   0.304  0.2736 -0.8770  0.5072
  805MOL0     O 8576   7.107   8.832   0.272 -0.6704  0.4101 -1.1630
  805MOL0     C 8577   6.999   8.874   0.368  0.6060  0.0770 -0.2606
  805MOL0     C 8578   6.871   8.815   0.304 -0.0492  0.9014 -0.6981
  805MOL0     C 8579   6.836   8.888   0.174  0.4953 -0.6371  0.7476
  805MOL0     C 8580   6.693   8.935   0.156  0.2082 -0.0751 -0.0858
  805MOL0     C 8581   6.625   9.021   0.264 -1.1539 -0.1360 -0.0060
  805MOL0     C 8582   6.478   9.058   0.241  0.9308 -0.3952  0.1291
  805MOL0     C 8583   6.426   9.131   0.359  0.7967  0.1734 -0.2073
  805MOL0     C 8584   6.287   9.198   0.322 -0.5922  0.7005  0.3000
  805MOL0    Cl 8585   6.293   9.334   0.205  0.0386 -0.4842  0.2123
  805MOL0     C 8586   7.229   9.036   0.299 -0.5261 -0.7749  0.2292
  805MOL0     C 8587   7.351   9.109   0.322 -0.1161 -0.1703 -0.3135
  805MOL0     O 8588   7.620   9.079   0.133 -0.0339  0.2389 -0.3694
  805MOL0     C 8589   7.860   9.210   0.149  0.6560  0.4177 -0.5863
  805MOL0     C 8590   7.989   9.259   0.148 -0.2456  0.1640  0.4388
  805MOL0     N 8591   8.478   9.304   0.505  0.9024 -0.0923 -0.3855
  805MOL0     N 8592   8.485   9.287   0.637 -0.2098 -0.6623  0.7695
  805MOL0     C 8593   9.603   9.772   1.329 -0.0619 -0.2894  0.3837
  805MOL0     C 8594   9.733   9.837   1.335  0.6133 -0.3501  0.5265
  805MOL0     C 8595  10.106  10.059   1.284  0.2958 -0.1280 -0.7099
  805MOL0     C 8596  10.141  10.197   1.290 -0.6259 -0.3965 -0.4551
  805MOL0     C 8597  10.278  10.226   1.297 -0.0548  0.4870 -0.2281
  805MOL0     C 8598  10.378  10.130   1.303 -0.1194 -0.6583 -0.7492
  805MOL0     O 8599  10.509  10.162   1.322 -0.5022 -0.2281  0.0729
  805MOL0     C 8600  10.556  10.297   1.336 -0.3835 -1.0271  0.3028
  805MOL0     C 8601  10.707  10.292   1.344  0.6661  0.1955 -0.6141
  805MOL0     C 8602  10.780  10.194   1.243  0.0279 -0.2546 -0.1247
  805MOL0     C 8603  10.720  10.207   1.108 -0.9624  0.5652  0.5847
  805MOL0     C 8604  10.741  10.334   1.035 -0.2973 -0.4405 -1.0319
  805MOL0     C 8605  10.768  10.438   0.975 -0.0630  0.7717 -0.0950
  805MOL0     C 8606  10.344   9.999   1.285 -0.4310 -0.2382  0.2482
  805MOL0     C 8607  10.212   9.960   1.276  0.5279  1.1225  0.4017
  805MOL0     H 8608   9.850   9.745   1.041  1.4208 -0.2501  1.4167
  805MOL0     H 8609   9.632   9.639   1.023 -0.1319  0.9620 -0.6299
  805MOL0     H 8610   9.314   9.751   1.303 -1.8027  0.1154 -0.6062
  805MOL0     H 8611   9.339   9.754   1.122 -0.3324 -2.1932 -0.4706
  805MOL0     H 8612   9.240   9.502   1.249  0.7409  1.1542  0.7077
  805MOL0     H 8613   9.125   9.639   1.236  0.0533 -1.1549  2.3317
  805MOL0     H 8614   9.135   9.634   0.990 -0.5362 -0.6071  0.1800
  805MOL0     H 8615   9.279   9.534   0.979  2.0122 -1.7645  2.3770
  805MOL0     H 8616   9.133   9.337   1.036 -1.0397 -1.4885  0.1934
  805MOL0     H 8617   9.007   9.449   1.107 -0.4790  2.0618 -0.8933
  805MOL0     H 8618   8.947   9.531   0.888 -0.0466  0.1101  1.1419
  805MOL0     H 8619   9.082   9.418   0.825  3.2811  1.6016  2.1028
  805MOL0     H 8620   8.958   9.230   0.907  0.2397  0.4204 -2.4184
  805MOL0     H 8621   8.832   9.336   0.983 -1.3212 -0.6204 -1.3353
  805MOL0     H 8622   8.783   9.416   0.742 -1.6328 -0.4084  0.5351
  805MOL0     H 8623   8.877   9.268   0.697 -0.1311  0.2592 -1.4239
  805MOL0     H 8624   8.618   9.254   0.866 -0.2979  0.4381 -1.4674
  805MOL0     H 8625   8.719   9.130   0.812 -0.9402  0.5193  1.2987
  805MOL0     H 8626   8.775   9.174   0.518  0.7799  2.7423 -0.5024
  805MOL0     H 8627   8.673   9.383   0.277  1.1610 -1.2955 -0.7516
  805MOL0     H 8628   8.699   9.205   0.280  1.0715  0.3849 -1.1215
  805MOL0     H 8629   8.463   9.172   0.230  2.4384 -0.7159 -0.3073
  805MOL0     H 8630   8.562   9.254   0.112  0.3551  2.8666 -0.4157
  805MOL0     H 8631   8.453   9.459   0.146 -1.8727  3.7067  2.4181
  805MOL0     H 8632   8.397   9.422   0.315  1.1894 -2.1284  0.6996
  805MOL0     H 8633   8.287   9.299   0.056 -2.5049 -2.3540  0.2534
  805MOL0     H 8634   8.219   9.437   0.159 -0.3412 -0.5165  1.7684
  805MOL0     H 8635   8.119   9.113   0.419  0.8138  1.9929  0.3192
  805MOL0     H 8636   7.957   8.988   0.538  1.2493 -0.7324 -1.1225
  805MOL0     H 8637   7.813   9.084   0.561  1.5246  1.7122 -0.7109
  805MOL0     H 8638   7.799   8.941   0.472 -0.9511  1.7633 -1.5557
  805MOL0     H 8639   7.557   8.840   0.383  0.2135 -1.9498 -3.0047
  805MOL0     H 8640   7.338   8.721   0.343  1.8763 -0.1298 -0.6378
  805MOL0     H 8641   7.028   8.822   0.460  1.4085  0.0386 -0.5296
  805MOL0     H 8642   6.980   8.981   0.379 -0.8491 -0.4068  3.0533
  805MOL0     H 8643   6.873   8.707   0.285 -2.5831  0.6455  0.0713
  805MOL0     H 8644   6.796   8.824   0.384  1.9126  0.5373  1.2905
  805MOL0     H 8645   6.843   8.817   0.091 -0.4811  1.2233 -1.0045
  805MOL0     H 8646   6.899   8.974   0.150  0.2926 -0.5907  0.3694
  805MOL0     H 8647   6.685   8.975   0.055 -1.1361 -2.5984 -1.0653
  805MOL0     H 8648   6.630   8.845   0.150 -0.4080  0.4606 -2.5128
  805MOL0     H 8649   6.672   9.119   0.274 -1.7706  0.3820 -1.8647
  805MOL0     H 8650   6.640   8.980   0.365  1.0967 -2.3256 -1.1345
  805MOL0     H 8651   6.468   9.123   0.154  0.1437  1.6447  1.6890
  805MOL0     H 8652   6.411   8.975   0.216  1.1752 -1.5411  2.9249
  805MOL0     H 8653   6.496   9.207   0.393  1.7504  1.2079 -3.9744
  805MOL0     H 8654   6.396   9.056   0.433 -1.0096  1.2513  0.2068
  805MOL0     H 8655   6.243   9.226   0.419  1.3573  0.4316  1.3088
  805MOL0     H 8656   6.224   9.112   0.295  1.2946 -0.7138  0.1805
  805MOL0     H 8657   7.132   9.078   0.275 -0.9488 -0.9910  1.4661
  805MOL0     H 8658   7.360   9.216   0.306 -0.4067 -0.1251 -0.1748
  805MOL0     H 8659   7.793   9.216   0.064  1.3458 -1.2388 -1.2953
  805MOL0     H 8660   8.016   9.315   0.059 -1.7857  0.5109  0.1570
  805MOL0     H 8661   9.556   9.743   1.422 -0.2128 -3.3273 -0.5072
  805MOL0     H 8662   9.765   9.877   1.431  1.6270  0.7030 -0.2241
  805MOL0     H 8663  10.062  10.269   1.309 -0.5866 -1.0560  2.7983
  805MOL0     H 8664  10.298  10.333   1.301 -2.6851  1.0467 -0.4650
  805MOL0     H 8665  10.524  10.346   1.243 -0.7000 -1.3110  0.2567
  805MOL0     H 8666  10.510  10.359   1.413 -0.8158 -0.5888 -0.2992
  805MOL0     H 8667  10.737  10.257   1.443  2.5910  0.8641 -0.9160
  805MOL0     H 8668  10.740  10.396   1.336  1.7263  0.1013  1.7891
  805MOL0     H 8669  10.773  10.091   1.279 -3.7614  0.8848  3.1876
  805MOL0     H 8670  10.885  10.225   1.240 -0.7462  2.7162  0.4601
  805MOL0     H 8671  10.613  10.189   1.117 -1.2118  2.1806  1.1858
  805MOL0     H 8672  10.763  10.122   1.054 -1.9934 -0.3851  1.2298
  805MOL0     H 8673  10.786  10.519   0.908  0.3025  1.3896  0.7222
  805MOL0     H 8674  10.424   9.928   1.265 -1.2696 -1.0306 -0.3197
  805MOL0     H 8675  10.189   9.854   1.273  0.1373  1.2057  0.4059
  806MOL0     O 8676   0.563   4.393   6.488  0.4440 -0.4464  0.2047
  806MOL0     C 8677   0.641   4.419   6.577  0.7471 -0.5277 -0.4758
  806MOL0     O 8678   0.614   4.505   6.684 -0.3230 -0.3239 -0.4377
  806MOL0     C 8679   0.486   4.537   6.690  0.0838 -0.0622  0.2169
  806MOL0     C 8680   0.390   4.440   6.733  0.2719 -0.6800 -0.4606
  806MOL0     C 8681   0.255   4.467   6.730 -0.5712  0.0564 -0.6784
  806MOL0     C 8682   0.207   4.590   6.683  0.1603 -0.8239 -0.2048
  806MOL0     O 8683   0.079   4.621   6.690  0.5067 -0.1313  0.6222
  806MOL0     C 8684   0.032   4.632   6.828 -0.3692 -0.1042  0.2456
  806MOL0     C 8685  -0.094   4.547   6.847  0.0727  0.6331 -0.4507
  806MOL0     C 8686  -0.167   4.585   6.976  0.4204 -0.4705  0.0618
  806MOL0     C 8687  -0.209   4.731   6.988  0.1449 -0.3301  0.3641
  806MOL0     C 8688  -0.300   4.761   7.111 -0.0865  0.4910  0.4273
  806MOL0     C 8689  -0.452   4.754   7.062 -0.4285  0.0380 -0.0362
  806MOL0     C 8690  -0.556   4.749   7.178  0.0904 -0.2959  0.2277
  806MOL0     C 8691  -0.697   4.764   7.131 -0.2599 -0.4818  0.2840
  806MOL0     N 8692  -0.795   4.748   7.239  0.4142 -0.1728 -0.6194
  806MOL0     C 8693  -0.790   4.822   7.351 -0.7166 -0.8081 -0.1318
  806MOL0     C 8694  -0.873   4.767   7.441 -0.1433 -0.1576 -0.6145
  806MOL0     C 8695  -0.915   4.803   7.584 -0.0382  0.6273  1.3885
  806MOL0     C 8696  -0.792   4.812   7.672  0.6741  0.4160  0.0834
  806MOL0     C 8697  -0.828   4.731   7.802  0.1842 -0.4082  0.0446
  806MOL0     C 8698  -0.699   4.746   7.887  0.4326  0.4709  0.5811
  806MOL0     O 8699  -0.577   4.698   7.828 -0.0408 -0.0007  0.2068
  806MOL0     C 8700  -0.457   4.719   7.889  0.5029 -0.1040  0.2195
  806MOL0     C 8701  -0.351   4.635   7.860  0.0248  0.3609 -0.0290
  806MOL0     C 8702  -0.233   4.624   7.932  0.8532 -1.2469  0.4413
  806MOL0     C 8703  -0.131   4.528   7.882  1.2101  0.0987  0.4481
  806MOL0     C 8704  -0.219   4.707   8.051 -0.3597  0.1072  0.7102
  806MOL0     C 8705  -0.109   4.693   8.151  0.6755 -0.8355  0.2233
  806MOL0     O 8706  -0.133   4.754   8.266 -0.4522 -0.2578 -0.7189
  806MOL0     C 8707  -0.034   4.778   8.355  0.2338 -0.5195  0.1992
  806MOL0     C 8708   0.087   4.827   8.301 -0.1196  0.4549  0.2843
  806MOL0     C 8709   0.202   4.832   8.379  0.1401 -0.2060  0.0707
  806MOL0     C 8710   0.196   4.805   8.519  0.5465 -0.8784  0.3118
  806MOL0     O 8711   0.302   4.818   8.606  0.9654  0.0901 -0.8308
  806MOL0     C 8712   0.429   4.870   8.568 -0.3283  0.1639 -0.0697
  806MOL0     C 8713   0.473   4.986   8.667 -0.5101 -0.0073  0.2850
  806MOL0     C 8714   0.403   5.110   8.613 -0.0484  0.2669 -0.3078
  806MOL0     C 8715   0.445   5.227   8.701 -0.2861 -0.8011 -0.2938
  806MOL0     C 8716   0.375   5.361   8.669 -0.1881 -0.0114 -0.0555
  806MOL0     C 8717   0.225   5.356   8.664  0.1059 -0.2311 -0.6093
  806MOL0     C 8718   0.145   5.290   8.780 -0.2221  0.2031  0.1445
  806MOL0     C 8719   0.015   5.361   8.817  0.6110 -0.1390  0.2197
  806MOL0    Cl 8720  -0.093   5.339   8.686  0.2701 -0.2451  0.0799
  806MOL0     C 8721   0.071   4.771   8.573  0.4113 -0.3658 -0.4436
  806MOL0     C 8722  -0.042   4.748   8.492  1.3321  0.2537  0.2710
  806MOL0     O 8723  -0.005   4.638   8.115  0.1931 -0.4565 -0.9800
  806MOL0     C 8724  -0.324   4.802   8.072  0.2154  0.1897  0.0542
  806MOL0     C 8725  -0.439   4.808   7.993 -0.6961 -0.1015 -0.1276
  806MOL0     N 8726  -0.915   4.649   7.386  0.1844 -0.1471  0.3478
  806MOL0     N 8727  -0.883   4.647   7.259 -0.3025  0.0009  0.3894
  806MOL0     C 8728   0.302   4.692   6.642  0.9280  0.1741  0.0599
  806MOL0     C 8729   0.441   4.658   6.640  0.5273 -0.6236 -0.7655
  806MOL0     C 8730   0.765   4.356   6.560 -0.2231  0.2079 -0.1716
  806MOL0     C 8731   0.855   4.345   6.670 -0.0984 -0.0813  0.3228
  806MOL0     C 8732   0.985   4.287   6.661  0.7056  0.0954 -0.3732
  806MOL0     C 8733   1.020   4.239   6.532  0.3051 -0.6789  0.8915
  806MOL0     O 8734   1.140   4.174   6.503 -0.6223 -0.2591 -0.2478
  806MOL0     C 8735   1.251   4.179   6.601  0.7673 -0.0644  0.2744
  806MOL0     C 8736   1.373   4.110   6.544 -0.3063 -1.1234 -0.1099
  806MOL0     C 8737   1.495   4.127   6.642  0.1284 -0.4846 -0.1455
  806MOL0     C 8738   1.623   4.063   6.600  0.0780 -0.2618 -0.3569
  806MOL0     C 8739   1.654   4.129   6.478 -0.2389 -0.0215 -0.4727
  806MOL0     C 8740   1.681   4.171   6.374  0.1240  0.3579 -0.8068
  806MOL0     C 8741   0.935   4.251   6.420 -0.1858  0.3165  0.1387
  806MOL0     C 8742   0.803   4.299   6.441 -0.6128  0.9119 -0.6968
  806MOL0     H 8743   0.422   4.352   6.787  0.6505  0.8578  2.0193
  806MOL0     H 8744   0.182   4.400   6.774 -0.3460  0.4098  0.2627
  806MOL0     H 8745   0.108   4.602   6.901  1.2770 -2.3541 -2.2213
  806MOL0     H 8746   0.007   4.739   6.834 -0.1926 -0.1267  1.7477
  806MOL0     H 8747  -0.159   4.554   6.759  0.0844  0.5817 -0.4638
  806MOL0     H 8748  -0.074   4.439   6.847  0.6884  0.7403 -0.6929
  806MOL0     H 8749  -0.260   4.528   6.981  0.0450  0.2188  1.7321
  806MOL0     H 8750  -0.111   4.554   7.064 -0.5325  1.3948  1.4026
  806MOL0     H 8751  -0.121   4.796   7.001  0.8933 -1.8226  3.7100
  806MOL0     H 8752  -0.266   4.762   6.900  2.4500 -1.1204 -1.4935
  806MOL0     H 8753  -0.281   4.700   7.200  0.8293  0.5181  0.2581
  806MOL0     H 8754  -0.290   4.861   7.154  2.7297 -0.4515  2.2020
  806MOL0     H 8755  -0.471   4.834   6.990 -0.4856 -0.9158 -1.1063
  806MOL0     H 8756  -0.469   4.655   7.021  1.1891  0.8381 -2.9024
  806MOL0     H 8757  -0.554   4.651   7.227 -1.0699 -0.8238 -0.7120
  806MOL0     H 8758  -0.542   4.823   7.257  0.7445 -1.1149  0.8936
  806MOL0     H 8759  -0.709   4.686   7.055 -0.6422 -0.0111 -0.1401
  806MOL0     H 8760  -0.707   4.857   7.076 -1.0436 -0.1545  0.9561
  806MOL0     H 8761  -0.746   4.917   7.380 -0.1522 -1.6985  2.1801
  806MOL0     H 8762  -0.972   4.895   7.578 -1.8606 -0.5153  0.1904
  806MOL0     H 8763  -0.985   4.724   7.613 -0.8245  0.0631 -1.6643
  806MOL0     H 8764  -0.778   4.920   7.675 -1.6214  0.9000 -2.6184
  806MOL0     H 8765  -0.704   4.768   7.623  0.3148 -3.3971  2.4872
  806MOL0     H 8766  -0.860   4.627   7.787 -0.0375 -1.0322  3.9168
  806MOL0     H 8767  -0.912   4.775   7.856  0.7179 -1.6123  1.9473
  806MOL0     H 8768  -0.726   4.688   7.976 -2.9926  1.4940  0.3566
  806MOL0     H 8769  -0.688   4.852   7.911 -0.6402  0.9660 -0.9636
  806MOL0     H 8770  -0.375   4.587   7.765 -1.2120  0.6758  0.1107
  806MOL0     H 8771  -0.034   4.579   7.879  0.0127  2.7956  2.6181
  806MOL0     H 8772  -0.129   4.436   7.940  1.6947  1.7522  3.2243
  806MOL0     H 8773  -0.168   4.507   7.781 -1.7569  0.8054  1.2965
  806MOL0     H 8774   0.100   4.849   8.196 -2.5693  2.4071  0.3029
  806MOL0     H 8775   0.297   4.851   8.329  1.1312 -0.6542  1.7193
  806MOL0     H 8776   0.491   4.782   8.589  0.6398  0.7806 -0.3004
  806MOL0     H 8777   0.440   4.898   8.463  0.0004 -4.3989 -1.4779
  806MOL0     H 8778   0.440   4.974   8.770 -2.8809  0.5555 -0.3525
  806MOL0     H 8779   0.582   4.993   8.668 -0.4000 -1.4318  1.6050
  806MOL0     H 8780   0.297   5.086   8.627  0.1125 -1.5191 -1.7138
  806MOL0     H 8781   0.432   5.122   8.508  1.1679 -1.9432 -0.3018
  806MOL0     H 8782   0.419   5.201   8.804  1.6231 -1.5125  0.0462
  806MOL0     H 8783   0.553   5.249   8.700 -0.4438  0.6388  2.6821
  806MOL0     H 8784   0.414   5.408   8.578 -1.1013  1.3497  0.2206
  806MOL0     H 8785   0.408   5.425   8.752 -0.6236 -2.8697  2.4986
  806MOL0     H 8786   0.199   5.462   8.670 -2.5421 -0.8750  0.9062
  806MOL0     H 8787   0.198   5.327   8.562 -2.9652  1.5049 -0.3968
  806MOL0     H 8788   0.202   5.285   8.874  0.3457 -2.2757 -0.2791
  806MOL0     H 8789   0.118   5.186   8.764 -0.2128 -0.1853  2.3095
  806MOL0     H 8790   0.022   5.470   8.830 -1.0155  0.0155  0.0747
  806MOL0     H 8791  -0.035   5.327   8.908  0.7133  2.6371  1.4320
  806MOL0     H 8792   0.061   4.753   8.680  4.7193  1.1328  0.4051
  806MOL0     H 8793  -0.136   4.707   8.528  0.5421  0.0528 -1.8845
  806MOL0     H 8794  -0.316   4.865   8.160  1.5613  0.3827 -0.1887
  806MOL0     H 8795  -0.520   4.875   8.019 -0.0461  1.4777 -1.9528
  806MOL0     H 8796   0.253   4.786   6.621 -2.5759 -1.3935  0.5978
  806MOL0     H 8797   0.517   4.730   6.610  1.7959 -1.6376 -0.1171
  806MOL0     H 8798   0.817   4.380   6.766  0.4532  1.2417  0.0833
  806MOL0     H 8799   1.049   4.273   6.747 -0.0307 -1.7403 -0.0819
  806MOL0     H 8800   1.267   4.284   6.629 -1.3907  0.6750 -1.0351
  806MOL0     H 8801   1.233   4.120   6.691  2.4057 -2.5532 -0.9466
  806MOL0     H 8802   1.392   4.157   6.447  2.5314  0.6671  1.1749
  806MOL0     H 8803   1.360   4.002   6.537 -0.2709 -1.4054  2.7387
  806MOL0     H 8804   1.475   4.070   6.733 -0.0739 -3.7638 -2.0828
  806MOL0     H 8805   1.520   4.232   6.664 -0.4229 -0.1534 -1.0296
  806MOL0     H 8806   1.609   3.956   6.578  2.0922 -0.1868 -2.2962
  806MOL0     H 8807   1.705   4.071   6.671 -0.5907 -3.0638  0.8980
  806MOL0     H 8808   1.710   4.210   6.279 -1.7831 -0.5896 -1.8181
  806MOL0     H 8809   0.959   4.201   6.326 -2.0894 -1.6960  0.6323
  806MOL0     H 8810   0.746   4.300   6.349  2.0201  0.4272 -2.4265
  807MOL0     O 8811   6.592   6.791   7.476 -0.3562  0.3127 -0.1705
  807MOL0     C 8812   6.580   6.670   7.458  0.6492  0.2791  1.1734
  807MOL0     O 8813   6.479   6.591   7.498  0.3781  0.2223  0.1434
  807MOL0     C 8814   6.373   6.651   7.557 -0.3216 -0.6899 -0.5929
  807MOL0     C 8815   6.325   6.581   7.667  0.0500  0.9958 -0.0644
  807MOL0     C 8816   6.201   6.619   7.723  0.0235 -0.6106  0.8531
  807MOL0     C 8817   6.135   6.735   7.681 -0.1474 -0.0238 -0.2317
  807MOL0     O 8818   6.007   6.749   7.738  0.5167  0.5317  0.2831
  807MOL0     C 8819   5.933   6.872   7.714  0.4140  1.1472  0.2117
  807MOL0     C 8820   5.806   6.871   7.796 -0.4270 -0.1041  0.3154
  807MOL0     C 8821   5.717   6.974   7.745  0.7575  0.3204 -0.7804
  807MOL0     C 8822   5.595   6.989   7.830 -0.8248  0.2861 -0.0556
  807MOL0     C 8823   5.498   7.088   7.765 -0.2130 -0.6053  0.0727
  807MOL0     C 8824   5.362   7.091   7.841 -0.6186  0.2338 -0.5649
  807MOL0     C 8825   5.275   7.202   7.790  0.3664 -0.3049 -0.9073
  807MOL0     C 8826   5.159   7.256   7.881 -0.2904 -0.0669  1.3235
  807MOL0     N 8827   5.072   7.162   7.939  0.0841 -0.0816 -0.5096
  807MOL0     C 8828   4.947   7.122   7.889 -1.2902 -1.1677 -0.5138
  807MOL0     C 8829   4.885   7.064   7.999 -1.0052 -0.2758  0.1776
  807MOL0     C 8830   4.737   7.046   8.021  0.3882 -0.3578  0.2309
  807MOL0     C 8831   4.681   7.150   8.120  0.6646 -0.6224  0.7552
  807MOL0     C 8832   4.544   7.117   8.185 -0.7888 -0.0469  0.4657
  807MOL0     C 8833   4.439   7.141   8.077 -0.5677  0.3329  0.4182
  807MOL0     O 8834   4.315   7.126   8.129  0.0198  0.2464 -0.1101
  807MOL0     C 8835   4.211   7.153   8.052  0.1099  0.7070 -0.8040
  807MOL0     C 8836   4.204   7.216   7.929  0.2359  0.8332 -0.3913
  807MOL0     C 8837   4.079   7.240   7.859 -0.0433 -0.1217 -0.1472
  807MOL0     C 8838   4.089   7.295   7.719  0.1112 -0.3139  0.1296
  807MOL0     C 8839   3.961   7.206   7.928  0.2625 -1.0639  0.4655
  807MOL0     C 8840   3.832   7.237   7.864 -0.1424 -0.2777  0.0272
  807MOL0     O 8841   3.731   7.253   7.956 -0.2039 -0.3241  0.3292
  807MOL0     C 8842   3.611   7.312   7.935 -1.0213  0.1381 -1.1484
  807MOL0     C 8843   3.498   7.265   8.003  0.2276 -0.2109  0.2413
  807MOL0     C 8844   3.372   7.337   7.995  0.4305  0.5390 -0.5777
  807MOL0     C 8845   3.356   7.450   7.922  0.3261 -0.2567  0.6080
  807MOL0     O 8846   3.237   7.524   7.907 -0.8144 -0.1154 -0.5230
  807MOL0     C 8847   3.120   7.478   7.968  0.5064  0.0035 -0.2005
  807MOL0     C 8848   2.997   7.557   7.912 -0.1248  0.6351  0.3863
  807MOL0     C 8849   2.874   7.539   8.002 -0.6674 -0.1512  0.9080
  807MOL0     C 8850   2.762   7.639   7.971  0.6984  0.6429 -0.4779
  807MOL0     C 8851   2.661   7.609   7.855 -0.4289  0.2943 -0.7605
  807MOL0     C 8852   2.563   7.724   7.823 -0.4296  1.2990  0.0829
  807MOL0     C 8853   2.475   7.757   7.938 -0.2149 -0.3133  0.4150
  807MOL0     C 8854   2.359   7.844   7.894 -0.4965  0.9358 -0.2024
  807MOL0    Cl 8855   2.435   7.993   7.837  0.0349  0.3685  0.2745
  807MOL0     C 8856   3.474   7.495   7.857 -0.7579  0.7351  0.1242
  807MOL0     C 8857   3.596   7.427   7.864 -0.0661 -1.0222 -0.8213
  807MOL0     O 8858   3.814   7.235   7.742 -0.1960  0.0407 -1.1908
  807MOL0     C 8859   3.971   7.145   8.055 -0.0204 -0.6968  0.1240
  807MOL0     C 8860   4.091   7.109   8.112  0.0629  1.0322 -0.5966
  807MOL0     N 8861   4.982   7.033   8.096 -0.0613  0.2156  0.3265
  807MOL0     N 8862   5.092   7.087   8.053  0.9095 -0.7980  0.2439
  807MOL0     C 8863   6.184   6.804   7.573  0.2228 -0.1446 -0.1386
  807MOL0     C 8864   6.306   6.763   7.507 -0.2706  1.3162 -0.7452
  807MOL0     C 8865   6.686   6.595   7.405 -0.2752  0.1733  0.4281
  807MOL0     C 8866   6.766   6.658   7.308 -0.1915 -0.6708 -0.2641
  807MOL0     C 8867   6.878   6.594   7.243 -0.0552 -0.1606  0.1661
  807MOL0     C 8868   6.900   6.459   7.268 -0.6786  0.2367  0.0039
  807MOL0     O 8869   7.005   6.390   7.213  0.0568 -0.4186 -0.1286
  807MOL0     C 8870   7.135   6.438   7.235  0.4478  0.2194  0.0152
  807MOL0     C 8871   7.171   6.411   7.382  0.7027 -1.2191  0.1050
  807MOL0     C 8872   7.166   6.257   7.411  0.5536  0.0032 -0.1880
  807MOL0     C 8873   7.147   6.229   7.562  0.3980  0.9339 -0.3530
  807MOL0     C 8874   7.252   6.282   7.645 -0.2685  0.6913 -0.0422
  807MOL0     C 8875   7.356   6.325   7.687 -0.5502 -0.8521 -0.1540
  807MOL0     C 8876   6.829   6.398   7.375 -0.3172 -0.1617  0.9305
  807MOL0     C 8877   6.720   6.461   7.443 -0.1457 -0.1343 -0.8748
  807MOL0     H 8878   6.373   6.493   7.709  0.4581  0.5903 -1.3484
  807MOL0     H 8879   6.168   6.568   7.813  2.3090 -1.1695  1.4363
  807MOL0     H 8880   5.990   6.963   7.734  1.4213  0.6390 -0.2536
  807MOL0     H 8881   5.905   6.877   7.609 -1.8117  0.0924  0.6918
  807MOL0     H 8882   5.759   6.774   7.782  1.4861 -0.9986 -0.2865
  807MOL0     H 8883   5.827   6.887   7.902 -0.2556  1.6666  0.0540
  807MOL0     H 8884   5.771   7.068   7.754  1.1982 -0.1080  2.1574
  807MOL0     H 8885   5.676   6.960   7.645 -0.4710 -0.5728 -0.1839
  807MOL0     H 8886   5.545   6.892   7.831  1.1450 -0.7779 -0.2386
  807MOL0     H 8887   5.616   7.020   7.933  0.0936 -0.5230  0.0135
  807MOL0     H 8888   5.544   7.187   7.761 -3.1790  0.8218 -2.4677
  807MOL0     H 8889   5.474   7.062   7.662  2.1660  2.6038 -1.4657
  807MOL0     H 8890   5.314   6.994   7.825 -0.4519 -0.1126  0.8660
  807MOL0     H 8891   5.377   7.104   7.949  0.9281 -0.5052 -0.6678
  807MOL0     H 8892   5.354   7.277   7.786  2.0124 -1.9290 -0.3461
  807MOL0     H 8893   5.233   7.181   7.692 -0.5516  3.1161 -1.3669
  807MOL0     H 8894   5.103   7.335   7.829 -0.3223 -0.3612  0.9056
  807MOL0     H 8895   5.216   7.305   7.960  1.7107 -2.0646  1.2330
  807MOL0     H 8896   4.909   7.143   7.789  0.5348  2.1967 -0.6725
  807MOL0     H 8897   4.673   7.059   7.934 -0.6168  1.2461  1.1566
  807MOL0     H 8898   4.728   6.950   8.073 -1.3000  2.1029  5.1700
  807MOL0     H 8899   4.679   7.242   8.061 -1.8956 -1.0881 -0.0165
  807MOL0     H 8900   4.749   7.172   8.203  0.8303  1.2276  0.1625
  807MOL0     H 8901   4.532   7.176   8.276  0.6068 -0.0374  0.6684
  807MOL0     H 8902   4.560   7.013   8.215  2.3168 -0.3167 -1.6357
  807MOL0     H 8903   4.455   7.077   7.990  2.6458  2.8003 -0.9819
  807MOL0     H 8904   4.446   7.246   8.049 -0.1603  0.5311  1.2245
  807MOL0     H 8905   4.298   7.235   7.879 -0.4057 -3.4338 -3.8714
  807MOL0     H 8906   4.045   7.216   7.657 -2.0786 -0.2968  1.5549
  807MOL0     H 8907   4.028   7.385   7.710  0.2674  0.2831  3.6417
  807MOL0     H 8908   4.191   7.321   7.689 -0.0456  0.6841  0.4206
  807MOL0     H 8909   3.524   7.180   8.064  0.3490 -0.6093 -0.3523
  807MOL0     H 8910   3.291   7.301   8.058  1.8153  0.9436  1.5295
  807MOL0     H 8911   3.092   7.373   7.955 -1.7372  0.3025  1.6301
  807MOL0     H 8912   3.126   7.499   8.075  2.7550 -1.0952 -0.0609
  807MOL0     H 8913   3.027   7.660   7.890 -0.3248  0.7224  0.5210
  807MOL0     H 8914   2.972   7.509   7.817  2.5776  1.9858 -1.1236
  807MOL0     H 8915   2.900   7.567   8.105  1.1152 -0.2683  0.5150
  807MOL0     H 8916   2.837   7.436   8.000 -1.3786  0.0964  1.1143
  807MOL0     H 8917   2.704   7.638   8.064  1.0321  1.2587 -0.2595
  807MOL0     H 8918   2.795   7.740   7.948 -2.3866  1.3972 -2.0291
  807MOL0     H 8919   2.595   7.523   7.872 -1.2217  0.5425 -2.3783
  807MOL0     H 8920   2.710   7.597   7.758 -0.2289  4.6680 -1.4012
  807MOL0     H 8921   2.624   7.807   7.786  3.2878 -1.6489 -0.9958
  807MOL0     H 8922   2.500   7.694   7.739  0.1331 -1.0631  0.4504
  807MOL0     H 8923   2.535   7.800   8.018  0.5899 -0.0911 -0.2788
  807MOL0     H 8924   2.443   7.665   7.987  0.6674  0.8952  3.4657
  807MOL0     H 8925   2.296   7.869   7.979  0.5590 -1.3218  1.3259
  807MOL0     H 8926   2.306   7.790   7.815 -0.0643 -2.4454  1.6544
  807MOL0     H 8927   3.472   7.593   7.809  0.5828  1.8000  2.0941
  807MOL0     H 8928   3.682   7.471   7.814 -1.1765  0.8328 -1.1777
  807MOL0     H 8929   3.880   7.114   8.105 -1.3321  0.4961 -1.4093
  807MOL0     H 8930   4.100   7.050   8.203  2.2627  0.6720 -0.9982
  807MOL0     H 8931   6.137   6.894   7.535 -3.0696  0.0713  3.7306
  807MOL0     H 8932   6.331   6.819   7.418  0.5103  1.0415 -0.6969
  807MOL0     H 8933   6.740   6.757   7.271 -3.1569 -1.7131 -1.2147
  807MOL0     H 8934   6.948   6.642   7.175  0.1221 -0.6499 -0.0028
  807MOL0     H 8935   7.204   6.383   7.172  0.2585  3.1517 -3.0423
  807MOL0     H 8936   7.137   6.547   7.222 -0.2625  0.7145  3.1096
  807MOL0     H 8937   7.108   6.473   7.447  2.2582 -0.0364  0.5590
  807MOL0     H 8938   7.270   6.452   7.404  1.3278 -2.9980  0.8270
  807MOL0     H 8939   7.249   6.201   7.369 -0.2778 -0.3785 -1.3873
  807MOL0     H 8940   7.080   6.220   7.355 -0.4571  1.0009  0.6480
  807MOL0     H 8941   7.124   6.123   7.577  0.7889  0.9024  0.0352
  807MOL0     H 8942   7.052   6.280   7.580 -0.5791 -0.8797 -0.0496
  807MOL0     H 8943   7.438   6.378   7.731 -0.2937  0.6816 -2.3102
  807MOL0     H 8944   6.853   6.298   7.410  0.8921  0.0840  0.8513
  807MOL0     H 8945   6.662   6.413   7.522 -0.9519  2.0419 -0.0487
  808MOL0     O 8946   2.314   1.102   2.861 -0.2470  0.0927  0.1091
  808MOL0     C 8947   2.333   1.181   2.777 -0.1132 -0.0141 -0.2502
  808MOL0     O 8948   2.260   1.211   2.667 -0.2756  0.6765  0.4089
  808MOL0     C 8949   2.141   1.145   2.640 -0.0083  0.0695 -0.1875
  808MOL0     C 8950   2.083   1.029   2.700 -0.1721  0.0472 -0.3594
  808MOL0     C 8951   1.949   0.992   2.687 -0.3939  0.0357  0.5787
  808MOL0     C 8952   1.874   1.057   2.591 -0.0020  0.3228  0.5997
  808MOL0     O 8953   1.749   1.022   2.561  0.5955  0.5075  0.3082
  808MOL0     C 8954   1.677   0.914   2.633 -0.0489 -0.6639  0.1373
  808MOL0     C 8955   1.537   0.943   2.595  0.3079 -0.0758 -0.2060
  808MOL0     C 8956   1.441   0.849   2.662  0.6514 -0.4949 -0.6165
  808MOL0     C 8957   1.299   0.898   2.624 -0.3920 -0.0487  0.2125
  808MOL0     C 8958   1.186   0.832   2.704  0.1535  0.0564 -0.1748
  808MOL0     C 8959   1.049   0.864   2.644 -0.3236 -1.0010 -0.1374
  808MOL0     C 8960   0.944   0.783   2.726  0.7624 -0.4016 -0.0653
  808MOL0     C 8961   0.812   0.845   2.697  0.2930  0.4080  0.6737
  808MOL0     N 8962   0.700   0.767   2.751 -0.1662  0.0034 -0.2072
  808MOL0     C 8963   0.569   0.808   2.748  0.4954 -0.1525 -0.4468
  808MOL0     C 8964   0.499   0.705   2.788  0.9485  0.3987  0.4560
  808MOL0     C 8965   0.352   0.695   2.797  0.5929 -1.1392  1.0638
  808MOL0     C 8966   0.288   0.583   2.873 -0.1976  0.8840  0.0138
  808MOL0     C 8967   0.136   0.572   2.854 -0.2858  0.4078  0.9190
  808MOL0     C 8968   0.059   0.466   2.933  0.0068 -0.0805  0.2720
  808MOL0     O 8969   0.124   0.341   2.914  0.2132 -0.0934 -0.4521
  808MOL0     C 8970   0.057   0.245   2.839 -0.2604 -0.5140 -0.9452
  808MOL0     C 8971   0.137   0.168   2.748 -0.7518  0.2930  0.6540
  808MOL0     C 8972   0.086   0.077   2.658  0.2617  0.0049 -0.2904
  808MOL0     C 8973   0.181   0.007   2.572  0.1496 -0.4179 -1.3527
  808MOL0     C 8974  -0.056   0.058   2.657 -0.5229  0.8949  0.3581
  808MOL0     C 8975  -0.127  -0.033   2.561 -0.8556  0.9434  0.5842
  808MOL0     O 8976  -0.257  -0.048   2.566 -0.0371  0.0555  0.4449
  808MOL0     C 8977  -0.320  -0.103   2.453  0.9651 -0.1269  0.6887
  808MOL0     C 8978  -0.298  -0.045   2.326  0.6173 -0.5129 -1.0185
  808MOL0     C 8979  -0.376  -0.089   2.219 -0.5385 -1.1134 -0.2908
  808MOL0     C 8980  -0.461  -0.196   2.227 -0.9765 -0.5490  0.7262
  808MOL0     O 8981  -0.525  -0.235   2.112  0.0627 -0.2537  0.1684
  808MOL0     C 8982  -0.642  -0.326   2.134  0.2088  0.6410  0.9926
  808MOL0     C 8983  -0.706  -0.355   1.997  0.1795 -0.2300  0.1715
  808MOL0     C 8984  -0.812  -0.454   1.997  0.5454 -0.4776 -0.1323
  808MOL0     C 8985  -0.864  -0.456   1.859 -0.4869 -0.3578  0.0897
  808MOL0     C 8986  -0.961  -0.576   1.834 -0.5369 -0.0514 -0.2361
  808MOL0     C 8987  -1.101  -0.559   1.903  0.3640  0.1599 -0.0049
  808MOL0     C 8988  -1.180  -0.439   1.856 -0.1234 -0.0979  0.6533
  808MOL0     C 8989  -1.215  -0.440   1.710  0.5504 -0.4607  0.0875
  808MOL0    Cl 8990  -1.265  -0.278   1.699  0.0690 -0.1377 -0.1620
  808MOL0     C 8991  -0.471  -0.262   2.352  0.4097  0.6818  0.2788
  808MOL0     C 8992  -0.402  -0.210   2.462  0.4523  0.1114 -0.3290
  808MOL0     O 8993  -0.055  -0.091   2.478  0.1690 -0.2790 -0.7542
  808MOL0     C 8994  -0.131   0.115   2.764 -0.0626  0.2319 -0.0342
  808MOL0     C 8995  -0.070   0.209   2.853  1.1289  0.4444 -0.1626
  808MOL0     N 8996   0.590   0.607   2.823  0.0525 -0.2856 -0.4532
  808MOL0     N 8997   0.708   0.640   2.804 -0.5004 -0.2050  0.3178
  808MOL0     C 8998   1.935   1.161   2.526  0.2791 -0.7605 -0.3568
  808MOL0     C 8999   2.064   1.209   2.545  0.6439  0.4078  0.4520
  808MOL0     C 9000   2.447   1.272   2.811 -0.6222  0.0674 -0.0307
  808MOL0     C 9001   2.465   1.400   2.752  0.1363 -0.1977  0.1199
  808MOL0     C 9002   2.573   1.486   2.776  0.3425  0.0869 -0.2028
  808MOL0     C 9003   2.655   1.449   2.876 -0.2443 -0.8179 -0.0213
  808MOL0     O 9004   2.752   1.536   2.922 -0.0255 -0.1700  0.3371
  808MOL0     C 9005   2.840   1.592   2.826  0.1439 -0.1091 -0.5416
  808MOL0     C 9006   2.974   1.621   2.884  0.1138  0.6360 -0.0878
  808MOL0     C 9007   3.065   1.668   2.773  0.4604 -0.1364 -0.5260
  808MOL0     C 9008   2.999   1.756   2.665 -0.9247  0.4528 -0.4398
  808MOL0     C 9009   3.111   1.814   2.583 -0.2047  0.0287  0.7524
  808MOL0     C 9010   3.196   1.863   2.504  0.1383 -1.1200 -0.8828
  808MOL0     C 9011   2.643   1.329   2.948  0.3212  0.2234  0.1399
  808MOL0     C 9012   2.538   1.238   2.915 -0.6449  0.0677 -0.3604
  808MOL0     H 9013   2.141   0.968   2.767 -2.5841  0.2439  2.0766
  808MOL0     H 9014   1.905   0.909   2.741 -1.0247 -1.2717 -1.7996
  808MOL0     H 9015   1.712   0.814   2.604  1.3282 -0.5974  1.4415
  808MOL0     H 9016   1.689   0.921   2.741 -1.2602  1.2467  0.1882
  808MOL0     H 9017   1.511   1.049   2.600  0.5057 -0.0741  1.5495
  808MOL0     H 9018   1.516   0.906   2.494  0.4468 -0.5195 -0.0721
  808MOL0     H 9019   1.461   0.750   2.621 -1.4955  0.0063 -3.1162
  808MOL0     H 9020   1.450   0.854   2.771  2.5489  0.5052 -0.7646
  808MOL0     H 9021   1.292   1.005   2.644 -0.6406 -0.2785  1.3990
  808MOL0     H 9022   1.285   0.866   2.520  2.4220 -2.9624  0.5688
  808MOL0     H 9023   1.201   0.724   2.692 -0.0711  0.1088 -1.0475
  808MOL0     H 9024   1.181   0.850   2.811 -4.9398  0.6464 -0.2591
  808MOL0     H 9025   1.039   0.972   2.631 -0.9786 -0.8655  1.3362
  808MOL0     H 9026   1.051   0.819   2.544 -1.0266 -2.8610  0.6387
  808MOL0     H 9027   0.939   0.674   2.721 -1.5556 -0.5029  2.1716
  808MOL0     H 9028   0.981   0.805   2.827 -0.6224 -0.4950  0.4866
  808MOL0     H 9029   0.794   0.878   2.595  0.4337 -0.0940  0.4828
  808MOL0     H 9030   0.806   0.945   2.742  1.5689  0.4413  0.8315
  808MOL0     H 9031   0.550   0.914   2.731 -1.0035 -0.4777 -0.8746
  808MOL0     H 9032   0.315   0.790   2.837  1.3161 -0.9894  1.4076
  808MOL0     H 9033   0.310   0.689   2.696 -1.8665  0.4308  1.9095
  808MOL0     H 9034   0.318   0.584   2.978 -0.6198 -0.9890  0.1883
  808MOL0     H 9035   0.341   0.495   2.835 -1.6317 -0.5899  1.2709
  808MOL0     H 9036   0.116   0.552   2.748  0.7200  2.4792  0.2943
  808MOL0     H 9037   0.104   0.668   2.896 -0.6456  0.2477  1.0164
  808MOL0     H 9038  -0.047   0.455   2.908 -0.3989 -2.7124  2.6693
  808MOL0     H 9039   0.062   0.496   3.039 -1.9030  1.0369  0.0483
  808MOL0     H 9040   0.244   0.182   2.761 -0.6737 -0.3414  0.6863
  808MOL0     H 9041   0.175  -0.097   2.606  0.1581  0.0127  0.0346
  808MOL0     H 9042   0.158   0.017   2.466 -0.3838 -1.8200 -1.3888
  808MOL0     H 9043   0.288   0.032   2.576  0.6513 -1.9189 -3.5044
  808MOL0     H 9044  -0.247   0.050   2.329  0.6290 -0.5427  0.2829
  808MOL0     H 9045  -0.368  -0.032   2.126  1.1143  4.4577  2.8053
  808MOL0     H 9046  -0.599  -0.415   2.181  4.7641  2.4136  0.7000
  808MOL0     H 9047  -0.720  -0.276   2.193  0.3905  1.9152  0.1844
  808MOL0     H 9048  -0.732  -0.260   1.950  3.9331  0.9001  0.0744
  808MOL0     H 9049  -0.628  -0.387   1.928 -1.9949 -1.8241 -1.7233
  808MOL0     H 9050  -0.899  -0.445   2.062  0.2475 -3.2775 -0.0045
  808MOL0     H 9051  -0.760  -0.546   2.025  1.8210  0.8277  2.0457
  808MOL0     H 9052  -0.915  -0.365   1.827  2.9974  1.4876 -0.6579
  808MOL0     H 9053  -0.779  -0.453   1.791 -0.3435  1.5268  0.3210
  808MOL0     H 9054  -0.921  -0.670   1.872 -0.9939  1.0887  3.4702
  808MOL0     H 9055  -0.975  -0.582   1.726 -1.2983  2.8800 -0.3916
  808MOL0     H 9056  -1.160  -0.644   1.867 -1.5826  2.1041 -1.7214
  808MOL0     H 9057  -1.091  -0.552   2.011  0.6476  1.1863 -0.0836
  808MOL0     H 9058  -1.134  -0.343   1.878 -1.8241  1.1462 -0.8396
  808MOL0     H 9059  -1.276  -0.428   1.908 -0.9387  2.3922 -1.1844
  808MOL0     H 9060  -1.289  -0.518   1.687 -0.7526  0.3573  1.3634
  808MOL0     H 9061  -1.125  -0.451   1.649 -1.1111 -1.7667 -2.3234
  808MOL0     H 9062  -0.523  -0.356   2.368  1.2982  0.1700  0.1887
  808MOL0     H 9063  -0.413  -0.251   2.561  1.9059  1.2013  0.3206
  808MOL0     H 9064  -0.239   0.108   2.773 -0.0588  1.7367  1.9104
  808MOL0     H 9065  -0.135   0.247   2.931  1.2024 -0.5321  0.3922
  808MOL0     H 9066   1.862   1.197   2.455 -3.6556 -1.9371  2.7473
  808MOL0     H 9067   2.104   1.295   2.493 -0.3183  0.9052  0.5026
  808MOL0     H 9068   2.403   1.436   2.670  3.8813 -0.2110 -3.0472
  808MOL0     H 9069   2.581   1.581   2.724 -1.2785  0.4818  0.2238
  808MOL0     H 9070   2.841   1.523   2.741 -0.5614 -0.0848 -0.5737
  808MOL0     H 9071   2.799   1.691   2.803 -0.8208  0.7362  3.9078
  808MOL0     H 9072   3.019   1.531   2.926  3.1447  2.2523  0.4512
  808MOL0     H 9073   2.972   1.694   2.965  1.4966 -1.1772  1.6925
  808MOL0     H 9074   3.112   1.585   2.719  1.2877 -0.0791  0.0774
  808MOL0     H 9075   3.141   1.715   2.836  1.7349 -2.4438 -0.1966
  808MOL0     H 9076   2.945   1.836   2.716 -0.5394  0.5010 -0.1051
  808MOL0     H 9077   2.939   1.700   2.593 -0.8065 -1.6455  1.0066
  808MOL0     H 9078   3.262   1.914   2.437  2.9364 -1.0995  1.7105
  808MOL0     H 9079   2.720   1.300   3.018  1.1628 -0.6415 -1.1059
  808MOL0     H 9080   2.546   1.137   2.954  0.3672 -0.4072 -1.7178
  809MOL0     O 9081   7.782   1.002   5.281  0.2787  0.0867  0.4677
  809MOL0     C 9082   7.775   0.878   5.280  0.2388 -0.8011 -0.2542
  809MOL0     O 9083   7.677   0.805   5.343  0.0511  0.5695 -0.7717
  809MOL0     C 9084   7.588   0.855   5.433 -0.3117 -0.1314 -0.3175
  809MOL0     C 9085   7.607   0.975   5.506  0.5554 -0.5095  0.1128
  809MOL0     C 9086   7.512   1.028   5.598 -0.0209 -0.1934 -1.3209
  809MOL0     C 9087   7.385   0.964   5.617 -0.4034 -0.3242 -0.0058
  809MOL0     O 9088   7.276   1.013   5.693  0.2409  0.1238  0.3384
  809MOL0     C 9089   7.310   1.121   5.779 -0.5254 -0.2411 -0.1189
  809MOL0     C 9090   7.222   1.138   5.908 -0.0575 -0.3808 -0.1304
  809MOL0     C 9091   7.073   1.103   5.892 -0.4295 -0.3435 -0.3053
  809MOL0     C 9092   7.014   1.193   5.782  0.3618 -0.0531  0.4001
  809MOL0     C 9093   6.979   1.331   5.838 -0.3645 -0.1734  0.7938
  809MOL0     C 9094   6.901   1.420   5.752  0.3096  0.7890 -0.2277
  809MOL0     C 9095   6.756   1.366   5.740  0.5644 -0.6924  0.3030
  809MOL0     C 9096   6.662   1.482   5.700  0.0225  0.9599  0.5313
  809MOL0     N 9097   6.628   1.578   5.806 -0.0683  0.3700 -0.1141
  809MOL0     C 9098   6.524   1.583   5.892  0.0693  0.7748 -0.0063
  809MOL0     C 9099   6.531   1.689   5.970 -0.2284  0.6592 -0.2712
  809MOL0     C 9100   6.430   1.735   6.079 -1.2052 -0.2037 -0.8699
  809MOL0     C 9101   6.284   1.721   6.042 -0.3458  0.0221  0.2560
  809MOL0     C 9102   6.193   1.823   6.116 -0.4718  0.2502  0.0514
  809MOL0     C 9103   6.040   1.797   6.106  0.0704 -0.5370  0.0485
  809MOL0     O 9104   5.971   1.907   6.169 -0.8401 -0.5899  0.3558
  809MOL0     C 9105   5.840   1.931   6.142  0.1265 -0.1916  0.4356
  809MOL0     C 9106   5.799   2.065   6.144 -0.2594 -0.0735  0.0767
  809MOL0     C 9107   5.666   2.093   6.140 -0.7150  0.3366  0.8166
  809MOL0     C 9108   5.633   2.239   6.164 -0.7305 -0.3719  0.6427
  809MOL0     C 9109   5.572   1.992   6.105  0.5761  0.2864  0.9998
  809MOL0     C 9110   5.423   2.018   6.103 -0.6337 -0.1699 -0.2520
  809MOL0     O 9111   5.358   1.913   6.042  0.4857  0.0324 -0.3139
  809MOL0     C 9112   5.221   1.914   6.031  1.1312 -0.4106 -1.0540
  809MOL0     C 9113   5.130   2.026   6.019 -0.6978  0.0987  0.2083
  809MOL0     C 9114   4.996   2.010   6.011 -0.0547  0.4478  0.6759
  809MOL0     C 9115   4.932   1.887   6.020  0.2249 -0.5494  0.5532
  809MOL0     O 9116   4.791   1.886   6.020  0.0381 -0.4486 -0.5015
  809MOL0     C 9117   4.727   1.756   6.004 -0.5517 -0.5284 -0.2337
  809MOL0     C 9118   4.607   1.776   5.914 -0.2975  0.1516 -0.5371
  809MOL0     C 9119   4.527   1.641   5.917  0.1387 -0.3403 -0.9329
  809MOL0     C 9120   4.396   1.640   5.831  0.2461 -0.9697 -0.3025
  809MOL0     C 9121   4.421   1.594   5.689 -1.0587 -0.7457  0.2855
  809MOL0     C 9122   4.283   1.596   5.618  0.5736  0.3841  0.0281
  809MOL0     C 9123   4.310   1.572   5.470 -0.4151 -0.1866 -0.5420
  809MOL0     C 9124   4.187   1.602   5.379 -0.0461  0.1965  0.0729
  809MOL0    Cl 9125   4.060   1.479   5.417 -0.3486  0.3209  0.3546
  809MOL0     C 9126   5.008   1.774   6.051  0.1880 -0.6726 -0.5151
  809MOL0     C 9127   5.147   1.796   6.051  0.5343  0.2194  0.9462
  809MOL0     O 9128   5.373   2.106   6.167 -0.5185  0.1249 -0.0810
  809MOL0     C 9129   5.622   1.868   6.070  0.0095  0.4186  0.0517
  809MOL0     C 9130   5.757   1.836   6.096  0.4803  0.9005 -0.2042
  809MOL0     N 9131   6.652   1.755   5.936  0.2540  0.1989 -0.0216
  809MOL0     N 9132   6.704   1.690   5.832  0.0642  1.0382 -0.1439
  809MOL0     C 9133   7.367   0.856   5.538 -0.4036  0.8989 -0.4634
  809MOL0     C 9134   7.462   0.796   5.452  0.1784  0.4459 -0.6876
  809MOL0     C 9135   7.881   0.805   5.208  0.5569  0.5217 -0.2748
  809MOL0     C 9136   8.010   0.863   5.182 -0.1533  1.5528 -0.7483
  809MOL0     C 9137   8.121   0.782   5.134  0.4773  0.0877 -0.3456
  809MOL0     C 9138   8.099   0.649   5.090 -0.2627 -0.0459  1.1459
  809MOL0     O 9139   8.196   0.563   5.036  0.0910 -0.4127 -0.0909
  809MOL0     C 9140   8.327   0.605   5.035 -0.8924  0.1983  0.6688
  809MOL0     C 9141   8.420   0.488   4.994  0.2616 -0.7465  0.3511
  809MOL0     C 9142   8.570   0.530   4.946  0.4366  0.0766 -0.3770
  809MOL0     C 9143   8.683   0.460   5.026  0.0497  0.6793  0.4300
  809MOL0     C 9144   8.803   0.459   4.948 -0.4737 -0.4237  0.5959
  809MOL0     C 9145   8.904   0.447   4.889 -0.4481 -0.4277 -0.3506
  809MOL0     C 9146   7.970   0.594   5.104 -0.6799 -0.6573 -0.3760
  809MOL0     C 9147   7.860   0.664   5.171  0.0041 -0.5466  0.9584
  809MOL0     H 9148   7.704   1.025   5.508 -0.2299  1.0844  2.8247
  809MOL0     H 9149   7.534   1.125   5.643 -0.5044 -0.5614 -0.2605
  809MOL0     H 9150   7.411   1.101   5.814 -0.0685 -2.1752 -2.3403
  809MOL0     H 9151   7.294   1.212   5.719 -1.5275 -1.4952 -1.8512
  809MOL0     H 9152   7.255   1.076   5.991 -2.1525 -0.2702  0.8481
  809MOL0     H 9153   7.237   1.240   5.944 -2.9632 -0.2314  0.9024
  809MOL0     H 9154   7.046   1.001   5.863 -2.4909  0.8198 -2.8538
  809MOL0     H 9155   7.029   1.127   5.990  2.2222  0.7805  0.7156
  809MOL0     H 9156   7.078   1.207   5.695 -0.7968  1.9245 -0.2244
  809MOL0     H 9157   6.925   1.143   5.742  0.0572 -1.2074  2.3869
  809MOL0     H 9158   6.939   1.321   5.939  0.3213  1.1527  1.2137
  809MOL0     H 9159   7.076   1.381   5.847  0.8167 -2.1182 -0.3212
  809MOL0     H 9160   6.899   1.521   5.795  1.2275  1.5510 -1.9028
  809MOL0     H 9161   6.931   1.438   5.649 -0.4300  4.0847  0.0095
  809MOL0     H 9162   6.747   1.289   5.662 -3.3468  0.4445 -0.5792
  809MOL0     H 9163   6.731   1.330   5.840  0.1181  1.7035  1.1137
  809MOL0     H 9164   6.575   1.426   5.664 -0.0245  1.4417 -0.1236
  809MOL0     H 9165   6.699   1.530   5.609 -0.0135 -1.7822 -1.0393
  809MOL0     H 9166   6.448   1.506   5.892  2.1292 -1.4017  1.1762
  809MOL0     H 9167   6.454   1.679   6.170  0.1596 -0.2036 -1.2001
  809MOL0     H 9168   6.452   1.842   6.084  0.4671 -0.5422 -0.3363
  809MOL0     H 9169   6.249   1.621   6.068  2.6686 -1.2642 -0.2008
  809MOL0     H 9170   6.264   1.731   5.935  0.2849  0.5162  0.1739
  809MOL0     H 9171   6.217   1.926   6.088 -1.0068 -0.0724 -1.6637
  809MOL0     H 9172   6.203   1.816   6.225  0.9466  0.4032 -0.0524
  809MOL0     H 9173   6.029   1.702   6.159  0.0427 -0.1008  0.8334
  809MOL0     H 9174   6.003   1.786   6.004 -3.1143 -1.1822  1.1740
  809MOL0     H 9175   5.877   2.140   6.151 -1.4354  1.2140 -0.1859
  809MOL0     H 9176   5.722   2.301   6.148  0.2371 -2.4138 -2.9879
  809MOL0     H 9177   5.558   2.273   6.092  0.8255  1.3275 -0.2758
  809MOL0     H 9178   5.587   2.253   6.262 -4.4488  0.6373 -1.0678
  809MOL0     H 9179   5.170   2.127   6.009 -1.1443  0.1734 -0.8505
  809MOL0     H 9180   4.931   2.096   5.998  0.4816  0.7488 -0.0750
  809MOL0     H 9181   4.789   1.675   5.965 -0.0641 -0.7373  0.9220
  809MOL0     H 9182   4.688   1.733   6.104 -1.3440  1.8188  0.0584
  809MOL0     H 9183   4.542   1.857   5.949  0.2488 -0.6228  2.6252
  809MOL0     H 9184   4.652   1.802   5.818  3.0451 -0.1683  0.8147
  809MOL0     H 9185   4.494   1.629   6.020 -1.3989 -0.3135 -1.3955
  809MOL0     H 9186   4.591   1.554   5.901  0.2457 -1.2204  3.3285
  809MOL0     H 9187   4.335   1.559   5.872  1.0664 -2.5047 -1.9916
  809MOL0     H 9188   4.347   1.737   5.837 -0.3157 -1.2560 -0.2059
  809MOL0     H 9189   4.473   1.498   5.695  1.5975  0.6507  1.2926
  809MOL0     H 9190   4.491   1.665   5.644 -0.3098 -1.6426  0.0041
  809MOL0     H 9191   4.219   1.520   5.663  0.0577  1.4911  1.1912
  809MOL0     H 9192   4.226   1.687   5.638 -1.0596 -1.0565  2.4548
  809MOL0     H 9193   4.338   1.466   5.463  2.6651  0.6224 -2.4087
  809MOL0     H 9194   4.398   1.628   5.438  0.5736 -2.2101 -1.6240
  809MOL0     H 9195   4.216   1.592   5.274 -1.1799  0.2470 -0.2605
  809MOL0     H 9196   4.156   1.706   5.391  1.6845  0.6549  0.7662
  809MOL0     H 9197   4.972   1.676   6.079  0.5376  0.3230  4.3471
  809MOL0     H 9198   5.213   1.711   6.068  2.7594  2.3159  3.9781
  809MOL0     H 9199   5.548   1.795   6.039 -0.0518  0.8202 -0.7774
  809MOL0     H 9200   5.795   1.735   6.092 -2.1957 -0.4093  2.8733
  809MOL0     H 9201   7.270   0.811   5.559  0.2926 -0.0491  0.8138
  809MOL0     H 9202   7.444   0.706   5.394 -0.2572  0.2074 -0.1996
  809MOL0     H 9203   8.024   0.965   5.218 -0.8974  1.5305 -0.3900
  809MOL0     H 9204   8.214   0.838   5.143  0.4034  0.1326  0.2147
  809MOL0     H 9205   8.328   0.684   4.959 -0.2180 -0.8429 -0.4170
  809MOL0     H 9206   8.352   0.642   5.135  2.0700  0.2112  0.0118
  809MOL0     H 9207   8.365   0.449   4.908  0.5041  2.0153 -1.1661
  809MOL0     H 9208   8.419   0.413   5.074 -2.8541  0.9904  2.1273
  809MOL0     H 9209   8.577   0.638   4.962 -1.0152  0.0890  0.3177
  809MOL0     H 9210   8.578   0.502   4.840 -0.1041 -3.3120  0.3490
  809MOL0     H 9211   8.655   0.357   5.049 -3.5776  0.8827 -2.0999
  809MOL0     H 9212   8.714   0.514   5.116  0.4788  0.1525  0.6025
  809MOL0     H 9213   9.004   0.445   4.852  0.2068  1.3095  1.1822
  809MOL0     H 9214   7.959   0.488   5.084  1.0394 -2.1407  4.8789
  809MOL0     H 9215   7.762   0.619   5.187 -0.3109 -0.3473 -0.2959
  810MOL0     O 9216   1.141   1.259   7.925 -0.3523 -0.5513 -0.5614
  810MOL0     C 9217   1.187   1.258   7.812 -0.8685 -0.1870  0.1398
  810MOL0     O 9218   1.146   1.332   7.707 -0.1934 -1.1187  0.2339
  810MOL0     C 9219   1.041   1.416   7.731 -0.6937  0.3268 -0.8112
  810MOL0     C 9220   0.909   1.376   7.743  0.7341  0.5825  0.3295
  810MOL0     C 9221   0.809   1.470   7.761 -0.7186  0.3424 -0.1095
  810MOL0     C 9222   0.835   1.607   7.752  0.0170 -0.7276 -0.3658
  810MOL0     O 9223   0.736   1.702   7.760  0.6193  0.0856 -0.6369
  810MOL0     C 9224   0.597   1.660   7.785  0.1968 -0.3488  0.3393
  810MOL0     C 9225   0.519   1.785   7.829 -0.1976  0.4982  0.0421
  810MOL0     C 9226   0.542   1.889   7.720  0.7998  1.2444 -0.8027
  810MOL0     C 9227   0.433   2.003   7.740 -0.1716 -0.0137  0.8142
  810MOL0     C 9228   0.285   1.978   7.715  0.7308 -0.2250  0.5406
  810MOL0     C 9229   0.199   2.105   7.720  0.6698 -0.0813 -0.7274
  810MOL0     C 9230   0.053   2.063   7.707 -0.8348  0.3971 -0.6232
  810MOL0     C 9231  -0.052   2.164   7.766  0.5094  0.6382 -0.5457
  810MOL0     N 9232  -0.180   2.154   7.695 -0.2565 -1.0158 -0.1369
  810MOL0     C 9233  -0.273   2.057   7.720  0.6413  0.8448  0.4873
  810MOL0     C 9234  -0.390   2.092   7.658 -0.5030 -0.3120  0.0789
  810MOL0     C 9235  -0.519   2.010   7.647 -0.2076  0.1524  0.0141
  810MOL0     C 9236  -0.647   2.090   7.618 -0.3172 -0.3313  0.2143
  810MOL0     C 9237  -0.743   2.134   7.735 -0.2583  0.5170  0.1804
  810MOL0     C 9238  -0.810   2.007   7.790  0.0719 -0.0378 -0.2636
  810MOL0     O 9239  -0.861   2.055   7.921  0.0530 -0.2256  0.1708
  810MOL0     C 9240  -0.973   1.983   7.954 -0.5856  0.0276  0.2405
  810MOL0     C 9241  -0.941   1.863   8.016 -0.3625  1.0059 -0.2950
  810MOL0     C 9242  -1.047   1.780   8.056  1.1012  0.9494 -0.2366
  810MOL0     C 9243  -0.992   1.651   8.124 -0.4404  0.1342 -0.0292
  810MOL0     C 9244  -1.192   1.811   8.040  1.1439  0.2366 -0.2201
  810MOL0     C 9245  -1.323   1.739   8.085  0.3186  0.3923  0.0608
  810MOL0     O 9246  -1.433   1.754   7.999 -1.0526 -0.1503 -0.5327
  810MOL0     C 9247  -1.558   1.717   8.046 -0.2435  0.7335 -0.3286
  810MOL0     C 9248  -1.617   1.747   8.167 -0.2913 -0.6674  0.7564
  810MOL0     C 9249  -1.744   1.710   8.195  0.5693 -0.8577  0.1552
  810MOL0     C 9250  -1.819   1.649   8.100 -0.4678 -0.1014 -0.6343
  810MOL0     O 9251  -1.947   1.615   8.137  0.2543  1.1344 -0.0178
  810MOL0     C 9252  -2.020   1.708   8.214  0.2119  0.8241  0.6366
  810MOL0     C 9253  -2.171   1.679   8.228  0.1998 -0.1127 -0.1529
  810MOL0     C 9254  -2.193   1.546   8.299 -0.0424 -0.9454  0.7200
  810MOL0     C 9255  -2.300   1.567   8.408 -0.3431 -0.0169  0.7100
  810MOL0     C 9256  -2.321   1.429   8.479  0.4269  0.3669 -0.1517
  810MOL0     C 9257  -2.453   1.437   8.563  0.3240  0.8936 -0.2566
  810MOL0     C 9258  -2.579   1.430   8.487  0.4270 -0.5357  0.1901
  810MOL0     C 9259  -2.690   1.464   8.581 -0.5608 -0.2847  0.7377
  810MOL0    Cl 9260  -2.846   1.462   8.489 -0.5177 -0.1653  0.1622
  810MOL0     C 9261  -1.768   1.611   7.982  0.2865  0.6010 -0.5177
  810MOL0     C 9262  -1.639   1.645   7.952 -0.5498 -0.4841 -0.1392
  810MOL0     O 9263  -1.315   1.668   8.183  0.4754  0.7772 -0.0379
  810MOL0     C 9264  -1.209   1.930   7.976 -1.0199 -0.2706  0.3505
  810MOL0     C 9265  -1.102   2.017   7.935 -0.7651 -0.2880 -0.3819
  810MOL0     N 9266  -0.363   2.217   7.601  0.5521 -0.3192  0.3634
  810MOL0     N 9267  -0.237   2.250   7.624  0.8784 -0.1926  0.3395
  810MOL0     C 9268   0.973   1.646   7.737  0.1030 -0.0846 -0.9997
  810MOL0     C 9269   1.069   1.550   7.725 -0.4754 -0.7250  0.0511
  810MOL0     C 9270   1.307   1.174   7.792 -0.4950  0.9314  0.1075
  810MOL0     C 9271   1.350   1.090   7.897 -0.8800  0.5144 -0.0821
  810MOL0     C 9272   1.472   1.019   7.881 -0.6670 -0.0642  0.8049
  810MOL0     C 9273   1.551   1.021   7.764  0.3177  0.0256  0.1113
  810MOL0     O 9274   1.675   0.958   7.744 -0.0329 -0.7296  0.5831
  810MOL0     C 9275   1.734   0.895   7.857  1.0119 -0.0428 -0.9029
  810MOL0     C 9276   1.875   0.843   7.838  0.0586 -0.1070 -0.4892
  810MOL0     C 9277   1.916   0.768   7.969 -1.1999 -0.0778 -0.4356
  810MOL0     C 9278   1.951   0.857   8.093 -0.1867  0.1668  0.8968
  810MOL0     C 9279   2.084   0.921   8.073  0.9559 -0.2839 -0.4027
  810MOL0     C 9280   2.187   0.973   8.077 -0.5195  0.2596 -0.0356
  810MOL0     C 9281   1.498   1.099   7.662  0.5384  0.0366 -0.3538
  810MOL0     C 9282   1.378   1.171   7.671  0.2213  0.2763 -0.4628
  810MOL0     H 9283   0.884   1.271   7.733  1.4390  0.4011  0.4162
  810MOL0     H 9284   0.710   1.426   7.776 -0.3271 -0.2005  1.0042
  810MOL0     H 9285   0.554   1.627   7.690 -1.1325  1.8728  0.1233
  810MOL0     H 9286   0.577   1.576   7.852  3.4585  0.7985  3.0612
  810MOL0     H 9287   0.411   1.768   7.825 -0.3553  1.5420 -0.7498
  810MOL0     H 9288   0.555   1.817   7.927  3.1285 -0.8427 -0.5890
  810MOL0     H 9289   0.647   1.919   7.727  0.5281  2.1499 -0.4220
  810MOL0     H 9290   0.528   1.838   7.624  1.8921 -2.7620  0.9801
  810MOL0     H 9291   0.428   2.039   7.843 -1.5223  0.5732  0.5633
  810MOL0     H 9292   0.465   2.085   7.675  1.2931 -0.7783  0.5329
  810MOL0     H 9293   0.261   1.932   7.619  1.3696  2.8796 -1.2359
  810MOL0     H 9294   0.251   1.904   7.788  0.9557 -0.0920  0.7848
  810MOL0     H 9295   0.217   2.152   7.817  1.6602  0.3589 -1.1125
  810MOL0     H 9296   0.220   2.177   7.641 -1.7259  2.0911  0.4571
  810MOL0     H 9297   0.041   2.037   7.602 -1.5009  0.0516 -0.4683
  810MOL0     H 9298   0.035   1.970   7.762 -0.1571  0.1064 -0.8947
  810MOL0     H 9299  -0.008   2.263   7.751 -1.6434  1.5370 -1.3532
  810MOL0     H 9300  -0.068   2.147   7.873 -3.0198  0.9125 -0.9203
  810MOL0     H 9301  -0.256   1.960   7.765  2.7474  0.7765 -0.3572
  810MOL0     H 9302  -0.500   1.932   7.573 -1.1919 -0.2724  0.1945
  810MOL0     H 9303  -0.544   1.953   7.736 -1.6348 -0.1430 -0.5449
  810MOL0     H 9304  -0.713   2.039   7.547  0.7320 -2.3526  0.6209
  810MOL0     H 9305  -0.630   2.189   7.574  0.8270 -0.1555  0.9951
  810MOL0     H 9306  -0.817   2.205   7.697 -0.0785  1.3596  1.3293
  810MOL0     H 9307  -0.687   2.185   7.815  0.1970  0.4628 -0.1006
  810MOL0     H 9308  -0.737   1.927   7.802 -0.8509 -0.9261 -0.4193
  810MOL0     H 9309  -0.883   1.966   7.719  1.0669 -0.7736 -0.8866
  810MOL0     H 9310  -0.838   1.830   8.009 -0.6844 -0.2092  0.3786
  810MOL0     H 9311  -0.954   1.587   8.044 -2.8058 -2.2254  0.5726
  810MOL0     H 9312  -0.912   1.677   8.194 -0.5271 -2.6382  1.2474
  810MOL0     H 9313  -1.065   1.590   8.179  0.1327 -1.0342 -0.5295
  810MOL0     H 9314  -1.572   1.815   8.239 -1.8635  0.9700  0.2802
  810MOL0     H 9315  -1.793   1.735   8.289  0.6158 -1.2824  0.2910
  810MOL0     H 9316  -1.991   1.707   8.319  0.9052 -2.5024  0.4940
  810MOL0     H 9317  -2.008   1.808   8.170  0.3500  0.8348  0.7001
  810MOL0     H 9318  -2.213   1.759   8.290  0.5463  0.0685 -0.1491
  810MOL0     H 9319  -2.228   1.685   8.135  0.5740 -3.5367 -0.7214
  810MOL0     H 9320  -2.100   1.512   8.347  0.0582  1.8787  2.7589
  810MOL0     H 9321  -2.219   1.465   8.230 -1.2120  1.3175 -1.6504
  810MOL0     H 9322  -2.276   1.642   8.484  1.7893 -1.7888  1.9096
  810MOL0     H 9323  -2.394   1.603   8.364 -0.4948  1.8373  2.4227
  810MOL0     H 9324  -2.237   1.416   8.547  1.0066 -1.7257 -1.1813
  810MOL0     H 9325  -2.310   1.338   8.419  2.2015  0.0115  0.6503
  810MOL0     H 9326  -2.453   1.353   8.634 -3.4434 -0.8422 -2.0072
  810MOL0     H 9327  -2.447   1.530   8.620  0.7040  0.3453  0.6114
  810MOL0     H 9328  -2.581   1.327   8.449  2.3446  0.1796 -2.1266
  810MOL0     H 9329  -2.591   1.497   8.401 -3.9456 -1.0672  0.1267
  810MOL0     H 9330  -2.673   1.565   8.621  2.6784  0.0054 -1.0478
  810MOL0     H 9331  -2.684   1.393   8.663  2.7218 -1.2001 -0.1691
  810MOL0     H 9332  -1.829   1.565   7.905 -1.3162  0.7032  0.6499
  810MOL0     H 9333  -1.592   1.617   7.859 -0.7525  0.4847 -0.5505
  810MOL0     H 9334  -1.305   1.972   7.947 -0.5261 -0.1839 -1.2970
  810MOL0     H 9335  -1.122   2.115   7.892 -1.1556 -0.3173 -0.2697
  810MOL0     H 9336   0.996   1.751   7.731  0.5445 -0.0186  1.0783
  810MOL0     H 9337   1.170   1.585   7.706 -0.0206 -2.3583 -0.7109
  810MOL0     H 9338   1.296   1.070   7.989 -0.0367 -0.7048  0.1690
  810MOL0     H 9339   1.508   0.955   7.961 -3.5245 -2.2052  0.5038
  810MOL0     H 9340   1.732   0.956   7.949 -1.0272 -0.1532 -0.8326
  810MOL0     H 9341   1.662   0.817   7.883  0.2973  0.2210 -2.0226
  810MOL0     H 9342   1.943   0.928   7.831  0.3982  0.0461  2.8093
  810MOL0     H 9343   1.880   0.774   7.754  2.2535 -0.7144  0.0742
  810MOL0     H 9344   2.008   0.711   7.949  0.0585  1.3976  0.8584
  810MOL0     H 9345   1.832   0.706   8.002  1.7321 -3.6249  1.1054
  810MOL0     H 9346   1.966   0.784   8.174  0.3291 -0.3560  0.3420
  810MOL0     H 9347   1.880   0.936   8.116  1.3171  2.0655 -0.6811
  810MOL0     H 9348   2.283   1.011   8.104 -1.0547  2.2564 -0.7959
  810MOL0     H 9349   1.551   1.100   7.567  0.8085  0.9730 -0.2009
  810MOL0     H 9350   1.350   1.238   7.590 -0.9144  2.0689  1.3318
  811MOL0     O 9351   8.854   5.614   0.101 -0.5388 -0.6606  0.7424
  811MOL0     C 9352   8.892   5.691   0.187 -0.3601  0.1805  0.1933
  811MOL0     O 9353   8.809   5.779   0.253 -0.2335 -0.5368  0.1323
  811MOL0     C 9354   8.674   5.744   0.272 -0.0959 -0.4018 -0.9692
  811MOL0     C 9355   8.585   5.712   0.175  0.3574  0.1098  0.2328
  811MOL0     C 9356   8.453   5.666   0.205 -0.5734  0.3343  0.0515
  811MOL0     C 9357   8.416   5.653   0.338 -0.2702  0.5586  0.2128
  811MOL0     O 9358   8.299   5.613   0.385  0.9103  0.7962 -0.0214
  811MOL0     C 9359   8.246   5.503   0.300  0.5014 -0.7660 -1.3647
  811MOL0     C 9360   8.136   5.425   0.376  0.2787 -0.1880  0.8481
  811MOL0     C 9361   8.077   5.306   0.300  0.4636  0.2413  0.2844
  811MOL0     C 9362   8.199   5.204   0.268  0.0136 -0.6325  0.1292
  811MOL0     C 9363   8.163   5.063   0.212 -0.6471  0.6682 -0.2470
  811MOL0     C 9364   8.279   4.966   0.228 -0.6777 -0.1748 -0.1089
  811MOL0     C 9365   8.229   4.821   0.204 -0.6274  0.3342  0.0428
  811MOL0     C 9366   8.325   4.714   0.271  0.2095  0.4550 -0.2957
  811MOL0     N 9367   8.262   4.578   0.269  0.8021 -0.0237  0.6440
  811MOL0     C 9368   8.233   4.504   0.383 -0.8613  0.0613  0.1444
  811MOL0     C 9369   8.195   4.378   0.334  0.6996 -0.9820  0.1469
  811MOL0     C 9370   8.164   4.260   0.413  0.4904  0.0554  0.5276
  811MOL0     C 9371   8.011   4.240   0.429  0.1208 -0.3271  0.9327
  811MOL0     C 9372   7.951   4.170   0.300 -0.4883 -0.2082 -0.3386
  811MOL0     C 9373   7.799   4.162   0.292  0.2283 -0.3821  0.2164
  811MOL0     O 9374   7.753   4.188   0.159  0.7158 -0.4093 -0.8216
  811MOL0     C 9375   7.619   4.181   0.129  0.9514 -0.2002  1.1872
  811MOL0     C 9376   7.580   4.195   0.002 -0.0469  0.9645  0.3838
  811MOL0     C 9377   7.446   4.197  -0.038  0.2966 -0.2392 -0.6371
  811MOL0     C 9378   7.416   4.239  -0.176  0.6817 -0.4556  0.0938
  811MOL0     C 9379   7.345   4.150   0.047 -0.4242 -0.3433  0.3217
  811MOL0     C 9380   7.211   4.141  -0.008 -0.5642 -0.5893 -1.1708
  811MOL0     O 9381   7.105   4.193   0.067  0.0782 -0.0973  0.0845
  811MOL0     C 9382   6.980   4.180   0.014  1.1220  0.4212 -0.0354
  811MOL0     C 9383   6.895   4.074   0.046 -0.1580 -0.0961 -0.8681
  811MOL0     C 9384   6.750   4.083   0.027 -0.2518  0.0189  0.2297
  811MOL0     C 9385   6.704   4.194  -0.046  0.0466  0.3062  0.4181
  811MOL0     O 9386   6.573   4.199  -0.092 -0.4763 -0.1919 -0.3024
  811MOL0     C 9387   6.482   4.086  -0.068  0.7899 -0.0142  0.1718
  811MOL0     C 9388   6.336   4.124  -0.094 -0.1962  0.5355 -0.2804
  811MOL0     C 9389   6.245   4.004  -0.056  0.0534  0.8999 -0.0564
  811MOL0     C 9390   6.095   4.052  -0.072 -0.2056  0.0299  0.2307
  811MOL0     C 9391   6.002   3.933  -0.022  1.5928  0.5995  0.0516
  811MOL0     C 9392   5.858   3.944  -0.097 -0.8657  0.0613 -0.6051
  811MOL0     C 9393   5.750   3.909  -0.003  0.1424  0.0585  0.7752
  811MOL0     C 9394   5.621   3.973  -0.048 -0.1009 -0.1301  0.2586
  811MOL0    Cl 9395   5.588   3.944  -0.223  0.3612 -0.0377  0.3080
  811MOL0     C 9396   6.789   4.294  -0.091  0.2070  0.4415  0.0670
  811MOL0     C 9397   6.928   4.286  -0.056 -1.2465 -0.2291 -0.2051
  811MOL0     O 9398   7.203   4.073  -0.113  0.4852  0.2132 -0.0929
  811MOL0     C 9399   7.385   4.124   0.183  0.7497 -0.3187 -0.0652
  811MOL0     C 9400   7.518   4.144   0.224 -0.4336  0.0666  0.2932
  811MOL0     N 9401   8.222   4.382   0.197  0.1629  0.6428  0.3579
  811MOL0     N 9402   8.257   4.500   0.156 -0.4321 -0.1767 -0.1513
  811MOL0     C 9403   8.510   5.684   0.438 -1.0575 -1.0103 -0.1431
  811MOL0     C 9404   8.636   5.739   0.404 -0.2437 -0.5947 -0.2497
  811MOL0     C 9405   9.035   5.694   0.215  0.2923 -0.2381 -0.1822
  811MOL0     C 9406   9.078   5.777   0.321 -0.0516 -0.7131  0.3980
  811MOL0     C 9407   9.217   5.773   0.357  0.9249  0.9418  0.1012
  811MOL0     C 9408   9.305   5.690   0.289  1.6064  0.5716 -0.0180
  811MOL0     O 9409   9.440   5.692   0.328  0.7310  0.4202 -0.0373
  811MOL0     C 9410   9.535   5.625   0.249 -0.2426 -0.5065 -0.1840
  811MOL0     C 9411   9.675   5.646   0.307 -0.1969 -0.8680 -1.0131
  811MOL0     C 9412   9.700   5.781   0.385 -0.7471  0.0160  0.2946
  811MOL0     C 9413   9.846   5.779   0.441 -0.0275  0.6322  0.5706
  811MOL0     C 9414   9.953   5.777   0.342  0.8769  0.6802 -0.5320
  811MOL0     C 9415  10.034   5.774   0.253  0.7390  0.2027  0.3009
  811MOL0     C 9416   9.256   5.619   0.176 -0.8250 -0.5013  0.0342
  811MOL0     C 9417   9.124   5.609   0.147 -1.0886 -0.8359  0.4167
  811MOL0     H 9418   8.613   5.731   0.072 -0.5122  3.9205  0.5171
  811MOL0     H 9419   8.381   5.646   0.126  0.7301 -2.5221 -0.5810
  811MOL0     H 9420   8.208   5.530   0.201 -0.1896 -0.4831 -1.0281
  811MOL0     H 9421   8.329   5.433   0.281 -1.2105 -3.0776 -0.7411
  811MOL0     H 9422   8.180   5.385   0.468  0.8232 -2.0427 -0.1524
  811MOL0     H 9423   8.050   5.484   0.408  0.2649 -1.2088  2.8700
  811MOL0     H 9424   8.010   5.248   0.364  2.1811 -0.3065  1.6737
  811MOL0     H 9425   8.030   5.343   0.208  0.5873  1.0905  0.5582
  811MOL0     H 9426   8.264   5.262   0.201 -1.6394  2.5764  1.1057
  811MOL0     H 9427   8.261   5.188   0.356 -1.0870  0.4316  1.1223
  811MOL0     H 9428   8.088   5.041   0.288  2.2032 -2.3153  1.9557
  811MOL0     H 9429   8.122   5.069   0.111 -3.7784  3.0121  0.9833
  811MOL0     H 9430   8.365   4.986   0.164 -1.1300 -1.9092 -1.3254
  811MOL0     H 9431   8.319   4.975   0.330  1.3711 -4.2895 -0.3463
  811MOL0     H 9432   8.134   4.822   0.258 -1.1266  1.8690 -0.8082
  811MOL0     H 9433   8.207   4.796   0.100 -1.0243  0.1453  0.1723
  811MOL0     H 9434   8.334   4.747   0.374 -2.3942 -1.3429  0.6154
  811MOL0     H 9435   8.423   4.703   0.223 -0.8748 -1.5410 -2.2440
  811MOL0     H 9436   8.254   4.515   0.488 -2.0468 -2.1183  0.6715
  811MOL0     H 9437   8.202   4.173   0.358  2.7308  0.0366  1.9801
  811MOL0     H 9438   8.226   4.257   0.503 -0.6229 -3.3456  1.3532
  811MOL0     H 9439   7.957   4.335   0.438 -2.7636 -1.7651 -0.0178
  811MOL0     H 9440   8.001   4.179   0.519  0.7205 -1.6575  0.1303
  811MOL0     H 9441   7.990   4.068   0.288 -2.4703 -1.0442 -0.1989
  811MOL0     H 9442   7.982   4.231   0.216 -0.9430 -1.5087 -1.4931
  811MOL0     H 9443   7.758   4.238   0.360  2.2622 -0.1066  1.1919
  811MOL0     H 9444   7.771   4.060   0.322 -1.8177  0.0973  0.1118
  811MOL0     H 9445   7.661   4.216  -0.067  0.9133 -2.7916  0.1456
  811MOL0     H 9446   7.414   4.155  -0.247  0.5119  0.3067 -0.8289
  811MOL0     H 9447   7.317   4.284  -0.191  0.0818 -1.3243  1.3004
  811MOL0     H 9448   7.493   4.307  -0.212  0.0672 -0.2325 -0.8341
  811MOL0     H 9449   6.941   3.998   0.108  1.7793  2.1769  0.6581
  811MOL0     H 9450   6.683   4.006   0.065  1.1106 -1.2232  0.2200
  811MOL0     H 9451   6.502   3.993  -0.123  0.0599  0.3421 -0.7337
  811MOL0     H 9452   6.480   4.061   0.038 -1.4747 -0.6169  0.0460
  811MOL0     H 9453   6.307   4.212  -0.036  0.2053 -0.1089  0.9527
  811MOL0     H 9454   6.330   4.135  -0.202  1.1599 -0.4466 -0.4882
  811MOL0     H 9455   6.268   3.983   0.049  1.2253  0.5571 -0.3672
  811MOL0     H 9456   6.258   3.916  -0.120  1.9253  0.2265  1.1478
  811MOL0     H 9457   6.090   4.141  -0.008  1.4305  0.3670 -0.0471
  811MOL0     H 9458   6.072   4.087  -0.173 -1.3418  0.5990  0.6695
  811MOL0     H 9459   5.983   3.933   0.086 -1.3782 -0.8773 -0.3761
  811MOL0     H 9460   6.058   3.842  -0.048  3.2174  1.8634 -1.1225
  811MOL0     H 9461   5.838   4.048  -0.126 -1.8667 -0.5053 -2.0474
  811MOL0     H 9462   5.853   3.885  -0.189  0.7868  1.6922 -1.8426
  811MOL0     H 9463   5.771   3.949   0.097 -0.8368 -1.4414  1.6196
  811MOL0     H 9464   5.727   3.802  -0.001 -2.6444  0.5845  1.6237
  811MOL0     H 9465   5.626   4.082  -0.036  0.2024  0.3149 -3.0176
  811MOL0     H 9466   5.543   3.917   0.003  0.1019 -1.5100 -0.8828
  811MOL0     H 9467   6.759   4.372  -0.160  0.8921 -1.0812 -2.0455
  811MOL0     H 9468   6.995   4.360  -0.098 -0.2177 -1.5475 -0.9365
  811MOL0     H 9469   7.305   4.098   0.251 -0.6747 -0.1735 -1.6191
  811MOL0     H 9470   7.545   4.121   0.326  2.9678 -0.4192 -0.6088
  811MOL0     H 9471   8.479   5.675   0.541  1.6685  2.6088  1.2041
  811MOL0     H 9472   8.712   5.764   0.477 -0.6322  1.3940 -0.4713
  811MOL0     H 9473   9.009   5.834   0.381  1.7379 -0.0620  1.9169
  811MOL0     H 9474   9.248   5.832   0.443  0.2542  2.3508 -0.5866
  811MOL0     H 9475   9.509   5.519   0.246  0.5405 -0.7504  0.8875
  811MOL0     H 9476   9.532   5.672   0.151  0.4079  0.3818  0.2045
  811MOL0     H 9477   9.751   5.630   0.229  1.0084 -1.1168  0.1837
  811MOL0     H 9478   9.691   5.566   0.380  1.3904  1.4574  1.3550
  811MOL0     H 9479   9.636   5.799   0.471  1.2345  2.3905  1.4315
  811MOL0     H 9480   9.693   5.860   0.309  0.9745 -0.7343 -0.7058
  811MOL0     H 9481   9.859   5.689   0.501 -1.1543  0.1492  0.1138
  811MOL0     H 9482   9.852   5.865   0.508 -1.1134  1.2617 -0.1197
  811MOL0     H 9483  10.115   5.749   0.187  0.2482 -2.2744  0.5431
  811MOL0     H 9484   9.322   5.565   0.109 -1.7665 -0.5625 -0.8662
  811MOL0     H 9485   9.083   5.545   0.070 -2.6956  0.2847  0.2956
  812MOL0     O 9486   1.948   0.758   2.940 -0.1475  0.3408  0.2250
  812MOL0     C 9487   1.971   0.726   3.054 -0.1908  0.1283 -0.2251
  812MOL0     O 9488   1.881   0.655   3.138 -0.4936 -0.1371  0.0662
  812MOL0     C 9489   1.754   0.630   3.091 -0.3565  0.0864 -0.2932
  812MOL0     C 9490   1.663   0.735   3.058 -0.3792 -0.3694 -0.0276
  812MOL0     C 9491   1.542   0.703   3.005 -0.4890  0.0967  0.7151
  812MOL0     C 9492   1.494   0.575   2.996 -0.1786  0.1047 -0.3598
  812MOL0     O 9493   1.363   0.555   2.943  0.4945  0.2004 -0.6153
  812MOL0     C 9494   1.311   0.424   2.934  0.1188  0.7246  0.2043
  812MOL0     C 9495   1.164   0.458   2.904  0.5614 -0.4086  0.4197
  812MOL0     C 9496   1.073   0.332   2.903 -0.0765  0.5686  0.2033
  812MOL0     C 9497   0.928   0.372   2.911  0.8250  0.4609  1.0224
  812MOL0     C 9498   0.848   0.238   2.916  0.3361 -0.1492  0.4741
  812MOL0     C 9499   0.699   0.263   2.960  0.0461  0.4989  0.4902
  812MOL0     C 9500   0.627   0.130   2.975 -0.8787  0.3445  0.0213
  812MOL0     C 9501   0.496   0.153   3.055  0.1182  0.3790  0.1735
  812MOL0     N 9502   0.433   0.031   3.092 -0.5356  0.7334  0.4141
  812MOL0     C 9503   0.473  -0.043   3.200  0.0900 -0.1232 -0.5122
  812MOL0     C 9504   0.395  -0.153   3.192 -0.5834  0.4150  1.3806
  812MOL0     C 9505   0.386  -0.255   3.297  0.3222 -0.2088  0.0253
  812MOL0     C 9506   0.304  -0.191   3.408  0.4897  0.5174  0.3309
  812MOL0     C 9507   0.310  -0.281   3.536  0.1915 -0.1678  0.0879
  812MOL0     C 9508   0.218  -0.403   3.547  0.0217 -0.4831 -0.2603
  812MOL0     O 9509   0.085  -0.350   3.562 -0.2750  0.0761 -0.0361
  812MOL0     C 9510  -0.010  -0.428   3.500 -1.1868  0.4429  0.2547
  812MOL0     C 9511  -0.031  -0.420   3.364  0.2889 -0.2576  0.1830
  812MOL0     C 9512  -0.132  -0.488   3.291  0.5683 -0.8704  0.1932
  812MOL0     C 9513  -0.152  -0.469   3.149  0.3406  0.1547 -0.5671
  812MOL0     C 9514  -0.231  -0.572   3.360 -0.4652 -0.2820  0.2195
  812MOL0     C 9515  -0.366  -0.624   3.306  0.1447  0.4425 -0.1348
  812MOL0     O 9516  -0.436  -0.703   3.391  0.0527 -0.3509  1.0676
  812MOL0     C 9517  -0.562  -0.737   3.359  0.1348  0.9735 -0.0845
  812MOL0     C 9518  -0.669  -0.654   3.392  1.0305  0.3436  0.2660
  812MOL0     C 9519  -0.801  -0.697   3.366  0.5487 -0.1933  0.4870
  812MOL0     C 9520  -0.827  -0.815   3.296 -0.3833 -0.6211  0.4768
  812MOL0     O 9521  -0.960  -0.843   3.290 -0.2347  0.0809 -0.3272
  812MOL0     C 9522  -1.011  -0.923   3.184 -0.1696  1.1008 -0.1485
  812MOL0     C 9523  -1.162  -0.920   3.210 -0.0822 -0.1726 -0.2315
  812MOL0     C 9524  -1.239  -0.994   3.107  0.3996 -0.0817 -0.1826
  812MOL0     C 9525  -1.388  -0.998   3.154  0.0184 -0.0364 -0.3205
  812MOL0     C 9526  -1.459  -1.084   3.053  0.3632 -1.3199 -0.8523
  812MOL0     C 9527  -1.444  -1.229   3.095 -0.0111  0.0072  0.4446
  812MOL0     C 9528  -1.528  -1.338   3.017  0.4275 -0.3750  0.5031
  812MOL0     C 9529  -1.498  -1.342   2.871 -0.1943  0.4611  0.0480
  812MOL0    Cl 9530  -1.336  -1.409   2.851 -0.1166  0.3740  0.2179
  812MOL0     C 9531  -0.721  -0.885   3.246 -0.8003  0.5250 -0.0182
  812MOL0     C 9532  -0.588  -0.853   3.276  0.0968 -0.0519  0.3366
  812MOL0     O 9533  -0.416  -0.578   3.205 -0.4333  0.3094  1.0294
  812MOL0     C 9534  -0.210  -0.569   3.506 -0.2483 -0.5392 -0.3784
  812MOL0     C 9535  -0.098  -0.504   3.565  0.7775 -0.6799  0.3058
  812MOL0     N 9536   0.304  -0.134   3.088 -0.7071 -0.3747  0.0838
  812MOL0     N 9537   0.345  -0.037   3.019 -0.4816 -0.2841  0.1556
  812MOL0     C 9538   1.582   0.470   3.031 -0.0248  0.0884  0.7370
  812MOL0     C 9539   1.709   0.500   3.081 -0.2642  0.4072 -0.4749
  812MOL0     C 9540   2.108   0.746   3.115  0.0003 -0.2616  0.2521
  812MOL0     C 9541   2.214   0.823   3.062  0.6324  0.0617 -0.3168
  812MOL0     C 9542   2.337   0.828   3.127 -0.1874  0.3118  0.3958
  812MOL0     C 9543   2.358   0.762   3.243  0.2456 -0.1932 -0.9606
  812MOL0     O 9544   2.484   0.760   3.286  0.5875 -0.6338 -0.3638
  812MOL0     C 9545   2.528   0.645   3.361 -0.4988  1.1065 -0.1999
  812MOL0     C 9546   2.680   0.628   3.381  1.3992  0.7439  0.1462
  812MOL0     C 9547   2.746   0.756   3.443  0.7187 -0.6738  0.5680
  812MOL0     C 9548   2.892   0.748   3.436  0.0963  0.5514 -0.2215
  812MOL0     C 9549   2.966   0.645   3.516  0.8324 -0.1591 -0.1978
  812MOL0     C 9550   3.030   0.583   3.599 -0.2523 -0.0811  0.5377
  812MOL0     C 9551   2.252   0.694   3.310  0.3361 -0.0472 -0.0973
  812MOL0     C 9552   2.132   0.693   3.244 -0.7545  0.7947  0.0780
  812MOL0     H 9553   1.686   0.835   3.093 -0.4010 -1.3436  3.0096
  812MOL0     H 9554   1.471   0.784   2.988 -1.5407 -0.1628  3.3645
  812MOL0     H 9555   1.358   0.374   2.848 -1.9214 -2.1423  0.6005
  812MOL0     H 9556   1.329   0.362   3.022  1.0286  0.6442 -0.0341
  812MOL0     H 9557   1.128   0.525   2.982 -2.3987 -0.2502 -0.9689
  812MOL0     H 9558   1.154   0.514   2.810 -2.0673  1.2125  1.5721
  812MOL0     H 9559   1.090   0.281   2.808  0.5389 -0.0547  0.6394
  812MOL0     H 9560   1.103   0.263   2.983 -2.7246  1.0968  1.8042
  812MOL0     H 9561   0.915   0.427   3.005 -0.0105  0.1752  1.0877
  812MOL0     H 9562   0.896   0.440   2.832  2.1936 -0.9627 -0.8333
  812MOL0     H 9563   0.850   0.192   2.816 -1.6184  1.9607 -0.6237
  812MOL0     H 9564   0.887   0.170   2.993 -1.0091 -1.3270  0.1530
  812MOL0     H 9565   0.677   0.325   3.047 -0.3490  1.7957 -0.5067
  812MOL0     H 9566   0.652   0.308   2.872  0.4240  0.9411  0.5080
  812MOL0     H 9567   0.608   0.080   2.880 -1.2652  2.1031 -0.8754
  812MOL0     H 9568   0.696   0.068   3.034 -0.1777  1.6149  0.5789
  812MOL0     H 9569   0.426   0.217   3.001  1.2944 -0.0596 -1.9679
  812MOL0     H 9570   0.531   0.207   3.144  1.8586 -0.5711  0.1101
  812MOL0     H 9571   0.547  -0.017   3.274  2.9726 -2.9070 -2.1296
  812MOL0     H 9572   0.344  -0.346   3.253 -0.3143 -1.0130  2.2061
  812MOL0     H 9573   0.490  -0.271   3.326  1.1077  3.6317 -0.0878
  812MOL0     H 9574   0.201  -0.181   3.372  0.6242  0.3784 -0.0940
  812MOL0     H 9575   0.349  -0.094   3.428 -1.3317  1.3431  0.6442
  812MOL0     H 9576   0.296  -0.214   3.621  1.3013 -0.0616  0.1971
  812MOL0     H 9577   0.412  -0.313   3.556  0.5558  1.5925  1.2704
  812MOL0     H 9578   0.244  -0.462   3.635  0.7716  1.0437  0.5705
  812MOL0     H 9579   0.232  -0.473   3.464 -1.2449 -1.8581  0.6492
  812MOL0     H 9580   0.041  -0.363   3.307  0.3651  2.5350  2.8472
  812MOL0     H 9581  -0.159  -0.570   3.107  1.1074 -0.5080  0.8240
  812MOL0     H 9582  -0.232  -0.395   3.138  0.9716  1.6623  3.3487
  812MOL0     H 9583  -0.067  -0.421   3.101 -0.9774 -0.6148 -3.9291
  812MOL0     H 9584  -0.667  -0.566   3.455  1.0237  0.5966 -0.0826
  812MOL0     H 9585  -0.882  -0.633   3.398  0.5518  0.1380 -0.1656
  812MOL0     H 9586  -0.998  -0.884   3.082 -3.3538  1.4959 -0.5116
  812MOL0     H 9587  -0.960  -1.019   3.198 -1.1552  0.9016  2.4607
  812MOL0     H 9588  -1.179  -0.966   3.308  0.9972  0.4757  0.2780
  812MOL0     H 9589  -1.203  -0.819   3.214  0.9598  0.2327  0.8655
  812MOL0     H 9590  -1.191  -1.092   3.103  3.1988  1.1974 -0.2583
  812MOL0     H 9591  -1.236  -0.941   3.011 -0.4116 -0.2787 -0.3234
  812MOL0     H 9592  -1.395  -1.024   3.260  2.6655  2.4828  0.6151
  812MOL0     H 9593  -1.423  -0.894   3.156  1.8609  0.6809 -2.1781
  812MOL0     H 9594  -1.417  -1.066   2.954 -2.1805  0.0126 -1.7643
  812MOL0     H 9595  -1.564  -1.054   3.061  0.4592 -0.9783 -0.8315
  812MOL0     H 9596  -1.341  -1.262   3.078 -0.1134 -0.0529 -0.0779
  812MOL0     H 9597  -1.468  -1.233   3.201 -0.3627 -2.0491  0.3232
  812MOL0     H 9598  -1.634  -1.310   3.025 -0.0240 -0.5793 -2.9936
  812MOL0     H 9599  -1.512  -1.439   3.054  0.8145 -1.0665 -1.4259
  812MOL0     H 9600  -1.518  -1.239   2.839 -0.9949 -0.2214 -1.8227
  812MOL0     H 9601  -1.567  -1.409   2.819 -1.1595  0.9507  0.6643
  812MOL0     H 9602  -0.743  -0.980   3.197 -1.7324  0.2232  0.9676
  812MOL0     H 9603  -0.513  -0.916   3.230 -2.1747 -1.1076 -2.1665
  812MOL0     H 9604  -0.283  -0.609   3.576 -1.4574  1.0296 -0.6694
  812MOL0     H 9605  -0.076  -0.525   3.669  0.0762 -0.0834  0.5900
  812MOL0     H 9606   1.542   0.369   3.023 -1.7025  0.7872 -0.2792
  812MOL0     H 9607   1.768   0.411   3.103 -1.2011  0.3462  2.1731
  812MOL0     H 9608   2.196   0.878   2.970 -0.8662  0.2309  0.0489
  812MOL0     H 9609   2.423   0.881   3.085 -0.0320 -1.6641 -1.9930
  812MOL0     H 9610   2.487   0.648   3.462  1.2600 -0.4862  0.6120
  812MOL0     H 9611   2.500   0.550   3.315  4.1170  0.4083 -2.0973
  812MOL0     H 9612   2.724   0.608   3.283 -0.6342 -2.9050 -0.2175
  812MOL0     H 9613   2.696   0.541   3.445  0.3029 -1.0520 -1.8997
  812MOL0     H 9614   2.708   0.785   3.542  0.3211 -0.8557  0.4712
  812MOL0     H 9615   2.727   0.838   3.373  0.7839  2.3578  3.7591
  812MOL0     H 9616   2.933   0.848   3.456 -1.5823  1.3033 -0.3876
  812MOL0     H 9617   2.911   0.736   3.329 -0.3464 -0.8261 -0.1596
  812MOL0     H 9618   3.088   0.541   3.679  1.4377  2.5436  0.8245
  812MOL0     H 9619   2.260   0.651   3.409 -1.5975  2.8564  1.4620
  812MOL0     H 9620   2.060   0.637   3.304 -0.4088 -2.1258 -2.0285
  813MOL0     O 9621   3.494   3.322   7.771  0.7526 -0.5516 -0.2131
  813MOL0     C 9622   3.402   3.308   7.689  0.0154  0.6460  0.0141
  813MOL0     O 9623   3.411   3.265   7.559 -0.4934  0.3989  0.0520
  813MOL0     C 9624   3.530   3.260   7.495  0.0959 -0.1568  0.0302
  813MOL0     C 9625   3.533   3.284   7.357 -0.0157  0.5180  0.1741
  813MOL0     C 9626   3.650   3.273   7.282  0.0836  0.4071 -0.2952
  813MOL0     C 9627   3.771   3.238   7.346  0.1189  0.1171 -0.9044
  813MOL0     O 9628   3.888   3.221   7.270 -0.2303  0.0306  0.6852
  813MOL0     C 9629   4.007   3.167   7.321 -0.6704  0.1912  0.4203
  813MOL0     C 9630   4.120   3.187   7.215 -0.5295 -0.4339  0.2535
  813MOL0     C 9631   4.109   3.103   7.092  0.8794 -0.4929  0.5665
  813MOL0     C 9632   4.230   3.125   6.998  0.4579  0.2209 -0.3799
  813MOL0     C 9633   4.224   3.009   6.898 -0.3076 -0.4083  0.7578
  813MOL0     C 9634   4.358   2.998   6.833 -0.0069 -0.2056  0.1737
  813MOL0     C 9635   4.350   2.892   6.731  0.1397  0.4780  1.0626
  813MOL0     C 9636   4.469   2.895   6.635  0.3404 -0.0980 -0.2654
  813MOL0     N 9637   4.597   2.843   6.699 -0.1524 -0.4228 -0.0729
  813MOL0     C 9638   4.623   2.720   6.751 -1.0448  0.2053 -0.0646
  813MOL0     C 9639   4.737   2.733   6.815  0.8251  0.1773  0.4736
  813MOL0     C 9640   4.817   2.644   6.897 -0.7295  0.8752 -0.3025
  813MOL0     C 9641   4.799   2.493   6.867 -0.9603 -0.0029 -0.5299
  813MOL0     C 9642   4.835   2.458   6.726  0.0182 -0.3798  0.4173
  813MOL0     C 9643   4.806   2.305   6.702  0.1917 -0.6509 -0.1144
  813MOL0     O 9644   4.677   2.253   6.709  0.3102 -0.2096  0.2529
  813MOL0     C 9645   4.565   2.317   6.653  0.1026  0.6439 -0.7790
  813MOL0     C 9646   4.443   2.281   6.713  0.1127  0.1368  0.6484
  813MOL0     C 9647   4.325   2.334   6.682  0.2559 -0.5166  0.7700
  813MOL0     C 9648   4.209   2.283   6.765  0.3616  0.1487 -0.7037
  813MOL0     C 9649   4.315   2.416   6.568 -0.3879 -0.0489 -0.3419
  813MOL0     C 9650   4.186   2.475   6.514  0.1424  0.4502  0.1896
  813MOL0     O 9651   4.210   2.582   6.436  0.2379 -0.0181  0.3604
  813MOL0     C 9652   4.106   2.647   6.377 -0.5870  0.2763  0.0174
  813MOL0     C 9653   4.068   2.777   6.420  0.6920 -0.4134 -0.8050
  813MOL0     C 9654   3.952   2.833   6.369 -0.1740 -0.2350  0.0768
  813MOL0     C 9655   3.885   2.774   6.261  0.3144  0.1793 -0.9372
  813MOL0     O 9656   3.766   2.823   6.217  0.5663 -0.7233 -0.2550
  813MOL0     C 9657   3.657   2.737   6.201  0.6715 -0.4776 -0.5210
  813MOL0     C 9658   3.536   2.832   6.214 -0.5091  0.1522  0.7093
  813MOL0     C 9659   3.414   2.750   6.171 -0.5286 -0.3444  0.3686
  813MOL0     C 9660   3.292   2.821   6.218  0.5253 -0.3071  0.4827
  813MOL0     C 9661   3.166   2.754   6.157  0.3121 -0.3844 -0.3062
  813MOL0     C 9662   3.146   2.614   6.210  0.0423  0.3790 -0.3519
  813MOL0     C 9663   3.000   2.576   6.200 -0.6510 -0.2841 -0.3991
  813MOL0     C 9664   2.970   2.454   6.272  0.3725  0.7127  0.0984
  813MOL0    Cl 9665   2.819   2.384   6.218 -0.3482  0.1911  0.1133
  813MOL0     C 9666   3.931   2.657   6.203 -0.2673 -0.1833  0.0323
  813MOL0     C 9667   4.047   2.591   6.257  0.1217 -0.3333 -0.0854
  813MOL0     O 9668   4.074   2.423   6.537  0.0427  0.0710 -0.3877
  813MOL0     C 9669   4.445   2.451   6.506 -0.4104  0.2397  0.9841
  813MOL0     C 9670   4.562   2.397   6.545 -0.0074 -0.6045 -0.1846
  813MOL0     N 9671   4.774   2.862   6.810 -0.1371  0.1342  0.1336
  813MOL0     N 9672   4.706   2.921   6.725  0.9607  0.2838 -0.7861
  813MOL0     C 9673   3.770   3.203   7.487 -0.4474  0.4492 -0.1758
  813MOL0     C 9674   3.649   3.208   7.553  0.4163  0.0070 -0.3040
  813MOL0     C 9675   3.270   3.359   7.731  0.5716  1.1275 -0.0889
  813MOL0     C 9676   3.249   3.428   7.857  0.1980  1.1509  0.1232
  813MOL0     C 9677   3.119   3.447   7.909 -0.5159 -0.8377  1.5289
  813MOL0     C 9678   3.015   3.414   7.831  0.2639  0.9022 -0.7180
  813MOL0     O 9679   2.892   3.432   7.903  0.2987  0.9930  0.2595
  813MOL0     C 9680   2.767   3.441   7.823  0.0808 -0.3859  0.1221
  813MOL0     C 9681   2.783   3.582   7.756  1.0710  0.8580  1.3552
  813MOL0     C 9682   2.786   3.710   7.849  0.6793 -0.7390 -0.3195
  813MOL0     C 9683   2.926   3.726   7.921 -0.2551 -0.0503  0.2635
  813MOL0     C 9684   2.939   3.872   7.946  0.3436  0.5646 -0.1810
  813MOL0     C 9685   2.936   3.994   7.968  0.3970 -0.2181 -0.6664
  813MOL0     C 9686   3.033   3.358   7.700  0.3492 -0.0899 -0.2326
  813MOL0     C 9687   3.159   3.330   7.653 -0.5663  0.7254 -0.1543
  813MOL0     H 9688   3.438   3.300   7.307  0.3061 -1.9621 -1.3949
  813MOL0     H 9689   3.629   3.292   7.178 -1.8733  0.7912  0.1234
  813MOL0     H 9690   4.039   3.220   7.412  3.0925 -1.1588  0.0620
  813MOL0     H 9691   3.990   3.063   7.352 -0.0722  0.5973  2.2163
  813MOL0     H 9692   4.124   3.295   7.202  3.2074 -0.5147 -0.4963
  813MOL0     H 9693   4.218   3.164   7.259  0.3079  2.1849 -0.1024
  813MOL0     H 9694   4.108   2.999   7.127  2.8307 -0.0103  2.2126
  813MOL0     H 9695   4.029   3.142   7.028  2.0964  2.2306  0.5695
  813MOL0     H 9696   4.218   3.227   6.959 -1.0980  0.5351  0.8045
  813MOL0     H 9697   4.322   3.123   7.056  0.5529 -1.8888 -0.5492
  813MOL0     H 9698   4.201   2.912   6.942  1.4164 -3.1673 -3.6603
  813MOL0     H 9699   4.146   3.024   6.822  2.0247  1.0406 -1.5361
  813MOL0     H 9700   4.398   3.086   6.783 -0.2326  0.2564  0.7800
  813MOL0     H 9701   4.422   2.962   6.914 -0.8652 -1.5713  0.2811
  813MOL0     H 9702   4.351   2.796   6.782  1.4992  0.8118  1.7220
  813MOL0     H 9703   4.269   2.909   6.660  0.4803 -1.8342  0.0503
  813MOL0     H 9704   4.467   2.999   6.603 -2.7866  0.0520  0.1247
  813MOL0     H 9705   4.459   2.832   6.546  0.5401 -0.5444  0.0235
  813MOL0     H 9706   4.560   2.632   6.740 -1.3750  0.6686 -2.4659
  813MOL0     H 9707   4.923   2.668   6.889 -0.8752  0.9775 -2.8315
  813MOL0     H 9708   4.785   2.652   7.001  2.9636 -2.2648  1.3071
  813MOL0     H 9709   4.694   2.468   6.884 -0.4115 -1.2367  1.2458
  813MOL0     H 9710   4.860   2.447   6.945  0.3921  0.4906 -1.2706
  813MOL0     H 9711   4.943   2.471   6.709 -0.2852 -0.6975 -2.1051
  813MOL0     H 9712   4.788   2.515   6.646 -3.7310 -2.3317  1.0018
  813MOL0     H 9713   4.869   2.253   6.775  2.1713  0.1537 -1.1770
  813MOL0     H 9714   4.843   2.271   6.605 -0.5229 -1.5519 -0.0856
  813MOL0     H 9715   4.457   2.229   6.807  2.2610  0.0039  0.3045
  813MOL0     H 9716   4.174   2.365   6.830 -1.5044 -1.9852  1.1517
  813MOL0     H 9717   4.120   2.242   6.716  0.1219 -1.7232  1.1792
  813MOL0     H 9718   4.239   2.209   6.839  1.2036  3.2881  2.3769
  813MOL0     H 9719   4.120   2.820   6.505  0.8631 -0.5147 -0.8570
  813MOL0     H 9720   3.930   2.928   6.417  1.6061  0.1073  0.2668
  813MOL0     H 9721   3.664   2.689   6.103  3.3083  2.5857 -2.0264
  813MOL0     H 9722   3.663   2.661   6.280 -0.9895 -0.7417 -0.6120
  813MOL0     H 9723   3.531   2.872   6.315 -0.7504  0.5181  0.5555
  813MOL0     H 9724   3.560   2.912   6.143 -2.5779  0.2053 -0.0037
  813MOL0     H 9725   3.418   2.652   6.219  1.0786  0.0959  1.2067
  813MOL0     H 9726   3.422   2.760   6.062  1.0067  2.6591  0.6483
  813MOL0     H 9727   3.296   2.817   6.327 -0.2006  0.4372  0.5420
  813MOL0     H 9728   3.294   2.923   6.178  1.9314 -0.8325 -0.9027
  813MOL0     H 9729   3.161   2.759   6.048 -0.9051 -2.7686 -0.4024
  813MOL0     H 9730   3.079   2.813   6.188  0.6441 -0.9308  1.8480
  813MOL0     H 9731   3.211   2.547   6.154 -0.4257 -0.0300 -0.4117
  813MOL0     H 9732   3.167   2.612   6.318 -0.6461  1.2206 -0.1937
  813MOL0     H 9733   2.975   2.562   6.095 -1.6176 -2.5684  0.0742
  813MOL0     H 9734   2.949   2.659   6.250  2.6996  1.3625  0.5950
  813MOL0     H 9735   2.972   2.473   6.380 -1.2822 -1.6270  0.6434
  813MOL0     H 9736   3.042   2.377   6.245 -0.4334  0.3123 -0.9921
  813MOL0     H 9737   3.876   2.616   6.120  1.1656 -1.6134 -0.2684
  813MOL0     H 9738   4.096   2.506   6.212 -0.0204 -0.0005 -0.8868
  813MOL0     H 9739   4.447   2.531   6.432  2.7918  1.0254  1.7849
  813MOL0     H 9740   4.657   2.424   6.501 -0.4785  0.0467 -0.8237
  813MOL0     H 9741   3.848   3.161   7.549 -2.1688 -1.6790  0.6761
  813MOL0     H 9742   3.638   3.180   7.658  0.4134  0.7315 -0.1048
  813MOL0     H 9743   3.335   3.462   7.914  0.0448 -3.8976  4.0273
  813MOL0     H 9744   3.104   3.499   8.003  0.6371  2.1279  0.2210
  813MOL0     H 9745   2.765   3.356   7.754  2.8370  0.0720 -0.6538
  813MOL0     H 9746   2.684   3.439   7.894  0.9291 -3.5403  1.2230
  813MOL0     H 9747   2.690   3.594   7.700  2.5122  0.8416 -1.1539
  813MOL0     H 9748   2.864   3.581   7.683 -2.2580 -0.4925 -2.7444
  813MOL0     H 9749   2.707   3.717   7.924 -1.6511  0.7011 -2.7497
  813MOL0     H 9750   2.765   3.797   7.786  1.8930  0.1788  0.5013
  813MOL0     H 9751   3.001   3.692   7.849 -1.8711 -2.1791 -0.5094
  813MOL0     H 9752   2.932   3.668   8.013 -0.7774  1.0577  1.0184
  813MOL0     H 9753   2.949   4.094   8.005  0.5246 -0.2214 -0.7009
  813MOL0     H 9754   2.948   3.313   7.650  0.0631  0.2435 -0.0580
  813MOL0     H 9755   3.168   3.270   7.562 -1.2973 -1.7944  1.3253
  814MOL0     O 9756   6.858   2.693   3.134 -0.0460  0.1653  0.8752
  814MOL0     C 9757   6.900   2.776   3.054 -0.1001 -0.5430  0.1381
  814MOL0     O 9758   6.824   2.837   2.956 -0.2080  0.3945  0.2205
  814MOL0     C 9759   6.687   2.836   2.981  0.5318  0.5955  0.7923
  814MOL0     C 9760   6.631   2.896   3.091  0.3217 -1.1764  0.2174
  814MOL0     C 9761   6.488   2.888   3.104  0.6734 -0.2791  0.5808
  814MOL0     C 9762   6.411   2.837   3.003 -1.5637  0.0274  0.5880
  814MOL0     O 9763   6.276   2.847   3.027  0.1195 -0.2065  0.2587
  814MOL0     C 9764   6.191   2.855   2.915  0.5586 -0.8056  0.4524
  814MOL0     C 9765   6.056   2.903   2.968 -0.3994 -0.0169 -1.1137
  814MOL0     C 9766   5.946   2.868   2.864  0.0880  0.5128 -0.6948
  814MOL0     C 9767   5.830   2.962   2.908  0.8735  0.2403 -0.4138
  814MOL0     C 9768   5.706   2.948   2.815 -0.9287  0.1691 -0.0910
  814MOL0     C 9769   5.637   2.807   2.831 -0.3205 -0.2108  0.2257
  814MOL0     C 9770   5.510   2.784   2.747  0.5197  0.4546 -0.0985
  814MOL0     C 9771   5.532   2.776   2.597  0.2244  0.1479  0.1962
  814MOL0     N 9772   5.415   2.723   2.529  0.7128  0.4712 -0.0957
  814MOL0     C 9773   5.301   2.799   2.509  0.2112 -0.4961  0.3922
  814MOL0     C 9774   5.207   2.713   2.459 -0.9801  0.1818  0.0171
  814MOL0     C 9775   5.066   2.746   2.428  0.1093 -0.2685  0.8765
  814MOL0     C 9776   4.958   2.666   2.508  0.9050  0.0429 -0.9268
  814MOL0     C 9777   4.815   2.707   2.469  0.2887  0.2774  0.4105
  814MOL0     C 9778   4.713   2.626   2.542 -0.2711  0.0818  0.0007
  814MOL0     O 9779   4.583   2.629   2.482  0.6067  0.3739 -0.2252
  814MOL0     C 9780   4.479   2.607   2.569 -1.4453  0.6036  0.8493
  814MOL0     C 9781   4.494   2.519   2.675  0.3951  0.3231 -0.4232
  814MOL0     C 9782   4.382   2.492   2.765 -0.0839  0.0969  0.2851
  814MOL0     C 9783   4.412   2.383   2.869 -0.7283 -0.1405 -0.5962
  814MOL0     C 9784   4.258   2.553   2.745 -0.8074  0.1270  0.2955
  814MOL0     C 9785   4.125   2.507   2.814 -0.8372 -0.4925 -0.2765
  814MOL0     O 9786   4.022   2.578   2.775  0.9284 -0.5024 -0.5616
  814MOL0     C 9787   3.902   2.540   2.835  0.5087  0.1714  0.9553
  814MOL0     C 9788   3.809   2.463   2.749 -0.2936 -0.7022  0.7898
  814MOL0     C 9789   3.693   2.418   2.804  0.6570  0.3760  0.3915
  814MOL0     C 9790   3.660   2.441   2.942  0.4602  0.0923 -0.4614
  814MOL0     O 9791   3.546   2.389   3.008  0.3401  0.2499  0.4688
  814MOL0     C 9792   3.420   2.396   2.932 -0.1417 -0.5859 -0.4170
  814MOL0     C 9793   3.340   2.533   2.929  0.1218  1.1234  0.3083
  814MOL0     C 9794   3.417   2.653   2.872 -0.2698  0.1944  0.3183
  814MOL0     C 9795   3.338   2.784   2.882  0.1564 -0.6371  0.0115
  814MOL0     C 9796   3.415   2.915   2.821  0.1229  0.3885  0.0227
  814MOL0     C 9797   3.552   2.956   2.887 -0.4050 -0.7530  0.2713
  814MOL0     C 9798   3.533   2.989   3.035 -0.5803  0.4047  0.0856
  814MOL0     C 9799   3.666   3.036   3.082 -0.8854 -0.7318 -0.5907
  814MOL0    Cl 9800   3.655   3.078   3.259 -0.7556 -0.0826 -0.4423
  814MOL0     C 9801   3.753   2.508   3.021  0.6736  0.1121 -0.6031
  814MOL0     C 9802   3.873   2.552   2.970  0.3913 -0.6865 -0.0734
  814MOL0     O 9803   4.131   2.423   2.907 -0.7137 -0.2353  0.3305
  814MOL0     C 9804   4.256   2.647   2.641  0.8780  0.2568 -0.4565
  814MOL0     C 9805   4.359   2.662   2.551 -0.1869 -0.6989  0.6561
  814MOL0     N 9806   5.268   2.591   2.440  0.1248 -0.7304 -0.1003
  814MOL0     N 9807   5.393   2.601   2.477 -0.2865  0.4626  0.0717
  814MOL0     C 9808   6.475   2.772   2.890 -0.2508 -0.6877 -0.2120
  814MOL0     C 9809   6.610   2.768   2.881 -0.7402 -0.5571 -0.3880
  814MOL0     C 9810   7.047   2.805   3.045 -0.0478  0.4513 -0.3936
  814MOL0     C 9811   7.089   2.881   2.930 -0.0274 -0.7868 -0.5374
  814MOL0     C 9812   7.225   2.897   2.916 -0.1362 -0.4341  0.0119
  814MOL0     C 9813   7.317   2.843   3.003 -0.3871  0.2970 -0.1381
  814MOL0     O 9814   7.451   2.861   2.994 -0.6649  0.0549  0.2268
  814MOL0     C 9815   7.519   2.941   2.893 -0.7018 -0.1681 -0.1043
  814MOL0     C 9816   7.670   2.945   2.927 -0.7465 -0.1259 -0.4511
  814MOL0     C 9817   7.754   2.851   2.835 -0.1408 -0.1580 -0.2240
  814MOL0     C 9818   7.906   2.841   2.874 -0.0081 -0.5415  0.8829
  814MOL0     C 9819   7.969   2.968   2.840  0.7454 -0.3645  0.1018
  814MOL0     C 9820   8.003   3.084   2.804 -0.0156  0.4774  0.2737
  814MOL0     C 9821   7.270   2.774   3.113  0.0801  0.8082  1.0992
  814MOL0     C 9822   7.136   2.751   3.128  1.0557 -0.0790 -0.5855
  814MOL0     H 9823   6.683   2.943   3.174  2.1596 -2.8410  0.0907
  814MOL0     H 9824   6.440   2.942   3.185 -0.6510  2.4849 -1.8360
  814MOL0     H 9825   6.246   2.917   2.843 -0.8221  1.4327  1.2468
  814MOL0     H 9826   6.176   2.760   2.863  2.0918  0.6048 -2.8926
  814MOL0     H 9827   6.026   2.853   3.061 -0.6959  2.0832 -0.0168
  814MOL0     H 9828   6.070   3.010   2.982 -0.0663  0.0659 -1.9977
  814MOL0     H 9829   5.982   2.897   2.765 -1.8278 -1.2244 -1.9858
  814MOL0     H 9830   5.933   2.760   2.868  1.4190  0.3809  1.0018
  814MOL0     H 9831   5.802   2.935   3.010 -0.0253 -0.2835 -0.7830
  814MOL0     H 9832   5.869   3.064   2.908  1.6144 -0.0186  0.9426
  814MOL0     H 9833   5.643   3.032   2.846  0.3663  1.0689  0.1292
  814MOL0     H 9834   5.736   2.965   2.712 -2.7318 -1.1113 -0.8855
  814MOL0     H 9835   5.701   2.722   2.808  0.7992 -0.4360  3.6519
  814MOL0     H 9836   5.619   2.795   2.938 -3.7347  0.6248 -0.1269
  814MOL0     H 9837   5.469   2.685   2.769  1.3035 -0.5283 -2.6824
  814MOL0     H 9838   5.453   2.875   2.767  1.0128  1.2550 -2.1676
  814MOL0     H 9839   5.617   2.707   2.585 -0.5027 -1.0279  1.5688
  814MOL0     H 9840   5.572   2.866   2.548  2.2053  0.1026  1.5685
  814MOL0     H 9841   5.288   2.905   2.522  0.7777 -0.4892  0.9229
  814MOL0     H 9842   5.051   2.854   2.437 -1.9529 -0.4339 -0.0192
  814MOL0     H 9843   5.063   2.728   2.320  1.6055  1.4106  0.4932
  814MOL0     H 9844   4.979   2.700   2.610  0.3698  0.3405 -0.9128
  814MOL0     H 9845   4.972   2.559   2.492 -1.9396 -0.1312 -3.0458
  814MOL0     H 9846   4.797   2.704   2.361  1.5881 -0.4080  0.1835
  814MOL0     H 9847   4.810   2.811   2.503 -0.4472  1.3501 -2.6433
  814MOL0     H 9848   4.705   2.670   2.641 -0.4780 -1.5894  0.7705
  814MOL0     H 9849   4.755   2.527   2.561  0.7091  0.4900 -0.0027
  814MOL0     H 9850   4.588   2.466   2.680  2.3146  3.3824 -1.2181
  814MOL0     H 9851   4.331   2.310   2.878 -0.7889  0.0647  0.8134
  814MOL0     H 9852   4.512   2.342   2.858 -0.8456  0.1541 -4.0035
  814MOL0     H 9853   4.420   2.439   2.963  3.1151 -2.3853  0.6399
  814MOL0     H 9854   3.826   2.454   2.642  0.1426  1.4706  0.6223
  814MOL0     H 9855   3.620   2.372   2.738  1.8701 -0.4181 -0.4462
  814MOL0     H 9856   3.416   2.350   2.833 -2.0968 -2.4158  0.4303
  814MOL0     H 9857   3.345   2.339   2.987  0.1329 -1.9488 -1.3912
  814MOL0     H 9858   3.249   2.503   2.876 -0.3773  1.1847  1.1178
  814MOL0     H 9859   3.312   2.547   3.034  0.4957 -4.2833  1.4049
  814MOL0     H 9860   3.446   2.641   2.767  0.1712 -1.1944  0.5832
  814MOL0     H 9861   3.505   2.663   2.936  0.8138  0.4974 -1.1608
  814MOL0     H 9862   3.240   2.767   2.838  0.9513 -1.2592 -1.5949
  814MOL0     H 9863   3.320   2.811   2.986 -0.4659  0.8552 -0.4560
  814MOL0     H 9864   3.351   3.002   2.838 -0.5653 -0.2235  0.6594
  814MOL0     H 9865   3.428   2.902   2.714  2.6029  0.8987  0.1984
  814MOL0     H 9866   3.626   2.875   2.883 -1.0736 -1.4560  1.6183
  814MOL0     H 9867   3.588   3.044   2.833  2.7925 -1.9151  0.3054
  814MOL0     H 9868   3.501   2.895   3.082 -3.5291  0.1686 -2.0686
  814MOL0     H 9869   3.457   3.062   3.066 -1.2894 -0.5935  0.7801
  814MOL0     H 9870   3.716   3.115   3.026  2.7337 -1.8050  0.8260
  814MOL0     H 9871   3.737   2.953   3.069  0.2066  0.1141 -0.1553
  814MOL0     H 9872   3.737   2.520   3.127  0.8351 -0.4269 -0.5141
  814MOL0     H 9873   3.943   2.599   3.038 -0.7600 -0.1914  0.8132
  814MOL0     H 9874   4.163   2.691   2.606 -0.7665 -1.8594  1.0357
  814MOL0     H 9875   4.346   2.717   2.458 -1.5162 -1.7499  0.1887
  814MOL0     H 9876   6.414   2.710   2.825 -1.3883 -0.6165  0.7520
  814MOL0     H 9877   6.658   2.714   2.800 -0.1544 -1.7238  0.7089
  814MOL0     H 9878   7.023   2.929   2.858 -0.9708  0.6206  1.1783
  814MOL0     H 9879   7.262   2.944   2.826  1.1831 -0.2683  0.6249
  814MOL0     H 9880   7.509   2.907   2.790 -2.6590  3.4515 -1.2659
  814MOL0     H 9881   7.492   3.047   2.889  4.9051  1.5639 -0.9752
  814MOL0     H 9882   7.686   2.903   3.027 -2.7361  0.0439 -0.0110
  814MOL0     H 9883   7.710   3.046   2.915  1.7727 -1.0914 -0.7171
  814MOL0     H 9884   7.749   2.892   2.733  0.9755  2.2747  0.6267
  814MOL0     H 9885   7.714   2.749   2.836 -0.9903  0.1639 -0.2483
  814MOL0     H 9886   7.950   2.758   2.817 -2.3176 -0.7063 -0.7912
  814MOL0     H 9887   7.917   2.817   2.980  1.6986  0.9541  1.1009
  814MOL0     H 9888   8.033   3.186   2.788  1.6393 -0.0864 -0.4115
  814MOL0     H 9889   7.338   2.739   3.190 -0.8132 -0.4121  1.3544
  814MOL0     H 9890   7.100   2.690   3.211 -0.5107  2.2579  0.5294
  815MOL0     O 9891   9.292   2.607   6.253  0.1681  0.6899  0.2806
  815MOL0     C 9892   9.313   2.724   6.291  0.7035  0.6796 -0.4354
  815MOL0     O 9893   9.208   2.817   6.320  0.0818  0.1443 -0.0209
  815MOL0     C 9894   9.074   2.788   6.306  0.2188 -0.1063 -0.4969
  815MOL0     C 9895   8.994   2.835   6.409  0.6508  0.2771 -0.1248
  815MOL0     C 9896   8.853   2.832   6.402 -0.3962  0.3837  0.3695
  815MOL0     C 9897   8.796   2.757   6.302 -0.5679 -0.3285 -0.2505
  815MOL0     O 9898   8.658   2.731   6.311  0.7777 -0.6928  0.9092
  815MOL0     C 9899   8.607   2.611   6.246  0.7033 -0.9883  0.0548
  815MOL0     C 9900   8.456   2.615   6.221  0.6047  0.1711  0.3588
  815MOL0     C 9901   8.421   2.713   6.115  0.1469 -0.0123 -1.0145
  815MOL0     C 9902   8.271   2.694   6.084  0.3289  0.0905  0.3888
  815MOL0     C 9903   8.209   2.783   5.980 -0.1748  0.6170 -0.8338
  815MOL0     C 9904   8.210   2.936   6.005 -0.2367 -0.4322  0.3018
  815MOL0     C 9905   8.118   2.991   5.894  0.8725  0.4354  0.2132
  815MOL0     C 9906   7.959   2.964   5.918  0.2401  0.1445 -0.4850
  815MOL0     N 9907   7.904   3.050   6.031  0.2357 -0.3592  1.0100
  815MOL0     C 9908   7.874   3.179   6.015 -0.1300 -1.1521  0.0351
  815MOL0     C 9909   7.821   3.214   6.135  0.7057 -0.3150 -0.9493
  815MOL0     C 9910   7.767   3.350   6.161 -0.0075  0.0802  1.5375
  815MOL0     C 9911   7.611   3.334   6.183  0.0521 -0.6446  0.8091
  815MOL0     C 9912   7.543   3.319   6.047 -0.7216 -0.1153 -0.5568
  815MOL0     C 9913   7.386   3.327   6.072 -0.7394  0.4187 -0.1818
  815MOL0     O 9914   7.341   3.457   6.101 -0.1649  0.9493  0.6066
  815MOL0     C 9915   7.204   3.479   6.116 -0.1826 -0.0178 -0.2432
  815MOL0     C 9916   7.159   3.600   6.173  0.0348 -0.2486 -0.6169
  815MOL0     C 9917   7.027   3.614   6.215  0.1394 -0.3815 -0.3071
  815MOL0     C 9918   6.996   3.744   6.287  0.8976  0.1562 -0.4263
  815MOL0     C 9919   6.925   3.525   6.172 -0.3793  0.0542 -0.0694
  815MOL0     C 9920   6.784   3.550   6.162 -0.2483 -0.2207 -0.2126
  815MOL0     O 9921   6.694   3.443   6.139  0.2926 -0.3001  0.9051
  815MOL0     C 9922   6.560   3.465   6.096 -0.3268 -0.2106 -0.1765
  815MOL0     C 9923   6.468   3.356   6.096 -0.1545 -0.9674  0.3161
  815MOL0     C 9924   6.329   3.371   6.057 -0.8423  0.1893  0.3886
  815MOL0     C 9925   6.281   3.493   6.012 -0.4561 -0.1414  0.2921
  815MOL0     O 9926   6.147   3.511   5.988  0.3940 -0.3093  0.2453
  815MOL0     C 9927   6.067   3.622   6.027  0.0510 -0.7699  0.5869
  815MOL0     C 9928   5.959   3.559   6.113  0.1200 -0.6666  0.6964
  815MOL0     C 9929   5.856   3.457   6.054  0.2785 -0.0640  0.7349
  815MOL0     C 9930   5.747   3.420   6.154 -0.4538 -0.4529  0.9011
  815MOL0     C 9931   5.671   3.304   6.097 -0.6901  0.5054 -0.4150
  815MOL0     C 9932   5.584   3.245   6.195  0.1609 -0.3431 -0.5506
  815MOL0     C 9933   5.482   3.147   6.139 -0.6338  0.7199 -0.1922
  815MOL0     C 9934   5.421   3.048   6.238 -0.2706 -0.1278 -0.8213
  815MOL0    Cl 9935   5.362   3.136   6.378  0.3529 -0.1996  0.4566
  815MOL0     C 9936   6.370   3.603   6.005 -0.0181 -0.3698  0.7230
  815MOL0     C 9937   6.509   3.582   6.040 -0.0248 -0.6193 -0.4248
  815MOL0     O 9938   6.745   3.661   6.180  0.0398 -0.4147  0.1153
  815MOL0     C 9939   6.968   3.415   6.109 -0.0708 -0.0285  0.4926
  815MOL0     C 9940   7.104   3.382   6.089  1.0720  0.2871  0.9338
  815MOL0     N 9941   7.833   3.103   6.225 -0.5681 -0.5082 -0.1514
  815MOL0     N 9942   7.883   3.004   6.154 -0.6371  0.4251 -0.4765
  815MOL0     C 9943   8.878   2.707   6.200  0.3638 -0.8572  0.1626
  815MOL0     C 9944   9.012   2.728   6.193 -0.0300 -0.4786  0.1757
  815MOL0     C 9945   9.457   2.757   6.289 -0.4938  0.0363  0.3378
  815MOL0     C 9946   9.558   2.672   6.236  0.1736 -0.9666  0.1238
  815MOL0     C 9947   9.695   2.722   6.245 -0.4205 -0.4791  0.1353
  815MOL0     C 9948   9.728   2.850   6.302  0.3792 -0.0207  0.1581
  815MOL0     O 9949   9.861   2.886   6.312  0.3161 -0.0688 -0.7566
  815MOL0     C 9950   9.892   2.986   6.412 -0.3644 -0.6220 -0.4897
  815MOL0     C 9951  10.045   3.012   6.407  0.6347  0.0247 -0.0599
  815MOL0     C 9952  10.136   2.888   6.393 -0.5544 -0.3900 -0.3682
  815MOL0     C 9953  10.285   2.933   6.422 -0.1355 -0.3819  0.5755
  815MOL0     C 9954  10.396   2.832   6.418  0.0111 -0.5144 -0.5551
  815MOL0     C 9955  10.495   2.764   6.444  0.7840 -0.6044 -0.2968
  815MOL0     C 9956   9.621   2.926   6.344  0.9432  0.3034  0.0160
  815MOL0     C 9957   9.492   2.874   6.352  0.5957  0.4387  0.5231
  815MOL0     H 9958   9.021   2.898   6.494 -0.4994  1.0976 -0.3322
  815MOL0     H 9959   8.793   2.860   6.488 -2.1476 -1.1989 -0.2722
  815MOL0     H 9960   8.652   2.585   6.149  1.3193  0.2406 -0.0093
  815MOL0     H 9961   8.637   2.524   6.305  1.6581  0.6122  2.0477
  815MOL0     H 9962   8.407   2.517   6.217 -0.6572  0.7317 -5.1074
  815MOL0     H 9963   8.420   2.658   6.316 -4.9942 -2.7730 -0.0006
  815MOL0     H 9964   8.444   2.818   6.136 -1.4953  0.1249  0.3058
  815MOL0     H 9965   8.475   2.691   6.022  0.5419  0.3325 -0.8735
  815MOL0     H 9966   8.252   2.589   6.062  1.8494 -0.1466  0.1463
  815MOL0     H 9967   8.212   2.709   6.175 -0.5313 -1.3393  0.0909
  815MOL0     H 9968   8.249   2.755   5.882  0.7199  0.7275 -0.5178
  815MOL0     H 9969   8.109   2.738   5.983  0.0791  0.0693  0.0362
  815MOL0     H 9970   8.178   2.975   6.103  1.7844  2.1133  0.0576
  815MOL0     H 9971   8.313   2.970   5.991  0.3269 -2.2418 -0.2345
  815MOL0     H 9972   8.125   3.098   5.871  0.5888 -0.1374 -3.0742
  815MOL0     H 9973   8.140   2.940   5.799 -2.0751  1.8438 -1.3544
  815MOL0     H 9974   7.934   2.858   5.929  3.3737 -0.5841  0.5662
  815MOL0     H 9975   7.903   2.990   5.827  0.2471 -0.2741 -0.6140
  815MOL0     H 9976   7.879   3.237   5.923 -2.2887  0.6186  0.9215
  815MOL0     H 9977   7.827   3.378   6.247 -1.5454  1.5199  2.1845
  815MOL0     H 9978   7.779   3.415   6.073 -0.6921 -2.4474 -0.5673
  815MOL0     H 9979   7.578   3.424   6.235 -3.8073 -1.4321 -0.0256
  815MOL0     H 9980   7.589   3.252   6.253 -0.3789  1.1268  2.8375
  815MOL0     H 9981   7.569   3.221   6.006  0.0557 -0.7733  1.3779
  815MOL0     H 9982   7.563   3.398   5.975 -1.3757  2.6808  2.1260
  815MOL0     H 9983   7.359   3.248   6.143  0.0174  0.8440  0.5864
  815MOL0     H 9984   7.341   3.307   5.974  0.0388 -0.5114 -0.3682
  815MOL0     H 9985   7.238   3.670   6.200 -0.7177  0.6166 -0.6113
  815MOL0     H 9986   6.993   3.819   6.208  0.1159 -0.5058 -1.0382
  815MOL0     H 9987   6.902   3.745   6.343  0.3407  1.1365 -1.3507
  815MOL0     H 9988   7.074   3.784   6.352 -0.9070  4.9063 -0.8234
  815MOL0     H 9989   6.501   3.261   6.139  0.9585 -0.5270  0.4646
  815MOL0     H 9990   6.276   3.278   6.076  0.4744 -0.3777  1.5036
  815MOL0     H 9991   6.126   3.701   6.075  0.1154  0.7778 -1.8802
  815MOL0     H 9992   6.017   3.676   5.946  0.9162 -0.2745  0.3697
  815MOL0     H 9993   6.006   3.507   6.197  1.0987 -0.2364  0.4414
  815MOL0     H 9994   5.896   3.641   6.149  0.2450  1.0864 -2.6697
  815MOL0     H 9995   5.913   3.364   6.040  0.0040 -0.2730  0.9869
  815MOL0     H 9996   5.807   3.482   5.959 -1.4880 -1.9377  1.0741
  815MOL0     H 9997   5.793   3.385   6.248  0.2013 -3.6023 -0.4401
  815MOL0     H 9998   5.685   3.507   6.174 -1.2566 -0.0181 -2.7855
  815MOL0     H 9999   5.752   3.236   6.067 -0.9865  0.3705 -0.9273
  815MOL0     H10000   5.613   3.334   6.009  0.8017  0.3343 -1.4867
  815MOL0     H10001   5.650   3.195   6.267 -1.5419 -1.3452  0.3761
  815MOL0     H10002   5.536   3.320   6.259 -1.6840 -0.3854 -1.8056
  815MOL0     H10003   5.535   3.079   6.071  0.2531 -0.8673  1.9751
  815MOL0     H10004   5.396   3.203   6.101  0.6366  1.9871 -1.3055
  815MOL0     H10005   5.495   2.974   6.269 -0.6717 -0.2692 -0.1833
  815MOL0     H10006   5.338   2.994   6.192  1.0785  0.5623 -4.4197
  815MOL0     H10007   6.337   3.702   5.979 -2.8512 -1.1013  1.2282
  815MOL0     H10008   6.577   3.667   6.033 -1.1911  0.4748  1.0618
  815MOL0     H10009   6.890   3.347   6.077 -0.4982  1.2049 -1.2263
  815MOL0     H10010   7.134   3.286   6.048 -2.4248 -0.8136  0.6326
  815MOL0     H10011   8.839   2.655   6.113 -0.4847  0.1382 -0.0688
  815MOL0     H10012   9.058   2.684   6.105  1.1277 -0.9002  0.9627
  815MOL0     H10013   9.528   2.574   6.200 -1.1453 -1.3517  2.0962
  815MOL0     H10014   9.775   2.657   6.211 -0.4213 -1.3933  1.7578
  815MOL0     H10015   9.841   3.079   6.387  0.3897 -0.2887 -0.7992
  815MOL0     H10016   9.874   2.958   6.517  0.2613  0.0937 -0.1851
  815MOL0     H10017  10.076   3.067   6.496 -0.5259  0.4207  0.1096
  815MOL0     H10018  10.074   3.073   6.321  1.8020  0.5046  0.6505
  815MOL0     H10019  10.132   2.852   6.290 -0.4228 -2.5789  0.3349
  815MOL0     H10020  10.107   2.812   6.467 -1.6527 -0.4367 -0.8205
  815MOL0     H10021  10.296   2.973   6.523 -0.2653  0.2489  0.3469
  815MOL0     H10022  10.295   3.019   6.355 -2.2662  0.1249  0.8444
  815MOL0     H10023  10.579   2.702   6.467  0.6264 -0.1530  1.7271
  815MOL0     H10024   9.635   3.017   6.401  1.1932 -1.1365  2.4061
  815MOL0     H10025   9.420   2.937   6.403  2.3902  2.9733  0.1109
  816MOL0     O10026   4.995   5.178   3.388  0.0184 -1.2037  0.0267
  816MOL0     C10027   5.011   5.057   3.372 -0.0191 -0.3131  0.2370
  816MOL0     O10028   4.908   4.971   3.387 -1.2154 -0.4762 -0.2576
  816MOL0     C10029   4.780   5.014   3.394 -0.4981 -0.3619 -0.5189
  816MOL0     C10030   4.711   5.047   3.279 -0.6185 -0.1009 -0.1977
  816MOL0     C10031   4.574   5.077   3.281 -0.7571 -0.2823  0.9046
  816MOL0     C10032   4.510   5.076   3.406  0.1908  0.5929 -0.6422
  816MOL0     O10033   4.371   5.100   3.401 -0.3349  0.0503 -0.1063
  816MOL0     C10034   4.278   5.034   3.493 -0.4582  0.1091  1.2824
  816MOL0     C10035   4.138   5.107   3.460  0.3296  1.3867  0.4374
  816MOL0     C10036   4.019   5.062   3.552  0.1769 -0.1112 -0.2812
  816MOL0     C10037   3.884   5.096   3.488  0.6125 -0.3297  0.3522
  816MOL0     C10038   3.770   5.089   3.587 -0.2918  0.4670 -0.1152
  816MOL0     C10039   3.637   5.139   3.530  0.3715 -0.3254 -0.5948
  816MOL0     C10040   3.541   5.162   3.656  0.1843  0.4285  0.4698
  816MOL0     C10041   3.393   5.181   3.615 -0.1129  0.2829  1.1994
  816MOL0     N10042   3.307   5.198   3.738  0.1218 -0.8115  0.3033
  816MOL0     C10043   3.172   5.166   3.750 -0.4743  0.3478  0.5132
  816MOL0     C10044   3.133   5.227   3.866  0.2631  0.0551 -0.8799
  816MOL0     C10045   3.006   5.209   3.932  0.0423  0.6517  0.2719
  816MOL0     C10046   2.939   5.344   3.932 -0.3947  0.3492 -0.5538
  816MOL0     C10047   2.888   5.389   3.794 -0.8894 -0.2476 -0.9744
  816MOL0     C10048   2.849   5.536   3.791 -0.0361 -0.2614  0.2730
  816MOL0     O10049   2.782   5.579   3.916 -0.2634 -0.2152 -0.3871
  816MOL0     C10050   2.662   5.531   3.957  0.7532 -0.0575  0.9381
  816MOL0     C10051   2.564   5.482   3.872 -0.1982  1.3706 -0.1075
  816MOL0     C10052   2.433   5.443   3.917  0.1037 -0.7812  1.0187
  816MOL0     C10053   2.352   5.377   3.808  0.8252 -0.3950  0.4333
  816MOL0     C10054   2.403   5.472   4.056  0.1261  0.0383  0.7063
  816MOL0     C10055   2.273   5.436   4.125 -0.0901  0.4382  0.1746
  816MOL0     O10056   2.273   5.455   4.254 -0.1625  0.3653 -0.1564
  816MOL0     C10057   2.175   5.420   4.346  0.1704  0.1129  0.0524
  816MOL0     C10058   2.076   5.323   4.329 -0.5054  0.4190  0.2344
  816MOL0     C10059   1.973   5.286   4.414  0.2615  0.3019 -0.3621
  816MOL0     C10060   1.964   5.362   4.530  0.6989 -0.4886  0.0784
  816MOL0     O10061   1.870   5.344   4.630  0.3312 -0.2625  0.1032
  816MOL0     C10062   1.760   5.432   4.626  0.1977  0.2687 -0.1500
  816MOL0     C10063   1.639   5.349   4.594  0.5675 -0.9923  0.2753
  816MOL0     C10064   1.513   5.426   4.560 -0.1134  0.3422 -0.6095
  816MOL0     C10065   1.462   5.499   4.687 -0.9621  0.0504 -0.6735
  816MOL0     C10066   1.338   5.583   4.654  0.5549 -0.7394 -0.4016
  816MOL0     C10067   1.228   5.504   4.586  0.2036 -0.4139 -0.2143
  816MOL0     C10068   1.099   5.585   4.568  0.4453 -0.5267 -0.1840
  816MOL0     C10069   0.988   5.494   4.527  0.0325 -0.4957 -0.4184
  816MOL0    Cl10070   0.825   5.554   4.550 -0.6707 -0.5092 -0.1186
  816MOL0     C10071   2.065   5.453   4.556 -0.8412 -0.3027 -0.9076
  816MOL0     C10072   2.172   5.474   4.476  0.0804  0.5500  0.5072
  816MOL0     O10073   2.181   5.391   4.059 -0.1677  0.3559  0.4043
  816MOL0     C10074   2.505   5.522   4.139 -0.4954  0.1822  0.1558
  816MOL0     C10075   2.629   5.546   4.085  0.2553  0.0553 -0.7898
  816MOL0     N10076   3.240   5.286   3.925  0.5915 -0.3710  0.0711
  816MOL0     N10077   3.346   5.266   3.845  0.3195  0.0495 -0.5027
  816MOL0     C10078   4.577   5.053   3.523 -0.4879 -0.0170  0.1108
  816MOL0     C10079   4.711   5.017   3.522  0.8568  0.6689  0.4172
  816MOL0     C10080   5.145   4.996   3.341  0.1881 -0.0964  0.0918
  816MOL0     C10081   5.275   5.058   3.348 -0.9689 -0.4514  0.5250
  816MOL0     C10082   5.391   4.990   3.303 -0.3612 -0.0177 -0.7737
  816MOL0     C10083   5.377   4.863   3.250  0.5931  0.7155 -0.6255
  816MOL0     O10084   5.478   4.785   3.216 -0.5967 -0.2145  1.0162
  816MOL0     C10085   5.608   4.831   3.254 -0.7397 -0.2613 -0.1642
  816MOL0     C10086   5.722   4.747   3.199  0.0076 -1.0755  0.3047
  816MOL0     C10087   5.695   4.725   3.044  0.3098 -0.1056 -0.3279
  816MOL0     C10088   5.783   4.625   2.972 -0.4747  1.0915  0.3459
  816MOL0     C10089   5.788   4.487   3.035  0.3237 -0.0656 -0.3943
  816MOL0     C10090   5.805   4.382   3.092 -0.2412 -0.4789 -0.3498
  816MOL0     C10091   5.251   4.809   3.229  0.8239  0.8052 -1.2262
  816MOL0     C10092   5.136   4.873   3.264  0.8958 -1.1112 -0.1046
  816MOL0     H10093   4.770   5.061   3.189  0.3698 -1.0464  0.2704
  816MOL0     H10094   4.522   5.097   3.188 -0.1147  0.7099  0.7440
  816MOL0     H10095   4.283   4.929   3.464 -0.6812  0.7107 -1.2323
  816MOL0     H10096   4.309   5.057   3.595 -0.1810  1.4518  0.9209
  816MOL0     H10097   4.150   5.214   3.478 -0.3155  1.4419  0.5548
  816MOL0     H10098   4.114   5.087   3.355 -0.1786  3.5083  0.1178
  816MOL0     H10099   4.027   4.954   3.570 -0.6341 -0.1514 -0.1314
  816MOL0     H10100   4.025   5.109   3.651  0.1926  0.0866 -0.3761
  816MOL0     H10101   3.891   5.198   3.450 -0.4175 -0.1654  0.5584
  816MOL0     H10102   3.864   5.037   3.398 -2.3516  0.6988  0.2142
  816MOL0     H10103   3.766   4.989   3.630  0.1593  0.7160  0.5185
  816MOL0     H10104   3.792   5.159   3.668 -0.2553 -0.6709  0.8821
  816MOL0     H10105   3.644   5.238   3.483 -3.3267 -0.4534 -1.7711
  816MOL0     H10106   3.600   5.071   3.453  1.6523 -1.4121 -0.2804
  816MOL0     H10107   3.541   5.079   3.727 -1.5841  1.5862  1.9172
  816MOL0     H10108   3.566   5.258   3.703  1.0368 -0.6846  2.3967
  816MOL0     H10109   3.354   5.100   3.552  1.5131  0.4398 -0.0971
  816MOL0     H10110   3.388   5.256   3.536 -0.6751 -0.5980  0.3723
  816MOL0     H10111   3.113   5.115   3.675 -0.4133 -1.1656  1.4531
  816MOL0     H10112   2.949   5.128   3.885  1.0953  0.7982 -1.3472
  816MOL0     H10113   3.030   5.173   4.032 -2.9180 -0.8784  0.5422
  816MOL0     H10114   3.013   5.418   3.963  0.7079 -0.0207 -2.1967
  816MOL0     H10115   2.855   5.346   4.002  0.0204  0.9521 -0.0591
  816MOL0     H10116   2.802   5.328   3.765 -0.2990 -0.9747 -1.2224
  816MOL0     H10117   2.967   5.380   3.720 -1.4033  0.5929 -1.6523
  816MOL0     H10118   2.787   5.561   3.705  1.2237 -0.1960 -0.6575
  816MOL0     H10119   2.937   5.600   3.773 -0.6074 -0.1172 -2.6120
  816MOL0     H10120   2.587   5.476   3.766  0.1782 -1.2981  0.0461
  816MOL0     H10121   2.270   5.443   3.780  1.9377  0.4865 -0.8458
  816MOL0     H10122   2.413   5.363   3.719  1.5499  0.2384  0.8140
  816MOL0     H10123   2.320   5.280   3.849  0.6276 -1.4359 -2.0476
  816MOL0     H10124   2.100   5.256   4.247 -1.4049  0.0916  0.2273
  816MOL0     H10125   1.899   5.209   4.392 -0.1482  0.8078 -0.7790
  816MOL0     H10126   1.748   5.478   4.724  3.4023  0.6585  0.1846
  816MOL0     H10127   1.774   5.506   4.547  0.8123 -0.0537 -0.3495
  816MOL0     H10128   1.661   5.296   4.501  3.1045  0.2623  0.0782
  816MOL0     H10129   1.628   5.265   4.663 -1.2492 -0.7795  0.3008
  816MOL0     H10130   1.440   5.351   4.528 -1.2355  1.1870 -0.0957
  816MOL0     H10131   1.541   5.500   4.485 -1.4268  2.2072  0.6474
  816MOL0     H10132   1.430   5.422   4.758  2.3244 -0.3874  0.5074
  816MOL0     H10133   1.544   5.553   4.736 -0.9278 -1.4494  1.0443
  816MOL0     H10134   1.364   5.661   4.583  1.3749 -2.9026 -2.5966
  816MOL0     H10135   1.299   5.632   4.744 -0.6627  1.1143 -1.8451
  816MOL0     H10136   1.267   5.470   4.490  1.5951  0.2502  0.0862
  816MOL0     H10137   1.221   5.424   4.660  0.7814  0.5387  0.9069
  816MOL0     H10138   1.113   5.672   4.503 -0.0358  0.9543  1.6012
  816MOL0     H10139   1.067   5.629   4.663  0.2637 -0.0876 -0.4477
  816MOL0     H10140   1.000   5.398   4.579  1.3926  2.0817  4.5535
  816MOL0     H10141   1.003   5.463   4.423  3.1683  1.9716 -0.8346
  816MOL0     H10142   2.051   5.517   4.643 -1.9935 -1.6492 -0.0698
  816MOL0     H10143   2.245   5.547   4.508 -3.1558  4.1134  0.4033
  816MOL0     H10144   2.503   5.523   4.248 -0.2002  0.7631  0.1592
  816MOL0     H10145   2.713   5.576   4.146  0.7338 -0.7831 -1.0156
  816MOL0     H10146   4.536   5.063   3.623  0.9863  0.2761  0.7169
  816MOL0     H10147   4.762   4.999   3.616  0.5954  1.8239  0.7918
  816MOL0     H10148   5.276   5.159   3.389  0.6478 -0.0947 -0.2925
  816MOL0     H10149   5.488   5.036   3.313 -0.3841 -0.1002 -0.1416
  816MOL0     H10150   5.615   4.934   3.219 -2.1884  0.2361  0.9382
  816MOL0     H10151   5.619   4.835   3.363 -1.4080 -1.0020 -0.0594
  816MOL0     H10152   5.736   4.657   3.261  0.2758 -1.1052  0.2001
  816MOL0     H10153   5.807   4.807   3.232 -1.6132  1.5642 -0.0654
  816MOL0     H10154   5.704   4.824   2.998 -0.1974 -0.6865 -1.7259
  816MOL0     H10155   5.596   4.679   3.032  0.5956 -2.3251  3.8900
  816MOL0     H10156   5.888   4.655   2.979  1.1527 -3.7584  0.5944
  816MOL0     H10157   5.757   4.624   2.866 -2.6919  3.9688  0.7346
  816MOL0     H10158   5.840   4.292   3.138  1.2219  0.3162  0.1835
  816MOL0     H10159   5.239   4.708   3.194 -0.7649  0.2969  0.5806
  816MOL0     H10160   5.042   4.832   3.228  0.5454  1.3578 -2.2477
  817MOL0     O10161   3.852   8.148   8.824  0.0349  0.0098  0.2545
  817MOL0     C10162   3.942   8.233   8.821 -0.9035  0.0061  0.4714
  817MOL0     O10163   3.934   8.370   8.806  0.1042 -0.3763 -0.0370
  817MOL0     C10164   3.809   8.425   8.807 -0.5020 -0.4233  1.0504
  817MOL0     C10165   3.692   8.384   8.875  0.8419 -0.4112 -0.6146
  817MOL0     C10166   3.572   8.458   8.873 -1.3696  0.1612 -0.1093
  817MOL0     C10167   3.565   8.573   8.799  0.6054  0.1119  0.3464
  817MOL0     O10168   3.453   8.660   8.799 -0.3562  0.1462  0.3503
  817MOL0     C10169   3.349   8.635   8.891  0.1977  1.1508 -0.3354
  817MOL0     C10170   3.250   8.749   8.890  0.3087 -0.3577 -0.0873
  817MOL0     C10171   3.158   8.765   8.764 -0.2530  0.0734  0.1747
  817MOL0     C10172   3.041   8.675   8.749 -0.7166  0.1333  0.5030
  817MOL0     C10173   2.990   8.700   8.613  0.0555  0.3963  0.5719
  817MOL0     C10174   2.879   8.602   8.588 -0.5270  0.7553 -0.1578
  817MOL0     C10175   2.836   8.613   8.436 -0.2575 -0.1492  0.0085
  817MOL0     C10176   2.722   8.516   8.408  0.7806 -0.8355 -0.0518
  817MOL0     N10177   2.591   8.587   8.368  0.3045  0.6385  0.3725
  817MOL0     C10178   2.568   8.632   8.240  0.2881 -0.0116  0.5285
  817MOL0     C10179   2.434   8.678   8.234 -0.0139 -0.1643 -0.6977
  817MOL0     C10180   2.360   8.744   8.118  1.1691 -0.3738 -0.4616
  817MOL0     C10181   2.264   8.860   8.152 -0.6767  0.4402  0.1222
  817MOL0     C10182   2.219   8.923   8.019 -0.4046 -0.3983 -0.4927
  817MOL0     C10183   2.141   9.052   8.057 -0.7430  0.3365 -0.3357
  817MOL0     O10184   2.101   9.119   7.937 -0.3884  0.0139  0.1344
  817MOL0     C10185   1.975   9.176   7.940 -0.3185 -0.2904  0.5750
  817MOL0     C10186   1.883   9.195   8.041  0.2674  0.1381 -0.2873
  817MOL0     C10187   1.770   9.275   8.019  0.8469  0.5042 -0.1150
  817MOL0     C10188   1.685   9.299   8.142 -0.1735  0.2342  0.1093
  817MOL0     C10189   1.737   9.325   7.890 -0.9465  0.9543 -0.2004
  817MOL0     C10190   1.615   9.388   7.842  0.0584 -0.9098 -0.1449
  817MOL0     O10191   1.617   9.452   7.718  0.1958  0.1391  0.2955
  817MOL0     C10192   1.500   9.517   7.675 -0.7493  0.2439  0.3524
  817MOL0     C10193   1.510   9.651   7.634  0.1890  0.0498  0.6352
  817MOL0     C10194   1.411   9.719   7.565 -0.6557 -0.2076 -0.2970
  817MOL0     C10195   1.291   9.648   7.536  0.1286 -0.0919 -0.6158
  817MOL0     O10196   1.199   9.721   7.469  0.2224 -0.5450  0.1059
  817MOL0     C10197   1.056   9.693   7.493 -0.3245  0.3606  0.5547
  817MOL0     C10198   0.970   9.814   7.472 -0.3251 -1.1653  0.1062
  817MOL0     C10199   0.825   9.785   7.438  0.1975  0.7708  0.6798
  817MOL0     C10200   0.739   9.910   7.427 -0.2294  0.4698 -0.1236
  817MOL0     C10201   0.618   9.880   7.344 -0.0484 -0.0040 -0.4101
  817MOL0     C10202   0.550  10.010   7.312 -0.3855 -0.5018 -0.8165
  817MOL0     C10203   0.412   9.984   7.232 -0.0281  0.5234  0.3104
  817MOL0     C10204   0.350  10.102   7.172 -0.8028 -0.3870  0.1234
  817MOL0    Cl10205   0.449  10.166   7.032  0.1168 -0.2487  0.0689
  817MOL0     C10206   1.274   9.513   7.567 -0.3857 -0.1309 -0.3440
  817MOL0     C10207   1.381   9.450   7.633 -0.0858  0.9239 -0.2785
  817MOL0     O10208   1.510   9.376   7.905 -0.4433 -0.1521 -0.8219
  817MOL0     C10209   1.837   9.303   7.788 -0.1524 -0.1830  0.4926
  817MOL0     C10210   1.945   9.219   7.815  0.2344  0.0213 -0.4205
  817MOL0     N10211   2.390   8.674   8.363 -0.1502  0.6655  0.0746
  817MOL0     N10212   2.481   8.621   8.435  0.6813  0.3980 -0.1256
  817MOL0     C10213   3.678   8.609   8.720  0.5587  0.5356 -0.2025
  817MOL0     C10214   3.798   8.538   8.733 -0.0870 -0.0606 -0.1936
  817MOL0     C10215   4.079   8.170   8.833  0.3811 -0.1550 -0.0048
  817MOL0     C10216   4.191   8.255   8.832  0.1274 -0.3294  0.8300
  817MOL0     C10217   4.318   8.206   8.819 -0.3461  0.7165 -0.4074
  817MOL0     C10218   4.339   8.067   8.825  0.2626 -0.7285  0.8454
  817MOL0     O10219   4.471   8.021   8.823 -0.3951 -0.7933 -0.3637
  817MOL0     C10220   4.506   7.886   8.845 -0.3877 -0.6897  0.0514
  817MOL0     C10221   4.652   7.866   8.832  0.6143  0.4310 -0.1352
  817MOL0     C10222   4.740   7.957   8.737 -0.5831  0.2655  0.1788
  817MOL0     C10223   4.895   7.928   8.758  0.7329 -0.5136 -0.1488
  817MOL0     C10224   4.968   8.046   8.715 -0.3864 -0.5960  0.0278
  817MOL0     C10225   5.030   8.143   8.668  0.2459  0.5867  0.3921
  817MOL0     C10226   4.228   7.976   8.825  0.5988 -0.5825  0.3244
  817MOL0     C10227   4.099   8.030   8.828 -0.4084  1.1808 -0.1127
  817MOL0     H10228   3.692   8.296   8.938 -3.1543  0.5841  1.1163
  817MOL0     H10229   3.485   8.416   8.923  0.4264 -2.0439  1.3437
  817MOL0     H10230   3.292   8.543   8.876  0.2339  1.1770 -0.6242
  817MOL0     H10231   3.399   8.627   8.988  3.2042 -2.6823 -1.9305
  817MOL0     H10232   3.180   8.730   8.972  0.7996 -0.3228  0.3426
  817MOL0     H10233   3.311   8.838   8.905  0.8297 -0.5406 -0.9905
  817MOL0     H10234   3.112   8.865   8.763 -0.4731  0.1268  3.3543
  817MOL0     H10235   3.223   8.757   8.676 -0.5852 -0.8096  0.0076
  817MOL0     H10236   3.078   8.572   8.748 -1.6846 -0.3148 -3.1340
  817MOL0     H10237   2.965   8.691   8.827 -0.0254 -1.5484  1.5926
  817MOL0     H10238   2.957   8.804   8.599  0.3375  0.6734  1.8572
  817MOL0     H10239   3.071   8.678   8.543  1.2162 -2.0443  2.5154
  817MOL0     H10240   2.909   8.500   8.617 -0.0180  1.0162  0.2375
  817MOL0     H10241   2.800   8.638   8.654  0.0728  0.5581  0.6958
  817MOL0     H10242   2.813   8.717   8.412 -1.7184 -0.6476 -0.9384
  817MOL0     H10243   2.916   8.574   8.372  0.4729  1.0057  0.2049
  817MOL0     H10244   2.694   8.461   8.499 -0.6751  2.4468  1.6487
  817MOL0     H10245   2.753   8.444   8.332  0.8245  1.9113 -2.8422
  817MOL0     H10246   2.635   8.623   8.155  0.9437  1.7221  0.8238
  817MOL0     H10247   2.436   8.782   8.049  1.6457 -2.8507 -1.3966
  817MOL0     H10248   2.300   8.663   8.075 -1.1327 -1.3994  3.9816
  817MOL0     H10249   2.308   8.927   8.226 -0.0245 -1.1453  1.2405
  817MOL0     H10250   2.173   8.811   8.187 -1.0406  0.9315 -0.1263
  817MOL0     H10251   2.159   8.856   7.957 -1.2804 -1.5677  1.5129
  817MOL0     H10252   2.303   8.958   7.959 -0.2546  1.9163  0.9086
  817MOL0     H10253   2.193   9.117   8.128 -0.3206  0.8429 -1.0958
  817MOL0     H10254   2.051   9.013   8.105 -1.4804 -1.7071 -3.0703
  817MOL0     H10255   1.909   9.164   8.142 -0.2084 -0.1762 -0.2581
  817MOL0     H10256   1.746   9.278   8.230  0.6780 -0.8706 -0.7127
  817MOL0     H10257   1.650   9.403   8.144 -1.2669 -0.1079 -0.4458
  817MOL0     H10258   1.601   9.229   8.152 -0.7087  0.8645  0.0962
  817MOL0     H10259   1.595   9.715   7.659 -0.3662  0.8185  0.5997
  817MOL0     H10260   1.418   9.824   7.537 -1.4481 -0.0409  0.1048
  817MOL0     H10261   1.028   9.617   7.419  0.4994  1.3959 -0.8653
  817MOL0     H10262   1.042   9.655   7.594  2.1484  0.4477  1.0080
  817MOL0     H10263   0.963   9.867   7.568 -1.0614  1.9853 -1.5356
  817MOL0     H10264   1.007   9.889   7.401 -2.9948  1.1666  1.0075
  817MOL0     H10265   0.775   9.717   7.508 -1.8370  0.5315 -0.8905
  817MOL0     H10266   0.821   9.725   7.347  0.6798 -0.4680  1.4568
  817MOL0     H10267   0.702   9.935   7.527 -4.5796 -2.1713 -0.7765
  817MOL0     H10268   0.799   9.991   7.386  0.0557 -0.3261 -1.3094
  817MOL0     H10269   0.541   9.813   7.381 -1.4755 -0.3854 -3.7267
  817MOL0     H10270   0.643   9.837   7.246 -0.3014 -1.9450  0.3370
  817MOL0     H10271   0.534  10.062   7.407  0.9796 -0.7754 -0.4029
  817MOL0     H10272   0.622  10.070   7.255  1.7369 -1.7200  0.4269
  817MOL0     H10273   0.341   9.935   7.299 -1.1008  1.4821 -0.1044
  817MOL0     H10274   0.427   9.915   7.148 -0.6385  0.3099  0.3732
  817MOL0     H10275   0.344  10.181   7.248 -1.4754 -0.4091  0.0979
  817MOL0     H10276   0.244  10.085   7.151 -1.2669  1.1159  1.0854
  817MOL0     H10277   1.185   9.456   7.543  1.2285 -2.1589 -1.8211
  817MOL0     H10278   1.377   9.344   7.654  0.9501  1.3114  2.2383
  817MOL0     H10279   1.834   9.343   7.687  0.8449  3.0756  1.6217
  817MOL0     H10280   2.013   9.201   7.732  0.4873  1.8287 -0.6279
  817MOL0     H10281   3.655   8.689   8.650 -0.8369 -2.2270 -3.1585
  817MOL0     H10282   3.886   8.581   8.685  0.6399  2.6063  3.0869
  817MOL0     H10283   4.176   8.362   8.842  0.0413  0.0853 -2.4908
  817MOL0     H10284   4.400   8.276   8.816 -0.8737  1.2983 -1.9396
  817MOL0     H10285   4.473   7.867   8.947 -1.0117 -2.5684 -0.4624
  817MOL0     H10286   4.455   7.814   8.781  1.2218 -0.1597 -1.9476
  817MOL0     H10287   4.668   7.760   8.809 -1.8150 -0.2231  0.8670
  817MOL0     H10288   4.694   7.885   8.931 -0.9959  2.6182  0.2093
  817MOL0     H10289   4.720   8.061   8.764 -1.5990 -0.2655  1.6014
  817MOL0     H10290   4.715   7.934   8.633 -0.7620  0.8085  0.1008
  817MOL0     H10291   4.923   7.838   8.702  0.3456 -0.6064 -0.1936
  817MOL0     H10292   4.909   7.912   8.865  0.3300 -2.7452 -0.3814
  817MOL0     H10293   5.072   8.225   8.613 -1.2913  0.8623 -0.4425
  817MOL0     H10294   4.238   7.868   8.815  0.5076 -0.4646 -1.3369
  817MOL0     H10295   4.021   7.960   8.801 -0.1229  1.5800 -2.1190
  818MOL0     O10296   4.746   1.098   3.556  0.6178  0.1348  0.7371
  818MOL0     C10297   4.814   1.138   3.644 -0.1243 -0.7223 -0.1811
  818MOL0     O10298   4.773   1.179   3.768  0.5493 -0.7986  0.3921
  818MOL0     C10299   4.644   1.164   3.811 -0.7263 -0.4548 -0.0735
  818MOL0     C10300   4.537   1.230   3.742 -0.5057 -0.6087 -0.1756
  818MOL0     C10301   4.406   1.211   3.798  0.0357  0.6710 -0.2722
  818MOL0     C10302   4.386   1.145   3.921 -0.7376 -0.4913  0.0965
  818MOL0     O10303   4.255   1.147   3.958 -0.1723 -0.0181 -0.7241
  818MOL0     C10304   4.214   1.047   4.052 -0.2657  0.1553  0.4741
  818MOL0     C10305   4.064   1.039   4.067  0.2383  0.3167 -0.5563
  818MOL0     C10306   3.996   1.036   3.923 -0.3448  0.2835 -0.2157
  818MOL0     C10307   3.854   1.095   3.916 -0.5646  0.3773 -0.0624
  818MOL0     C10308   3.764   1.013   4.006 -0.3125 -0.7691  0.1674
  818MOL0     C10309   3.616   1.039   3.983  0.0528 -0.3198 -0.1745
  818MOL0     C10310   3.543   0.975   4.095  0.0186  0.3697 -0.0641
  818MOL0     C10311   3.393   0.975   4.075 -0.5648 -0.2599 -0.1487
  818MOL0     N10312   3.336   0.918   3.944 -0.3994 -0.1761 -0.4000
  818MOL0     C10313   3.333   0.974   3.820  0.4031 -0.3112  0.0438
  818MOL0     C10314   3.250   0.893   3.751  0.1555 -0.2875  0.3030
  818MOL0     C10315   3.208   0.940   3.611  0.0014  0.3120  0.2267
  818MOL0     C10316   3.327   0.920   3.513  0.9989 -0.0696 -0.5627
  818MOL0     C10317   3.274   0.971   3.378 -0.6059  0.3146 -1.0818
  818MOL0     C10318   3.251   1.117   3.374  1.2199 -0.1487  0.4607
  818MOL0     O10319   3.362   1.201   3.403 -0.6393  0.6292  0.2237
  818MOL0     C10320   3.358   1.324   3.342 -0.6636  0.2296  0.5020
  818MOL0     C10321   3.478   1.378   3.299 -0.1173  0.5531 -0.4791
  818MOL0     C10322   3.477   1.480   3.202  0.3805  0.5430  0.0686
  818MOL0     C10323   3.618   1.530   3.162 -0.2650  0.4870  0.3171
  818MOL0     C10324   3.360   1.547   3.176  0.0344 -1.2024  0.6326
  818MOL0     C10325   3.357   1.664   3.084 -0.1844  0.7047  0.3957
  818MOL0     O10326   3.417   1.655   2.962 -0.2223 -0.3982 -0.4221
  818MOL0     C10327   3.444   1.768   2.884 -0.6065 -0.5021 -0.1385
  818MOL0     C10328   3.434   1.906   2.926  0.4135  0.1251  0.0897
  818MOL0     C10329   3.468   2.011   2.851 -0.3588  0.3847  0.0633
  818MOL0     C10330   3.493   1.994   2.717 -0.1376  0.5479  0.9096
  818MOL0     O10331   3.525   2.110   2.643  0.3033 -0.2278 -0.0935
  818MOL0     C10332   3.508   2.110   2.502  0.3972 -0.6719 -0.1813
  818MOL0     C10333   3.521   2.256   2.460 -0.2795  1.0305  1.2763
  818MOL0     C10334   3.421   2.355   2.513 -0.2034 -0.4234 -0.0846
  818MOL0     C10335   3.296   2.335   2.422 -0.6481 -0.2859  0.1098
  818MOL0     C10336   3.179   2.326   2.511 -0.4926  0.0612  0.3017
  818MOL0     C10337   3.045   2.317   2.426 -0.0631 -0.9139  0.2226
  818MOL0     C10338   3.004   2.167   2.410  0.0417 -0.0519  0.2279
  818MOL0     C10339   2.882   2.162   2.327 -0.2616  1.3040 -0.2491
  818MOL0    Cl10340   2.735   2.222   2.418 -0.2387 -0.1873  0.2946
  818MOL0     C10341   3.499   1.861   2.662 -0.0434  1.1931  0.1903
  818MOL0     C10342   3.472   1.754   2.751  0.0493  1.0314  0.1680
  818MOL0     O10343   3.280   1.755   3.119  0.1507  0.1158  0.0386
  818MOL0     C10344   3.236   1.508   3.233  0.0407  0.5393 -0.7099
  818MOL0     C10345   3.242   1.397   3.317  0.0174 -0.2844  1.0851
  818MOL0     N10346   3.200   0.791   3.829 -0.5067  0.2231  0.7218
  818MOL0     N10347   3.272   0.797   3.930  0.6516  0.2555 -0.1932
  818MOL0     C10348   4.497   1.105   3.996  0.6194 -0.6945 -0.1843
  818MOL0     C10349   4.624   1.107   3.938 -0.9013 -0.5715  0.3404
  818MOL0     C10350   4.954   1.153   3.614  0.3059  0.2314 -0.0974
  818MOL0     C10351   5.010   1.182   3.486 -0.1916 -0.0952 -0.3215
  818MOL0     C10352   5.144   1.167   3.462  0.3338 -0.6450  0.1057
  818MOL0     C10353   5.237   1.158   3.562  0.6103 -0.6639 -0.0812
  818MOL0     O10354   5.367   1.152   3.535 -0.0741 -0.5407 -0.2064
  818MOL0     C10355   5.460   1.124   3.637  0.1234 -0.0653  0.2299
  818MOL0     C10356   5.596   1.111   3.575 -0.1266 -0.1033 -0.2788
  818MOL0     C10357   5.717   1.095   3.677 -0.1450 -0.7971  0.5457
  818MOL0     C10358   5.851   1.065   3.615 -0.0389  0.3967  0.8518
  818MOL0     C10359   5.968   1.055   3.710  0.5992  0.3354 -0.0505
  818MOL0     C10360   6.071   1.048   3.776  0.4463  0.0013 -1.2446
  818MOL0     C10361   5.187   1.153   3.697 -0.6327 -0.3278  0.5287
  818MOL0     C10362   5.050   1.149   3.719  0.8294  1.0882  0.0137
  818MOL0     H10363   4.554   1.278   3.646  3.2729  3.2713  2.1094
  818MOL0     H10364   4.320   1.249   3.745 -0.6519 -1.2544 -0.5909
  818MOL0     H10365   4.243   0.946   4.023 -0.4072  0.2580 -0.0344
  818MOL0     H10366   4.263   1.059   4.149 -1.9535  1.1278  1.2541
  818MOL0     H10367   4.054   0.944   4.120  1.8824  0.8553  0.8078
  818MOL0     H10368   4.024   1.113   4.138 -1.4710 -1.8902  0.9200
  818MOL0     H10369   4.052   1.107   3.860 -1.4570  2.0629  0.7063
  818MOL0     H10370   3.997   0.937   3.877 -2.2848  0.8346 -1.5996
  818MOL0     H10371   3.851   1.200   3.943  1.8348  1.0306 -1.9331
  818MOL0     H10372   3.815   1.100   3.814 -0.9525 -1.5928 -0.0629
  818MOL0     H10373   3.783   0.908   3.982  0.3742 -1.0049  1.6280
  818MOL0     H10374   3.782   1.036   4.112 -1.5498 -0.9386  0.4273
  818MOL0     H10375   3.592   1.145   3.989 -0.0029 -0.4059  1.5019
  818MOL0     H10376   3.583   1.004   3.885  0.2166  3.3348 -1.6836
  818MOL0     H10377   3.576   0.872   4.111 -2.0843 -0.2358  0.7563
  818MOL0     H10378   3.565   1.028   4.188 -0.8076  0.4281  0.1096
  818MOL0     H10379   3.346   1.074   4.083  0.7319  0.3110  0.6086
  818MOL0     H10380   3.348   0.912   4.152 -1.6518  2.0119  1.1877
  818MOL0     H10381   3.369   1.071   3.786 -2.7672 -0.2213 -3.8370
  818MOL0     H10382   3.128   0.874   3.575  1.3990 -0.8282 -0.9565
  818MOL0     H10383   3.182   1.045   3.623  0.6005  0.3514  1.3372
  818MOL0     H10384   3.353   0.814   3.507  0.0801 -0.2433 -1.7429
  818MOL0     H10385   3.414   0.980   3.539  0.4642 -0.4670  2.5923
  818MOL0     H10386   3.182   0.916   3.357 -1.2649  0.8421  0.3299
  818MOL0     H10387   3.347   0.947   3.300  1.6466  1.9000  0.3930
  818MOL0     H10388   3.169   1.142   3.442  1.5107 -1.2964  1.2602
  818MOL0     H10389   3.212   1.150   3.277 -0.0929  0.6297  1.2339
  818MOL0     H10390   3.572   1.334   3.331 -1.1552 -1.4992 -0.0421
  818MOL0     H10391   3.690   1.519   3.244  0.4205 -0.1418 -0.3615
  818MOL0     H10392   3.645   1.463   3.080 -2.1524 -0.6236  0.5254
  818MOL0     H10393   3.620   1.638   3.142  2.0163  0.2114 -1.2779
  818MOL0     H10394   3.416   1.920   3.032  0.3311  1.6185 -0.1116
  818MOL0     H10395   3.477   2.107   2.901 -2.8717  1.7055 -1.7622
  818MOL0     H10396   3.573   2.039   2.451  3.3970  0.3205  1.9416
  818MOL0     H10397   3.408   2.077   2.474  1.2088 -1.4040 -2.3887
  818MOL0     H10398   3.619   2.281   2.502  1.1137 -1.2521 -0.3869
  818MOL0     H10399   3.534   2.254   2.351  1.4889 -2.1111  1.4393
  818MOL0     H10400   3.467   2.454   2.504  0.6120 -0.9632 -2.2589
  818MOL0     H10401   3.401   2.339   2.620  1.7138  1.4960  0.6527
  818MOL0     H10402   3.295   2.420   2.352  0.2152  0.3486  0.8509
  818MOL0     H10403   3.293   2.244   2.361  3.8051 -1.3283  1.1238
  818MOL0     H10404   3.177   2.414   2.575  0.9056  0.1289  0.2665
  818MOL0     H10405   3.177   2.240   2.578 -1.4397  0.0250  0.2401
  818MOL0     H10406   2.966   2.374   2.476 -0.2585 -0.6880 -0.3341
  818MOL0     H10407   3.045   2.362   2.326 -1.5863 -2.6749 -0.6466
  818MOL0     H10408   2.977   2.135   2.511 -1.0961  0.0304 -0.0363
  818MOL0     H10409   3.086   2.107   2.370  2.3955  2.6853  0.6569
  818MOL0     H10410   2.856   2.058   2.304 -1.6346  1.6808 -0.4845
  818MOL0     H10411   2.902   2.214   2.232  0.5673  0.1653 -0.7219
  818MOL0     H10412   3.522   1.837   2.559 -0.4664 -2.7705  0.8786
  818MOL0     H10413   3.453   1.654   2.711 -3.1399  1.5181  0.1672
  818MOL0     H10414   3.143   1.552   3.200  0.3423  1.9688  0.2055
  818MOL0     H10415   3.143   1.362   3.345 -0.7101  2.0476  1.6411
  818MOL0     H10416   4.488   1.067   4.098  2.1158  0.1367  0.2833
  818MOL0     H10417   4.708   1.064   3.992 -0.0973 -0.6502 -0.9473
  818MOL0     H10418   4.945   1.207   3.403 -0.7651 -2.6463 -0.7160
  818MOL0     H10419   5.182   1.164   3.361  1.4611 -1.5529  0.5317
  818MOL0     H10420   5.462   1.194   3.721 -1.2542 -1.4195  1.4599
  818MOL0     H10421   5.451   1.024   3.681  1.7535  0.2995  1.5476
  818MOL0     H10422   5.617   1.198   3.513 -0.7936 -0.3853 -0.9192
  818MOL0     H10423   5.603   1.023   3.510  0.6760  1.5952 -2.6331
  818MOL0     H10424   5.699   1.004   3.736 -3.5158 -0.9247 -0.4411
  818MOL0     H10425   5.721   1.176   3.749  1.4169 -0.4034  0.0513
  818MOL0     H10426   5.878   1.137   3.537  0.5858  0.3998  1.0655
  818MOL0     H10427   5.837   0.970   3.562 -2.6417  0.1891  1.7782
  818MOL0     H10428   6.154   1.043   3.843  0.8792  3.1403 -1.4113
  818MOL0     H10429   5.249   1.140   3.786  0.1629  2.0650  0.3942
  818MOL0     H10430   5.005   1.150   3.818 -0.6923  0.6520 -0.6326
  819MOL0     O10431   2.457   7.640   0.412  0.4217  0.0737  0.5570
  819MOL0     C10432   2.441   7.698   0.308  0.3176 -0.0228  0.8860
  819MOL0     O10433   2.323   7.709   0.242 -0.1932  0.2954  0.9563
  819MOL0     C10434   2.194   7.702   0.293 -0.8644  0.2719 -0.4895
  819MOL0     C10435   2.088   7.704   0.206  0.7699  0.4924  1.3252
  819MOL0     C10436   1.958   7.734   0.247 -0.0173 -0.3709 -0.7996
  819MOL0     C10437   1.934   7.760   0.382  0.5782  0.1973  0.2966
  819MOL0     O10438   1.806   7.798   0.412  0.2693  0.8018  0.3122
  819MOL0     C10439   1.720   7.709   0.490 -0.8981  0.0156  0.9045
  819MOL0     C10440   1.580   7.763   0.477  0.1890  0.1357 -0.4335
  819MOL0     C10441   1.494   7.706   0.594 -0.7543  0.2727  0.0105
  819MOL0     C10442   1.337   7.733   0.588  0.2846 -0.1863 -0.5138
  819MOL0     C10443   1.270   7.673   0.720  0.7698 -0.0488  0.8588
  819MOL0     C10444   1.192   7.542   0.700  0.3147 -0.3830  0.3016
  819MOL0     C10445   1.157   7.474   0.832  0.1301  0.2439 -0.4216
  819MOL0     C10446   1.080   7.560   0.933  0.3331 -0.2686 -0.0446
  819MOL0     N10447   1.052   7.491   1.058  0.2628 -0.5509  0.4059
  819MOL0     C10448   0.956   7.394   1.068  0.2897 -0.4776  0.3231
  819MOL0     C10449   0.980   7.347   1.194 -0.2225 -0.0225 -0.4442
  819MOL0     C10450   0.876   7.260   1.264 -0.4270 -1.3774  0.4524
  819MOL0     C10451   0.815   7.141   1.184  0.0706  0.4159  0.0469
  819MOL0     C10452   0.914   7.025   1.142  0.2382 -0.4876  0.2314
  819MOL0     C10453   0.868   6.962   1.025 -0.4192  0.0964 -0.2750
  819MOL0     O10454   0.756   6.881   1.055 -0.0933 -0.4061 -0.0295
  819MOL0     C10455   0.663   6.844   0.960  0.3613  0.1016  0.5341
  819MOL0     C10456   0.549   6.766   0.994 -0.1192 -0.2448 -0.9186
  819MOL0     C10457   0.448   6.722   0.908  0.5787 -0.6745  0.6143
  819MOL0     C10458   0.323   6.662   0.961  0.6669  0.1486  0.2688
  819MOL0     C10459   0.462   6.761   0.764 -1.0234  0.4129  0.8324
  819MOL0     C10460   0.377   6.701   0.663  0.4009 -0.2614  0.3644
  819MOL0     O10461   0.275   6.616   0.692 -0.8176 -1.1567  0.6185
  819MOL0     C10462   0.188   6.549   0.600  0.1696  0.8640  0.1085
  819MOL0     C10463   0.181   6.576   0.462  0.3939  0.1922  0.5672
  819MOL0     C10464   0.084   6.507   0.377 -0.2057 -0.9262 -0.1597
  819MOL0     C10465  -0.016   6.423   0.434  0.2567  0.4025  0.0249
  819MOL0     O10466  -0.111   6.353   0.354 -0.8332 -0.1867  0.8236
  819MOL0     C10467  -0.083   6.320   0.211  0.3229 -0.3672  0.0212
  819MOL0     C10468  -0.194   6.234   0.146 -0.1592 -0.5042  0.4840
  819MOL0     C10469  -0.184   6.237  -0.009  0.3661 -0.0734 -0.0935
  819MOL0     C10470  -0.233   6.364  -0.077  0.6072  0.0200  0.4975
  819MOL0     C10471  -0.261   6.353  -0.226  0.7107 -0.6216 -0.7911
  819MOL0     C10472  -0.163   6.279  -0.314 -0.2707 -0.4643 -0.2140
  819MOL0     C10473  -0.217   6.251  -0.450  0.0318  0.5129 -0.7714
  819MOL0     C10474  -0.111   6.204  -0.551 -0.0674  0.3842 -0.3077
  819MOL0    Cl10475   0.024   6.316  -0.569 -0.3069 -0.0759 -0.2727
  819MOL0     C10476  -0.018   6.406   0.576 -0.4350 -0.6476  0.6143
  819MOL0     C10477   0.095   6.457   0.649  0.3918 -0.1587  0.0648
  819MOL0     O10478   0.415   6.719   0.553 -0.2240 -0.2238  0.6490
  819MOL0     C10479   0.582   6.827   0.734 -0.5224 -0.7105 -0.2092
  819MOL0     C10480   0.677   6.867   0.828  0.1500  0.1189  0.2129
  819MOL0     N10481   1.091   7.404   1.246 -0.6791 -0.9744 -0.2714
  819MOL0     N10482   1.134   7.499   1.163  0.8022 -0.1913  0.2856
  819MOL0     C10483   2.035   7.749   0.474 -0.0318 -0.6249 -1.1696
  819MOL0     C10484   2.166   7.720   0.430  0.1258 -0.3847 -0.0300
  819MOL0     C10485   2.561   7.751   0.237 -0.1351  0.4679  0.0073
  819MOL0     C10486   2.689   7.724   0.288 -0.1191 -0.0576 -0.4142
  819MOL0     C10487   2.801   7.782   0.224  0.1382 -0.3890  0.2448
  819MOL0     C10488   2.787   7.863   0.114 -0.1874  0.2701  0.0961
  819MOL0     O10489   2.906   7.896   0.064 -0.0933  0.4607 -0.1570
  819MOL0     C10490   2.915   7.974  -0.054  0.4757  0.4585 -0.5828
  819MOL0     C10491   3.062   8.012  -0.075 -0.1144  1.2485 -0.2071
  819MOL0     C10492   3.138   7.894  -0.144 -0.2863 -0.0615  0.5647
  819MOL0     C10493   3.286   7.934  -0.166  0.2097 -0.1729  0.6939
  819MOL0     C10494   3.266   8.027  -0.274 -0.9351  0.3255 -0.5336
  819MOL0     C10495   3.266   8.095  -0.373  0.3568 -0.3381 -0.4078
  819MOL0     C10496   2.662   7.905   0.075 -0.0792 -0.9933  0.3498
  819MOL0     C10497   2.547   7.850   0.135  0.5357  0.3480 -0.2116
  819MOL0     H10498   2.119   7.693   0.102 -1.1610  0.5162  0.7160
  819MOL0     H10499   1.880   7.741   0.171  0.6421 -2.1116 -1.7035
  819MOL0     H10500   1.727   7.610   0.445 -0.6369  1.1889 -1.8590
  819MOL0     H10501   1.760   7.715   0.591  0.9823  0.2288  0.1924
  819MOL0     H10502   1.579   7.873   0.480  1.0248  0.1438 -0.3861
  819MOL0     H10503   1.542   7.731   0.379 -2.4781  1.5195  0.0495
  819MOL0     H10504   1.519   7.601   0.610  0.5090  0.1552 -2.3180
  819MOL0     H10505   1.525   7.755   0.687 -0.1482  0.4155 -0.2619
  819MOL0     H10506   1.319   7.840   0.581 -0.6104 -0.4430 -3.3105
  819MOL0     H10507   1.280   7.690   0.506 -0.5243  0.7361 -0.4436
  819MOL0     H10508   1.344   7.657   0.799  1.4251  3.0597  1.0192
  819MOL0     H10509   1.203   7.752   0.755  2.9036  1.5222  1.6686
  819MOL0     H10510   1.094   7.562   0.654 -0.1762  2.2397  2.2359
  819MOL0     H10511   1.247   7.466   0.644 -0.3570 -2.5205  2.4108
  819MOL0     H10512   1.090   7.395   0.799 -0.4121  1.6120 -2.7592
  819MOL0     H10513   1.243   7.433   0.888 -1.3078  0.3069  1.9799
  819MOL0     H10514   0.991   7.594   0.880  2.5033  3.3453 -1.7889
  819MOL0     H10515   1.141   7.648   0.955 -0.0203  0.1716 -0.7692
  819MOL0     H10516   0.870   7.374   1.004 -0.5385  2.8989  0.1930
  819MOL0     H10517   0.920   7.218   1.355  3.2394 -3.7613 -2.1310
  819MOL0     H10518   0.800   7.330   1.300  0.7061  0.2756 -0.2241
  819MOL0     H10519   0.772   7.186   1.094  1.9810 -0.2497 -1.2674
  819MOL0     H10520   0.730   7.096   1.236 -0.1174  1.2605  0.4905
  819MOL0     H10521   0.943   6.963   1.226  1.0654  2.3723  2.2173
  819MOL0     H10522   1.011   7.067   1.113 -0.2335  0.0266 -0.6423
  819MOL0     H10523   0.949   6.899   0.988  0.1803 -0.9616  2.5452
  819MOL0     H10524   0.836   7.038   0.954 -1.3434 -0.3058 -0.3140
  819MOL0     H10525   0.543   6.737   1.099 -0.2805  0.7663 -0.6364
  819MOL0     H10526   0.228   6.711   0.940 -1.1451 -2.4438  1.9651
  819MOL0     H10527   0.314   6.563   0.916  0.1904  0.8928 -1.3729
  819MOL0     H10528   0.313   6.654   1.069  1.6060 -1.5087  0.2555
  819MOL0     H10529   0.258   6.636   0.415  0.1677 -1.1386 -1.6358
  819MOL0     H10530   0.073   6.526   0.271 -3.8798  0.4750  0.3036
  819MOL0     H10531  -0.075   6.418   0.163 -0.7730 -1.2437 -2.1281
  819MOL0     H10532   0.003   6.260   0.181  0.1839  0.1315 -1.4925
  819MOL0     H10533  -0.191   6.133   0.188 -0.7189 -0.1130  1.5333
  819MOL0     H10534  -0.292   6.265   0.184 -0.8825 -0.7198 -1.1575
  819MOL0     H10535  -0.257   6.162  -0.042 -0.9541  1.7425 -1.5054
  819MOL0     H10536  -0.084   6.208  -0.041  0.6433  1.0389 -0.2534
  819MOL0     H10537  -0.330   6.392  -0.035  0.6037  0.2366  0.3441
  819MOL0     H10538  -0.171   6.454  -0.073 -1.4870  1.4863  3.2216
  819MOL0     H10539  -0.288   6.452  -0.264 -1.8573 -1.4573 -1.2755
  819MOL0     H10540  -0.351   6.294  -0.241  0.6110 -0.9306  0.8417
  819MOL0     H10541  -0.071   6.336  -0.326 -0.9276  0.8188  0.5888
  819MOL0     H10542  -0.132   6.193  -0.254 -1.4180 -0.1495  0.8800
  819MOL0     H10543  -0.253   6.349  -0.482 -0.2870  0.5353 -0.3364
  819MOL0     H10544  -0.295   6.175  -0.438 -0.6654  1.1406 -1.2943
  819MOL0     H10545  -0.166   6.188  -0.644 -3.6545 -1.5211  1.9251
  819MOL0     H10546  -0.068   6.109  -0.519 -0.0393  0.4890 -0.0309
  819MOL0     H10547  -0.098   6.347   0.620 -1.4293  0.2888  0.1054
  819MOL0     H10548   0.107   6.446   0.756  0.9530  0.3780  0.0645
  819MOL0     H10549   0.625   6.838   0.635 -0.6058 -0.2273 -0.1931
  819MOL0     H10550   0.772   6.902   0.790  0.0204  0.0473 -0.1763
  819MOL0     H10551   2.022   7.774   0.579  0.5997  0.4249 -1.3188
  819MOL0     H10552   2.248   7.706   0.500 -1.6046 -3.2928  1.6561
  819MOL0     H10553   2.701   7.646   0.363  0.8912 -0.0053 -0.5171
  819MOL0     H10554   2.903   7.761   0.252  0.7573  0.4925 -1.2555
  819MOL0     H10555   2.880   7.916  -0.140  2.0465  1.0354 -1.6597
  819MOL0     H10556   2.852   8.063  -0.060 -1.0740 -0.5952 -0.5958
  819MOL0     H10557   3.104   8.027   0.025  0.2508 -2.2516  0.2847
  819MOL0     H10558   3.068   8.107  -0.128  2.7654  0.5651 -1.2503
  819MOL0     H10559   3.090   7.871  -0.240 -0.9240 -1.5787  1.2120
  819MOL0     H10560   3.144   7.801  -0.087  0.9683 -0.2534  0.1380
  819MOL0     H10561   3.344   7.849  -0.202 -1.3055 -0.7402 -0.5481
  819MOL0     H10562   3.336   7.971  -0.076  2.0927 -1.8471  0.3962
  819MOL0     H10563   3.251   8.164  -0.453 -1.0111 -0.1681 -0.0285
  819MOL0     H10564   2.655   7.979  -0.004  2.9528  1.1547  1.8807
  819MOL0     H10565   2.451   7.882   0.098  0.4073 -1.0022 -1.1181
  820MOL0     O10566  10.723  10.977   7.380 -0.0791 -0.2405  0.1109
  820MOL0     C10567  10.822  10.933   7.433 -0.1445 -0.0406 -0.9943
  820MOL0     O10568  10.838  10.922   7.576  0.3177 -0.0910  0.4368
  820MOL0     C10569  10.739  10.979   7.657 -0.3053  0.6916  0.0152
  820MOL0     C10570  10.610  10.930   7.639 -0.1620 -0.2225  0.1594
  820MOL0     C10571  10.510  10.977   7.724  0.0627 -0.0861  0.4441
  820MOL0     C10572  10.529  11.075   7.827 -0.5971 -0.3677 -0.0722
  820MOL0     O10573  10.430  11.109   7.912  0.0149  0.3361  0.0543
  820MOL0     C10574  10.436  11.199   8.021  0.9402 -0.1045  0.3786
  820MOL0     C10575  10.302  11.205   8.093  0.0414 -0.2592  0.0674
  820MOL0     C10576  10.250  11.063   8.137 -0.5070  0.5303  0.1522
  820MOL0     C10577  10.106  11.037   8.133 -0.1084  0.3180  0.6690
  820MOL0     C10578  10.057  11.012   7.992  0.5715 -0.4532 -0.3848
  820MOL0     C10579   9.913  10.970   7.978 -0.2798 -0.2960  0.2545
  820MOL0     C10580   9.868  10.985   7.833  0.0607 -0.2549  0.8291
  820MOL0     C10581   9.730  10.919   7.806  0.3962 -0.7079 -1.0834
  820MOL0     N10582   9.622  10.997   7.871  0.6312 -0.0385 -0.8691
  820MOL0     C10583   9.538  11.080   7.803  0.3711 -0.2033  0.7397
  820MOL0     C10584   9.446  11.126   7.889  0.7206  1.5982 -0.1013
  820MOL0     C10585   9.353  11.239   7.874  0.3813 -0.0562 -0.0601
  820MOL0     C10586   9.222  11.198   7.954 -0.1759 -0.4013  0.2396
  820MOL0     C10587   9.135  11.315   7.960 -0.3776  0.0998  0.5358
  820MOL0     C10588   8.991  11.295   7.997 -0.2550  0.5895 -0.1715
  820MOL0     O10589   8.923  11.417   7.986 -0.3065 -0.0526 -0.3259
  820MOL0     C10590   8.788  11.426   8.026  0.2427 -0.1818  0.1330
  820MOL0     C10591   8.736  11.550   8.055  0.6762 -0.2947  0.0310
  820MOL0     C10592   8.606  11.575   8.103  0.0022  0.0954 -0.3739
  820MOL0     C10593   8.554  11.716   8.130 -0.7332 -0.8652 -0.4063
  820MOL0     C10594   8.524  11.453   8.127  0.0718  0.2200 -0.0454
  820MOL0     C10595   8.382  11.465   8.163  0.4185  0.3133  0.1234
  820MOL0     O10596   8.301  11.364   8.102 -0.2886 -0.4794  0.1710
  820MOL0     C10597   8.166  11.381   8.110 -0.7071  0.1353 -0.2639
  820MOL0     C10598   8.110  11.356   8.230  0.0304  0.3429  0.1461
  820MOL0     C10599   7.968  11.363   8.253  0.6624 -0.3813 -0.2201
  820MOL0     C10600   7.894  11.393   8.143  0.8723 -0.3662  0.3630
  820MOL0     O10601   7.760  11.413   8.150  0.2589 -0.0741  0.0909
  820MOL0     C10602   7.728  11.532   8.220 -0.7288 -0.0997 -0.2593
  820MOL0     C10603   7.663  11.495   8.357 -0.1797 -0.1233 -0.1616
  820MOL0     C10604   7.552  11.398   8.335  0.3397 -0.0846 -0.6533
  820MOL0     C10605   7.427  11.465   8.272  0.1892  0.9742 -0.3379
  820MOL0     C10606   7.304  11.364   8.259 -0.4709 -1.6705  0.3186
  820MOL0     C10607   7.163  11.410   8.322  1.1033  0.0737  0.3747
  820MOL0     C10608   7.058  11.290   8.308  0.0731  0.4700 -0.2079
  820MOL0     C10609   6.923  11.336   8.350 -0.4710  0.3888 -0.4185
  820MOL0    Cl10610   6.863  11.427   8.212  0.1689 -0.2430  0.1391
  820MOL0     C10611   7.953  11.411   8.012  0.3182 -0.3217 -0.4424
  820MOL0     C10612   8.092  11.423   7.998  0.0143  1.3566  0.0664
  820MOL0     O10613   8.340  11.533   8.258  0.2928  0.8520 -0.2780
  820MOL0     C10614   8.583  11.323   8.112 -0.0194 -0.6874  0.9268
  820MOL0     C10615   8.711  11.311   8.050 -0.4781  0.0569 -0.7271
  820MOL0     N10616   9.465  11.051   8.006 -0.7948 -0.2200  0.7662
  820MOL0     N10617   9.569  10.980   7.996 -0.2676  0.1216 -0.2105
  820MOL0     C10618  10.663  11.110   7.838 -0.2693 -1.0457  0.1823
  820MOL0     C10619  10.767  11.063   7.765 -0.8188 -0.1285 -0.2638
  820MOL0     C10620  10.938  10.895   7.355  0.0072 -0.0584  0.6147
  820MOL0     C10621  11.050  10.824   7.410 -0.5035  0.0509  0.6430
  820MOL0     C10622  11.167  10.803   7.340  0.0222  0.6306 -0.7198
  820MOL0     C10623  11.185  10.847   7.206  0.1410  0.2841  0.8950
  820MOL0     O10624  11.295  10.823   7.130  0.0237  0.3101  0.4942
  820MOL0     C10625  11.420  10.787   7.186 -0.5912  0.3319 -0.9178
  820MOL0     C10626  11.486  10.910   7.244 -0.9941  0.1036  0.1878
  820MOL0     C10627  11.629  10.871   7.291 -1.1642 -0.0181 -0.1143
  820MOL0     C10628  11.640  10.857   7.448 -0.2052 -0.5707  0.4411
  820MOL0     C10629  11.774  10.799   7.473 -0.6290 -0.0091 -0.4723
  820MOL0     C10630  11.881  10.743   7.494  0.4423  0.9738 -0.1252
  820MOL0     C10631  11.077  10.920   7.153  0.1471  0.4272 -0.0707
  820MOL0     C10632  10.959  10.934   7.220  0.5154 -0.8905 -1.2409
  820MOL0     H10633  10.577  10.860   7.562 -1.0503  0.8575 -0.4655
  820MOL0     H10634  10.408  10.945   7.702 -0.5288  1.1948  1.1802
  820MOL0     H10635  10.520  11.175   8.087 -0.0663 -1.0942  1.3263
  820MOL0     H10636  10.449  11.298   7.975  0.0456 -0.0640  0.1866
  820MOL0     H10637  10.305  11.276   8.176 -1.8819 -0.7187  0.5757
  820MOL0     H10638  10.228  11.243   8.022  1.3073  0.7510 -0.7654
  820MOL0     H10639  10.298  10.982   8.080 -0.7461 -0.4176  1.2590
  820MOL0     H10640  10.280  11.041   8.240 -0.1406 -0.1219 -0.0822
  820MOL0     H10641  10.077  10.952   8.196  0.0694  0.5306  1.0391
  820MOL0     H10642  10.044  11.117   8.174  1.4112  1.9473 -0.0838
  820MOL0     H10643  10.055  11.112   7.947 -2.2382 -0.2953 -0.1224
  820MOL0     H10644  10.114  10.933   7.941  0.2515 -0.9163 -0.0281
  820MOL0     H10645   9.899  10.870   8.020  0.5989 -0.6073 -0.1705
  820MOL0     H10646   9.849  11.039   8.034 -0.7270  0.4637 -1.1417
  820MOL0     H10647   9.868  11.087   7.795 -0.5424 -1.0581 -1.4896
  820MOL0     H10648   9.943  10.934   7.773 -0.6881  1.7202 -2.0122
  820MOL0     H10649   9.734  10.818   7.849 -1.5600 -0.1410  0.6163
  820MOL0     H10650   9.715  10.906   7.699  0.3654 -1.5516 -0.9779
  820MOL0     H10651   9.543  11.107   7.697 -0.0335  1.9656  1.2106
  820MOL0     H10652   9.391  11.338   7.900  0.8886 -0.3179  0.2020
  820MOL0     H10653   9.320  11.248   7.770 -0.5271  0.4982  0.2682
  820MOL0     H10654   9.250  11.181   8.058  2.1128 -1.4050 -0.4586
  820MOL0     H10655   9.169  11.119   7.900 -1.2288  0.7617 -0.4915
  820MOL0     H10656   9.140  11.360   7.860  2.2777  0.8820  0.9378
  820MOL0     H10657   9.176  11.390   8.028  0.4950  0.8846 -0.8235
  820MOL0     H10658   8.989  11.263   8.102  1.7086  3.2656  0.7921
  820MOL0     H10659   8.952  11.215   7.934 -1.3740  3.3597 -3.2772
  820MOL0     H10660   8.788  11.641   8.027  0.0150  0.4517  1.1408
  820MOL0     H10661   8.554  11.729   8.239  1.8005  0.2528 -0.4904
  820MOL0     H10662   8.618  11.792   8.086  1.6042 -1.9104  0.9591
  820MOL0     H10663   8.454  11.733   8.090 -0.6482 -0.2614 -0.3593
  820MOL0     H10664   8.175  11.335   8.314  1.4156  1.1649 -0.6735
  820MOL0     H10665   7.918  11.354   8.349 -1.3556 -4.8494 -1.4062
  820MOL0     H10666   7.816  11.592   8.246 -0.0488 -1.6519  1.2155
  820MOL0     H10667   7.653  11.582   8.159 -1.4051  0.8973  1.3020
  820MOL0     H10668   7.731  11.453   8.432  0.2777 -0.1065 -0.5625
  820MOL0     H10669   7.621  11.581   8.411 -3.3207 -2.3317  1.2477
  820MOL0     H10670   7.529  11.359   8.434  3.4865 -0.9463 -0.1642
  820MOL0     H10671   7.585  11.310   8.280  1.8272  1.0005 -1.5618
  820MOL0     H10672   7.394  11.536   8.348  0.2019 -1.5628  2.2048
  820MOL0     H10673   7.442  11.516   8.176 -1.0020  0.1373 -0.9896
  820MOL0     H10674   7.338  11.272   8.306 -1.0899 -0.9092  2.3536
  820MOL0     H10675   7.280  11.354   8.153 -2.7157 -1.3462  0.7587
  820MOL0     H10676   7.165  11.449   8.424  1.9675  0.4181  0.2299
  820MOL0     H10677   7.127  11.486   8.252 -2.9185 -0.8161  1.2006
  820MOL0     H10678   7.082  11.208   8.377 -1.9632 -0.5606 -0.6663
  820MOL0     H10679   7.055  11.243   8.209 -0.4694 -2.1947  1.0024
  820MOL0     H10680   6.926  11.401   8.438 -0.1909  1.6793 -1.3498
  820MOL0     H10681   6.857  11.252   8.373  0.4181  0.0291  0.8855
  820MOL0     H10682   7.885  11.419   7.928 -2.4261 -2.0502  1.4459
  820MOL0     H10683   8.141  11.428   7.901 -0.7092  0.9963 -0.3272
  820MOL0     H10684   8.529  11.232   8.134  0.8579 -1.1170  1.3456
  820MOL0     H10685   8.756  11.217   8.021  3.0684  1.1092  0.8344
  820MOL0     H10686  10.687  11.189   7.909  1.2581 -2.0194  0.7837
  820MOL0     H10687  10.866  11.093   7.796 -0.4971 -0.4687 -0.9454
  820MOL0     H10688  11.050  10.796   7.515  0.7077 -1.1656  0.3358
  820MOL0     H10689  11.241  10.742   7.390  1.9367 -0.2323 -4.2171
  820MOL0     H10690  11.411  10.703   7.256  2.3097 -0.4926 -1.3995
  820MOL0     H10691  11.486  10.743   7.111 -1.3475 -0.8509 -0.9217
  820MOL0     H10692  11.423  10.945   7.326 -1.1883 -1.8787  0.9380
  820MOL0     H10693  11.500  10.979   7.160  0.1276 -2.2113 -1.6612
  820MOL0     H10694  11.704  10.948   7.268  0.6330 -0.4191  3.6637
  820MOL0     H10695  11.662  10.780   7.242  0.9801  1.3652 -1.4156
  820MOL0     H10696  11.560  10.786   7.471 -0.5640 -0.1440  0.5216
  820MOL0     H10697  11.612  10.947   7.504 -4.3632 -0.8478 -0.8673
  820MOL0     H10698  11.982  10.712   7.513  0.0761 -0.8911 -0.9332
  820MOL0     H10699  11.092  10.966   7.056  0.7900  0.3290 -0.0209
  820MOL0     H10700  10.880  10.993   7.175 -0.9356 -2.3456 -0.7111
  821MOL0     O10701   7.500   7.681   8.625 -0.5043 -0.8778  0.1454
  821MOL0     C10702   7.499   7.743   8.515  0.1877  0.4273  0.2577
  821MOL0     O10703   7.382   7.792   8.454  0.9694  0.0482  0.3179
  821MOL0     C10704   7.276   7.811   8.530 -0.1573  0.2071  0.7643
  821MOL0     C10705   7.279   7.896   8.645 -0.3013  0.1689 -0.1142
  821MOL0     C10706   7.169   7.898   8.724  0.4413  0.6098  0.2344
  821MOL0     C10707   7.064   7.809   8.706  0.2906 -0.3730 -0.3316
  821MOL0     O10708   6.967   7.799   8.793  0.3424  0.0915 -0.4770
  821MOL0     C10709   6.930   7.892   8.902 -0.7499  0.0504  0.4335
  821MOL0     C10710   6.837   8.007   8.869 -0.0705 -0.3526  0.2347
  821MOL0     C10711   6.691   7.974   8.849  0.5742  0.1086 -0.5611
  821MOL0     C10712   6.672   7.876   8.728 -0.4670 -0.3578  1.0621
  821MOL0     C10713   6.523   7.875   8.688  0.6335 -0.3653  0.5821
  821MOL0     C10714   6.506   7.874   8.534  0.6060 -0.0021  0.3759
  821MOL0     C10715   6.363   7.925   8.496 -0.3136  0.5075  0.0189
  821MOL0     C10716   6.336   7.940   8.336  0.7777  0.5859 -0.0182
  821MOL0     N10717   6.204   7.991   8.326  0.2819 -0.5681  0.6282
  821MOL0     C10718   6.184   8.119   8.279 -0.3511 -0.1647  0.1692
  821MOL0     C10719   6.055   8.134   8.260 -0.3219 -0.4622 -0.1770
  821MOL0     C10720   5.981   8.261   8.213  0.1119 -0.0506 -0.6382
  821MOL0     C10721   6.016   8.375   8.303 -1.3242 -0.3547 -0.6556
  821MOL0     C10722   5.968   8.509   8.245  0.1532 -0.2311 -0.5010
  821MOL0     C10723   5.827   8.552   8.296  0.9389 -0.6684 -0.8376
  821MOL0     O10724   5.730   8.466   8.241  1.0542 -0.1775 -0.0304
  821MOL0     C10725   5.600   8.488   8.289 -0.5210  0.5791  0.1352
  821MOL0     C10726   5.557   8.596   8.361 -0.3741 -0.2436  0.4493
  821MOL0     C10727   5.425   8.608   8.414  0.5265 -0.5241  0.1808
  821MOL0     C10728   5.396   8.728   8.513 -0.2212  0.3187  1.4640
  821MOL0     C10729   5.330   8.509   8.392  0.2672  0.6401 -0.6064
  821MOL0     C10730   5.194   8.515   8.445 -0.0456  0.7530  0.0677
  821MOL0     O10731   5.121   8.631   8.446 -0.1558 -0.0088 -0.2758
  821MOL0     C10732   5.007   8.643   8.519  0.5968  1.3647  0.3562
  821MOL0     C10733   4.892   8.681   8.448 -1.0157 -0.4251  0.8146
  821MOL0     C10734   4.772   8.706   8.523 -0.1193 -0.1300  1.3009
  821MOL0     C10735   4.770   8.681   8.656  0.8343  0.5190 -0.7041
  821MOL0     O10736   4.651   8.704   8.725  0.2517  0.3485 -0.1778
  821MOL0     C10737   4.623   8.622   8.845  0.6023 -0.6934 -0.2277
  821MOL0     C10738   4.476   8.601   8.855  0.5840 -0.2330 -0.4981
  821MOL0     C10739   4.389   8.722   8.862 -0.4577  0.0406  0.6304
  821MOL0     C10740   4.260   8.701   8.945 -0.2472 -0.3488  0.0720
  821MOL0     C10741   4.189   8.839   8.957  0.0657  0.0641 -0.1476
  821MOL0     C10742   4.037   8.824   8.990  0.4331  0.0886 -0.7610
  821MOL0     C10743   4.024   8.747   9.124 -0.1728 -0.2201 -1.0732
  821MOL0     C10744   3.900   8.787   9.210 -0.3714 -0.1726  0.8075
  821MOL0    Cl10745   3.754   8.719   9.151  0.4328 -0.1821 -0.1020
  821MOL0     C10746   4.885   8.632   8.728  0.4193  0.1120 -0.0186
  821MOL0     C10747   4.998   8.620   8.651  0.4797  0.6589  0.1879
  821MOL0     O10748   5.157   8.400   8.481  0.1296  0.0018  0.4287
  821MOL0     C10749   5.367   8.399   8.311 -0.7818 -0.9726 -0.0057
  821MOL0     C10750   5.501   8.390   8.259 -0.1269  0.8429 -0.0895
  821MOL0     N10751   5.989   8.005   8.269  0.0607 -0.9875 -0.4521
  821MOL0     N10752   6.089   7.921   8.297  0.3760  0.0491 -0.9026
  821MOL0     C10753   7.054   7.730   8.590 -0.5183  0.2728 -0.2268
  821MOL0     C10754   7.165   7.734   8.503  0.5806 -0.5465 -0.4965
  821MOL0     C10755   7.620   7.753   8.440 -0.0002  0.7939  0.3182
  821MOL0     C10756   7.622   7.821   8.313 -0.2898 -0.0018 -0.8232
  821MOL0     C10757   7.737   7.825   8.228  0.3362 -0.3163 -0.0994
  821MOL0     C10758   7.855   7.772   8.276 -0.0160 -1.1116 -0.2164
  821MOL0     O10759   7.966   7.769   8.189 -1.0015 -0.6013  0.5521
  821MOL0     C10760   8.048   7.647   8.186  0.2335  0.0430  0.5139
  821MOL0     C10761   8.016   7.567   8.065  0.3062 -0.0566  0.1340
  821MOL0     C10762   7.890   7.467   8.066 -0.1540 -0.1332 -0.1678
  821MOL0     C10763   7.861   7.397   7.935 -0.1709 -0.3520  0.7918
  821MOL0     C10764   7.716   7.381   7.924 -0.0194 -0.2794  0.7216
  821MOL0     C10765   7.591   7.384   7.928 -0.8572  0.2716  0.2647
  821MOL0     C10766   7.858   7.714   8.407 -0.4410  0.5450 -0.2973
  821MOL0     C10767   7.740   7.691   8.486 -0.0236  0.5148  1.0628
  821MOL0     H10768   7.359   7.961   8.678  0.5637  0.7797 -3.0669
  821MOL0     H10769   7.169   7.972   8.804  0.6403  2.8238 -1.6841
  821MOL0     H10770   6.885   7.829   8.979 -1.4187 -0.6592 -0.5111
  821MOL0     H10771   7.022   7.934   8.943  0.2047  1.4818 -2.8797
  821MOL0     H10772   6.848   8.072   8.956 -1.5751  0.0102  0.1700
  821MOL0     H10773   6.875   8.051   8.777  1.2203 -2.5832 -0.3926
  821MOL0     H10774   6.655   7.917   8.935 -2.1256  1.8695 -0.4022
  821MOL0     H10775   6.633   8.066   8.839 -1.6615 -1.2384 -0.7850
  821MOL0     H10776   6.713   7.923   8.638  2.1834 -1.2825  1.7008
  821MOL0     H10777   6.705   7.773   8.743  0.0828 -0.1190  1.5343
  821MOL0     H10778   6.486   7.784   8.736 -1.0589  0.0829  0.1949
  821MOL0     H10779   6.465   7.961   8.722 -0.7429 -0.1501 -2.0053
  821MOL0     H10780   6.572   7.953   8.496 -1.8715  1.2285 -1.6308
  821MOL0     H10781   6.541   7.781   8.488 -0.2626 -0.7412  1.1653
  821MOL0     H10782   6.300   7.842   8.531 -0.9174 -0.2684 -2.6709
  821MOL0     H10783   6.342   8.020   8.545 -0.4175  0.6951 -0.3883
  821MOL0     H10784   6.339   7.849   8.276  1.8730  0.4774  0.1710
  821MOL0     H10785   6.405   8.011   8.288 -0.8537  1.5114 -1.0857
  821MOL0     H10786   6.254   8.202   8.269 -0.6719  0.0854  0.0020
  821MOL0     H10787   5.992   8.281   8.107 -1.5778  1.0968 -0.6367
  821MOL0     H10788   5.874   8.238   8.223  0.5715 -1.8727  0.6667
  821MOL0     H10789   6.124   8.387   8.315 -1.2633 -0.1556 -1.3359
  821MOL0     H10790   5.976   8.362   8.404  0.3956 -1.0689 -0.0302
  821MOL0     H10791   5.963   8.499   8.137 -2.8803 -1.1423 -0.3687
  821MOL0     H10792   6.043   8.584   8.272 -0.1907 -1.1183  3.7459
  821MOL0     H10793   5.803   8.648   8.251 -4.4649 -1.8244 -1.0108
  821MOL0     H10794   5.821   8.554   8.405  0.7397  2.0529 -0.8330
  821MOL0     H10795   5.629   8.677   8.370 -1.3735  0.6426  0.6522
  821MOL0     H10796   5.494   8.741   8.559  0.0655 -0.5233  1.1274
  821MOL0     H10797   5.372   8.822   8.462 -0.0895 -0.1954  0.4273
  821MOL0     H10798   5.317   8.689   8.578 -2.2751 -1.4193 -1.7712
  821MOL0     H10799   4.898   8.704   8.342 -0.9650  0.1265  0.9360
  821MOL0     H10800   4.685   8.751   8.477 -0.6884  0.5262  2.9435
  821MOL0     H10801   4.671   8.524   8.848 -0.1306 -1.0776 -0.7937
  821MOL0     H10802   4.648   8.679   8.935 -0.6270 -0.5036  0.0088
  821MOL0     H10803   4.441   8.541   8.770 -1.5946  1.9462 -1.2638
  821MOL0     H10804   4.453   8.533   8.937  0.7407 -4.4668 -3.6441
  821MOL0     H10805   4.358   8.746   8.759 -0.5056  0.5982  0.7680
  821MOL0     H10806   4.444   8.806   8.906 -2.2295  2.3534 -1.2291
  821MOL0     H10807   4.203   8.623   8.893  0.5936 -1.3233  0.5592
  821MOL0     H10808   4.283   8.658   9.043  2.7764 -2.0854 -1.2568
  821MOL0     H10809   4.194   8.894   8.862  0.3019 -0.6230 -0.5431
  821MOL0     H10810   4.253   8.893   9.028  0.1472 -1.5083  1.0261
  821MOL0     H10811   3.993   8.922   9.009 -1.8372 -1.4948  3.4418
  821MOL0     H10812   3.987   8.787   8.900  0.0105  3.2437 -1.9681
  821MOL0     H10813   4.118   8.765   9.179 -1.2945 -0.5319  1.0660
  821MOL0     H10814   4.021   8.639   9.109  1.6752 -0.2925 -1.1803
  821MOL0     H10815   3.888   8.896   9.216 -1.0193 -0.0518 -1.5362
  821MOL0     H10816   3.908   8.755   9.314  0.1225  1.2065  1.2243
  821MOL0     H10817   4.895   8.612   8.834 -2.6242 -0.0086  0.3237
  821MOL0     H10818   5.091   8.601   8.704  2.0776  2.2473 -1.8745
  821MOL0     H10819   5.307   8.311   8.289  0.3351 -1.5618 -0.7765
  821MOL0     H10820   5.517   8.299   8.202 -0.5242 -0.8424  2.3290
  821MOL0     H10821   6.963   7.683   8.555 -0.6803  0.6103 -0.2536
  821MOL0     H10822   7.170   7.660   8.424 -0.4617 -3.0827  1.6900
  821MOL0     H10823   7.531   7.866   8.276 -2.0459 -2.7210 -0.1317
  821MOL0     H10824   7.723   7.885   8.139 -1.0811  0.3361  0.5356
  821MOL0     H10825   8.152   7.681   8.185  0.3184 -0.1468  1.5264
  821MOL0     H10826   8.038   7.578   8.270  0.2403 -0.8748 -0.2227
  821MOL0     H10827   8.100   7.512   8.023 -0.8065 -1.8956  0.2086
  821MOL0     H10828   7.985   7.631   7.981  0.3745 -2.0511 -1.4781
  821MOL0     H10829   7.805   7.525   8.101  0.2006 -0.5085  1.4093
  821MOL0     H10830   7.909   7.384   8.136  1.1701 -0.2782 -0.6660
  821MOL0     H10831   7.900   7.295   7.933  0.6844 -0.0264  0.4875
  821MOL0     H10832   7.903   7.454   7.851  1.1053 -1.7136  0.4712
  821MOL0     H10833   7.484   7.389   7.929 -1.0748 -2.7848  0.4525
  821MOL0     H10834   7.946   7.671   8.454 -1.0867  0.2981  0.7125
  821MOL0     H10835   7.741   7.642   8.583  1.2784  3.9807  2.9569
  822MOL0     O10836   4.437   5.747   8.445 -0.3451  0.1711 -0.4081
  822MOL0     C10837   4.472   5.701   8.338 -0.8244 -0.0985  0.3679
  822MOL0     O10838   4.399   5.635   8.247  0.1671  0.6736 -0.0784
  822MOL0     C10839   4.262   5.618   8.244 -1.0415 -0.1811 -1.4200
  822MOL0     C10840   4.213   5.527   8.149 -0.5441 -1.0185 -0.0437
  822MOL0     C10841   4.078   5.519   8.126 -0.3129  0.4376  0.1246
  822MOL0     C10842   3.992   5.605   8.197  0.6928 -0.2081  0.4020
  822MOL0     O10843   3.862   5.578   8.174 -0.5320 -0.1615  0.3267
  822MOL0     C10844   3.755   5.625   8.256  0.2076  0.2574 -0.3866
  822MOL0     C10845   3.625   5.559   8.198  0.1055 -0.0267 -0.7018
  822MOL0     C10846   3.493   5.608   8.260  0.2516  0.0739  0.3497
  822MOL0     C10847   3.376   5.538   8.180 -0.0604 -1.3865  0.7927
  822MOL0     C10848   3.235   5.594   8.230  0.4475 -0.0012  0.1888
  822MOL0     C10849   3.106   5.528   8.155  0.5466 -0.2247 -0.2671
  822MOL0     C10850   3.108   5.525   8.001 -0.4675 -0.7723  0.1182
  822MOL0     C10851   3.127   5.663   7.935 -0.0427  0.0418  0.3263
  822MOL0     N10852   2.994   5.725   7.915  0.7165 -0.0570 -0.3886
  822MOL0     C10853   2.897   5.693   7.822  0.2197 -0.0355 -1.1311
  822MOL0     C10854   2.796   5.772   7.854 -0.0910  0.0522  0.1277
  822MOL0     C10855   2.660   5.798   7.780 -0.6532  0.4099  0.5240
  822MOL0     C10856   2.685   5.831   7.637  0.1567 -0.6642  1.0977
  822MOL0     C10857   2.574   5.930   7.578 -0.1703  0.3110  0.5638
  822MOL0     C10858   2.440   5.859   7.577  0.9075 -0.5443 -0.5785
  822MOL0     O10859   2.335   5.954   7.547 -0.2032  0.0794  0.2829
  822MOL0     C10860   2.205   5.926   7.571  0.6498  1.0184  0.1433
  822MOL0     C10861   2.153   5.801   7.621 -0.9027 -0.5873  0.4047
  822MOL0     C10862   2.012   5.786   7.645  0.6238 -0.8853  0.1552
  822MOL0     C10863   1.970   5.659   7.707 -0.3701 -1.0312  0.2461
  822MOL0     C10864   1.924   5.893   7.591 -0.2532  1.0139  0.0708
  822MOL0     C10865   1.779   5.881   7.600  0.6954  0.4365 -0.1697
  822MOL0     O10866   1.719   5.846   7.719 -0.4481 -0.7308  0.4062
  822MOL0     C10867   1.590   5.807   7.710 -0.1428 -0.1772  0.2166
  822MOL0     C10868   1.489   5.906   7.706  0.6397 -0.4625 -0.3825
  822MOL0     C10869   1.357   5.866   7.685 -0.0588 -0.0748  0.1413
  822MOL0     C10870   1.321   5.731   7.690 -0.2193 -0.0644  0.0270
  822MOL0     O10871   1.199   5.675   7.673  0.5786 -0.2853 -0.5102
  822MOL0     C10872   1.085   5.761   7.641 -0.6710  0.4612 -0.4813
  822MOL0     C10873   0.948   5.709   7.676  0.8205  0.9075  0.1037
  822MOL0     C10874   0.931   5.581   7.601  0.8629 -0.3857  0.0288
  822MOL0     C10875   0.778   5.543   7.607  0.0710 -0.5523 -0.5214
  822MOL0     C10876   0.721   5.465   7.731  0.3465  0.0737 -0.2907
  822MOL0     C10877   0.612   5.550   7.793  1.7769  0.2019 -0.7405
  822MOL0     C10878   0.576   5.470   7.926  0.5327 -0.0430 -0.3383
  822MOL0     C10879   0.441   5.503   7.994  0.9261  0.5673 -0.3053
  822MOL0    Cl10880   0.443   5.437   8.164  0.0595  0.1959 -0.1640
  822MOL0     C10881   1.420   5.630   7.699 -0.2004  0.6825  0.2209
  822MOL0     C10882   1.550   5.670   7.706  0.1891 -0.8165 -0.0722
  822MOL0     O10883   1.720   5.918   7.504  0.1954 -0.2281  0.5455
  822MOL0     C10884   1.980   6.008   7.550  0.1444 -0.3556 -1.2499
  822MOL0     C10885   2.117   6.027   7.539  0.1833 -0.0795 -0.3660
  822MOL0     N10886   2.827   5.837   7.974 -0.0483 -0.1553  0.7091
  822MOL0     N10887   2.949   5.807   8.007  0.3340 -0.2753 -0.7578
  822MOL0     C10888   4.033   5.688   8.295 -0.6783 -0.0375  0.1089
  822MOL0     C10889   4.170   5.705   8.321 -0.2029  0.2269 -0.0889
  822MOL0     C10890   4.614   5.728   8.296 -0.6077 -0.1095 -0.0329
  822MOL0     C10891   4.691   5.807   8.391 -0.3653  1.0099  0.8991
  822MOL0     C10892   4.819   5.850   8.355 -0.1357 -0.4142 -0.2909
  822MOL0     C10893   4.884   5.810   8.240 -0.2279 -0.0868 -0.8003
  822MOL0     O10894   5.020   5.842   8.223  0.1169 -0.5834 -0.6603
  822MOL0     C10895   5.098   5.791   8.109 -0.5434  0.1150 -0.3802
  822MOL0     C10896   5.205   5.898   8.078  0.4623  0.1232  0.3794
  822MOL0     C10897   5.170   5.978   7.946  0.1336  0.5814 -0.1025
  822MOL0     C10898   5.191   6.121   7.958  0.7318 -0.4737  0.2555
  822MOL0     C10899   5.325   6.172   7.928  0.2242  0.6099  0.5375
  822MOL0     C10900   5.425   6.224   7.885  0.1167  0.4564 -1.0565
  822MOL0     C10901   4.810   5.717   8.161 -0.2067  0.4942  1.1782
  822MOL0     C10902   4.683   5.675   8.188  0.6833  0.2273  0.5379
  822MOL0     H10903   4.286   5.467   8.095  0.0797  0.3327 -0.7526
  822MOL0     H10904   4.039   5.445   8.057  2.9193 -0.7378 -0.6333
  822MOL0     H10905   3.768   5.579   8.354 -0.5624  1.2479  0.1941
  822MOL0     H10906   3.757   5.734   8.265 -0.8728  0.2398  0.1737
  822MOL0     H10907   3.617   5.584   8.091 -0.1697  0.8090 -0.5000
  822MOL0     H10908   3.638   5.451   8.203  0.7435  0.1074  0.9583
  822MOL0     H10909   3.489   5.575   8.364  0.7981 -0.9733  0.0548
  822MOL0     H10910   3.484   5.717   8.247 -0.9430 -0.2400 -1.8628
  822MOL0     H10911   3.394   5.567   8.076  1.3118 -0.5528  1.2454
  822MOL0     H10912   3.379   5.429   8.195 -3.1093 -1.9732 -1.5778
  822MOL0     H10913   3.232   5.575   8.338  0.4886 -1.6033 -0.0590
  822MOL0     H10914   3.215   5.701   8.226 -0.7573 -0.1290  1.5506
  822MOL0     H10915   3.109   5.421   8.180  0.6243  0.0781  1.1181
  822MOL0     H10916   3.015   5.570   8.198 -0.1236 -2.2275  0.3915
  822MOL0     H10917   3.190   5.458   7.973  2.6561  3.0353 -0.9867
  822MOL0     H10918   3.019   5.485   7.953 -1.4843  3.5175 -2.1266
  822MOL0     H10919   3.169   5.658   7.835  1.1890  0.0765  0.8219
  822MOL0     H10920   3.191   5.722   8.001 -0.7608 -0.8128  1.8539
  822MOL0     H10921   2.908   5.628   7.736 -2.3345 -0.8149 -0.9440
  822MOL0     H10922   2.586   5.718   7.794 -0.4892  0.0129 -0.8067
  822MOL0     H10923   2.610   5.883   7.828 -2.4113 -1.6326  2.5382
  822MOL0     H10924   2.683   5.741   7.575 -3.7030 -0.7171  1.0869
  822MOL0     H10925   2.781   5.878   7.613 -0.9764  1.1187 -0.2433
  822MOL0     H10926   2.597   5.962   7.476  0.3151 -1.6683  0.0186
  822MOL0     H10927   2.575   6.020   7.640  1.4718  0.5809  0.1853
  822MOL0     H10928   2.420   5.819   7.677  2.3283 -1.0475 -0.4787
  822MOL0     H10929   2.443   5.782   7.501  0.3566 -0.4785 -0.6755
  822MOL0     H10930   2.221   5.722   7.650 -1.0205  0.3090  3.5500
  822MOL0     H10931   1.861   5.657   7.720 -0.3838  3.1853  2.4107
  822MOL0     H10932   1.997   5.569   7.651  0.7836 -0.9723  0.6965
  822MOL0     H10933   2.030   5.646   7.796  0.7129 -0.8593 -0.4435
  822MOL0     H10934   1.523   6.007   7.690  0.7083 -0.4419 -0.1003
  822MOL0     H10935   1.282   5.944   7.671  1.2163  1.1126 -0.2604
  822MOL0     H10936   1.105   5.845   7.707 -0.2074 -0.2526  0.3109
  822MOL0     H10937   1.080   5.800   7.539 -1.8567  1.3547 -0.0993
  822MOL0     H10938   0.930   5.689   7.782  2.2344 -0.6964  0.0957
  822MOL0     H10939   0.873   5.780   7.642  1.7019  1.5899 -0.4418
  822MOL0     H10940   0.990   5.497   7.638  2.3902  0.7144  0.1641
  822MOL0     H10941   0.955   5.595   7.495 -0.4912 -2.4108 -0.6176
  822MOL0     H10942   0.710   5.628   7.602 -3.1396 -2.7565  1.2348
  822MOL0     H10943   0.759   5.471   7.526 -0.6480 -2.4209  1.2071
  822MOL0     H10944   0.800   5.449   7.804 -0.2964 -0.6268  0.2609
  822MOL0     H10945   0.680   5.365   7.716  2.2503 -1.0736  1.6634
  822MOL0     H10946   0.641   5.652   7.820  0.3352  0.5031 -0.2149
  822MOL0     H10947   0.524   5.552   7.728  1.0636 -2.2635  0.0222
  822MOL0     H10948   0.654   5.498   7.997  0.7537  2.5183 -1.4700
  822MOL0     H10949   0.581   5.362   7.909 -1.0328  0.0821 -1.9138
  822MOL0     H10950   0.363   5.445   7.942  0.8536  0.6281 -0.2644
  822MOL0     H10951   0.429   5.611   7.994 -3.4182  0.2835  0.1231
  822MOL0     H10952   1.396   5.525   7.713  0.8978  0.6190  1.7448
  822MOL0     H10953   1.633   5.602   7.724  0.1043 -0.9032 -0.0124
  822MOL0     H10954   1.917   6.085   7.509  0.0106 -1.1675 -2.6124
  822MOL0     H10955   2.154   6.118   7.493 -1.1008  0.1582 -0.9803
  822MOL0     H10956   3.964   5.742   8.359  0.3152  0.4509  0.7982
  822MOL0     H10957   4.197   5.778   8.398 -3.2617  1.1429  0.2383
  822MOL0     H10958   4.646   5.841   8.483  0.4596 -0.7754  2.0118
  822MOL0     H10959   4.869   5.914   8.428 -2.7194 -0.7083  1.8849
  822MOL0     H10960   5.156   5.704   8.143 -1.0790 -0.7778 -1.6658
  822MOL0     H10961   5.027   5.774   8.028 -1.0662 -0.2387  0.1411
  822MOL0     H10962   5.301   5.847   8.068  1.5266  2.1400 -0.3967
  822MOL0     H10963   5.205   5.964   8.165  0.7989 -0.4646  0.8338
  822MOL0     H10964   5.067   5.952   7.920  0.3624  0.0532 -0.5061
  822MOL0     H10965   5.236   5.949   7.864 -0.9396  1.6458 -1.3943
  822MOL0     H10966   5.170   6.169   8.055 -1.0417  0.9999 -0.7758
  822MOL0     H10967   5.125   6.168   7.885 -0.9123 -0.4502  1.6812
  822MOL0     H10968   5.514   6.272   7.849 -0.0398  0.7790 -1.0172
  822MOL0     H10969   4.849   5.679   8.067  2.9490  1.9640  1.7787
  822MOL0     H10970   4.626   5.621   8.112 -0.3694  1.9356  0.0595
  823MOL0     O10971   3.577   9.241   5.777 -0.4394 -0.5359  0.5224
  823MOL0     C10972   3.584   9.133   5.831  0.3996  0.3436 -0.2015
  823MOL0     O10973   3.481   9.061   5.894 -0.7791  0.4422  0.3431
  823MOL0     C10974   3.367   9.121   5.943 -0.7839  0.5871  0.3843
  823MOL0     C10975   3.242   9.054   5.930 -0.2452  0.4079  0.2645
  823MOL0     C10976   3.128   9.103   5.995  0.5408 -0.0800 -0.1721
  823MOL0     C10977   3.125   9.224   6.065 -0.6178  0.1534 -0.0692
  823MOL0     O10978   3.009   9.271   6.119  0.2419 -0.2332 -0.3802
  823MOL0     C10979   2.981   9.412   6.099 -0.8525  0.2778 -0.3476
  823MOL0     C10980   2.866   9.460   6.195  0.6482  0.4465  0.3527
  823MOL0     C10981   2.735   9.394   6.164  0.5240 -0.1735 -0.0584
  823MOL0     C10982   2.660   9.435   6.033 -0.3334 -0.0695 -1.0139
  823MOL0     C10983   2.602   9.583   6.039  0.0316  0.7965  0.0434
  823MOL0     C10984   2.515   9.623   5.917  0.8230 -0.1096 -0.1831
  823MOL0     C10985   2.417   9.735   5.951 -0.1499 -0.3140 -0.4188
  823MOL0     C10986   2.304   9.701   6.043  0.3510  0.8172  0.0505
  823MOL0     N10987   2.243   9.819   6.088  0.8462  0.3173 -0.0198
  823MOL0     C10988   2.187   9.917   6.014  0.0247  1.0290  0.2622
  823MOL0     C10989   2.116   9.994   6.102 -0.1496  0.5621 -0.0473
  823MOL0     C10990   2.049  10.120   6.060 -0.1119  0.0155 -0.5608
  823MOL0     C10991   1.935  10.101   5.968  0.4451  0.4695 -0.7466
  823MOL0     C10992   1.836   9.996   6.022 -0.4932  0.3573 -0.6447
  823MOL0     C10993   1.722   9.988   5.931 -0.0074 -0.0301 -0.0017
  823MOL0     O10994   1.636  10.100   5.948  0.6097 -0.3717 -0.0685
  823MOL0     C10995   1.524  10.105   5.870  0.2059  0.2750 -0.4414
  823MOL0     C10996   1.485  10.016   5.778  0.0179 -0.2790 -0.3878
  823MOL0     C10997   1.360  10.019   5.711  0.0883 -0.8858 -0.2606
  823MOL0     C10998   1.328   9.917   5.604 -0.1633 -0.2657 -0.4084
  823MOL0     C10999   1.268  10.122   5.751 -0.2246 -0.2367  0.4549
  823MOL0     C11000   1.124  10.135   5.712  0.7577 -0.1678 -0.9838
  823MOL0     O11001   1.047  10.218   5.783 -0.4071  0.3339  0.3328
  823MOL0     C11002   0.920  10.229   5.739  0.1551 -1.0752  0.3689
  823MOL0     C11003   0.894  10.309   5.626  0.1908 -0.8512 -0.2854
  823MOL0     C11004   0.769  10.306   5.578  1.0181 -0.7554 -1.0404
  823MOL0     C11005   0.673  10.218   5.630  0.7652  1.1022  0.5199
  823MOL0     O11006   0.546  10.210   5.570 -0.3916  0.0504 -0.2155
  823MOL0     C11007   0.545  10.150   5.442 -0.7662 -0.4357 -0.1786
  823MOL0     C11008   0.397  10.119   5.397 -0.1007  0.4298  0.4901
  823MOL0     C11009   0.334  10.232   5.322 -0.2132  0.3986 -0.1304
  823MOL0     C11010   0.188  10.202   5.289  0.2486  0.1948  0.3147
  823MOL0     C11011   0.126  10.326   5.223 -0.3246  0.5381 -0.5576
  823MOL0     C11012   0.115  10.452   5.308  0.6253  0.6881 -0.3611
  823MOL0     C11013   0.000  10.545   5.252  0.1102  1.0410 -0.0664
  823MOL0     C11014   0.046  10.649   5.162 -0.4928 -0.1428  1.3062
  823MOL0    Cl11015  -0.080  10.771   5.153 -0.1501 -0.2295  0.3512
  823MOL0     C11016   0.691  10.163   5.752 -0.3015 -0.4768 -0.1499
  823MOL0     C11017   0.818  10.162   5.809 -0.0180  0.2937  0.1230
  823MOL0     O11018   1.078  10.074   5.618  0.2698 -0.2818  0.4131
  823MOL0     C11019   1.306  10.213   5.845  0.2440 -0.3757 -0.2092
  823MOL0     C11020   1.426  10.202   5.911 -0.5921 -0.0361  0.5114
  823MOL0     N11021   2.128   9.937   6.225  0.3171  0.6478  0.2541
  823MOL0     N11022   2.206   9.837   6.220  0.4596 -0.3199  0.4068
  823MOL0     C11023   3.255   9.292   6.074 -1.2637  0.0978 -0.2065
  823MOL0     C11024   3.371   9.242   6.009  0.3297 -0.7837  0.0222
  823MOL0     C11025   3.719   9.070   5.837  0.5139 -0.1179  0.5052
  823MOL0     C11026   3.747   8.940   5.898  0.3321 -0.7799 -0.1776
  823MOL0     C11027   3.879   8.883   5.893  0.5631 -0.3743 -0.1853
  823MOL0     C11028   3.983   8.954   5.826  0.5018 -0.0167 -0.3612
  823MOL0     O11029   4.106   8.898   5.817 -0.4201  0.1080  0.1180
  823MOL0     C11030   4.168   8.904   5.942 -0.3874 -0.2711  0.0098
  823MOL0     C11031   4.206   8.769   5.996 -0.2404  0.1565 -0.2578
  823MOL0     C11032   4.343   8.695   5.939  0.5215  0.6482 -1.0326
  823MOL0     C11033   4.354   8.700   5.788  0.3085  0.7695 -0.1627
  823MOL0     C11034   4.423   8.820   5.751 -0.2378  1.0145  0.9741
  823MOL0     C11035   4.474   8.926   5.733  1.1963 -1.0731 -0.0043
  823MOL0     C11036   3.955   9.090   5.787 -0.5390 -0.3130 -0.4078
  823MOL0     C11037   3.824   9.143   5.792  0.8525  0.0265 -0.0664
  823MOL0     H11038   3.219   8.958   5.887 -0.2052  0.3343  0.4054
  823MOL0     H11039   3.045   9.033   5.980  0.0952  0.7140 -1.6137
  823MOL0     H11040   3.071   9.472   6.116 -2.0047  2.4646 -1.5192
  823MOL0     H11041   2.949   9.420   5.995 -2.7018 -3.6070 -0.2454
  823MOL0     H11042   2.893   9.452   6.300 -1.3926  3.7131  1.2828
  823MOL0     H11043   2.859   9.567   6.172  3.9222  0.6420 -0.1242
  823MOL0     H11044   2.744   9.285   6.160  0.8591 -0.1847  0.7416
  823MOL0     H11045   2.661   9.417   6.240  1.7450  2.1917  0.5177
  823MOL0     H11046   2.726   9.419   5.947  0.3997 -0.5954 -0.3673
  823MOL0     H11047   2.570   9.375   6.021  0.5392 -1.5210 -0.5645
  823MOL0     H11048   2.538   9.597   6.126  0.2097 -0.9742  0.5062
  823MOL0     H11049   2.685   9.653   6.055 -0.8910  1.4761  2.2425
  823MOL0     H11050   2.570   9.647   5.826 -3.3968  3.1525 -2.2806
  823MOL0     H11051   2.451   9.536   5.897  0.0963 -0.2092  2.2368
  823MOL0     H11052   2.480   9.811   5.997 -1.9416  0.7132  0.4456
  823MOL0     H11053   2.385   9.783   5.858  0.3805 -0.9560 -0.9388
  823MOL0     H11054   2.323   9.637   6.130 -1.3506  0.7691  0.4134
  823MOL0     H11055   2.241   9.636   5.982  2.6110  0.1668 -1.7257
  823MOL0     H11056   2.199   9.931   5.907  0.4491 -1.4789 -0.0869
  823MOL0     H11057   2.009  10.177   6.145  1.5868  1.4544 -0.6535
  823MOL0     H11058   2.126  10.182   6.014 -0.4918 -0.6847 -2.1821
  823MOL0     H11059   1.975  10.075   5.870 -0.5991  1.8177 -1.5693
  823MOL0     H11060   1.882  10.196   5.957 -1.2631 -0.5187 -1.3955
  823MOL0     H11061   1.794  10.019   6.120 -3.5187  1.8718 -2.1429
  823MOL0     H11062   1.870   9.892   6.016 -2.7775 -0.4170 -1.0175
  823MOL0     H11063   1.669   9.893   5.946 -0.4152  0.0748 -0.7293
  823MOL0     H11064   1.767   9.990   5.832 -0.5513  0.6311 -0.2431
  823MOL0     H11065   1.561   9.947   5.742  0.8576  0.0931  0.6162
  823MOL0     H11066   1.424   9.868   5.587  0.4128 -0.1782  2.1031
  823MOL0     H11067   1.259   9.842   5.644 -0.9753  0.6130 -0.1044
  823MOL0     H11068   1.288   9.966   5.515  2.7828  1.1113 -1.0864
  823MOL0     H11069   0.972  10.373   5.585 -0.1239 -0.9101 -0.9935
  823MOL0     H11070   0.752  10.373   5.495  0.2301  2.7091  1.6787
  823MOL0     H11071   0.588  10.223   5.373  1.7157 -2.3102 -0.7670
  823MOL0     H11072   0.616  10.066   5.443 -0.7312 -0.4066  1.1957
  823MOL0     H11073   0.405  10.032   5.332 -1.8787  1.0155 -0.5616
  823MOL0     H11074   0.345  10.095   5.490  1.3038 -0.1372  1.1678
  823MOL0     H11075   0.390  10.253   5.230  3.1944 -1.4926  1.3246
  823MOL0     H11076   0.341  10.323   5.383  1.6035  1.0159 -1.1613
  823MOL0     H11077   0.177  10.116   5.222 -3.2015  0.4202  0.3768
  823MOL0     H11078   0.131  10.184   5.381 -1.8197 -0.2043 -0.9682
  823MOL0     H11079   0.023  10.300   5.196 -0.1809 -0.6042 -0.0560
  823MOL0     H11080   0.175  10.357   5.130 -0.5226  0.1779 -0.7850
  823MOL0     H11081   0.106  10.436   5.416  3.2005 -2.4068 -0.4489
  823MOL0     H11082   0.212  10.502   5.300  1.5512 -0.9169  0.3182
  823MOL0     H11083  -0.048  10.595   5.336 -2.0721 -1.8189  0.5364
  823MOL0     H11084  -0.080  10.487   5.205  1.0144 -1.9156  1.7573
  823MOL0     H11085   0.069  10.611   5.062 -0.0130  2.1413  0.4978
  823MOL0     H11086   0.140  10.691   5.200 -0.0351 -0.2584  0.3276
  823MOL0     H11087   0.613  10.111   5.808 -0.7376  0.1280 -0.1900
  823MOL0     H11088   0.822  10.097   5.896  1.5144 -1.1054 -0.9256
  823MOL0     H11089   1.234  10.291   5.869 -0.2919 -1.1898  0.8921
  823MOL0     H11090   1.464  10.283   5.972 -1.3626  0.8950 -0.2216
  823MOL0     H11091   3.276   9.381   6.133 -3.1329  0.8091 -0.5500
  823MOL0     H11092   3.461   9.296   6.037 -0.8432  2.1637 -1.4068
  823MOL0     H11093   3.660   8.886   5.935  1.0431 -2.3335 -0.7315
  823MOL0     H11094   3.896   8.788   5.942  0.8213 -0.1979  0.0722
  823MOL0     H11095   4.261   8.961   5.931  1.5644 -2.7812  2.1866
  823MOL0     H11096   4.105   8.958   6.013 -0.2544  0.6522 -0.5595
  823MOL0     H11097   4.129   8.695   5.972  0.0508  0.5235 -2.5390
  823MOL0     H11098   4.221   8.773   6.104 -1.5830 -0.8847 -0.0066
  823MOL0     H11099   4.336   8.592   5.974  0.4494  1.2859  0.9446
  823MOL0     H11100   4.427   8.741   5.993 -1.1549 -1.2401  3.7015
  823MOL0     H11101   4.258   8.696   5.735  0.4719 -3.7207 -0.5237
  823MOL0     H11102   4.419   8.616   5.760  0.9641  1.2411 -0.0691
  823MOL0     H11103   4.524   9.020   5.727 -0.2240 -0.2032  1.1374
  823MOL0     H11104   4.035   9.152   5.748  1.1277 -1.2590  1.3530
  823MOL0     H11105   3.807   9.237   5.741 -1.2312  0.6528  1.6290
  824MOL0     O11106   2.004   4.467   5.807  0.2045  0.1591 -0.4980
  824MOL0     C11107   2.069   4.560   5.852 -0.1667  0.0338 -0.0810
  824MOL0     O11108   2.023   4.689   5.860 -0.2399  0.3344  0.2176
  824MOL0     C11109   1.899   4.716   5.801  0.9359  0.5695 -0.8237
  824MOL0     C11110   1.861   4.679   5.675  0.0114  0.1360 -0.1378
  824MOL0     C11111   1.734   4.707   5.635 -0.0886 -0.5377  0.6951
  824MOL0     C11112   1.639   4.781   5.703  0.1905  0.2070  0.4570
  824MOL0     O11113   1.523   4.795   5.629  0.0995 -1.1408 -0.1419
  824MOL0     C11114   1.421   4.869   5.688 -0.2305 -0.1457  0.2261
  824MOL0     C11115   1.325   4.892   5.571 -0.0626 -0.6050 -0.4988
  824MOL0     C11116   1.179   4.931   5.612 -0.0282 -0.3943  0.7837
  824MOL0     C11117   1.171   5.015   5.741  0.0023 -0.0831 -0.1450
  824MOL0     C11118   1.035   5.086   5.779  0.5258 -0.1129  1.4216
  824MOL0     C11119   0.916   4.986   5.774  0.1942  0.5084 -0.9490
  824MOL0     C11120   0.782   5.063   5.791 -0.4120  0.4385  0.8272
  824MOL0     C11121   0.754   5.106   5.935 -0.2248  1.0993 -0.4735
  824MOL0     N11122   0.620   5.167   5.946 -0.7876 -0.3747 -0.2436
  824MOL0     C11123   0.543   5.180   6.060  0.2510  0.7600 -0.5644
  824MOL0     C11124   0.432   5.244   6.028 -0.5840  0.2251  0.4127
  824MOL0     C11125   0.309   5.250   6.116  0.1792 -0.4557  0.4846
  824MOL0     C11126   0.215   5.360   6.068 -0.1777  1.4649 -0.1292
  824MOL0     C11127   0.078   5.350   6.146 -0.0562 -1.4287 -0.1110
  824MOL0     C11128  -0.017   5.460   6.100  0.5855 -0.1668  0.0735
  824MOL0     O11129  -0.142   5.476   6.177 -0.6056  0.7401  0.5881
  824MOL0     C11130  -0.226   5.581   6.154 -0.0419  0.3167  0.0335
  824MOL0     C11131  -0.194   5.680   6.061  0.6541 -0.8242  1.0838
  824MOL0     C11132  -0.252   5.805   6.056 -0.4529 -0.7381  0.3478
  824MOL0     C11133  -0.190   5.904   5.961 -0.3824 -0.3808  0.7598
  824MOL0     C11134  -0.358   5.837   6.143 -0.3528 -0.0020 -0.8096
  824MOL0     C11135  -0.420   5.976   6.168 -0.1305  0.6165 -0.9936
  824MOL0     O11136  -0.535   5.975   6.250  0.3862  0.5071  0.3658
  824MOL0     C11137  -0.596   6.089   6.277  0.4470 -1.4411  0.4016
  824MOL0     C11138  -0.547   6.205   6.343  0.3503  0.2471  0.8746
  824MOL0     C11139  -0.628   6.315   6.384 -0.0086 -0.0476 -0.2245
  824MOL0     C11140  -0.769   6.303   6.367 -0.6076 -0.3066  0.1616
  824MOL0     O11141  -0.847   6.412   6.399 -0.1836  0.6044 -0.2055
  824MOL0     C11142  -0.977   6.434   6.361  0.7247 -0.9148  1.1257
  824MOL0     C11143  -1.032   6.571   6.413 -0.5991  0.5121  0.0647
  824MOL0     C11144  -1.033   6.564   6.563  0.1502  0.5029  0.3782
  824MOL0     C11145  -1.161   6.511   6.618 -0.2486  0.0410 -0.7376
  824MOL0     C11146  -1.152   6.458   6.764 -0.1123 -0.0904  0.1534
  824MOL0     C11147  -1.152   6.567   6.868  0.2539 -0.2125  0.8117
  824MOL0     C11148  -1.155   6.525   7.016 -0.1792  0.0095 -0.0766
  824MOL0     C11149  -1.031   6.463   7.071 -1.2328 -0.4416  0.2197
  824MOL0    Cl11150  -0.899   6.583   7.064  0.0783  0.3498 -0.5766
  824MOL0     C11151  -0.818   6.189   6.306  0.2178 -0.6171  0.3789
  824MOL0     C11152  -0.733   6.086   6.253  0.2007 -0.4614 -0.6397
  824MOL0     O11153  -0.367   6.074   6.118  0.2066 -0.4819 -0.3141
  824MOL0     C11154  -0.403   5.740   6.237  0.4164  0.5354 -0.9388
  824MOL0     C11155  -0.336   5.615   6.244 -0.1578 -0.1127  0.8015
  824MOL0     N11156   0.440   5.280   5.893  0.6007 -0.7566  0.0359
  824MOL0     N11157   0.555   5.236   5.853  0.0727  0.2279 -0.0253
  824MOL0     C11158   1.679   4.823   5.828 -0.2626  0.0078 -0.0306
  824MOL0     C11159   1.806   4.790   5.881 -0.4087  0.2147 -0.5339
  824MOL0     C11160   2.218   4.546   5.865  0.1830 -0.0942  0.2057
  824MOL0     C11161   2.301   4.644   5.919 -0.3591  0.2199  1.3365
  824MOL0     C11162   2.433   4.632   5.904 -0.4159  0.1767 -0.1533
  824MOL0     C11163   2.493   4.513   5.860  0.0153 -0.1341 -0.5110
  824MOL0     O11164   2.626   4.516   5.847 -0.4614 -0.3792 -0.2793
  824MOL0     C11165   2.720   4.405   5.845 -0.1882  0.3278 -0.4236
  824MOL0     C11166   2.743   4.344   5.707  0.3583 -0.2166  0.4115
  824MOL0     C11167   2.827   4.430   5.616 -0.3816 -0.0564 -2.1654
  824MOL0     C11168   2.740   4.531   5.549  0.4667  0.3358 -0.2303
  824MOL0     C11169   2.825   4.583   5.444 -0.7684 -0.5573 -0.6685
  824MOL0     C11170   2.891   4.653   5.358  1.0393  0.2669 -0.9884
  824MOL0     C11171   2.413   4.407   5.825 -0.5861  0.3136  0.4747
  824MOL0     C11172   2.271   4.433   5.812  0.1574  0.0092 -0.7140
  824MOL0     H11173   1.938   4.636   5.612  0.7683  1.3626 -0.0889
  824MOL0     H11174   1.720   4.686   5.529 -0.1844  4.2167 -0.4282
  824MOL0     H11175   1.374   4.799   5.757 -1.2318  0.9123  0.6385
  824MOL0     H11176   1.453   4.961   5.737 -3.3672  1.3970 -0.3377
  824MOL0     H11177   1.352   4.979   5.509  1.9248 -1.1739 -0.5048
  824MOL0     H11178   1.319   4.791   5.530  1.9429 -2.0029  2.3043
  824MOL0     H11179   1.138   4.984   5.526  4.6801 -2.1251 -2.9854
  824MOL0     H11180   1.124   4.837   5.621  0.4801 -0.7205  0.5467
  824MOL0     H11181   1.207   4.961   5.830 -2.2486  2.6623  2.6535
  824MOL0     H11182   1.248   5.092   5.734  0.1969 -0.1975  0.5725
  824MOL0     H11183   1.024   5.133   5.877 -2.1494  1.6612  0.3863
  824MOL0     H11184   1.019   5.168   5.709 -0.6829  1.1498  3.1199
  824MOL0     H11185   0.914   4.930   5.680  0.2260  0.5071 -0.9490
  824MOL0     H11186   0.916   4.904   5.847 -1.1948  2.5861  1.5273
  824MOL0     H11187   0.789   5.155   5.733  2.5634  0.1039  0.5126
  824MOL0     H11188   0.701   4.997   5.759 -0.6080  1.3848 -0.7015
  824MOL0     H11189   0.815   5.190   5.971 -0.5068  0.3379  1.9824
  824MOL0     H11190   0.748   5.018   6.000  1.3821  1.4383  0.1966
  824MOL0     H11191   0.553   5.126   6.154  1.4433 -2.6220 -2.4687
  824MOL0     H11192   0.250   5.158   6.109 -1.7109  0.7317  0.0180
  824MOL0     H11193   0.339   5.264   6.220  0.2283  2.1572  0.1794
  824MOL0     H11194   0.190   5.343   5.963  1.9096  0.6742 -0.5496
  824MOL0     H11195   0.272   5.451   6.089  0.9817  0.3580  1.9091
  824MOL0     H11196   0.106   5.360   6.251  1.7943 -0.9429 -0.6063
  824MOL0     H11197   0.027   5.258   6.116 -2.0342  0.5180 -3.4112
  824MOL0     H11198  -0.027   5.463   5.991  3.2592  1.0217 -0.2287
  824MOL0     H11199   0.037   5.552   6.122 -0.0409  0.6989 -1.7629
  824MOL0     H11200  -0.118   5.661   5.986 -0.8406 -0.4794 -0.5827
  824MOL0     H11201  -0.263   5.960   5.901  2.7713  1.4600 -1.7010
  824MOL0     H11202  -0.127   5.972   6.019 -1.4887  1.6550 -0.2917
  824MOL0     H11203  -0.123   5.854   5.891 -2.4863 -1.1977 -0.7601
  824MOL0     H11204  -0.445   6.222   6.378 -0.3632  1.3542  2.5394
  824MOL0     H11205  -0.592   6.400   6.440 -0.4461  0.7615 -1.1301
  824MOL0     H11206  -1.004   6.432   6.254 -1.3398 -0.6371  1.5974
  824MOL0     H11207  -1.037   6.354   6.404  0.5167 -1.5559 -0.3079
  824MOL0     H11208  -0.966   6.645   6.366  0.8551  0.1016  1.4059
  824MOL0     H11209  -1.134   6.592   6.377 -1.2645 -3.6553 -1.0522
  824MOL0     H11210  -1.024   6.665   6.603  0.7919  0.6242 -0.0607
  824MOL0     H11211  -0.943   6.519   6.606 -0.4330  0.8579  2.0901
  824MOL0     H11212  -1.228   6.597   6.626  0.1146  0.1698  2.7934
  824MOL0     H11213  -1.198   6.440   6.543 -1.2073  0.3455 -0.5695
  824MOL0     H11214  -1.070   6.394   6.797 -0.8852 -0.5741  1.2130
  824MOL0     H11215  -1.248   6.412   6.790 -0.8304  1.5148  0.4791
  824MOL0     H11216  -1.062   6.625   6.844 -0.8456  1.5619  0.8438
  824MOL0     H11217  -1.238   6.632   6.850  1.1838  0.1255 -3.6417
  824MOL0     H11218  -1.245   6.466   7.036  1.0833 -1.2822  2.3435
  824MOL0     H11219  -1.167   6.618   7.073 -1.1889  1.7528 -2.9214
  824MOL0     H11220  -1.009   6.376   7.008 -1.1603 -0.3889  0.1735
  824MOL0     H11221  -1.044   6.442   7.177 -0.1101  3.4473  1.2682
  824MOL0     H11222  -0.924   6.174   6.287  0.0753  1.5316 -0.9025
  824MOL0     H11223  -0.777   5.998   6.208  1.9629  0.2804 -4.1695
  824MOL0     H11224  -0.491   5.750   6.300 -0.6110 -1.2452 -2.0127
  824MOL0     H11225  -0.374   5.553   6.324  0.1939  1.0949  1.9426
  824MOL0     H11226   1.612   4.891   5.880  1.0940  0.5561  1.0592
  824MOL0     H11227   1.830   4.819   5.983 -0.4939 -0.2377 -0.3854
  824MOL0     H11228   2.261   4.742   5.944 -2.0815  0.0828 -0.6567
  824MOL0     H11229   2.496   4.719   5.917 -1.0045  0.8787 -1.7254
  824MOL0     H11230   2.817   4.436   5.885 -0.9548  0.4280  1.4912
  824MOL0     H11231   2.689   4.321   5.907  1.5668 -0.1921 -0.2214
  824MOL0     H11232   2.646   4.342   5.657  1.0983 -1.2159 -1.0495
  824MOL0     H11233   2.784   4.243   5.711  0.3445 -0.2095  0.7450
  824MOL0     H11234   2.878   4.370   5.540  0.5465  2.1605 -3.3765
  824MOL0     H11235   2.909   4.471   5.675  1.0803 -1.4105 -3.1799
  824MOL0     H11236   2.698   4.605   5.617 -1.5617 -0.6522 -0.3225
  824MOL0     H11237   2.660   4.471   5.503 -0.6378  0.0665  1.8931
  824MOL0     H11238   2.933   4.696   5.269 -1.8755  0.9215 -2.1615
  824MOL0     H11239   2.447   4.312   5.784 -0.3300 -0.1449  1.7013
  824MOL0     H11240   2.205   4.359   5.767 -2.8248  1.1878  1.4062
  825MOL0     O11241   9.467  11.305   3.196  0.1369 -0.4552  0.2545
  825MOL0     C11242   9.449  11.406   3.136  0.3710 -0.7878 -0.4072
  825MOL0     O11243   9.342  11.440   3.064 -0.2919 -0.2037 -0.3643
  825MOL0     C11244   9.223  11.387   3.098  0.1233  1.1730  0.1127
  825MOL0     C11245   9.200  11.244   3.121  0.1738 -0.8824 -0.0527
  825MOL0     C11246   9.059  11.200   3.152  0.2558  0.3673 -0.2886
  825MOL0     C11247   8.959  11.288   3.171  0.4722  0.5734 -0.3502
  825MOL0     O11248   8.833  11.251   3.216 -0.2939 -0.0631 -0.2602
  825MOL0     C11249   8.808  11.113   3.244 -0.5826  0.0241  0.4419
  825MOL0     C11250   8.661  11.099   3.286  0.6861  0.0706 -0.0720
  825MOL0     C11251   8.636  11.188   3.409 -0.3941  0.1674  0.0897
  825MOL0     C11252   8.506  11.162   3.487 -0.0359 -0.4684  0.2915
  825MOL0     C11253   8.392  11.212   3.389 -0.1322  0.1139 -0.2640
  825MOL0     C11254   8.252  11.200   3.468 -0.6670 -0.3409 -0.2836
  825MOL0     C11255   8.138  11.227   3.385  0.1025 -0.1006  0.5141
  825MOL0     C11256   8.003  11.225   3.461 -0.6727  0.5038 -0.2180
  825MOL0     N11257   7.886  11.273   3.383 -0.8073  0.2483 -0.3927
  825MOL0     C11258   7.774  11.332   3.435  0.7482 -0.1023  0.6582
  825MOL0     C11259   7.681  11.315   3.340  0.3799 -0.1124  0.0254
  825MOL0     C11260   7.545  11.367   3.342  0.1548 -0.1027  0.1066
  825MOL0     C11261   7.474  11.342   3.473  0.3086  0.0412  0.1633
  825MOL0     C11262   7.426  11.188   3.468 -0.0056 -0.1655 -1.3770
  825MOL0     C11263   7.374  11.142   3.614  0.9153 -0.6405  0.1726
  825MOL0     O11264   7.244  11.192   3.654  0.0154 -0.4532  0.6166
  825MOL0     C11265   7.131  11.162   3.581  0.1296 -0.9994  0.4885
  825MOL0     C11266   7.050  11.263   3.517  0.0034 -0.2761 -0.0497
  825MOL0     C11267   6.947  11.237   3.433  0.1522 -0.7014  0.3201
  825MOL0     C11268   6.864  11.355   3.375 -0.0582 -0.3075  0.3794
  825MOL0     C11269   6.902  11.100   3.417  0.3865  0.0078  0.2456
  825MOL0     C11270   6.778  11.057   3.351  0.1178 -0.5411  0.7990
  825MOL0     O11271   6.672  11.139   3.367 -0.2089  0.1016 -0.0860
  825MOL0     C11272   6.551  11.078   3.326 -0.2283  0.8002 -0.1934
  825MOL0     C11273   6.465  11.011   3.412  0.2282  0.1104 -0.5389
  825MOL0     C11274   6.355  10.940   3.367  0.8109 -0.9352  0.4686
  825MOL0     C11275   6.315  10.940   3.225 -0.7362 -0.4817  0.8621
  825MOL0     O11276   6.210  10.873   3.167 -0.3099  0.0396  0.4363
  825MOL0     C11277   6.108  10.823   3.253 -0.0370  1.0882  0.5475
  825MOL0     C11278   5.988  10.776   3.171  0.3273  0.4381  0.3905
  825MOL0     C11279   5.898  10.702   3.272 -0.2499 -0.3347  0.1740
  825MOL0     C11280   5.785  10.632   3.204  0.5870 -0.0340 -0.3617
  825MOL0     C11281   5.692  10.575   3.315 -1.1791  0.1830 -0.4349
  825MOL0     C11282   5.543  10.580   3.279  0.3272  0.2299  0.4835
  825MOL0     C11283   5.467  10.550   3.399  0.4488 -0.2346  0.8927
  825MOL0     C11284   5.323  10.564   3.371  1.2301 -0.7857  0.0124
  825MOL0    Cl11285   5.292  10.736   3.321 -0.4113 -0.1144  0.5002
  825MOL0     C11286   6.392  11.013   3.137  0.8172 -0.4944  0.1607
  825MOL0     C11287   6.509  11.089   3.186  0.9596 -0.1720 -1.3662
  825MOL0     O11288   6.781  10.944   3.302  0.0943  0.7879 -0.0616
  825MOL0     C11289   6.983  11.001   3.477 -0.3488 -0.8081 -0.1936
  825MOL0     C11290   7.100  11.036   3.550 -0.6790  0.0852 -0.0760
  825MOL0     N11291   7.738  11.253   3.231 -0.6325  0.0459 -0.8643
  825MOL0     N11292   7.860  11.225   3.262 -0.0522 -0.3612 -0.0148
  825MOL0     C11293   8.989  11.423   3.149 -0.7203 -0.1659  0.8353
  825MOL0     C11294   9.110  11.472   3.108  0.4722 -0.6465  0.8073
  825MOL0     C11295   9.577  11.496   3.123  0.2497  0.4132  0.2327
  825MOL0     C11296   9.576  11.623   3.055  0.3909 -0.9562 -0.4179
  825MOL0     C11297   9.692  11.705   3.072 -0.3776  0.1428 -0.1468
  825MOL0     C11298   9.812  11.659   3.131 -0.6308 -0.0442 -0.6697
  825MOL0     O11299   9.935  11.737   3.148 -0.0692 -0.9797  1.1490
  825MOL0     C11300   9.958  11.849   3.076  0.1567 -0.1444  0.5875
  825MOL0     C11301  10.098  11.896   3.083  0.6531  0.2702  0.2612
  825MOL0     C11302  10.188  11.793   3.020 -0.7658  0.0642 -0.4965
  825MOL0     C11303  10.345  11.825   3.047  0.4520  0.3739  0.4532
  825MOL0     C11304  10.391  11.950   2.981 -0.2565  0.5110 -0.5891
  825MOL0     C11305  10.431  12.060   2.934 -0.2610  0.7004  1.0365
  825MOL0     C11306   9.811  11.531   3.191  0.2287 -0.5956  0.4061
  825MOL0     C11307   9.695  11.454   3.193  0.1418  0.4445 -0.6168
  825MOL0     H11308   9.280  11.173   3.103 -0.8941 -1.6980 -1.9731
  825MOL0     H11309   9.055  11.092   3.155  0.5932  0.3683  1.5844
  825MOL0     H11310   8.825  11.059   3.150 -0.8044  0.9952 -0.1724
  825MOL0     H11311   8.877  11.077   3.321 -1.1801 -1.3383  0.3604
  825MOL0     H11312   8.587  11.108   3.207  0.2210 -0.0624  0.3448
  825MOL0     H11313   8.646  11.000   3.329 -0.2287 -0.0566 -0.6799
  825MOL0     H11314   8.718  11.169   3.479 -0.8541 -0.0911  0.5681
  825MOL0     H11315   8.646  11.293   3.377  1.1639  0.1798  0.5241
  825MOL0     H11316   8.503  11.058   3.522 -0.4587 -0.1498  1.2378
  825MOL0     H11317   8.500  11.219   3.580  4.4429 -3.2771  2.6361
  825MOL0     H11318   8.409  11.312   3.347 -0.8237  1.2763  2.0807
  825MOL0     H11319   8.395  11.136   3.310  3.1067 -0.1049 -0.0665
  825MOL0     H11320   8.252  11.102   3.517 -0.8197  0.4033  1.2849
  825MOL0     H11321   8.251  11.255   3.563 -2.5358 -0.2809 -0.2923
  825MOL0     H11322   8.139  11.329   3.346 -2.1313  0.1138  0.9059
  825MOL0     H11323   8.134  11.147   3.310 -1.0188 -1.9989  2.4929
  825MOL0     H11324   8.016  11.275   3.557 -0.8405  1.4597 -0.6901
  825MOL0     H11325   7.967  11.123   3.481  0.9128  0.1240  0.8948
  825MOL0     H11326   7.749  11.380   3.529 -2.1163 -1.6603  0.7767
  825MOL0     H11327   7.548  11.475   3.326  0.8894  0.1771  1.8657
  825MOL0     H11328   7.487  11.319   3.263 -0.5185  0.3422  0.3242
  825MOL0     H11329   7.385  11.406   3.477 -0.1082 -0.5691  0.8381
  825MOL0     H11330   7.536  11.359   3.562  1.2366 -2.6011  0.0906
  825MOL0     H11331   7.512  11.124   3.449  0.8990  0.7582 -0.5610
  825MOL0     H11332   7.351  11.166   3.392 -0.9044  1.0244 -0.8776
  825MOL0     H11333   7.445  11.166   3.694 -0.7089 -0.6625  1.6723
  825MOL0     H11334   7.372  11.033   3.616 -1.8978 -0.6446  0.9094
  825MOL0     H11335   7.080  11.367   3.531 -0.1268 -0.3388  0.7364
  825MOL0     H11336   6.777  11.364   3.441 -0.4984 -0.1603 -0.2047
  825MOL0     H11337   6.929  11.442   3.379 -2.9892  2.0340  0.8904
  825MOL0     H11338   6.824  11.347   3.273  1.4416 -2.0539 -0.1184
  825MOL0     H11339   6.501  11.008   3.514  1.6244 -2.7059 -0.9964
  825MOL0     H11340   6.294  10.869   3.422 -0.8058  1.1087  1.4356
  825MOL0     H11341   6.145  10.733   3.304 -1.3703 -0.3194 -0.8665
  825MOL0     H11342   6.083  10.894   3.332  0.0184 -0.9217  2.4788
  825MOL0     H11343   5.935  10.859   3.124 -2.4611 -0.7717  1.1434
  825MOL0     H11344   6.023  10.709   3.093  2.1319  3.2486 -1.3760
  825MOL0     H11345   5.847  10.775   3.336 -1.3710 -0.6371 -0.3385
  825MOL0     H11346   5.960  10.640   3.337 -0.9329  0.8525  2.0465
  825MOL0     H11347   5.721  10.711   3.163  0.3198  1.8835  3.3007
  825MOL0     H11348   5.824  10.563   3.129  5.9615  1.4569  0.6468
  825MOL0     H11349   5.694  10.637   3.405 -0.7086  0.7075 -0.8011
  825MOL0     H11350   5.720  10.477   3.356 -0.2907 -1.2914 -4.1447
  825MOL0     H11351   5.528  10.681   3.241  2.9129  1.8920  3.4458
  825MOL0     H11352   5.520  10.507   3.201  2.9857 -1.1315  0.8880
  825MOL0     H11353   5.486  10.620   3.481  0.6066  0.5622  0.1914
  825MOL0     H11354   5.495  10.451   3.438  1.3575 -1.1543 -1.8808
  825MOL0     H11355   5.261  10.538   3.458  0.6980  0.4544  0.0165
  825MOL0     H11356   5.294  10.498   3.289 -0.1629  2.8296 -2.6505
  825MOL0     H11357   6.369  10.999   3.032 -2.4599 -0.7543  0.8123
  825MOL0     H11358   6.573  11.138   3.113  0.0944  0.8685 -1.4581
  825MOL0     H11359   6.961  10.896   3.455 -0.5589 -0.5003 -1.5901
  825MOL0     H11360   7.159  10.950   3.580 -0.5858 -0.0827 -0.7216
  825MOL0     H11361   8.910  11.497   3.159 -0.1690  0.2525  2.4786
  825MOL0     H11362   9.137  11.573   3.079 -0.2819 -0.8523 -0.6971
  825MOL0     H11363   9.490  11.666   3.005 -0.3662 -1.7282  0.1759
  825MOL0     H11364   9.676  11.800   3.022 -1.7252 -0.1501 -0.3290
  825MOL0     H11365   9.935  11.835   2.970 -0.5469  1.1313  0.5440
  825MOL0     H11366   9.893  11.925   3.119 -1.0052 -0.5680 -0.3762
  825MOL0     H11367  10.111  11.920   3.189  1.4507 -3.0321  1.0233
  825MOL0     H11368  10.107  11.990   3.028 -0.7953 -1.0904 -2.5254
  825MOL0     H11369  10.171  11.787   2.912  0.5060 -0.7871 -0.6824
  825MOL0     H11370  10.168  11.694   3.062  2.1957 -0.9091 -1.1345
  825MOL0     H11371  10.405  11.744   3.007 -1.0411 -0.3693 -0.3564
  825MOL0     H11372  10.370  11.835   3.153  1.1308  0.0652  0.3226
  825MOL0     H11373  10.459  12.161   2.911 -1.6702  0.5994 -1.5626
  825MOL0     H11374   9.900  11.496   3.242 -1.7531 -3.4932  2.1836
  825MOL0     H11375   9.693  11.358   3.243 -0.2751  0.6094 -0.3167
  826MOL0     O11376   3.353   0.783   8.747  0.2469  0.4100 -0.1970
  826MOL0     C11377   3.416   0.677   8.750  0.5402  0.0118  0.5443
  826MOL0     O11378   3.388   0.566   8.675 -0.3318  0.2021  0.4583
  826MOL0     C11379   3.280   0.565   8.586 -0.2258 -0.6094 -0.7081
  826MOL0     C11380   3.266   0.671   8.499  0.9852 -0.7774  0.7731
  826MOL0     C11381   3.158   0.685   8.404 -0.2033 -0.7670 -0.4236
  826MOL0     C11382   3.069   0.576   8.399 -0.6284 -0.5957  0.1842
  826MOL0     O11383   2.979   0.582   8.296 -0.2254  0.3756  0.1026
  826MOL0     C11384   2.871   0.676   8.319 -1.0250 -0.3496 -0.1594
  826MOL0     C11385   2.766   0.629   8.420 -0.2922 -0.3027  0.0014
  826MOL0     C11386   2.639   0.717   8.419  0.3558  0.5877 -0.1417
  826MOL0     C11387   2.519   0.635   8.481  0.3327 -0.4699  0.8449
  826MOL0     C11388   2.396   0.710   8.460 -0.8700  0.2681 -0.1943
  826MOL0     C11389   2.274   0.614   8.469 -0.0700 -0.4120 -0.0149
  826MOL0     C11390   2.156   0.685   8.417  1.0212  0.1401 -0.2557
  826MOL0     C11391   2.093   0.768   8.524 -0.7914  0.1552 -0.2839
  826MOL0     N11392   1.982   0.844   8.482 -0.6086 -0.9864 -1.3989
  826MOL0     C11393   1.866   0.802   8.439  0.2196  0.1437 -0.1372
  826MOL0     C11394   1.801   0.919   8.391 -0.3318  0.0515 -0.2049
  826MOL0     C11395   1.662   0.917   8.330 -0.2873  0.2986 -0.4557
  826MOL0     C11396   1.611   0.767   8.301  0.8917 -0.2358 -0.1077
  826MOL0     C11397   1.479   0.763   8.227  0.2811  0.3257  0.0191
  826MOL0     C11398   1.353   0.809   8.298 -0.1319  0.0758 -0.1876
  826MOL0     O11399   1.241   0.784   8.209 -0.0435 -0.1712 -0.3661
  826MOL0     C11400   1.151   0.887   8.192 -0.1920 -0.6204  0.3578
  826MOL0     C11401   1.082   0.885   8.067 -0.1281 -0.7831 -0.0894
  826MOL0     C11402   0.978   0.981   8.047 -0.3375 -0.1703 -0.4163
  826MOL0     C11403   0.911   0.972   7.911 -0.2149 -0.0026 -0.1578
  826MOL0     C11404   0.948   1.076   8.147 -1.1198  0.0007  0.4865
  826MOL0     C11405   0.843   1.182   8.139 -0.3517  0.0695  0.5778
  826MOL0     O11406   0.860   1.308   8.202 -0.5039 -0.0410 -0.2037
  826MOL0     C11407   0.755   1.396   8.197  0.0671  0.9380  0.0235
  826MOL0     C11408   0.639   1.378   8.272 -0.3594  0.1830 -0.0349
  826MOL0     C11409   0.547   1.478   8.278  0.2161  0.0241  0.0310
  826MOL0     C11410   0.559   1.589   8.197 -0.1988 -0.2142 -0.4221
  826MOL0     O11411   0.468   1.693   8.182  0.2773  0.0973  0.1739
  826MOL0     C11412   0.330   1.664   8.224 -0.4171 -0.4692  0.6839
  826MOL0     C11413   0.235   1.762   8.152  0.1608  0.1041 -0.0115
  826MOL0     C11414   0.091   1.730   8.190 -0.4775  1.1082  0.3845
  826MOL0     C11415   0.037   1.767   8.327  0.2819 -0.5929  0.2976
  826MOL0     C11416  -0.116   1.722   8.340 -0.5994 -0.5303 -0.0678
  826MOL0     C11417  -0.180   1.764   8.474  0.1526 -0.1052 -0.1349
  826MOL0     C11418  -0.326   1.723   8.470  0.3961  0.4113 -0.3532
  826MOL0     C11419  -0.399   1.776   8.592 -0.1778 -0.0582  0.3505
  826MOL0    Cl11420  -0.431   1.956   8.568  0.3670  0.1213 -0.0317
  826MOL0     C11421   0.671   1.597   8.109 -0.2337  0.8313 -0.1426
  826MOL0     C11422   0.779   1.509   8.121  0.4650 -0.2344  0.6004
  826MOL0     O11423   0.737   1.142   8.093 -0.3791 -0.2988 -0.0918
  826MOL0     C11424   1.017   1.070   8.276  0.7779 -0.0271 -0.0073
  826MOL0     C11425   1.121   0.979   8.288  0.3592 -0.8256 -0.1649
  826MOL0     N11426   1.889   1.022   8.402  0.0474 -0.0877 -0.7951
  826MOL0     N11427   1.996   0.976   8.458  1.0963  0.0928  0.8288
  826MOL0     C11428   3.069   0.476   8.498  0.8518  0.1606  0.1344
  826MOL0     C11429   3.177   0.470   8.600 -0.0406  0.1326 -0.0266
  826MOL0     C11430   3.540   0.676   8.835 -0.2133  0.7187  0.3533
  826MOL0     C11431   3.611   0.793   8.858  0.3013 -0.6858  0.3388
  826MOL0     C11432   3.733   0.785   8.928  0.0030  0.4029 -0.7300
  826MOL0     C11433   3.770   0.664   8.998 -0.1209  0.4324  1.0795
  826MOL0     O11434   3.893   0.646   9.047 -0.0746  0.0879 -0.4099
  826MOL0     C11435   3.904   0.732   9.162 -0.1241 -0.2939  0.0376
  826MOL0     C11436   3.990   0.691   9.277  0.2177  1.2836  0.1609
  826MOL0     C11437   3.924   0.616   9.389  0.0145  0.3982  0.2673
  826MOL0     C11438   3.859   0.482   9.344 -0.9996  0.5693  0.5934
  826MOL0     C11439   3.805   0.405   9.454  0.0757 -0.4663  0.4900
  826MOL0     C11440   3.755   0.343   9.544  0.4532 -0.8364  0.3137
  826MOL0     C11441   3.694   0.553   8.979  0.4906  0.3949  0.2231
  826MOL0     C11442   3.578   0.551   8.889  0.2034 -1.2479 -0.9872
  826MOL0     H11443   3.341   0.749   8.512  0.1530  0.0939  0.4836
  826MOL0     H11444   3.148   0.761   8.327 -1.9133 -2.3649 -1.8566
  826MOL0     H11445   2.914   0.772   8.350 -1.2315 -0.2957 -0.0422
  826MOL0     H11446   2.809   0.684   8.230 -0.5148  2.7637 -0.3422
  826MOL0     H11447   2.747   0.529   8.378  4.0124 -0.6201 -1.7529
  826MOL0     H11448   2.788   0.639   8.526 -5.2498  1.6117  1.1425
  826MOL0     H11449   2.657   0.811   8.470  2.4442  1.2655 -1.9930
  826MOL0     H11450   2.611   0.749   8.318 -2.7035 -1.2893 -0.0412
  826MOL0     H11451   2.494   0.538   8.439  0.1806  0.3407 -1.0301
  826MOL0     H11452   2.537   0.625   8.589 -0.1873 -0.0678  0.9734
  826MOL0     H11453   2.385   0.780   8.544 -0.3334  0.5704 -0.3702
  826MOL0     H11454   2.398   0.775   8.372  0.2586  0.3950 -0.0918
  826MOL0     H11455   2.291   0.538   8.392 -0.4555  0.5726 -1.0919
  826MOL0     H11456   2.250   0.570   8.566 -2.7708  0.6197 -0.1454
  826MOL0     H11457   2.182   0.748   8.331  0.3675  1.2194  0.3104
  826MOL0     H11458   2.085   0.604   8.401  0.0568  0.9895 -0.3748
  826MOL0     H11459   2.169   0.841   8.553 -1.3660  0.0404  1.6903
  826MOL0     H11460   2.069   0.707   8.612 -0.8190  0.8361  0.1942
  826MOL0     H11461   1.829   0.701   8.453  0.5869 -0.2895 -2.0360
  826MOL0     H11462   1.593   0.953   8.407 -2.6030 -5.0709  0.3696
  826MOL0     H11463   1.665   0.985   8.244 -1.3395  1.1080  0.1262
  826MOL0     H11464   1.589   0.720   8.397 -1.0646 -1.0450 -0.8968
  826MOL0     H11465   1.684   0.710   8.243 -0.9222 -3.1619  0.2759
  826MOL0     H11466   1.463   0.658   8.200 -0.8656  0.1397  1.3002
  826MOL0     H11467   1.485   0.821   8.135 -0.6761 -0.0991 -0.3347
  826MOL0     H11468   1.361   0.916   8.319 -3.3272  0.8954 -2.4179
  826MOL0     H11469   1.348   0.770   8.400 -1.4806  3.7511  1.3341
  826MOL0     H11470   1.112   0.814   7.990 -0.5144 -0.9721 -0.0718
  826MOL0     H11471   0.899   1.069   7.863 -1.5005  0.0370  0.2175
  826MOL0     H11472   0.966   0.905   7.844  0.0971  1.4451 -1.3810
  826MOL0     H11473   0.815   0.920   7.912  0.2266 -0.8436  0.1241
  826MOL0     H11474   0.615   1.283   8.320  2.8852 -1.2757 -1.0155
  826MOL0     H11475   0.456   1.468   8.336 -0.1031  4.4524  0.6615
  826MOL0     H11476   0.300   1.564   8.191  0.2044 -0.4236 -0.0549
  826MOL0     H11477   0.309   1.662   8.332 -1.8206 -1.5100  0.4246
  826MOL0     H11478   0.266   1.865   8.173  2.1570 -0.5266  0.3303
  826MOL0     H11479   0.251   1.742   8.045  0.6841  1.2688 -0.1676
  826MOL0     H11480   0.081   1.621   8.189 -2.3884  1.2349  0.8043
  826MOL0     H11481   0.020   1.768   8.115 -1.4222 -1.6180 -0.2134
  826MOL0     H11482   0.093   1.714   8.405  0.2064 -0.8666  0.1676
  826MOL0     H11483   0.051   1.872   8.351  0.3133 -0.3723 -0.6569
  826MOL0     H11484  -0.122   1.613   8.338  0.0094 -0.6813  2.4288
  826MOL0     H11485  -0.167   1.768   8.255 -0.0350  0.1159 -0.0602
  826MOL0     H11486  -0.123   1.721   8.558  2.8712  3.6425  0.2105
  826MOL0     H11487  -0.166   1.871   8.492 -1.2502  0.2772 -1.1444
  826MOL0     H11488  -0.327   1.616   8.491 -1.6729  0.7103  1.5757
  826MOL0     H11489  -0.380   1.755   8.381 -0.1896  1.0603  0.2182
  826MOL0     H11490  -0.337   1.759   8.680  1.7796 -0.1411 -0.9930
  826MOL0     H11491  -0.487   1.713   8.604  0.1464 -0.4497  0.6742
  826MOL0     H11492   0.690   1.693   8.062 -0.7671  0.7844 -0.4609
  826MOL0     H11493   0.876   1.525   8.074  0.7197 -0.5668  1.0167
  826MOL0     H11494   0.992   1.140   8.355  0.6771  0.3964 -0.4025
  826MOL0     H11495   1.167   0.989   8.386 -0.7302 -0.6816  0.3514
  826MOL0     H11496   3.003   0.391   8.495 -1.7909  2.0880 -0.2493
  826MOL0     H11497   3.189   0.383   8.663  1.2845 -1.0975 -1.8710
  826MOL0     H11498   3.579   0.883   8.807 -1.1057 -2.6982 -2.6267
  826MOL0     H11499   3.800   0.871   8.928 -1.5709  1.6856 -1.7977
  826MOL0     H11500   3.939   0.828   9.121 -2.7360 -0.5390 -3.2111
  826MOL0     H11501   3.805   0.758   9.201  0.8045  1.1945  1.5356
  826MOL0     H11502   4.037   0.782   9.315 -2.0091  2.5352  0.1298
  826MOL0     H11503   4.059   0.620   9.231 -0.2763  0.3621  0.8071
  826MOL0     H11504   3.846   0.676   9.439  0.4317 -0.6277  2.2586
  826MOL0     H11505   4.001   0.601   9.465  0.5912  2.5165  0.1859
  826MOL0     H11506   3.922   0.424   9.276 -0.7728  1.2382  0.2236
  826MOL0     H11507   3.766   0.507   9.291 -0.7661  2.5122  1.0485
  826MOL0     H11508   3.700   0.283   9.615 -2.5519 -0.6565 -1.6627
  826MOL0     H11509   3.727   0.464   9.030  1.1481  0.1788 -0.5568
  826MOL0     H11510   3.514   0.466   8.870  0.1819 -1.0924 -1.6357
  827MOL0     O11511   0.155   3.496   9.837 -0.1908  0.5042  0.6219
  827MOL0     C11512   0.187   3.457   9.945  0.2264  0.7749 -0.3012
  827MOL0     O11513   0.109   3.377  10.022  0.0527 -0.0775  0.1132
  827MOL0     C11514  -0.027   3.378  10.004  0.1975 -0.5305  1.1577
  827MOL0     C11515  -0.099   3.493   9.975  1.2994  0.3961 -0.6278
  827MOL0     C11516  -0.238   3.493   9.947  0.5196  0.5635  0.0704
  827MOL0     C11517  -0.314   3.378   9.967 -0.2974  0.3379 -0.1463
  827MOL0     O11518  -0.445   3.367   9.943  0.0845 -0.3396  0.3183
  827MOL0     C11519  -0.522   3.436  10.028  0.1708 -0.4693 -0.6765
  827MOL0     C11520  -0.525   3.360  10.168  0.8898 -0.3072 -0.4061
  827MOL0     C11521  -0.570   3.213  10.159 -0.6175 -0.8789 -0.2231
  827MOL0     C11522  -0.716   3.190  10.182 -0.1222 -0.0454  0.1636
  827MOL0     C11523  -0.769   3.050  10.147 -0.2115  0.3552 -0.3731
  827MOL0     C11524  -0.923   3.047  10.130 -0.4885 -0.4142  0.5550
  827MOL0     C11525  -1.002   3.118  10.241 -0.5443  0.8707 -0.1367
  827MOL0     C11526  -0.991   3.042  10.374  0.3527  0.3039  0.7315
  827MOL0     N11527  -1.053   2.909  10.378  0.9031  0.0029 -0.4900
  827MOL0     C11528  -1.190   2.876  10.366 -0.0080 -0.1351  0.3668
  827MOL0     C11529  -1.198   2.746  10.368 -0.0141  0.3311  0.3073
  827MOL0     C11530  -1.308   2.653  10.366 -0.7329 -0.8626 -0.7255
  827MOL0     C11531  -1.446   2.715  10.389 -0.2898 -0.2118 -0.4468
  827MOL0     C11532  -1.571   2.618  10.384  0.1409 -0.4513  0.7582
  827MOL0     C11533  -1.695   2.707  10.387  0.3198 -0.9484 -0.2001
  827MOL0     O11534  -1.693   2.789  10.270 -0.0720 -0.5984  0.3787
  827MOL0     C11535  -1.812   2.834  10.214 -0.6303  0.1391  0.3537
  827MOL0     C11536  -1.804   2.893  10.095  0.8499 -0.0152  1.5428
  827MOL0     C11537  -1.910   2.957  10.031 -0.8552  0.2072  1.7267
  827MOL0     C11538  -1.887   3.000   9.891 -0.0752  0.1684  0.4104
  827MOL0     C11539  -2.034   2.963  10.108  0.6653 -0.2554 -0.3561
  827MOL0     C11540  -2.149   3.045  10.065  1.6138  0.8821  0.4830
  827MOL0     O11541  -2.274   3.026  10.130 -0.4897  0.2299  0.7323
  827MOL0     C11542  -2.372   3.116  10.131 -0.3330 -0.3916  0.1419
  827MOL0     C11543  -2.365   3.247  10.189 -0.6145  0.3475  0.4134
  827MOL0     C11544  -2.485   3.321  10.200  0.2912 -0.7875  0.5310
  827MOL0     C11545  -2.612   3.271  10.159 -0.0995  0.6936 -0.2408
  827MOL0     O11546  -2.726   3.349  10.169 -0.5102  0.3625 -0.4432
  827MOL0     C11547  -2.736   3.434  10.055  0.3270  0.1098 -0.7393
  827MOL0     C11548  -2.855   3.533  10.080 -0.1075 -0.4215 -0.7403
  827MOL0     C11549  -2.991   3.477  10.120 -0.2327  0.3552 -0.2382
  827MOL0     C11550  -3.071   3.596  10.167  0.3183  0.1256 -0.2688
  827MOL0     C11551  -3.224   3.575  10.178  0.1083  1.0561 -0.4455
  827MOL0     C11552  -3.255   3.449  10.269  0.1122  0.6921 -0.0816
  827MOL0     C11553  -3.201   3.451  10.414  0.3285  0.3609  0.3649
  827MOL0     C11554  -3.234   3.316  10.490 -0.6314  0.8482  0.6916
  827MOL0    Cl11555  -3.162   3.174  10.406  0.0040 -0.4237  0.2217
  827MOL0     C11556  -2.620   3.139  10.107  0.3685 -0.4592 -0.7539
  827MOL0     C11557  -2.499   3.063  10.094 -0.0358  0.6863  0.6268
  827MOL0     O11558  -2.123   3.132   9.989 -0.2444 -0.3144  0.6711
  827MOL0     C11559  -2.050   2.895  10.232 -0.6708  0.4379  0.1651
  827MOL0     C11560  -1.935   2.831  10.277  0.8506  1.2465 -1.3057
  827MOL0     N11561  -1.071   2.696  10.390 -0.9477 -0.2073 -0.1044
  827MOL0     N11562  -0.983   2.794  10.389  0.3347  0.4885  0.3055
  827MOL0     C11563  -0.237   3.265  10.003  0.6937 -0.3537  0.1616
  827MOL0     C11564  -0.099   3.261  10.024 -0.8953  0.6238 -0.4505
  827MOL0     C11565   0.327   3.482   9.978 -0.5234 -0.5261 -0.2709
  827MOL0     C11566   0.379   3.487  10.116  0.9119  0.6573  0.5780
  827MOL0     C11567   0.520   3.506  10.132  0.6894 -0.5075 -0.3186
  827MOL0     C11568   0.611   3.530  10.030 -0.1072 -0.9264 -0.3609
  827MOL0     O11569   0.742   3.569  10.050 -0.2361  0.5975 -0.6198
  827MOL0     C11570   0.773   3.620  10.183  0.3303 -0.3514 -0.8459
  827MOL0     C11571   0.914   3.673  10.178 -0.0367 -0.8279  0.2673
  827MOL0     C11572   0.928   3.799  10.096  0.2930  0.0242  0.5348
  827MOL0     C11573   1.064   3.855  10.118  0.7386 -0.0927 -1.0420
  827MOL0     C11574   1.119   3.915  10.005 -0.8936  0.1272 -0.2777
  827MOL0     C11575   1.177   3.972   9.913 -0.0202  0.8760  0.3498
  827MOL0     C11576   0.563   3.540   9.903  0.0021  0.5511 -0.2513
  827MOL0     C11577   0.425   3.511   9.877  0.7665  0.2205  0.1938
  827MOL0     H11578  -0.045   3.587   9.978 -0.4046  1.4999  3.7921
  827MOL0     H11579  -0.289   3.586   9.922 -0.5964  0.0472  0.3541
  827MOL0     H11580  -0.498   3.542  10.043  1.2088 -0.5853 -1.4068
  827MOL0     H11581  -0.624   3.426   9.990  0.0333  2.2605 -1.1922
  827MOL0     H11582  -0.424   3.365  10.210  1.1758  1.4550 -1.2300
  827MOL0     H11583  -0.600   3.410  10.229 -0.7072 -0.4331 -2.1774
  827MOL0     H11584  -0.545   3.171  10.061 -1.1039 -1.0413 -0.2828
  827MOL0     H11585  -0.507   3.162  10.232 -0.1734  0.3600  0.2881
  827MOL0     H11586  -0.744   3.199  10.287 -2.7678  0.5004 -0.5065
  827MOL0     H11587  -0.779   3.258  10.124  0.2398 -0.9459 -1.3568
  827MOL0     H11588  -0.714   3.011  10.061  1.3642 -1.1625  1.2424
  827MOL0     H11589  -0.741   2.979  10.225  0.8991 -0.5171 -1.5274
  827MOL0     H11590  -0.935   3.102  10.036  2.5855  0.6471  0.6471
  827MOL0     H11591  -0.962   2.945  10.124 -0.2610 -0.5016  0.5635
  827MOL0     H11592  -0.962   3.217  10.263  1.4728 -0.0666  0.7151
  827MOL0     H11593  -1.107   3.125  10.212 -0.2846 -2.7138 -2.6991
  827MOL0     H11594  -1.032   3.110  10.449  0.7112  2.0810 -0.6075
  827MOL0     H11595  -0.884   3.036  10.391  0.3408  1.2905  1.2087
  827MOL0     H11596  -1.262   2.953  10.342  2.6079  2.5036  0.5005
  827MOL0     H11597  -1.296   2.607  10.267  1.5864  0.5226 -1.1645
  827MOL0     H11598  -1.295   2.571  10.438 -2.5229 -0.6147 -0.0637
  827MOL0     H11599  -1.458   2.784  10.304 -0.6682  0.9442  0.5184
  827MOL0     H11600  -1.448   2.774  10.481 -1.1895 -1.1814  0.1802
  827MOL0     H11601  -1.566   2.550  10.470  2.3851 -2.3981 -0.7837
  827MOL0     H11602  -1.578   2.568  10.287  0.0525 -0.3069  0.6889
  827MOL0     H11603  -1.703   2.769  10.477 -1.1543  0.6844 -1.3857
  827MOL0     H11604  -1.782   2.640  10.390  1.2743 -2.1916  0.3834
  827MOL0     H11605  -1.710   2.874  10.044  0.6363  0.5202  0.9423
  827MOL0     H11606  -1.972   3.033   9.831 -0.3713  0.0911  0.7866
  827MOL0     H11607  -1.815   3.082   9.901 -0.2132  0.3208  0.1714
  827MOL0     H11608  -1.845   2.919   9.832  0.2020  1.9919 -2.0657
  827MOL0     H11609  -2.269   3.278  10.228 -0.0929 -0.9705  0.2045
  827MOL0     H11610  -2.490   3.422  10.240 -0.9173  0.7007 -3.0236
  827MOL0     H11611  -2.640   3.481  10.036  0.2986  0.1010 -0.9080
  827MOL0     H11612  -2.761   3.371   9.969 -1.3316 -3.0111  1.7743
  827MOL0     H11613  -2.820   3.609  10.150 -1.5197  1.0355 -1.5426
  827MOL0     H11614  -2.866   3.599   9.994 -3.2241  2.0326  1.3281
  827MOL0     H11615  -2.986   3.392  10.188 -0.1678  0.6220  0.0952
  827MOL0     H11616  -3.044   3.455  10.027  0.6791 -0.2181 -0.6399
  827MOL0     H11617  -3.029   3.625  10.263 -1.6224  0.5575  0.5144
  827MOL0     H11618  -3.056   3.671  10.089 -0.6605 -1.1109 -1.7100
  827MOL0     H11619  -3.275   3.559  10.083 -1.1627  0.7384  0.2592
  827MOL0     H11620  -3.276   3.659  10.226 -1.9215  0.7235 -1.9072
  827MOL0     H11621  -3.364   3.442  10.282  0.3814  1.2745  3.4709
  827MOL0     H11622  -3.220   3.361  10.214 -1.5866  2.1751 -3.8784
  827MOL0     H11623  -3.257   3.529  10.465 -2.1116 -1.5731  0.8497
  827MOL0     H11624  -3.092   3.457  10.406  0.5034 -3.1886 -2.6911
  827MOL0     H11625  -3.343   3.317  10.484 -0.7123  3.2734  1.4174
  827MOL0     H11626  -3.207   3.336  10.594  5.2362  1.4603 -0.6024
  827MOL0     H11627  -2.717   3.101  10.077 -0.6198  2.3803 -1.4782
  827MOL0     H11628  -2.507   2.963  10.052  3.6410  0.2013  0.7799
  827MOL0     H11629  -2.138   2.903  10.294 -1.2737 -1.6604 -0.3299
  827MOL0     H11630  -1.941   2.771  10.368  0.8329  2.3020 -0.5986
  827MOL0     H11631  -0.286   3.171  10.026 -4.8645  1.6186 -1.8581
  827MOL0     H11632  -0.050   3.170  10.056 -0.1416  1.0920 -0.2455
  827MOL0     H11633   0.317   3.459  10.200 -2.7986 -0.3091 -2.2128
  827MOL0     H11634   0.560   3.494  10.232  0.9369 -1.5895 -0.5281
  827MOL0     H11635   0.705   3.701  10.208  1.3841  0.4504 -0.4844
  827MOL0     H11636   0.766   3.533  10.249 -1.6874  0.2097 -0.2788
  827MOL0     H11637   0.975   3.589  10.142 -1.1869 -0.2286 -3.5246
  827MOL0     H11638   0.949   3.692  10.280 -0.4941  0.0464  0.2691
  827MOL0     H11639   0.864   3.881  10.131  0.6516  0.3938  0.3295
  827MOL0     H11640   0.897   3.781   9.992 -2.1126 -0.7928  1.3130
  827MOL0     H11641   1.140   3.780  10.141 -1.0255 -1.6222  0.1961
  827MOL0     H11642   1.057   3.930  10.198  1.8121  3.1310 -3.7327
  827MOL0     H11643   1.221   4.036   9.840 -0.4373  0.6810 -0.0781
  827MOL0     H11644   0.637   3.576   9.833  5.0966 -1.4253  3.5155
  827MOL0     H11645   0.383   3.520   9.777  1.1722  0.8682  0.0786
  828MOL0     O11646   5.740   1.770   8.998  0.6167  0.0215 -0.5015
  828MOL0     C11647   5.796   1.682   8.938 -0.6878 -0.4943  0.1396
  828MOL0     O11648   5.741   1.570   8.891  0.2926 -0.6862  0.2620
  828MOL0     C11649   5.612   1.529   8.919 -0.9161  0.0859 -0.7068
  828MOL0     C11650   5.544   1.560   9.033 -1.1977  0.7507 -0.4787
  828MOL0     C11651   5.427   1.496   9.084  0.8604 -1.1966 -0.6639
  828MOL0     C11652   5.361   1.408   9.001  0.6732 -0.2420 -0.9044
  828MOL0     O11653   5.245   1.338   9.029  0.0376 -0.2480  0.0321
  828MOL0     C11654   5.156   1.380   9.144 -0.9552 -0.7865  0.0832
  828MOL0     C11655   5.034   1.291   9.128 -0.3057  0.2690 -0.5095
  828MOL0     C11656   4.921   1.337   9.220 -0.3095  0.3847  0.0118
  828MOL0     C11657   4.803   1.249   9.208  0.2933  0.1562  0.4110
  828MOL0     C11658   4.676   1.311   9.270 -0.0462 -0.8525 -0.7528
  828MOL0     C11659   4.563   1.211   9.306 -0.5864 -0.4757 -0.1846
  828MOL0     C11660   4.535   1.119   9.180 -0.3777 -1.0684  0.1545
  828MOL0     C11661   4.457   0.993   9.229 -0.2960  0.2863  0.2922
  828MOL0     N11662   4.319   1.029   9.263  0.3592  0.2185 -0.7735
  828MOL0     C11663   4.278   1.062   9.388  0.4307 -0.4923 -0.2862
  828MOL0     C11664   4.144   1.088   9.370 -0.6692  0.6163 -0.2464
  828MOL0     C11665   4.046   1.130   9.488  0.5866 -0.7966 -0.2262
  828MOL0     C11666   3.888   1.100   9.481  0.4146 -0.7047 -0.2827
  828MOL0     C11667   3.822   1.122   9.349  0.2819 -0.7814  0.9801
  828MOL0     C11668   3.667   1.109   9.344 -0.2358 -0.1895 -0.0980
  828MOL0     O11669   3.611   1.188   9.452 -0.7982  0.1106  0.3318
  828MOL0     C11670   3.472   1.195   9.444  0.5929  0.1188  0.2798
  828MOL0     C11671   3.389   1.126   9.362 -0.6592  0.2663 -0.7495
  828MOL0     C11672   3.254   1.148   9.363  0.5162 -0.4688 -0.0684
  828MOL0     C11673   3.175   1.044   9.294  0.1060 -0.2675 -0.2733
  828MOL0     C11674   3.197   1.247   9.449  0.4408 -0.2137 -0.0067
  828MOL0     C11675   3.051   1.277   9.451 -0.1337  0.2855  0.7171
  828MOL0     O11676   2.991   1.311   9.569  0.6814  0.0687  0.3674
  828MOL0     C11677   2.854   1.330   9.562 -0.9189 -0.5811  0.5143
  828MOL0     C11678   2.763   1.236   9.538 -0.1405 -0.4705 -0.0151
  828MOL0     C11679   2.631   1.269   9.523 -0.2269 -1.2499 -0.1546
  828MOL0     C11680   2.590   1.400   9.521 -0.0016 -0.2858 -1.0891
  828MOL0     O11681   2.460   1.439   9.498  0.2970  0.3710  0.6713
  828MOL0     C11682   2.361   1.341   9.468  0.2680  0.2508 -0.2375
  828MOL0     C11683   2.230   1.406   9.480  0.4369 -0.7679 -0.8463
  828MOL0     C11684   2.115   1.322   9.436 -0.6975 -0.4201 -0.6867
  828MOL0     C11685   1.981   1.384   9.482  0.0663 -0.3461  0.0880
  828MOL0     C11686   1.875   1.296   9.413  0.6276 -0.1379  0.5486
  828MOL0     C11687   1.725   1.333   9.442 -0.2695  0.0929  0.7799
  828MOL0     C11688   1.634   1.213   9.405 -0.0205  0.1196 -0.5281
  828MOL0     C11689   1.506   1.271   9.324 -0.0359 -0.2801  0.1536
  828MOL0    Cl11690   1.407   1.377   9.432 -0.0454 -0.2875  0.0490
  828MOL0     C11691   2.683   1.497   9.545 -0.3983  0.1842 -0.1110
  828MOL0     C11692   2.819   1.467   9.571  0.8537 -0.4952  0.4885
  828MOL0     O11693   2.995   1.273   9.345 -0.8556 -0.4631 -0.0204
  828MOL0     C11694   3.281   1.324   9.525 -0.6202 -0.1903 -0.7461
  828MOL0     C11695   3.416   1.285   9.540  0.1718  0.0419  0.7192
  828MOL0     N11696   4.109   1.063   9.238 -0.6245  0.4277  0.8685
  828MOL0     N11697   4.213   1.018   9.176  0.7753 -0.7817  0.1689
  828MOL0     C11698   5.436   1.370   8.886  0.0081 -0.0082  0.0965
  828MOL0     C11699   5.558   1.434   8.840  0.9939 -0.6066  0.0108
  828MOL0     C11700   5.946   1.702   8.908 -0.5245 -0.0745  0.4287
  828MOL0     C11701   6.015   1.617   8.814 -0.8642 -0.4566  0.3738
  828MOL0     C11702   6.155   1.626   8.785  0.0819  0.1528  0.1593
  828MOL0     C11703   6.230   1.733   8.837 -0.4759  0.1986 -0.1681
  828MOL0     O11704   6.360   1.749   8.796  0.3972 -0.0589 -0.0832
  828MOL0     C11705   6.445   1.785   8.910  0.3933  0.2792 -0.0780
  828MOL0     C11706   6.534   1.662   8.945 -0.2014 -0.1569  0.6937
  828MOL0     C11707   6.444   1.553   8.998  0.2706 -0.0584  0.3789
  828MOL0     C11708   6.522   1.461   9.087 -0.2134  0.2934  0.6326
  828MOL0     C11709   6.460   1.329   9.096  0.6936  0.0552  0.6101
  828MOL0     C11710   6.403   1.226   9.111  0.2116  0.8116  0.3755
  828MOL0     C11711   6.161   1.828   8.921  0.0166  0.5886  0.5635
  828MOL0     C11712   6.026   1.808   8.963 -0.0215 -0.2917 -0.4223
  828MOL0     H11713   5.601   1.604   9.114  0.1057 -5.7272  2.8130
  828MOL0     H11714   5.389   1.516   9.184  0.2996 -1.7200 -0.7659
  828MOL0     H11715   5.212   1.358   9.235 -1.2356  0.1384  0.4970
  828MOL0     H11716   5.134   1.487   9.133 -1.9728 -1.0369 -0.4350
  828MOL0     H11717   5.008   1.292   9.022 -1.2652 -0.2782 -0.2957
  828MOL0     H11718   5.070   1.194   9.164 -0.3053  1.3881  2.8615
  828MOL0     H11719   4.945   1.343   9.326  0.5009 -1.5867 -0.0124
  828MOL0     H11720   4.886   1.432   9.178  0.9004  1.1872  0.7778
  828MOL0     H11721   4.773   1.234   9.104 -2.1795 -2.3217  1.3544
  828MOL0     H11722   4.831   1.156   9.259  2.0498  1.4022  1.8880
  828MOL0     H11723   4.699   1.362   9.363  1.3301 -0.7301 -1.1385
  828MOL0     H11724   4.624   1.387   9.212  1.3448 -0.1724 -1.1474
  828MOL0     H11725   4.591   1.147   9.390  2.2145  1.3446  0.4357
  828MOL0     H11726   4.468   1.256   9.336 -0.8380 -0.3720 -1.1280
  828MOL0     H11727   4.470   1.162   9.104  2.5572 -1.8333 -3.0100
  828MOL0     H11728   4.624   1.082   9.128 -1.3298 -0.0296 -2.3428
  828MOL0     H11729   4.498   0.946   9.319 -3.4328 -1.1365  1.1117
  828MOL0     H11730   4.458   0.916   9.152 -0.7658  0.8163 -0.2499
  828MOL0     H11731   4.336   1.074   9.479 -1.7309 -1.9946  1.3921
  828MOL0     H11732   4.074   1.076   9.578 -1.6332 -2.3885 -0.4110
  828MOL0     H11733   4.068   1.237   9.499 -0.8072 -0.5286  0.0656
  828MOL0     H11734   3.843   1.171   9.551 -2.4850 -0.5792 -2.1170
  828MOL0     H11735   3.871   0.998   9.519 -1.9226 -0.4834 -0.6091
  828MOL0     H11736   3.851   1.049   9.273  0.5922  2.7977 -2.6981
  828MOL0     H11737   3.845   1.221   9.306 -0.5598  0.4432  3.1829
  828MOL0     H11738   3.627   1.007   9.342 -2.2678  0.5615 -0.1555
  828MOL0     H11739   3.652   1.158   9.248 -0.0556 -1.9813 -1.0880
  828MOL0     H11740   3.427   1.041   9.306 -3.4384 -0.7960 -1.1959
  828MOL0     H11741   3.150   1.069   9.191 -0.3064 -0.3551 -0.1942
  828MOL0     H11742   3.229   0.950   9.309 -0.0285  0.0044  2.4240
  828MOL0     H11743   3.077   1.018   9.334 -0.7610  1.5278 -1.1538
  828MOL0     H11744   2.784   1.130   9.527 -0.7795 -0.5941 -0.1044
  828MOL0     H11745   2.565   1.186   9.504 -1.0256 -0.1856 -2.4181
  828MOL0     H11746   2.382   1.299   9.369 -1.8657  0.6283 -0.9075
  828MOL0     H11747   2.355   1.259   9.539  1.1807 -0.6165 -1.1417
  828MOL0     H11748   2.211   1.432   9.585  0.8239  0.2156 -1.0098
  828MOL0     H11749   2.233   1.494   9.415  0.2728  0.0979  0.2793
  828MOL0     H11750   2.120   1.229   9.493 -0.8955  0.4528  0.7992
  828MOL0     H11751   2.125   1.307   9.328  1.3222  1.5757 -0.8496
  828MOL0     H11752   1.961   1.381   9.589 -1.3175  2.3691 -0.0082
  828MOL0     H11753   1.986   1.490   9.455 -0.5446 -0.7988 -2.0717
  828MOL0     H11754   1.895   1.192   9.440  0.9534 -0.3729 -0.5548
  828MOL0     H11755   1.898   1.305   9.306 -0.5311  2.2753  0.4353
  828MOL0     H11756   1.705   1.359   9.547  0.5666  0.4997  0.8396
  828MOL0     H11757   1.694   1.424   9.390  2.3329  0.2589 -0.6027
  828MOL0     H11758   1.595   1.149   9.484 -1.5644 -0.3208 -1.5940
  828MOL0     H11759   1.702   1.147   9.351 -0.7664 -1.3100  0.2300
  828MOL0     H11760   1.445   1.190   9.283  1.0108 -0.3790 -1.2828
  828MOL0     H11761   1.545   1.320   9.235 -1.9853  0.3179 -0.4245
  828MOL0     H11762   2.666   1.604   9.543  0.8768  0.4233  0.9138
  828MOL0     H11763   2.899   1.540   9.573  1.7809 -1.4178 -0.8760
  828MOL0     H11764   3.248   1.404   9.590  1.3738  1.5145 -1.7102
  828MOL0     H11765   3.480   1.339   9.610 -0.6298 -0.8978  2.2270
  828MOL0     H11766   5.388   1.297   8.822  2.1749  0.4989 -2.2689
  828MOL0     H11767   5.605   1.395   8.750 -1.1228 -1.0652 -0.9580
  828MOL0     H11768   5.963   1.528   8.781  0.2971 -1.6023  1.4733
  828MOL0     H11769   6.196   1.541   8.733 -3.0228  0.2821 -2.7895
  828MOL0     H11770   6.500   1.874   8.878 -1.9382  1.5983 -0.6773
  828MOL0     H11771   6.392   1.809   9.003 -0.1421 -1.6583  0.1544
  828MOL0     H11772   6.609   1.683   9.021 -0.6007 -2.2734  1.7494
  828MOL0     H11773   6.593   1.636   8.856  0.1160 -0.4438  0.9812
  828MOL0     H11774   6.398   1.499   8.914  1.6347  0.0827 -0.5071
  828MOL0     H11775   6.368   1.609   9.053  0.4157 -0.2216  0.7488
  828MOL0     H11776   6.520   1.509   9.186 -4.9527 -2.4148  2.1947
  828MOL0     H11777   6.623   1.445   9.049 -0.1912  0.1870  0.7341
  828MOL0     H11778   6.370   1.127   9.137 -0.1369  1.3029  1.9354
  828MOL0     H11779   6.219   1.910   8.961  0.8932  0.4596 -0.4150
  828MOL0     H11780   5.984   1.865   9.045  3.3476 -0.4581  1.6374
  829MOL0     O11781   7.450   0.996   1.182  0.6779 -0.7025  1.3915
  829MOL0     C11782   7.440   1.071   1.077  0.1604  1.2321 -0.6842
  829MOL0     O11783   7.532   1.091   0.988 -0.5426 -0.1552 -0.4481
  829MOL0     C11784   7.661   1.038   1.009 -1.0647  0.4253  0.2452
  829MOL0     C11785   7.769   1.122   0.969  0.0075  0.1689  0.2232
  829MOL0     C11786   7.906   1.072   0.984  0.1612 -0.8289  0.1615
  829MOL0     C11787   7.935   0.947   1.044 -0.1652 -0.6152  0.5966
  829MOL0     O11788   8.062   0.891   1.074 -0.1955 -0.3275  0.2376
  829MOL0     C11789   8.170   0.921   0.990 -0.2905 -0.3586  0.6170
  829MOL0     C11790   8.285   0.829   1.007  0.3806 -0.0938 -0.1593
  829MOL0     C11791   8.406   0.852   0.934 -0.6190 -0.3533 -0.1340
  829MOL0     C11792   8.502   0.731   0.932 -0.1550 -0.0489 -0.0020
  829MOL0     C11793   8.650   0.764   0.882 -0.0481  0.3844 -0.3559
  829MOL0     C11794   8.738   0.637   0.854 -0.0500  0.1389  0.1754
  829MOL0     C11795   8.864   0.685   0.790  0.3201 -0.2593  0.1401
  829MOL0     C11796   8.970   0.575   0.773 -0.5039 -0.5274  0.0338
  829MOL0     N11797   9.001   0.512   0.896  0.4715 -1.2579 -0.7140
  829MOL0     C11798   8.958   0.391   0.931  0.1266  0.7081 -0.3159
  829MOL0     C11799   9.038   0.370   1.042  0.0119  0.5645  0.0773
  829MOL0     C11800   9.030   0.238   1.120  0.1106  0.2038  0.6285
  829MOL0     C11801   8.885   0.189   1.148  0.3738  0.6039  0.3816
  829MOL0     C11802   8.817   0.274   1.261 -0.0258 -0.5245 -0.0713
  829MOL0     C11803   8.674   0.226   1.292 -0.6577  0.0181 -0.8328
  829MOL0     O11804   8.632   0.128   1.201  0.3476 -0.2650  0.0484
  829MOL0     C11805   8.500   0.095   1.196 -0.4842 -0.5007  0.1270
  829MOL0     C11806   8.467   0.035   1.076 -0.2459 -0.9351  0.0810
  829MOL0     C11807   8.335  -0.018   1.058 -0.7134  0.5461 -0.2464
  829MOL0     C11808   8.312  -0.075   0.918 -0.0234 -0.3542 -0.0428
  829MOL0     C11809   8.241  -0.020   1.166 -1.0052  0.9664  0.4675
  829MOL0     C11810   8.102  -0.069   1.149 -0.4507  0.6575  0.2749
  829MOL0     O11811   7.997   0.006   1.209 -0.1704 -0.0260  0.6770
  829MOL0     C11812   7.865  -0.004   1.165 -0.3407 -0.4119  0.3289
  829MOL0     C11813   7.782   0.109   1.144 -0.3760  0.3187  0.5519
  829MOL0     C11814   7.649   0.095   1.092 -0.4322 -0.1234  0.0798
  829MOL0     C11815   7.596  -0.024   1.069 -0.2217  0.4754  0.9082
  829MOL0     O11816   7.469  -0.032   1.033 -0.1264 -0.0914 -0.4414
  829MOL0     C11817   7.390  -0.152   1.027 -0.0084  0.6728  0.1989
  829MOL0     C11818   7.236  -0.147   0.996  0.0021 -0.1565  0.2991
  829MOL0     C11819   7.173  -0.068   1.111 -0.3564  0.1474  0.2585
  829MOL0     C11820   7.018  -0.080   1.103 -0.2853 -0.4371  0.1142
  829MOL0     C11821   6.954  -0.058   0.967 -0.0963  0.5480 -0.1541
  829MOL0     C11822   6.810  -0.025   0.990 -0.3254  0.1162  0.3683
  829MOL0     C11823   6.763   0.084   0.891  0.6360 -0.1222 -0.2922
  829MOL0     C11824   6.747   0.012   0.754 -0.1381 -0.8350  0.4453
  829MOL0    Cl11825   6.688   0.120   0.615 -0.4236 -0.0971  0.7211
  829MOL0     C11826   7.673  -0.138   1.087 -0.0419  0.1277 -0.0137
  829MOL0     C11827   7.811  -0.129   1.132  0.0964  0.6106 -0.5200
  829MOL0     O11828   8.095  -0.175   1.082  0.4576  0.1190  0.1122
  829MOL0     C11829   8.283   0.046   1.284  0.8969 -0.1852  0.0739
  829MOL0     C11830   8.412   0.093   1.306 -0.0371  0.1808 -0.1122
  829MOL0     N11831   9.120   0.479   1.074  0.2447 -0.1505  0.5788
  829MOL0     N11832   9.091   0.576   0.986  0.7401  0.2034 -0.0404
  829MOL0     C11833   7.824   0.869   1.076 -0.1403 -0.1429  0.2649
  829MOL0     C11834   7.689   0.914   1.059  0.5800 -0.4864 -0.5156
  829MOL0     C11835   7.306   1.126   1.058  0.1144 -0.8020 -0.3426
  829MOL0     C11836   7.188   1.093   1.135 -0.4632 -0.0616 -0.3985
  829MOL0     C11837   7.065   1.150   1.106  0.2393 -0.5956  0.0789
  829MOL0     C11838   7.049   1.242   1.002  0.7380  1.2050 -0.4634
  829MOL0     O11839   6.916   1.273   0.972 -0.2773 -0.6562  0.2092
  829MOL0     C11840   6.866   1.253   0.835 -0.0036  0.2299  0.6480
  829MOL0     C11841   6.732   1.326   0.801 -1.3786 -0.6336  0.5551
  829MOL0     C11842   6.614   1.277   0.882  0.7750 -0.5642 -1.2152
  829MOL0     C11843   6.473   1.345   0.855 -0.6291  0.7937 -0.0103
  829MOL0     C11844   6.467   1.470   0.926  0.0845  0.3718  0.6028
  829MOL0     C11845   6.435   1.565   0.989  0.1006  0.3284  0.5453
  829MOL0     C11846   7.161   1.289   0.931 -0.2218  0.4187 -0.7628
  829MOL0     C11847   7.291   1.228   0.959  0.1333  0.3970 -0.2279
  829MOL0     H11848   7.746   1.216   0.920 -2.2653  0.5946  1.9616
  829MOL0     H11849   7.992   1.137   0.969 -0.3345 -0.7580 -3.1787
  829MOL0     H11850   8.141   0.912   0.885 -1.8095  0.1531  0.9770
  829MOL0     H11851   8.200   1.023   1.016  1.3036  0.1485 -2.7130
  829MOL0     H11852   8.306   0.823   1.114  0.5947 -0.9278 -0.2444
  829MOL0     H11853   8.245   0.730   0.985 -1.4861  0.4980  0.4078
  829MOL0     H11854   8.380   0.858   0.828 -2.6655 -0.5383  0.3161
  829MOL0     H11855   8.460   0.941   0.970  1.6008 -1.8620  0.5144
  829MOL0     H11856   8.513   0.695   1.035  0.4565  2.4699  0.8866
  829MOL0     H11857   8.443   0.657   0.877  1.2441 -1.0061 -0.2733
  829MOL0     H11858   8.627   0.813   0.787 -0.7058  0.1961 -0.2979
  829MOL0     H11859   8.700   0.828   0.955  0.7130 -2.5612  1.9204
  829MOL0     H11860   8.756   0.590   0.951 -0.5579  2.3417  1.4061
  829MOL0     H11861   8.687   0.567   0.788  1.5471 -0.6556 -0.2809
  829MOL0     H11862   8.844   0.721   0.688  0.1411 -1.0084 -0.0960
  829MOL0     H11863   8.907   0.765   0.850  0.6228  1.0430 -1.7377
  829MOL0     H11864   9.061   0.613   0.725 -1.5497 -0.4683 -2.0000
  829MOL0     H11865   8.937   0.497   0.704 -1.5582 -0.5358  0.5359
  829MOL0     H11866   8.880   0.331   0.885  0.0346 -0.4239  1.2471
  829MOL0     H11867   9.073   0.158   1.059 -2.6151 -1.1349  0.3253
  829MOL0     H11868   9.084   0.241   1.215  0.2830 -3.2499  0.7818
  829MOL0     H11869   8.900   0.084   1.174  2.2630  1.1159  1.5786
  829MOL0     H11870   8.825   0.193   1.056  1.0321 -0.2594 -0.1065
  829MOL0     H11871   8.815   0.380   1.233 -0.8557 -1.2068 -2.8415
  829MOL0     H11872   8.879   0.260   1.350  0.4982 -0.5845 -0.4366
  829MOL0     H11873   8.596   0.303   1.293 -1.3840 -0.6668  1.6007
  829MOL0     H11874   8.676   0.192   1.396 -1.5168 -0.7272 -1.0462
  829MOL0     H11875   8.537   0.037   0.994 -1.6875  0.6203 -1.2025
  829MOL0     H11876   8.404  -0.041   0.870  0.1297  0.4819  0.8091
  829MOL0     H11877   8.304  -0.184   0.921  1.5965 -0.5034  2.4627
  829MOL0     H11878   8.229  -0.015   0.880 -0.2505  0.3401  1.4814
  829MOL0     H11879   7.821   0.207   1.168  0.2367  0.2206 -0.0145
  829MOL0     H11880   7.587   0.183   1.076 -0.7926  0.0568  2.1657
  829MOL0     H11881   7.436  -0.212   0.949 -0.3059 -0.8385  1.1603
  829MOL0     H11882   7.418  -0.216   1.111  3.6029  2.1626  0.3095
  829MOL0     H11883   7.213  -0.091   0.905 -0.7414 -0.1062  0.5126
  829MOL0     H11884   7.186  -0.244   0.985 -4.5620  2.0038 -0.5952
  829MOL0     H11885   7.211   0.034   1.101 -1.1627  0.4956  0.5575
  829MOL0     H11886   7.211  -0.099   1.209 -0.3976  1.7681  0.8210
  829MOL0     H11887   6.986  -0.173   1.152 -5.5243  0.5478 -0.8373
  829MOL0     H11888   6.975  -0.002   1.167 -2.4227 -1.2726 -0.1953
  829MOL0     H11889   6.969  -0.138   0.895  2.4854  1.1809 -0.4146
  829MOL0     H11890   6.989   0.035   0.922  1.2005 -0.2792 -0.9145
  829MOL0     H11891   6.756  -0.118   0.976  0.1125 -0.1779  0.6133
  829MOL0     H11892   6.797  -0.000   1.096  4.2629  0.2710  1.0877
  829MOL0     H11893   6.841   0.160   0.894 -0.2855  0.8824 -0.9998
  829MOL0     H11894   6.666   0.130   0.915  0.0055 -1.1485 -0.7950
  829MOL0     H11895   6.672  -0.067   0.752 -2.7898  1.5190 -2.0882
  829MOL0     H11896   6.842  -0.030   0.719 -1.4008 -0.8324 -3.4836
  829MOL0     H11897   7.641  -0.238   1.058  0.8765 -0.3854  0.6541
  829MOL0     H11898   7.865  -0.223   1.129 -2.4606 -0.9010 -3.0226
  829MOL0     H11899   8.206   0.034   1.360 -0.9153  1.7196 -1.3254
  829MOL0     H11900   8.433   0.147   1.398 -1.1241  0.4559 -0.0076
  829MOL0     H11901   7.842   0.765   1.102 -1.3923 -0.3303  0.4478
  829MOL0     H11902   7.605   0.846   1.072  0.6754 -0.5427 -0.1661
  829MOL0     H11903   7.191   1.030   1.223 -0.9093  0.2040 -0.1913
  829MOL0     H11904   6.985   1.114   1.169 -0.2420 -1.1739 -0.8424
  829MOL0     H11905   6.942   1.267   0.758  2.1363 -0.2832  2.5297
  829MOL0     H11906   6.838   1.147   0.830 -1.2326  0.5461  0.4690
  829MOL0     H11907   6.710   1.307   0.696 -1.7586 -0.7969  0.6631
  829MOL0     H11908   6.732   1.435   0.816 -2.1754 -0.8298  2.2105
  829MOL0     H11909   6.634   1.289   0.989 -2.5768 -2.0235 -0.2875
  829MOL0     H11910   6.606   1.169   0.866 -1.4656 -0.8729  1.1977
  829MOL0     H11911   6.392   1.282   0.892 -0.1009 -0.9342 -1.6686
  829MOL0     H11912   6.461   1.360   0.747 -0.6380 -0.1793 -0.1476
  829MOL0     H11913   6.404   1.654   1.040  2.4687  1.4005  0.2111
  829MOL0     H11914   7.144   1.378   0.872  0.7837  3.0805  2.6040
  829MOL0     H11915   7.375   1.255   0.896  0.9428 -3.2443 -0.9399
  830MOL0     O11916   7.026   1.808   9.061  0.4969 -0.9796 -0.5408
  830MOL0     C11917   7.048   1.771   9.175 -0.2106  0.1328 -0.2994
  830MOL0     O11918   7.173   1.755   9.229  0.1088 -0.2810 -0.0672
  830MOL0     C11919   7.288   1.764   9.156  0.5086 -0.2227 -0.4580
  830MOL0     C11920   7.305   1.738   9.020 -1.0946 -0.4335 -0.6596
  830MOL0     C11921   7.426   1.737   8.965  0.1335  0.1595  0.2328
  830MOL0     C11922   7.538   1.758   9.049  0.3043  0.3460  0.5571
  830MOL0     O11923   7.654   1.756   8.975  0.2871  0.0628  0.2676
  830MOL0     C11924   7.764   1.833   9.021 -0.0878 -0.5795 -0.7379
  830MOL0     C11925   7.860   1.853   8.897  0.4553  0.1486 -0.0522
  830MOL0     C11926   7.960   1.960   8.914 -0.6475 -0.8102  1.2901
  830MOL0     C11927   8.076   1.944   9.015  0.5587 -0.4531 -0.5706
  830MOL0     C11928   8.134   2.090   9.033  0.2400  0.3869  0.3327
  830MOL0     C11929   8.262   2.101   9.123  0.3382 -0.1882  0.7060
  830MOL0     C11930   8.320   2.243   9.113 -0.3500  0.0027  0.0987
  830MOL0     C11931   8.436   2.256   9.013  0.2207  0.0439  0.3993
  830MOL0     N11932   8.482   2.390   9.024 -0.8602  0.3973 -0.2733
  830MOL0     C11933   8.589   2.426   9.108 -0.0860  0.4279 -0.1930
  830MOL0     C11934   8.607   2.556   9.071 -0.2364 -0.0349 -0.3801
  830MOL0     C11935   8.709   2.637   9.130 -0.2937 -0.4949  0.4945
  830MOL0     C11936   8.643   2.724   9.242  0.1059 -0.4291  0.3057
  830MOL0     C11937   8.624   2.647   9.381  0.0421  0.1658  0.1605
  830MOL0     C11938   8.491   2.572   9.398  0.4428 -0.6036 -0.5452
  830MOL0     O11939   8.392   2.657   9.460  0.1321 -0.7796  0.0142
  830MOL0     C11940   8.277   2.599   9.515 -1.1571 -0.3371 -0.4601
  830MOL0     C11941   8.232   2.475   9.471 -0.3978 -0.7808  0.5111
  830MOL0     C11942   8.103   2.429   9.502  0.4909 -0.6938 -0.6626
  830MOL0     C11943   8.049   2.317   9.422  0.6864  0.6379  1.1379
  830MOL0     C11944   8.024   2.492   9.595 -0.6525 -0.5339 -0.8101
  830MOL0     C11945   7.893   2.439   9.653 -0.6532  0.1313  0.4139
  830MOL0     O11946   7.802   2.533   9.680 -0.1752  0.1821 -0.3835
  830MOL0     C11947   7.675   2.487   9.714  0.4406 -0.1788 -0.0340
  830MOL0     C11948   7.648   2.401   9.821 -0.8921  0.8065 -1.1315
  830MOL0     C11949   7.523   2.381   9.870 -0.4902  0.2746  0.3388
  830MOL0     C11950   7.412   2.447   9.826 -0.3500 -1.1431  0.5765
  830MOL0     O11951   7.294   2.399   9.861  0.0774  0.2880 -0.1861
  830MOL0     C11952   7.174   2.433   9.786 -0.8428  0.7861  0.5439
  830MOL0     C11953   7.049   2.357   9.815  0.0493  0.1320  0.4836
  830MOL0     C11954   6.956   2.389   9.936  1.1198 -0.1074  0.0105
  830MOL0     C11955   7.023   2.397  10.063 -0.1786 -0.3889 -0.2989
  830MOL0     C11956   7.089   2.263  10.106 -0.1730  0.8639 -0.1094
  830MOL0     C11957   7.146   2.253  10.254  0.3121 -0.2354  0.0558
  830MOL0     C11958   7.262   2.342  10.300  0.1257 -0.3619 -0.0728
  830MOL0     C11959   7.387   2.311  10.229  0.1151 -0.4541 -1.1973
  830MOL0    Cl11960   7.519   2.413  10.295  0.0872  0.2996 -0.3659
  830MOL0     C11961   7.434   2.540   9.717 -0.0154  0.3522 -0.3768
  830MOL0     C11962   7.568   2.561   9.667  0.6884  0.0846  0.4148
  830MOL0     O11963   7.894   2.317   9.677  0.3197 -0.7955  0.0066
  830MOL0     C11964   8.069   2.614   9.640 -0.0987 -0.8349 -0.2517
  830MOL0     C11965   8.194   2.670   9.606  0.1063  0.4543  0.9742
  830MOL0     N11966   8.508   2.592   8.989  0.1570 -0.7002  0.3995
  830MOL0     N11967   8.444   2.492   8.948  0.7228  0.4776  0.7099
  830MOL0     C11968   7.531   1.797   9.180  0.2067  0.1645 -0.5451
  830MOL0     C11969   7.403   1.799   9.234 -0.1269 -0.4854 -0.3939
  830MOL0     C11970   6.934   1.748   9.259  0.8410  0.3586 -0.4815
  830MOL0     C11971   6.948   1.704   9.399 -0.0487 -0.0466  0.2002
  830MOL0     C11972   6.847   1.706   9.497  0.2119 -0.2424  0.3493
  830MOL0     C11973   6.718   1.743   9.457 -0.0886 -0.1674  0.3248
  830MOL0     O11974   6.605   1.742   9.535 -0.2428  0.4377  0.6880
  830MOL0     C11975   6.638   1.753   9.674 -0.7195 -0.0548 -0.9031
  830MOL0     C11976   6.506   1.813   9.729 -0.2317  0.9545 -0.0068
  830MOL0     C11977   6.504   1.844   9.874 -0.1857 -0.7138 -0.5181
  830MOL0     C11978   6.367   1.893   9.924  1.3551  0.6881 -0.0167
  830MOL0     C11979   6.323   2.026   9.879  0.0232 -0.8287 -0.1599
  830MOL0     C11980   6.291   2.131   9.843 -0.2796  0.3769 -0.1116
  830MOL0     C11981   6.701   1.788   9.330  0.3577 -0.2275 -0.1794
  830MOL0     C11982   6.801   1.795   9.228 -0.2646  0.5128  0.4741
  830MOL0     H11983   7.218   1.710   8.961 -1.9509 -1.0689  0.8513
  830MOL0     H11984   7.430   1.712   8.859 -2.7111  1.2926 -0.2139
  830MOL0     H11985   7.723   1.931   9.047 -1.8531 -1.1277 -1.3455
  830MOL0     H11986   7.814   1.794   9.110 -1.1393  0.8513  0.5242
  830MOL0     H11987   7.908   1.757   8.877  0.3725  0.6544 -3.2408
  830MOL0     H11988   7.793   1.874   8.813  0.2491 -2.3641 -0.5752
  830MOL0     H11989   7.995   1.980   8.812 -0.9450 -1.6498  1.0196
  830MOL0     H11990   7.900   2.047   8.944 -1.7014 -0.6387 -1.0470
  830MOL0     H11991   8.045   1.898   9.109  3.2136 -2.7774 -0.6922
  830MOL0     H11992   8.156   1.880   8.976  0.1191 -2.4907  1.6504
  830MOL0     H11993   8.155   2.142   8.939  1.7710 -0.4009  0.2173
  830MOL0     H11994   8.057   2.156   9.074 -0.9275  0.3115 -1.6186
  830MOL0     H11995   8.250   2.062   9.224  1.2460 -0.3832  0.7421
  830MOL0     H11996   8.343   2.041   9.080  1.4860 -0.1589  2.7501
  830MOL0     H11997   8.244   2.321   9.104 -0.8033 -0.4696 -0.2635
  830MOL0     H11998   8.373   2.263   9.206 -2.3114 -0.2632  1.3363
  830MOL0     H11999   8.407   2.232   8.910 -5.1249  1.0724  1.4128
  830MOL0     H12000   8.511   2.180   9.039  0.2590 -1.1062 -2.6693
  830MOL0     H12001   8.657   2.366   9.167 -2.2867 -1.6733  0.3679
  830MOL0     H12002   8.791   2.581   9.176 -1.6561 -3.7270 -0.7258
  830MOL0     H12003   8.746   2.698   9.047  0.0905 -3.5067 -1.7134
  830MOL0     H12004   8.544   2.764   9.218 -0.3515 -0.8338  1.4781
  830MOL0     H12005   8.710   2.810   9.250  0.6029 -0.9457  2.0834
  830MOL0     H12006   8.645   2.720   9.460 -0.0985  1.0386 -0.5875
  830MOL0     H12007   8.708   2.579   9.402  0.7624  0.4284 -1.7038
  830MOL0     H12008   8.513   2.488   9.465  3.0389 -0.1165 -0.7086
  830MOL0     H12009   8.449   2.525   9.308 -1.2009  1.1800 -0.7780
  830MOL0     H12010   8.278   2.426   9.386  0.4638 -0.1320  0.5964
  830MOL0     H12011   8.032   2.226   9.481 -0.0448 -0.7864 -1.1287
  830MOL0     H12012   7.953   2.338   9.374  1.8088 -0.3241 -1.7572
  830MOL0     H12013   8.126   2.295   9.347  2.8127 -1.8590  3.7813
  830MOL0     H12014   7.736   2.349   9.857 -0.1985  0.1476 -3.5590
  830MOL0     H12015   7.504   2.308   9.949 -2.7529  1.1015  0.6445
  830MOL0     H12016   7.145   2.536   9.811 -1.9690  0.6562 -0.1463
  830MOL0     H12017   7.192   2.420   9.679  1.0307 -0.2830  0.9514
  830MOL0     H12018   6.987   2.366   9.725  0.6142 -0.9760 -0.0403
  830MOL0     H12019   7.069   2.250   9.826 -2.9497 -0.3287  2.7560
  830MOL0     H12020   6.881   2.311   9.951  3.7256 -2.9362 -0.5521
  830MOL0     H12021   6.908   2.484   9.911  2.6483  1.0548  1.3467
  830MOL0     H12022   7.101   2.472  10.052 -0.3221  0.0711  1.4861
  830MOL0     H12023   6.947   2.423  10.137  0.5483  0.8029  0.0565
  830MOL0     H12024   7.169   2.234  10.037 -0.1698 -1.5614  0.8093
  830MOL0     H12025   7.016   2.181  10.112  2.5647 -1.6910  1.3405
  830MOL0     H12026   7.068   2.253  10.331  0.8049  0.8729  0.5643
  830MOL0     H12027   7.175   2.148  10.260  0.3849 -0.2988 -1.1156
  830MOL0     H12028   7.270   2.317  10.406  0.4767  0.0322 -0.0055
  830MOL0     H12029   7.236   2.448  10.294  0.2499 -0.0486  3.2426
  830MOL0     H12030   7.366   2.333  10.123 -0.5851  1.0512 -0.7665
  830MOL0     H12031   7.412   2.206  10.249  1.8704  0.7634  5.0942
  830MOL0     H12032   7.351   2.590   9.667 -2.5769 -2.8169  0.3168
  830MOL0     H12033   7.602   2.626   9.587 -0.7469  3.4788  2.3640
  830MOL0     H12034   8.007   2.674   9.705 -0.6555  0.7196 -2.1152
  830MOL0     H12035   8.225   2.770   9.634 -1.0929  1.5117 -1.2550
  830MOL0     H12036   7.621   1.822   9.235  0.5849 -2.4346  0.1035
  830MOL0     H12037   7.385   1.825   9.338  1.6009 -1.1928  0.1265
  830MOL0     H12038   7.037   1.653   9.436  1.9572  1.1000 -2.6892
  830MOL0     H12039   6.866   1.662   9.594  0.5276 -0.8367  0.0278
  830MOL0     H12040   6.661   1.654   9.712 -1.4140  0.9143  2.3962
  830MOL0     H12041   6.724   1.815   9.700 -2.1348  0.7094  2.5369
  830MOL0     H12042   6.427   1.742   9.704  0.9257 -0.1152 -0.7738
  830MOL0     H12043   6.479   1.907   9.678 -1.3152 -0.8085 -2.9525
  830MOL0     H12044   6.582   1.917   9.892  0.1320 -1.4327  1.2227
  830MOL0     H12045   6.530   1.763   9.943  0.5238 -0.1464 -0.1177
  830MOL0     H12046   6.373   1.897  10.033  3.0515  1.7380 -0.1235
  830MOL0     H12047   6.282   1.824   9.917 -0.2734  2.2470  2.7018
  830MOL0     H12048   6.256   2.229   9.815 -2.4372 -1.0421 -2.9507
  830MOL0     H12049   6.609   1.821   9.283  1.0817  0.3277 -1.2534
  830MOL0     H12050   6.774   1.842   9.135 -2.4737  1.7549  1.6725
  831MOL0     O12051   8.610   7.399   8.862 -0.0784  0.2052  0.5388
  831MOL0     C12052   8.682   7.489   8.827  0.2162 -0.3876 -0.1702
  831MOL0     O12053   8.633   7.611   8.782 -0.3456  0.6659 -0.0595
  831MOL0     C12054   8.496   7.640   8.766  0.8716 -0.0073  0.0438
  831MOL0     C12055   8.417   7.689   8.866  0.8076  0.2833 -0.7380
  831MOL0     C12056   8.298   7.754   8.848  0.5175  0.0070  0.4933
  831MOL0     C12057   8.238   7.767   8.713 -0.6568  0.1305  0.0697
  831MOL0     O12058   8.123   7.818   8.670  0.3928 -0.5174  0.0406
  831MOL0     C12059   8.026   7.877   8.756 -0.1229  0.0733 -0.4699
  831MOL0     C12060   7.946   7.756   8.802  0.3294 -0.5598 -0.9614
  831MOL0     C12061   7.837   7.794   8.906  0.7455  0.3374  0.5151
  831MOL0     C12062   7.709   7.840   8.830 -0.2628  0.2214 -0.5193
  831MOL0     C12063   7.592   7.892   8.928 -0.5872 -0.2730  0.0832
  831MOL0     C12064   7.512   7.774   8.983  0.1169  0.5200  0.3895
  831MOL0     C12065   7.423   7.789   9.118 -0.3328  0.3658 -0.2813
  831MOL0     C12066   7.297   7.871   9.076 -0.5393 -0.4220  0.6539
  831MOL0     N12067   7.198   7.882   9.183  0.4964 -0.2539 -1.0405
  831MOL0     C12068   7.076   7.819   9.200  0.3778 -0.7594 -0.0737
  831MOL0     C12069   7.006   7.881   9.303 -1.4075  0.2524 -1.0880
  831MOL0     C12070   6.880   7.833   9.374  1.5378 -0.6373 -0.6524
  831MOL0     C12071   6.759   7.844   9.285 -0.2377 -1.3771  0.8929
  831MOL0     C12072   6.706   7.992   9.272  0.0658  0.3100  0.6689
  831MOL0     C12073   6.654   8.047   9.407  0.2001 -0.2073 -0.1054
  831MOL0     O12074   6.573   8.156   9.377 -0.3060  1.0214  0.1075
  831MOL0     C12075   6.512   8.213   9.490  0.8546  0.3989  0.0763
  831MOL0     C12076   6.585   8.248   9.605 -0.3494  0.1475  0.0791
  831MOL0     C12077   6.522   8.292   9.725 -0.4578  1.2456 -0.3508
  831MOL0     C12078   6.613   8.326   9.843  0.2299 -0.6043 -0.7308
  831MOL0     C12079   6.380   8.298   9.734  0.0842  0.8671  0.0633
  831MOL0     C12080   6.303   8.316   9.857 -0.6381  0.5553  0.3004
  831MOL0     O12081   6.170   8.277   9.842  0.1807 -0.0485 -0.4258
  831MOL0     C12082   6.066   8.281   9.937  0.1675  0.1106  0.4710
  831MOL0     C12083   5.945   8.221   9.891  0.3089  0.2182  0.4428
  831MOL0     C12084   5.831   8.227   9.973 -0.7387 -0.0053  0.2120
  831MOL0     C12085   5.836   8.280  10.096  0.4197 -0.0215  0.1359
  831MOL0     O12086   5.720   8.280  10.178 -0.3750  0.2632  0.3802
  831MOL0     C12087   5.671   8.156  10.226 -0.0991 -0.2822 -0.0662
  831MOL0     C12088   5.521   8.164  10.209  0.1789  0.5537  0.5681
  831MOL0     C12089   5.441   8.275  10.288  0.5731 -0.1760  0.0620
  831MOL0     C12090   5.317   8.321  10.200  0.3281 -0.3626 -0.0215
  831MOL0     C12091   5.251   8.433  10.274 -1.0898  0.0911  0.3644
  831MOL0     C12092   5.157   8.507  10.187  0.3204  0.3686 -0.0019
  831MOL0     C12093   5.112   8.639  10.241 -0.3383 -0.6756 -0.8237
  831MOL0     C12094   4.998   8.692  10.160 -0.5284  0.3928 -0.6426
  831MOL0    Cl12095   5.058   8.840  10.074  0.4861  0.5608 -0.2560
  831MOL0     C12096   5.957   8.328  10.143  0.2344  0.5274 -0.2566
  831MOL0     C12097   6.080   8.321  10.066  0.4224 -0.5590 -0.9828
  831MOL0     O12098   6.356   8.356   9.958 -0.5516  0.1124  0.1723
  831MOL0     C12099   6.306   8.255   9.612 -1.2693 -0.0332 -0.7593
  831MOL0     C12100   6.370   8.218   9.490  0.2030 -0.2696  0.6263
  831MOL0     N12101   7.096   7.971   9.338  0.4544  0.0008 -0.1424
  831MOL0     N12102   7.196   7.990   9.261 -0.1230 -0.2167 -0.1143
  831MOL0     C12103   8.310   7.698   8.614 -0.3223  0.3821  0.4169
  831MOL0     C12104   8.438   7.649   8.637  0.2248  0.6295 -0.1777
  831MOL0     C12105   8.826   7.485   8.837  0.3294  0.6638 -0.6879
  831MOL0     C12106   8.890   7.360   8.867  0.4115 -0.4317 -0.2654
  831MOL0     C12107   9.026   7.350   8.851 -0.0311  0.7034  0.4385
  831MOL0     C12108   9.108   7.453   8.807 -0.4084 -0.1573  0.2136
  831MOL0     O12109   9.246   7.442   8.818  0.3265  0.3444 -0.4081
  831MOL0     C12110   9.300   7.502   8.936  0.3520  0.5832 -0.0221
  831MOL0     C12111   9.313   7.407   9.056 -0.0827  0.8968 -0.1330
  831MOL0     C12112   9.357   7.261   9.012 -1.6774 -0.0090 -0.1236
  831MOL0     C12113   9.398   7.195   9.144  0.2753 -0.1790 -0.2737
  831MOL0     C12114   9.440   7.051   9.129 -0.3859 -0.2962  0.4639
  831MOL0     C12115   9.478   6.934   9.134 -0.0363  0.3516  0.1475
  831MOL0     C12116   9.052   7.574   8.774  0.6113  0.1987 -0.1055
  831MOL0     C12117   8.911   7.594   8.797  0.0382 -0.9919  0.0647
  831MOL0     H12118   8.459   7.674   8.965 -0.5577 -1.3061 -0.3564
  831MOL0     H12119   8.248   7.795   8.935  0.5386  0.2124  0.4095
  831MOL0     H12120   8.073   7.931   8.838 -0.1327  2.1329 -1.7512
  831MOL0     H12121   7.960   7.947   8.704 -0.8681  0.7165  1.2789
  831MOL0     H12122   7.892   7.713   8.718 -1.7023  2.5541 -1.3985
  831MOL0     H12123   8.012   7.682   8.850 -1.9326 -1.1328  1.5047
  831MOL0     H12124   7.811   7.707   8.967 -1.5313 -1.4211 -2.6918
  831MOL0     H12125   7.868   7.878   8.969 -1.6729  0.3673  1.7697
  831MOL0     H12126   7.734   7.928   8.770  0.9313  0.0895 -0.2373
  831MOL0     H12127   7.681   7.755   8.767  1.0747 -0.0353 -0.7894
  831MOL0     H12128   7.634   7.950   9.010 -1.3935 -0.3077  0.5308
  831MOL0     H12129   7.532   7.951   8.858 -0.1517 -3.1166 -2.9597
  831MOL0     H12130   7.445   7.730   8.908 -0.9668 -0.0457  1.6416
  831MOL0     H12131   7.586   7.696   9.005  1.6146  1.8862  0.3770
  831MOL0     H12132   7.380   7.692   9.145 -2.6526  1.6033  0.7616
  831MOL0     H12133   7.479   7.818   9.207  1.3360  3.5703 -2.1785
  831MOL0     H12134   7.244   7.822   8.994 -0.1959  0.5473 -0.1562
  831MOL0     H12135   7.330   7.970   9.042 -4.8346  1.5585  1.4922
  831MOL0     H12136   7.051   7.728   9.145 -2.0555 -1.4846  2.0613
  831MOL0     H12137   6.897   7.731   9.408  0.2568 -0.1922  1.4920
  831MOL0     H12138   6.868   7.886   9.469  1.3442 -0.6552 -0.6683
  831MOL0     H12139   6.684   7.784   9.336  0.8148 -3.7170 -0.1449
  831MOL0     H12140   6.765   7.800   9.185 -1.3324  0.0983  0.1513
  831MOL0     H12141   6.620   7.983   9.205  0.0397  0.3622  0.6966
  831MOL0     H12142   6.784   8.052   9.224 -0.5889  0.0787 -0.7388
  831MOL0     H12143   6.739   8.073   9.472 -0.1820 -0.1723  0.3895
  831MOL0     H12144   6.595   7.971   9.459 -0.7575  0.2722 -0.4605
  831MOL0     H12145   6.693   8.237   9.610 -0.4576 -1.1789 -0.0742
  831MOL0     H12146   6.593   8.246   9.915  0.3606 -0.4521 -0.5261
  831MOL0     H12147   6.721   8.329   9.825  0.2571  0.9947 -0.4413
  831MOL0     H12148   6.593   8.426   9.881 -1.9711  0.4433 -4.1452
  831MOL0     H12149   5.934   8.165   9.799  0.3954 -0.7641  1.0093
  831MOL0     H12150   5.737   8.186   9.936 -0.6901 -0.1509  0.2491
  831MOL0     H12151   5.705   8.076  10.159  0.5304  1.0735 -1.4184
  831MOL0     H12152   5.703   8.143  10.330  0.2750  0.4554 -0.0806
  831MOL0     H12153   5.512   8.180  10.101  0.8788  1.1787  0.5935
  831MOL0     H12154   5.485   8.064  10.234 -0.5731  0.2045 -1.6455
  831MOL0     H12155   5.502   8.366  10.296 -0.4635  0.4689  1.0428
  831MOL0     H12156   5.407   8.243  10.387 -0.7011 -0.1567 -0.3570
  831MOL0     H12157   5.353   8.340  10.099  1.8879 -1.6385  0.2467
  831MOL0     H12158   5.243   8.241  10.193 -1.7026  1.5152 -1.4242
  831MOL0     H12159   5.329   8.501  10.311 -0.4305 -0.8512  0.7453
  831MOL0     H12160   5.204   8.397  10.365  0.7402 -0.4282  1.1483
  831MOL0     H12161   5.200   8.524  10.088  1.7981  0.3809  0.6082
  831MOL0     H12162   5.064   8.451  10.177 -0.2911  1.6009 -1.7599
  831MOL0     H12163   5.193   8.712  10.235 -0.6780 -0.4057 -2.6212
  831MOL0     H12164   5.078   8.627  10.344 -1.8639 -1.0235 -1.3447
  831MOL0     H12165   4.909   8.723  10.215 -1.2068  0.4499 -1.7539
  831MOL0     H12166   4.973   8.620  10.081 -2.6780 -1.2500  1.3810
  831MOL0     H12167   5.949   8.381  10.237 -1.5435 -2.3393  1.3724
  831MOL0     H12168   6.178   8.355  10.099 -1.1033  2.8360  0.5053
  831MOL0     H12169   6.202   8.224   9.624 -0.9514 -0.6271  0.6770
  831MOL0     H12170   6.322   8.174   9.403  0.4581 -2.2577  1.4413
  831MOL0     H12171   8.272   7.686   8.513 -2.7422  0.5380  1.2449
  831MOL0     H12172   8.485   7.594   8.556 -0.8758 -0.3927 -0.1590
  831MOL0     H12173   8.829   7.278   8.903  2.7455 -1.7229  1.0103
  831MOL0     H12174   9.076   7.256   8.875 -1.4755 -0.7862 -1.9079
  831MOL0     H12175   9.395   7.547   8.904 -0.7940  2.3253 -1.1807
  831MOL0     H12176   9.251   7.591   8.976 -1.8516 -1.3587  1.8789
  831MOL0     H12177   9.215   7.396   9.101  1.4713  0.7668  3.5258
  831MOL0     H12178   9.387   7.451   9.124  0.5199  0.0363 -0.2187
  831MOL0     H12179   9.447   7.273   8.950  0.2470 -0.6439  2.3650
  831MOL0     H12180   9.281   7.212   8.950 -1.2906  1.0443 -1.4788
  831MOL0     H12181   9.312   7.202   9.211  0.3306 -0.4437 -0.1738
  831MOL0     H12182   9.486   7.246   9.184  0.8785  0.6981 -2.5510
  831MOL0     H12183   9.507   6.831   9.134  1.2446  0.6694  1.5760
  831MOL0     H12184   9.114   7.658   8.745 -0.3467  0.8452 -0.3691
  831MOL0     H12185   8.874   7.693   8.772 -1.8510 -1.3599  1.2082
  832MOL0     O12186   2.320   6.876   6.448  0.4378 -0.7126  0.4328
  832MOL0     C12187   2.298   6.939   6.339  0.2756  0.6202 -0.8045
  832MOL0     O12188   2.172   6.973   6.281  0.5772 -0.5410 -0.9094
  832MOL0     C12189   2.053   6.950   6.357 -0.3978 -0.0129  0.3261
  832MOL0     C12190   1.958   7.048   6.341 -1.4526  0.4231  0.0153
  832MOL0     C12191   1.838   7.034   6.401  0.3047 -0.7135 -1.1571
  832MOL0     C12192   1.810   6.927   6.495  0.0505  0.1605  0.1467
  832MOL0     O12193   1.696   6.910   6.568 -0.5235 -0.1954 -0.0663
  832MOL0     C12194   1.604   7.016   6.580  0.5529  0.3794  0.6473
  832MOL0     C12195   1.474   6.995   6.671 -0.7284  0.2768 -0.3812
  832MOL0     C12196   1.361   7.093   6.635 -0.2229  0.0026  0.1302
  832MOL0     C12197   1.257   7.067   6.743  0.1261 -0.1792 -0.3084
  832MOL0     C12198   1.123   7.132   6.693  0.2965  1.0114  0.1391
  832MOL0     C12199   0.989   7.111   6.776  0.2361 -0.1072  0.7616
  832MOL0     C12200   0.870   7.186   6.709  0.2204  0.7891 -0.2312
  832MOL0     C12201   0.784   7.093   6.623  0.2335 -0.0278  0.5009
  832MOL0     N12202   0.644   7.148   6.599 -0.0722  0.1327  0.4906
  832MOL0     C12203   0.536   7.133   6.689  0.8105 -0.4383  0.4381
  832MOL0     C12204   0.447   7.224   6.651  0.0812  0.0725  0.2665
  832MOL0     C12205   0.306   7.248   6.703  0.1385 -0.2775 -0.5843
  832MOL0     C12206   0.223   7.115   6.729 -0.2873 -0.3358  0.7626
  832MOL0     C12207   0.132   7.074   6.616  0.7252  0.1454 -0.2810
  832MOL0     C12208   0.016   7.168   6.574  0.0965  0.0254 -0.5171
  832MOL0     O12209  -0.090   7.174   6.676 -0.4815 -0.4222  0.0480
  832MOL0     C12210  -0.211   7.211   6.623 -0.2970 -0.6123 -0.3440
  832MOL0     C12211  -0.241   7.306   6.522  0.9054 -0.3718  0.9573
  832MOL0     C12212  -0.375   7.334   6.481  0.0711  0.8534 -0.2180
  832MOL0     C12213  -0.397   7.436   6.373 -0.1448 -0.1208  1.0594
  832MOL0     C12214  -0.485   7.251   6.529 -0.2758  0.7172 -0.0488
  832MOL0     C12215  -0.629   7.252   6.480  0.2549  0.4266 -0.8001
  832MOL0     O12216  -0.708   7.152   6.542 -0.2071 -0.3233 -0.5612
  832MOL0     C12217  -0.828   7.130   6.485 -0.4299 -0.8385 -0.1477
  832MOL0     C12218  -0.937   7.229   6.508 -0.3739  0.6510 -0.1830
  832MOL0     C12219  -1.061   7.197   6.456 -0.3067  0.1796  0.3238
  832MOL0     C12220  -1.084   7.089   6.371 -0.6634  0.3455  0.2183
  832MOL0     O12221  -1.205   7.071   6.312  0.5554 -0.0553  0.3511
  832MOL0     C12222  -1.247   6.944   6.273 -0.6024  0.4033 -0.1071
  832MOL0     C12223  -1.396   6.934   6.254 -0.1526  0.1279 -0.3644
  832MOL0     C12224  -1.440   6.799   6.208  0.4055  0.6537 -0.1428
  832MOL0     C12225  -1.595   6.799   6.217  0.2345  0.4522  0.0463
  832MOL0     C12226  -1.666   6.656   6.216  0.4500  0.1648 -0.3304
  832MOL0     C12227  -1.617   6.565   6.325  0.3129  0.2050  0.6567
  832MOL0     C12228  -1.687   6.432   6.323 -0.4372  0.1370 -0.8987
  832MOL0     C12229  -1.636   6.334   6.431 -1.0060  0.8101  0.5656
  832MOL0    Cl12230  -1.455   6.303   6.430 -0.0063 -0.5829 -0.1466
  832MOL0     C12231  -0.980   6.998   6.345  0.3596 -0.3477 -0.3173
  832MOL0     C12232  -0.854   7.022   6.404  0.5042  0.0172 -0.2223
  832MOL0     O12233  -0.663   7.314   6.382 -0.7849  0.0335  0.3961
  832MOL0     C12234  -0.446   7.162   6.637  0.5726  0.9583  1.0900
  832MOL0     C12235  -0.318   7.143   6.681  0.4808  0.0804  0.1688
  832MOL0     N12236   0.498   7.287   6.532  0.3872 -0.5436 -0.1267
  832MOL0     N12237   0.625   7.252   6.518  0.4065  0.4530 -0.2285
  832MOL0     C12238   1.910   6.831   6.509  0.4635 -0.0816 -0.8946
  832MOL0     C12239   2.023   6.838   6.435  0.6414  0.4736 -0.6648
  832MOL0     C12240   2.413   6.977   6.264  0.3949  0.0674  0.3271
  832MOL0     C12241   2.408   6.985   6.126  0.8759  0.0537  0.1737
  832MOL0     C12242   2.525   7.010   6.049 -0.4551 -0.3344 -0.4849
  832MOL0     C12243   2.654   7.023   6.113 -0.5094  0.7489 -0.2645
  832MOL0     O12244   2.767   7.056   6.053 -0.1235  0.4266 -0.1975
  832MOL0     C12245   2.781   7.079   5.912 -0.3479  0.1477  0.6723
  832MOL0     C12246   2.815   6.961   5.822  0.7585 -0.1329  0.4757
  832MOL0     C12247   2.935   6.876   5.887  0.7333 -0.3900 -0.2623
  832MOL0     C12248   3.076   6.942   5.878  1.0537  0.2292 -0.0365
  832MOL0     C12249   3.091   7.020   6.004 -0.0107 -0.3574  0.8016
  832MOL0     C12250   3.117   7.075   6.108 -1.2567 -0.4558 -0.9196
  832MOL0     C12251   2.656   7.010   6.255 -0.4078 -0.3789  0.9242
  832MOL0     C12252   2.542   6.990   6.324 -0.1894 -0.9726 -1.0844
  832MOL0     H12253   1.994   7.137   6.291 -0.6004  0.9155  1.4610
  832MOL0     H12254   1.759   7.107   6.385  0.5030 -0.2496 -0.0732
  832MOL0     H12255   1.647   7.108   6.621  0.1176  0.6658  0.4791
  832MOL0     H12256   1.575   7.050   6.479 -0.1928 -4.9106 -1.2346
  832MOL0     H12257   1.453   6.891   6.643  2.8829 -0.5226 -0.5736
  832MOL0     H12258   1.483   6.998   6.780 -1.3787  4.8442 -0.2656
  832MOL0     H12259   1.390   7.198   6.635  2.3590 -0.5843 -2.1104
  832MOL0     H12260   1.316   7.068   6.539  0.1060  0.6409 -0.1977
  832MOL0     H12261   1.244   6.961   6.765 -2.3439  0.5854  2.7033
  832MOL0     H12262   1.282   7.118   6.837  0.0079  1.1897 -0.9941
  832MOL0     H12263   1.144   7.238   6.708  1.4029  0.7894  0.2305
  832MOL0     H12264   1.106   7.114   6.587 -1.3099 -3.6054  0.9647
  832MOL0     H12265   0.966   7.004   6.783 -2.6067  0.3839  0.0906
  832MOL0     H12266   1.012   7.163   6.870 -0.6781  1.0680  0.3535
  832MOL0     H12267   0.812   7.233   6.788  3.5581  2.1773  1.5801
  832MOL0     H12268   0.909   7.264   6.643  0.8078 -0.1438 -1.0138
  832MOL0     H12269   0.774   6.989   6.655 -3.0563  0.4601  1.3732
  832MOL0     H12270   0.840   7.090   6.528  0.6686 -1.5966  0.7756
  832MOL0     H12271   0.513   7.062   6.768  0.0014  1.4396  1.9775
  832MOL0     H12272   0.315   7.317   6.787  0.9539 -0.8302 -0.2088
  832MOL0     H12273   0.257   7.306   6.623  1.9083  0.9595 -0.8167
  832MOL0     H12274   0.164   7.135   6.819  0.0462 -0.8244  1.0960
  832MOL0     H12275   0.299   7.037   6.745  0.7333  0.6425  0.7984
  832MOL0     H12276   0.090   6.979   6.648  0.0147  0.6176  0.2275
  832MOL0     H12277   0.195   7.057   6.529  0.5425 -4.2220  0.2058
  832MOL0     H12278  -0.023   7.128   6.480  2.3318 -1.1943 -0.9963
  832MOL0     H12279   0.055   7.268   6.554 -1.8759  0.6071 -1.7013
  832MOL0     H12280  -0.165   7.367   6.475 -0.1237 -0.6358 -1.1729
  832MOL0     H12281  -0.485   7.498   6.392 -0.4515  0.0592 -0.7339
  832MOL0     H12282  -0.311   7.502   6.362 -0.5947  0.2132 -0.8116
  832MOL0     H12283  -0.414   7.381   6.279  3.2465 -0.2958  0.4087
  832MOL0     H12284  -0.921   7.313   6.575  4.7481 -0.5292  0.5206
  832MOL0     H12285  -1.140   7.269   6.470 -0.4883  0.2210 -0.8581
  832MOL0     H12286  -1.196   6.922   6.179 -3.4612  0.8699 -1.9192
  832MOL0     H12287  -1.224   6.865   6.344 -1.8870  0.2801  0.2078
  832MOL0     H12288  -1.445   6.961   6.348 -0.5750  1.1527 -0.8699
  832MOL0     H12289  -1.418   7.008   6.176 -4.5785  0.2860  0.7561
  832MOL0     H12290  -1.398   6.728   6.279 -2.9064 -1.2910  0.1074
  832MOL0     H12291  -1.406   6.779   6.106 -0.7823  0.7589 -0.5782
  832MOL0     H12292  -1.628   6.832   6.316 -0.7291 -4.5431  1.6960
  832MOL0     H12293  -1.637   6.869   6.144 -0.5611 -0.1059 -0.0468
  832MOL0     H12294  -1.643   6.615   6.117  0.8861  1.8335 -0.9676
  832MOL0     H12295  -1.773   6.673   6.233  0.7865  0.9658  1.2000
  832MOL0     H12296  -1.513   6.551   6.296  0.1693  1.4840 -0.5826
  832MOL0     H12297  -1.624   6.613   6.424 -1.1868  1.5495 -0.0511
  832MOL0     H12298  -1.675   6.387   6.224 -2.3609 -3.1178  0.1781
  832MOL0     H12299  -1.795   6.439   6.333 -0.3819 -0.8281  0.9120
  832MOL0     H12300  -1.690   6.242   6.407  1.9347 -0.9461  0.1524
  832MOL0     H12301  -1.654   6.369   6.533 -1.3481 -0.5871  1.0153
  832MOL0     H12302  -1.005   6.909   6.289 -0.6489 -0.3441  0.1068
  832MOL0     H12303  -0.772   6.954   6.383  0.3218 -0.3037  0.1050
  832MOL0     H12304  -0.525   7.104   6.682  1.0152 -0.6139 -0.0798
  832MOL0     H12305  -0.293   7.086   6.769  1.9387  1.0092  0.3913
  832MOL0     H12306   1.895   6.745   6.573 -0.5601  1.4022  0.9802
  832MOL0     H12307   2.089   6.752   6.431 -1.8134 -1.5474 -0.1350
  832MOL0     H12308   2.309   6.969   6.085  1.0183  0.2992 -0.2697
  832MOL0     H12309   2.516   7.013   5.941 -1.3586 -1.1159 -0.4417
  832MOL0     H12310   2.693   7.133   5.875 -2.2214  1.8742  6.5873
  832MOL0     H12311   2.863   7.151   5.904 -0.1811  0.4771  3.9844
  832MOL0     H12312   2.827   7.000   5.720 -2.3117  0.2710  0.1709
  832MOL0     H12313   2.728   6.896   5.826  0.3436  0.0866 -2.4288
  832MOL0     H12314   2.937   6.785   5.826 -2.2667 -0.0739 -0.9823
  832MOL0     H12315   2.905   6.842   5.987 -2.5290 -0.9186 -1.3317
  832MOL0     H12316   3.092   7.020   5.803  0.6749  1.5905  1.2452
  832MOL0     H12317   3.154   6.866   5.869  1.2605  0.6734 -3.3665
  832MOL0     H12318   3.130   7.114   6.207 -0.2053  0.7205 -1.5018
  832MOL0     H12319   2.742   7.042   6.313 -1.7306  1.1043  2.1579
  832MOL0     H12320   2.544   6.992   6.433  0.1922  1.4981 -1.0758
  833MOL0     O12321   8.513   6.380   0.334 -0.1492  0.2337  0.1279
  833MOL0     C12322   8.507   6.483   0.393  0.0342  0.5544 -0.1416
  833MOL0     O12323   8.393   6.554   0.422 -0.5345  0.5986  0.1786
  833MOL0     C12324   8.270   6.500   0.392  0.7353 -0.2772 -0.0010
  833MOL0     C12325   8.231   6.370   0.440 -1.0952 -0.4294  0.3538
  833MOL0     C12326   8.104   6.315   0.417  1.1042  0.2812  0.1061
  833MOL0     C12327   7.999   6.399   0.366 -0.9954 -0.1506 -1.1740
  833MOL0     O12328   7.873   6.365   0.360 -0.7593  0.5667 -0.3636
  833MOL0     C12329   7.831   6.242   0.424  0.1125 -0.5917  0.0774
  833MOL0     C12330   7.686   6.257   0.430  0.4393 -1.1179 -0.9224
  833MOL0     C12331   7.643   6.368   0.534  0.9392  0.0642 -0.2328
  833MOL0     C12332   7.494   6.368   0.533  0.6909 -0.0454 -0.5224
  833MOL0     C12333   7.439   6.453   0.650 -1.0305 -0.2997 -0.0623
  833MOL0     C12334   7.284   6.435   0.652  0.0046  0.1448  0.2979
  833MOL0     C12335   7.214   6.545   0.740 -0.6022 -0.4026 -0.5562
  833MOL0     C12336   7.062   6.519   0.770  0.7139 -0.1521  0.3433
  833MOL0     N12337   6.974   6.483   0.657  0.5531  0.4146  0.0734
  833MOL0     C12338   6.867   6.396   0.660  0.7396  0.0806  0.0202
  833MOL0     C12339   6.811   6.407   0.538  1.0398  0.0454  0.8370
  833MOL0     C12340   6.695   6.329   0.492  0.0798 -0.7860  0.0531
  833MOL0     C12341   6.585   6.319   0.595 -0.5841  0.0823 -0.0940
  833MOL0     C12342   6.514   6.455   0.612 -0.0844 -0.2970 -0.5851
  833MOL0     C12343   6.378   6.430   0.681  0.3547 -0.2242  0.1766
  833MOL0     O12344   6.312   6.561   0.680  0.0598 -0.5391  1.3400
  833MOL0     C12345   6.222   6.592   0.783 -0.9881  0.1128  0.8810
  833MOL0     C12346   6.203   6.724   0.813 -0.0572  0.0610 -0.6438
  833MOL0     C12347   6.100   6.773   0.894  0.1661  0.0193 -0.4703
  833MOL0     C12348   6.093   6.928   0.910  0.4529  0.2481 -0.5868
  833MOL0     C12349   6.007   6.670   0.943  0.5988 -0.2727 -0.7053
  833MOL0     C12350   5.886   6.689   1.030 -0.4190  0.0460 -0.3007
  833MOL0     O12351   5.815   6.582   1.058  0.1103  1.0305 -0.1396
  833MOL0     C12352   5.696   6.576   1.134 -0.9314  0.4515 -0.8769
  833MOL0     C12353   5.661   6.675   1.222 -1.1258  0.2282  0.4727
  833MOL0     C12354   5.542   6.668   1.292 -0.4162  0.0412 -0.3562
  833MOL0     C12355   5.468   6.549   1.292 -0.3978  0.3345 -0.0470
  833MOL0     O12356   5.348   6.536   1.370  0.7666 -0.4003 -0.1023
  833MOL0     C12357   5.273   6.663   1.393  0.2991  0.4545 -0.2038
  833MOL0     C12358   5.130   6.621   1.402  0.0280 -0.0351 -0.4207
  833MOL0     C12359   5.108   6.507   1.505 -0.3580 -0.1289  0.0671
  833MOL0     C12360   4.963   6.487   1.550 -0.2399 -0.8308  0.5708
  833MOL0     C12361   4.871   6.426   1.453  0.3205 -0.8657  0.8477
  833MOL0     C12362   4.733   6.420   1.513 -0.1382  0.8009 -0.0298
  833MOL0     C12363   4.626   6.401   1.407  1.0009 -0.5000 -0.0898
  833MOL0     C12364   4.624   6.258   1.350 -0.0307  0.2507  0.4715
  833MOL0    Cl12365   4.481   6.233   1.257  0.4863 -0.3775 -0.0298
  833MOL0     C12366   5.508   6.435   1.225 -0.0247 -0.1893 -0.6701
  833MOL0     C12367   5.624   6.458   1.136  0.0593  0.8040  0.0151
  833MOL0     O12368   5.868   6.800   1.073  0.2967 -0.8272 -0.0352
  833MOL0     C12369   6.037   6.537   0.921  0.6265 -0.2288 -0.5554
  833MOL0     C12370   6.138   6.502   0.839 -0.8121  0.3823  0.0072
  833MOL0     N12371   6.874   6.503   0.463  0.0516 -1.0027  0.5204
  833MOL0     N12372   6.984   6.539   0.531 -0.5832 -0.5213 -0.5302
  833MOL0     C12373   8.037   6.529   0.332  0.0209  0.2577  0.1804
  833MOL0     C12374   8.169   6.583   0.347 -0.0449  0.3525  1.0128
  833MOL0     C12375   8.645   6.537   0.432 -0.4535  0.0252  0.3876
  833MOL0     C12376   8.763   6.464   0.405 -0.3011 -0.2152 -0.4358
  833MOL0     C12377   8.882   6.506   0.456 -0.5870  0.3609  0.1390
  833MOL0     C12378   8.887   6.620   0.533  0.0531  0.0314 -1.3101
  833MOL0     O12379   9.010   6.647   0.592 -0.4208  0.4137  0.2527
  833MOL0     C12380   9.024   6.765   0.665  0.3836 -0.1636  0.2119
  833MOL0     C12381   9.170   6.798   0.702 -0.1475  0.3639  0.1901
  833MOL0     C12382   9.222   6.686   0.791  0.6123  0.1324 -0.4330
  833MOL0     C12383   9.366   6.683   0.846  0.4609  0.1056  0.4084
  833MOL0     C12384   9.419   6.822   0.855  0.7799 -0.4168 -0.7195
  833MOL0     C12385   9.439   6.938   0.852  0.0947  0.1586  0.6258
  833MOL0     C12386   8.772   6.699   0.560 -0.2973  0.6119 -0.5134
  833MOL0     C12387   8.654   6.658   0.499 -0.6697 -0.4107  1.0383
  833MOL0     H12388   8.295   6.312   0.506  0.6545 -1.8980 -2.4483
  833MOL0     H12389   8.091   6.218   0.463 -1.4098  1.3818  1.9198
  833MOL0     H12390   7.847   6.152   0.364 -3.1524 -1.5973  0.5138
  833MOL0     H12391   7.869   6.236   0.526 -1.2091 -2.1457  0.5183
  833MOL0     H12392   7.631   6.273   0.337  0.3106 -1.0152 -0.8294
  833MOL0     H12393   7.648   6.165   0.476  0.9225 -0.2283  1.4098
  833MOL0     H12394   7.684   6.350   0.634 -0.2214 -1.5143 -0.0126
  833MOL0     H12395   7.687   6.464   0.504  4.2536 -1.3948 -0.5499
  833MOL0     H12396   7.455   6.417   0.444  0.3458  0.1180 -0.2837
  833MOL0     H12397   7.445   6.271   0.548  1.6575 -0.3272  1.0979
  833MOL0     H12398   7.491   6.434   0.745 -0.7129  2.1609  0.3174
  833MOL0     H12399   7.460   6.556   0.620  2.2330 -1.2918 -1.7225
  833MOL0     H12400   7.246   6.427   0.550 -3.5711  1.5092  1.3954
  833MOL0     H12401   7.268   6.336   0.695 -0.7452  1.2069  2.6276
  833MOL0     H12402   7.261   6.559   0.838 -1.4117  0.2150 -0.2460
  833MOL0     H12403   7.230   6.640   0.688  3.0316 -1.9590 -2.6439
  833MOL0     H12404   7.018   6.612   0.808  0.1850 -0.3110  0.1131
  833MOL0     H12405   7.054   6.443   0.848 -0.7660  1.0155  1.3938
  833MOL0     H12406   6.831   6.339   0.745  0.2790  4.3662  3.1026
  833MOL0     H12407   6.646   6.374   0.404  0.3933  5.6933  2.5962
  833MOL0     H12408   6.734   6.231   0.464 -1.2765 -1.6039  0.9235
  833MOL0     H12409   6.627   6.281   0.689 -0.4963  0.9906  0.2375
  833MOL0     H12410   6.515   6.238   0.570 -1.2425  0.1892  1.3542
  833MOL0     H12411   6.480   6.493   0.515 -2.5122  1.2184  0.7476
  833MOL0     H12412   6.570   6.532   0.666  0.0346 -1.3947  0.9038
  833MOL0     H12413   6.408   6.399   0.782  1.7365 -1.4491 -0.5736
  833MOL0     H12414   6.325   6.345   0.636  3.4940 -1.4974 -1.4253
  833MOL0     H12415   6.266   6.805   0.775 -0.9900  1.5360  0.8532
  833MOL0     H12416   6.191   6.976   0.911  1.4752 -1.5137 -3.6391
  833MOL0     H12417   6.032   6.969   0.829 -2.0093 -1.1582  0.4338
  833MOL0     H12418   6.052   6.941   1.010  1.6317 -0.7313  0.0564
  833MOL0     H12419   5.725   6.761   1.234 -0.3891 -0.2126 -0.2127
  833MOL0     H12420   5.506   6.754   1.348 -2.5188 -1.0135  0.0056
  833MOL0     H12421   5.302   6.713   1.485 -2.8123  1.3285  0.4086
  833MOL0     H12422   5.279   6.725   1.303  1.0672  1.3858  0.4835
  833MOL0     H12423   5.077   6.705   1.448 -1.8238 -1.3777  0.0185
  833MOL0     H12424   5.091   6.587   1.306 -0.9479 -0.1688  0.0069
  833MOL0     H12425   5.164   6.535   1.595  1.6454 -2.4816 -0.3454
  833MOL0     H12426   5.153   6.411   1.477 -0.0193  0.3300 -0.9971
  833MOL0     H12427   4.971   6.423   1.639 -0.5523 -1.1982  0.3396
  833MOL0     H12428   4.919   6.585   1.573 -1.2295 -1.1106 -0.0675
  833MOL0     H12429   4.898   6.322   1.436  1.1203 -0.4730 -0.4215
  833MOL0     H12430   4.876   6.487   1.362 -2.7017  1.2384  1.9352
  833MOL0     H12431   4.743   6.334   1.579  2.4216  0.1285 -1.1687
  833MOL0     H12432   4.708   6.512   1.567 -0.3081  0.7868 -0.0842
  833MOL0     H12433   4.633   6.463   1.318  0.1819 -3.3877 -2.2947
  833MOL0     H12434   4.526   6.425   1.446  0.6837  0.1841 -1.2841
  833MOL0     H12435   4.623   6.188   1.434  0.4018 -0.4708 -0.1169
  833MOL0     H12436   4.714   6.247   1.289  0.2657  2.5937  0.3965
  833MOL0     H12437   5.459   6.340   1.237 -2.0278  0.5262 -2.5487
  833MOL0     H12438   5.662   6.384   1.066  1.3779 -0.0744  1.5735
  833MOL0     H12439   5.964   6.462   0.952 -0.2735  1.1532  0.8289
  833MOL0     H12440   6.142   6.396   0.820 -1.5235  0.3763 -0.1525
  833MOL0     H12441   7.965   6.592   0.282 -0.8671 -1.5466 -0.9169
  833MOL0     H12442   8.209   6.679   0.316 -0.0292 -0.0334 -0.2253
  833MOL0     H12443   8.777   6.367   0.357 -0.2821 -0.5929  0.3270
  833MOL0     H12444   8.971   6.445   0.444 -1.0690 -0.0792 -1.3571
  833MOL0     H12445   8.996   6.847   0.598  2.0739 -0.2629 -0.6901
  833MOL0     H12446   8.966   6.760   0.757  3.4037 -1.4366  2.1831
  833MOL0     H12447   9.163   6.896   0.750  0.3175  0.4315  0.1225
  833MOL0     H12448   9.229   6.800   0.609 -2.2297  0.9956 -1.1988
  833MOL0     H12449   9.202   6.598   0.728 -1.9289  1.2897 -1.3615
  833MOL0     H12450   9.161   6.681   0.882  1.0490 -0.9006 -0.1819
  833MOL0     H12451   9.441   6.627   0.790  0.0583  0.5114 -0.5557
  833MOL0     H12452   9.365   6.638   0.945 -0.3205  1.6842  1.1617
  833MOL0     H12453   9.455   7.040   0.881 -1.2027 -0.2589  3.0843
  833MOL0     H12454   8.770   6.794   0.613 -0.7015  3.0744 -4.4893
  833MOL0     H12455   8.565   6.710   0.532 -0.8821 -0.3087  0.3309
  834MOL0     O12456   2.321   2.077   5.080  0.2976  0.1981 -0.4663
  834MOL0     C12457   2.312   2.129   5.189 -0.3688 -0.1380  0.5001
  834MOL0     O12458   2.198   2.175   5.251  0.1486 -0.0921 -0.1024
  834MOL0     C12459   2.072   2.183   5.191 -0.4652 -0.5749 -0.5780
  834MOL0     C12460   1.959   2.190   5.274 -0.5333 -0.3830  0.3395
  834MOL0     C12461   1.829   2.194   5.213 -0.1406 -0.7346 -0.5263
  834MOL0     C12462   1.809   2.202   5.074  0.8842  0.2055 -0.0234
  834MOL0     O12463   1.683   2.186   5.019 -0.6735 -1.4555 -0.3069
  834MOL0     C12464   1.571   2.193   5.108  0.1197  0.6781 -0.2709
  834MOL0     C12465   1.438   2.213   5.047  0.8578 -0.0329 -0.4729
  834MOL0     C12466   1.327   2.235   5.147 -0.0602 -0.5509  0.3766
  834MOL0     C12467   1.198   2.280   5.082 -0.0331  0.1735 -0.0795
  834MOL0     C12468   1.094   2.305   5.187 -0.7157 -0.2868 -0.1713
  834MOL0     C12469   0.982   2.396   5.145  0.1589  0.4258  0.0051
  834MOL0     C12470   0.890   2.322   5.052  0.7531 -0.3510  0.1217
  834MOL0     C12471   0.747   2.307   5.122  0.6332 -0.6463 -0.2450
  834MOL0     N12472   0.664   2.429   5.115 -0.3700 -0.1321 -0.1346
  834MOL0     C12473   0.644   2.504   5.001 -0.0610 -0.5442  0.1392
  834MOL0     C12474   0.569   2.602   5.041  0.0447  0.6242  0.0194
  834MOL0     C12475   0.519   2.710   4.946 -0.1304  0.3976  0.4174
  834MOL0     C12476   0.369   2.680   4.917  0.5431 -0.2944  0.2376
  834MOL0     C12477   0.265   2.789   4.892  0.5747 -0.2800  0.8975
  834MOL0     C12478   0.135   2.755   4.962  0.1480  0.5040  0.6360
  834MOL0     O12479   0.086   2.631   4.895  0.4767  0.2906 -1.0189
  834MOL0     C12480  -0.038   2.588   4.929 -0.2335  0.5628  0.4812
  834MOL0     C12481  -0.061   2.454   4.925  0.4651 -0.1884  0.1205
  834MOL0     C12482  -0.194   2.402   4.949 -0.6112  1.2025  0.1253
  834MOL0     C12483  -0.208   2.253   4.945  0.5530  0.0668 -0.6267
  834MOL0     C12484  -0.302   2.489   4.965  0.1040 -0.6572 -0.3603
  834MOL0     C12485  -0.444   2.445   4.983  0.1146 -0.6046 -0.2751
  834MOL0     O12486  -0.527   2.520   5.062  0.5522  0.5624  0.1559
  834MOL0     C12487  -0.614   2.442   5.125  0.2501  0.7013 -0.4919
  834MOL0     C12488  -0.564   2.353   5.226  1.1819 -0.0046 -0.3515
  834MOL0     C12489  -0.652   2.271   5.298  0.2356  0.2940  0.5145
  834MOL0     C12490  -0.788   2.278   5.274  1.0628  0.5856 -0.3695
  834MOL0     O12491  -0.874   2.199   5.346 -0.4917 -0.1615  0.8286
  834MOL0     C12492  -0.828   2.083   5.413  0.0102  0.2571 -0.9743
  834MOL0     C12493  -0.941   1.990   5.455 -1.1376  0.2063  0.8085
  834MOL0     C12494  -1.061   2.057   5.535  0.0775 -0.2870  0.0006
  834MOL0     C12495  -1.180   1.962   5.524 -0.0392  0.6663 -0.7634
  834MOL0     C12496  -1.294   2.006   5.618 -0.1849  1.0610 -0.3698
  834MOL0     C12497  -1.421   1.919   5.610 -0.2034  0.3980  0.0230
  834MOL0     C12498  -1.406   1.772   5.649  0.4056  0.8985  0.0601
  834MOL0     C12499  -1.531   1.715   5.717  0.1544 -0.6189 -0.2015
  834MOL0    Cl12500  -1.572   1.797   5.871  0.4325 -0.3521  0.3317
  834MOL0     C12501  -0.839   2.370   5.185  0.0246  0.2172 -0.4610
  834MOL0     C12502  -0.751   2.449   5.110  0.5314  0.2196 -0.5225
  834MOL0     O12503  -0.482   2.358   4.908  0.0720  0.5926 -0.0106
  834MOL0     C12504  -0.279   2.623   4.964  0.5775 -0.1524 -1.1625
  834MOL0     C12505  -0.153   2.680   4.940  0.2856 -0.0530 -0.1204
  834MOL0     N12506   0.539   2.589   5.180  0.0095 -0.0295 -0.3426
  834MOL0     N12507   0.599   2.483   5.220  0.9373  0.0929 -0.5694
  834MOL0     C12508   1.923   2.207   5.002 -0.6217 -0.2993  0.1964
  834MOL0     C12509   2.056   2.195   5.054 -0.0773 -0.3347  0.2646
  834MOL0     C12510   2.446   2.133   5.266  0.1611 -0.7590 -0.1742
  834MOL0     C12511   2.567   2.122   5.198 -0.8292  0.1487 -0.3723
  834MOL0     C12512   2.681   2.137   5.269  0.1121 -0.2366 -0.2732
  834MOL0     C12513   2.691   2.146   5.407  0.3124 -0.2297 -0.7876
  834MOL0     O12514   2.812   2.146   5.472 -0.9919 -0.1655  0.0189
  834MOL0     C12515   2.915   2.051   5.431 -0.5827 -0.5553 -0.2892
  834MOL0     C12516   3.056   2.045   5.512 -0.5730 -0.6804  0.4104
  834MOL0     C12517   3.157   2.149   5.459  0.0748 -0.0996  0.2758
  834MOL0     C12518   3.146   2.291   5.511 -0.4360  0.1029 -0.2508
  834MOL0     C12519   3.248   2.384   5.458 -0.1978 -0.1474  0.1405
  834MOL0     C12520   3.335   2.449   5.399 -0.0293  0.1867 -0.4752
  834MOL0     C12521   2.574   2.153   5.473 -0.5144 -0.2713 -0.1891
  834MOL0     C12522   2.454   2.149   5.408 -0.3146  0.5189 -0.3423
  834MOL0     H12523   1.975   2.181   5.381  1.0990 -2.6906 -0.0216
  834MOL0     H12524   1.749   2.193   5.286  0.2576  0.8255 -0.0295
  834MOL0     H12525   1.569   2.091   5.146  1.0420  0.3225 -1.1436
  834MOL0     H12526   1.588   2.267   5.187  3.1365 -1.4653  1.2832
  834MOL0     H12527   1.436   2.311   4.998  0.9149  0.0274 -0.3561
  834MOL0     H12528   1.420   2.131   4.977 -0.9689 -1.0487  1.1019
  834MOL0     H12529   1.309   2.139   5.197 -0.0849  0.3223  2.0993
  834MOL0     H12530   1.361   2.308   5.221 -0.5844  0.2032 -0.1073
  834MOL0     H12531   1.215   2.369   5.020 -1.3387 -0.1193 -0.9034
  834MOL0     H12532   1.168   2.202   5.011  1.3041  0.3036 -0.8089
  834MOL0     H12533   1.057   2.213   5.232  2.4091 -2.0503 -0.9657
  834MOL0     H12534   1.151   2.362   5.262  1.2925  0.0448 -1.8593
  834MOL0     H12535   0.938   2.431   5.238  3.6392  0.3921  1.8451
  834MOL0     H12536   1.018   2.489   5.099  0.2806 -0.2843 -1.4070
  834MOL0     H12537   0.882   2.371   4.955  1.3722 -1.8403 -0.7151
  834MOL0     H12538   0.928   2.223   5.025  3.3408  1.2240 -2.6758
  834MOL0     H12539   0.765   2.282   5.227  3.0339 -1.1721 -0.7274
  834MOL0     H12540   0.688   2.224   5.080 -0.0386  0.2842 -1.1729
  834MOL0     H12541   0.669   2.484   4.897 -1.9588 -1.6945 -0.1414
  834MOL0     H12542   0.525   2.796   5.014  0.9134  0.2942  0.4816
  834MOL0     H12543   0.584   2.730   4.860  1.1867 -1.8899  0.8119
  834MOL0     H12544   0.338   2.605   4.991  0.6717 -2.5379 -1.8718
  834MOL0     H12545   0.362   2.623   4.824  1.7801 -1.0746  0.6022
  834MOL0     H12546   0.251   2.800   4.784 -0.3847 -1.7351  0.8562
  834MOL0     H12547   0.306   2.885   4.925  1.7878 -0.9211  1.3166
  834MOL0     H12548   0.065   2.831   4.927 -1.8143 -1.2155  0.6153
  834MOL0     H12549   0.135   2.740   5.071  2.6555  0.0878  0.6297
  834MOL0     H12550   0.023   2.387   4.913 -1.1755 -2.5830  1.1808
  834MOL0     H12551  -0.259   2.223   5.037  0.9587  1.9294  0.2453
  834MOL0     H12552  -0.249   2.207   4.855  0.0858  0.4339 -0.6050
  834MOL0     H12553  -0.111   2.202   4.951  1.7893  2.4329  2.6844
  834MOL0     H12554  -0.458   2.369   5.244  0.7778  1.9938  0.5545
  834MOL0     H12555  -0.607   2.188   5.352 -2.2017 -2.5499 -1.5433
  834MOL0     H12556  -0.772   2.029   5.336 -2.0086 -1.0324 -1.6200
  834MOL0     H12557  -0.760   2.108   5.495 -2.8786  0.4727  1.5034
  834MOL0     H12558  -0.973   1.944   5.361  0.4212  2.5148 -0.9556
  834MOL0     H12559  -0.889   1.917   5.518  0.5154 -0.1770 -0.9089
  834MOL0     H12560  -1.097   2.150   5.492  1.2032  1.3885  2.4410
  834MOL0     H12561  -1.033   2.057   5.641  2.4625  0.5568 -0.5780
  834MOL0     H12562  -1.222   1.951   5.424  0.9402 -5.1917 -0.8688
  834MOL0     H12563  -1.135   1.865   5.549 -2.2921 -0.2566 -0.0762
  834MOL0     H12564  -1.330   2.104   5.588 -3.6174 -0.1480 -0.5661
  834MOL0     H12565  -1.256   2.002   5.721  0.4513  2.2369 -0.5425
  834MOL0     H12566  -1.497   1.970   5.671  2.2767  1.8460  2.0890
  834MOL0     H12567  -1.454   1.917   5.505  2.5781 -0.1681 -0.9059
  834MOL0     H12568  -1.331   1.765   5.728  1.0938 -1.3247 -0.7127
  834MOL0     H12569  -1.374   1.714   5.562  5.3896 -1.2257  2.8726
  834MOL0     H12570  -1.525   1.607   5.734  1.1804 -0.7951 -1.5209
  834MOL0     H12571  -1.613   1.737   5.648 -0.5396 -2.4843 -0.0403
  834MOL0     H12572  -0.946   2.386   5.189 -0.0752 -0.5281  3.4800
  834MOL0     H12573  -0.792   2.527   5.046  1.9783  2.3359  0.9870
  834MOL0     H12574  -0.359   2.694   4.986  1.3698  0.3954  0.0672
  834MOL0     H12575  -0.144   2.787   4.931 -0.2652 -0.0905 -1.2911
  834MOL0     H12576   1.908   2.201   4.895  0.6585  0.6610 -0.0617
  834MOL0     H12577   2.146   2.200   4.993 -1.5295 -0.7100 -2.0306
  834MOL0     H12578   2.566   2.099   5.092  0.7352  0.6365 -0.5115
  834MOL0     H12579   2.777   2.132   5.218  0.9681  2.4013  0.8637
  834MOL0     H12580   2.888   1.945   5.427  0.7820 -1.0181  1.5082
  834MOL0     H12581   2.953   2.073   5.331  0.5629  4.1273  0.9299
  834MOL0     H12582   3.096   1.947   5.484 -1.1940 -0.7744 -0.1678
  834MOL0     H12583   3.040   2.048   5.621  2.3629 -1.2188  0.9419
  834MOL0     H12584   3.153   2.141   5.350 -1.0447  0.5302  0.2589
  834MOL0     H12585   3.255   2.109   5.488  1.7813  1.3133 -3.0183
  834MOL0     H12586   3.148   2.298   5.620 -1.1335 -0.0688 -0.2177
  834MOL0     H12587   3.046   2.325   5.480 -0.1824  0.3689 -0.7968
  834MOL0     H12588   3.426   2.487   5.358  0.1109 -1.5776 -1.8721
  834MOL0     H12589   2.565   2.171   5.580  2.3990  2.8928 -0.3102
  834MOL0     H12590   2.351   2.160   5.442 -0.7211  3.0287 -2.1259
  835MOL0     O12591   2.853   1.115   8.822  0.4456  0.5311  0.5817
  835MOL0     C12592   2.903   1.205   8.886  0.1305  0.0553 -0.1145
  835MOL0     O12593   2.841   1.317   8.914  0.7631 -0.8020 -0.1565
  835MOL0     C12594   2.708   1.317   8.906 -0.2110 -0.5239  0.0369
  835MOL0     C12595   2.639   1.314   9.023 -0.5288 -0.9821 -0.4784
  835MOL0     C12596   2.499   1.335   9.024  0.5700  0.8432  0.1044
  835MOL0     C12597   2.435   1.368   8.909  0.5031 -0.1053 -0.0140
  835MOL0     O12598   2.300   1.385   8.920  0.8106  0.4512  0.0737
  835MOL0     C12599   2.237   1.486   8.834 -0.2493 -0.2074 -1.6763
  835MOL0     C12600   2.089   1.485   8.857 -0.1162  0.2504  0.0407
  835MOL0     C12601   2.026   1.346   8.857 -0.3515  1.0024 -0.0693
  835MOL0     C12602   1.878   1.341   8.895 -0.0412  0.1520 -0.2904
  835MOL0     C12603   1.808   1.205   8.873 -0.0564 -0.2920  0.0003
  835MOL0     C12604   1.764   1.174   8.723 -0.1580  0.0562  0.2856
  835MOL0     C12605   1.651   1.272   8.680  0.3362 -0.2740  0.0795
  835MOL0     C12606   1.642   1.248   8.527 -0.2775 -0.4360 -0.5716
  835MOL0     N12607   1.506   1.259   8.480  0.1686 -0.0974  0.2221
  835MOL0     C12608   1.411   1.361   8.515 -0.3411  0.7349  0.9548
  835MOL0     C12609   1.287   1.319   8.478 -0.1412 -0.1140 -0.4929
  835MOL0     C12610   1.169   1.412   8.493 -0.2317 -0.0137  0.4836
  835MOL0     C12611   1.179   1.524   8.388  0.0553  0.3255 -0.8739
  835MOL0     C12612   1.047   1.603   8.376 -0.2188 -0.0068 -0.1921
  835MOL0     C12613   1.032   1.679   8.505  0.1849  0.6455  0.1160
  835MOL0     O12614   0.981   1.596   8.615 -0.6569 -0.0408 -0.4034
  835MOL0     C12615   0.851   1.607   8.659  0.1598  1.0200 -0.2031
  835MOL0     C12616   0.747   1.658   8.579  0.1504  0.0168 -0.5232
  835MOL0     C12617   0.620   1.684   8.627  0.1199  0.2051  0.9950
  835MOL0     C12618   0.518   1.750   8.544  0.4878  0.5098  0.1729
  835MOL0     C12619   0.593   1.650   8.764  0.1466 -0.4652  0.1709
  835MOL0     C12620   0.463   1.663   8.834  0.1478  0.0907 -0.9599
  835MOL0     O12621   0.359   1.635   8.755  0.4014  0.1147  0.0109
  835MOL0     C12622   0.234   1.633   8.808 -0.3301  0.4510 -0.7343
  835MOL0     C12623   0.141   1.718   8.757 -0.3556  0.2035 -0.6718
  835MOL0     C12624   0.006   1.693   8.798 -0.6149  0.3172  0.3002
  835MOL0     C12625  -0.025   1.600   8.901  0.0524 -0.0197  0.5945
  835MOL0     O12626  -0.156   1.594   8.938 -0.6037  0.5676 -0.4293
  835MOL0     C12627  -0.175   1.590   9.085  0.3760 -0.1735 -0.3576
  835MOL0     C12628  -0.315   1.647   9.103  0.6654 -0.3427 -0.1204
  835MOL0     C12629  -0.434   1.563   9.045 -0.6235  0.3874  0.1705
  835MOL0     C12630  -0.580   1.621   9.063 -0.1531  0.0725  0.6092
  835MOL0     C12631  -0.673   1.547   8.971 -0.7043  1.0611 -1.2750
  835MOL0     C12632  -0.812   1.512   9.033 -0.2153  0.3489 -0.5381
  835MOL0     C12633  -0.880   1.640   9.093 -0.8385  0.1566 -1.4714
  835MOL0     C12634  -1.027   1.644   9.068 -0.5243  0.6096 -0.2081
  835MOL0    Cl12635  -1.132   1.534   9.166 -0.1005 -0.4452  0.4055
  835MOL0     C12636   0.070   1.510   8.946  0.4186  0.9767 -0.4502
  835MOL0     C12637   0.198   1.531   8.898 -0.4985  0.0904 -0.7193
  835MOL0     O12638   0.454   1.686   8.959  0.0834 -0.8510  0.9706
  835MOL0     C12639   0.697   1.598   8.835 -0.2499 -0.7113 -0.5766
  835MOL0     C12640   0.828   1.572   8.786 -0.4739  0.6610 -1.3407
  835MOL0     N12641   1.303   1.193   8.429  0.0193 -0.1045 -0.8085
  835MOL0     N12642   1.430   1.157   8.429  0.7288 -0.5365 -0.0765
  835MOL0     C12643   2.501   1.361   8.790  0.4209 -0.0692  0.7280
  835MOL0     C12644   2.641   1.338   8.784  0.5766 -0.9121 -0.8238
  835MOL0     C12645   3.049   1.202   8.917 -0.3745  0.7227 -0.1883
  835MOL0     C12646   3.138   1.100   8.868 -0.3036  0.8921 -0.0583
  835MOL0     C12647   3.268   1.096   8.903 -0.0359  0.2655  0.0821
  835MOL0     C12648   3.327   1.201   8.975 -0.6096 -0.5755 -0.1008
  835MOL0     O12649   3.460   1.223   9.000  0.0278 -0.4932 -0.1169
  835MOL0     C12650   3.565   1.207   8.905  0.0787 -0.8216 -0.3955
  835MOL0     C12651   3.663   1.331   8.889  0.6436 -0.3765 -0.1397
  835MOL0     C12652   3.743   1.351   9.014  0.1318  0.2404  0.1669
  835MOL0     C12653   3.877   1.429   8.996  0.0846  0.1016  0.3690
  835MOL0     C12654   3.959   1.404   9.119  0.8776 -0.3161 -0.8343
  835MOL0     C12655   4.028   1.393   9.220 -0.6155  0.7084  0.5162
  835MOL0     C12656   3.245   1.293   9.032  0.0994 -0.0318 -0.0905
  835MOL0     C12657   3.106   1.294   8.999 -0.5094 -0.7695 -1.0117
  835MOL0     H12658   2.682   1.303   9.122  2.6824  1.0080 -1.5021
  835MOL0     H12659   2.443   1.334   9.117 -0.7041 -1.4411 -0.5917
  835MOL0     H12660   2.276   1.583   8.865 -1.0623 -0.8247  1.6030
  835MOL0     H12661   2.254   1.453   8.731 -3.2318 -1.4918 -1.8740
  835MOL0     H12662   2.066   1.540   8.949 -1.5252 -2.4590  1.4316
  835MOL0     H12663   2.046   1.547   8.778 -1.1886  0.0533  0.4509
  835MOL0     H12664   2.036   1.301   8.757  0.0777 -1.1218  0.8587
  835MOL0     H12665   2.079   1.279   8.925  0.3639  1.3215 -0.3019
  835MOL0     H12666   1.864   1.365   9.001 -1.0421 -1.7113  0.0419
  835MOL0     H12667   1.834   1.414   8.827 -1.6594 -0.3092  0.2282
  835MOL0     H12668   1.878   1.122   8.892 -0.6362 -0.8753 -0.3709
  835MOL0     H12669   1.718   1.196   8.935 -0.6920 -0.8031 -0.9784
  835MOL0     H12670   1.850   1.191   8.658  0.9011 -1.3780  1.2656
  835MOL0     H12671   1.735   1.071   8.703 -0.7710  0.2484  0.1543
  835MOL0     H12672   1.554   1.238   8.719 -1.4166 -0.1026 -3.6216
  835MOL0     H12673   1.664   1.376   8.708  0.0393  0.7696 -3.1803
  835MOL0     H12674   1.688   1.155   8.496 -0.9145 -1.9433  2.5420
  835MOL0     H12675   1.693   1.326   8.470 -0.6123 -0.0263 -0.3273
  835MOL0     H12676   1.437   1.456   8.561  2.8114  1.2772 -1.5311
  835MOL0     H12677   1.073   1.360   8.488 -1.6757  2.5109  0.4283
  835MOL0     H12678   1.173   1.463   8.590 -0.1360  0.1431  0.3981
  835MOL0     H12679   1.212   1.481   8.293  4.6433  1.8413 -0.1955
  835MOL0     H12680   1.266   1.580   8.423  0.0708  0.1600 -0.6445
  835MOL0     H12681   0.964   1.531   8.372  0.8010 -1.5532  3.1907
  835MOL0     H12682   1.035   1.662   8.285 -2.4558 -1.4210 -0.9008
  835MOL0     H12683   0.971   1.766   8.481 -0.1829 -0.0958 -1.8207
  835MOL0     H12684   1.128   1.718   8.540  0.5529 -2.2679  2.7384
  835MOL0     H12685   0.755   1.682   8.474  0.8508 -1.5104 -0.8472
  835MOL0     H12686   0.454   1.820   8.599  1.0744 -0.2320  1.8738
  835MOL0     H12687   0.570   1.812   8.470 -1.9157  0.8166 -1.3862
  835MOL0     H12688   0.456   1.669   8.504  1.3307 -0.1322  0.1249
  835MOL0     H12689   0.191   1.786   8.688  0.6138  1.0548  0.8176
  835MOL0     H12690  -0.072   1.754   8.754 -1.0429 -1.3672 -1.4204
  835MOL0     H12691  -0.161   1.486   9.119 -2.8205 -0.3142  0.9796
  835MOL0     H12692  -0.099   1.651   9.134 -0.1785  1.0649 -1.0083
  835MOL0     H12693  -0.336   1.650   9.210  1.7425  1.5563  0.0906
  835MOL0     H12694  -0.328   1.749   9.065  1.7760 -0.4930 -0.9575
  835MOL0     H12695  -0.435   1.458   9.074  0.7515  0.2040 -0.4063
  835MOL0     H12696  -0.409   1.565   8.939 -2.0004 -0.0502 -0.1868
  835MOL0     H12697  -0.611   1.613   9.167 -0.2128  2.3094  0.8281
  835MOL0     H12698  -0.581   1.727   9.033  0.7870 -0.3151 -0.9367
  835MOL0     H12699  -0.628   1.452   8.941 -2.1883 -0.8633  1.9713
  835MOL0     H12700  -0.676   1.606   8.880  2.4602  1.8387 -1.0023
  835MOL0     H12701  -0.886   1.483   8.958 -0.0457  0.2031 -0.6504
  835MOL0     H12702  -0.798   1.426   9.099  0.3559  0.6334 -0.2766
  835MOL0     H12703  -0.837   1.731   9.050 -1.1896  1.9710  1.6955
  835MOL0     H12704  -0.857   1.656   9.198 -1.2926  2.8764 -1.7225
  835MOL0     H12705  -1.044   1.633   8.961 -0.3171  3.2308 -0.5856
  835MOL0     H12706  -1.061   1.746   9.091 -2.6083  0.4483 -2.1771
  835MOL0     H12707   0.046   1.439   9.024 -0.1470  2.3618  0.6788
  835MOL0     H12708   0.282   1.469   8.930 -0.6834 -0.6758 -1.6465
  835MOL0     H12709   0.670   1.576   8.938  1.1837 -0.3912 -0.1184
  835MOL0     H12710   0.898   1.528   8.857 -2.2290  2.2658  1.5867
  835MOL0     H12711   2.452   1.381   8.695  2.5596  0.5945 -0.2842
  835MOL0     H12712   2.693   1.355   8.690  0.3570 -0.4732 -0.8680
  835MOL0     H12713   3.088   1.022   8.811 -0.5851  1.6510 -0.8672
  835MOL0     H12714   3.322   1.014   8.858  1.3600  2.2749 -2.1484
  835MOL0     H12715   3.620   1.118   8.939 -0.9056 -0.8012  1.3288
  835MOL0     H12716   3.533   1.191   8.801  1.3031  2.5936 -1.4414
  835MOL0     H12717   3.610   1.424   8.869  1.0278 -0.0074  0.5319
  835MOL0     H12718   3.721   1.322   8.797 -2.6640 -0.2395 -2.4045
  835MOL0     H12719   3.765   1.251   9.050 -0.5521  0.3521  0.9292
  835MOL0     H12720   3.679   1.397   9.090  2.6023  1.8107  1.4398
  835MOL0     H12721   3.841   1.528   8.966 -0.4537 -0.3401 -0.4818
  835MOL0     H12722   3.939   1.385   8.919  0.7746  0.7099  0.5690
  835MOL0     H12723   4.091   1.375   9.304  0.4162  2.3911  0.1570
  835MOL0     H12724   3.288   1.370   9.096  0.3925  0.0588 -0.3959
  835MOL0     H12725   3.047   1.376   9.039  0.5204 -0.5407  0.1057
  836MOL0     O12726   1.555  10.565  10.567  0.6065 -0.6882 -0.4876
  836MOL0     C12727   1.634  10.535  10.659 -0.0449  0.1378  0.7836
  836MOL0     O12728   1.609  10.541  10.796  0.5620 -0.1300 -0.2112
  836MOL0     C12729   1.481  10.570  10.832 -0.8133  1.2284  1.3131
  836MOL0     C12730   1.382  10.475  10.812 -0.0900  0.4491 -0.7789
  836MOL0     C12731   1.253  10.491  10.848  1.3550 -1.2378 -0.1823
  836MOL0     C12732   1.215  10.618  10.910  0.1935  0.0335 -0.2538
  836MOL0     O12733   1.080  10.631  10.948 -0.2327  0.5110 -0.2998
  836MOL0     C12734   1.025  10.759  10.966  0.3505  0.6361 -0.7526
  836MOL0     C12735   0.872  10.742  10.994 -0.2437 -0.7312  0.1770
  836MOL0     C12736   0.840  10.678  11.127  0.3967  1.0866  0.1951
  836MOL0     C12737   0.715  10.574  11.116 -0.4866 -0.0656 -0.5167
  836MOL0     C12738   0.675  10.513  11.255 -0.3737 -0.2339  0.2326
  836MOL0     C12739   0.620  10.626  11.341 -0.3000  0.2551  0.1818
  836MOL0     C12740   0.543  10.586  11.468  0.1671 -0.0905  0.4619
  836MOL0     C12741   0.508  10.706  11.560  0.2475 -0.9463 -1.0372
  836MOL0     N12742   0.463  10.670  11.697 -0.5895 -0.3220  0.4366
  836MOL0     C12743   0.339  10.664  11.742 -0.3278 -0.8841  0.2671
  836MOL0     C12744   0.355  10.648  11.880  0.1657  0.7912  0.1815
  836MOL0     C12745   0.241  10.632  11.973  0.1847  0.3650  0.6668
  836MOL0     C12746   0.179  10.486  11.974  0.3029 -0.1227 -0.4403
  836MOL0     C12747   0.038  10.475  12.039 -0.2511 -0.6733  0.0994
  836MOL0     C12748  -0.080  10.530  11.958  0.1419  0.2879 -0.1500
  836MOL0     O12749  -0.194  10.504  12.045 -0.0556 -0.1010  0.6261
  836MOL0     C12750  -0.308  10.468  11.975 -0.7479  0.2526 -0.4240
  836MOL0     C12751  -0.337  10.522  11.853 -0.7944 -0.5014 -0.4545
  836MOL0     C12752  -0.450  10.486  11.789  0.1087  0.2937 -0.3484
  836MOL0     C12753  -0.479  10.558  11.652 -0.4962 -0.1355 -0.4367
  836MOL0     C12754  -0.545  10.400  11.845  0.3589  0.7009 -0.4710
  836MOL0     C12755  -0.675  10.350  11.786 -0.2136 -0.1740 -0.1887
  836MOL0     O12756  -0.762  10.297  11.876 -0.3521  0.6419  0.2724
  836MOL0     C12757  -0.876  10.230  11.831  0.7167 -0.5925  0.5627
  836MOL0     C12758  -0.876  10.123  11.738 -0.9225 -0.8773  0.1842
  836MOL0     C12759  -0.996  10.058  11.722 -0.0955 -0.0233 -0.3227
  836MOL0     C12760  -1.123  10.110  11.768 -0.4160 -0.1615  0.2805
  836MOL0     O12761  -1.231  10.033  11.728 -0.3490  0.1689  0.2724
  836MOL0     C12762  -1.353  10.090  11.765  0.9498 -0.3006  0.2463
  836MOL0     C12763  -1.464  10.021  11.699  0.1819 -0.0652  1.2411
  836MOL0     C12764  -1.592  10.102  11.704 -0.6356 -0.0244  0.2467
  836MOL0     C12765  -1.701  10.033  11.615  0.1486 -0.4790  0.4049
  836MOL0     C12766  -1.836  10.104  11.603 -0.3488  0.5102  0.2322
  836MOL0     C12767  -1.938  10.004  11.543  0.1047 -0.4664  0.2461
  836MOL0     C12768  -2.083  10.064  11.565  0.1526  0.0346  0.5137
  836MOL0     C12769  -2.198   9.966  11.530  0.2620 -0.3002  0.3259
  836MOL0    Cl12770  -2.196   9.822  11.654  0.1174 -0.1564  0.2393
  836MOL0     C12771  -1.118  10.223  11.850  0.5246  0.4399  0.7906
  836MOL0     C12772  -0.991  10.273  11.888  0.1473 -0.7240 -0.6737
  836MOL0     O12773  -0.687  10.347  11.663  0.5786  0.6268  0.2572
  836MOL0     C12774  -0.510  10.342  11.972 -0.6441  0.0457 -1.4107
  836MOL0     C12775  -0.394  10.381  12.039  0.4483  0.7997 -1.2471
  836MOL0     N12776   0.488  10.641  11.912  0.0019  0.0667 -0.6006
  836MOL0     N12777   0.549  10.659  11.802  0.1024  0.0396 -0.9902
  836MOL0     C12778   1.312  10.721  10.931  0.2615  0.2720 -0.4481
  836MOL0     C12779   1.446  10.700  10.891 -0.6246  0.5082 -0.0286
  836MOL0     C12780   1.759  10.480  10.603  0.2957  0.3125 -0.6062
  836MOL0     C12781   1.864  10.476  10.691  0.0408  0.5644 -0.3826
  836MOL0     C12782   1.990  10.431  10.660 -0.2526  0.3211  0.1202
  836MOL0     C12783   2.013  10.373  10.536 -0.7335  0.6855 -0.4209
  836MOL0     O12784   2.134  10.316  10.490  0.4147 -0.1706  0.7129
  836MOL0     C12785   2.247  10.318  10.574  0.5968 -0.0825 -0.6288
  836MOL0     C12786   2.315  10.451  10.574 -0.3228  0.4826  0.9188
  836MOL0     C12787   2.373  10.485  10.432 -0.1399 -0.0439 -0.6643
  836MOL0     C12788   2.416  10.637  10.446 -0.3134  0.0299 -0.4496
  836MOL0     C12789   2.474  10.681  10.318 -1.0545  0.5230  0.9448
  836MOL0     C12790   2.525  10.705  10.208 -0.2478 -0.4478  0.4165
  836MOL0     C12791   1.908  10.376  10.440 -0.6138 -0.5499  0.2640
  836MOL0     C12792   1.779  10.424  10.474 -0.0095  0.0111  0.4896
  836MOL0     H12793   1.416  10.386  10.761  1.9991  0.4712  0.4600
  836MOL0     H12794   1.174  10.419  10.826 -0.6334  0.5742  0.6630
  836MOL0     H12795   1.076  10.830  11.031 -0.2918  1.9461 -1.6243
  836MOL0     H12796   1.012  10.798  10.864 -2.5792 -1.4884 -1.3209
  836MOL0     H12797   0.824  10.840  10.988 -1.1247 -1.1137  0.7670
  836MOL0     H12798   0.830  10.688  10.909 -0.0043  0.0552 -0.4564
  836MOL0     H12799   0.924  10.620  11.167 -1.5544 -2.7982 -0.8344
  836MOL0     H12800   0.799  10.755  11.193 -3.1851 -1.9351  1.8636
  836MOL0     H12801   0.633  10.625  11.065  0.5209  1.9996 -0.1905
  836MOL0     H12802   0.748  10.492  11.051  2.4901  0.6341 -0.0197
  836MOL0     H12803   0.603  10.431  11.256 -2.5979  1.6056 -0.5694
  836MOL0     H12804   0.759  10.484  11.319 -0.0615  1.7889  0.7984
  836MOL0     H12805   0.702  10.687  11.382 -0.5986 -0.2739  1.6301
  836MOL0     H12806   0.557  10.689  11.278  0.5909  1.0821  0.0845
  836MOL0     H12807   0.448  10.544  11.435 -0.4669  0.1487  1.8964
  836MOL0     H12808   0.595  10.507  11.523  0.3443 -0.3966 -0.1451
  836MOL0     H12809   0.434  10.775  11.518  0.3238 -0.1514  0.0930
  836MOL0     H12810   0.607  10.750  11.577  0.3266 -1.2571 -0.6824
  836MOL0     H12811   0.244  10.679  11.691 -1.2026 -0.7447  1.8874
  836MOL0     H12812   0.272  10.663  12.073 -0.6727  1.6143  0.5788
  836MOL0     H12813   0.154  10.696  11.957  1.0605  1.7193  1.1123
  836MOL0     H12814   0.249  10.417  12.023  2.1685 -0.4331 -3.3071
  836MOL0     H12815   0.173  10.445  11.873  2.0345  1.9295 -1.4671
  836MOL0     H12816   0.032  10.518  12.140  2.0417 -1.1485  0.5031
  836MOL0     H12817   0.022  10.368  12.053 -0.2490 -0.4907  1.6703
  836MOL0     H12818  -0.081  10.464  11.871  1.5309 -2.0819  1.5004
  836MOL0     H12819  -0.078  10.631  11.918  1.6873 -0.3907 -1.9419
  836MOL0     H12820  -0.274  10.598  11.807 -1.3354 -0.8791 -1.8634
  836MOL0     H12821  -0.584  10.586  11.644 -0.2991  0.4069 -1.1664
  836MOL0     H12822  -0.418  10.649  11.658 -1.3947  0.4287  4.3228
  836MOL0     H12823  -0.445  10.494  11.571 -0.2736 -1.3907  0.6116
  836MOL0     H12824  -0.782  10.095  11.692  1.4945  4.0683  1.3562
  836MOL0     H12825  -0.996   9.962  11.672  1.5744 -0.1379 -0.1657
  836MOL0     H12826  -1.366  10.087  11.874 -1.7334 -4.9643  0.0276
  836MOL0     H12827  -1.354  10.193  11.726  0.0078 -0.2831  0.2815
  836MOL0     H12828  -1.437  10.000  11.595  1.7410  2.6252  1.0226
  836MOL0     H12829  -1.483   9.925  11.749  2.2420 -1.2737 -0.1570
  836MOL0     H12830  -1.566  10.204  11.674  2.1482 -1.3816 -2.5622
  836MOL0     H12831  -1.620  10.103  11.809  3.1562 -1.5012  1.4101
  836MOL0     H12832  -1.666  10.014  11.513  0.2401 -1.1026  0.5459
  836MOL0     H12833  -1.717   9.940  11.670  2.5793  1.1563  4.3639
  836MOL0     H12834  -1.841  10.204  11.559 -2.0006  0.4841  0.2918
  836MOL0     H12835  -1.872  10.125  11.704  0.8233  0.4610  0.6718
  836MOL0     H12836  -1.912   9.986  11.438  0.3753 -1.2268  0.4323
  836MOL0     H12837  -1.938   9.905  11.591 -2.0312 -0.6363 -0.0088
  836MOL0     H12838  -2.094  10.162  11.516 -1.2255 -1.0917 -1.6035
  836MOL0     H12839  -2.093  10.075  11.673  0.2646 -0.8976  0.6232
  836MOL0     H12840  -2.176   9.931  11.429  0.1893  1.5192 -0.3577
  836MOL0     H12841  -2.299  10.009  11.536  1.0036  1.3295  2.8245
  836MOL0     H12842  -1.213  10.262  11.885  0.0355  2.2790 -2.2156
  836MOL0     H12843  -0.991  10.356  11.958 -1.6270  0.3591 -1.8921
  836MOL0     H12844  -0.571  10.264  12.018  0.1473  0.2226  0.0048
  836MOL0     H12845  -0.359  10.336  12.131  0.7316  2.4942 -0.4882
  836MOL0     H12846   1.278  10.806  10.988 -2.3172 -0.9046 -0.1138
  836MOL0     H12847   1.525  10.774  10.900  0.0683 -0.0188 -1.4442
  836MOL0     H12848   1.853  10.508  10.794 -0.3654  1.9294 -0.8408
  836MOL0     H12849   2.074  10.429  10.730 -0.2635 -0.5014  0.1131
  836MOL0     H12850   2.205  10.286  10.670  0.0212  1.2169 -0.4253
  836MOL0     H12851   2.312  10.241  10.532 -0.8668 -1.7850  0.0702
  836MOL0     H12852   2.400  10.439  10.642 -0.1400 -1.5839  0.3820
  836MOL0     H12853   2.257  10.535  10.614 -0.9642  0.9415 -0.9038
  836MOL0     H12854   2.302  10.480  10.350 -0.0190  1.0788 -0.8600
  836MOL0     H12855   2.456  10.418  10.406  1.0194  0.7175  0.8597
  836MOL0     H12856   2.487  10.662  10.525  0.3873  2.1712 -1.6687
  836MOL0     H12857   2.331  10.702  10.471  0.2956  0.6402  0.0736
  836MOL0     H12858   2.540  10.730  10.105  1.0325  0.1079  0.7225
  836MOL0     H12859   1.934  10.330  10.345 -0.1222 -1.6467  0.9156
  836MOL0     H12860   1.713  10.428  10.388  0.4967  2.1092  0.1276
  837MOL0     O12861   4.094  10.391   3.860 -0.2229  0.2126 -0.0243
  837MOL0     C12862   4.012  10.387   3.946 -0.0761  0.2333 -1.3978
  837MOL0     O12863   3.928  10.483   3.987  0.4451  0.0941 -0.3048
  837MOL0     C12864   3.934  10.602   3.924 -0.5665 -0.7772 -0.6333
  837MOL0     C12865   4.043  10.691   3.953 -0.0149 -0.9644 -0.2397
  837MOL0     C12866   4.040  10.824   3.904 -0.6402 -0.3466 -0.2998
  837MOL0     C12867   3.924  10.882   3.855  0.5676  0.8876  0.2240
  837MOL0     O12868   3.915  11.012   3.835  0.3222  0.3569 -0.1029
  837MOL0     C12869   3.806  11.061   3.750 -0.7455 -0.1186 -0.4307
  837MOL0     C12870   3.860  11.192   3.700 -0.4377 -0.4560  0.1355
  837MOL0     C12871   3.835  11.322   3.778  0.2967  0.1054 -0.2483
  837MOL0     C12872   3.832  11.446   3.693 -1.0365 -0.7968  0.8176
  837MOL0     C12873   3.727  11.450   3.574  0.5103  0.4944  0.0403
  837MOL0     C12874   3.585  11.443   3.615  0.0484 -0.0129 -0.0585
  837MOL0     C12875   3.503  11.404   3.487  0.3327  0.3585  0.3568
  837MOL0     C12876   3.493  11.523   3.386 -0.1766  0.6843  0.1926
  837MOL0     N12877   3.577  11.502   3.262 -0.3186 -0.9400  0.4299
  837MOL0     C12878   3.668  11.585   3.206  0.2103 -0.1820  0.0647
  837MOL0     C12879   3.721  11.521   3.099 -0.3566 -0.3946 -0.1416
  837MOL0     C12880   3.825  11.552   2.998 -0.1050  0.9780  0.5286
  837MOL0     C12881   3.906  11.665   3.061  0.9151 -0.1695 -0.5609
  837MOL0     C12882   4.042  11.692   2.983  0.6403  0.1459 -0.1887
  837MOL0     C12883   4.037  11.680   2.827  0.4515  1.2344 -0.2828
  837MOL0     O12884   4.063  11.541   2.800 -0.1133 -0.3081  0.4171
  837MOL0     C12885   4.197  11.498   2.787  0.5796  0.3762 -1.2830
  837MOL0     C12886   4.215  11.369   2.736  0.9738 -0.3572 -0.5867
  837MOL0     C12887   4.346  11.318   2.707  0.7316  0.0078  0.3994
  837MOL0     C12888   4.349  11.181   2.650  0.3566  0.6837 -0.0051
  837MOL0     C12889   4.461  11.395   2.721 -0.2842  0.6014  0.2205
  837MOL0     C12890   4.600  11.352   2.695  0.7903  0.0538 -0.0892
  837MOL0     O12891   4.679  11.452   2.656 -0.6687 -0.0627  0.1754
  837MOL0     C12892   4.814  11.439   2.687 -0.1996 -0.7088 -0.0277
  837MOL0     C12893   4.913  11.488   2.599 -0.4992 -0.3574  0.3251
  837MOL0     C12894   5.049  11.494   2.637 -0.2722 -0.2048 -0.3168
  837MOL0     C12895   5.088  11.443   2.761  0.9414 -0.3037 -0.8238
  837MOL0     O12896   5.218  11.428   2.792 -0.3273  0.2064  0.1091
  837MOL0     C12897   5.316  11.460   2.696  0.1670 -0.3289  0.7546
  837MOL0     C12898   5.448  11.440   2.761  0.5569  0.5904 -0.3042
  837MOL0     C12899   5.568  11.468   2.661  0.5728  0.4211  0.3281
  837MOL0     C12900   5.700  11.439   2.729 -1.2791 -0.6175 -0.0279
  837MOL0     C12901   5.745  11.291   2.738  1.0553 -0.1519  0.0718
  837MOL0     C12902   5.873  11.280   2.799  0.0099 -0.3356  0.0288
  837MOL0     C12903   5.924  11.141   2.782 -0.8030  0.3776  0.6769
  837MOL0     C12904   6.063  11.132   2.848 -0.0042  0.8808  0.0567
  837MOL0    Cl12905   6.176  11.012   2.782 -0.4047  0.1982 -0.5073
  837MOL0     C12906   4.993  11.386   2.842  0.0421 -0.0779 -0.2030
  837MOL0     C12907   4.855  11.384   2.804 -0.9305 -0.5570  0.8767
  837MOL0     O12908   4.635  11.234   2.706 -0.4380  0.5117 -0.0239
  837MOL0     C12909   4.435  11.523   2.770 -0.4427 -0.1860 -0.4988
  837MOL0     C12910   4.311  11.575   2.809  0.5757  0.6324  0.1625
  837MOL0     N12911   3.663  11.398   3.091  0.6113  0.0226 -0.2766
  837MOL0     N12912   3.582  11.388   3.191 -0.6115 -0.0809  0.2828
  837MOL0     C12913   3.810  10.790   3.843  0.1208 -0.6297  0.0269
  837MOL0     C12914   3.811  10.656   3.876  0.1036  0.0803  0.2343
  837MOL0     C12915   3.991  10.251   4.001 -0.5387  0.1973 -0.3258
  837MOL0     C12916   4.082  10.141   3.978 -0.2463  0.1614  0.7067
  837MOL0     C12917   4.062  10.014   4.041  0.2553  0.2703  0.2139
  837MOL0     C12918   3.945   9.987   4.110  0.1914  0.5207 -0.7542
  837MOL0     O12919   3.932   9.859   4.179  0.0730 -0.4892 -0.2063
  837MOL0     C12920   3.818   9.829   4.266 -0.5994  0.9146  0.2281
  837MOL0     C12921   3.726   9.735   4.184 -0.0633  0.1960 -0.8115
  837MOL0     C12922   3.673   9.802   4.056 -0.4424  0.7570 -0.2895
  837MOL0     C12923   3.579   9.713   3.967  0.0612  0.2890  0.5812
  837MOL0     C12924   3.659   9.602   3.907 -0.7899  0.7350 -0.4694
  837MOL0     C12925   3.727   9.505   3.873  0.5935 -0.5027 -0.6126
  837MOL0     C12926   3.847  10.090   4.119 -0.4983  0.3141  0.1395
  837MOL0     C12927   3.871  10.219   4.062 -0.1582 -0.0229 -0.4156
  837MOL0     H12928   4.136  10.647   3.988  0.2209 -0.9055 -0.7737
  837MOL0     H12929   4.121  10.896   3.918 -0.9879  0.1709 -0.9182
  837MOL0     H12930   3.794  10.990   3.668 -1.2188 -0.3380 -0.1780
  837MOL0     H12931   3.709  11.072   3.799 -0.6644  1.4998 -0.6062
  837MOL0     H12932   3.969  11.183   3.691 -0.0432  0.4819  2.9215
  837MOL0     H12933   3.834  11.205   3.595 -3.0075 -0.5158  0.7138
  837MOL0     H12934   3.741  11.310   3.833 -1.3776 -2.1256 -3.2976
  837MOL0     H12935   3.915  11.323   3.852  1.1605 -0.6482 -1.1295
  837MOL0     H12936   3.813  11.537   3.752 -0.9279  0.5172 -1.0635
  837MOL0     H12937   3.927  11.460   3.641 -0.8991 -0.3945  1.1709
  837MOL0     H12938   3.735  11.544   3.518  1.2164  0.5475  0.2234
  837MOL0     H12939   3.757  11.377   3.498  0.8624  0.2762  0.3842
  837MOL0     H12940   3.572  11.358   3.683 -0.8017 -0.0344 -0.2323
  837MOL0     H12941   3.565  11.538   3.665 -0.3132 -0.7071  1.1805
  837MOL0     H12942   3.554  11.326   3.430  0.5859 -0.2756  1.4444
  837MOL0     H12943   3.401  11.375   3.511  0.5495 -1.8005 -1.0833
  837MOL0     H12944   3.515  11.620   3.431 -0.7613  1.7202 -1.6433
  837MOL0     H12945   3.388  11.534   3.355 -0.0821  1.0239 -0.0087
  837MOL0     H12946   3.691  11.684   3.245 -2.6880 -0.4881  2.9991
  837MOL0     H12947   3.889  11.468   2.969 -2.7423  0.1664 -3.5753
  837MOL0     H12948   3.779  11.581   2.904  0.5526  0.9476  0.1925
  837MOL0     H12949   3.933  11.637   3.163 -1.0857  1.0674  0.3791
  837MOL0     H12950   3.838  11.751   3.069  1.2142 -0.0895  2.0149
  837MOL0     H12951   4.111  11.616   3.019  0.7552 -0.8270 -2.2966
  837MOL0     H12952   4.077  11.787   3.023 -0.1165 -0.4209  1.9723
  837MOL0     H12953   4.111  11.743   2.776  0.2908  2.3768  0.8243
  837MOL0     H12954   3.943  11.716   2.786  1.2380 -1.1229 -4.8260
  837MOL0     H12955   4.125  11.310   2.722 -1.4559  2.4061  2.1639
  837MOL0     H12956   4.370  11.112   2.732 -0.3536 -0.2966 -0.6340
  837MOL0     H12957   4.258  11.169   2.589  2.4956  0.5566 -3.4137
  837MOL0     H12958   4.435  11.188   2.583  0.0810 -1.9275 -0.7327
  837MOL0     H12959   4.893  11.532   2.502 -0.2669  0.9772  0.8642
  837MOL0     H12960   5.118  11.526   2.560 -1.0790 -0.0816 -1.0164
  837MOL0     H12961   5.316  11.382   2.619  1.8193 -0.7377  1.1245
  837MOL0     H12962   5.314  11.562   2.656 -0.7210 -0.0632  1.4520
  837MOL0     H12963   5.456  11.506   2.847  1.5395 -2.0977  1.8037
  837MOL0     H12964   5.465  11.337   2.794 -1.1191  0.7353  1.1287
  837MOL0     H12965   5.564  11.575   2.641 -0.9796  0.3854  0.3219
  837MOL0     H12966   5.563  11.415   2.566  2.2153  0.3448  0.2638
  837MOL0     H12967   5.781  11.491   2.678 -1.9172 -1.6532 -2.2223
  837MOL0     H12968   5.697  11.481   2.830 -0.5606 -0.1170 -0.2097
  837MOL0     H12969   5.757  11.261   2.633  2.1555 -2.8855  0.8840
  837MOL0     H12970   5.677  11.228   2.796  1.1394 -1.2174 -0.9566
  837MOL0     H12971   5.940  11.355   2.756  0.3009 -1.3820 -1.4287
  837MOL0     H12972   5.874  11.300   2.907 -2.1776  3.8166 -0.5496
  837MOL0     H12973   5.939  11.106   2.679 -0.0398  4.1439 -0.6526
  837MOL0     H12974   5.864  11.068   2.836  0.6063 -1.0672  0.3799
  837MOL0     H12975   6.047  11.089   2.948  1.3172 -2.5718 -1.0726
  837MOL0     H12976   6.096  11.232   2.877  0.0411  0.9276 -0.1515
  837MOL0     H12977   5.024  11.332   2.931  0.5154  0.1382 -0.2354
  837MOL0     H12978   4.787  11.343   2.877 -0.6227 -0.9925  0.9192
  837MOL0     H12979   4.518  11.590   2.787 -0.3264 -0.5737  0.4986
  837MOL0     H12980   4.310  11.676   2.848  0.8935  1.2059 -1.2647
  837MOL0     H12981   3.713  10.827   3.813  1.3683  0.9340 -2.4864
  837MOL0     H12982   3.721  10.595   3.867  1.6274 -2.3537  0.4929
  837MOL0     H12983   4.173  10.157   3.921 -1.5478 -2.4172 -2.4232
  837MOL0     H12984   4.142   9.940   4.036  0.4603  0.5915 -3.5176
  837MOL0     H12985   3.851   9.766   4.350  0.2334  1.1126  0.0510
  837MOL0     H12986   3.757   9.916   4.292  0.7382  3.0211 -3.1173
  837MOL0     H12987   3.642   9.699   4.244 -1.0484 -2.2807 -3.4157
  837MOL0     H12988   3.779   9.644   4.154 -0.2931 -0.5767  0.9846
  837MOL0     H12989   3.756   9.821   3.988  1.4376  0.6295  1.8556
  837MOL0     H12990   3.632   9.902   4.075 -0.4432  0.7381 -0.1909
  837MOL0     H12991   3.544   9.768   3.880  0.4783  0.5919  0.6001
  837MOL0     H12992   3.495   9.677   4.028 -3.2842 -1.7879 -4.6082
  837MOL0     H12993   3.781   9.432   3.816 -0.7370 -0.3395 -2.1391
  837MOL0     H12994   3.753  10.085   4.172  0.2169 -0.7392  1.3687
  837MOL0     H12995   3.803  10.298   4.093  0.6492  0.6554 -0.3376
  838MOL0     O12996   1.775   0.192  10.781  0.0220 -0.8820 -0.2323
  838MOL0     C12997   1.759   0.314  10.778  0.3363  0.0972 -0.2514
  838MOL0     O12998   1.640   0.377  10.776  0.2696  0.2709  0.7374
  838MOL0     C12999   1.521   0.314  10.792  0.5370 -0.1526  0.7610
  838MOL0     C13000   1.413   0.399  10.826 -0.1418  0.8216  0.8279
  838MOL0     C13001   1.277   0.354  10.828 -0.9727  0.4335  0.6048
  838MOL0     C13002   1.246   0.218  10.811  0.6433  0.0330 -0.1247
  838MOL0     O13003   1.123   0.165  10.822  0.4433  0.7270 -0.6136
  838MOL0     C13004   1.021   0.243  10.883 -0.1852 -0.1901 -1.2259
  838MOL0     C13005   0.894   0.158  10.880  0.0772  0.4094  0.5922
  838MOL0     C13006   0.758   0.224  10.910  0.5902 -0.1872  0.0409
  838MOL0     C13007   0.648   0.129  10.865  0.1253 -1.1360  1.2379
  838MOL0     C13008   0.523   0.217  10.812 -0.4505  0.1304 -0.8206
  838MOL0     C13009   0.427   0.133  10.734 -0.0863 -1.1065  0.3393
  838MOL0     C13010   0.358   0.039  10.828 -0.7799 -0.5127 -0.9133
  838MOL0     C13011   0.234  -0.031  10.763 -0.7918  0.5911 -0.1422
  838MOL0     N13012   0.171  -0.117  10.855  0.5008 -1.0031  0.5513
  838MOL0     C13013   0.095  -0.064  10.963 -0.0327  0.6815 -1.0119
  838MOL0     C13014   0.040  -0.181  11.014 -0.5787 -0.2104 -0.3336
  838MOL0     C13015  -0.042  -0.191  11.146 -0.0434  0.2259  0.2313
  838MOL0     C13016  -0.183  -0.160  11.142 -0.3649 -0.8311  0.0285
  838MOL0     C13017  -0.199  -0.008  11.125 -0.8167 -0.6593  0.0969
  838MOL0     C13018  -0.338   0.040  11.161  0.7387 -0.2218 -0.1644
  838MOL0     O13019  -0.355   0.026  11.305  0.5922  0.3852  0.9141
  838MOL0     C13020  -0.482   0.054  11.354 -0.3921 -0.2766 -0.3413
  838MOL0     C13021  -0.596   0.085  11.281  0.7485 -0.3837 -0.9534
  838MOL0     C13022  -0.721   0.103  11.342 -0.1755  0.7200  0.8923
  838MOL0     C13023  -0.827   0.143  11.246 -0.5010  0.1301 -0.5157
  838MOL0     C13024  -0.745   0.095  11.480 -0.2506  0.7932 -1.3367
  838MOL0     C13025  -0.878   0.133  11.549 -0.0496 -0.1708 -0.0984
  838MOL0     O13026  -0.995   0.145  11.475  0.7085  0.1655 -0.0772
  838MOL0     C13027  -1.115   0.150  11.544  0.0453  0.3495  0.3379
  838MOL0     C13028  -1.140   0.071  11.658  0.1570  0.4604 -0.1656
  838MOL0     C13029  -1.260   0.089  11.730 -0.0276  0.1868  1.5189
  838MOL0     C13030  -1.359   0.174  11.676  0.3463  0.0273 -0.3904
  838MOL0     O13031  -1.474   0.210  11.734 -0.0137  0.8337 -0.9160
  838MOL0     C13032  -1.493   0.178  11.876 -0.5072  0.3152  0.5440
  838MOL0     C13033  -1.633   0.245  11.900  0.7344 -0.0025  0.2564
  838MOL0     C13034  -1.697   0.203  12.040  0.1286 -0.0521  0.2258
  838MOL0     C13035  -1.846   0.233  12.051  1.0047  0.1616 -0.2341
  838MOL0     C13036  -1.890   0.194  12.192 -0.4359 -0.0047  0.7763
  838MOL0     C13037  -1.877   0.043  12.234  0.0077  0.6384  0.1380
  838MOL0     C13038  -1.941   0.011  12.376 -0.1363  0.1021 -0.2253
  838MOL0     C13039  -2.007  -0.127  12.381  0.0860  0.4046 -0.2368
  838MOL0    Cl13040  -2.168  -0.113  12.292 -0.3052 -0.0813  0.0294
  838MOL0     C13041  -1.336   0.251  11.566  0.1237 -0.5851 -0.4941
  838MOL0     C13042  -1.213   0.249  11.504  1.3287 -0.4069 -0.7921
  838MOL0     O13043  -0.860   0.156  11.672  0.3918 -0.7311 -0.3383
  838MOL0     C13044  -0.628   0.054  11.554  0.3475 -1.1628  0.0939
  838MOL0     C13045  -0.503   0.043  11.493 -0.4295  0.3630 -0.0103
  838MOL0     N13046   0.075  -0.290  10.933 -0.2310  0.0773 -0.5980
  838MOL0     N13047   0.163  -0.251  10.843 -0.7247 -0.6856 -0.5919
  838MOL0     C13048   1.353   0.134  10.779  0.1740 -0.3329 -0.2551
  838MOL0     C13049   1.485   0.180  10.767 -0.2348 -0.3798  0.3869
  838MOL0     C13050   1.872   0.403  10.773 -0.8194  0.4728  0.2125
  838MOL0     C13051   2.008   0.355  10.742  0.0592 -0.4063  0.3626
  838MOL0     C13052   2.117   0.446  10.725  0.6633 -0.0232  0.0630
  838MOL0     C13053   2.089   0.586  10.736  0.4434 -0.2808  1.2363
  838MOL0     O13054   2.188   0.674  10.712  0.2842  0.7072 -1.0018
  838MOL0     C13055   2.174   0.817  10.711  0.1525 -1.1849  0.1569
  838MOL0     C13056   2.177   0.883  10.851  0.3349  0.1150  0.5387
  838MOL0     C13057   2.249   0.804  10.956 -0.6811  0.4277 -0.6780
  838MOL0     C13058   2.259   0.888  11.083  0.0379  0.0603  0.0563
  838MOL0     C13059   2.147   0.949  11.150 -0.4403  0.0564  1.3790
  838MOL0     C13060   2.051   1.017  11.190 -0.8014  0.9959 -0.1384
  838MOL0     C13061   1.956   0.629  10.768 -0.0498  0.4368  0.5950
  838MOL0     C13062   1.850   0.542  10.780 -0.0878  0.0988 -0.1425
  838MOL0     H13063   1.431   0.505  10.838  0.6222  1.1297 -2.2690
  838MOL0     H13064   1.190   0.415  10.853 -1.4855  0.0354 -0.1652
  838MOL0     H13065   1.037   0.277  10.986  1.1543 -1.6825 -0.9171
  838MOL0     H13066   1.000   0.325  10.813  1.7703 -0.3318 -2.0297
  838MOL0     H13067   0.877   0.103  10.787 -2.0909 -1.5852  2.0303
  838MOL0     H13068   0.914   0.090  10.963 -0.2279  3.6983  3.6084
  838MOL0     H13069   0.759   0.264  11.012  0.1805 -3.2588  1.3715
  838MOL0     H13070   0.746   0.305  10.837 -0.4656 -1.3994 -1.1854
  838MOL0     H13071   0.686   0.070  10.780  1.4242  2.7854 -1.1558
  838MOL0     H13072   0.604   0.066  10.943 -0.5289 -0.8175  1.1310
  838MOL0     H13073   0.473   0.259  10.900  0.2519  2.1778 -1.3417
  838MOL0     H13074   0.565   0.302  10.758 -0.2876  1.2371  0.9872
  838MOL0     H13075   0.367   0.212  10.690  1.7421 -0.8650 -1.8927
  838MOL0     H13076   0.477   0.077  10.655  3.4818 -2.1476  3.0634
  838MOL0     H13077   0.433  -0.035  10.855  1.2982  2.0688  0.7864
  838MOL0     H13078   0.331   0.096  10.917  0.8572 -2.1768  0.7298
  838MOL0     H13079   0.268  -0.091  10.678 -1.6277 -1.0869  0.6491
  838MOL0     H13080   0.162   0.045  10.734 -1.1176  1.0687  1.7714
  838MOL0     H13081   0.083   0.034  11.008  0.7755 -0.7349  2.7255
  838MOL0     H13082  -0.033  -0.290  11.191 -2.2296  0.3557  1.0398
  838MOL0     H13083   0.001  -0.127  11.224 -0.4891 -1.6955  2.1388
  838MOL0     H13084  -0.236  -0.193  11.232 -2.7640 -0.2749 -1.1067
  838MOL0     H13085  -0.228  -0.204  11.053 -0.8510 -1.4749  0.5851
  838MOL0     H13086  -0.163   0.019  11.025 -0.6424  1.8825  0.7856
  838MOL0     H13087  -0.127   0.041  11.191  0.0099  0.8673 -1.8559
  838MOL0     H13088  -0.400  -0.019  11.093  3.4013 -2.2563 -1.0202
  838MOL0     H13089  -0.348   0.147  11.140  0.9909 -0.2566 -0.4611
  838MOL0     H13090  -0.600   0.072  11.173 -3.6581 -3.5417 -0.6882
  838MOL0     H13091  -0.777   0.167  11.151  0.0211  1.3227  0.0332
  838MOL0     H13092  -0.916   0.081  11.233 -3.3128  3.6649  0.3499
  838MOL0     H13093  -0.868   0.236  11.285  1.9967  0.6416  1.1858
  838MOL0     H13094  -1.062   0.014  11.707  0.2843 -0.6099 -1.5421
  838MOL0     H13095  -1.288   0.020  11.809  1.1605  1.9336  3.5825
  838MOL0     H13096  -1.505   0.070  11.887  0.0111  0.1016 -0.7432
  838MOL0     H13097  -1.410   0.204  11.941 -0.3401 -0.6958  0.7412
  838MOL0     H13098  -1.631   0.354  11.889  1.3702  0.0746  0.9780
  838MOL0     H13099  -1.709   0.209  11.831  0.7447  2.2462 -1.0451
  838MOL0     H13100  -1.645   0.259  12.119 -1.4576  1.3040  0.3811
  838MOL0     H13101  -1.689   0.094  12.049  1.1000 -0.0458 -0.4459
  838MOL0     H13102  -1.865   0.340  12.037  2.5532  0.2755 -1.7596
  838MOL0     H13103  -1.903   0.183  11.972 -0.1896 -0.7928  1.1767
  838MOL0     H13104  -1.997   0.218  12.198 -1.3188 -2.6290 -2.1427
  838MOL0     H13105  -1.835   0.255  12.264  1.5892 -1.1703  0.3078
  838MOL0     H13106  -1.928  -0.014  12.157  0.7124 -0.3974  0.4171
  838MOL0     H13107  -1.774   0.009  12.242  0.2515  1.4516  0.6766
  838MOL0     H13108  -2.024   0.076  12.406  0.1924 -0.8224  3.1422
  838MOL0     H13109  -1.867   0.013  12.457 -0.6705 -1.6047  0.3269
  838MOL0     H13110  -2.029  -0.155  12.484 -1.1541 -3.2998 -1.3297
  838MOL0     H13111  -1.940  -0.205  12.341  1.7240  2.2460 -1.2430
  838MOL0     H13112  -1.400   0.337  11.549 -0.4125 -0.4291  1.9130
  838MOL0     H13113  -1.185   0.315  11.423  1.8435  1.1454  0.5922
  838MOL0     H13114  -0.642   0.046  11.662  0.8288  1.7715  0.4470
  838MOL0     H13115  -0.413   0.022  11.551 -0.9757 -2.0529  0.0818
  838MOL0     H13116   1.332   0.037  10.735 -2.6163 -0.2992  0.8045
  838MOL0     H13117   1.570   0.115  10.750  0.1856  0.1363  0.4649
  838MOL0     H13118   2.034   0.250  10.728 -0.5720 -0.8010  1.9236
  838MOL0     H13119   2.216   0.415  10.694  0.8965  0.6259  0.1561
  838MOL0     H13120   2.266   0.863  10.676  0.5345  1.1659  3.7023
  838MOL0     H13121   2.093   0.864  10.655  4.1816  3.1816 -2.7700
  838MOL0     H13122   2.072   0.885  10.882  0.0901 -0.0599 -0.2573
  838MOL0     H13123   2.229   0.980  10.851 -0.1643  0.4293  2.3362
  838MOL0     H13124   2.347   0.768  10.925  0.6282  0.1481  3.2575
  838MOL0     H13125   2.200   0.709  10.981  0.5045 -0.1016 -0.3089
  838MOL0     H13126   2.325   0.971  11.056 -1.7272  1.5173 -0.0000
  838MOL0     H13127   2.318   0.829  11.153 -0.1806 -2.3329 -1.6660
  838MOL0     H13128   1.977   1.080  11.234 -1.0361  1.2425 -0.8749
  838MOL0     H13129   1.928   0.734  10.776  0.3332  0.4089  4.6037
  838MOL0     H13130   1.749   0.582  10.783 -0.6539 -1.1517 -1.2545
  839MOL0     O13131   6.740   5.823  10.401 -0.1421 -0.1933 -0.0257
  839MOL0     C13132   6.811   5.924  10.419 -0.4997  0.3871 -1.3256
  839MOL0     O13133   6.856   5.957  10.545  0.1439 -0.3286  0.2553
  839MOL0     C13134   6.796   5.901  10.649  0.0735  0.0188  0.1779
  839MOL0     C13135   6.844   5.783  10.704 -0.0651  0.0665  0.1473
  839MOL0     C13136   6.783   5.731  10.820 -0.4699  1.0496 -0.0280
  839MOL0     C13137   6.671   5.794  10.878  0.1667  0.4625  0.5667
  839MOL0     O13138   6.602   5.753  10.984 -0.1086  0.7638  0.2712
  839MOL0     C13139   6.631   5.631  11.045 -0.0481  0.3272 -0.6329
  839MOL0     C13140   6.511   5.595  11.143 -0.2836  0.7566  0.4891
  839MOL0     C13141   6.374   5.621  11.097  0.2287 -0.1153 -0.5337
  839MOL0     C13142   6.262   5.584  11.198 -0.3567 -0.2834  0.2463
  839MOL0     C13143   6.235   5.686  11.313 -1.2486 -0.0807 -0.3370
  839MOL0     C13144   6.103   5.656  11.396 -0.1832  0.5791  0.5557
  839MOL0     C13145   6.123   5.542  11.499 -0.8396  1.1527 -0.7695
  839MOL0     C13146   6.020   5.544  11.611  0.2174  0.4691 -0.0230
  839MOL0     N13147   5.886   5.578  11.564  0.4175 -1.1250  0.6613
  839MOL0     C13148   5.823   5.504  11.470  0.2317 -0.4930  0.9929
  839MOL0     C13149   5.707   5.567  11.448  0.5051  0.2587 -0.1467
  839MOL0     C13150   5.597   5.503  11.365  0.0051  0.4766  0.2378
  839MOL0     C13151   5.448   5.559  11.385 -0.1966  0.3988 -0.5768
  839MOL0     C13152   5.367   5.543  11.263  0.0112 -0.8560  0.6645
  839MOL0     C13153   5.226   5.590  11.273  0.9427  0.3368 -0.2193
  839MOL0     O13154   5.151   5.513  11.371  0.3501 -0.3622  0.1785
  839MOL0     C13155   5.021   5.560  11.393 -1.0312 -0.6492 -0.4829
  839MOL0     C13156   4.924   5.473  11.356  0.4646 -0.6095  0.1179
  839MOL0     C13157   4.786   5.501  11.355 -0.1674  0.0153 -1.5085
  839MOL0     C13158   4.694   5.384  11.330 -0.3128  0.4331 -0.4241
  839MOL0     C13159   4.752   5.629  11.403  0.2026  0.0537  0.0868
  839MOL0     C13160   4.614   5.671  11.401  0.3521 -0.5271 -0.2382
  839MOL0     O13161   4.519   5.613  11.317 -0.7537  0.3247 -0.3505
  839MOL0     C13162   4.383   5.631  11.343 -0.4069 -0.1160 -0.2335
  839MOL0     C13163   4.331   5.753  11.313  0.0997 -0.1948 -1.4853
  839MOL0     C13164   4.195   5.786  11.340 -0.6146  0.5090 -0.0429
  839MOL0     C13165   4.112   5.690  11.382 -0.0082  0.2603  0.5517
  839MOL0     O13166   3.985   5.726  11.410  0.2573 -0.2334 -0.3550
  839MOL0     C13167   3.966   5.781  11.538  0.1123  0.2667  0.4811
  839MOL0     C13168   3.822   5.830  11.561  0.0394  0.2777  0.5305
  839MOL0     C13169   3.710   5.717  11.544 -0.6123  0.1906 -0.3548
  839MOL0     C13170   3.578   5.776  11.583 -0.1657 -0.3262 -0.5560
  839MOL0     C13171   3.474   5.666  11.589 -0.1883  0.0139 -0.2435
  839MOL0     C13172   3.330   5.712  11.606  0.5736  0.1353 -0.1168
  839MOL0     C13173   3.231   5.601  11.584  0.0168 -0.0039 -0.7187
  839MOL0     C13174   3.092   5.650  11.631 -0.0413 -0.2413 -0.0540
  839MOL0    Cl13175   2.966   5.530  11.594 -0.4426  0.2815  0.0017
  839MOL0     C13176   4.159   5.559  11.396 -0.0857 -0.5956  0.4836
  839MOL0     C13177   4.290   5.529  11.379 -0.6629  0.2559  0.3092
  839MOL0     O13178   4.582   5.757  11.490  0.6465  0.2203  0.0120
  839MOL0     C13179   4.852   5.715  11.456 -0.5856 -0.9726 -0.2852
  839MOL0     C13180   4.988   5.678  11.448  0.2101 -0.1029 -1.1106
  839MOL0     N13181   5.701   5.684  11.531  0.2810 -0.0120 -0.3391
  839MOL0     N13182   5.816   5.699  11.585 -0.3390  0.0528  0.8386
  839MOL0     C13183   6.618   5.909  10.815  0.1287 -0.7119  0.2818
  839MOL0     C13184   6.682   5.961  10.703 -0.1044 -0.8273  0.6810
  839MOL0     C13185   6.864   5.998  10.302  0.4183  0.7275  0.1116
  839MOL0     C13186   6.864   5.943  10.176  0.6412 -0.5350  0.2586
  839MOL0     C13187   6.926   6.022  10.074  0.9871  0.7229 -0.0721
  839MOL0     C13188   6.979   6.147  10.101  0.0852 -0.9749  0.5090
  839MOL0     O13189   7.016   6.218   9.985  0.1257 -0.3243 -0.1963
  839MOL0     C13190   7.057   6.353   9.998  0.2334 -0.9497 -0.1664
  839MOL0     C13191   7.202   6.365  10.036 -0.2405 -0.4015 -0.2456
  839MOL0     C13192   7.256   6.505  10.039  0.0042 -0.9770 -0.0075
  839MOL0     C13193   7.405   6.519  10.072 -0.6107 -0.0882  0.3273
  839MOL0     C13194   7.452   6.466  10.193 -0.8052 -0.0217 -0.4431
  839MOL0     C13195   7.504   6.413  10.288  0.5143  1.0317 -0.4883
  839MOL0     C13196   6.979   6.194  10.237 -0.5267  0.6096  0.2766
  839MOL0     C13197   6.924   6.112  10.338  0.2309 -0.7871  0.9931
  839MOL0     H13198   6.926   5.733  10.653 -2.9181 -0.9906 -3.8360
  839MOL0     H13199   6.817   5.635  10.857  1.7218  1.7596 -0.0827
  839MOL0     H13200   6.638   5.548  10.974  2.1269  0.8519 -1.0921
  839MOL0     H13201   6.720   5.642  11.107 -2.1270 -1.1451  2.9327
  839MOL0     H13202   6.526   5.488  11.163 -1.6737  0.7379  1.6015
  839MOL0     H13203   6.510   5.636  11.245 -4.3630 -0.8013  1.2357
  839MOL0     H13204   6.371   5.730  11.085 -1.1671  0.6101  4.3339
  839MOL0     H13205   6.357   5.582  10.996 -0.8563 -1.9311  0.3078
  839MOL0     H13206   6.176   5.578  11.132  1.4638 -1.1621 -2.1692
  839MOL0     H13207   6.279   5.485  11.240  0.1692 -0.0136  0.6857
  839MOL0     H13208   6.317   5.671  11.383  0.0241 -0.8367 -1.9076
  839MOL0     H13209   6.239   5.786  11.270  2.9916 -0.0029 -0.1934
  839MOL0     H13210   6.060   5.743  11.447  0.4994  1.1873  0.1115
  839MOL0     H13211   6.024   5.633  11.323 -1.6024  0.8970  1.9400
  839MOL0     H13212   6.143   5.450  11.443  1.8666  1.2111 -0.0550
  839MOL0     H13213   6.221   5.565  11.543 -0.4542 -0.4802 -0.7283
  839MOL0     H13214   6.057   5.616  11.685  0.1047 -1.3495  1.9140
  839MOL0     H13215   6.022   5.446  11.661 -0.0789 -0.7390 -2.2601
  839MOL0     H13216   5.848   5.413  11.416 -0.8821  0.3783 -1.1008
  839MOL0     H13217   5.626   5.510  11.260 -0.8307  0.5012  0.0024
  839MOL0     H13218   5.596   5.395  11.385  0.5077  0.2165 -1.0825
  839MOL0     H13219   5.457   5.665  11.409 -0.3857  0.3271 -0.1906
  839MOL0     H13220   5.405   5.504  11.468  0.6382  0.8943  0.2042
  839MOL0     H13221   5.374   5.439  11.229  0.9221 -0.9145  0.9986
  839MOL0     H13222   5.402   5.600  11.177 -1.5006 -0.7885  0.0608
  839MOL0     H13223   5.185   5.577  11.173  2.7471 -0.6778 -0.8601
  839MOL0     H13224   5.210   5.697  11.291 -1.8519 -0.0067 -0.2679
  839MOL0     H13225   4.955   5.370  11.342  1.8325 -0.3096  0.8150
  839MOL0     H13226   4.625   5.379  11.414  1.0077 -2.8365  0.6300
  839MOL0     H13227   4.646   5.405  11.234  0.1613  1.8448 -0.3738
  839MOL0     H13228   4.751   5.290  11.329 -0.3029  0.2928  2.7498
  839MOL0     H13229   4.390   5.841  11.288 -0.4794  0.6255 -0.0978
  839MOL0     H13230   4.153   5.884  11.320  0.7591  0.4926 -3.7058
  839MOL0     H13231   3.978   5.700  11.611  1.5249 -0.7072 -0.7529
  839MOL0     H13232   4.026   5.870  11.555 -0.9450  0.7953  1.6022
  839MOL0     H13233   3.830   5.862  11.666  4.0844 -1.0681  0.7896
  839MOL0     H13234   3.795   5.911  11.492 -3.0511 -1.8751 -1.0307
  839MOL0     H13235   3.725   5.653  11.631 -3.7659  0.8449  0.8290
  839MOL0     H13236   3.720   5.663  11.450  0.9265 -0.5208  0.1911
  839MOL0     H13237   3.585   5.830  11.677 -1.5940 -1.5281  0.2730
  839MOL0     H13238   3.536   5.846  11.510 -0.5621 -1.3271 -1.3081
  839MOL0     H13239   3.496   5.597  11.671 -0.8178 -2.0185 -1.7072
  839MOL0     H13240   3.477   5.607  11.497 -1.6649 -1.7106  0.7684
  839MOL0     H13241   3.325   5.765  11.701  1.0982 -1.5225  0.8725
  839MOL0     H13242   3.303   5.785  11.529  0.4372  0.5304  0.3065
  839MOL0     H13243   3.263   5.510  11.636 -0.9510 -0.0943 -0.2685
  839MOL0     H13244   3.234   5.587  11.476 -0.3172  0.7834 -0.8342
  839MOL0     H13245   3.074   5.746  11.582 -0.8423  0.1628  0.9964
  839MOL0     H13246   3.102   5.676  11.737  0.3072  2.2133 -0.6348
  839MOL0     H13247   4.089   5.483  11.429 -1.7822  1.4377  1.7941
  839MOL0     H13248   4.328   5.428  11.393  3.3899  1.1985 -2.1470
  839MOL0     H13249   4.827   5.813  11.497 -0.8447 -1.8224  1.6827
  839MOL0     H13250   5.064   5.748  11.481  0.5418 -1.4963  1.2943
  839MOL0     H13251   6.523   5.951  10.847 -1.2090 -2.7150 -0.8559
  839MOL0     H13252   6.654   6.056  10.659 -0.2157 -0.3268  1.7870
  839MOL0     H13253   6.813   5.852  10.145  0.0519 -1.5115  3.6977
  839MOL0     H13254   6.928   5.992   9.970 -0.4258 -3.3950  0.8952
  839MOL0     H13255   7.061   6.399   9.899  0.2787  1.4859  0.8942
  839MOL0     H13256   6.994   6.416  10.063  1.0843 -0.7521  0.4848
  839MOL0     H13257   7.263   6.296   9.977 -1.5271 -2.9966  1.3113
  839MOL0     H13258   7.211   6.339  10.142 -1.5172 -0.4062 -0.1224
  839MOL0     H13259   7.194   6.556  10.113  1.1769 -2.8459  2.3715
  839MOL0     H13260   7.232   6.552   9.943 -0.2745 -1.6387 -0.2688
  839MOL0     H13261   7.423   6.626  10.082  1.4132 -0.2074 -1.3974
  839MOL0     H13262   7.464   6.488   9.985  0.4112 -2.2768  1.7087
  839MOL0     H13263   7.528   6.368  10.382  1.2031  3.2249  0.4395
  839MOL0     H13264   7.024   6.290  10.256  1.2660  0.1900 -1.5225
  839MOL0     H13265   6.943   6.156  10.436 -0.3009  0.3918  0.5872
  840MOL0     O13266   4.415   6.728   3.441 -0.0745 -0.0913 -0.5746
  840MOL0     C13267   4.461   6.621   3.471  0.6202  1.0701  0.2750
  840MOL0     O13268   4.390   6.521   3.518  0.8916  0.0118 -0.2302
  840MOL0     C13269   4.253   6.531   3.513 -0.0421 -0.1138  0.2927
  840MOL0     C13270   4.183   6.630   3.591 -0.3650  0.1459  1.0140
  840MOL0     C13271   4.044   6.656   3.576  0.4729 -0.2372  1.1404
  840MOL0     C13272   3.966   6.571   3.491 -0.1416 -0.5064 -0.1084
  840MOL0     O13273   3.832   6.595   3.474 -0.0029 -0.2262 -0.2711
  840MOL0     C13274   3.758   6.546   3.364 -0.7022  1.1906 -0.2365
  840MOL0     C13275   3.620   6.616   3.371 -0.3248  0.0708  0.2132
  840MOL0     C13276   3.512   6.523   3.311  0.6115  0.2710  0.3379
  840MOL0     C13277   3.392   6.610   3.259  0.1533  0.5515 -0.0548
  840MOL0     C13278   3.294   6.528   3.172  0.7374 -1.0181  0.1718
  840MOL0     C13279   3.172   6.621   3.144  0.3403 -0.3449  0.6608
  840MOL0     C13280   3.057   6.547   3.085 -0.0667  0.2062  0.1807
  840MOL0     C13281   2.938   6.640   3.051 -0.4861  0.4905 -0.5716
  840MOL0     N13282   2.827   6.567   2.995  0.2885  0.3848 -0.7208
  840MOL0     C13283   2.815   6.503   2.879  0.6888  0.0531 -0.1799
  840MOL0     C13284   2.687   6.465   2.862  0.3483  0.7336  1.2283
  840MOL0     C13285   2.629   6.391   2.750 -0.4900 -0.3859  0.2231
  840MOL0     C13286   2.477   6.357   2.758 -0.5392  0.6033 -0.4600
  840MOL0     C13287   2.386   6.469   2.709 -0.4767  0.3772  0.3068
  840MOL0     C13288   2.367   6.477   2.553 -0.2357 -0.1649 -0.6524
  840MOL0     O13289   2.288   6.371   2.518  0.0499  0.1063  0.2967
  840MOL0     C13290   2.151   6.393   2.497 -0.3794  0.1132 -0.4277
  840MOL0     C13291   2.072   6.296   2.442  0.1944  0.3894 -0.2775
  840MOL0     C13292   1.933   6.303   2.451 -0.0768  0.2204  0.2852
  840MOL0     C13293   1.853   6.175   2.410 -1.0289 -0.1968 -0.3533
  840MOL0     C13294   1.872   6.413   2.503 -0.2622  0.2551 -0.0888
  840MOL0     C13295   1.728   6.426   2.509  0.2535  0.2010 -0.6196
  840MOL0     O13296   1.655   6.325   2.553  0.6497  0.6851 -0.4133
  840MOL0     C13297   1.521   6.329   2.582 -0.6360 -0.3204 -0.3079
  840MOL0     C13298   1.454   6.436   2.647 -0.6432 -0.6524 -0.3843
  840MOL0     C13299   1.317   6.428   2.678 -0.8200  1.0386  0.3008
  840MOL0     C13300   1.246   6.312   2.643 -0.2795 -0.7621  0.1546
  840MOL0     O13301   1.110   6.308   2.675 -0.1327  0.4252  0.3108
  840MOL0     C13302   1.049   6.181   2.651 -0.0289  0.5672  0.1974
  840MOL0     C13303   0.909   6.187   2.695 -0.1098 -0.1119 -0.7874
  840MOL0     C13304   0.825   6.294   2.633  0.0339 -0.5222  0.3935
  840MOL0     C13305   0.813   6.267   2.480  0.3253 -0.1061 -0.6491
  840MOL0     C13306   0.704   6.350   2.412 -0.3168 -0.4050 -0.1467
  840MOL0     C13307   0.742   6.499   2.405 -0.4856  0.0505 -0.3784
  840MOL0     C13308   0.631   6.586   2.338  0.0937 -0.3751 -0.2735
  840MOL0     C13309   0.547   6.652   2.443 -0.1887 -0.1924 -0.5361
  840MOL0    Cl13310   0.630   6.793   2.511 -0.0253 -0.2791  0.1493
  840MOL0     C13311   1.312   6.213   2.566  0.5385  0.5504 -0.3395
  840MOL0     C13312   1.444   6.221   2.534  0.0551  0.1838 -0.5847
  840MOL0     O13313   1.690   6.538   2.496 -0.1558  0.5433  0.5454
  840MOL0     C13314   1.953   6.519   2.541 -0.8895  0.2250  1.0917
  840MOL0     C13315   2.091   6.510   2.544  0.8723 -1.0133  0.9824
  840MOL0     N13316   2.623   6.510   2.982  0.5788 -0.0758  0.3326
  840MOL0     N13317   2.705   6.569   3.057 -0.8627 -0.2244  0.2654
  840MOL0     C13318   4.035   6.469   3.416  0.3199  0.6195 -0.6822
  840MOL0     C13319   4.179   6.453   3.425  0.0319 -0.2975  1.1391
  840MOL0     C13320   4.601   6.602   3.433  0.6883  0.4509  0.4591
  840MOL0     C13321   4.689   6.705   3.412 -0.0746 -0.4048  0.6166
  840MOL0     C13322   4.827   6.687   3.382 -1.6461 -0.0442 -0.6138
  840MOL0     C13323   4.882   6.558   3.389  0.5935 -0.2749  0.1994
  840MOL0     O13324   5.011   6.527   3.349  0.1617 -0.2200  0.5334
  840MOL0     C13325   5.099   6.623   3.303  0.3936  0.0687  0.0828
  840MOL0     C13326   5.224   6.550   3.249 -0.0458  0.1142 -0.3878
  840MOL0     C13327   5.272   6.440   3.344 -0.7268  0.2967 -0.7408
  840MOL0     C13328   5.355   6.323   3.289  0.3310 -0.8396  0.7985
  840MOL0     C13329   5.493   6.370   3.264 -0.4937 -0.2447 -0.5522
  840MOL0     C13330   5.600   6.406   3.223 -0.0066 -0.6836 -0.7518
  840MOL0     C13331   4.791   6.460   3.421  0.7680 -0.0376  0.2520
  840MOL0     C13332   4.657   6.476   3.442 -0.7814  0.3064  0.0205
  840MOL0     H13333   4.233   6.690   3.666  0.4970  0.0989  0.4887
  840MOL0     H13334   3.989   6.723   3.641 -1.6224 -0.3449 -0.4347
  840MOL0     H13335   3.802   6.568   3.266  0.3234  0.7493  0.1100
  840MOL0     H13336   3.749   6.438   3.380  1.7312  0.9561 -0.1687
  840MOL0     H13337   3.592   6.630   3.476 -1.4073 -0.9989  0.0931
  840MOL0     H13338   3.631   6.710   3.317 -0.2863 -1.3537 -2.4462
  840MOL0     H13339   3.561   6.468   3.231 -3.4223 -1.1235 -1.4324
  840MOL0     H13340   3.480   6.448   3.383  0.1371 -0.4406 -0.5938
  840MOL0     H13341   3.349   6.641   3.354 -1.4967 -0.6858 -0.3619
  840MOL0     H13342   3.430   6.699   3.209 -1.0184  1.7955  1.1926
  840MOL0     H13343   3.340   6.510   3.074  1.1036 -0.8885  0.3182
  840MOL0     H13344   3.264   6.431   3.212  0.8541 -0.6885  1.0774
  840MOL0     H13345   3.142   6.674   3.235 -1.2377 -0.0364 -0.0075
  840MOL0     H13346   3.198   6.701   3.074  1.6643 -0.9296  0.4560
  840MOL0     H13347   3.090   6.497   2.993  0.3510  0.0066  0.4376
  840MOL0     H13348   3.031   6.466   3.154 -0.6980 -1.0263 -1.4240
  840MOL0     H13349   2.961   6.721   2.981 -2.3040  3.3030  1.8685
  840MOL0     H13350   2.910   6.691   3.144 -0.9768 -2.0471  0.7547
  840MOL0     H13351   2.891   6.489   2.803  1.6125  2.1242  0.2924
  840MOL0     H13352   2.651   6.448   2.660 -0.3562  1.0656  1.1398
  840MOL0     H13353   2.683   6.295   2.750 -1.7761 -1.1396  0.8588
  840MOL0     H13354   2.449   6.337   2.862  1.1026  0.5460 -0.0124
  840MOL0     H13355   2.465   6.280   2.682 -0.6282  1.1223 -0.9853
  840MOL0     H13356   2.422   6.568   2.741  1.0858  0.6534 -2.0794
  840MOL0     H13357   2.289   6.451   2.756 -0.4557 -0.8289 -0.0992
  840MOL0     H13358   2.462   6.461   2.500 -1.0908 -0.8672 -2.0435
  840MOL0     H13359   2.332   6.578   2.526 -0.1845  0.3090  0.9828
  840MOL0     H13360   2.114   6.200   2.411  2.0538  0.0080  2.9423
  840MOL0     H13361   1.837   6.131   2.509  0.3119 -2.4954 -1.0931
  840MOL0     H13362   1.760   6.194   2.355 -0.1674 -0.6569 -2.0311
  840MOL0     H13363   1.908   6.103   2.349 -1.9741 -0.1628 -1.2815
  840MOL0     H13364   1.505   6.529   2.671  0.3402 -1.0423 -0.9140
  840MOL0     H13365   1.248   6.499   2.724 -1.2611  2.3533 -2.2094
  840MOL0     H13366   1.048   6.152   2.545 -0.1706  1.9052 -0.1951
  840MOL0     H13367   1.107   6.097   2.690 -0.9789 -1.5567 -2.5801
  840MOL0     H13368   0.863   6.095   2.659 -1.0808 -0.8626  2.1226
  840MOL0     H13369   0.889   6.190   2.803 -1.2933  1.6837 -1.0149
  840MOL0     H13370   0.865   6.395   2.644 -0.5556 -0.2035 -0.2818
  840MOL0     H13371   0.731   6.298   2.689  0.2024 -0.9176  0.7120
  840MOL0     H13372   0.903   6.271   2.419 -1.1653  1.6040 -2.9235
  840MOL0     H13373   0.783   6.162   2.474  3.6736 -1.8081  4.9728
  840MOL0     H13374   0.613   6.337   2.472 -0.3174  3.5286  0.9966
  840MOL0     H13375   0.687   6.323   2.307  0.0979 -4.1701  0.6051
  840MOL0     H13376   0.775   6.534   2.503  0.5766 -1.5811 -0.1251
  840MOL0     H13377   0.823   6.507   2.333 -1.9376  1.0889 -1.9811
  840MOL0     H13378   0.566   6.528   2.271  1.9767  0.3774 -2.8834
  840MOL0     H13379   0.676   6.674   2.292  1.6199 -0.1355  1.5863
  840MOL0     H13380   0.535   6.588   2.531  0.6226 -1.0578 -1.0393
  840MOL0     H13381   0.449   6.683   2.405  1.3055  1.1112 -3.7200
  840MOL0     H13382   1.264   6.125   2.525  1.3680 -0.0858  0.0229
  840MOL0     H13383   1.488   6.135   2.485 -1.6067  0.1569 -2.1341
  840MOL0     H13384   1.920   6.610   2.590  2.4233  0.9925  2.1497
  840MOL0     H13385   2.144   6.594   2.587  1.3167  0.5261 -2.2506
  840MOL0     H13386   3.982   6.425   3.332 -1.3220  1.7735 -0.3177
  840MOL0     H13387   4.227   6.376   3.365  3.3584  1.4539  1.2774
  840MOL0     H13388   4.655   6.807   3.420  0.8410 -0.0192 -0.1337
  840MOL0     H13389   4.887   6.775   3.363  0.0114 -1.3985 -2.0416
  840MOL0     H13390   5.060   6.675   3.216  1.2768 -1.5586 -1.3599
  840MOL0     H13391   5.130   6.695   3.379 -3.4403 -0.3979  2.3529
  840MOL0     H13392   5.306   6.618   3.226 -1.6682  1.8848 -1.2771
  840MOL0     H13393   5.195   6.518   3.148  1.2324  1.5558 -1.2587
  840MOL0     H13394   5.195   6.385   3.399 -1.4162  0.2077 -1.7535
  840MOL0     H13395   5.333   6.497   3.415  1.0590  1.4889 -3.0952
  840MOL0     H13396   5.307   6.285   3.198 -1.2238  1.2073  0.7109
  840MOL0     H13397   5.360   6.239   3.359 -0.1823  1.0527  3.2225
  840MOL0     H13398   5.685   6.456   3.184 -1.0334  1.2065 -0.6809
  840MOL0     H13399   4.830   6.359   3.420  1.7334  0.3013 -1.6950
  840MOL0     H13400   4.588   6.392   3.449 -0.1550 -0.1697  0.6529
  841MOL0     O13401  11.012  11.086   8.987  0.2297 -0.6546  0.1759
  841MOL0     C13402  11.035  10.989   8.915 -0.3652 -0.0713 -1.1253
  841MOL0     O13403  10.940  10.900   8.864  0.4961  0.3849  0.6827
  841MOL0     C13404  10.801  10.918   8.855 -0.1997  0.1806  0.0306
  841MOL0     C13405  10.727  11.002   8.939  0.0755  0.3335  0.0867
  841MOL0     C13406  10.587  10.996   8.922  0.2072 -0.3004 -0.5345
  841MOL0     C13407  10.519  10.900   8.850  0.0801  0.1336  0.4417
  841MOL0     O13408  10.382  10.876   8.838  0.5932  0.5404 -0.0855
  841MOL0     C13409  10.294  10.939   8.932 -0.2180  0.1086 -0.2844
  841MOL0     C13410  10.151  10.907   8.894 -0.9703  0.6504 -0.1935
  841MOL0     C13411  10.131  10.765   8.854 -0.2453 -0.0744 -0.0367
  841MOL0     C13412   9.981  10.729   8.845 -0.9413 -0.6542 -0.5828
  841MOL0     C13413   9.941  10.586   8.812  0.4609 -0.6662  0.4466
  841MOL0     C13414   9.806  10.552   8.876  0.2566  0.2476 -0.5110
  841MOL0     C13415   9.684  10.621   8.808  0.4611 -0.0188 -0.0239
  841MOL0     C13416   9.554  10.544   8.850 -0.0704  0.2002  0.1069
  841MOL0     N13417   9.512  10.573   8.987  0.0609  0.2408 -0.7679
  841MOL0     C13418   9.443  10.688   9.025 -0.0002 -1.0384  0.8785
  841MOL0     C13419   9.379  10.659   9.140 -0.1051  0.4034  0.0027
  841MOL0     C13420   9.285  10.747   9.222 -0.0625  0.3405  0.1890
  841MOL0     C13421   9.144  10.715   9.178  0.2437 -0.0588  0.1861
  841MOL0     C13422   9.046  10.825   9.215  0.2026  0.6019  0.3040
  841MOL0     C13423   8.905  10.772   9.223  0.3351  0.3174  0.2868
  841MOL0     O13424   8.867  10.715   9.096 -0.3716 -0.1560 -0.2531
  841MOL0     C13425   8.732  10.713   9.072 -0.3191  0.3529  0.2844
  841MOL0     C13426   8.707  10.691   8.940  0.5746  0.8457  0.1315
  841MOL0     C13427   8.569  10.686   8.897 -0.1940 -0.4185 -0.6116
  841MOL0     C13428   8.555  10.662   8.749 -0.2171 -0.5075 -0.1390
  841MOL0     C13429   8.460  10.711   8.986  0.5792 -0.6701 -0.1658
  841MOL0     C13430   8.313  10.721   8.947 -0.6201  0.4885  0.2555
  841MOL0     O13431   8.237  10.724   9.064 -0.6593  0.6778 -0.0359
  841MOL0     C13432   8.099  10.718   9.033 -1.0947 -0.2557  0.0755
  841MOL0     C13433   8.030  10.833   8.986  0.4427 -0.4933 -1.0506
  841MOL0     C13434   7.892  10.832   8.964  0.0824 -0.0346  0.0800
  841MOL0     C13435   7.819  10.722   8.991 -0.4196  0.6699 -0.2725
  841MOL0     O13436   7.679  10.728   8.969 -0.5667  0.2948  0.5131
  841MOL0     C13437   7.602  10.626   9.021  0.0541  0.1834 -0.4245
  841MOL0     C13438   7.458  10.660   9.030 -0.2496 -0.3767 -0.4619
  841MOL0     C13439   7.380  10.528   9.066  0.1784 -0.2524 -0.2276
  841MOL0     C13440   7.379  10.518   9.222 -0.1859  0.7955  0.5150
  841MOL0     C13441   7.296  10.389   9.260 -0.0091  0.5875  0.0952
  841MOL0     C13442   7.151  10.388   9.222 -0.3258  0.9606  0.1886
  841MOL0     C13443   7.066  10.436   9.336  0.3869 -0.5135 -0.3345
  841MOL0     C13444   6.920  10.470   9.292 -0.0771 -0.6409 -0.6153
  841MOL0    Cl13445   6.839  10.331   9.225  0.0376 -0.1136 -0.2304
  841MOL0     C13446   7.885  10.605   9.026 -0.1697 -0.1541 -1.0938
  841MOL0     C13447   8.022  10.608   9.054 -0.4513  0.7488  0.3103
  841MOL0     O13448   8.274  10.712   8.829  0.9446  0.6013 -0.4690
  841MOL0     C13449   8.505  10.720   9.126  0.2472  0.5771  0.4511
  841MOL0     C13450   8.635  10.723   9.168 -0.1693 -0.0687  0.2762
  841MOL0     N13451   9.414  10.530   9.172 -0.2604 -0.3220 -0.9257
  841MOL0     N13452   9.487  10.478   9.083  0.0709 -0.1179  0.0592
  841MOL0     C13453  10.607  10.819   8.768  0.1695 -1.2228 -0.2092
  841MOL0     C13454  10.743  10.839   8.764  0.0307 -0.2928  0.2051
  841MOL0     C13455  11.183  10.969   8.898 -0.3553 -0.2308 -0.6721
  841MOL0     C13456  11.289  11.050   8.965  0.7567 -0.4617  1.1311
  841MOL0     C13457  11.429  11.031   8.939 -0.4698 -0.6679  0.1766
  841MOL0     C13458  11.469  10.929   8.843 -1.0260  0.2689  0.7141
  841MOL0     O13459  11.605  10.914   8.809 -0.4074  0.9448 -0.7983
  841MOL0     C13460  11.689  11.025   8.783 -0.4200  0.0335 -0.5828
  841MOL0     C13461  11.804  10.998   8.691  0.8323  0.2854 -0.5351
  841MOL0     C13462  11.757  10.915   8.560  0.6281  0.3095 -0.5847
  841MOL0     C13463  11.875  10.843   8.491  0.1035 -0.2995  0.0859
  841MOL0     C13464  11.832  10.792   8.357  0.1512 -0.9117 -0.1678
  841MOL0     C13465  11.813  10.739   8.246 -0.3286  1.2113  0.3937
  841MOL0     C13466  11.368  10.848   8.787  0.1468  1.0276 -0.3465
  841MOL0     C13467  11.229  10.869   8.807  0.3059  0.3055  0.4858
  841MOL0     H13468  10.773  11.057   9.020  1.7747  1.5962 -1.6400
  841MOL0     H13469  10.534  11.068   8.983  0.9615  0.1331 -0.3847
  841MOL0     H13470  10.320  10.896   9.029 -2.1006 -0.7599 -0.1332
  841MOL0     H13471  10.301  11.048   8.938  1.7107  0.0275 -0.2611
  841MOL0     H13472  10.090  10.939   8.979 -0.5510 -0.1068  0.4071
  841MOL0     H13473  10.116  10.971   8.813 -1.4465 -0.9522 -1.2896
  841MOL0     H13474  10.170  10.754   8.753  2.7235  1.0950  0.8710
  841MOL0     H13475  10.178  10.690   8.918 -0.9987 -2.6044 -2.2523
  841MOL0     H13476   9.929  10.763   8.935  1.9833  3.6298 -0.2154
  841MOL0     H13477   9.939  10.795   8.769 -0.1585 -0.0089 -0.4720
  841MOL0     H13478   9.947  10.575   8.704 -2.9025 -1.4923  0.2224
  841MOL0     H13479  10.016  10.526   8.865 -1.0346 -2.6185  0.4500
  841MOL0     H13480   9.796  10.446   8.848 -0.1745  0.9854 -3.5126
  841MOL0     H13481   9.805  10.575   8.983  2.8200  4.4090 -1.1486
  841MOL0     H13482   9.683  10.725   8.844  0.4731  0.0779 -0.2999
  841MOL0     H13483   9.688  10.640   8.700 -0.6437  0.3425 -0.0151
  841MOL0     H13484   9.557  10.437   8.828  0.5485  0.7630 -2.9405
  841MOL0     H13485   9.467  10.565   8.787  2.4538  1.7547 -3.1329
  841MOL0     H13486   9.429  10.785   8.979 -0.2528 -2.6774 -2.8038
  841MOL0     H13487   9.300  10.717   9.326  4.2926  0.2011 -0.3114
  841MOL0     H13488   9.306  10.853   9.205 -4.7777  1.6558  1.0916
  841MOL0     H13489   9.106  10.631   9.237 -1.1627  1.2911  1.2991
  841MOL0     H13490   9.146  10.705   9.069 -0.4425  2.8052 -0.1704
  841MOL0     H13491   9.044  10.906   9.142 -1.1309  1.7696  1.5727
  841MOL0     H13492   9.063  10.877   9.309  2.0155  2.0124 -0.7342
  841MOL0     H13493   8.837  10.851   9.256 -1.3312 -2.5464  4.7193
  841MOL0     H13494   8.890  10.693   9.298  2.7680 -2.4480 -1.9066
  841MOL0     H13495   8.798  10.673   8.884  1.7941  1.3424  1.8745
  841MOL0     H13496   8.505  10.748   8.703  2.0555 -0.5283 -2.9001
  841MOL0     H13497   8.649  10.649   8.694 -0.4008  0.2639 -0.6488
  841MOL0     H13498   8.483  10.580   8.742 -2.8707  1.8209 -3.2781
  841MOL0     H13499   8.076  10.932   8.983  1.3583 -0.8850 -0.3695
  841MOL0     H13500   7.834  10.916   8.926 -0.5989  0.0649  1.3031
  841MOL0     H13501   7.609  10.535   8.960 -1.7576 -2.2676  2.6662
  841MOL0     H13502   7.629  10.607   9.125 -4.5019 -1.0738  0.7863
  841MOL0     H13503   7.457  10.738   9.106  2.7112 -2.0930  1.5735
  841MOL0     H13504   7.425  10.699   8.934 -0.7653 -0.8463 -0.4803
  841MOL0     H13505   7.418  10.443   9.008 -1.3426 -0.3187 -1.1975
  841MOL0     H13506   7.279  10.548   9.029 -1.2812 -1.5419  2.7221
  841MOL0     H13507   7.483  10.508   9.255 -1.1723 -1.3328  3.4413
  841MOL0     H13508   7.327  10.608   9.255 -1.7459  0.4112 -0.7797
  841MOL0     H13509   7.307  10.361   9.365 -0.1665  2.7547  0.7546
  841MOL0     H13510   7.357  10.312   9.212 -1.9015 -0.1053 -1.3175
  841MOL0     H13511   7.128  10.450   9.135 -1.1825 -0.4083 -0.5923
  841MOL0     H13512   7.135  10.281   9.206  1.4218  0.0661  3.5288
  841MOL0     H13513   7.108  10.525   9.383  2.3077 -2.3409  1.6561
  841MOL0     H13514   7.070  10.368   9.421  2.2531 -0.5374 -0.4067
  841MOL0     H13515   6.921  10.556   9.223  2.9818  0.1933  0.3072
  841MOL0     H13516   6.859  10.506   9.375  1.3623  1.2694 -0.2953
  841MOL0     H13517   7.832  10.512   9.045 -1.5053  0.9368  0.9240
  841MOL0     H13518   8.072  10.522   9.096 -2.4846 -1.0622 -0.7929
  841MOL0     H13519   8.426  10.726   9.201  0.7382 -1.5272  1.1934
  841MOL0     H13520   8.660  10.737   9.273  2.1369 -0.4830 -0.1567
  841MOL0     H13521  10.576  10.751   8.689  1.0501 -1.7623 -0.0968
  841MOL0     H13522  10.801  10.785   8.689  2.6331  1.4263  0.8500
  841MOL0     H13523  11.253  11.125   9.035  0.0735  0.3355 -0.0375
  841MOL0     H13524  11.499  11.094   8.990  0.7059 -1.7887  0.0067
  841MOL0     H13525  11.640  11.109   8.734  0.2434 -0.3481 -1.9514
  841MOL0     H13526  11.730  11.058   8.879 -3.5117 -1.3918  1.3866
  841MOL0     H13527  11.871  10.928   8.742  2.8755 -0.3260 -3.7341
  841MOL0     H13528  11.851  11.094   8.666 -1.0152  2.0477  2.2422
  841MOL0     H13529  11.719  10.997   8.497 -0.5884  1.2023  1.2195
  841MOL0     H13530  11.676  10.845   8.581 -1.2462  2.4310 -0.3190
  841MOL0     H13531  11.920  10.764   8.551 -0.4574 -0.3213  0.4901
  841MOL0     H13532  11.947  10.924   8.474 -1.0641  0.6112 -0.7421
  841MOL0     H13533  11.811  10.682   8.155  0.8768  0.5855  0.7293
  841MOL0     H13534  11.409  10.764   8.731 -1.5803 -0.9147  1.1870
  841MOL0     H13535  11.161  10.803   8.754  2.1199 -0.7537 -0.6136
  842MOL0     O13536   2.676   8.392   8.037 -0.1098  0.2276  0.0199
  842MOL0     C13537   2.666   8.280   8.064 -0.3255  0.3518  0.8224
  842MOL0     O13538   2.553   8.212   8.082  0.2911  0.4282  0.2849
  842MOL0     C13539   2.429   8.262   8.055  0.2057 -1.2123  0.1941
  842MOL0     C13540   2.321   8.194   8.106 -0.0973  0.2559 -0.8579
  842MOL0     C13541   2.182   8.245   8.100 -0.1300  0.0446  0.8039
  842MOL0     C13542   2.159   8.363   8.037 -0.3606 -0.8012  0.4994
  842MOL0     O13543   2.031   8.404   8.047 -0.6643  0.2380 -0.4171
  842MOL0     C13544   1.999   8.544   8.013  0.1876 -0.3453  0.9949
  842MOL0     C13545   1.877   8.575   8.092  0.7990 -0.0599  0.2172
  842MOL0     C13546   1.837   8.720   8.085  0.1569 -0.7718  0.1278
  842MOL0     C13547   1.684   8.729   8.110  0.2208 -0.6328 -0.2810
  842MOL0     C13548   1.628   8.872   8.097  0.6343 -0.0077 -0.6228
  842MOL0     C13549   1.472   8.866   8.098  0.1317  0.3229  0.1202
  842MOL0     C13550   1.410   8.999   8.031  0.5796 -0.3974 -0.4291
  842MOL0     C13551   1.432   9.032   7.884 -0.0607  0.8429  0.6500
  842MOL0     N13552   1.386   8.922   7.794 -0.1418  0.0848  0.3666
  842MOL0     C13553   1.290   8.825   7.815  0.1143 -0.1267  0.3626
  842MOL0     C13554   1.276   8.753   7.702 -1.2170 -0.0244  0.4817
  842MOL0     C13555   1.183   8.641   7.668  0.0920 -0.3372  0.1965
  842MOL0     C13556   1.034   8.686   7.659 -0.5295  0.3843 -0.1737
  842MOL0     C13557   0.960   8.571   7.577 -0.1208 -0.2034  0.5448
  842MOL0     C13558   0.809   8.610   7.532 -0.0946  0.1310 -0.5851
  842MOL0     O13559   0.747   8.533   7.431  0.4341 -0.7850 -0.7321
  842MOL0     C13560   0.624   8.562   7.376 -0.1492 -0.6597  0.2329
  842MOL0     C13561   0.543   8.669   7.410  0.0323 -0.2896  0.1913
  842MOL0     C13562   0.412   8.681   7.363  0.3076  0.7868  0.5324
  842MOL0     C13563   0.327   8.803   7.406 -0.3109  0.1397 -1.0148
  842MOL0     C13564   0.361   8.579   7.278 -0.1888  0.1540  0.1921
  842MOL0     C13565   0.219   8.569   7.224 -0.7269 -0.5932  0.6746
  842MOL0     O13566   0.176   8.661   7.130  0.2096 -0.2687 -0.5724
  842MOL0     C13567   0.042   8.653   7.097 -0.0828  0.3454  0.7168
  842MOL0     C13568  -0.062   8.718   7.170 -0.4781 -0.3891 -0.3006
  842MOL0     C13569  -0.195   8.705   7.128 -0.1227 -0.6467  0.7688
  842MOL0     C13570  -0.226   8.618   7.017  0.8473 -0.2896  0.2996
  842MOL0     O13571  -0.364   8.608   6.991 -0.4310 -0.5291 -0.0141
  842MOL0     C13572  -0.417   8.485   6.939 -0.5311  0.4469  0.6830
  842MOL0     C13573  -0.568   8.505   6.929 -0.1763  0.3241 -0.0333
  842MOL0     C13574  -0.641   8.381   6.858 -0.1180  0.1760 -0.4120
  842MOL0     C13575  -0.787   8.407   6.837  0.1988 -0.9519  0.7706
  842MOL0     C13576  -0.865   8.294   6.763 -0.8982  0.2016  0.2723
  842MOL0     C13577  -1.012   8.333   6.754  0.1674  0.0729 -0.3833
  842MOL0     C13578  -1.094   8.217   6.700 -0.0729 -0.0400  0.1503
  842MOL0     C13579  -1.125   8.110   6.806  0.3062  0.9284  0.6913
  842MOL0    Cl13580  -1.220   7.970   6.727 -0.0019 -0.0369 -0.2407
  842MOL0     C13581  -0.124   8.554   6.946  0.1877  1.0778  0.4560
  842MOL0     C13582   0.011   8.572   6.986 -0.5007  0.4664 -0.4351
  842MOL0     O13583   0.143   8.489   7.280 -0.3950  0.0437 -0.1053
  842MOL0     C13584   0.449   8.473   7.242 -0.8530  0.1606 -0.2860
  842MOL0     C13585   0.580   8.462   7.289  0.1591  0.3485  0.4039
  842MOL0     N13586   1.365   8.804   7.607  0.1127  0.1098  0.8555
  842MOL0     N13587   1.426   8.906   7.666 -0.1362 -0.1751  0.5590
  842MOL0     C13588   2.263   8.429   7.974 -0.2272  0.7927 -0.3010
  842MOL0     C13589   2.396   8.379   7.977 -0.2595 -0.1951 -0.0446
  842MOL0     C13590   2.783   8.203   8.086  0.0783 -0.4042 -0.1530
  842MOL0     C13591   2.770   8.068   8.125  0.1235 -0.0464 -0.3535
  842MOL0     C13592   2.890   7.993   8.134 -0.2240 -0.9222 -0.3379
  842MOL0     C13593   3.017   8.052   8.141  0.2034 -0.1934 -0.8044
  842MOL0     O13594   3.135   7.994   8.155  0.0211  0.5815 -0.2826
  842MOL0     C13595   3.143   7.857   8.114 -0.9342  0.4033 -0.0813
  842MOL0     C13596   3.288   7.788   8.100 -0.4856 -0.6209  0.3391
  842MOL0     C13597   3.388   7.859   8.011  0.0208 -0.2595 -0.4594
  842MOL0     C13598   3.533   7.798   8.028 -0.2804  0.1045 -0.6527
  842MOL0     C13599   3.620   7.833   7.918  0.1682 -0.8378  0.5384
  842MOL0     C13600   3.689   7.858   7.817 -0.1035  0.4428 -0.0135
  842MOL0     C13601   3.023   8.183   8.116 -0.5320 -0.7296  0.3367
  842MOL0     C13602   2.912   8.261   8.097  0.1989 -0.6166 -0.1567
  842MOL0     H13603   2.327   8.095   8.149 -0.4514  0.1365 -1.0776
  842MOL0     H13604   2.096   8.186   8.131 -0.9175  0.8227  0.1783
  842MOL0     H13605   2.078   8.613   8.044  0.7141 -0.1877 -0.5839
  842MOL0     H13606   1.976   8.556   7.906 -2.2656 -2.2357  1.2393
  842MOL0     H13607   1.799   8.511   8.050  1.3754  0.2121 -1.3646
  842MOL0     H13608   1.893   8.542   8.195  1.2387 -3.2500 -0.7613
  842MOL0     H13609   1.892   8.765   8.168  1.3834 -2.1225  0.0972
  842MOL0     H13610   1.871   8.764   7.991  0.7029 -1.9650 -0.2575
  842MOL0     H13611   1.631   8.674   8.031  3.0433  0.2772 -3.0285
  842MOL0     H13612   1.662   8.686   8.208 -2.4467  0.9704 -0.0728
  842MOL0     H13613   1.673   8.932   8.176  1.7319  0.0172 -1.2491
  842MOL0     H13614   1.665   8.912   8.003 -0.1446  1.9723 -0.1391
  842MOL0     H13615   1.440   8.782   8.035  3.0290 -0.3634 -0.5655
  842MOL0     H13616   1.429   8.845   8.196  0.1332  2.0731  0.5275
  842MOL0     H13617   1.302   9.013   8.039  0.5609 -1.0209  0.4994
  842MOL0     H13618   1.460   9.080   8.086 -1.2425 -0.0312  0.7564
  842MOL0     H13619   1.539   9.047   7.869  0.1009 -1.3918 -0.7455
  842MOL0     H13620   1.372   9.121   7.863 -1.0662 -0.3501 -1.8939
  842MOL0     H13621   1.228   8.800   7.900  0.4518 -1.9005  0.1156
  842MOL0     H13622   1.219   8.594   7.576 -1.1308 -0.3959 -0.2651
  842MOL0     H13623   1.188   8.565   7.748  0.0309  0.3463  0.8618
  842MOL0     H13624   1.022   8.783   7.609  3.3488  1.4558  0.6759
  842MOL0     H13625   0.998   8.686   7.762 -0.0576 -1.4200  0.0204
  842MOL0     H13626   0.967   8.480   7.636  0.4157  1.4486  3.2009
  842MOL0     H13627   1.025   8.556   7.490  1.6019  0.4263  1.6827
  842MOL0     H13628   0.815   8.708   7.482 -3.6526 -0.3118 -2.2371
  842MOL0     H13629   0.752   8.635   7.622 -1.4259 -3.1646 -0.3771
  842MOL0     H13630   0.568   8.721   7.502  1.1179 -4.5285  2.5583
  842MOL0     H13631   0.300   8.793   7.512  0.3046  0.4976 -0.8217
  842MOL0     H13632   0.379   8.898   7.396 -2.4525  1.7650  1.8131
  842MOL0     H13633   0.241   8.817   7.339  1.1011  2.6332 -2.4493
  842MOL0     H13634  -0.039   8.773   7.261 -0.3317 -1.0757  0.0779
  842MOL0     H13635  -0.272   8.748   7.192  0.6665  2.4701 -0.2170
  842MOL0     H13636  -0.381   8.468   6.838  0.1800 -3.0979  1.4115
  842MOL0     H13637  -0.398   8.402   7.008 -0.6497  0.6585  0.9736
  842MOL0     H13638  -0.617   8.515   7.026  0.7151 -1.2983  0.6246
  842MOL0     H13639  -0.585   8.598   6.873  0.3003  0.4172 -0.0256
  842MOL0     H13640  -0.634   8.296   6.926  2.7404  1.9128  1.6863
  842MOL0     H13641  -0.594   8.369   6.760  3.4927  0.4904  1.1255
  842MOL0     H13642  -0.835   8.424   6.933  0.5317 -2.5650  1.2583
  842MOL0     H13643  -0.794   8.501   6.783 -0.5652 -1.6687 -0.4295
  842MOL0     H13644  -0.855   8.200   6.817 -0.7109  1.3804  2.3615
  842MOL0     H13645  -0.828   8.277   6.661  0.4870 -2.9069  1.2119
  842MOL0     H13646  -1.049   8.352   6.855  1.0590 -1.6157  0.3006
  842MOL0     H13647  -1.031   8.423   6.695 -2.4196 -2.1244 -3.1863
  842MOL0     H13648  -1.045   8.164   6.618  1.5879  0.5557  0.7300
  842MOL0     H13649  -1.186   8.256   6.656  0.4778 -0.7968 -1.8170
  842MOL0     H13650  -1.187   8.160   6.880 -0.3708  1.1204  0.0065
  842MOL0     H13651  -1.033   8.071   6.852 -0.1313 -1.4551 -0.3062
  842MOL0     H13652  -0.153   8.486   6.867  0.3611  1.3781  0.1333
  842MOL0     H13653   0.078   8.513   6.924 -0.8179 -0.4050  0.0258
  842MOL0     H13654   0.421   8.391   7.176  2.6521 -2.0161  0.6845
  842MOL0     H13655   0.635   8.374   7.259 -1.3796  0.3275 -2.7412
  842MOL0     H13656   2.245   8.518   7.915 -0.3637  0.2480 -1.0899
  842MOL0     H13657   2.474   8.441   7.935 -0.2203  0.2232  0.6366
  842MOL0     H13658   2.671   8.025   8.122  0.1820 -0.1950 -0.1534
  842MOL0     H13659   2.868   7.887   8.144 -1.8680 -0.6745 -0.9381
  842MOL0     H13660   3.094   7.805   8.197 -0.3249  0.4552  0.3205
  842MOL0     H13661   3.091   7.844   8.019 -3.2421 -0.8493  1.2750
  842MOL0     H13662   3.272   7.685   8.067  2.2675 -0.5766 -1.4510
  842MOL0     H13663   3.328   7.783   8.202 -0.4708 -3.1905  0.2682
  842MOL0     H13664   3.408   7.962   8.042 -2.2049 -0.5051  2.2392
  842MOL0     H13665   3.350   7.876   7.910  0.9228  1.4115 -0.5576
  842MOL0     H13666   3.534   7.689   8.036  1.1457  0.1307 -0.2144
  842MOL0     H13667   3.568   7.834   8.125 -2.0749 -1.4399  0.6439
  842MOL0     H13668   3.754   7.897   7.741 -2.2307  2.0832 -1.1071
  842MOL0     H13669   3.119   8.229   8.099 -0.6138 -1.3489 -2.3201
  842MOL0     H13670   2.913   8.369   8.082 -1.5237 -0.7741 -1.8375
  843MOL0     O13671   1.097   7.891   6.993 -0.2540 -0.1723  0.0633
  843MOL0     C13672   1.170   7.983   6.959  0.3650  0.2243 -0.3547
  843MOL0     O13673   1.118   8.105   6.923  0.7416 -0.3397 -0.1616
  843MOL0     C13674   0.985   8.133   6.902  0.4836  0.4223 -0.7584
  843MOL0     C13675   0.890   8.038   6.846 -0.2436  0.0597  0.2020
  843MOL0     C13676   0.756   8.070   6.834 -0.0936 -0.8956  0.8385
  843MOL0     C13677   0.711   8.196   6.869  0.6339 -0.4253 -0.3340
  843MOL0     O13678   0.579   8.240   6.844  0.0222 -0.0210 -0.5917
  843MOL0     C13679   0.525   8.213   6.710  0.1700 -0.6492  0.0956
  843MOL0     C13680   0.413   8.309   6.687  0.2292  0.7155  0.1253
  843MOL0     C13681   0.331   8.278   6.560  0.4851 -0.4101 -0.0491
  843MOL0     C13682   0.218   8.383   6.546 -0.0961 -0.3993  0.7341
  843MOL0     C13683   0.128   8.332   6.439 -0.2862 -0.6529  0.6689
  843MOL0     C13684  -0.024   8.364   6.473 -0.0299  0.1702 -1.3137
  843MOL0     C13685  -0.047   8.512   6.480  0.8012 -0.1630 -0.3095
  843MOL0     C13686  -0.169   8.554   6.566  0.2455  0.2121 -0.2270
  843MOL0     N13687  -0.305   8.511   6.521  0.6551 -0.8968  0.5508
  843MOL0     C13688  -0.399   8.595   6.461 -0.7081 -0.0395 -0.2564
  843MOL0     C13689  -0.512   8.524   6.463 -0.4957 -0.0744  0.0552
  843MOL0     C13690  -0.642   8.581   6.419 -0.2592  0.0835 -0.1191
  843MOL0     C13691  -0.757   8.490   6.419  0.2258  0.2413 -0.0155
  843MOL0     C13692  -0.748   8.375   6.312 -0.1035  0.3951  0.2182
  843MOL0     C13693  -0.878   8.296   6.294 -0.3957 -0.5285  0.5472
  843MOL0     O13694  -0.961   8.372   6.205  0.2500 -0.0325 -0.9290
  843MOL0     C13695  -1.090   8.325   6.185  0.4037 -0.2765 -0.7194
  843MOL0     C13696  -1.152   8.218   6.255  0.0186 -0.7452 -0.5410
  843MOL0     C13697  -1.288   8.178   6.227  0.1096  0.6458  0.6392
  843MOL0     C13698  -1.339   8.076   6.325  0.1482 -0.0129  0.3636
  843MOL0     C13699  -1.356   8.249   6.124  0.0850  0.4779 -0.8576
  843MOL0     C13700  -1.495   8.231   6.095  0.3620  0.7817  0.3713
  843MOL0     O13701  -1.545   8.319   6.011  0.3815 -0.5811  1.4318
  843MOL0     C13702  -1.675   8.300   5.970  0.1370 -0.0435  0.4074
  843MOL0     C13703  -1.713   8.255   5.846  0.3239 -0.6986  0.6874
  843MOL0     C13704  -1.841   8.278   5.794 -1.1807  0.0301  0.1501
  843MOL0     C13705  -1.945   8.332   5.877 -0.7396  0.8716  0.6437
  843MOL0     O13706  -2.074   8.354   5.834 -0.0919  0.0443 -0.9191
  843MOL0     C13707  -2.107   8.293   5.701 -0.0062 -1.3413 -0.4124
  843MOL0     C13708  -2.258   8.310   5.681 -0.0570  0.1961 -0.6372
  843MOL0     C13709  -2.306   8.244   5.554  0.1335  0.5256 -0.5847
  843MOL0     C13710  -2.241   8.287   5.427 -0.4230 -0.3535  0.1251
  843MOL0     C13711  -2.281   8.419   5.374 -0.2071 -0.0774 -0.3313
  843MOL0     C13712  -2.418   8.420   5.304  0.8210  0.8156 -1.0228
  843MOL0     C13713  -2.464   8.571   5.282 -0.6270 -0.0417  0.7798
  843MOL0     C13714  -2.614   8.577   5.290 -0.1331  0.0624  0.5866
  843MOL0    Cl13715  -2.672   8.507   5.140  0.5362 -0.0483  0.1982
  843MOL0     C13716  -1.912   8.369   6.003 -0.4004  0.7477 -0.2582
  843MOL0     C13717  -1.779   8.357   6.048 -0.6679 -0.5285 -0.0287
  843MOL0     O13718  -1.561   8.142   6.151 -0.2166 -0.6695 -0.6425
  843MOL0     C13719  -1.282   8.339   6.052  0.5248 -0.8012 -1.1096
  843MOL0     C13720  -1.158   8.385   6.082 -0.1714  0.8704 -0.3180
  843MOL0     N13721  -0.488   8.404   6.512 -0.7001  0.4571  1.1552
  843MOL0     N13722  -0.359   8.393   6.548  0.4528  0.0315 -0.3608
  843MOL0     C13723   0.802   8.293   6.927  0.5410  0.4165  0.1058
  843MOL0     C13724   0.937   8.259   6.942 -0.2960  0.4409 -0.0260
  843MOL0     C13725   1.317   7.948   6.953  0.5750  0.4857 -0.1092
  843MOL0     C13726   1.357   7.815   6.932  0.2708 -0.4292  0.4263
  843MOL0     C13727   1.493   7.780   6.925  0.2902  0.2827  0.3535
  843MOL0     C13728   1.596   7.874   6.940  0.0910 -0.0263  1.4820
  843MOL0     O13729   1.728   7.843   6.918  0.1913 -0.3123 -0.4981
  843MOL0     C13730   1.775   7.730   6.843 -0.3844 -0.0987  0.7282
  843MOL0     C13731   1.779   7.609   6.929 -0.6253  0.3207  0.2534
  843MOL0     C13732   1.859   7.629   7.057  0.5029 -0.5909 -0.0770
  843MOL0     C13733   1.950   7.518   7.078 -0.0979  0.7277 -0.7794
  843MOL0     C13734   2.042   7.501   6.975 -0.7795  0.7213  0.1746
  843MOL0     C13735   2.118   7.483   6.885 -0.3665  0.6585 -0.4180
  843MOL0     C13736   1.554   8.012   6.944  0.1192 -0.7254 -0.7497
  843MOL0     C13737   1.412   8.042   6.949  0.1379 -1.2664 -0.2227
  843MOL0     H13738   0.926   7.946   6.801  1.3829  0.1288  1.2621
  843MOL0     H13739   0.687   8.004   6.782 -1.2793  0.8408  0.1479
  843MOL0     H13740   0.599   8.221   6.630  0.2042 -1.4277  0.0453
  843MOL0     H13741   0.494   8.109   6.715 -3.6264  0.2923 -0.5379
  843MOL0     H13742   0.348   8.309   6.774  1.6679 -0.1500  1.2460
  843MOL0     H13743   0.454   8.411   6.685  1.2877  0.3187 -2.4118
  843MOL0     H13744   0.404   8.283   6.479 -1.2611 -2.9131 -1.8977
  843MOL0     H13745   0.298   8.174   6.569  1.1695 -0.5002  2.2817
  843MOL0     H13746   0.168   8.375   6.643 -0.5406 -0.1284  0.5288
  843MOL0     H13747   0.255   8.485   6.537  1.4877 -0.8716  1.4734
  843MOL0     H13748   0.152   8.379   6.343 -0.2604  0.6924  1.3187
  843MOL0     H13749   0.140   8.225   6.419 -1.1669 -0.7251  0.4826
  843MOL0     H13750  -0.092   8.303   6.412  1.7390 -4.2501  0.7290
  843MOL0     H13751  -0.042   8.320   6.571  3.6725 -1.1126 -1.0572
  843MOL0     H13752   0.042   8.564   6.519  0.8705  0.2290 -0.9834
  843MOL0     H13753  -0.073   8.553   6.382  0.2746  1.2534  0.3848
  843MOL0     H13754  -0.160   8.662   6.582  0.5919  0.0842  0.5164
  843MOL0     H13755  -0.163   8.503   6.663 -1.8018  1.9729  0.9092
  843MOL0     H13756  -0.392   8.700   6.434  0.0205  0.7932  2.8364
  843MOL0     H13757  -0.664   8.662   6.489 -1.1872  0.8452 -1.2522
  843MOL0     H13758  -0.616   8.627   6.323  0.0126 -1.7559 -0.9711
  843MOL0     H13759  -0.847   8.552   6.409  0.0965 -0.1173 -1.2635
  843MOL0     H13760  -0.757   8.433   6.513 -2.4116 -2.9219 -1.7371
  843MOL0     H13761  -0.668   8.309   6.347 -0.6276 -1.0286 -1.1788
  843MOL0     H13762  -0.720   8.421   6.217 -0.0392 -0.2664 -0.0832
  843MOL0     H13763  -0.923   8.272   6.391  0.7483 -1.0742  0.9570
  843MOL0     H13764  -0.856   8.198   6.250  3.8856  0.4343  0.1066
  843MOL0     H13765  -1.095   8.164   6.330  1.0914  1.0128 -0.0308
  843MOL0     H13766  -1.256   8.037   6.385 -1.3614 -2.1271  1.2031
  843MOL0     H13767  -1.417   8.127   6.382 -2.8345 -1.7820 -1.8819
  843MOL0     H13768  -1.385   7.996   6.266  0.6203 -1.0066  1.3251
  843MOL0     H13769  -1.637   8.218   5.778  0.6958  1.2847 -0.0339
  843MOL0     H13770  -1.843   8.280   5.686  2.9740 -0.7997 -0.1012
  843MOL0     H13771  -2.054   8.345   5.621 -0.1249 -0.1016  0.2954
  843MOL0     H13772  -2.085   8.186   5.701  1.6612 -1.0220 -0.0459
  843MOL0     H13773  -2.312   8.259   5.761  0.4897  0.6934  0.0664
  843MOL0     H13774  -2.283   8.416   5.670  0.7774  0.4270 -0.3859
  843MOL0     H13775  -2.414   8.256   5.553  0.0554 -0.1943 -1.2753
  843MOL0     H13776  -2.288   8.138   5.573  1.0352  0.9305  1.0394
  843MOL0     H13777  -2.132   8.286   5.439 -0.1868 -0.8222 -1.7430
  843MOL0     H13778  -2.270   8.207   5.359 -1.5694  1.5209 -1.6888
  843MOL0     H13779  -2.208   8.457   5.302  0.4158  1.6081  1.1221
  843MOL0     H13780  -2.283   8.496   5.452  0.1910  0.7721 -1.1453
  843MOL0     H13781  -2.413   8.362   5.212  1.1275  0.3103 -0.6879
  843MOL0     H13782  -2.493   8.381   5.373 -1.5467  2.9426 -2.2283
  843MOL0     H13783  -2.426   8.590   5.181  1.9940 -0.8065  1.5178
  843MOL0     H13784  -2.427   8.652   5.345  0.4101  1.9426 -2.1733
  843MOL0     H13785  -2.645   8.681   5.285 -2.5386 -0.6237 -0.0162
  843MOL0     H13786  -2.655   8.532   5.381  0.5259 -1.6274  0.0924
  843MOL0     H13787  -1.983   8.410   6.075  0.6826  1.4244  0.4448
  843MOL0     H13788  -1.754   8.400   6.145 -1.5388  2.0069 -0.8387
  843MOL0     H13789  -1.317   8.395   5.965  4.4406  1.4425 -1.4855
  843MOL0     H13790  -1.108   8.457   6.018  0.0948  1.1073  0.1481
  843MOL0     H13791   0.761   8.388   6.960 -1.1046  0.5950 -2.2137
  843MOL0     H13792   1.000   8.336   6.986  0.0261 -1.9284  4.3148
  843MOL0     H13793   1.277   7.749   6.900 -0.6604  0.4615  0.8313
  843MOL0     H13794   1.503   7.675   6.898  0.0691  0.4199 -0.2646
  843MOL0     H13795   1.708   7.723   6.758  0.7541 -0.3929 -0.1622
  843MOL0     H13796   1.872   7.755   6.799  0.3939  0.3852  2.5765
  843MOL0     H13797   1.817   7.524   6.872 -1.6826  1.2871 -2.0262
  843MOL0     H13798   1.680   7.576   6.962 -0.1900 -0.1581  1.0873
  843MOL0     H13799   1.790   7.636   7.141 -0.4646  0.2266 -0.9246
  843MOL0     H13800   1.907   7.727   7.049  0.8371 -0.5831  1.6661
  843MOL0     H13801   1.895   7.425   7.096  0.1307  0.7383  0.0121
  843MOL0     H13802   1.998   7.537   7.175 -1.5318  4.0738 -0.5914
  843MOL0     H13803   2.194   7.463   6.812  0.8842 -0.0406  1.0114
  843MOL0     H13804   1.626   8.092   6.948 -0.6019 -0.1138  1.3184
  843MOL0     H13805   1.381   8.145   6.965 -1.0960 -1.6135 -0.3161
  844MOL0     O13806   0.917   3.810   6.484 -0.2358 -0.1804 -0.3242
  844MOL0     C13807   0.937   3.827   6.603 -0.9735 -0.7412 -0.8933
  844MOL0     O13808   0.842   3.876   6.696 -0.3520  0.1314  0.2418
  844MOL0     C13809   0.713   3.920   6.665  0.3239  0.2070  0.5673
  844MOL0     C13810   0.668   3.980   6.550 -0.7060  0.2564  0.0118
  844MOL0     C13811   0.546   4.045   6.543  0.7621  0.7325 -0.0255
  844MOL0     C13812   0.460   4.036   6.654  0.0731 -0.2771 -0.6114
  844MOL0     O13813   0.334   4.080   6.657  0.3077 -0.7609  0.0772
  844MOL0     C13814   0.274   4.101   6.522 -0.5241  0.4847 -0.1110
  844MOL0     C13815   0.126   4.112   6.557  0.6944  0.5939 -0.6561
  844MOL0     C13816   0.035   4.154   6.429  0.2921  0.3832 -0.2207
  844MOL0     C13817  -0.111   4.163   6.471  0.5565  0.0542  0.6638
  844MOL0     C13818  -0.165   4.030   6.508 -0.4583  0.9513  0.5518
  844MOL0     C13819  -0.318   4.018   6.523  0.2560 -0.2543  1.2680
  844MOL0     C13820  -0.411   4.083   6.413 -1.5245  0.9693 -0.5538
  844MOL0     C13821  -0.555   4.021   6.394 -0.3077 -0.0211 -1.3596
  844MOL0     N13822  -0.638   4.035   6.508 -0.0963  0.5493  0.2573
  844MOL0     C13823  -0.639   3.963   6.624  0.4068  0.7571 -0.8046
  844MOL0     C13824  -0.734   4.023   6.701  0.3392  1.0892  0.2212
  844MOL0     C13825  -0.789   3.988   6.848  0.0065  0.1414 -0.7212
  844MOL0     C13826  -0.685   3.917   6.940  0.0351 -0.2102  0.8628
  844MOL0     C13827  -0.737   3.894   7.085  0.3550  1.0696 -0.3093
  844MOL0     C13828  -0.655   3.805   7.177  0.0161 -0.1822  0.0158
  844MOL0     O13829  -0.691   3.668   7.150  0.3025  0.4715  0.5047
  844MOL0     C13830  -0.801   3.609   7.207 -0.0085  0.2343  0.9944
  844MOL0     C13831  -0.836   3.478   7.164 -0.6094 -0.2679 -0.7363
  844MOL0     C13832  -0.950   3.409   7.208  0.3858 -0.2075  0.5016
  844MOL0     C13833  -0.979   3.268   7.160  0.0116  0.1105  0.0918
  844MOL0     C13834  -1.041   3.478   7.291 -0.7263  0.7053 -0.4442
  844MOL0     C13835  -1.177   3.431   7.339  0.2016 -0.3301  0.1092
  844MOL0     O13836  -1.275   3.514   7.361  0.1186  0.9021  0.3497
  844MOL0     C13837  -1.408   3.474   7.370  0.4748  0.3803 -0.7121
  844MOL0     C13838  -1.465   3.378   7.288  0.1329 -0.5190  0.4757
  844MOL0     C13839  -1.602   3.349   7.288  0.4505  0.0190  0.0373
  844MOL0     C13840  -1.688   3.414   7.382 -1.3391 -0.2021  0.8095
  844MOL0     O13841  -1.823   3.403   7.390  0.4174 -0.7591  0.6347
  844MOL0     C13842  -1.899   3.316   7.294 -0.0589 -1.2924  0.4532
  844MOL0     C13843  -2.047   3.328   7.321 -0.2673 -0.4485  0.7341
  844MOL0     C13844  -2.087   3.285   7.469  1.0921  0.4598  0.2214
  844MOL0     C13845  -2.237   3.310   7.496 -0.4434  0.1803 -0.3175
  844MOL0     C13846  -2.279   3.286   7.646 -0.3334 -0.0154 -0.2440
  844MOL0     C13847  -2.250   3.404   7.735 -0.4815  0.8797 -0.0911
  844MOL0     C13848  -2.369   3.498   7.735  0.5976  0.1603  1.0535
  844MOL0     C13849  -2.360   3.615   7.829  0.2948 -0.1201  0.5934
  844MOL0    Cl13850  -2.492   3.717   7.798  0.1342  0.3891  0.0349
  844MOL0     C13851  -1.633   3.513   7.455 -0.3586  0.1509 -0.2327
  844MOL0     C13852  -1.495   3.543   7.449  1.0308  0.5194  0.2260
  844MOL0     O13853  -1.179   3.318   7.369  0.1648 -0.1234 -0.4204
  844MOL0     C13854  -1.000   3.605   7.340  0.6489 -0.8405 -0.7388
  844MOL0     C13855  -0.887   3.670   7.295 -0.7559  0.7103 -0.5489
  844MOL0     N13856  -0.786   4.128   6.628 -0.0842 -0.4330  0.1561
  844MOL0     N13857  -0.730   4.134   6.510  0.1346  0.8586  0.1127
  844MOL0     C13858   0.497   3.986   6.775  0.3300  0.4481  0.1074
  844MOL0     C13859   0.624   3.925   6.781 -0.4168  0.1524 -0.2534
  844MOL0     C13860   1.065   3.802   6.660  0.2154  0.5817 -0.0286
  844MOL0     C13861   1.118   3.888   6.751  0.0558 -0.1940  0.1556
  844MOL0     C13862   1.251   3.878   6.798 -0.0212  0.2817  0.2052
  844MOL0     C13863   1.336   3.783   6.747  0.2025 -0.0552 -1.0435
  844MOL0     O13864   1.470   3.781   6.785 -0.2467 -0.4233 -0.0706
  844MOL0     C13865   1.540   3.649   6.796  0.1110  0.1528  0.3167
  844MOL0     C13866   1.662   3.694   6.855  0.2652  0.2673  0.1264
  844MOL0     C13867   1.773   3.726   6.753 -0.9912 -0.1536 -0.6898
  844MOL0     C13868   1.859   3.849   6.797  0.0671 -0.9560 -0.1660
  844MOL0     C13869   1.935   3.813   6.919 -0.4389 -0.0729 -0.9711
  844MOL0     C13870   1.995   3.774   7.016  0.2108  1.6254  0.4057
  844MOL0     C13871   1.290   3.702   6.650  0.3377 -0.3308  0.2500
  844MOL0     C13872   1.157   3.705   6.608 -0.2606  0.5109 -0.1957
  844MOL0     H13873   0.727   3.983   6.459 -0.7270  0.6380  0.0088
  844MOL0     H13874   0.513   4.089   6.450  0.0456 -1.7472 -1.0475
  844MOL0     H13875   0.304   4.182   6.455 -3.5181  2.4643  0.7260
  844MOL0     H13876   0.288   4.011   6.462  2.1059  2.6957 -3.1219
  844MOL0     H13877   0.094   4.013   6.590 -2.7293  1.7915  0.0769
  844MOL0     H13878   0.111   4.185   6.638 -0.7344 -1.6614  1.2581
  844MOL0     H13879   0.055   4.257   6.400 -1.7150  1.5157  2.0334
  844MOL0     H13880   0.057   4.089   6.343 -0.3763 -1.9946  1.2898
  844MOL0     H13881  -0.119   4.237   6.551  0.2649  1.5782 -0.7161
  844MOL0     H13882  -0.164   4.212   6.388  2.5615 -1.3855 -1.5809
  844MOL0     H13883  -0.136   3.957   6.431 -1.0028  1.1810  0.1179
  844MOL0     H13884  -0.118   4.003   6.603  0.4193  1.4492  0.2700
  844MOL0     H13885  -0.333   3.911   6.510 -2.1976  0.2485 -0.6694
  844MOL0     H13886  -0.346   4.057   6.622 -0.1728 -2.5416  2.0944
  844MOL0     H13887  -0.413   4.190   6.438  1.2647  0.8138  0.7415
  844MOL0     H13888  -0.365   4.077   6.314 -0.8677  2.8443 -0.4083
  844MOL0     H13889  -0.548   3.912   6.387 -3.1976 -0.5024  1.1125
  844MOL0     H13890  -0.615   4.067   6.315 -0.4456  3.2726  0.4895
  844MOL0     H13891  -0.577   3.881   6.657  0.2211  0.4610 -1.1765
  844MOL0     H13892  -0.823   4.078   6.901 -2.3612  1.2568 -3.8213
  844MOL0     H13893  -0.876   3.924   6.831  0.8622 -1.3002  0.1254
  844MOL0     H13894  -0.592   3.975   6.934 -0.5645  0.7734  0.8578
  844MOL0     H13895  -0.667   3.817   6.899 -2.3739 -0.5367  0.4808
  844MOL0     H13896  -0.841   3.858   7.080 -0.0803  2.1430  0.5226
  844MOL0     H13897  -0.726   3.995   7.125  1.6795  1.4263 -1.5137
  844MOL0     H13898  -0.687   3.828   7.279  1.4084  0.0883  0.4117
  844MOL0     H13899  -0.546   3.811   7.169  0.0899 -1.9961 -0.8433
  844MOL0     H13900  -0.768   3.437   7.090 -0.5215  1.7645 -1.8801
  844MOL0     H13901  -0.981   3.191   7.238  0.7270 -2.1858 -2.0117
  844MOL0     H13902  -1.069   3.273   7.098 -0.6224  1.0810  1.0666
  844MOL0     H13903  -0.895   3.237   7.096 -1.3576  1.5418 -2.5831
  844MOL0     H13904  -1.396   3.339   7.213 -1.7012  2.1063 -2.8257
  844MOL0     H13905  -1.638   3.278   7.214  0.4169  0.8615 -0.7689
  844MOL0     H13906  -1.866   3.346   7.194  2.2589 -0.2589  1.4306
  844MOL0     H13907  -1.852   3.219   7.307  1.4437 -0.6845 -0.1936
  844MOL0     H13908  -2.077   3.430   7.297  0.4121 -0.4114  0.0259
  844MOL0     H13909  -2.097   3.258   7.253 -0.7247 -1.9403  2.5191
  844MOL0     H13910  -2.029   3.333   7.548  2.2699 -1.7106  0.7556
  844MOL0     H13911  -2.052   3.184   7.490  1.2156  0.7800  1.7132
  844MOL0     H13912  -2.261   3.411   7.463  0.1660  0.8928  1.3149
  844MOL0     H13913  -2.283   3.235   7.432 -1.7080  1.0803 -0.4971
  844MOL0     H13914  -2.221   3.203   7.688  0.7806  0.5712 -0.5743
  844MOL0     H13915  -2.382   3.250   7.644 -0.0546 -0.7985 -1.3952
  844MOL0     H13916  -2.230   3.368   7.837 -0.3506 -0.4121 -0.5581
  844MOL0     H13917  -2.163   3.461   7.702 -0.2004  0.2857 -0.4019
  844MOL0     H13918  -2.462   3.451   7.765  0.9970  0.5184  2.9811
  844MOL0     H13919  -2.381   3.543   7.635  1.3351  0.4477  1.0823
  844MOL0     H13920  -2.265   3.667   7.813 -0.5516  0.8734 -1.7421
  844MOL0     H13921  -2.372   3.579   7.931  0.2780  0.3351  0.7523
  844MOL0     H13922  -1.701   3.576   7.512 -1.0410 -0.1739 -0.6763
  844MOL0     H13923  -1.454   3.619   7.515 -0.1048  0.5456  0.9225
  844MOL0     H13924  -1.065   3.663   7.405  1.4178 -1.3499  0.5363
  844MOL0     H13925  -0.874   3.774   7.323 -0.4298  0.2302  1.1976
  844MOL0     H13926   0.425   3.983   6.856  0.3304  0.7475  0.1203
  844MOL0     H13927   0.660   3.901   6.881 -1.0733 -1.4269 -0.3766
  844MOL0     H13928   1.053   3.951   6.810 -0.2497  1.1726 -1.5775
  844MOL0     H13929   1.281   3.946   6.878  0.2574  1.9914 -1.3043
  844MOL0     H13930   1.480   3.580   6.855  1.3552  0.1173  1.6046
  844MOL0     H13931   1.559   3.600   6.700  1.6387 -3.4940  2.2955
  844MOL0     H13932   1.701   3.611   6.915 -2.9130 -1.8339 -0.5051
  844MOL0     H13933   1.643   3.786   6.912  1.1396  0.8301 -0.4480
  844MOL0     H13934   1.728   3.756   6.658  3.0513  0.4966 -2.6265
  844MOL0     H13935   1.832   3.636   6.733  0.0717  0.7724 -1.8922
  844MOL0     H13936   1.798   3.938   6.814  2.3019  1.5438 -3.6891
  844MOL0     H13937   1.923   3.874   6.712 -0.8672 -3.3115 -1.6733
  844MOL0     H13938   2.052   3.726   7.094  0.7717  1.2814 -0.1999
  844MOL0     H13939   1.363   3.634   6.606  0.4198  0.0387 -0.1838
  844MOL0     H13940   1.128   3.640   6.526  1.0363 -0.2704 -0.0768
  845MOL0     O13941   7.332   4.214   5.261 -0.3333 -0.0783 -0.2296
  845MOL0     C13942   7.260   4.112   5.241 -0.2434  0.2935 -0.4342
  845MOL0     O13943   7.230   4.020   5.340  0.5281  0.6564  0.5065
  845MOL0     C13944   7.285   4.043   5.458 -0.2116  0.4557 -0.2523
  845MOL0     C13945   7.417   4.086   5.493  0.0668 -0.4628  0.2815
  845MOL0     C13946   7.458   4.102   5.626  0.0620 -1.0385 -0.7621
  845MOL0     C13947   7.369   4.062   5.733  0.0158  0.7497 -0.2292
  845MOL0     O13948   7.420   4.072   5.858 -1.4843 -0.3475  0.1812
  845MOL0     C13949   7.373   3.978   5.947 -0.2235 -0.7086 -0.4191
  845MOL0     C13950   7.479   3.981   6.060 -0.7746  0.0485  0.0408
  845MOL0     C13951   7.444   3.866   6.154 -1.4276  0.7385  0.1358
  845MOL0     C13952   7.482   3.910   6.299 -0.1118 -0.9861  0.8401
  845MOL0     C13953   7.516   3.786   6.385  0.5284 -0.5650  0.4425
  845MOL0     C13954   7.397   3.726   6.449 -0.8195 -0.8490 -0.4488
  845MOL0     C13955   7.430   3.588   6.495  0.7325 -0.2373 -0.5788
  845MOL0     C13956   7.303   3.493   6.493  0.1791 -0.5135  0.2776
  845MOL0     N13957   7.189   3.547   6.568 -0.1537 -0.8058 -0.0611
  845MOL0     C13958   7.053   3.518   6.548 -0.0829  0.0337 -0.3842
  845MOL0     C13959   6.990   3.587   6.651  0.7972  0.3831  0.3383
  845MOL0     C13960   6.842   3.587   6.674  0.4150 -0.7349  0.2867
  845MOL0     C13961   6.802   3.614   6.818 -0.8438 -0.0322 -1.0406
  845MOL0     C13962   6.648   3.627   6.847  0.6094  0.4624  0.3317
  845MOL0     C13963   6.589   3.761   6.824 -0.1466  0.4165 -0.1520
  845MOL0     O13964   6.453   3.774   6.865 -0.6476 -0.6474  0.3287
  845MOL0     C13965   6.345   3.743   6.775 -0.1249 -0.5299  0.2302
  845MOL0     C13966   6.352   3.686   6.651 -0.1862  0.5751  0.2545
  845MOL0     C13967   6.234   3.640   6.588  0.4122  0.9659  0.2025
  845MOL0     C13968   6.260   3.559   6.466  0.6423  0.4539 -0.2997
  845MOL0     C13969   6.105   3.675   6.634  0.1398 -0.2142 -0.8683
  845MOL0     C13970   5.971   3.646   6.566 -0.3512  0.1318  0.4687
  845MOL0     O13971   5.865   3.725   6.617 -0.2048  0.1860 -0.3705
  845MOL0     C13972   5.732   3.710   6.567 -0.1356  0.5769  0.6227
  845MOL0     C13973   5.650   3.816   6.602 -0.0820  0.0359 -0.5685
  845MOL0     C13974   5.514   3.815   6.563  0.9128 -1.0183  0.5002
  845MOL0     C13975   5.459   3.715   6.473 -0.4833 -1.1530  0.4438
  845MOL0     O13976   5.331   3.742   6.411 -0.8652 -0.1528  0.9748
  845MOL0     C13977   5.247   3.628   6.379 -0.2687 -1.2930 -0.2335
  845MOL0     C13978   5.203   3.554   6.509  0.2165 -0.3744  0.0120
  845MOL0     C13979   5.113   3.433   6.487  0.2439 -0.7807 -1.3637
  845MOL0     C13980   4.960   3.470   6.458  0.0073  0.3229 -0.5169
  845MOL0     C13981   4.888   3.342   6.453  0.9512  0.1597  0.1207
  845MOL0     C13982   4.747   3.379   6.398 -0.5977  0.8708  0.5040
  845MOL0     C13983   4.642   3.267   6.412  0.3254 -0.2001 -0.0124
  845MOL0     C13984   4.673   3.153   6.308  0.2306  0.0989  0.4008
  845MOL0    Cl13985   4.563   3.022   6.322  0.0909 -0.2095  0.1180
  845MOL0     C13986   5.543   3.609   6.429 -0.3919 -0.4240 -0.3938
  845MOL0     C13987   5.670   3.609   6.477 -0.3654 -0.0209 -0.3633
  845MOL0     O13988   5.961   3.546   6.495 -0.3013  0.5206  0.1822
  845MOL0     C13989   6.107   3.739   6.765  0.5153  0.8148  0.6581
  845MOL0     C13990   6.226   3.775   6.829  0.6843  0.8872 -1.0168
  845MOL0     N13991   7.081   3.667   6.711  0.4030  0.5547  0.0632
  845MOL0     N13992   7.197   3.643   6.663  0.4123 -0.1071 -0.2757
  845MOL0     C13993   7.239   4.015   5.697 -0.9251  0.6698 -0.4143
  845MOL0     C13994   7.200   4.016   5.568  0.5888  0.3680  0.3213
  845MOL0     C13995   7.195   4.092   5.106 -0.0313 -0.0019  0.6866
  845MOL0     C13996   7.226   4.176   4.992 -0.3939  0.0084 -0.6727
  845MOL0     C13997   7.173   4.135   4.871 -1.1684  0.0488  0.0215
  845MOL0     C13998   7.098   4.027   4.841 -0.9439  0.3903 -0.0273
  845MOL0     O13999   7.053   3.985   4.716  0.0716 -0.4584  0.8883
  845MOL0     C14000   7.069   4.066   4.601 -0.4679  0.5122 -0.0328
  845MOL0     C14001   7.029   4.002   4.470 -0.6736 -0.1321  0.5295
  845MOL0     C14002   7.073   4.092   4.344 -0.1463 -0.4956 -0.6874
  845MOL0     C14003   7.024   4.034   4.212  0.1803  0.5435  0.0528
  845MOL0     C14004   7.092   4.098   4.097  0.2917  0.5749  0.4637
  845MOL0     C14005   7.130   4.121   3.983 -0.1814 -0.2571 -0.5750
  845MOL0     C14006   7.058   3.955   4.950 -0.0633  0.3017  0.3590
  845MOL0     C14007   7.101   3.988   5.084 -0.8890 -0.1920 -0.5438
  845MOL0     H14008   7.494   4.106   5.420  0.0770  2.1954  0.9156
  845MOL0     H14009   7.558   4.125   5.662  0.0285  1.8738 -2.1728
  845MOL0     H14010   7.277   4.014   5.986  0.1294  0.3725 -0.4963
  845MOL0     H14011   7.370   3.876   5.908  2.2559 -1.4676  1.0954
  845MOL0     H14012   7.580   3.970   6.020 -1.4851  1.2227 -2.2264
  845MOL0     H14013   7.472   4.075   6.116 -1.0289 -0.6560  1.2311
  845MOL0     H14014   7.340   3.831   6.152 -1.1132 -0.2097  0.3398
  845MOL0     H14015   7.510   3.787   6.118 -0.3377  1.2129  1.0296
  845MOL0     H14016   7.572   3.970   6.287  0.1415 -1.6229 -0.8530
  845MOL0     H14017   7.405   3.973   6.342  0.3741 -0.5393  1.0673
  845MOL0     H14018   7.569   3.709   6.328  1.4795  0.4124 -0.0362
  845MOL0     H14019   7.587   3.813   6.463  1.6128 -1.7323 -0.0924
  845MOL0     H14020   7.364   3.789   6.533 -2.5801 -2.3071  0.0249
  845MOL0     H14021   7.314   3.718   6.379 -0.4312 -4.6920 -0.6744
  845MOL0     H14022   7.496   3.537   6.424 -0.7503 -2.4588 -0.4908
  845MOL0     H14023   7.475   3.587   6.594  2.0646  1.3740 -1.1139
  845MOL0     H14024   7.340   3.398   6.535  0.7836 -1.7243 -2.6974
  845MOL0     H14025   7.277   3.478   6.388 -0.2447 -1.1354  0.4664
  845MOL0     H14026   7.004   3.459   6.471  0.1967 -0.8851  0.1246
  845MOL0     H14027   6.784   3.658   6.613 -0.4955 -1.3107  0.4645
  845MOL0     H14028   6.793   3.491   6.656  2.0278 -1.3134 -1.2350
  845MOL0     H14029   6.855   3.706   6.844  1.1350 -0.7571 -2.2589
  845MOL0     H14030   6.838   3.530   6.878 -2.7713  0.3397  0.7225
  845MOL0     H14031   6.634   3.598   6.951 -1.2709  0.3437  0.0837
  845MOL0     H14032   6.600   3.558   6.776  1.5985  0.4899 -0.3845
  845MOL0     H14033   6.593   3.786   6.718 -0.5172 -2.3516 -0.8883
  845MOL0     H14034   6.638   3.839   6.883  0.7530  0.4583 -0.9326
  845MOL0     H14035   6.449   3.670   6.603 -0.5565 -0.0632 -0.2902
  845MOL0     H14036   6.258   3.610   6.369 -2.2836  1.3481  0.1303
  845MOL0     H14037   6.360   3.517   6.475  0.2676 -0.3615  0.2069
  845MOL0     H14038   6.203   3.465   6.467  1.5557 -0.1405  2.3143
  845MOL0     H14039   5.690   3.891   6.669 -0.8248 -1.5921  1.8134
  845MOL0     H14040   5.455   3.897   6.603  0.6314 -1.6049  1.3008
  845MOL0     H14041   5.155   3.666   6.332 -0.9119 -1.6436  0.7038
  845MOL0     H14042   5.301   3.561   6.312  3.8634  0.8852  0.6352
  845MOL0     H14043   5.294   3.518   6.558 -1.3235 -0.1097  3.3677
  845MOL0     H14044   5.158   3.624   6.580 -2.3685  0.8153 -2.5949
  845MOL0     H14045   5.115   3.374   6.579 -1.3841  0.6944 -0.3258
  845MOL0     H14046   5.159   3.375   6.407  3.0654 -2.7451  1.4505
  845MOL0     H14047   4.920   3.536   6.535  0.0614 -0.4052  0.1363
  845MOL0     H14048   4.960   3.526   6.363 -2.6780  1.3087 -0.0106
  845MOL0     H14049   4.871   3.303   6.554 -0.1589  1.9029  0.6476
  845MOL0     H14050   4.936   3.264   6.394 -1.9216 -1.8111  0.1682
  845MOL0     H14051   4.705   3.463   6.455  0.9247  1.0859  1.3651
  845MOL0     H14052   4.751   3.407   6.292 -0.0352  2.3514  0.8938
  845MOL0     H14053   4.537   3.298   6.409  0.8488  1.6478 -0.2532
  845MOL0     H14054   4.646   3.224   6.513  0.1118 -0.1274  0.0269
  845MOL0     H14055   4.777   3.120   6.314  1.7621  4.5765  3.2120
  845MOL0     H14056   4.660   3.202   6.210  2.2582  0.8843  0.4890
  845MOL0     H14057   5.508   3.541   6.353 -0.1046 -1.8142  0.6823
  845MOL0     H14058   5.730   3.521   6.454 -1.2740 -0.7455 -0.0582
  845MOL0     H14059   6.012   3.773   6.805  0.0627  2.3886 -1.5061
  845MOL0     H14060   6.203   3.820   6.925 -2.8111 -1.1468 -0.7091
  845MOL0     H14061   7.170   3.974   5.771 -0.3704  0.0871 -0.2084
  845MOL0     H14062   7.102   3.977   5.543 -0.1033  3.3315 -2.1919
  845MOL0     H14063   7.273   4.272   5.008  1.8390 -1.0688 -0.4122
  845MOL0     H14064   7.194   4.195   4.783  1.3973 -0.7515  0.0048
  845MOL0     H14065   7.015   4.159   4.620 -0.9770 -0.0883  1.5560
  845MOL0     H14066   7.176   4.085   4.600 -0.4580  0.7049 -2.4345
  845MOL0     H14067   6.920   3.993   4.471 -0.7338 -0.4697 -2.1044
  845MOL0     H14068   7.079   3.905   4.459 -1.7151 -0.4262 -2.7090
  845MOL0     H14069   7.180   4.105   4.326 -0.0002 -2.0350 -1.0456
  845MOL0     H14070   7.042   4.194   4.367  0.8160 -0.6856  1.7787
  845MOL0     H14071   6.915   4.043   4.208  0.0845 -0.3269 -4.2773
  845MOL0     H14072   7.047   3.927   4.213 -0.8560  0.3126  0.1756
  845MOL0     H14073   7.169   4.114   3.883  0.5174 -3.2726 -0.2006
  845MOL0     H14074   7.003   3.863   4.930  2.3356 -1.1191 -0.0357
  845MOL0     H14075   7.089   3.920   5.168  2.7471  0.5322  0.7617
  846MOL0     O14076  10.736   3.680   1.124 -0.6560 -0.8548  0.6134
  846MOL0     C14077  10.767   3.595   1.047  0.4718 -0.4355 -0.2215
  846MOL0     O14078  10.679   3.509   0.985 -0.2952  0.5673 -0.0609
  846MOL0     C14079  10.542   3.519   0.997  0.3066 -0.2755  0.4200
  846MOL0     C14080  10.482   3.426   0.911 -0.1320 -1.3825 -0.0529
  846MOL0     C14081  10.339   3.427   0.906  0.1786 -0.1626 -0.8249
  846MOL0     C14082  10.273   3.509   1.005 -0.9961  0.8409 -1.2369
  846MOL0     O14083  10.139   3.493   1.031 -0.3763  0.4349 -0.6417
  846MOL0     C14084  10.065   3.397   0.952  0.6267 -0.6323  0.0346
  846MOL0     C14085   9.924   3.372   1.009  0.0604 -0.6522 -0.0057
  846MOL0     C14086   9.850   3.258   0.933 -0.3349 -0.0856  0.8143
  846MOL0     C14087   9.714   3.235   0.990  0.4130  0.7889 -0.8473
  846MOL0     C14088   9.646   3.116   0.925  0.4995 -0.5103  0.2035
  846MOL0     C14089   9.522   3.064   1.000  0.0981  0.1089 -0.1299
  846MOL0     C14090   9.424   3.174   1.058 -0.0410  1.3114  0.4759
  846MOL0     C14091   9.380   3.293   0.970 -0.3348  0.8325 -0.2547
  846MOL0     N14092   9.264   3.359   1.019  0.1057 -0.2075 -0.2308
  846MOL0     C14093   9.250   3.444   1.118  0.6353  0.1721  0.3382
  846MOL0     C14094   9.126   3.492   1.116  0.2664 -0.7725  0.4530
  846MOL0     C14095   9.086   3.607   1.213  0.5239  0.4790  0.3084
  846MOL0     C14096   8.978   3.709   1.151  0.1607 -0.3291 -0.2537
  846MOL0     C14097   8.915   3.802   1.259 -0.2320  0.8155  1.0379
  846MOL0     C14098   8.837   3.931   1.218  0.4230  0.4774  0.3664
  846MOL0     O14099   8.757   3.913   1.099  0.3046 -0.0831 -0.8910
  846MOL0     C14100   8.656   3.822   1.107 -0.6089  0.5618 -0.5769
  846MOL0     C14101   8.643   3.728   1.008  0.4082  0.6034  0.6161
  846MOL0     C14102   8.524   3.648   0.996 -0.3354  0.2684 -0.1117
  846MOL0     C14103   8.516   3.565   0.873 -0.4172  0.2652  0.2786
  846MOL0     C14104   8.426   3.645   1.096  0.0450 -0.8568 -0.5248
  846MOL0     C14105   8.305   3.549   1.113  0.7739  0.0261  0.7461
  846MOL0     O14106   8.214   3.577   1.204  0.1194 -0.6971  0.2287
  846MOL0     C14107   8.131   3.478   1.249  0.1998 -0.3772  0.3126
  846MOL0     C14108   8.166   3.342   1.268 -0.6044 -0.3606  0.1947
  846MOL0     C14109   8.082   3.248   1.338 -0.0318 -0.2817  0.1123
  846MOL0     C14110   7.955   3.295   1.378 -0.1435 -0.9927  0.2628
  846MOL0     O14111   7.861   3.213   1.424  0.3353  0.1384  0.4525
  846MOL0     C14112   7.877   3.076   1.462 -0.3854  0.1975 -0.6372
  846MOL0     C14113   7.758   2.997   1.515  0.1216 -0.1498  0.1833
  846MOL0     C14114   7.663   3.081   1.617  0.0480  0.4677  0.0258
  846MOL0     C14115   7.555   2.975   1.653  0.1002 -0.8589  0.3878
  846MOL0     C14116   7.468   3.020   1.768  0.5838 -0.2500  0.7538
  846MOL0     C14117   7.374   3.142   1.738 -0.0026 -0.0050 -0.8879
  846MOL0     C14118   7.250   3.116   1.667 -0.5306  0.3562  0.2649
  846MOL0     C14119   7.159   3.238   1.631 -0.2076  1.1610  1.3564
  846MOL0    Cl14120   7.104   3.321   1.777 -0.0088 -0.0632  0.3954
  846MOL0     C14121   7.914   3.426   1.352  0.3109  0.8104  0.3893
  846MOL0     C14122   8.011   3.516   1.312  0.0008  0.1513  0.4965
  846MOL0     O14123   8.294   3.452   1.036 -0.1203  0.4927  0.5139
  846MOL0     C14124   8.449   3.729   1.202  0.0319 -0.8364 -0.8297
  846MOL0     C14125   8.559   3.819   1.205  0.6369 -0.5888 -0.5817
  846MOL0     N14126   9.065   3.439   1.008  0.2269  0.1181  0.3038
  846MOL0     N14127   9.148   3.360   0.951 -0.6912 -0.7108 -0.7347
  846MOL0     C14128  10.333   3.589   1.092 -0.5693 -0.8227  0.1430
  846MOL0     C14129  10.470   3.604   1.086  0.0183 -0.7177 -0.7829
  846MOL0     C14130  10.907   3.577   1.019 -0.0065  0.0216  0.0851
  846MOL0     C14131  11.003   3.674   1.068  0.2243 -0.0450  0.4403
  846MOL0     C14132  11.138   3.661   1.036 -0.0420 -0.3290 -0.7451
  846MOL0     C14133  11.186   3.552   0.953  0.2714 -0.0706 -0.7275
  846MOL0     O14134  11.317   3.532   0.929 -0.5958 -0.7427  0.0766
  846MOL0     C14135  11.397   3.650   0.949 -0.7054 -0.0270  0.2831
  846MOL0     C14136  11.538   3.610   0.921 -0.3428 -0.7488  0.2620
  846MOL0     C14137  11.554   3.549   0.778 -0.4015 -0.5777 -0.0187
  846MOL0     C14138  11.700   3.548   0.741  0.5780  1.1546 -0.1359
  846MOL0     C14139  11.750   3.684   0.704  0.5545  0.2049 -0.9418
  846MOL0     C14140  11.791   3.799   0.684  0.3895 -0.9033 -0.0405
  846MOL0     C14141  11.089   3.461   0.912  0.5050 -0.0259 -0.2116
  846MOL0     C14142  10.954   3.467   0.944 -0.3008 -0.4536 -0.6940
  846MOL0     H14143  10.542   3.371   0.839  1.0549  1.6470 -1.5817
  846MOL0     H14144  10.294   3.354   0.839 -1.0665  0.0381 -0.2408
  846MOL0     H14145  10.052   3.437   0.851  2.4780  1.0346  0.3859
  846MOL0     H14146  10.117   3.301   0.952  0.1405 -0.9070  0.8952
  846MOL0     H14147   9.928   3.339   1.113 -0.3349  1.3739  0.6960
  846MOL0     H14148   9.865   3.462   0.991  0.2829 -0.5319 -0.1488
  846MOL0     H14149   9.844   3.281   0.826  0.5524  0.5707  0.8909
  846MOL0     H14150   9.919   3.173   0.939  1.8205  1.3975 -1.2043
  846MOL0     H14151   9.722   3.206   1.095 -2.5737 -4.7720 -1.7810
  846MOL0     H14152   9.653   3.326   0.980 -0.4997  0.3832  0.6768
  846MOL0     H14153   9.605   3.158   0.833  2.4836 -0.9809 -0.9408
  846MOL0     H14154   9.707   3.030   0.895  0.8888 -0.3691  0.5890
  846MOL0     H14155   9.480   2.984   0.939  1.9213 -0.9594 -0.0569
  846MOL0     H14156   9.561   3.020   1.092 -1.8612  1.1260  1.2705
  846MOL0     H14157   9.340   3.113   1.093 -0.9675  1.9229 -0.5789
  846MOL0     H14158   9.474   3.215   1.146  0.2264 -0.2575  1.0730
  846MOL0     H14159   9.359   3.269   0.865 -0.2270 -0.6669  0.0494
  846MOL0     H14160   9.465   3.363   0.974  1.5844 -1.4441  1.3854
  846MOL0     H14161   9.327   3.491   1.179  1.2339 -0.1406 -0.1641
  846MOL0     H14162   9.042   3.571   1.307 -1.0028  2.8897  0.5982
  846MOL0     H14163   9.181   3.657   1.235  0.6895  0.1675  0.3032
  846MOL0     H14164   8.907   3.640   1.105  0.7328 -1.9563  1.1828
  846MOL0     H14165   9.026   3.766   1.070  1.2279 -0.2084  0.4415
  846MOL0     H14166   8.995   3.826   1.329  1.2388  0.3128 -0.4108
  846MOL0     H14167   8.830   3.754   1.308  0.4655 -2.0453 -0.3155
  846MOL0     H14168   8.914   4.005   1.194  1.0176 -0.1039  0.4389
  846MOL0     H14169   8.785   3.979   1.301 -0.1920  0.5997 -0.0855
  846MOL0     H14170   8.711   3.730   0.923 -0.7167  0.2359 -0.3190
  846MOL0     H14171   8.486   3.463   0.897 -1.9025  0.9230  1.3338
  846MOL0     H14172   8.442   3.603   0.802  0.1169  0.2080 -0.3312
  846MOL0     H14173   8.609   3.566   0.815 -1.5775 -3.0919 -1.9966
  846MOL0     H14174   8.246   3.293   1.215 -0.6276  0.1111 -0.2887
  846MOL0     H14175   8.103   3.142   1.354 -3.4619 -0.9242  1.0414
  846MOL0     H14176   7.910   3.027   1.370 -2.2937 -1.6235 -0.4394
  846MOL0     H14177   7.942   3.079   1.550 -1.7877  4.6531  0.4814
  846MOL0     H14178   7.705   2.972   1.423 -0.1509  0.2083  0.2435
  846MOL0     H14179   7.800   2.911   1.567  2.1654  1.6584  1.7354
  846MOL0     H14180   7.626   3.170   1.563  0.8221  1.2138  0.7024
  846MOL0     H14181   7.723   3.114   1.702  0.2651  1.5081 -0.5131
  846MOL0     H14182   7.494   2.962   1.563  0.3993 -3.2104  0.4539
  846MOL0     H14183   7.600   2.879   1.680  0.7872 -0.8697 -0.7605
  846MOL0     H14184   7.515   3.064   1.857  0.9792 -0.9076  0.8768
  846MOL0     H14185   7.411   2.933   1.801  2.2788 -2.1994 -1.1361
  846MOL0     H14186   7.344   3.201   1.825  0.3467 -1.5422  0.3099
  846MOL0     H14187   7.426   3.221   1.682 -3.6537  1.3183 -2.7574
  846MOL0     H14188   7.196   3.048   1.734 -1.4997  0.1063 -0.7411
  846MOL0     H14189   7.274   3.059   1.577 -0.2965 -0.1875  0.6615
  846MOL0     H14190   7.078   3.197   1.570  2.5128 -0.6326 -1.3811
  846MOL0     H14191   7.218   3.307   1.571  2.4993  0.1370  2.6508
  846MOL0     H14192   7.821   3.456   1.398  1.0662  2.0205  1.1807
  846MOL0     H14193   8.003   3.624   1.313  1.0144  0.2447 -0.0233
  846MOL0     H14194   8.378   3.738   1.284 -2.6647 -2.7395 -2.7748
  846MOL0     H14195   8.569   3.894   1.283  0.3978 -0.9956 -0.1520
  846MOL0     H14196  10.282   3.640   1.174  1.0068  0.2087  0.5273
  846MOL0     H14197  10.508   3.676   1.158  1.3922 -0.9497 -1.2298
  846MOL0     H14198  10.973   3.762   1.124 -2.0437  1.6148 -3.0080
  846MOL0     H14199  11.203   3.742   1.069 -0.5914  0.3627 -1.3186
  846MOL0     H14200  11.372   3.733   0.882  1.0287  1.3473  1.2640
  846MOL0     H14201  11.402   3.683   1.054  1.6125  1.7352 -0.2923
  846MOL0     H14202  11.566   3.540   0.999  2.3616 -0.3837 -0.2921
  846MOL0     H14203  11.604   3.696   0.936 -0.8234  0.3417 -3.0250
  846MOL0     H14204  11.485   3.608   0.717 -0.2346  0.3326  0.6535
  846MOL0     H14205  11.520   3.445   0.778 -0.7088 -0.4964  1.4564
  846MOL0     H14206  11.706   3.483   0.653 -2.2666  1.5703 -0.7159
  846MOL0     H14207  11.770   3.498   0.809  1.0188 -0.3426 -1.6080
  846MOL0     H14208  11.835   3.893   0.658  3.7832 -2.0476  1.0647
  846MOL0     H14209  11.122   3.380   0.847 -3.9250 -3.6702  1.5435
  846MOL0     H14210  10.887   3.388   0.915 -0.4706 -1.9730  3.1583
  847MOL0     O14211   0.511   9.964   3.371 -0.2910 -0.4116  0.0310
  847MOL0     C14212   0.576   9.888   3.296  0.0487 -0.2999  0.2526
  847MOL0     O14213   0.513   9.804   3.203 -0.1691  0.2184  0.0341
  847MOL0     C14214   0.379   9.801   3.189 -0.6043 -0.4285 -0.3980
  847MOL0     C14215   0.339   9.795   3.056 -0.0128  0.1958 -0.3162
  847MOL0     C14216   0.204   9.806   3.015 -0.0864  0.9523 -0.4875
  847MOL0     C14217   0.109   9.808   3.116  0.3709  0.7828  0.0808
  847MOL0     O14218  -0.021   9.812   3.076  0.3040 -0.4658 -0.7091
  847MOL0     C14219  -0.106   9.723   3.146  0.4535  0.1317  0.3674
  847MOL0     C14220  -0.082   9.572   3.126 -0.6293  0.3403  0.2174
  847MOL0     C14221  -0.189   9.504   3.037  0.9587 -0.3922 -0.2916
  847MOL0     C14222  -0.310   9.462   3.115  0.9617  0.1681 -0.6664
  847MOL0     C14223  -0.385   9.357   3.044  0.6231  0.3115 -0.9012
  847MOL0     C14224  -0.453   9.400   2.905 -0.6072  0.8149 -0.1261
  847MOL0     C14225  -0.565   9.498   2.905 -0.1893  0.2299  0.3685
  847MOL0     C14226  -0.679   9.444   2.983  0.8321  0.2498 -0.6394
  847MOL0     N14227  -0.798   9.533   3.001  0.1901 -0.0958  1.6454
  847MOL0     C14228  -0.828   9.598   3.112  0.6327  0.0812  0.1550
  847MOL0     C14229  -0.938   9.672   3.080 -0.2423 -0.1343 -0.2285
  847MOL0     C14230  -1.019   9.756   3.175 -0.6066 -0.0693  0.2152
  847MOL0     C14231  -1.135   9.688   3.244 -0.6100  0.1581  0.4992
  847MOL0     C14232  -1.200   9.574   3.176 -0.1869  0.0288  0.5544
  847MOL0     C14233  -1.333   9.552   3.232 -0.2436 -0.4814 -0.0857
  847MOL0     O14234  -1.407   9.454   3.167  0.0010 -0.7716 -0.2084
  847MOL0     C14235  -1.540   9.476   3.163 -0.1165 -0.5859  0.3870
  847MOL0     C14236  -1.597   9.532   3.053 -1.0026 -0.3015  0.1348
  847MOL0     C14237  -1.737   9.544   3.037  0.6413 -0.3117  0.5071
  847MOL0     C14238  -1.797   9.578   2.904 -0.2596 -0.1440  0.0910
  847MOL0     C14239  -1.822   9.521   3.159 -0.7485 -0.4971  0.0819
  847MOL0     C14240  -1.970   9.546   3.166 -0.1375  1.1526  0.1665
  847MOL0     O14241  -2.039   9.565   3.049  0.2430  0.0303  0.1001
  847MOL0     C14242  -2.164   9.614   3.078 -0.6166  1.0935  0.1622
  847MOL0     C14243  -2.270   9.533   3.108 -0.4425  0.2630  0.4558
  847MOL0     C14244  -2.404   9.584   3.125 -0.4802  0.6785  0.0745
  847MOL0     C14245  -2.436   9.714   3.086 -0.2963 -0.8005  0.7611
  847MOL0     O14246  -2.571   9.757   3.082 -0.1588 -0.6365  0.5536
  847MOL0     C14247  -2.600   9.871   2.991  0.4666  0.4269  0.0382
  847MOL0     C14248  -2.751   9.900   3.010  0.2300 -0.6401  0.4748
  847MOL0     C14249  -2.834   9.812   2.908  0.1561  0.1967  0.5393
  847MOL0     C14250  -2.985   9.806   2.933 -0.6861 -0.5962 -0.2395
  847MOL0     C14251  -3.060   9.729   2.828  0.3476  0.3079 -0.3695
  847MOL0     C14252  -3.031   9.575   2.819  0.0788 -0.8090  0.1182
  847MOL0     C14253  -3.134   9.490   2.755  0.3217 -0.1810  0.9504
  847MOL0     C14254  -3.114   9.343   2.797 -0.0327  0.1631 -0.1079
  847MOL0    Cl14255  -2.942   9.277   2.765  0.3774 -0.0944  0.2692
  847MOL0     C14256  -2.325   9.794   3.060  0.4151 -0.7930 -0.8842
  847MOL0     C14257  -2.195   9.750   3.069 -0.1073  0.1695 -0.4388
  847MOL0     O14258  -2.022   9.533   3.283  0.4014  0.8008 -0.3819
  847MOL0     C14259  -1.753   9.467   3.278  0.4512  0.1061  0.2133
  847MOL0     C14260  -1.616   9.441   3.269 -0.3419 -0.5036  0.1570
  847MOL0     N14261  -0.976   9.639   2.948  0.4711  0.2766 -0.0013
  847MOL0     N14262  -0.892   9.557   2.901  0.0674  0.1257  0.2556
  847MOL0     C14263   0.150   9.813   3.255  0.3512 -0.0026  0.5961
  847MOL0     C14264   0.284   9.819   3.287  0.0415 -0.1474 -0.5440
  847MOL0     C14265   0.727   9.888   3.291 -0.5059 -0.6397  0.3574
  847MOL0     C14266   0.796   9.976   3.377  0.4803 -0.3490  0.0364
  847MOL0     C14267   0.931  10.000   3.363  0.4268  0.0567 -0.6521
  847MOL0     C14268   1.008   9.915   3.285 -0.4082  0.7721 -0.2275
  847MOL0     O14269   1.143   9.927   3.295  0.0300  0.4809  0.2478
  847MOL0     C14270   1.235   9.843   3.214 -0.6633 -0.7084 -0.8415
  847MOL0     C14271   1.382   9.882   3.230  0.0106  0.1753  0.1532
  847MOL0     C14272   1.429   9.903   3.387 -0.2664 -0.2062 -0.6658
  847MOL0     C14273   1.573   9.968   3.396 -0.8718  0.4168  0.8101
  847MOL0     C14274   1.548  10.112   3.406  0.2549  0.9034 -0.1213
  847MOL0     C14275   1.521  10.228   3.433 -0.5486  0.4989  0.4962
  847MOL0     C14276   0.937   9.806   3.221  0.1780  0.1897 -0.4022
  847MOL0     C14277   0.796   9.794   3.214  0.0651  0.4856  0.0624
  847MOL0     H14278   0.427   9.800   2.993  2.1859 -0.3437  2.4617
  847MOL0     H14279   0.175   9.805   2.910  4.9386  1.2503 -2.1207
  847MOL0     H14280  -0.114   9.751   3.252 -0.0753  2.4675 -0.2230
  847MOL0     H14281  -0.205   9.757   3.114  1.1342  1.8659 -0.0236
  847MOL0     H14282   0.018   9.563   3.082  0.0411 -1.1245  1.9473
  847MOL0     H14283  -0.073   9.520   3.222 -2.6249  0.1453  0.3447
  847MOL0     H14284  -0.217   9.564   2.950 -0.3609  1.9797  1.6476
  847MOL0     H14285  -0.142   9.419   2.987 -0.3381  0.3268 -2.8678
  847MOL0     H14286  -0.274   9.399   3.197  0.3463 -0.2041 -0.6759
  847MOL0     H14287  -0.372   9.544   3.153 -2.2934 -1.6197 -1.7650
  847MOL0     H14288  -0.317   9.275   3.023 -1.2221 -1.8793  1.1216
  847MOL0     H14289  -0.463   9.319   3.111  0.5521  0.7710 -0.7134
  847MOL0     H14290  -0.373   9.451   2.850  1.6454 -0.2489  1.9838
  847MOL0     H14291  -0.487   9.301   2.872  0.3822  0.6328 -0.6109
  847MOL0     H14292  -0.546   9.597   2.949 -2.9139  0.6953  0.7063
  847MOL0     H14293  -0.591   9.530   2.803  2.1256 -0.3022 -0.4418
  847MOL0     H14294  -0.647   9.410   3.082  0.0757  2.3363  0.3747
  847MOL0     H14295  -0.711   9.356   2.926  0.5548  0.1392 -0.3158
  847MOL0     H14296  -0.775   9.605   3.207  2.6777  3.1642 -1.0495
  847MOL0     H14297  -0.953   9.795   3.254  1.5766 -1.0217 -1.0499
  847MOL0     H14298  -1.059   9.844   3.126 -0.6369 -1.9226 -3.4115
  847MOL0     H14299  -1.213   9.765   3.248  1.9553  2.9801  0.0710
  847MOL0     H14300  -1.110   9.648   3.342 -0.0396 -0.9995 -0.1006
  847MOL0     H14301  -1.137   9.486   3.193 -2.5129 -1.3035  3.1237
  847MOL0     H14302  -1.207   9.594   3.069  0.0534 -1.2335  0.2792
  847MOL0     H14303  -1.386   9.645   3.210  0.2686 -0.2016 -0.1485
  847MOL0     H14304  -1.331   9.549   3.342 -1.1956  0.9400  0.0021
  847MOL0     H14305  -1.532   9.554   2.969  1.6892 -0.9975  1.8912
  847MOL0     H14306  -1.847   9.489   2.863  1.9171 -1.1337 -0.5863
  847MOL0     H14307  -1.868   9.660   2.895 -1.3893 -1.1015 -0.0188
  847MOL0     H14308  -1.718   9.612   2.835 -0.9465 -1.0491 -1.1786
  847MOL0     H14309  -2.252   9.427   3.120 -0.6488  0.3029  1.1702
  847MOL0     H14310  -2.485   9.517   3.153 -0.3110  0.4299 -0.0269
  847MOL0     H14311  -2.540   9.959   3.015  1.4593  0.1503 -1.3045
  847MOL0     H14312  -2.592   9.853   2.884  1.1603 -2.1505  0.4555
  847MOL0     H14313  -2.765   9.881   3.117  0.2798 -0.1513  0.5738
  847MOL0     H14314  -2.787  10.003   3.005 -0.3835 -0.6159  3.6423
  847MOL0     H14315  -2.801   9.708   2.919  2.0607  0.8604  1.5743
  847MOL0     H14316  -2.815   9.843   2.805 -0.0456 -1.4499 -0.0201
  847MOL0     H14317  -3.001   9.772   3.036 -0.4090  0.1416  0.0538
  847MOL0     H14318  -3.015   9.911   2.926 -3.4690 -1.4037 -2.5316
  847MOL0     H14319  -3.045   9.781   2.733 -0.8223 -1.5332 -1.6337
  847MOL0     H14320  -3.167   9.737   2.849  0.2700 -0.7050 -0.3072
  847MOL0     H14321  -2.936   9.569   2.765  0.4178 -1.5606  0.7683
  847MOL0     H14322  -3.019   9.547   2.924 -1.8431 -2.1808  0.0218
  847MOL0     H14323  -3.128   9.497   2.646  0.0019 -4.2794  0.5067
  847MOL0     H14324  -3.234   9.517   2.789  0.3035  1.8647 -0.5672
  847MOL0     H14325  -3.187   9.293   2.733 -0.0418 -0.4677  0.3837
  847MOL0     H14326  -3.138   9.327   2.903  2.1205 -2.4073  0.0865
  847MOL0     H14327  -2.332   9.899   3.036 -1.2165 -0.6073  0.2460
  847MOL0     H14328  -2.113   9.817   3.045  0.3042 -1.2167 -3.3196
  847MOL0     H14329  -1.804   9.445   3.371  1.3625  1.2953  1.0277
  847MOL0     H14330  -1.569   9.395   3.356  1.7084  2.1767  0.5964
  847MOL0     H14331   0.070   9.823   3.327 -0.4758  1.7395 -0.4964
  847MOL0     H14332   0.315   9.841   3.388  2.8039  0.6062 -1.4451
  847MOL0     H14333   0.739  10.042   3.442  0.1058 -3.0736  2.6718
  847MOL0     H14334   0.979  10.081   3.417  2.4477 -1.4183 -0.1368
  847MOL0     H14335   1.229   9.745   3.262 -1.0255  1.5747  4.4581
  847MOL0     H14336   1.213   9.851   3.107  0.4875  0.4724 -1.0190
  847MOL0     H14337   1.412   9.976   3.182  2.6448 -2.3016 -3.6114
  847MOL0     H14338   1.433   9.801   3.177  0.2416  0.8775 -0.7363
  847MOL0     H14339   1.421   9.805   3.436 -1.9844  0.0635 -0.3612
  847MOL0     H14340   1.359   9.965   3.444  0.2004 -0.4073  0.1490
  847MOL0     H14341   1.631   9.947   3.305  0.2169  0.3116  1.5064
  847MOL0     H14342   1.629   9.928   3.481  0.9196 -1.0097 -0.9587
  847MOL0     H14343   1.483  10.324   3.462 -3.5246  0.7501 -3.4371
  847MOL0     H14344   0.991   9.735   3.159 -0.3393 -1.0577  0.5514
  847MOL0     H14345   0.748   9.713   3.160 -2.4087  1.4720  0.5975
  848MOL0     O14346   1.197   5.290   0.557 -0.2956 -1.8240  0.8555
  848MOL0     C14347   1.272   5.392   0.574  0.0258  0.1125  0.3131
  848MOL0     O14348   1.240   5.504   0.653 -0.3473  0.1496  0.0056
  848MOL0     C14349   1.115   5.527   0.698  0.1728  1.0165 -0.5176
  848MOL0     C14350   0.995   5.467   0.646 -0.0510 -0.1115 -1.0183
  848MOL0     C14351   0.881   5.478   0.713  0.4660  0.0091 -0.4622
  848MOL0     C14352   0.872   5.549   0.833 -0.1814  0.2853 -0.0963
  848MOL0     O14353   0.754   5.541   0.903  0.2078 -0.1620 -0.2120
  848MOL0     C14354   0.757   5.541   1.042  0.2948  0.0643 -0.8670
  848MOL0     C14355   0.636   5.505   1.115 -0.5705  0.8112 -0.1263
  848MOL0     C14356   0.524   5.605   1.077 -0.1721  0.3861 -0.1361
  848MOL0     C14357   0.395   5.565   1.140 -0.2815  0.5571 -0.7920
  848MOL0     C14358   0.275   5.640   1.088 -0.8822 -0.4596  0.0437
  848MOL0     C14359   0.142   5.573   1.130 -0.2317 -0.3264  0.0201
  848MOL0     C14360   0.111   5.555   1.282 -0.0594  0.6251  0.0206
  848MOL0     C14361   0.068   5.692   1.349 -0.1152  0.4794  0.0240
  848MOL0     N14362   0.040   5.663   1.489  0.3499  0.5545  0.4337
  848MOL0     C14363  -0.072   5.618   1.545  0.8545  1.2000 -1.4342
  848MOL0     C14364  -0.041   5.601   1.682  0.1093 -0.1778  0.1950
  848MOL0     C14365  -0.110   5.530   1.796  0.5562  0.0706 -0.1106
  848MOL0     C14366  -0.265   5.502   1.778 -0.0488 -0.9625  0.3492
  848MOL0     C14367  -0.347   5.623   1.808  0.0900  0.4967 -1.0922
  848MOL0     C14368  -0.492   5.597   1.768 -0.8265 -0.6534  0.8897
  848MOL0     O14369  -0.590   5.698   1.798 -0.1069  0.0824  0.0525
  848MOL0     C14370  -0.710   5.709   1.734 -0.2292  0.4454 -0.0298
  848MOL0     C14371  -0.760   5.612   1.640 -0.0261  0.3314 -0.6463
  848MOL0     C14372  -0.889   5.610   1.597  0.1531 -0.7274  0.3809
  848MOL0     C14373  -0.927   5.500   1.503  0.1960  0.1527 -0.8199
  848MOL0     C14374  -0.978   5.714   1.633  0.3912  0.1532 -0.7679
  848MOL0     C14375  -1.126   5.710   1.601 -0.2175 -0.3951  0.5880
  848MOL0     O14376  -1.199   5.770   1.695  0.4830 -0.9722 -0.5289
  848MOL0     C14377  -1.336   5.774   1.696  0.2178  0.2358 -0.7519
  848MOL0     C14378  -1.421   5.707   1.609  0.8398 -0.4068 -0.3358
  848MOL0     C14379  -1.558   5.717   1.631 -0.4735  0.1496 -0.6094
  848MOL0     C14380  -1.609   5.780   1.739  0.3761  0.4152  0.2061
  848MOL0     O14381  -1.743   5.768   1.774 -0.2577  0.1833 -0.4774
  848MOL0     C14382  -1.830   5.816   1.674  0.2219  0.1825  0.0834
  848MOL0     C14383  -1.968   5.828   1.734 -0.4475  0.0330 -0.3709
  848MOL0     C14384  -2.076   5.870   1.634  0.1543 -0.1642  0.0421
  848MOL0     C14385  -2.213   5.891   1.708  0.2895  0.2566 -0.4484
  848MOL0     C14386  -2.321   5.932   1.612  0.7569 -0.3438 -0.5386
  848MOL0     C14387  -2.311   6.063   1.544 -0.6214  0.2004  0.4672
  848MOL0     C14388  -2.421   6.086   1.438 -0.5481  0.0757 -0.0705
  848MOL0     C14389  -2.558   6.090   1.495  0.4488  1.0297  0.0875
  848MOL0    Cl14390  -2.649   5.941   1.495 -0.0959  0.2960  0.3016
  848MOL0     C14391  -1.520   5.835   1.828  0.4084  0.1749 -0.1158
  848MOL0     C14392  -1.382   5.836   1.811 -0.1109  0.2688  0.3557
  848MOL0     O14393  -1.166   5.677   1.487  0.1222 -0.4916  0.5380
  848MOL0     C14394  -0.930   5.821   1.715  0.4521 -0.5238 -0.1039
  848MOL0     C14395  -0.799   5.809   1.767  0.1664  0.4410  0.4222
  848MOL0     N14396   0.084   5.661   1.699  0.0482 -0.2819 -0.7960
  848MOL0     N14397   0.120   5.699   1.586  0.1564  0.7080  0.3324
  848MOL0     C14398   0.984   5.613   0.886 -0.2119  0.5153  0.2536
  848MOL0     C14399   1.108   5.595   0.822 -0.1839  0.1180 -0.6315
  848MOL0     C14400   1.403   5.404   0.506  0.9827  1.1726  0.0051
  848MOL0     C14401   1.440   5.323   0.396  0.3242 -0.3459 -0.0675
  848MOL0     C14402   1.565   5.334   0.332  0.6079  0.5923 -0.2032
  848MOL0     C14403   1.658   5.426   0.382  0.2783 -0.7234  0.0846
  848MOL0     O14404   1.782   5.451   0.318 -1.0209 -0.3362  0.3922
  848MOL0     C14405   1.811   5.385   0.190  1.0127 -0.1317 -0.3346
  848MOL0     C14406   1.914   5.448   0.103 -0.9049 -0.3182  0.2509
  848MOL0     C14407   1.862   5.585   0.050 -0.4982  0.4843 -0.1736
  848MOL0     C14408   1.949   5.625  -0.070  0.1135 -0.3029 -0.2638
  848MOL0     C14409   2.085   5.647  -0.034 -0.7834 -0.0499 -0.1526
  848MOL0     C14410   2.207   5.669  -0.024  0.7700  0.3498 -0.0243
  848MOL0     C14411   1.628   5.501   0.495 -0.1067  0.7784 -0.2943
  848MOL0     C14412   1.499   5.497   0.553 -0.4077  0.4169 -0.0487
  848MOL0     H14413   0.994   5.427   0.546  1.9609 -2.7758 -0.0881
  848MOL0     H14414   0.790   5.430   0.678 -1.0600  2.2836  0.0898
  848MOL0     H14415   0.831   5.470   1.077 -0.5847  0.5860  2.3954
  848MOL0     H14416   0.786   5.635   1.090  0.3802 -1.0869  1.4942
  848MOL0     H14417   0.599   5.404   1.095  0.7910 -0.7313  4.1906
  848MOL0     H14418   0.659   5.508   1.221  0.5342 -0.1955 -0.3125
  848MOL0     H14419   0.562   5.697   1.121  1.1869  0.5152 -1.4773
  848MOL0     H14420   0.509   5.616   0.969  1.0439 -0.8411 -0.4678
  848MOL0     H14421   0.372   5.460   1.119  0.3447  0.6701 -2.0943
  848MOL0     H14422   0.402   5.583   1.248 -1.2584  3.3467 -1.1306
  848MOL0     H14423   0.293   5.742   1.123  0.2479  0.6000 -3.2242
  848MOL0     H14424   0.281   5.651   0.979 -0.8236  0.0545  0.0915
  848MOL0     H14425   0.060   5.626   1.083  0.8669  1.7088  0.2979
  848MOL0     H14426   0.161   5.475   1.085  0.2231 -0.8970  1.3887
  848MOL0     H14427   0.031   5.481   1.291 -1.3585  1.7216 -1.7507
  848MOL0     H14428   0.195   5.503   1.329 -0.6874 -1.4623 -1.0254
  848MOL0     H14429  -0.025   5.734   1.310  0.8873  1.8024 -1.0760
  848MOL0     H14430   0.140   5.774   1.350 -0.3793  0.7151 -0.0627
  848MOL0     H14431  -0.167   5.596   1.498 -1.5248  4.9385  1.0171
  848MOL0     H14432  -0.052   5.437   1.804  1.7360  0.4415 -2.9974
  848MOL0     H14433  -0.097   5.577   1.895 -1.3123  0.1675  0.1135
  848MOL0     H14434  -0.277   5.422   1.852  2.0847  0.0375  1.8829
  848MOL0     H14435  -0.284   5.476   1.673 -0.6511  0.8854 -0.0345
  848MOL0     H14436  -0.300   5.710   1.761  0.1643  0.7129 -0.6204
  848MOL0     H14437  -0.352   5.624   1.917  0.0495 -3.2136 -0.9468
  848MOL0     H14438  -0.520   5.497   1.800  1.7314 -0.7543  3.1575
  848MOL0     H14439  -0.488   5.593   1.659  1.1816  1.6935  0.7715
  848MOL0     H14440  -0.695   5.537   1.595  2.6007  1.5574  0.8450
  848MOL0     H14441  -0.840   5.440   1.475  1.5528  1.2317  0.9254
  848MOL0     H14442  -1.006   5.442   1.550  2.8333 -1.7581  1.5360
  848MOL0     H14443  -0.954   5.546   1.407  1.5340  2.2816 -0.2456
  848MOL0     H14444  -1.394   5.639   1.528  0.9064 -2.3491  1.2513
  848MOL0     H14445  -1.633   5.672   1.568  0.9659 -0.2353 -2.1087
  848MOL0     H14446  -1.795   5.914   1.640 -1.0906  1.4570  2.1837
  848MOL0     H14447  -1.825   5.748   1.588  4.8765  1.6638 -1.1056
  848MOL0     H14448  -2.006   5.735   1.776 -2.4723  1.1661  0.4960
  848MOL0     H14449  -1.966   5.901   1.816 -1.4992 -0.2284 -0.0955
  848MOL0     H14450  -2.094   5.791   1.560 -0.0984 -1.6844  1.6581
  848MOL0     H14451  -2.042   5.966   1.594  0.6387  1.8571  4.7457
  848MOL0     H14452  -2.243   5.799   1.760 -1.8585  0.9950 -0.2511
  848MOL0     H14453  -2.212   5.964   1.790  1.7600 -1.5241  1.2279
  848MOL0     H14454  -2.417   5.930   1.663  0.8876 -0.1284 -0.2852
  848MOL0     H14455  -2.335   5.853   1.537  1.1459 -1.9233  0.9837
  848MOL0     H14456  -2.296   6.139   1.621  0.5322 -0.4814  0.9322
  848MOL0     H14457  -2.212   6.064   1.497 -1.1089  0.8934 -0.5912
  848MOL0     H14458  -2.415   6.011   1.359 -0.3518  0.0031  0.0130
  848MOL0     H14459  -2.395   6.182   1.393  1.6162  1.2606  3.3595
  848MOL0     H14460  -2.613   6.162   1.434  2.0427  0.5416 -2.0680
  848MOL0     H14461  -2.562   6.137   1.594  0.9317  2.1262 -0.3953
  848MOL0     H14462  -1.555   5.877   1.922  0.2428  0.4995 -0.3244
  848MOL0     H14463  -1.318   5.876   1.889 -2.5996 -0.5255  2.9886
  848MOL0     H14464  -0.988   5.904   1.755  1.2770 -1.0272  2.3348
  848MOL0     H14465  -0.761   5.881   1.838  4.2012 -0.7366 -0.2690
  848MOL0     H14466   0.983   5.687   0.965 -1.2342  0.8627 -0.0791
  848MOL0     H14467   1.202   5.633   0.861  0.6309 -1.4613 -0.9334
  848MOL0     H14468   1.364   5.249   0.374  1.0738 -2.1497  2.8107
  848MOL0     H14469   1.579   5.267   0.248 -0.5151  0.8937 -0.6563
  848MOL0     H14470   1.853   5.286   0.208  1.0330  0.2351  2.0669
  848MOL0     H14471   1.724   5.369   0.127  0.9582  0.4438 -0.4109
  848MOL0     H14472   1.953   5.389   0.020 -3.0469  0.0573 -1.1017
  848MOL0     H14473   2.003   5.472   0.162  0.0742  2.6502 -2.2252
  848MOL0     H14474   1.873   5.656   0.132  2.5882 -0.8913  0.7745
  848MOL0     H14475   1.757   5.588   0.018 -1.3347  0.2256  2.3167
  848MOL0     H14476   1.915   5.719  -0.114  0.3862  0.6777  1.5383
  848MOL0     H14477   1.953   5.550  -0.150  2.0857  1.3323 -1.8148
  848MOL0     H14478   2.305   5.708  -0.004 -0.4693  3.3551  0.6938
  848MOL0     H14479   1.705   5.568   0.534 -0.2547  1.4448 -1.0994
  848MOL0     H14480   1.476   5.559   0.639 -3.4132 -0.4793 -0.1167
  849MOL0     O14481   3.385   4.262   9.165 -0.7427 -0.1276 -0.4328
  849MOL0     C14482   3.295   4.190   9.215 -0.1232 -0.0587 -0.4764
  849MOL0     O14483   3.162   4.200   9.187 -0.2422 -0.3199  0.1181
  849MOL0     C14484   3.131   4.283   9.085  0.5219  0.3165  1.2272
  849MOL0     C14485   3.045   4.391   9.097 -0.4329  0.5534  0.6073
  849MOL0     C14486   3.008   4.474   8.995  0.0030 -0.5427 -0.8004
  849MOL0     C14487   3.051   4.462   8.869 -0.6945 -0.2556  0.6362
  849MOL0     O14488   3.013   4.549   8.772 -0.0100 -0.3367  0.4532
  849MOL0     C14489   3.072   4.527   8.644  0.4077  0.0799  0.9242
  849MOL0     C14490   3.055   4.649   8.554 -1.0192 -0.3166  0.1460
  849MOL0     C14491   3.106   4.619   8.402  0.5575 -0.5129 -0.3775
  849MOL0     C14492   2.992   4.544   8.326  0.2471 -0.3568 -0.4523
  849MOL0     C14493   3.035   4.488   8.192  0.1516 -0.1688  0.8922
  849MOL0     C14494   3.120   4.357   8.212 -0.0341  0.5515  0.0298
  849MOL0     C14495   3.236   4.350   8.114 -0.2271  0.4782 -0.1881
  849MOL0     C14496   3.259   4.198   8.077  0.4113  0.0673 -0.4692
  849MOL0     N14497   3.324   4.167   7.951 -0.2943  0.4342  0.2751
  849MOL0     C14498   3.458   4.154   7.925 -0.8849  0.1032 -0.5489
  849MOL0     C14499   3.469   4.113   7.800 -0.4474  0.3620 -0.0075
  849MOL0     C14500   3.591   4.084   7.714 -1.0110 -0.3597 -0.5693
  849MOL0     C14501   3.685   4.205   7.698  0.3067  0.3379  0.0436
  849MOL0     C14502   3.789   4.199   7.591 -0.9321  0.1125 -0.2961
  849MOL0     C14503   3.862   4.067   7.576  0.1761 -0.1503  0.0708
  849MOL0     O14504   3.993   4.077   7.508  0.2479 -0.4700 -0.1740
  849MOL0     C14505   4.107   4.085   7.580 -0.1314  0.0139  0.1162
  849MOL0     C14506   4.113   4.112   7.716  0.0934  0.4814 -0.7169
  849MOL0     C14507   4.243   4.126   7.780  0.3817  0.7276  1.0380
  849MOL0     C14508   4.243   4.183   7.920 -0.0789 -0.1487  0.3728
  849MOL0     C14509   4.356   4.093   7.706 -1.4917  0.5196 -0.9110
  849MOL0     C14510   4.494   4.073   7.769 -0.0427  0.8792  0.7755
  849MOL0     O14511   4.591   4.058   7.669 -0.3458 -0.1863 -0.9698
  849MOL0     C14512   4.723   4.055   7.698  0.1088 -0.1437  0.4439
  849MOL0     C14513   4.782   4.147   7.780 -0.1059  0.3349 -0.1993
  849MOL0     C14514   4.917   4.151   7.790 -1.0362  1.4653  0.1207
  849MOL0     C14515   5.006   4.069   7.712  0.4044  0.4838  0.0413
  849MOL0     O14516   5.143   4.079   7.732  0.6521 -0.2144  0.5138
  849MOL0     C14517   5.236   4.003   7.648  0.2076 -0.3853 -0.0683
  849MOL0     C14518   5.376   4.012   7.707 -0.7797  0.6258  0.1988
  849MOL0     C14519   5.425   4.154   7.689 -0.4566  0.7778  0.2855
  849MOL0     C14520   5.547   4.189   7.767 -0.4283  0.5168 -0.2389
  849MOL0     C14521   5.678   4.125   7.725 -0.8533  0.5116 -0.5963
  849MOL0     C14522   5.753   4.205   7.626  0.6522  0.7058  0.7090
  849MOL0     C14523   5.875   4.132   7.580 -0.9621 -0.2002 -0.1615
  849MOL0     C14524   5.987   4.105   7.683 -0.6644 -0.2326  0.2881
  849MOL0    Cl14525   6.096   3.973   7.617 -0.5316  0.0848  0.0475
  849MOL0     C14526   4.942   3.986   7.621  0.2681  0.5376 -1.3286
  849MOL0     C14527   4.804   3.978   7.615  0.0327 -0.0260 -0.4754
  849MOL0     O14528   4.506   4.054   7.887 -0.5238 -0.0856  0.2125
  849MOL0     C14529   4.350   4.066   7.574 -0.8210  0.4729  0.1305
  849MOL0     C14530   4.231   4.060   7.511 -0.1698  0.9701 -0.0896
  849MOL0     N14531   3.339   4.089   7.751 -0.0646 -0.2798 -0.6139
  849MOL0     N14532   3.257   4.125   7.844  0.2595  0.6329  0.1841
  849MOL0     C14533   3.126   4.346   8.845 -0.3208  1.1826  0.2576
  849MOL0     C14534   3.165   4.257   8.952  0.0781 -0.9001 -0.6514
  849MOL0     C14535   3.328   4.072   9.302  0.9131  0.2988  0.2308
  849MOL0     C14536   3.219   3.988   9.361  0.2447 -0.9533  0.0899
  849MOL0     C14537   3.254   3.873   9.432 -0.7110  0.3647 -0.6316
  849MOL0     C14538   3.378   3.851   9.478  0.3250 -0.1453 -0.7883
  849MOL0     O14539   3.389   3.747   9.560 -0.1782 -0.8142 -0.2715
  849MOL0     C14540   3.514   3.696   9.611 -0.3417 -0.0060  0.1658
  849MOL0     C14541   3.541   3.569   9.547 -0.0556 -0.3569  0.7555
  849MOL0     C14542   3.690   3.526   9.576 -0.0439  0.0015 -0.3122
  849MOL0     C14543   3.803   3.589   9.496 -0.2964  0.5045  0.5862
  849MOL0     C14544   3.932   3.538   9.539  0.5756 -0.4441  0.0439
  849MOL0     C14545   4.044   3.507   9.569  0.3634 -0.6328 -1.2020
  849MOL0     C14546   3.483   3.931   9.434 -0.9742 -0.6614 -0.0338
  849MOL0     C14547   3.461   4.041   9.348 -0.5440  0.1447  0.2155
  849MOL0     H14548   3.016   4.417   9.199  4.0352  1.8369  1.7528
  849MOL0     H14549   2.953   4.567   9.003  0.9321 -0.1410  1.8940
  849MOL0     H14550   3.181   4.533   8.652  0.5940  0.1575 -1.1440
  849MOL0     H14551   3.047   4.431   8.599 -0.1454  0.3969  0.5426
  849MOL0     H14552   2.947   4.665   8.552 -0.9012  0.5680  0.2497
  849MOL0     H14553   3.099   4.738   8.601 -0.5571 -1.5038  2.0499
  849MOL0     H14554   3.145   4.700   8.340 -0.8312 -0.1390 -0.7760
  849MOL0     H14555   3.198   4.559   8.407 -0.0148 -1.6270 -2.4258
  849MOL0     H14556   2.949   4.465   8.388  1.6032 -2.3776 -1.9407
  849MOL0     H14557   2.911   4.612   8.298 -2.9895 -3.4173  0.6015
  849MOL0     H14558   2.949   4.455   8.132  1.7102 -3.3715  0.2141
  849MOL0     H14559   3.092   4.559   8.132 -2.3818  0.3101 -1.1453
  849MOL0     H14560   3.161   4.352   8.313 -1.3647  2.0676  0.6926
  849MOL0     H14561   3.052   4.271   8.206 -0.2294  0.6131  1.1294
  849MOL0     H14562   3.223   4.400   8.018 -1.6405 -1.1664 -0.9038
  849MOL0     H14563   3.331   4.386   8.156  0.1045  1.1212 -1.4510
  849MOL0     H14564   3.163   4.148   8.066  0.9325 -0.5760 -2.8314
  849MOL0     H14565   3.311   4.150   8.159  0.8413  3.5783  1.5328
  849MOL0     H14566   3.543   4.177   7.989 -0.1984 -0.5089 -1.2186
  849MOL0     H14567   3.639   3.988   7.738 -0.8362 -0.1303  0.0151
  849MOL0     H14568   3.549   4.074   7.614  3.0959  1.3405 -2.7154
  849MOL0     H14569   3.723   4.236   7.796 -1.4038  1.7585  0.3240
  849MOL0     H14570   3.624   4.294   7.677  2.0419  1.3646 -0.9287
  849MOL0     H14571   3.864   4.277   7.608 -0.1448 -0.5207 -0.7823
  849MOL0     H14572   3.737   4.227   7.500  2.0799  2.8141 -1.3963
  849MOL0     H14573   3.789   4.015   7.513 -0.4020  1.4174 -0.6026
  849MOL0     H14574   3.866   4.021   7.675 -4.4117  1.8241  1.4489
  849MOL0     H14575   4.021   4.149   7.760  0.3876  1.8392 -1.1914
  849MOL0     H14576   4.241   4.099   7.989  0.7208 -0.6267 -0.1704
  849MOL0     H14577   4.329   4.249   7.935 -0.8165  1.8396 -2.9939
  849MOL0     H14578   4.150   4.236   7.940  0.1382 -0.4495  2.3362
  849MOL0     H14579   4.713   4.197   7.847  0.6052  0.7916  0.2133
  849MOL0     H14580   4.973   4.211   7.860 -1.7107  1.6412  0.5144
  849MOL0     H14581   5.206   3.898   7.648 -1.2390 -0.0055  0.7812
  849MOL0     H14582   5.239   4.036   7.544 -1.6041 -1.9197 -0.6720
  849MOL0     H14583   5.380   3.975   7.810 -1.7505 -1.1242 -0.3471
  849MOL0     H14584   5.449   3.946   7.658  1.2125  1.2959  2.0751
  849MOL0     H14585   5.349   4.218   7.734  0.4944  1.9635  0.2665
  849MOL0     H14586   5.438   4.181   7.584  0.5106  2.0943  0.7107
  849MOL0     H14587   5.559   4.298   7.759 -1.2860  0.7487  1.2190
  849MOL0     H14588   5.531   4.169   7.873  0.5171  1.1626  0.0487
  849MOL0     H14589   5.678   4.020   7.694 -1.8766  0.5233 -0.6660
  849MOL0     H14590   5.738   4.130   7.816 -0.0855 -0.8521 -0.9986
  849MOL0     H14591   5.690   4.231   7.540 -1.1571  0.5772  1.9299
  849MOL0     H14592   5.781   4.301   7.670 -0.7696  1.8034 -0.6827
  849MOL0     H14593   5.916   4.184   7.493  1.1888 -1.2574  0.1604
  849MOL0     H14594   5.847   4.028   7.559  0.7562 -1.1216  1.6947
  849MOL0     H14595   5.939   4.070   7.774 -2.1257  2.1206  0.5311
  849MOL0     H14596   6.043   4.197   7.705 -0.2048  0.1240 -2.0652
  849MOL0     H14597   4.991   3.912   7.559  0.2378 -0.0515 -0.6613
  849MOL0     H14598   4.747   3.915   7.547  0.7430 -1.5545  0.2930
  849MOL0     H14599   4.432   4.044   7.506 -1.2343 -0.3608 -0.1184
  849MOL0     H14600   4.231   4.050   7.403  1.7462  1.7032 -0.1934
  849MOL0     H14601   3.152   4.317   8.744  2.1606  2.9237  0.3196
  849MOL0     H14602   3.218   4.166   8.926  1.2249  0.2208 -2.4846
  849MOL0     H14603   3.119   4.001   9.321 -0.8762  0.9050  3.1619
  849MOL0     H14604   3.187   3.796   9.468 -2.1010  0.7466 -2.2849
  849MOL0     H14605   3.601   3.761   9.593 -0.2509  0.3201  1.6793
  849MOL0     H14606   3.506   3.677   9.718 -0.9760 -0.7856 -0.0048
  849MOL0     H14607   3.528   3.587   9.440  0.1317 -1.7640  0.4660
  849MOL0     H14608   3.472   3.488   9.572  1.6443 -2.0540  0.2219
  849MOL0     H14609   3.697   3.417   9.570 -0.7366 -0.0639 -0.0207
  849MOL0     H14610   3.705   3.545   9.682 -4.2028 -0.8275  0.6005
  849MOL0     H14611   3.803   3.696   9.522 -0.4173  0.6729 -0.0866
  849MOL0     H14612   3.791   3.570   9.389 -1.3106 -1.8709  1.0689
  849MOL0     H14613   4.143   3.469   9.583 -0.5945 -2.6444  0.5131
  849MOL0     H14614   3.586   3.915   9.462 -0.1960  0.9998 -1.7052
  849MOL0     H14615   3.546   4.100   9.316  1.4356 -1.8027  1.5930
  850MOL0     O14616   6.660   2.815   6.337 -0.0708 -1.2666  0.4390
  850MOL0     C14617   6.668   2.703   6.299 -0.4838 -0.5390 -0.5539
  850MOL0     O14618   6.564   2.626   6.267  0.6164 -0.5813  0.2623
  850MOL0     C14619   6.436   2.677   6.267  0.4703  0.4516 -0.9458
  850MOL0     C14620   6.385   2.776   6.179 -0.0844 -0.2050  0.3517
  850MOL0     C14621   6.244   2.798   6.181  0.7558  0.3340 -0.3120
  850MOL0     C14622   6.160   2.725   6.253  0.1520  0.4606 -0.3280
  850MOL0     O14623   6.033   2.772   6.256 -0.0686 -0.4312  0.2099
  850MOL0     C14624   5.938   2.698   6.327 -0.3099  0.4544  0.0358
  850MOL0     C14625   5.798   2.748   6.295  0.5337 -0.7344  0.0009
  850MOL0     C14626   5.685   2.640   6.309 -0.0978  0.0775  0.4433
  850MOL0     C14627   5.545   2.694   6.295 -0.6624  0.6397  0.2162
  850MOL0     C14628   5.441   2.572   6.298  0.2923 -0.1713  1.0724
  850MOL0     C14629   5.300   2.624   6.327  0.3727  0.1762  0.0232
  850MOL0     C14630   5.191   2.525   6.357 -0.5179 -0.1458  0.1262
  850MOL0     C14631   5.146   2.458   6.236  0.6257  0.3652  0.6769
  850MOL0     N14632   5.049   2.361   6.281  0.0275  0.8721 -0.4821
  850MOL0     C14633   5.079   2.225   6.295  0.5632  0.3722  0.2193
  850MOL0     C14634   4.962   2.175   6.336  0.3310  0.2853  0.3115
  850MOL0     C14635   4.939   2.032   6.369  0.4730  0.0988 -0.5229
  850MOL0     C14636   4.794   1.973   6.356 -0.3180  0.6314  0.0944
  850MOL0     C14637   4.713   1.989   6.490 -0.1438  0.5815  0.1810
  850MOL0     C14638   4.587   1.896   6.481 -0.0090  0.3693 -0.0852
  850MOL0     O14639   4.525   1.941   6.360  0.0445 -0.6900  0.4599
  850MOL0     C14640   4.386   1.914   6.350  0.5219 -0.2470 -0.7924
  850MOL0     C14641   4.295   2.014   6.367  0.1474 -0.1449 -0.0999
  850MOL0     C14642   4.158   2.005   6.352  0.1829  0.3779  0.7168
  850MOL0     C14643   4.088   2.140   6.345  0.8409 -0.5475 -0.1646
  850MOL0     C14644   4.106   1.873   6.320  0.3702  0.8986  0.3225
  850MOL0     C14645   3.964   1.845   6.282 -0.2878 -0.1059  0.0137
  850MOL0     O14646   3.932   1.714   6.281  0.3227  0.7282 -0.3180
  850MOL0     C14647   3.800   1.692   6.308 -0.0361 -0.0188 -0.1535
  850MOL0     C14648   3.763   1.662   6.434  0.2750  0.1449 -0.3702
  850MOL0     C14649   3.629   1.613   6.465 -0.6656 -0.2937 -0.0692
  850MOL0     C14650   3.540   1.610   6.359  0.1249 -0.0010  0.0673
  850MOL0     O14651   3.420   1.539   6.365 -0.3125  0.0130  0.0380
  850MOL0     C14652   3.313   1.612   6.411  0.4655  0.5791  0.4260
  850MOL0     C14653   3.196   1.517   6.442  0.3603 -0.5062  0.0504
  850MOL0     C14654   3.087   1.590   6.520  0.2569 -0.6945 -0.3734
  850MOL0     C14655   2.998   1.467   6.569 -0.2025 -0.4957  0.4360
  850MOL0     C14656   2.881   1.508   6.663 -0.3063 -0.3572 -0.4065
  850MOL0     C14657   2.764   1.415   6.645 -0.1060 -0.7550  0.0119
  850MOL0     C14658   2.693   1.434   6.517  0.0893 -0.7820 -0.7949
  850MOL0     C14659   2.562   1.346   6.510  0.0326  0.0475 -0.8233
  850MOL0    Cl14660   2.432   1.407   6.617  0.3364  0.3453 -0.0140
  850MOL0     C14661   3.573   1.655   6.234  0.1064 -0.1898 -0.4541
  850MOL0     C14662   3.706   1.700   6.208 -0.2713  0.5494  0.2981
  850MOL0     O14663   3.894   1.940   6.257  0.8012 -0.2688 -0.3912
  850MOL0     C14664   4.199   1.764   6.317 -0.1804  1.0180 -0.6589
  850MOL0     C14665   4.334   1.787   6.327 -0.4589  0.5497 -0.4790
  850MOL0     N14666   4.872   2.273   6.357  0.0872  0.2137  0.0362
  850MOL0     N14667   4.917   2.380   6.323  0.3375 -0.0137 -1.4297
  850MOL0     C14668   6.210   2.629   6.345 -0.1148  0.2404 -0.1456
  850MOL0     C14669   6.345   2.598   6.339 -0.4221 -0.4173 -0.2203
  850MOL0     C14670   6.802   2.644   6.290  0.3747  0.4946  0.0802
  850MOL0     C14671   6.912   2.709   6.345 -0.4854 -0.5281  0.4037
  850MOL0     C14672   7.038   2.653   6.348 -0.4199  0.8325 -0.0765
  850MOL0     C14673   7.056   2.518   6.307  0.0665 -0.2589 -0.8619
  850MOL0     O14674   7.181   2.456   6.306 -0.6269  0.1696 -0.2930
  850MOL0     C14675   7.300   2.525   6.337  0.3576  0.5911  0.4739
  850MOL0     C14676   7.409   2.436   6.334  0.3123 -0.6322 -1.1554
  850MOL0     C14677   7.416   2.343   6.458  0.1153  0.0459  0.1999
  850MOL0     C14678   7.553   2.278   6.464  0.1540  0.5519  0.2048
  850MOL0     C14679   7.571   2.181   6.357  0.1098 -0.0514  0.0207
  850MOL0     C14680   7.582   2.097   6.272  0.3575 -0.4698 -0.9558
  850MOL0     C14681   6.949   2.447   6.262  0.2141  0.4549 -0.3006
  850MOL0     C14682   6.822   2.510   6.249 -0.0662 -0.1383  0.2930
  850MOL0     H14683   6.448   2.825   6.105  0.9079  1.4096  2.1728
  850MOL0     H14684   6.212   2.881   6.119  1.1005  0.5268 -0.2343
  850MOL0     H14685   5.952   2.594   6.298 -0.7784 -0.0562  1.5245
  850MOL0     H14686   5.954   2.701   6.435 -1.0026 -1.0028  0.2044
  850MOL0     H14687   5.777   2.840   6.352  1.4791 -0.4299 -0.1142
  850MOL0     H14688   5.801   2.772   6.188 -0.8891  1.2251  0.3512
  850MOL0     H14689   5.693   2.560   6.234 -2.1967  0.0856  0.1325
  850MOL0     H14690   5.703   2.597   6.407 -0.5671  1.4106  1.1387
  850MOL0     H14691   5.519   2.735   6.393 -3.6241 -2.2373  0.8235
  850MOL0     H14692   5.533   2.766   6.214 -1.1319 -1.3337 -1.5499
  850MOL0     H14693   5.440   2.513   6.206 -0.7170  2.4041 -0.6893
  850MOL0     H14694   5.468   2.494   6.369 -3.0118 -1.7295  0.7914
  850MOL0     H14695   5.311   2.685   6.417 -0.3003 -1.3218  1.1718
  850MOL0     H14696   5.259   2.683   6.244 -2.2227  1.1702  1.8762
  850MOL0     H14697   5.233   2.447   6.422  3.5652  1.2301 -0.5829
  850MOL0     H14698   5.106   2.577   6.401  0.1597  1.6652 -0.6350
  850MOL0     H14699   5.220   2.393   6.188 -2.5789 -2.2446 -1.0983
  850MOL0     H14700   5.102   2.527   6.164 -0.5251 -0.7973  0.2417
  850MOL0     H14701   5.174   2.175   6.276  1.5377  2.0827  0.3392
  850MOL0     H14702   5.002   1.974   6.301  0.4450  0.1985 -0.6343
  850MOL0     H14703   4.977   2.023   6.471  1.8651  1.4028 -0.8962
  850MOL0     H14704   4.806   1.868   6.329  1.5855  0.8745 -0.1436
  850MOL0     H14705   4.750   2.029   6.274 -0.8883  0.1673  0.0771
  850MOL0     H14706   4.696   2.096   6.507 -1.5376  0.6730 -1.4962
  850MOL0     H14707   4.772   1.961   6.578  1.4040  2.1210 -0.3126
  850MOL0     H14708   4.524   1.921   6.567  0.2480  2.5619 -0.4751
  850MOL0     H14709   4.610   1.789   6.479  0.2994  0.4349 -0.0724
  850MOL0     H14710   4.350   2.103   6.398  1.1700 -0.4275 -1.0439
  850MOL0     H14711   4.159   2.223   6.358 -0.8562  0.8791  0.3806
  850MOL0     H14712   4.037   2.149   6.249 -0.0156 -1.3630  0.1995
  850MOL0     H14713   4.020   2.166   6.426  3.5758  2.7379  1.3811
  850MOL0     H14714   3.842   1.671   6.508 -0.0402 -1.1003  0.1558
  850MOL0     H14715   3.597   1.588   6.566 -1.3074 -1.6931 -0.6017
  850MOL0     H14716   3.338   1.662   6.505 -0.0932  0.0732  0.8498
  850MOL0     H14717   3.296   1.677   6.324  1.4929  1.3734  0.7974
  850MOL0     H14718   3.148   1.495   6.346  0.3745 -0.8664  0.1245
  850MOL0     H14719   3.240   1.427   6.486  3.5870  0.6221 -0.5267
  850MOL0     H14720   3.039   1.660   6.450 -1.0607 -3.0345 -1.9282
  850MOL0     H14721   3.120   1.650   6.606  0.3411 -0.9494 -0.2283
  850MOL0     H14722   2.955   1.425   6.478  2.4442  1.9807 -2.1740
  850MOL0     H14723   3.050   1.388   6.624  0.4526 -0.2627  0.1553
  850MOL0     H14724   2.852   1.611   6.639 -0.4789 -0.6836 -1.7094
  850MOL0     H14725   2.923   1.503   6.764  1.3975 -1.1700 -1.1127
  850MOL0     H14726   2.805   1.314   6.643 -0.6581 -0.9817  0.0588
  850MOL0     H14727   2.706   1.438   6.735  1.0756  1.5424  0.2725
  850MOL0     H14728   2.756   1.409   6.431  2.9042 -1.7613  1.3983
  850MOL0     H14729   2.663   1.539   6.508  0.3412 -0.7547 -1.3700
  850MOL0     H14730   2.594   1.244   6.533  1.1721  0.4615 -0.4967
  850MOL0     H14731   2.522   1.356   6.409 -1.2146 -0.9527 -0.4624
  850MOL0     H14732   3.502   1.632   6.156  1.5699  2.5136 -2.7770
  850MOL0     H14733   3.745   1.743   6.117  0.6922  0.6277  0.7275
  850MOL0     H14734   4.177   1.658   6.325  2.0803  0.3262 -2.5196
  850MOL0     H14735   4.394   1.696   6.332 -0.8016  0.1544 -2.5122
  850MOL0     H14736   6.143   2.569   6.406  1.4631  0.5728  2.0038
  850MOL0     H14737   6.395   2.522   6.398  1.4885 -1.9826 -3.5860
  850MOL0     H14738   6.902   2.808   6.389  1.7655 -1.1330  2.5069
  850MOL0     H14739   7.126   2.706   6.384 -0.0892  2.3333 -2.8187
  850MOL0     H14740   7.305   2.604   6.262 -1.3809  0.3368  0.0505
  850MOL0     H14741   7.294   2.568   6.437 -1.5281  2.0908 -0.2213
  850MOL0     H14742   7.498   2.499   6.335 -0.2313  0.1779  1.0939
  850MOL0     H14743   7.412   2.375   6.243  2.5086  0.3152 -1.7991
  850MOL0     H14744   7.334   2.271   6.461 -3.0385  3.3909  1.8146
  850MOL0     H14745   7.397   2.405   6.546  0.4192 -1.1954  1.1508
  850MOL0     H14746   7.558   2.226   6.559 -0.0072  1.2373  0.5950
  850MOL0     H14747   7.635   2.350   6.460  0.4341  0.2697  0.7534
  850MOL0     H14748   7.581   2.021   6.196  4.4758 -1.9068  0.2071
  850MOL0     H14749   6.953   2.343   6.232  1.7086  0.2832  0.3973
  850MOL0     H14750   6.737   2.449   6.219  0.1661 -0.2620 -0.1225
  851MOL0     O14751   4.388   2.758   0.327 -0.0672 -0.2684 -0.1491
  851MOL0     C14752   4.381   2.680   0.233 -0.7548  0.7726  0.1076
  851MOL0     O14753   4.268   2.633   0.179  0.3894 -0.0860 -0.6569
  851MOL0     C14754   4.150   2.650   0.254 -0.4336  0.0076  0.7290
  851MOL0     C14755   4.086   2.776   0.260 -0.1295  0.0618  0.2929
  851MOL0     C14756   3.959   2.786   0.319  0.8680 -0.4894  0.1955
  851MOL0     C14757   3.908   2.679   0.395 -0.1792 -0.0275 -0.0077
  851MOL0     O14758   3.798   2.705   0.475  0.5640 -0.3235  0.3503
  851MOL0     C14759   3.707   2.593   0.499  0.3149 -0.3747 -0.0583
  851MOL0     C14760   3.570   2.658   0.497 -0.8282 -0.7772 -0.2654
  851MOL0     C14761   3.458   2.556   0.508  0.0312 -0.0630  0.5288
  851MOL0     C14762   3.324   2.616   0.477  0.2134  0.0657  0.6383
  851MOL0     C14763   3.208   2.525   0.525 -0.4537  0.4052  0.3593
  851MOL0     C14764   3.208   2.387   0.447 -0.2511  0.3629 -0.4071
  851MOL0     C14765   3.091   2.295   0.479 -0.0625 -0.6269 -0.0513
  851MOL0     C14766   3.055   2.220   0.350 -0.3198  0.3960  0.7063
  851MOL0     N14767   2.946   2.124   0.364  0.2267  0.0578  0.5632
  851MOL0     C14768   2.948   1.999   0.418  0.7577  0.3790  0.9014
  851MOL0     C14769   2.814   1.958   0.417 -0.0451 -1.9514 -0.2412
  851MOL0     C14770   2.777   1.816   0.469 -1.0695  0.2451  0.4705
  851MOL0     C14771   2.755   1.716   0.356  0.4631 -0.1805  0.0022
  851MOL0     C14772   2.617   1.729   0.291  0.3283 -0.0371 -0.0051
  851MOL0     C14773   2.516   1.635   0.363  0.2582 -0.0416  0.2515
  851MOL0     O14774   2.381   1.669   0.330 -0.5605  0.4092  0.4609
  851MOL0     C14775   2.278   1.605   0.404 -0.2583 -0.3394  0.6392
  851MOL0     C14776   2.160   1.676   0.418  0.6186 -0.8348  0.5388
  851MOL0     C14777   2.053   1.644   0.501 -0.2319 -0.0894  1.0235
  851MOL0     C14778   1.936   1.740   0.517 -0.1290 -0.6209 -0.0107
  851MOL0     C14779   2.067   1.512   0.574  0.5363  0.1600 -0.1821
  851MOL0     C14780   1.965   1.457   0.653  0.3932  0.6941  0.6793
  851MOL0     O14781   1.998   1.350   0.730 -0.3131  0.3948  0.4782
  851MOL0     C14782   1.907   1.280   0.795  0.3745 -0.6579 -0.4974
  851MOL0     C14783   1.802   1.223   0.727  0.1090  0.4600  0.8495
  851MOL0     C14784   1.715   1.144   0.798 -0.1977  0.1955  0.2472
  851MOL0     C14785   1.713   1.133   0.937  0.5444 -0.3609 -0.5212
  851MOL0     O14786   1.625   1.051   1.006  0.1169  0.4026  0.0714
  851MOL0     C14787   1.482   1.055   0.999  0.4157  0.2710  0.4981
  851MOL0     C14788   1.431   1.158   1.095 -0.1706  0.4195  0.0388
  851MOL0     C14789   1.468   1.141   1.243  0.0794  0.3759 -0.3370
  851MOL0     C14790   1.449   1.264   1.330 -0.0832 -0.4445 -0.0725
  851MOL0     C14791   1.573   1.351   1.327 -0.1862 -0.6741  0.8029
  851MOL0     C14792   1.558   1.462   1.431 -0.7341  0.1146 -1.2407
  851MOL0     C14793   1.686   1.546   1.428 -0.1439 -0.4393  0.1624
  851MOL0     C14794   1.668   1.690   1.494  0.2764  0.4272  0.6064
  851MOL0    Cl14795   1.637   1.668   1.670  0.1146  0.1621  0.4389
  851MOL0     C14796   1.816   1.198   1.007  0.3520  0.1873 -0.0176
  851MOL0     C14797   1.909   1.280   0.935  0.4771 -0.8917 -0.3673
  851MOL0     O14798   1.852   1.507   0.649 -0.8137  0.3033 -0.4662
  851MOL0     C14799   2.195   1.448   0.562 -0.5075 -0.1267 -0.2239
  851MOL0     C14800   2.298   1.494   0.485 -0.1065  0.0858  0.3419
  851MOL0     N14801   2.732   2.062   0.363  0.0250 -0.8393 -0.2864
  851MOL0     N14802   2.815   2.158   0.326  0.5367  0.3936 -0.1390
  851MOL0     C14803   3.976   2.555   0.391 -0.2282 -0.2725 -0.6849
  851MOL0     C14804   4.094   2.542   0.318  0.5718 -0.5265 -0.1419
  851MOL0     C14805   4.508   2.632   0.160  1.1130 -0.7617 -0.2285
  851MOL0     C14806   4.492   2.528   0.058 -0.0483  0.1973  0.3115
  851MOL0     C14807   4.604   2.470  -0.000  1.0954  0.0580  0.3453
  851MOL0     C14808   4.737   2.512   0.047  0.6797 -0.5890  0.2361
  851MOL0     O14809   4.843   2.447  -0.014 -0.4054 -0.2846  0.5281
  851MOL0     C14810   4.967   2.446   0.053  0.9514  0.7125 -0.1525
  851MOL0     C14811   5.058   2.341   0.001  0.0933 -0.6484  0.6784
  851MOL0     C14812   5.002   2.203  -0.002 -0.4839  0.4405 -0.4257
  851MOL0     C14813   5.097   2.095  -0.064  1.9112 -0.8433 -1.1980
  851MOL0     C14814   5.224   2.089   0.020 -0.3975 -0.1393 -0.4432
  851MOL0     C14815   5.323   2.072   0.080 -0.2820  0.3431 -0.1794
  851MOL0     C14816   4.751   2.622   0.144  0.3019 -0.4071 -0.4634
  851MOL0     C14817   4.634   2.671   0.203 -0.2879 -0.2507  0.0415
  851MOL0     H14818   4.129   2.860   0.205  3.0575 -1.3355  0.3916
  851MOL0     H14819   3.899   2.875   0.301  1.5101 -0.1573 -0.4044
  851MOL0     H14820   3.718   2.513   0.425  4.1195  0.4493 -0.5988
  851MOL0     H14821   3.733   2.563   0.601  3.1235 -0.2360 -0.6596
  851MOL0     H14822   3.557   2.728   0.579 -2.9667 -1.4101 -0.0191
  851MOL0     H14823   3.575   2.718   0.406  0.2098  1.8591  1.4190
  851MOL0     H14824   3.481   2.469   0.445  2.3148  1.1601 -0.4384
  851MOL0     H14825   3.455   2.533   0.615  0.2083  0.3875  0.6306
  851MOL0     H14826   3.318   2.715   0.521  3.1510  1.1853 -1.1617
  851MOL0     H14827   3.322   2.618   0.367  0.6984  0.9533  0.6392
  851MOL0     H14828   3.214   2.508   0.633  2.6552 -0.7727  0.0843
  851MOL0     H14829   3.112   2.575   0.506 -0.0413 -0.0251 -3.9214
  851MOL0     H14830   3.217   2.403   0.339 -1.4421  1.3598 -0.3834
  851MOL0     H14831   3.297   2.330   0.474  0.2761  1.3756  0.0267
  851MOL0     H14832   3.102   2.220   0.558 -1.5418 -3.3211 -2.2332
  851MOL0     H14833   3.005   2.357   0.506 -1.2489 -1.3738 -1.9078
  851MOL0     H14834   3.147   2.176   0.309  0.0622  2.6650 -1.0832
  851MOL0     H14835   3.023   2.290   0.273  2.0212 -0.4539 -1.1648
  851MOL0     H14836   3.032   1.945   0.460  0.0435 -1.0193  0.5946
  851MOL0     H14837   2.865   1.796   0.531 -0.8002  0.7477  0.2578
  851MOL0     H14838   2.684   1.815   0.527 -1.1672  2.7611  0.4466
  851MOL0     H14839   2.766   1.612   0.389  0.9660 -0.3752 -0.7447
  851MOL0     H14840   2.832   1.747   0.284  0.6741 -1.0991 -0.1835
  851MOL0     H14841   2.622   1.732   0.182 -2.4242  0.7821 -0.1901
  851MOL0     H14842   2.582   1.829   0.321 -1.7352 -0.7933  0.2942
  851MOL0     H14843   2.528   1.647   0.471 -0.7063  2.8346  0.1212
  851MOL0     H14844   2.542   1.532   0.335  2.0221  0.8755 -1.6893
  851MOL0     H14845   2.152   1.768   0.360  0.1884 -2.4012 -2.0439
  851MOL0     H14846   1.973   1.838   0.485  1.1250 -0.9910  0.2642
  851MOL0     H14847   1.851   1.717   0.451  0.8564  0.0036 -1.5622
  851MOL0     H14848   1.899   1.736   0.620 -2.9344  0.5813 -0.8733
  851MOL0     H14849   1.791   1.238   0.620  2.6397 -2.4159  0.0652
  851MOL0     H14850   1.644   1.083   0.742  1.7385 -1.2529 -0.7343
  851MOL0     H14851   1.425   1.064   0.906 -1.2628  1.5418  1.5893
  851MOL0     H14852   1.446   0.955   1.025  1.1865 -0.3587 -0.7348
  851MOL0     H14853   1.470   1.255   1.061 -1.3087  1.4971  1.6555
  851MOL0     H14854   1.322   1.154   1.097 -0.1536 -0.1620 -0.0797
  851MOL0     H14855   1.571   1.107   1.239 -0.0001  0.0011  0.6666
  851MOL0     H14856   1.403   1.060   1.276 -2.0917  0.4004 -3.9261
  851MOL0     H14857   1.361   1.328   1.316  0.7033  0.5214 -0.7336
  851MOL0     H14858   1.446   1.235   1.436  1.6354  0.0771  0.1446
  851MOL0     H14859   1.590   1.386   1.225  0.7298  1.0566  1.4999
  851MOL0     H14860   1.663   1.290   1.343  0.8167  0.5144 -0.1034
  851MOL0     H14861   1.462   1.512   1.420 -0.8257 -0.0062 -0.9916
  851MOL0     H14862   1.553   1.417   1.530 -2.1438 -1.4374 -1.9731
  851MOL0     H14863   1.709   1.574   1.325  1.4820  2.6658  1.2301
  851MOL0     H14864   1.769   1.490   1.470 -1.0403 -1.4751  0.6091
  851MOL0     H14865   1.585   1.748   1.452  2.3661  3.8079  0.7732
  851MOL0     H14866   1.754   1.755   1.472  0.2097 -0.3995 -2.7092
  851MOL0     H14867   1.812   1.206   1.115 -0.1453  0.3691 -0.0443
  851MOL0     H14868   1.979   1.349   0.982 -2.0568  1.8962 -0.4257
  851MOL0     H14869   2.208   1.351   0.610 -2.6041  0.5683  1.9487
  851MOL0     H14870   2.392   1.440   0.494 -0.0144 -0.5114 -2.8317
  851MOL0     H14871   3.945   2.463   0.440 -1.7754  0.1806 -0.7841
  851MOL0     H14872   4.148   2.448   0.322 -1.2894 -1.7013 -1.2092
  851MOL0     H14873   4.396   2.489   0.028  0.1787 -0.5854  0.5541
  851MOL0     H14874   4.601   2.395  -0.079  0.4588 -0.0611  0.4762
  851MOL0     H14875   5.015   2.545   0.051 -0.7903  1.6524  1.5738
  851MOL0     H14876   4.951   2.430   0.160  1.3682  2.2902  0.1671
  851MOL0     H14877   5.155   2.345   0.051 -1.5041  0.0471  3.9887
  851MOL0     H14878   5.071   2.365  -0.105 -3.3039  2.1286  0.7183
  851MOL0     H14879   4.905   2.203  -0.053 -2.0174  2.0614  2.2407
  851MOL0     H14880   4.978   2.167   0.099 -0.1096  1.2400 -0.0454
  851MOL0     H14881   5.126   2.127  -0.164  0.3461 -0.2284 -1.4694
  851MOL0     H14882   5.050   1.997  -0.052 -0.4545  0.5600  3.3019
  851MOL0     H14883   5.422   2.063   0.119  0.0973  1.4707 -0.8246
  851MOL0     H14884   4.848   2.652   0.183 -1.1062  1.4479  1.8787
  851MOL0     H14885   4.643   2.735   0.290  1.1333 -2.1290  1.3521
  852MOL0     O14886   6.807   1.895  10.035 -0.0694  0.5628  0.3388
  852MOL0     C14887   6.912   1.889  10.097  0.0704 -0.4757  0.5394
  852MOL0     O14888   6.924   1.892  10.226 -0.2157 -0.7031  0.7182
  852MOL0     C14889   6.815   1.870  10.303  0.5402 -0.2838 -0.4828
  852MOL0     C14890   6.808   1.961  10.412  0.6071  0.4352 -1.1072
  852MOL0     C14891   6.703   1.948  10.505  0.8960  0.0646  0.7706
  852MOL0     C14892   6.615   1.846  10.495  0.7109 -0.3346  0.3771
  852MOL0     O14893   6.506   1.824  10.581  0.1506 -0.3906 -0.0615
  852MOL0     C14894   6.486   1.925  10.684 -0.8793  0.1393 -0.4847
  852MOL0     C14895   6.361   1.874  10.759  0.6430  0.3235 -1.4437
  852MOL0     C14896   6.225   1.878  10.699 -0.2485 -1.4261 -0.1782
  852MOL0     C14897   6.098   1.855  10.783  0.5002  0.4752 -0.6570
  852MOL0     C14898   5.972   1.888  10.698 -0.4264 -0.1343  0.0013
  852MOL0     C14899   5.845   1.850  10.778 -0.2763  0.4216  0.0914
  852MOL0     C14900   5.721   1.920  10.721  0.1675 -0.3618 -0.6685
  852MOL0     C14901   5.597   1.882  10.799  0.0462 -0.2463 -0.3698
  852MOL0     N14902   5.497   1.985  10.779  0.1860  0.6810 -0.7550
  852MOL0     C14903   5.404   1.986  10.674 -0.5426 -0.0645 -0.3421
  852MOL0     C14904   5.320   2.080  10.708  0.4889 -0.3322 -0.0786
  852MOL0     C14905   5.196   2.120  10.640 -0.0232  0.5603  0.0679
  852MOL0     C14906   5.064   2.094  10.713 -0.5046 -0.0536 -0.8268
  852MOL0     C14907   5.050   2.194  10.830  0.7802  0.0711  0.8393
  852MOL0     C14908   4.901   2.179  10.883 -0.3944  0.0659 -0.7979
  852MOL0     O14909   4.813   2.223  10.777 -0.7773 -0.0119  0.3372
  852MOL0     C14910   4.690   2.251  10.834 -0.1988 -0.3286 -0.2210
  852MOL0     C14911   4.610   2.147  10.884  0.4119  0.1909 -0.7065
  852MOL0     C14912   4.495   2.174  10.955  0.4189 -0.4917  0.9087
  852MOL0     C14913   4.406   2.053  10.970  1.5667 -0.4183 -0.8148
  852MOL0     C14914   4.454   2.307  10.977  1.0771 -0.3094  0.7786
  852MOL0     C14915   4.331   2.347  11.047  1.0603  0.3166  0.5162
  852MOL0     O14916   4.284   2.472  11.020 -0.2003 -0.2350  0.0810
  852MOL0     C14917   4.162   2.498  11.068 -1.0960 -0.1562 -0.4765
  852MOL0     C14918   4.158   2.602  11.161  1.1327 -0.2071 -0.3959
  852MOL0     C14919   4.032   2.653  11.198 -0.8917 -0.1991 -0.7225
  852MOL0     C14920   3.907   2.591  11.151  0.4974 -0.7356 -0.2112
  852MOL0     O14921   3.777   2.633  11.171  0.9059 -0.5004 -0.4214
  852MOL0     C14922   3.761   2.725  11.280 -0.6908 -0.1123  0.1746
  852MOL0     C14923   3.608   2.745  11.288  0.0961 -0.0788 -0.4490
  852MOL0     C14924   3.565   2.835  11.400  0.5117  0.2330  0.2432
  852MOL0     C14925   3.417   2.817  11.417  0.5932 -0.0077 -0.5099
  852MOL0     C14926   3.349   2.915  11.512 -0.1057  0.0395 -0.4079
  852MOL0     C14927   3.193   2.866  11.523  0.1308  0.1132  0.2173
  852MOL0     C14928   3.116   2.946  11.626  0.5453  0.2358 -0.2959
  852MOL0     C14929   2.970   2.913  11.630 -0.0682  0.2039  0.0083
  852MOL0    Cl14930   2.902   3.011  11.487  0.2388 -0.0418  0.7976
  852MOL0     C14931   3.916   2.484  11.063  0.3513  1.1585  0.8519
  852MOL0     C14932   4.043   2.437  11.022  0.2830  0.7941 -0.1750
  852MOL0     O14933   4.271   2.260  11.106  0.6650  0.4211 -0.6867
  852MOL0     C14934   4.535   2.411  10.918 -0.4402 -0.0470 -0.2934
  852MOL0     C14935   4.652   2.378  10.849 -0.1925  0.2174 -0.8310
  852MOL0     N14936   5.371   2.149  10.820  0.3428 -0.3101  0.0664
  852MOL0     N14937   5.477   2.093  10.855  0.9008 -0.1680  0.9042
  852MOL0     C14938   6.627   1.765  10.381  0.1009  1.2161 -0.3238
  852MOL0     C14939   6.717   1.770  10.282  1.1731  0.1474 -0.0380
  852MOL0     C14940   7.032   1.882  10.006  0.7322  0.1202 -0.7314
  852MOL0     C14941   7.161   1.855  10.062  1.1426 -0.5209 -0.1686
  852MOL0     C14942   7.268   1.874   9.980 -0.1016  0.5778  0.1308
  852MOL0     C14943   7.253   1.896   9.842  0.1236 -0.5307  0.1176
  852MOL0     O14944   7.370   1.898   9.773  0.5121 -0.4733 -0.0840
  852MOL0     C14945   7.401   2.042   9.748 -0.0180 -0.2703 -0.1568
  852MOL0     C14946   7.452   2.059   9.601 -0.6155 -0.2521  0.7733
  852MOL0     C14947   7.584   1.973   9.587 -0.8227 -0.7822  0.6024
  852MOL0     C14948   7.669   2.033   9.472 -0.1759  0.5385 -0.4580
  852MOL0     C14949   7.788   1.950   9.443 -0.1386 -0.1575 -0.0848
  852MOL0     C14950   7.876   1.874   9.398 -0.6717 -0.5589  0.0575
  852MOL0     C14951   7.129   1.891   9.778 -0.3150  0.6444 -0.8689
  852MOL0     C14952   7.019   1.892   9.868  0.0450  1.2251  0.7872
  852MOL0     H14953   6.883   2.037  10.433 -0.7757  1.5324  0.1098
  852MOL0     H14954   6.691   2.023  10.582 -0.4790 -0.9782  1.6189
  852MOL0     H14955   6.569   1.930  10.756  0.6411 -0.6387 -2.1047
  852MOL0     H14956   6.472   2.024  10.640 -1.9756  0.0858 -0.2798
  852MOL0     H14957   6.376   1.768  10.783 -0.7701  0.6689  1.3010
  852MOL0     H14958   6.369   1.929  10.853  0.3685 -3.7781  1.2327
  852MOL0     H14959   6.230   1.977  10.652  0.9441 -0.5055  1.7231
  852MOL0     H14960   6.239   1.812  10.613 -0.6930 -0.0419 -1.3471
  852MOL0     H14961   6.096   1.749  10.813  0.1322  0.3229 -1.2050
  852MOL0     H14962   6.105   1.908  10.878 -3.6895  0.5477 -0.2018
  852MOL0     H14963   5.973   1.997  10.682  0.2051 -0.1058  0.2144
  852MOL0     H14964   5.971   1.835  10.602 -0.3338 -1.0770  0.5102
  852MOL0     H14965   5.835   1.741  10.777  0.8001  0.3159 -0.5449
  852MOL0     H14966   5.855   1.861  10.887 -0.8318 -4.9469  0.9758
  852MOL0     H14967   5.728   2.029  10.716  0.5005 -0.2908  0.9093
  852MOL0     H14968   5.702   1.881  10.620 -0.6591 -1.4873 -0.1024
  852MOL0     H14969   5.634   1.875  10.901 -0.8598 -5.8800 -0.1064
  852MOL0     H14970   5.557   1.783  10.779 -2.1171  0.5540 -0.2256
  852MOL0     H14971   5.403   1.925  10.585  0.6271  2.4286 -2.2051
  852MOL0     H14972   5.206   2.225  10.611 -0.3844  0.2100 -1.4040
  852MOL0     H14973   5.202   2.068  10.544 -2.0093 -2.1434  1.2566
  852MOL0     H14974   5.049   1.991  10.746  0.9618 -0.1940 -0.5370
  852MOL0     H14975   4.985   2.099  10.637 -0.7337  1.5090 -0.5277
  852MOL0     H14976   5.061   2.299  10.801 -0.7942 -0.0123 -0.1705
  852MOL0     H14977   5.120   2.174  10.911 -0.0997  1.9616  2.1543
  852MOL0     H14978   4.885   2.239  10.973 -0.8994  0.8694 -1.3969
  852MOL0     H14979   4.893   2.074  10.910  1.8893 -0.0390 -0.3775
  852MOL0     H14980   4.641   2.045  10.861 -3.1549 -1.5289  1.2391
  852MOL0     H14981   4.403   2.030  11.077  0.7386 -0.9220 -0.9388
  852MOL0     H14982   4.302   2.067  10.939  1.5591  0.6191 -0.3674
  852MOL0     H14983   4.438   1.958  10.926  0.7462 -2.2350  2.2463
  852MOL0     H14984   4.250   2.646  11.198  1.1558 -1.0817  0.6417
  852MOL0     H14985   4.033   2.744  11.257  1.0842 -0.0195 -0.9852
  852MOL0     H14986   3.806   2.673  11.365  1.5680  0.6508 -0.4723
  852MOL0     H14987   3.811   2.821  11.265  1.1944 -0.9476  0.8187
  852MOL0     H14988   3.578   2.796  11.196  0.2527  0.2866 -0.3016
  852MOL0     H14989   3.558   2.648  11.293  0.3475 -0.1560  1.3483
  852MOL0     H14990   3.592   2.934  11.362 -2.3802  1.1925  0.4126
  852MOL0     H14991   3.620   2.812  11.491 -0.4599  1.2680  1.1220
  852MOL0     H14992   3.362   2.845  11.326  1.8380 -2.1122 -2.0022
  852MOL0     H14993   3.415   2.710  11.437  3.3200 -0.3762 -1.6958
  852MOL0     H14994   3.359   3.013  11.463 -0.3452 -0.3871 -1.3293
  852MOL0     H14995   3.395   2.909  11.612 -0.7502 -0.4071 -0.1317
  852MOL0     H14996   3.144   2.882  11.427  0.0963 -1.1931 -0.0034
  852MOL0     H14997   3.188   2.758  11.538  0.7364  0.4393  3.5036
  852MOL0     H14998   3.122   3.055  11.613 -0.8395  0.4838  0.9028
  852MOL0     H14999   3.167   2.920  11.719 -0.7057 -1.6303 -0.0946
  852MOL0     H15000   2.915   2.946  11.718 -0.0258 -1.2397  0.5996
  852MOL0     H15001   2.955   2.808  11.605 -1.1538  0.4974 -0.6537
  852MOL0     H15002   3.830   2.456  11.003  1.0432  1.0528 -0.1171
  852MOL0     H15003   4.042   2.355  10.950 -0.9081  0.7534 -0.1372
  852MOL0     H15004   4.519   2.518  10.928  1.7567  0.5028 -1.8094
  852MOL0     H15005   4.716   2.459  10.815 -0.1975 -0.5366 -2.7129
  852MOL0     H15006   6.550   1.690  10.365 -0.4095  1.5446  0.5280
  852MOL0     H15007   6.715   1.703  10.196 -1.1296  0.8138 -0.5886
  852MOL0     H15008   7.181   1.836  10.167  1.3577 -0.6206 -0.2269
  852MOL0     H15009   7.373   1.860  10.003 -0.5618 -2.3210  0.9130
  852MOL0     H15010   7.314   2.107   9.743  1.0615  1.1523 -1.4499
  852MOL0     H15011   7.480   2.071   9.818  0.6244 -1.1546 -0.4887
  852MOL0     H15012   7.476   2.164   9.585 -0.9506 -0.2091  0.5448
  852MOL0     H15013   7.371   2.025   9.536  1.3494 -1.2818 -1.2435
  852MOL0     H15014   7.565   1.868   9.565  1.6413 -1.4159  1.2531
  852MOL0     H15015   7.636   1.974   9.683 -2.2296 -2.2924  1.4466
  852MOL0     H15016   7.703   2.135   9.493  0.5082 -0.0129  1.3332
  852MOL0     H15017   7.615   2.025   9.378 -0.1486  0.2968 -0.4554
  852MOL0     H15018   7.957   1.817   9.357  1.9504  1.1216  2.4856
  852MOL0     H15019   7.121   1.901   9.671  1.8150  1.3681 -1.0067
  852MOL0     H15020   6.922   1.903   9.823  0.0113  0.2155  0.5887
  853MOL0     O15021   8.065   8.675   1.237  0.2184  0.1814 -0.1948
  853MOL0     C15022   8.163   8.645   1.165  0.2262 -0.8308  0.2887
  853MOL0     O15023   8.178   8.657   1.029  0.0247  0.1330 -0.0981
  853MOL0     C15024   8.084   8.709   0.959 -0.4098 -0.6112  1.0287
  853MOL0     C15025   8.107   8.838   0.903  0.0275 -0.5859 -0.2072
  853MOL0     C15026   8.011   8.879   0.810 -0.2375  0.1130  0.5429
  853MOL0     C15027   7.891   8.808   0.792 -0.0684 -0.7157  0.2082
  853MOL0     O15028   7.781   8.874   0.740  0.3628 -0.6303  0.3551
  853MOL0     C15029   7.647   8.830   0.773  0.2943 -0.4603  0.0150
  853MOL0     C15030   7.542   8.933   0.749  0.9729 -1.7326 -0.5149
  853MOL0     C15031   7.399   8.876   0.761 -0.3157 -0.5342  0.1122
  853MOL0     C15032   7.287   8.981   0.750 -0.4610  0.0046  0.4060
  853MOL0     C15033   7.160   8.911   0.782  0.0179  0.0764 -0.0412
  853MOL0     C15034   7.033   8.998   0.766 -1.4196 -0.0324 -0.3172
  853MOL0     C15035   6.907   8.925   0.785 -0.4608  0.2134  0.6388
  853MOL0     C15036   6.783   9.001   0.739  0.6347 -0.3340  0.2239
  853MOL0     N15037   6.664   8.923   0.782  0.6271 -0.2951 -0.2291
  853MOL0     C15038   6.572   8.856   0.698  0.7607 -0.1136 -0.2137
  853MOL0     C15039   6.526   8.756   0.787 -0.3533 -0.4196  0.3434
  853MOL0     C15040   6.442   8.647   0.745 -0.2500 -1.0411 -0.5741
  853MOL0     C15041   6.453   8.540   0.852 -1.0223 -0.4456 -0.0357
  853MOL0     C15042   6.430   8.399   0.795 -0.6495  0.2830 -0.4562
  853MOL0     C15043   6.283   8.385   0.763 -0.4642 -0.7594 -0.0509
  853MOL0     O15044   6.197   8.392   0.879  0.2051 -0.7073  0.0818
  853MOL0     C15045   6.061   8.404   0.855 -0.2390 -0.9801  0.5838
  853MOL0     C15046   5.989   8.368   0.739  1.1873 -1.1554 -0.2901
  853MOL0     C15047   5.854   8.390   0.735  1.1789 -0.1834 -0.2794
  853MOL0     C15048   5.779   8.365   0.606 -0.3596  1.0361 -0.5463
  853MOL0     C15049   5.779   8.431   0.847  0.0351  0.6905  0.1782
  853MOL0     C15050   5.623   8.450   0.849 -0.3562 -0.0495  0.5673
  853MOL0     O15051   5.546   8.413   0.737  0.1366 -0.0997  0.0064
  853MOL0     C15052   5.418   8.449   0.707 -0.0529  0.2343 -0.6422
  853MOL0     C15053   5.357   8.576   0.723 -0.3553 -0.0509  0.3833
  853MOL0     C15054   5.226   8.610   0.695  0.6950 -0.6105  0.3188
  853MOL0     C15055   5.140   8.515   0.635  0.7001 -0.2640 -0.2641
  853MOL0     O15056   5.015   8.551   0.583 -0.9936 -0.3690  0.1767
  853MOL0     C15057   4.923   8.441   0.582 -0.3840  0.1065 -0.5770
  853MOL0     C15058   4.777   8.491   0.586 -0.4470  0.1096  0.3871
  853MOL0     C15059   4.720   8.507   0.728 -0.7578 -1.1767  0.2865
  853MOL0     C15060   4.818   8.576   0.829 -0.8204 -0.4605  0.0999
  853MOL0     C15061   4.744   8.628   0.957 -0.1005 -0.2855  0.0934
  853MOL0     C15062   4.683   8.503   1.030  0.7726  1.2004 -0.4069
  853MOL0     C15063   4.791   8.429   1.120 -0.0073 -0.2268  0.7046
  853MOL0     C15064   4.787   8.482   1.257 -0.4902  0.5125 -0.8115
  853MOL0    Cl15065   4.640   8.414   1.343 -0.0839  0.0417 -0.1914
  853MOL0     C15066   5.199   8.392   0.607  0.8232 -1.0538  1.0916
  853MOL0     C15067   5.327   8.352   0.652  0.7807  0.2210  1.1193
  853MOL0     O15068   5.572   8.500   0.952  0.1064  0.4237  0.0785
  853MOL0     C15069   5.849   8.448   0.971 -0.1200  0.4862  0.8519
  853MOL0     C15070   5.992   8.445   0.970 -0.1768 -0.0566  0.4204
  853MOL0     N15071   6.577   8.783   0.918 -0.4327 -0.0747 -0.1887
  853MOL0     N15072   6.645   8.889   0.908  0.2385  0.4577  0.1336
  853MOL0     C15073   7.876   8.684   0.841  0.1330 -0.1994  0.6592
  853MOL0     C15074   7.974   8.636   0.930 -0.2039  0.1731 -0.0498
  853MOL0     C15075   8.286   8.627   1.245 -0.1032 -0.4982  0.0981
  853MOL0     C15076   8.283   8.567   1.374  0.8375  0.1364  0.5714
  853MOL0     C15077   8.407   8.537   1.447  0.4838  0.1281  0.2974
  853MOL0     C15078   8.528   8.566   1.379 -0.1517 -0.4664  0.2551
  853MOL0     O15079   8.648   8.522   1.427  0.0769 -0.7403 -0.6994
  853MOL0     C15080   8.736   8.436   1.355 -0.0503 -0.5895 -0.1245
  853MOL0     C15081   8.709   8.292   1.379 -0.2492 -0.3153  0.3119
  853MOL0     C15082   8.730   8.244   1.521 -0.1054 -0.1288 -0.3535
  853MOL0     C15083   8.879   8.253   1.568 -0.4047 -0.0919 -0.3100
  853MOL0     C15084   8.891   8.234   1.713  0.3962 -0.9147  1.0157
  853MOL0     C15085   8.924   8.223   1.833 -0.1775  0.5342  0.0668
  853MOL0     C15086   8.523   8.625   1.257 -0.6802 -0.2226  0.2632
  853MOL0     C15087   8.409   8.652   1.185 -0.3577  0.2397  0.3131
  853MOL0     H15088   8.203   8.887   0.919  0.8410 -2.0852 -0.2528
  853MOL0     H15089   8.030   8.971   0.754 -2.2119 -0.0104 -0.3992
  853MOL0     H15090   7.625   8.745   0.710 -1.7116  0.5556 -0.7368
  853MOL0     H15091   7.645   8.794   0.877 -0.5106 -2.7769 -0.7570
  853MOL0     H15092   7.553   9.016   0.820 -0.2134  0.5597 -2.8347
  853MOL0     H15093   7.555   8.968   0.646 -0.9373  2.3755  0.4147
  853MOL0     H15094   7.389   8.800   0.683  0.7334 -1.5003  0.8803
  853MOL0     H15095   7.399   8.820   0.855  3.4018 -0.1160  0.5230
  853MOL0     H15096   7.297   9.067   0.816  1.0227 -1.5655  2.3448
  853MOL0     H15097   7.292   9.026   0.650  0.3304  2.0551  1.3107
  853MOL0     H15098   7.148   8.830   0.710 -0.4478  0.0711  0.0355
  853MOL0     H15099   7.157   8.877   0.886 -0.5970 -1.7690 -0.6249
  853MOL0     H15100   7.018   9.080   0.837 -0.9079  0.0413 -0.2917
  853MOL0     H15101   7.041   9.034   0.663  0.3775 -0.2049 -0.2779
  853MOL0     H15102   6.912   8.837   0.720 -2.1219  1.1716 -0.8786
  853MOL0     H15103   6.906   8.894   0.890 -0.4789 -2.4458 -0.0609
  853MOL0     H15104   6.797   9.022   0.632 -0.5467  0.1142  0.1510
  853MOL0     H15105   6.772   9.104   0.774 -0.4755 -0.1633 -0.5634
  853MOL0     H15106   6.549   8.888   0.597  0.5623  2.9081  0.6916
  853MOL0     H15107   6.341   8.688   0.732  1.2069  2.8873 -1.0419
  853MOL0     H15108   6.468   8.620   0.642  2.5922  1.0860 -0.5459
  853MOL0     H15109   6.379   8.555   0.931 -1.8997  0.7207 -1.0384
  853MOL0     H15110   6.551   8.525   0.897 -0.7449  0.9607 -0.1505
  853MOL0     H15111   6.449   8.323   0.871  0.0878  2.1417  1.3228
  853MOL0     H15112   6.498   8.386   0.710 -0.5745  2.9864 -0.9172
  853MOL0     H15113   6.273   8.292   0.706  0.7482  0.7137 -2.9036
  853MOL0     H15114   6.260   8.456   0.683  3.9517 -1.1953 -1.9800
  853MOL0     H15115   6.050   8.336   0.655  2.4877  0.7204 -0.1355
  853MOL0     H15116   5.847   8.337   0.525 -0.8625 -1.5641 -0.1755
  853MOL0     H15117   5.727   8.269   0.617  4.1362 -1.8531 -1.8750
  853MOL0     H15118   5.714   8.444   0.567 -2.6438 -1.3847 -2.0808
  853MOL0     H15119   5.429   8.650   0.756  1.6422 -0.5307 -2.4605
  853MOL0     H15120   5.202   8.712   0.720 -1.0744 -0.6805 -0.8669
  853MOL0     H15121   4.936   8.387   0.487  0.2299 -1.3453  0.3100
  853MOL0     H15122   4.934   8.377   0.670  3.3466  4.6741  2.7702
  853MOL0     H15123   4.765   8.572   0.513 -0.5088 -0.5630 -0.3642
  853MOL0     H15124   4.718   8.408   0.545 -0.1522  0.6764 -1.2474
  853MOL0     H15125   4.688   8.407   0.756 -2.1492 -0.6729  0.5840
  853MOL0     H15126   4.634   8.573   0.716  1.6795  1.9890 -1.7486
  853MOL0     H15127   4.907   8.516   0.850  0.5836  1.2218 -0.7398
  853MOL0     H15128   4.863   8.663   0.779  1.5295 -1.8105 -0.3202
  853MOL0     H15129   4.671   8.701   0.923  0.9520  0.1085 -1.4576
  853MOL0     H15130   4.817   8.682   1.018 -0.5858 -0.5150  0.8899
  853MOL0     H15131   4.601   8.530   1.096  1.0728  2.0733 -0.3773
  853MOL0     H15132   4.643   8.435   0.955  1.8619  1.3311 -1.1322
  853MOL0     H15133   4.889   8.451   1.075 -0.5146  0.2532 -0.1878
  853MOL0     H15134   4.780   8.320   1.117  1.6762 -0.4451 -2.4273
  853MOL0     H15135   4.782   8.591   1.252 -0.5156  0.4918 -1.3835
  853MOL0     H15136   4.869   8.441   1.316 -0.3567  0.4692 -1.0239
  853MOL0     H15137   5.140   8.322   0.548  0.1753  1.2458 -1.2154
  853MOL0     H15138   5.370   8.254   0.640  1.1540  0.5484 -0.4200
  853MOL0     H15139   5.802   8.479   1.064 -1.6634 -0.9898  0.6049
  853MOL0     H15140   6.053   8.442   1.060 -0.5248 -0.9867  0.6434
  853MOL0     H15141   7.793   8.617   0.821  0.6327 -0.6789  0.1521
  853MOL0     H15142   7.959   8.536   0.969  2.3467 -0.5726 -0.8244
  853MOL0     H15143   8.188   8.541   1.419  0.1388 -0.5160 -1.1509
  853MOL0     H15144   8.404   8.493   1.547 -0.5211  1.6910  0.9957
  853MOL0     H15145   8.737   8.460   1.248  3.9829 -0.2933 -0.1642
  853MOL0     H15146   8.839   8.461   1.382 -0.9082  2.2146  1.0187
  853MOL0     H15147   8.771   8.230   1.314  2.0505  2.0640  0.0257
  853MOL0     H15148   8.605   8.270   1.352 -0.6395 -0.6011  1.9402
  853MOL0     H15149   8.704   8.140   1.539 -1.5821  0.1145 -0.9674
  853MOL0     H15150   8.658   8.304   1.577 -1.5088  0.1875 -2.4124
  853MOL0     H15151   8.914   8.355   1.549 -1.2790 -0.0267 -1.6743
  853MOL0     H15152   8.940   8.179   1.515 -0.0415  1.0306 -1.5246
  853MOL0     H15153   8.978   8.224   1.925  0.4151  0.4683 -0.2737
  853MOL0     H15154   8.623   8.651   1.224 -0.2907 -0.8845  0.8766
  853MOL0     H15155   8.413   8.700   1.088  0.7674  0.6345  0.5304
  854MOL0     O15156   8.744   2.262   9.924  1.1777  0.3479 -0.2005
  854MOL0     C15157   8.821   2.275  10.018 -0.9074  0.5982 -0.2034
  854MOL0     O15158   8.794   2.312  10.146  0.4006 -0.0088 -0.4107
  854MOL0     C15159   8.661   2.328  10.172  0.3902 -0.2358 -0.5680
  854MOL0     C15160   8.608   2.460  10.180  0.2427 -0.4391  0.1791
  854MOL0     C15161   8.472   2.485  10.202 -0.1401  0.2488  1.2549
  854MOL0     C15162   8.386   2.376  10.224 -0.2291  0.5552  0.3304
  854MOL0     O15163   8.255   2.405  10.255 -0.0465 -0.4488  0.1908
  854MOL0     C15164   8.152   2.299  10.261  0.0594 -0.2915  0.3624
  854MOL0     C15165   8.015   2.368  10.276  0.1853  1.5187 -0.4387
  854MOL0     C15166   7.989   2.466  10.160  0.2863 -0.0759 -0.5156
  854MOL0     C15167   7.862   2.545  10.204 -0.1430  0.1120  0.1201
  854MOL0     C15168   7.773   2.592  10.091 -0.0971  0.3717 -0.2293
  854MOL0     C15169   7.677   2.699  10.138  0.1768  0.2999 -0.8421
  854MOL0     C15170   7.605   2.748  10.005 -0.2507 -0.2672 -0.1394
  854MOL0     C15171   7.485   2.828  10.049  0.6042  0.4040 -0.9686
  854MOL0     N15172   7.412   2.889   9.933  0.5970  0.4913 -0.1781
  854MOL0     C15173   7.461   2.982   9.854 -0.4262  0.5132  0.9066
  854MOL0     C15174   7.377   2.981   9.747 -0.4049 -0.8012 -0.0436
  854MOL0     C15175   7.380   3.081   9.631  0.7892 -0.1082 -0.0370
  854MOL0     C15176   7.252   3.159   9.617 -0.2643  0.1808 -0.3281
  854MOL0     C15177   7.232   3.253   9.746 -0.5157  0.5921  0.4385
  854MOL0     C15178   7.136   3.360   9.719  1.0300  0.2730  0.0147
  854MOL0     O15179   7.084   3.395   9.845  0.7071  0.6326 -0.0997
  854MOL0     C15180   6.970   3.477   9.848  0.1656  0.0288 -0.1875
  854MOL0     C15181   6.878   3.483   9.957  0.4610 -0.9025  0.3432
  854MOL0     C15182   6.759   3.556   9.952 -0.5183  0.2810  0.0456
  854MOL0     C15183   6.666   3.547  10.070  1.1430 -1.0992 -0.0157
  854MOL0     C15184   6.729   3.638   9.836 -0.4233  0.2650  0.0505
  854MOL0     C15185   6.621   3.738   9.820  0.8184 -0.3373  0.4959
  854MOL0     O15186   6.535   3.761   9.922  0.1851  0.1926  0.6298
  854MOL0     C15187   6.416   3.829   9.902  0.0903 -0.6935  0.6923
  854MOL0     C15188   6.429   3.965   9.885 -0.0296  0.3548  0.3042
  854MOL0     C15189   6.322   4.047   9.881 -0.0033 -0.0548  0.2873
  854MOL0     C15190   6.194   3.999   9.902  0.0253  0.2612 -0.7233
  854MOL0     O15191   6.090   4.079   9.926  0.2235 -0.0846 -1.1298
  854MOL0     C15192   6.094   4.137  10.062 -0.1804  1.2665  0.6730
  854MOL0     C15193   5.979   4.082  10.147  0.2554 -0.1706 -0.1828
  854MOL0     C15194   5.844   4.101  10.080  0.1731  0.3013  1.1426
  854MOL0     C15195   5.741   4.107  10.194  0.0569  0.0935  1.0523
  854MOL0     C15196   5.613   4.165  10.146 -0.5425 -0.6412  0.0165
  854MOL0     C15197   5.623   4.320  10.126 -0.8511  0.0151  0.7540
  854MOL0     C15198   5.485   4.375  10.112 -0.2558 -0.1347 -0.4024
  854MOL0     C15199   5.497   4.490  10.006 -0.0871 -0.0896 -0.4638
  854MOL0    Cl15200   5.327   4.536   9.980  0.0336 -0.0882  0.0103
  854MOL0     C15201   6.181   3.863   9.939  0.3289 -0.2761  0.5055
  854MOL0     C15202   6.289   3.772   9.923  0.0728 -0.2390 -0.0725
  854MOL0     O15203   6.606   3.777   9.705 -0.3749  0.6274  0.2982
  854MOL0     C15204   6.827   3.630   9.735  0.7160 -0.0672  0.1071
  854MOL0     C15205   6.941   3.559   9.735 -0.7108 -0.0636 -0.8518
  854MOL0     N15206   7.275   2.897   9.773 -0.1942 -0.3072 -0.0594
  854MOL0     N15207   7.291   2.837   9.891  0.4172 -0.2464  0.5010
  854MOL0     C15208   8.437   2.249  10.224  0.1678 -0.2246 -0.0518
  854MOL0     C15209   8.569   2.223  10.201  0.7730 -0.5122  1.0254
  854MOL0     C15210   8.969   2.237  10.005  0.5660 -1.4337  0.4437
  854MOL0     C15211   9.068   2.243  10.107  0.6951  0.8034  0.4701
  854MOL0     C15212   9.193   2.186  10.096  1.1882 -0.7965  0.0505
  854MOL0     C15213   9.228   2.138   9.969 -0.9684 -0.0069  0.0251
  854MOL0     O15214   9.350   2.072   9.956  0.3409  0.2786 -0.5116
  854MOL0     C15215   9.343   1.934   9.932 -0.5106  0.0486 -0.3100
  854MOL0     C15216   9.480   1.874   9.898  0.0621 -0.2245 -0.8830
  854MOL0     C15217   9.460   1.730   9.871 -0.3518 -0.1363 -0.0178
  854MOL0     C15218   9.598   1.664   9.844  0.3181 -0.6943  0.2363
  854MOL0     C15219   9.641   1.680   9.703 -0.1446  0.1106 -0.9141
  854MOL0     C15220   9.684   1.679   9.590 -0.3481  0.1324 -0.0714
  854MOL0     C15221   9.139   2.155   9.858  1.1343 -0.4173 -0.0450
  854MOL0     C15222   9.003   2.190   9.879  0.5511  0.0405 -0.8923
  854MOL0     H15223   8.684   2.537  10.180 -2.2236  2.2473 -1.9788
  854MOL0     H15224   8.432   2.586  10.206  1.7171  1.0905  0.2137
  854MOL0     H15225   8.163   2.239  10.170 -0.2596  2.3675 -1.5363
  854MOL0     H15226   8.169   2.236  10.348 -0.6318  1.6491  1.9764
  854MOL0     H15227   7.938   2.290  10.271  0.1660  1.4817  0.2916
  854MOL0     H15228   8.013   2.420  10.373  0.3015  0.7961 -0.0409
  854MOL0     H15229   8.075   2.534  10.162 -1.2569  1.9776 -0.5424
  854MOL0     H15230   7.992   2.416  10.063 -0.2401  1.7286 -1.5048
  854MOL0     H15231   7.803   2.491  10.279 -1.3712 -0.0757 -0.9396
  854MOL0     H15232   7.899   2.638  10.249 -1.7087  0.9520 -0.2392
  854MOL0     H15233   7.836   2.641  10.017 -0.8984  0.0439 -1.1616
  854MOL0     H15234   7.719   2.506  10.050 -0.0178 -1.3835  3.0080
  854MOL0     H15235   7.604   2.669  10.213  1.0613  0.0948 -0.0456
  854MOL0     H15236   7.732   2.783  10.182  2.6052 -1.9381  0.6901
  854MOL0     H15237   7.668   2.826   9.961  0.5539 -2.3388 -2.9270
  854MOL0     H15238   7.570   2.671   9.937 -2.4002  2.0704 -1.8638
  854MOL0     H15239   7.502   2.913  10.116 -3.0001  1.0064 -0.6038
  854MOL0     H15240   7.411   2.764  10.099  0.2570  2.6096  1.5942
  854MOL0     H15241   7.539   3.052   9.882 -0.2218 -0.3340  2.5673
  854MOL0     H15242   7.461   3.153   9.644 -0.9801  2.3895 -1.7965
  854MOL0     H15243   7.394   3.025   9.539 -0.5431  0.7144 -0.7729
  854MOL0     H15244   7.168   3.091   9.600 -1.0294  1.1283 -0.4523
  854MOL0     H15245   7.249   3.232   9.535 -0.1300  2.7587  1.8074
  854MOL0     H15246   7.327   3.291   9.784  2.5814 -3.5057 -2.3486
  854MOL0     H15247   7.189   3.186   9.822  0.2011 -0.2637  0.1111
  854MOL0     H15248   7.064   3.304   9.659  2.1951 -0.6628 -0.5581
  854MOL0     H15249   7.166   3.454   9.672 -1.2822  2.3880  2.4586
  854MOL0     H15250   6.914   3.438  10.049 -0.8440  1.7298  2.3201
  854MOL0     H15251   6.702   3.471  10.140 -1.0492  1.1619  3.9390
  854MOL0     H15252   6.659   3.643  10.123 -2.6454 -1.7494  0.9634
  854MOL0     H15253   6.563   3.526  10.041  0.6014 -0.6935  1.4732
  854MOL0     H15254   6.526   4.003   9.855 -1.5649  2.3152 -2.6610
  854MOL0     H15255   6.337   4.152   9.859 -1.3186  0.1174  0.1003
  854MOL0     H15256   6.188   4.118  10.114  2.5405  3.8343 -2.8002
  854MOL0     H15257   6.081   4.246  10.060 -3.1097  1.0189  1.3113
  854MOL0     H15258   5.995   3.979  10.180  0.6449  0.9952  3.8970
  854MOL0     H15259   5.989   4.137  10.241 -1.3061  0.0013 -0.0943
  854MOL0     H15260   5.818   4.027  10.003 -3.1144  1.0838  1.3597
  854MOL0     H15261   5.844   4.198  10.031 -0.5073  0.7479  2.0056
  854MOL0     H15262   5.726   4.009  10.240 -3.3986  1.7117  3.8435
  854MOL0     H15263   5.764   4.174  10.278 -1.2736  2.5142 -0.4043
  854MOL0     H15264   5.536   4.151  10.223  1.3365 -0.1299  2.0983
  854MOL0     H15265   5.577   4.115  10.056 -0.5632  0.0333 -0.3515
  854MOL0     H15266   5.673   4.372  10.208  1.4053  0.3768 -0.7439
  854MOL0     H15267   5.670   4.343  10.030 -0.8471  0.0801  0.7720
  854MOL0     H15268   5.447   4.406  10.210  1.1120  0.4499 -0.0364
  854MOL0     H15269   5.412   4.303  10.073 -1.1889  0.1269  0.8027
  854MOL0     H15270   5.536   4.456   9.909  0.5014 -1.4970  0.2343
  854MOL0     H15271   5.547   4.579  10.045 -2.9815  1.4237  0.0561
  854MOL0     H15272   6.090   3.807   9.957  1.9978 -2.5200  2.6482
  854MOL0     H15273   6.278   3.665   9.935 -0.4889 -0.9736 -5.1043
  854MOL0     H15274   6.808   3.687   9.645 -2.1582 -4.4184 -2.4456
  854MOL0     H15275   7.011   3.573   9.653  0.8836 -3.4228 -0.2181
  854MOL0     H15276   8.367   2.166  10.227  1.3164 -1.2194 -0.0763
  854MOL0     H15277   8.611   2.123  10.204  1.8204 -0.0895  0.9295
  854MOL0     H15278   9.029   2.279  10.202 -1.3699 -0.3767  0.1462
  854MOL0     H15279   9.257   2.168  10.183 -0.6179  0.3855  1.7050
  854MOL0     H15280   9.301   1.885  10.021  1.5325 -0.4904  0.4168
  854MOL0     H15281   9.273   1.904   9.853 -0.4796 -3.6229  0.8736
  854MOL0     H15282   9.555   1.903   9.973 -2.4834  1.9837  0.9930
  854MOL0     H15283   9.521   1.915   9.806 -0.0235 -3.1760 -2.3644
  854MOL0     H15284   9.385   1.717   9.792  0.1221  1.4899 -0.7764
  854MOL0     H15285   9.420   1.689   9.964 -0.2143 -0.2124  0.0093
  854MOL0     H15286   9.594   1.558   9.870 -2.8447 -0.6690  0.2882
  854MOL0     H15287   9.672   1.706   9.912  0.1193 -1.2521  0.8026
  854MOL0     H15288   9.736   1.698   9.499 -0.9164  3.9888  0.2390
  854MOL0     H15289   9.161   2.121   9.757 -0.7921 -1.6676 -0.0938
  854MOL0     H15290   8.932   2.181   9.798 -0.5240  0.0130  0.0242
  855MOL0     O15291   2.733   1.077   3.184 -1.2083  0.1094 -0.1106
  855MOL0     C15292   2.848   1.051   3.148 -0.2343  0.2316 -1.1825
  855MOL0     O15293   2.960   1.124   3.185  0.3772  0.5367 -0.0155
  855MOL0     C15294   2.938   1.240   3.256  0.5836  0.0549 -0.1767
  855MOL0     C15295   2.911   1.224   3.396  0.0569 -0.4231  0.3505
  855MOL0     C15296   2.886   1.331   3.479  1.2592 -0.1313  1.0069
  855MOL0     C15297   2.902   1.465   3.430 -0.4599  0.8448 -0.2427
  855MOL0     O15298   2.883   1.573   3.509 -0.5244 -0.6974 -0.3033
  855MOL0     C15299   2.754   1.583   3.581  0.0201 -0.6119 -0.8095
  855MOL0     C15300   2.769   1.680   3.700  0.0091  0.0007  0.0115
  855MOL0     C15301   2.644   1.694   3.790  0.5358  0.9262  0.0550
  855MOL0     C15302   2.512   1.717   3.714 -0.0587  0.1910  0.4111
  855MOL0     C15303   2.394   1.664   3.805 -0.0716  0.5823 -0.3434
  855MOL0     C15304   2.256   1.684   3.733 -0.3452 -0.1652 -0.7437
  855MOL0     C15305   2.134   1.675   3.827  0.3728  0.4442 -0.3304
  855MOL0     C15306   2.021   1.761   3.770  0.3402 -0.3172  0.0848
  855MOL0     N15307   1.973   1.728   3.629  0.6894  0.2859  0.4249
  855MOL0     C15308   1.874   1.633   3.602 -0.5090  0.4519 -0.6218
  855MOL0     C15309   1.845   1.644   3.470 -0.2755  0.4601  0.4232
  855MOL0     C15310   1.773   1.537   3.390  0.4278 -0.3291 -0.1892
  855MOL0     C15311   1.621   1.523   3.415 -0.5552 -0.0658  0.0767
  855MOL0     C15312   1.539   1.523   3.285 -0.1343  0.5741 -0.5842
  855MOL0     C15313   1.386   1.510   3.303  0.5507 -1.0834 -0.4227
  855MOL0     O15314   1.367   1.389   3.376  0.7609 -0.2897 -0.9229
  855MOL0     C15315   1.250   1.381   3.450 -0.6431  0.5726 -0.5503
  855MOL0     C15316   1.235   1.269   3.529 -0.1420 -0.2454  0.5049
  855MOL0     C15317   1.125   1.228   3.603 -0.2687 -0.0608 -0.9577
  855MOL0     C15318   1.144   1.093   3.674  0.1462 -0.2014 -0.1954
  855MOL0     C15319   1.008   1.309   3.609 -0.0973 -0.2122 -0.4531
  855MOL0     C15320   0.884   1.287   3.693 -0.3007 -0.0565  0.6969
  855MOL0     O15321   0.781   1.374   3.654  0.8043  0.6868  0.2193
  855MOL0     C15322   0.657   1.371   3.717 -0.8392 -0.4485  0.3742
  855MOL0     C15323   0.606   1.268   3.788  0.3799  0.5755 -0.3312
  855MOL0     C15324   0.477   1.291   3.840  0.8046  0.0087 -0.4864
  855MOL0     C15325   0.401   1.408   3.817 -0.2695  0.0553 -0.9317
  855MOL0     O15326   0.268   1.403   3.870  0.7490  0.0745  0.5061
  855MOL0     C15327   0.200   1.526   3.878  0.5064  0.7988  0.1196
  855MOL0     C15328   0.076   1.508   3.970 -0.0444  0.5099  0.7937
  855MOL0     C15329  -0.027   1.398   3.935  0.2497 -0.1697  0.0048
  855MOL0     C15330  -0.138   1.408   4.040  0.7036  0.2280  0.0768
  855MOL0     C15331  -0.263   1.327   3.996 -0.6236  0.5739  0.3942
  855MOL0     C15332  -0.364   1.298   4.114  0.1162 -1.0541  0.6075
  855MOL0     C15333  -0.323   1.168   4.180 -1.1421 -0.2268  0.3067
  855MOL0     C15334  -0.414   1.124   4.291 -0.0564 -0.2396 -0.2056
  855MOL0    Cl15335  -0.583   1.109   4.238  0.2189 -0.2001 -0.1609
  855MOL0     C15336   0.458   1.504   3.739  0.0921 -0.1451 -0.6485
  855MOL0     C15337   0.584   1.493   3.681 -0.8776  0.4262 -0.0016
  855MOL0     O15338   0.878   1.213   3.789 -0.2716  0.3818  0.2605
  855MOL0     C15339   1.020   1.427   3.526 -0.2909  0.8852  0.4812
  855MOL0     C15340   1.137   1.461   3.448  0.1756  0.6018  0.0054
  855MOL0     N15341   1.928   1.748   3.423 -0.6564  1.3449  1.0728
  855MOL0     N15342   1.991   1.808   3.517 -0.0853 -0.4217 -0.4924
  855MOL0     C15343   2.910   1.480   3.293  0.4945  1.1485 -0.3902
  855MOL0     C15344   2.929   1.369   3.203 -0.4472  0.2097 -0.5220
  855MOL0     C15345   2.859   0.928   3.071 -0.0749  0.4824 -0.0408
  855MOL0     C15346   2.750   0.879   2.992  0.2611  0.5824  0.2045
  855MOL0     C15347   2.759   0.756   2.925 -0.7954  0.2977 -0.0671
  855MOL0     C15348   2.875   0.683   2.942 -0.0376 -0.0844  0.2702
  855MOL0     O15349   2.869   0.554   2.891 -0.6383 -0.4731 -0.1893
  855MOL0     C15350   2.925   0.524   2.766  0.8606 -0.6782 -0.4726
  855MOL0     C15351   2.808   0.537   2.661 -1.1948 -0.1121 -0.5326
  855MOL0     C15352   2.688   0.444   2.699  0.4095 -0.3873 -0.2042
  855MOL0     C15353   2.585   0.440   2.590  0.0275  0.3097 -0.2608
  855MOL0     C15354   2.637   0.380   2.468 -0.9408  0.1600  0.5259
  855MOL0     C15355   2.676   0.331   2.356 -0.0143 -0.1023 -0.0205
  855MOL0     C15356   2.987   0.729   3.008  0.0890 -1.2194  0.2328
  855MOL0     C15357   2.983   0.856   3.068 -0.0911  0.1717 -0.2118
  855MOL0     H15358   2.909   1.123   3.433  1.4751 -1.4721 -2.1777
  855MOL0     H15359   2.835   1.314   3.573  1.6940 -2.5288  0.8659
  855MOL0     H15360   2.670   1.623   3.523  1.6067  2.1688 -1.3678
  855MOL0     H15361   2.727   1.490   3.631  0.9932 -0.2348  0.4644
  855MOL0     H15362   2.856   1.654   3.760  2.1090  0.6973 -2.5480
  855MOL0     H15363   2.780   1.774   3.645  2.2265 -0.1409  0.1174
  855MOL0     H15364   2.646   1.598   3.842  0.8094  0.8677 -0.0595
  855MOL0     H15365   2.670   1.773   3.862  0.6284  1.9333 -1.0612
  855MOL0     H15366   2.511   1.824   3.690  1.0334  0.0174 -0.4911
  855MOL0     H15367   2.505   1.670   3.616  2.5589  2.7200 -1.1617
  855MOL0     H15368   2.398   1.555   3.811 -1.3407  0.6004  1.4749
  855MOL0     H15369   2.401   1.697   3.909  0.7070 -3.7176  1.1603
  855MOL0     H15370   2.272   1.782   3.687 -0.0521  0.7754  1.2408
  855MOL0     H15371   2.245   1.601   3.663  2.9294  0.0369 -1.6945
  855MOL0     H15372   2.110   1.568   3.825  0.8393  0.2780  1.4026
  855MOL0     H15373   2.151   1.700   3.932  1.5286 -0.8017 -0.1922
  855MOL0     H15374   2.050   1.867   3.766 -2.1302  0.3892 -1.6971
  855MOL0     H15375   1.934   1.755   3.837  0.2165  0.3806 -0.0000
  855MOL0     H15376   1.841   1.550   3.664  0.4555  1.5639  1.4913
  855MOL0     H15377   1.780   1.571   3.286  1.8258  1.0967  0.3477
  855MOL0     H15378   1.807   1.434   3.403 -1.7102 -0.7395  3.6731
  855MOL0     H15379   1.589   1.600   3.485  2.8310 -1.0857  3.0647
  855MOL0     H15380   1.604   1.429   3.468  0.1018  0.9279  2.1487
  855MOL0     H15381   1.582   1.443   3.223  0.6073  0.6077 -0.1148
  855MOL0     H15382   1.554   1.618   3.233  0.2286  0.6471 -0.3441
  855MOL0     H15383   1.334   1.513   3.207 -1.0114  2.0159  0.4270
  855MOL0     H15384   1.346   1.596   3.357 -1.5767 -2.7944  0.8826
  855MOL0     H15385   1.324   1.206   3.523 -1.4099 -2.0398 -3.3967
  855MOL0     H15386   1.051   1.037   3.688 -0.4710  0.5597 -1.2096
  855MOL0     H15387   1.213   1.022   3.627 -0.3594 -2.3337  2.0516
  855MOL0     H15388   1.183   1.113   3.774  0.5960 -0.9990 -0.2039
  855MOL0     H15389   0.659   1.176   3.812 -0.5966  0.0115 -0.2499
  855MOL0     H15390   0.434   1.211   3.901 -0.3219  0.2149 -0.9846
  855MOL0     H15391   0.262   1.610   3.911  1.4732  0.3903 -0.6169
  855MOL0     H15392   0.159   1.545   3.778  1.1257 -0.2105 -0.3399
  855MOL0     H15393   0.110   1.485   4.072  1.4339 -0.3326  0.1549
  855MOL0     H15394   0.022   1.603   3.963 -0.9535  0.1119  2.0451
  855MOL0     H15395   0.023   1.302   3.949 -0.7423 -0.5053  1.4683
  855MOL0     H15396  -0.065   1.403   3.832  0.0478 -2.4331 -0.0977
  855MOL0     H15397  -0.098   1.379   4.138  2.3855  1.4654 -0.2061
  855MOL0     H15398  -0.172   1.511   4.058  0.0907 -0.1800  1.3722
  855MOL0     H15399  -0.229   1.228   3.963 -1.9178 -0.3190  1.6406
  855MOL0     H15400  -0.294   1.375   3.902  3.1708  0.1538 -1.2834
  855MOL0     H15401  -0.364   1.377   4.189  0.9997  2.3440 -2.6649
  855MOL0     H15402  -0.470   1.295   4.085 -0.8229  1.0049  3.3762
  855MOL0     H15403  -0.219   1.173   4.215 -0.2506  2.6408 -2.2509
  855MOL0     H15404  -0.325   1.092   4.101  1.0465  1.4057 -1.4787
  855MOL0     H15405  -0.419   1.208   4.360 -2.8903  0.0414 -0.6301
  855MOL0     H15406  -0.385   1.031   4.341 -2.2792 -0.6208  0.4832
  855MOL0     H15407   0.406   1.598   3.724  1.3315  0.6781  0.0487
  855MOL0     H15408   0.626   1.575   3.624  0.3804  1.3243  2.1110
  855MOL0     H15409   0.932   1.489   3.512 -0.3581  0.7249  0.1696
  855MOL0     H15410   1.132   1.536   3.370 -0.5593  0.9583  0.3893
  855MOL0     H15411   2.898   1.580   3.252 -1.2535  2.2814  2.5898
  855MOL0     H15412   2.944   1.380   3.096  1.3032  1.1924 -0.2214
  855MOL0     H15413   2.657   0.934   2.982 -1.6068 -2.2128  1.0877
  855MOL0     H15414   2.672   0.725   2.868 -0.8588 -0.9983  0.6952
  855MOL0     H15415   3.005   0.594   2.743 -0.8758  2.0257  1.2124
  855MOL0     H15416   2.966   0.423   2.777  1.6166 -0.3537 -0.3033
  855MOL0     H15417   2.851   0.505   2.566 -1.5368 -1.5074 -0.2414
  855MOL0     H15418   2.778   0.640   2.640  2.1063  0.7319 -1.5589
  855MOL0     H15419   2.634   0.494   2.780  1.6032  2.3257 -0.9771
  855MOL0     H15420   2.715   0.341   2.722 -1.7570 -0.7030  1.2715
  855MOL0     H15421   2.564   0.545   2.567 -2.6142 -0.6435 -2.6887
  855MOL0     H15422   2.492   0.391   2.621  0.1542 -0.6484 -1.3426
  855MOL0     H15423   2.730   0.303   2.267  1.3787 -0.4971  0.9256
  855MOL0     H15424   3.086   0.685   3.000 -0.6568 -2.8719 -0.4000
  855MOL0     H15425   3.076   0.889   3.115  0.1836 -1.4691  0.4723
  856MOL0     O15426  10.835   6.390   7.751  0.1247 -0.1966  0.1093
  856MOL0     C15427  10.851   6.287   7.817 -0.3019 -0.2570 -0.2378
  856MOL0     O15428  10.750   6.218   7.883 -0.6117 -0.3013  0.4022
  856MOL0     C15429  10.621   6.257   7.873  0.9392 -0.6682 -0.4325
  856MOL0     C15430  10.538   6.186   7.964 -0.1189  0.4255 -0.3024
  856MOL0     C15431  10.397   6.203   7.960 -0.6765 -0.4848  0.1237
  856MOL0     C15432  10.333   6.291   7.870  0.3583 -0.0793 -0.9946
  856MOL0     O15433  10.200   6.334   7.865  0.2662 -0.5148 -0.5287
  856MOL0     C15434  10.106   6.280   7.958 -0.3504  0.2784  0.3828
  856MOL0     C15435   9.982   6.372   7.939  0.1533  0.0616  0.0560
  856MOL0     C15436   9.998   6.494   8.033  0.6263 -0.2042  0.5567
  856MOL0     C15437   9.902   6.607   8.001  0.0759  1.0270 -0.2459
  856MOL0     C15438   9.930   6.683   7.874  0.1876  0.1767 -0.1914
  856MOL0     C15439   9.856   6.819   7.879  0.5641 -0.3725  0.2788
  856MOL0     C15440   9.745   6.824   7.761  0.6908  0.8411 -0.2387
  856MOL0     C15441   9.610   6.748   7.781  0.1714 -0.2409  0.2199
  856MOL0     N15442   9.545   6.767   7.654  0.1449  0.0016 -0.2636
  856MOL0     C15443   9.552   6.680   7.544  0.7078  0.6265 -0.6093
  856MOL0     C15444   9.472   6.740   7.456 -1.0280  0.1161 -0.9762
  856MOL0     C15445   9.465   6.687   7.317 -0.3573 -0.0545  0.1323
  856MOL0     C15446   9.339   6.608   7.291  0.2394  0.5028  0.5419
  856MOL0     C15447   9.346   6.551   7.150 -0.3131  0.7174  0.2855
  856MOL0     C15448   9.209   6.492   7.110  0.0625  0.1367 -0.2154
  856MOL0     O15449   9.213   6.438   6.974  0.1365  0.4798  0.0232
  856MOL0     C15450   9.096   6.383   6.930 -0.1102  1.3955 -0.7110
  856MOL0     C15451   8.971   6.410   6.983 -0.3225  0.3425  0.8484
  856MOL0     C15452   8.854   6.356   6.930  0.4335 -0.7570  0.2796
  856MOL0     C15453   8.728   6.375   7.003  0.0362  0.6788  0.2768
  856MOL0     C15454   8.859   6.284   6.812  0.0284  0.4737  0.0785
  856MOL0     C15455   8.741   6.244   6.731  0.2376 -0.8156 -0.8433
  856MOL0     O15456   8.630   6.322   6.731 -0.1144 -1.0126  0.4653
  856MOL0     C15457   8.507   6.275   6.681  0.4815 -0.6238 -0.8155
  856MOL0     C15458   8.395   6.297   6.769  0.4332  0.0594 -0.3563
  856MOL0     C15459   8.273   6.257   6.717  0.2524 -0.1744 -0.0252
  856MOL0     C15460   8.264   6.213   6.583  0.0187  0.9589 -0.5819
  856MOL0     O15461   8.150   6.170   6.520 -0.6539  0.3226  0.0898
  856MOL0     C15462   8.058   6.091   6.596 -0.0591 -0.0247 -0.2079
  856MOL0     C15463   7.925   6.079   6.521  0.4050 -0.0655 -0.1891
  856MOL0     C15464   7.844   6.209   6.524 -0.3401 -0.1307 -0.2008
  856MOL0     C15465   7.711   6.200   6.591 -0.6024 -0.0770 -0.5860
  856MOL0     C15466   7.711   6.155   6.737 -0.3962 -1.2155 -0.3029
  856MOL0     C15467   7.586   6.180   6.821  0.2014 -0.8103 -0.3817
  856MOL0     C15468   7.570   6.331   6.853 -0.1495 -0.1819  0.5435
  856MOL0     C15469   7.476   6.348   6.965 -0.0250 -0.3928 -0.0367
  856MOL0    Cl15470   7.409   6.520   6.988  0.1616 -0.4039 -0.4333
  856MOL0     C15471   8.374   6.196   6.503  0.6153  0.4775 -0.6688
  856MOL0     C15472   8.500   6.239   6.547 -0.5792  0.3596 -0.2326
  856MOL0     O15473   8.752   6.146   6.655 -0.1567 -0.2218 -0.7810
  856MOL0     C15474   8.984   6.252   6.758 -0.2839 -0.1340 -0.0828
  856MOL0     C15475   9.102   6.303   6.818 -0.1034  0.4871  0.2157
  856MOL0     N15476   9.406   6.840   7.513 -0.7485 -0.3019 -0.1576
  856MOL0     N15477   9.452   6.858   7.631 -0.0226 -0.7752 -0.2783
  856MOL0     C15478  10.416   6.359   7.783  0.1781 -0.7354  0.2212
  856MOL0     C15479  10.552   6.337   7.781  0.3031 -0.4827  0.3908
  856MOL0     C15480  10.988   6.237   7.846 -0.5265  0.4156 -0.5637
  856MOL0     C15481  11.095   6.299   7.779 -0.1855  0.6649  0.6321
  856MOL0     C15482  11.231   6.263   7.807  0.6340  0.2409  0.8550
  856MOL0     C15483  11.251   6.150   7.887  0.5638  0.5788 -0.1441
  856MOL0     O15484  11.377   6.103   7.915 -0.2811  0.0886  0.4041
  856MOL0     C15485  11.485   6.135   7.827 -0.3151 -0.2592  0.5539
  856MOL0     C15486  11.612   6.051   7.874 -0.2170 -0.1354  0.6656
  856MOL0     C15487  11.722   6.083   7.776 -0.1213 -0.1117  0.2352
  856MOL0     C15488  11.858   6.025   7.803 -0.9275 -0.4498 -0.9155
  856MOL0     C15489  11.960   6.057   7.707  0.4699  0.0727  0.8272
  856MOL0     C15490  12.052   6.060   7.629  0.4073  0.2999  0.4292
  856MOL0     C15491  11.146   6.079   7.951  0.7432  0.1545 -0.4568
  856MOL0     C15492  11.015   6.128   7.935 -0.7249  0.0247 -0.7784
  856MOL0     H15493  10.585   6.112   8.027 -0.3722  0.2739 -0.2880
  856MOL0     H15494  10.338   6.158   8.039  0.7796  0.2344  1.6851
  856MOL0     H15495  10.080   6.177   7.936  0.4890 -0.0484  0.8650
  856MOL0     H15496  10.139   6.287   8.062  2.0252  3.5462 -0.4329
  856MOL0     H15497   9.975   6.408   7.836  0.5092  0.7306  0.2652
  856MOL0     H15498   9.902   6.300   7.961  2.1028 -2.1400  0.3383
  856MOL0     H15499   9.981   6.462   8.136 -1.9095  0.7372  0.5141
  856MOL0     H15500  10.100   6.531   8.017  0.6671  0.2540  1.8231
  856MOL0     H15501   9.806   6.556   7.987 -0.5724  2.0937  0.1268
  856MOL0     H15502   9.900   6.677   8.085  1.4011  0.7826  0.0073
  856MOL0     H15503  10.037   6.690   7.856  0.0984  1.3472 -0.3080
  856MOL0     H15504   9.903   6.622   7.788 -1.1895  0.1795  0.2135
  856MOL0     H15505   9.823   6.844   7.980 -1.0890  1.2497 -0.5761
  856MOL0     H15506   9.928   6.898   7.857  4.3313 -3.2030  1.5082
  856MOL0     H15507   9.710   6.926   7.743 -1.7754 -0.1103 -1.3135
  856MOL0     H15508   9.791   6.773   7.676 -0.9134 -2.9682  0.9491
  856MOL0     H15509   9.558   6.798   7.863  1.0211  2.0979 -0.5727
  856MOL0     H15510   9.629   6.642   7.797 -0.5019 -0.2708  0.8234
  856MOL0     H15511   9.616   6.599   7.511 -0.4924 -0.8732  0.5632
  856MOL0     H15512   9.472   6.772   7.248 -0.1769 -0.5480 -0.4650
  856MOL0     H15513   9.548   6.618   7.302 -0.7263 -0.8558  1.5396
  856MOL0     H15514   9.251   6.671   7.305 -1.6971 -1.5929 -1.2219
  856MOL0     H15515   9.349   6.526   7.363 -1.9598 -0.8178 -0.5281
  856MOL0     H15516   9.423   6.475   7.137 -0.1485  0.6871  1.3182
  856MOL0     H15517   9.377   6.628   7.079 -0.9254 -2.3484 -3.5772
  856MOL0     H15518   9.148   6.583   7.114  2.0796  1.5348  0.5937
  856MOL0     H15519   9.177   6.421   7.186 -1.8483 -0.3225 -1.3853
  856MOL0     H15520   8.950   6.468   7.073  0.1469 -0.0350  1.2097
  856MOL0     H15521   8.669   6.462   6.973 -3.2229 -0.9396  1.4940
  856MOL0     H15522   8.666   6.287   6.986  2.5926 -0.9142 -1.4719
  856MOL0     H15523   8.748   6.386   7.110 -2.2178  0.9888  0.7269
  856MOL0     H15524   8.424   6.328   6.869 -1.7550  0.3208  0.2393
  856MOL0     H15525   8.190   6.260   6.786  1.2337 -1.1320  1.2715
  856MOL0     H15526   8.090   5.989   6.618  0.6883  0.1236 -0.5753
  856MOL0     H15527   8.045   6.135   6.695  1.3162 -1.2219  0.5356
  856MOL0     H15528   7.936   6.050   6.416  0.4872  0.2052 -0.2550
  856MOL0     H15529   7.863   6.000   6.564 -2.4518  2.1942  0.1246
  856MOL0     H15530   7.824   6.240   6.421 -1.7827 -1.2359 -0.2998
  856MOL0     H15531   7.895   6.294   6.570 -2.3216  1.6866 -1.1646
  856MOL0     H15532   7.664   6.299   6.590  2.3353  1.4062 -0.7572
  856MOL0     H15533   7.649   6.136   6.527 -0.1794 -1.2428  0.1300
  856MOL0     H15534   7.800   6.190   6.788  0.7588 -3.6092 -0.5397
  856MOL0     H15535   7.721   6.048   6.717  1.3661 -1.0874 -0.2319
  856MOL0     H15536   7.501   6.147   6.760 -1.4510  1.2194  0.6775
  856MOL0     H15537   7.591   6.119   6.912  0.2495 -1.5599 -0.8827
  856MOL0     H15538   7.536   6.385   6.764  2.4353  2.3737  0.9519
  856MOL0     H15539   7.662   6.373   6.894 -0.6231  3.6728 -1.7875
  856MOL0     H15540   7.522   6.320   7.060 -1.7609  0.6818  1.1858
  856MOL0     H15541   7.392   6.282   6.942  0.9890 -1.1843 -1.6466
  856MOL0     H15542   8.353   6.159   6.403  1.9497 -0.2148 -0.7177
  856MOL0     H15543   8.592   6.240   6.491 -0.1732 -0.9007  0.3680
  856MOL0     H15544   8.994   6.179   6.678  2.4559  1.0234 -0.8994
  856MOL0     H15545   9.202   6.293   6.775 -0.4191  1.9499 -0.9747
  856MOL0     H15546  10.359   6.423   7.715 -1.1730  0.5218  2.3908
  856MOL0     H15547  10.599   6.388   7.697  1.9785 -0.0845  1.5116
  856MOL0     H15548  11.083   6.385   7.713 -1.2015 -0.9512 -1.3908
  856MOL0     H15549  11.313   6.318   7.762 -0.7107  0.9561 -0.8708
  856MOL0     H15550  11.467   6.119   7.720 -0.9817  4.0547 -0.1294
  856MOL0     H15551  11.504   6.242   7.839 -1.0398  0.1194 -1.3317
  856MOL0     H15552  11.579   5.946   7.870  0.0303 -0.1939  0.0760
  856MOL0     H15553  11.634   6.089   7.974 -0.0054  1.8962 -0.1085
  856MOL0     H15554  11.729   6.193   7.780  0.8659 -0.1351 -0.3125
  856MOL0     H15555  11.689   6.052   7.677 -1.9298  0.8720  0.4992
  856MOL0     H15556  11.852   5.917   7.812  1.6577 -0.5854  0.0804
  856MOL0     H15557  11.895   6.064   7.899  0.0993  0.9934 -1.8365
  856MOL0     H15558  12.145   6.076   7.577 -0.1034  1.1838 -0.2359
  856MOL0     H15559  11.173   6.000   8.020  0.1660 -1.1978 -1.7010
  856MOL0     H15560  10.936   6.073   7.985 -0.7061 -1.7399 -2.5588
  857MOL0     O15561  10.547   2.287   4.300  0.3184  0.3306  0.0021
  857MOL0     C15562  10.600   2.238   4.398  0.4522 -0.1032  0.2664
  857MOL0     O15563  10.549   2.146   4.484  0.3359  0.5256 -0.3352
  857MOL0     C15564  10.431   2.071   4.465  0.3571 -0.0212  0.1723
  857MOL0     C15565  10.379   2.007   4.580 -0.1887 -0.3101 -0.4185
  857MOL0     C15566  10.254   1.942   4.572  0.5021  0.0155  0.0590
  857MOL0     C15567  10.191   1.921   4.450  0.4820 -0.8627  0.1675
  857MOL0     O15568  10.073   1.851   4.444 -0.1563 -0.2246  0.7245
  857MOL0     C15569  10.025   1.814   4.306 -0.1273  0.0698 -0.1110
  857MOL0     C15570   9.946   1.688   4.327 -0.5860 -0.7055  0.8864
  857MOL0     C15571   9.816   1.717   4.400 -0.3572  0.5135  0.0993
  857MOL0     C15572   9.720   1.601   4.430 -1.4943  0.2737  0.6324
  857MOL0     C15573   9.583   1.642   4.484 -0.2595 -0.1460 -0.8472
  857MOL0     C15574   9.496   1.527   4.556  0.4054 -0.2216 -0.2702
  857MOL0     C15575   9.486   1.400   4.471 -0.3107  0.4201 -0.1171
  857MOL0     C15576   9.400   1.295   4.543 -0.0932  0.1687  0.0849
  857MOL0     N15577   9.263   1.342   4.548  0.0143  0.1851  0.2477
  857MOL0     C15578   9.173   1.366   4.447 -0.7755  0.5042 -0.2397
  857MOL0     C15579   9.061   1.415   4.511  0.1235  0.6303  0.4523
  857MOL0     C15580   8.938   1.446   4.439  0.1608  0.7476  0.5481
  857MOL0     C15581   8.860   1.324   4.400  0.1773 -0.3331  0.0952
  857MOL0     C15582   8.797   1.250   4.526  0.3857  0.5441 -0.2387
  857MOL0     C15583   8.720   1.132   4.473 -0.1308  0.2132  0.8399
  857MOL0     O15584   8.628   1.158   4.368 -0.1796  0.1539 -0.1894
  857MOL0     C15585   8.509   1.213   4.394 -0.0231 -0.5791  0.4176
  857MOL0     C15586   8.471   1.318   4.304  0.4368  0.2352 -0.3797
  857MOL0     C15587   8.336   1.364   4.314 -0.1118 -0.5725 -0.6257
  857MOL0     C15588   8.306   1.444   4.187  0.8389 -0.5478  0.2093
  857MOL0     C15589   8.252   1.322   4.415  0.3730  0.9746  0.2607
  857MOL0     C15590   8.115   1.357   4.438  0.0383 -0.0417 -0.3096
  857MOL0     O15591   8.033   1.268   4.506 -0.1312 -0.0759 -0.3928
  857MOL0     C15592   7.910   1.305   4.524  0.4993  0.7585  0.5719
  857MOL0     C15593   7.852   1.335   4.646 -0.5760 -1.0100  0.3748
  857MOL0     C15594   7.714   1.373   4.645 -0.7169 -0.4015  0.0741
  857MOL0     C15595   7.633   1.360   4.540  0.6683  0.3180 -0.0745
  857MOL0     O15596   7.500   1.397   4.552 -0.4836 -0.1855 -0.8580
  857MOL0     C15597   7.387   1.342   4.479 -0.4229  0.4514 -0.1204
  857MOL0     C15598   7.346   1.202   4.529  0.7840  0.4229 -0.1814
  857MOL0     C15599   7.245   1.129   4.448 -0.0089  0.7265 -0.4977
  857MOL0     C15600   7.245   0.982   4.493 -0.4824 -0.3612  0.4352
  857MOL0     C15601   7.112   0.906   4.498  0.4032  0.0327  0.6800
  857MOL0     C15602   7.020   0.960   4.600  0.4106  0.5385 -0.1662
  857MOL0     C15603   6.888   0.884   4.632  0.3827  0.4440  0.5457
  857MOL0     C15604   6.817   0.958   4.740  0.2480  0.2108  0.5498
  857MOL0    Cl15605   6.902   0.933   4.899 -0.3514 -0.5347 -0.1579
  857MOL0     C15606   7.690   1.315   4.419  0.5711 -0.3850 -0.5133
  857MOL0     C15607   7.827   1.291   4.411 -0.0896  0.4097  0.3738
  857MOL0     O15608   8.079   1.462   4.378  0.3628  0.2423  0.6914
  857MOL0     C15609   8.305   1.244   4.517 -0.2922 -0.0034  0.7351
  857MOL0     C15610   8.429   1.181   4.510 -0.3479  0.5802 -0.0864
  857MOL0     N15611   9.084   1.423   4.647 -0.0759  0.4761 -0.0381
  857MOL0     N15612   9.206   1.380   4.665 -0.3470  1.0556  0.2689
  857MOL0     C15613  10.246   1.979   4.333 -0.1387 -0.2728 -0.6932
  857MOL0     C15614  10.354   2.059   4.341 -0.0826 -0.2838 -0.5422
  857MOL0     C15615  10.734   2.293   4.428  1.0125 -0.4684  0.4607
  857MOL0     C15616  10.780   2.295   4.561 -0.1048  1.0146 -0.3182
  857MOL0     C15617  10.910   2.357   4.583  0.5994 -0.0551 -0.6525
  857MOL0     C15618  10.991   2.394   4.478 -0.1571  0.1857 -0.9016
  857MOL0     O15619  11.108   2.456   4.520  0.1758 -0.0535 -0.1471
  857MOL0     C15620  11.198   2.480   4.413  0.3974 -0.3969  0.0244
  857MOL0     C15621  11.335   2.525   4.483 -0.5798  0.7052 -0.1558
  857MOL0     C15622  11.398   2.402   4.552  0.1372 -0.5829  0.0428
  857MOL0     C15623  11.487   2.328   4.461  0.4879 -1.0782  0.5292
  857MOL0     C15624  11.606   2.414   4.426  0.3254 -0.3626  0.2213
  857MOL0     C15625  11.691   2.494   4.412 -0.2079 -0.0493  0.0260
  857MOL0     C15626  10.949   2.376   4.350 -0.4140  0.3042  0.1711
  857MOL0     C15627  10.824   2.330   4.324  0.6831  0.2732  0.4915
  857MOL0     H15628  10.435   2.010   4.673  2.3986 -1.3219 -1.8512
  857MOL0     H15629  10.221   1.882   4.656 -1.2435  2.2707  1.1036
  857MOL0     H15630   9.967   1.890   4.254 -0.3979  0.5057  0.8097
  857MOL0     H15631  10.114   1.786   4.248  0.5880 -1.4733  1.6061
  857MOL0     H15632   9.924   1.643   4.229  1.7432 -3.1184  1.3549
  857MOL0     H15633  10.005   1.614   4.381  0.6660 -2.6259 -2.7572
  857MOL0     H15634   9.840   1.757   4.499 -0.7367  1.2101 -0.0852
  857MOL0     H15635   9.759   1.793   4.347  0.5511  0.7063 -0.6286
  857MOL0     H15636   9.721   1.537   4.342  0.7711  1.0929 -0.0059
  857MOL0     H15637   9.769   1.546   4.511 -1.0617  1.9303  1.5579
  857MOL0     H15638   9.589   1.730   4.548  1.3511  0.4549 -1.7556
  857MOL0     H15639   9.530   1.679   4.396  2.9101  1.2048 -2.3834
  857MOL0     H15640   9.539   1.519   4.656  1.0941  3.0903 -0.1726
  857MOL0     H15641   9.396   1.569   4.569 -1.0221 -1.9036 -4.1555
  857MOL0     H15642   9.440   1.422   4.374  1.2339  0.4476 -0.8603
  857MOL0     H15643   9.583   1.356   4.448  0.9198  1.2057  3.0131
  857MOL0     H15644   9.435   1.292   4.647  0.6440 -0.8290 -0.1798
  857MOL0     H15645   9.415   1.193   4.508 -1.5568  0.7213 -2.3576
  857MOL0     H15646   9.189   1.333   4.345 -1.7213  2.4862 -1.1019
  857MOL0     H15647   8.872   1.507   4.501  1.2364  1.0459  1.4327
  857MOL0     H15648   8.961   1.505   4.350 -1.1678 -3.0949 -2.6340
  857MOL0     H15649   8.930   1.264   4.341 -0.0127 -1.1562  0.6773
  857MOL0     H15650   8.779   1.367   4.341  0.1806 -2.2743 -1.4339
  857MOL0     H15651   8.743   1.325   4.584  1.9094  0.2274  1.7236
  857MOL0     H15652   8.879   1.205   4.585 -1.1759 -4.2226 -1.2201
  857MOL0     H15653   8.665   1.082   4.554  0.8261  1.4421  2.3103
  857MOL0     H15654   8.798   1.067   4.434  0.0448 -0.9717  3.0169
  857MOL0     H15655   8.530   1.340   4.216  3.2688  2.2535  1.8708
  857MOL0     H15656   8.283   1.374   4.106  1.8394 -0.6822  0.0251
  857MOL0     H15657   8.220   1.511   4.191  1.4034  0.2067 -0.0449
  857MOL0     H15658   8.395   1.503   4.164  1.6998 -0.9119  2.3985
  857MOL0     H15659   7.916   1.347   4.733  0.5785  2.7865 -0.7964
  857MOL0     H15660   7.676   1.396   4.744  2.2066 -0.4108  1.3271
  857MOL0     H15661   7.310   1.418   4.498  2.2579  3.0981  0.8235
  857MOL0     H15662   7.399   1.350   4.370  0.0274  2.5311  0.0356
  857MOL0     H15663   7.432   1.134   4.535 -0.8859 -1.9494 -1.4277
  857MOL0     H15664   7.316   1.215   4.633  0.9692  2.3958 -0.3376
  857MOL0     H15665   7.267   1.151   4.343  1.2473 -0.2165 -0.4633
  857MOL0     H15666   7.143   1.163   4.464 -1.5066 -3.8200  1.2265
  857MOL0     H15667   7.321   0.935   4.429  0.6570 -1.1884  2.2988
  857MOL0     H15668   7.285   0.978   4.595 -0.5300 -3.1812  0.4322
  857MOL0     H15669   7.123   0.799   4.519 -0.5144 -0.6404 -1.9635
  857MOL0     H15670   7.054   0.915   4.406 -0.1486  0.4522  1.0630
  857MOL0     H15671   7.075   0.967   4.695 -0.7802  0.0233  0.5816
  857MOL0     H15672   7.011   1.067   4.580  3.1692  1.1460  1.2259
  857MOL0     H15673   6.914   0.782   4.661  0.5492 -0.0145 -1.1281
  857MOL0     H15674   6.821   0.885   4.545 -0.6779 -0.3930  1.3257
  857MOL0     H15675   6.712   0.928   4.747  0.5760 -1.3814 -0.7626
  857MOL0     H15676   6.822   1.064   4.713 -0.8881  0.2746  0.5677
  857MOL0     H15677   7.619   1.317   4.337 -2.4186  0.3972  1.9133
  857MOL0     H15678   7.875   1.257   4.320 -0.4330  4.0369 -1.3714
  857MOL0     H15679   8.244   1.225   4.605  0.6477 -1.3485  1.1407
  857MOL0     H15680   8.438   1.105   4.587  1.1047  1.1330  0.3124
  857MOL0     H15681  10.216   1.975   4.229 -2.9829 -1.2647  0.0705
  857MOL0     H15682  10.400   2.106   4.255 -2.0854  0.6934 -1.1521
  857MOL0     H15683  10.719   2.257   4.643  1.8190  1.8453  1.6017
  857MOL0     H15684  10.942   2.368   4.686  0.9286 -2.0396 -0.5036
  857MOL0     H15685  11.214   2.391   4.351 -1.3132 -1.7645  1.4321
  857MOL0     H15686  11.151   2.559   4.354  1.6812  0.4768  0.1410
  857MOL0     H15687  11.309   2.591   4.566  1.3677  1.1916  0.1171
  857MOL0     H15688  11.398   2.567   4.404 -1.1879  1.9180 -0.0247
  857MOL0     H15689  11.322   2.338   4.597 -0.8512 -0.4043 -1.2984
  857MOL0     H15690  11.465   2.435   4.631 -0.2799  1.0182 -0.2487
  857MOL0     H15691  11.442   2.290   4.369  0.9762  2.7243 -1.5138
  857MOL0     H15692  11.539   2.252   4.519  1.0707 -1.1860 -0.1110
  857MOL0     H15693  11.783   2.548   4.415  0.7878 -1.6198 -0.4823
  857MOL0     H15694  11.018   2.402   4.270 -0.4599  0.8667  0.3062
  857MOL0     H15695  10.790   2.321   4.221 -0.1282  1.1841  0.6645
  858MOL0     O15696   9.409  10.988   2.617 -0.6422  0.5361  0.6614
  858MOL0     C15697   9.447  11.060   2.705 -0.4172  0.3477 -0.7522
  858MOL0     O15698   9.367  11.109   2.799 -0.3228 -0.2398 -0.2812
  858MOL0     C15699   9.234  11.077   2.792  0.0966  0.1704 -0.6434
  858MOL0     C15700   9.142  11.180   2.764 -0.0416 -0.0084  0.5275
  858MOL0     C15701   9.004  11.144   2.763 -0.5218  0.2856 -0.1855
  858MOL0     C15702   8.959  11.023   2.806 -0.6557 -0.0678 -0.3249
  858MOL0     O15703   8.826  10.980   2.820  0.4345 -0.9273  0.5086
  858MOL0     C15704   8.724  11.070   2.770  0.0743 -0.6765  0.6504
  858MOL0     C15705   8.666  11.161   2.880  0.8328  0.2419 -0.3056
  858MOL0     C15706   8.530  11.204   2.851 -0.4845  0.8991  0.9817
  858MOL0     C15707   8.472  11.292   2.954  0.8062 -1.1847  0.7518
  858MOL0     C15708   8.354  11.371   2.898 -0.7975 -0.3988  0.0944
  858MOL0     C15709   8.262  11.409   3.013 -0.1164  0.3381  0.2833
  858MOL0     C15710   8.140  11.483   2.963  0.8435 -0.5289 -0.5796
  858MOL0     C15711   8.036  11.501   3.086  0.8493  0.8986  0.2907
  858MOL0     N15712   7.913  11.563   3.033 -0.0171  0.8731  0.1108
  858MOL0     C15713   7.784  11.514   3.026 -0.4336  0.6540 -0.6612
  858MOL0     C15714   7.713  11.616   2.977 -0.6152 -0.2576 -0.2479
  858MOL0     C15715   7.571  11.625   2.933  0.0099  0.3507 -0.6784
  858MOL0     C15716   7.490  11.493   2.967  0.2611  0.9084 -0.8546
  858MOL0     C15717   7.338  11.533   2.996 -0.1475  0.4469 -0.1305
  858MOL0     C15718   7.254  11.408   3.023 -0.3169  0.3378 -0.2305
  858MOL0     O15719   7.122  11.431   3.074  0.6713  0.3983 -0.0853
  858MOL0     C15720   7.028  11.486   2.986 -0.4635 -0.0182 -0.1872
  858MOL0     C15721   7.026  11.460   2.850  0.5988  1.0883  0.7230
  858MOL0     C15722   6.921  11.489   2.762 -0.2129 -0.3038  0.3045
  858MOL0     C15723   6.923  11.440   2.616 -0.3833 -0.1314 -0.2918
  858MOL0     C15724   6.827  11.570   2.817  0.1249 -0.4587 -0.0790
  858MOL0     C15725   6.718  11.627   2.727  0.1242 -0.7096  0.7050
  858MOL0     O15726   6.744  11.656   2.597  0.4133 -0.1851  0.1136
  858MOL0     C15727   6.645  11.701   2.511 -0.4071 -1.2094  0.5480
  858MOL0     C15728   6.687  11.762   2.393  0.4297 -0.0438  0.0619
  858MOL0     C15729   6.587  11.810   2.304 -0.0347 -0.3496 -0.0196
  858MOL0     C15730   6.450  11.786   2.318  0.8729 -0.8700  1.0237
  858MOL0     O15731   6.365  11.834   2.227 -0.2209 -0.0225  1.0126
  858MOL0     C15732   6.219  11.823   2.244  0.2766 -0.3233 -0.6187
  858MOL0     C15733   6.133  11.910   2.147 -0.4369 -0.9079 -0.7322
  858MOL0     C15734   5.989  11.860   2.137  0.1782  0.4699  0.3856
  858MOL0     C15735   5.898  11.960   2.063 -0.8309 -0.2709 -0.6970
  858MOL0     C15736   5.749  11.907   2.079 -0.6233  0.2720  0.4334
  858MOL0     C15737   5.664  11.972   1.965  0.6978  1.0006  0.4325
  858MOL0     C15738   5.513  11.949   1.988  0.3215  1.3610 -0.2146
  858MOL0     C15739   5.472  11.817   1.930  0.3484  0.3655  0.4932
  858MOL0    Cl15740   5.289  11.834   1.962 -0.7882  0.2849  0.2584
  858MOL0     C15741   6.413  11.715   2.433  0.1835 -0.3939 -0.5551
  858MOL0     C15742   6.505  11.662   2.518  0.2497  0.2603  0.4790
  858MOL0     O15743   6.613  11.654   2.787  0.6588 -0.7171  0.3052
  858MOL0     C15744   6.827  11.603   2.951 -0.3219 -0.2549 -0.4887
  858MOL0     C15745   6.921  11.556   3.036  0.4012  0.4108 -0.7060
  858MOL0     N15746   7.800  11.726   2.961 -0.1679 -0.7632  0.2095
  858MOL0     N15747   7.915  11.694   2.999  0.3370 -0.9355 -0.0895
  858MOL0     C15748   9.048  10.918   2.835  0.0533  0.3826  0.7959
  858MOL0     C15749   9.186  10.948   2.835 -0.3605 -0.4642  0.3344
  858MOL0     C15750   9.585  11.115   2.684 -0.4289  0.8936  0.4904
  858MOL0     C15751   9.613  11.224   2.764  0.2830  0.4172  0.4176
  858MOL0     C15752   9.742  11.282   2.745 -0.0578  0.2562  0.3103
  858MOL0     C15753   9.824  11.227   2.647 -1.1160 -0.2873 -0.5637
  858MOL0     O15754   9.945  11.286   2.636 -0.2480  0.5104  0.6872
  858MOL0     C15755  10.048  11.221   2.563 -0.3956 -0.0546  0.7019
  858MOL0     C15756  10.191  11.272   2.600 -0.1200  0.2352 -0.0534
  858MOL0     C15757  10.257  11.202   2.720  0.2427 -0.1189 -0.7190
  858MOL0     C15758  10.409  11.242   2.757  0.1532  0.3432 -0.3998
  858MOL0     C15759  10.500  11.234   2.642 -1.3961  0.3282 -0.6218
  858MOL0     C15760  10.579  11.218   2.554 -0.4109 -0.4142 -0.6995
  858MOL0     C15761   9.791  11.117   2.571  0.5606  0.6209  0.1825
  858MOL0     C15762   9.667  11.059   2.595 -0.2617  0.3728 -0.1148
  858MOL0     H15763   9.187  11.278   2.749  0.2822  0.0671  1.8395
  858MOL0     H15764   8.942  11.231   2.745  1.2295  1.8887  1.0419
  858MOL0     H15765   8.764  11.129   2.687 -1.3122  1.0866  1.1726
  858MOL0     H15766   8.647  11.010   2.720  0.4648  0.3733 -1.3168
  858MOL0     H15767   8.650  11.098   2.968 -1.7712  2.4356  0.9306
  858MOL0     H15768   8.727  11.249   2.901  0.0520  0.2845  2.1480
  858MOL0     H15769   8.534  11.240   2.747  0.5703  2.2877  1.4695
  858MOL0     H15770   8.464  11.118   2.838  2.2969 -1.3369  0.4234
  858MOL0     H15771   8.449  11.235   3.044  3.7115 -2.4398  0.8252
  858MOL0     H15772   8.547  11.368   2.978 -0.8383  1.1945 -1.1122
  858MOL0     H15773   8.387  11.463   2.849 -1.2172 -1.0296 -1.4296
  858MOL0     H15774   8.303  11.314   2.819 -0.3164 -2.7203  1.3892
  858MOL0     H15775   8.232  11.321   3.072  0.7895  0.5799  1.1354
  858MOL0     H15776   8.318  11.474   3.081 -0.3252 -0.2648  1.0471
  858MOL0     H15777   8.157  11.587   2.933 -0.2025 -0.3623 -0.6238
  858MOL0     H15778   8.087  11.429   2.884  0.3328 -2.1937  0.8265
  858MOL0     H15779   8.086  11.563   3.162  1.8571 -2.8536  3.0437
  858MOL0     H15780   8.001  11.406   3.128  2.9561 -0.3535 -0.5937
  858MOL0     H15781   7.762  11.408   3.036 -3.5121  0.9583 -2.9147
  858MOL0     H15782   7.534  11.715   2.983  0.8503 -0.9011  2.4636
  858MOL0     H15783   7.566  11.641   2.825  1.7194 -1.5538 -1.1113
  858MOL0     H15784   7.527  11.433   3.050 -2.4612  1.4051  0.8570
  858MOL0     H15785   7.494  11.414   2.891 -0.6295 -0.1725  0.1693
  858MOL0     H15786   7.311  11.573   2.898  1.6009 -0.4169 -1.0133
  858MOL0     H15787   7.332  11.609   3.074  0.2517 -0.2315  0.5785
  858MOL0     H15788   7.291  11.353   3.109 -0.5948  0.2483 -0.1658
  858MOL0     H15789   7.257  11.342   2.936  0.9697 -0.7062  0.5766
  858MOL0     H15790   7.102  11.390   2.815  0.2372  1.3703 -0.7058
  858MOL0     H15791   6.984  11.506   2.553  2.8634 -1.6797  1.0137
  858MOL0     H15792   6.966  11.339   2.610  0.0298  0.1155 -1.8533
  858MOL0     H15793   6.823  11.420   2.576 -0.4446 -2.5819  0.8938
  858MOL0     H15794   6.789  11.797   2.383 -0.5711  2.8831 -0.6696
  858MOL0     H15795   6.623  11.864   2.216 -1.2245  1.5097  0.5795
  858MOL0     H15796   6.202  11.717   2.222 -1.0416 -1.0516  3.2166
  858MOL0     H15797   6.196  11.839   2.350 -0.5274 -1.0064 -0.6802
  858MOL0     H15798   6.134  12.015   2.177 -2.8806 -0.8514 -0.6455
  858MOL0     H15799   6.160  11.900   2.041  0.6320 -2.7089 -0.3249
  858MOL0     H15800   5.943  11.845   2.235 -1.6443 -0.1881 -0.5362
  858MOL0     H15801   5.990  11.761   2.091  1.9173  0.4920  0.3081
  858MOL0     H15802   5.903  12.058   2.110 -0.4993 -0.1997 -0.8841
  858MOL0     H15803   5.934  11.968   1.960  3.1646  0.5206  0.5944
  858MOL0     H15804   5.718  11.930   2.181 -0.7257  0.4932  0.3516
  858MOL0     H15805   5.749  11.800   2.056 -0.5751  0.5417 -0.8814
  858MOL0     H15806   5.685  12.079   1.960 -1.3848  1.5040  1.2131
  858MOL0     H15807   5.702  11.933   1.870 -0.4660  1.7373 -0.3596
  858MOL0     H15808   5.459  12.032   1.940 -1.1223 -0.7280 -2.4297
  858MOL0     H15809   5.497  11.939   2.096  0.4425 -2.0471 -0.4037
  858MOL0     H15810   5.511  11.731   1.986 -1.1640 -0.8060 -0.1648
  858MOL0     H15811   5.496  11.811   1.824  2.4026 -0.5116  0.9578
  858MOL0     H15812   6.312  11.683   2.455  0.0142  1.2672  1.3459
  858MOL0     H15813   6.465  11.607   2.603 -1.0598 -0.1100 -0.3629
  858MOL0     H15814   6.748  11.665   2.992 -0.8936 -1.5433  0.4626
  858MOL0     H15815   6.913  11.560   3.144 -4.0966  0.2359 -0.8116
  858MOL0     H15816   9.001  10.825   2.867  1.1951  0.6722  3.6367
  858MOL0     H15817   9.264  10.874   2.849 -1.3202 -1.5036  0.3305
  858MOL0     H15818   9.540  11.275   2.826 -0.8771 -1.8032  0.9786
  858MOL0     H15819   9.768  11.380   2.783  5.2323 -0.4578 -0.6973
  858MOL0     H15820  10.045  11.113   2.581  0.0120  0.2495  2.8601
  858MOL0     H15821  10.028  11.236   2.456  1.1406 -2.5864 -0.0256
  858MOL0     H15822  10.210  11.380   2.596  2.8797 -0.2271 -3.0415
  858MOL0     H15823  10.255  11.249   2.514  0.7621 -0.8230  0.8601
  858MOL0     H15824  10.264  11.093   2.712  0.6046 -0.2439  0.9465
  858MOL0     H15825  10.190  11.202   2.807  2.3394 -1.8672  1.0021
  858MOL0     H15826  10.444  11.178   2.839 -0.6494 -1.7519 -1.5938
  858MOL0     H15827  10.402  11.341   2.801 -2.7104  0.8491 -1.7343
  858MOL0     H15828  10.635  11.197   2.466  0.3550 -0.4104 -0.2246
  858MOL0     H15829   9.849  11.065   2.495 -1.0616 -1.0366  0.0037
  858MOL0     H15830   9.632  10.971   2.540 -1.0168  1.1483 -0.9110
  859MOL0     O15831   6.811   5.177   8.645 -0.7493 -0.2966 -0.7458
  859MOL0     C15832   6.855   5.246   8.736  0.3915 -0.2730 -0.0690
  859MOL0     O15833   6.789   5.343   8.796  0.0959  0.0434 -0.1588
  859MOL0     C15834   6.657   5.362   8.761  0.4194  0.6908  0.5562
  859MOL0     C15835   6.619   5.485   8.704  0.6590  0.2625 -0.1921
  859MOL0     C15836   6.485   5.509   8.669 -0.4245 -0.0958  0.1625
  859MOL0     C15837   6.386   5.407   8.680 -0.2592 -0.7628 -0.4358
  859MOL0     O15838   6.260   5.441   8.635 -0.3331 -0.3866  0.7504
  859MOL0     C15839   6.141   5.363   8.653  0.6105  0.1456 -0.3022
  859MOL0     C15840   6.031   5.423   8.569  0.3210  0.8461  0.4654
  859MOL0     C15841   5.975   5.551   8.626 -0.2235 -0.1452  0.2873
  859MOL0     C15842   5.914   5.543   8.766 -0.1945 -0.3001 -0.2867
  859MOL0     C15843   5.807   5.662   8.782 -1.0947 -0.1607 -0.1188
  859MOL0     C15844   5.762   5.659   8.927  0.6125 -0.0101  0.1108
  859MOL0     C15845   5.671   5.778   8.948 -0.2129 -0.9171  0.3688
  859MOL0     C15846   5.638   5.808   9.091 -0.0635  0.1783 -0.4585
  859MOL0     N15847   5.562   5.936   9.095  0.3153 -0.0538  0.0108
  859MOL0     C15848   5.601   6.061   9.055 -0.3942 -0.1717 -0.1165
  859MOL0     C15849   5.492   6.137   9.054 -0.3578  0.6164 -0.0909
  859MOL0     C15850   5.477   6.282   9.027  0.6341  0.1297 -0.4237
  859MOL0     C15851   5.420   6.312   8.887 -0.1402 -0.1043  0.4245
  859MOL0     C15852   5.268   6.304   8.875  1.0046  0.7314  0.6222
  859MOL0     C15853   5.190   6.425   8.946  0.7310  0.3495  0.0379
  859MOL0     O15854   5.054   6.385   8.922 -0.8951  0.1558  0.0383
  859MOL0     C15855   4.947   6.466   8.921 -0.1347  0.6602 -0.3404
  859MOL0     C15856   4.819   6.404   8.932  0.8572  0.8901 -0.0826
  859MOL0     C15857   4.700   6.471   8.953  0.9227  0.4653 -0.5431
  859MOL0     C15858   4.575   6.393   8.980  0.2821  0.7004  0.9493
  859MOL0     C15859   4.705   6.617   8.949  0.3626 -0.4745 -0.3241
  859MOL0     C15860   4.577   6.699   8.951 -0.1457 -1.0446 -0.3843
  859MOL0     O15861   4.598   6.832   8.905 -0.2514 -0.2018  0.2420
  859MOL0     C15862   4.490   6.919   8.888 -1.0756  1.2441 -0.0653
  859MOL0     C15863   4.501   7.023   8.796  0.2269  0.2701 -0.4241
  859MOL0     C15864   4.400   7.124   8.785 -0.0422 -0.2272 -0.0643
  859MOL0     C15865   4.281   7.117   8.859 -0.0420  0.7927 -0.5715
  859MOL0     O15866   4.178   7.202   8.841  0.9141 -0.1205  0.6106
  859MOL0     C15867   4.204   7.325   8.779  0.6934 -0.4576 -0.8377
  859MOL0     C15868   4.074   7.400   8.805  0.2366 -0.0701  0.5918
  859MOL0     C15869   4.082   7.532   8.733  0.4110 -0.8461 -0.0813
  859MOL0     C15870   3.955   7.621   8.745  0.5992 -0.0400 -0.3423
  859MOL0     C15871   3.953   7.734   8.637 -0.4751  0.2180 -0.8626
  859MOL0     C15872   3.910   7.693   8.502 -0.1916 -0.1863  0.5236
  859MOL0     C15873   3.753   7.685   8.497 -0.5198  0.2220  0.7025
  859MOL0     C15874   3.711   7.597   8.374  0.7274 -0.6587 -0.1360
  859MOL0    Cl15875   3.800   7.671   8.229 -0.0565 -0.4475  0.1861
  859MOL0     C15876   4.263   7.015   8.945  0.0289  0.8207  0.1160
  859MOL0     C15877   4.370   6.923   8.969  0.3456 -0.0820  0.1379
  859MOL0     O15878   4.472   6.651   8.990  0.0053  0.3638 -0.1131
  859MOL0     C15879   4.835   6.678   8.940  0.3894 -0.8093  0.5869
  859MOL0     C15880   4.950   6.603   8.942  0.9500 -0.4952 -0.8390
  859MOL0     N15881   5.382   6.050   9.087 -1.0261 -0.2762 -0.1168
  859MOL0     N15882   5.428   5.935   9.107  0.5506  0.2220 -0.2054
  859MOL0     C15883   6.429   5.286   8.742 -0.6205 -0.2532 -0.2859
  859MOL0     C15884   6.562   5.261   8.778  0.3782 -0.8319  1.0947
  859MOL0     C15885   6.995   5.219   8.778 -0.6660  0.3884 -0.4759
  859MOL0     C15886   7.044   5.087   8.789 -0.4237 -0.9287  0.3718
  859MOL0     C15887   7.186   5.063   8.811  0.8644 -0.0071 -0.7202
  859MOL0     C15888   7.276   5.171   8.813 -0.3702  0.3050  0.8587
  859MOL0     O15889   7.410   5.137   8.831 -0.4641 -0.5512  0.1115
  859MOL0     C15890   7.495   5.169   8.718  0.3834 -0.2675  0.1867
  859MOL0     C15891   7.591   5.050   8.693 -0.2955 -0.0430 -0.4576
  859MOL0     C15892   7.685   5.047   8.825  0.6755  0.0762 -0.2360
  859MOL0     C15893   7.797   4.941   8.806 -0.1454  0.5191  0.2130
  859MOL0     C15894   7.913   5.001   8.733  0.9984  0.2356 -0.4994
  859MOL0     C15895   8.003   5.060   8.676  0.4494 -0.0589 -0.2423
  859MOL0     C15896   7.227   5.303   8.813 -0.1170 -0.4382  0.1671
  859MOL0     C15897   7.084   5.327   8.792 -0.0412 -0.2763 -1.3969
  859MOL0     H15898   6.686   5.569   8.688 -0.1703  0.6794 -1.7259
  859MOL0     H15899   6.466   5.605   8.621 -0.4744 -0.3491 -0.3304
  859MOL0     H15900   6.158   5.263   8.611  2.2381  0.0743  0.4655
  859MOL0     H15901   6.109   5.351   8.756 -0.9014  2.0266 -0.5057
  859MOL0     H15902   6.060   5.428   8.464  0.1834 -2.4274  0.1702
  859MOL0     H15903   5.951   5.350   8.578 -2.5517  3.8012  0.6428
  859MOL0     H15904   6.055   5.626   8.623  0.1196 -0.5349 -0.5090
  859MOL0     H15905   5.900   5.574   8.549  2.2485 -2.2090 -2.9985
  859MOL0     H15906   5.866   5.448   8.792  2.2721 -1.1652  1.4042
  859MOL0     H15907   5.992   5.564   8.840 -0.0448  3.6413 -1.3260
  859MOL0     H15908   5.862   5.756   8.768  1.6771 -1.2263  2.5717
  859MOL0     H15909   5.726   5.662   8.708 -1.6307 -2.9718  0.3460
  859MOL0     H15910   5.704   5.567   8.941  0.4944 -0.1277 -1.0541
  859MOL0     H15911   5.847   5.672   8.995  0.8644 -1.1109  0.0340
  859MOL0     H15912   5.719   5.864   8.901 -0.8768  0.1139  1.5278
  859MOL0     H15913   5.579   5.758   8.892 -0.5627 -0.4649  0.7745
  859MOL0     H15914   5.726   5.821   9.155 -1.4149  1.4399  1.2597
  859MOL0     H15915   5.573   5.733   9.136  3.9605 -2.8080  1.0084
  859MOL0     H15916   5.699   6.092   9.021 -0.3907  2.1466  1.7776
  859MOL0     H15917   5.403   6.323   9.096 -1.7872 -2.8860 -1.0140
  859MOL0     H15918   5.582   6.314   9.038  1.0845 -1.9200  2.1095
  859MOL0     H15919   5.471   6.246   8.816  2.1297 -0.2236  2.0559
  859MOL0     H15920   5.445   6.414   8.855 -0.9888  0.1673  0.6141
  859MOL0     H15921   5.223   6.210   8.906  0.5743 -0.4453 -3.0876
  859MOL0     H15922   5.248   6.313   8.768 -0.0714  2.1130  0.8998
  859MOL0     H15923   5.215   6.516   8.892  0.3770 -0.0419 -0.8061
  859MOL0     H15924   5.212   6.428   9.053  1.4662 -0.2236 -0.0896
  859MOL0     H15925   4.817   6.295   8.928 -0.6914  0.7606  2.1025
  859MOL0     H15926   4.591   6.286   8.967 -3.1862  0.0638  1.0685
  859MOL0     H15927   4.539   6.390   9.083  0.4729 -3.5498  1.0495
  859MOL0     H15928   4.500   6.410   8.902 -0.4094  2.5166  1.9541
  859MOL0     H15929   4.593   7.031   8.739 -0.8670  0.9590 -2.1564
  859MOL0     H15930   4.417   7.212   8.722 -0.2726 -0.7699 -0.9014
  859MOL0     H15931   4.281   7.383   8.830 -0.6856  1.5743 -0.9806
  859MOL0     H15932   4.220   7.316   8.671 -0.1287  0.8164 -1.0734
  859MOL0     H15933   3.988   7.341   8.772  2.7114 -3.0915 -1.0175
  859MOL0     H15934   4.065   7.413   8.913  0.6488 -0.7808  0.7163
  859MOL0     H15935   4.078   7.515   8.625  1.6570  0.5948 -0.3766
  859MOL0     H15936   4.166   7.592   8.769  0.9347 -1.6964  0.1215
  859MOL0     H15937   3.863   7.562   8.743 -0.1218  1.0531 -0.0439
  859MOL0     H15938   3.970   7.664   8.845  0.0292 -1.8325  0.5653
  859MOL0     H15939   4.059   7.763   8.629  0.2653 -1.4715  1.6112
  859MOL0     H15940   3.894   7.821   8.666 -3.0884 -0.2879 -4.0716
  859MOL0     H15941   3.940   7.776   8.437  1.0114 -1.6098 -0.8189
  859MOL0     H15942   3.964   7.603   8.471  1.2682 -0.5853  3.8462
  859MOL0     H15943   3.718   7.788   8.486 -0.1648  0.1345 -1.8840
  859MOL0     H15944   3.709   7.646   8.589 -2.3362 -2.2596 -1.0608
  859MOL0     H15945   3.603   7.595   8.354  0.3291 -1.6712  1.8719
  859MOL0     H15946   3.737   7.492   8.390  1.5843 -0.5569 -0.7746
  859MOL0     H15947   4.165   7.022   8.991 -1.6446 -1.2278 -2.7819
  859MOL0     H15948   4.356   6.851   9.049  2.6550 -1.7517 -0.8842
  859MOL0     H15949   4.841   6.786   8.932 -2.8111 -0.6270 -0.8663
  859MOL0     H15950   5.045   6.655   8.947  1.3091 -1.1334 -0.9934
  859MOL0     H15951   6.363   5.202   8.757  1.1930 -1.1575  4.1114
  859MOL0     H15952   6.592   5.164   8.816  1.5120 -0.3786  1.4054
  859MOL0     H15953   6.972   5.005   8.785  0.4101 -1.7251  1.2419
  859MOL0     H15954   7.225   4.962   8.811  0.7384 -0.1022  1.7090
  859MOL0     H15955   7.436   5.183   8.626  2.1206 -0.0768 -0.9354
  859MOL0     H15956   7.550   5.261   8.736  0.0782  0.0171 -0.3061
  859MOL0     H15957   7.647   5.059   8.600  0.8992  1.4819  0.3617
  859MOL0     H15958   7.534   4.957   8.698 -2.2229  1.0918 -0.4932
  859MOL0     H15959   7.623   5.022   8.912 -0.1214  2.5630  0.0052
  859MOL0     H15960   7.740   5.141   8.833  2.4817 -0.7571 -1.9914
  859MOL0     H15961   7.762   4.850   8.757 -2.0541  3.0318 -3.6481
  859MOL0     H15962   7.828   4.915   8.907  2.7785  1.1335 -0.4299
  859MOL0     H15963   8.083   5.118   8.633  0.1187 -0.5010 -1.4903
  859MOL0     H15964   7.302   5.381   8.804  0.5880 -1.2119 -0.8611
  859MOL0     H15965   7.052   5.431   8.789 -3.1032 -0.9315  2.1187
  860MOL0     O15966   2.274   3.289   1.599  0.1540 -0.2652 -0.3122
  860MOL0     C15967   2.342   3.306   1.495  1.0345  0.9385  0.1705
  860MOL0     O15968   2.298   3.326   1.368 -0.0727  0.6511  0.5483
  860MOL0     C15969   2.161   3.326   1.346  0.5039 -0.7759 -0.8199
  860MOL0     C15970   2.078   3.213   1.372 -0.0316  0.0824  0.0733
  860MOL0     C15971   1.952   3.210   1.318  0.0669  0.4353 -0.0675
  860MOL0     C15972   1.901   3.323   1.253  0.6421  0.4483 -0.0553
  860MOL0     O15973   1.771   3.328   1.196 -0.7882 -0.7923 -0.8564
  860MOL0     C15974   1.685   3.215   1.212 -0.3293  0.9821  0.3907
  860MOL0     C15975   1.617   3.183   1.336  0.1992  0.3483 -0.2259
  860MOL0     C15976   1.501   3.067   1.325  0.2282 -0.4053 -0.8487
  860MOL0     C15977   1.430   3.041   1.455 -0.4613  0.0559 -0.4644
  860MOL0     C15978   1.296   2.970   1.437 -0.0469 -0.1633 -0.2586
  860MOL0     C15979   1.296   2.820   1.418 -0.1972 -0.3847 -0.0637
  860MOL0     C15980   1.154   2.751   1.406 -0.8418 -1.0180 -1.2299
  860MOL0     C15981   1.176   2.607   1.376 -0.1569  0.0669  0.1049
  860MOL0     N15982   1.049   2.535   1.353  0.3284  0.3413 -0.4351
  860MOL0     C15983   0.932   2.565   1.426 -0.3007 -0.9062 -0.4993
  860MOL0     C15984   0.830   2.500   1.366  0.4829 -0.5209  0.7406
  860MOL0     C15985   0.685   2.521   1.403  0.1984  0.5544 -0.7338
  860MOL0     C15986   0.605   2.400   1.455 -0.5013  0.2910 -0.2405
  860MOL0     C15987   0.567   2.317   1.329  0.4773  0.5597  0.1044
  860MOL0     C15988   0.493   2.191   1.368  0.3475  0.3819  0.1455
  860MOL0     O15989   0.371   2.226   1.427  0.5352 -0.2452  0.0189
  860MOL0     C15990   0.307   2.129   1.504 -1.4643  0.5685  0.0396
  860MOL0     C15991   0.346   1.993   1.530  0.2261  1.2221  0.9838
  860MOL0     C15992   0.263   1.894   1.596 -0.4268  0.0645  0.2366
  860MOL0     C15993   0.320   1.748   1.609  0.3119  0.2734 -0.5733
  860MOL0     C15994   0.141   1.942   1.655 -0.0177  0.3360 -0.3301
  860MOL0     C15995   0.042   1.855   1.730  0.4798  0.0554 -0.9390
  860MOL0     O15996   0.068   1.722   1.741 -0.1544 -0.0768  1.2323
  860MOL0     C15997  -0.006   1.646   1.834  0.3269  0.5541  0.0948
  860MOL0     C15998  -0.136   1.597   1.812  0.0312  1.1346  0.0836
  860MOL0     C15999  -0.198   1.506   1.901 -0.6815 -0.2204 -0.1670
  860MOL0     C16000  -0.144   1.470   2.024  0.5749  0.2796 -0.3933
  860MOL0     O16001  -0.208   1.401   2.123  0.1603 -0.4362  0.4057
  860MOL0     C16002  -0.332   1.343   2.096 -0.3359  0.6642 -0.3742
  860MOL0     C16003  -0.360   1.226   2.194  0.0786  0.5279 -0.4754
  860MOL0     C16004  -0.473   1.127   2.151  0.1048  0.4861 -0.5272
  860MOL0     C16005  -0.605   1.197   2.140 -0.3257 -0.7840  0.4573
  860MOL0     C16006  -0.718   1.113   2.084 -0.7598 -0.4443 -0.0808
  860MOL0     C16007  -0.853   1.179   2.081  0.1297 -0.1567 -0.1484
  860MOL0     C16008  -0.917   1.222   2.218 -0.2344 -0.2531 -0.3369
  860MOL0     C16009  -1.068   1.256   2.181  0.0574  0.6419 -0.5194
  860MOL0    Cl16010  -1.164   1.102   2.146 -0.0016 -0.1737 -0.1271
  860MOL0     C16011  -0.022   1.527   2.049  0.4083 -0.5338  0.0289
  860MOL0     C16012   0.047   1.603   1.956  0.2953 -0.8849  0.4325
  860MOL0     O16013  -0.057   1.906   1.781  0.2709  0.1592 -0.2082
  860MOL0     C16014   0.109   2.077   1.628  0.6900  0.2070  0.0613
  860MOL0     C16015   0.187   2.166   1.560 -0.0502  0.8305 -0.5179
  860MOL0     N16016   0.885   2.431   1.264  0.3015 -0.1223  0.2404
  860MOL0     N16017   1.007   2.460   1.247  0.0726  0.1845  0.0689
  860MOL0     C16018   1.975   3.440   1.237 -0.2803 -0.5011  0.0990
  860MOL0     C16019   2.111   3.439   1.271  0.5158  0.0086 -0.7462
  860MOL0     C16020   2.489   3.308   1.514  0.1410  0.1813  0.4251
  860MOL0     C16021   2.572   3.327   1.402 -0.1881 -0.9292 -0.1871
  860MOL0     C16022   2.714   3.330   1.413  0.2527 -0.0022  0.4326
  860MOL0     C16023   2.766   3.301   1.540 -0.9121  0.1638 -0.5839
  860MOL0     O16024   2.901   3.301   1.567  0.1958  0.6813  1.1463
  860MOL0     C16025   2.991   3.354   1.468  0.5516  0.7481 -0.0571
  860MOL0     C16026   3.134   3.339   1.517 -0.2018  0.6841 -0.0540
  860MOL0     C16027   3.171   3.205   1.569  0.8737  0.0101  0.3619
  860MOL0     C16028   3.326   3.186   1.580  0.5706 -0.5961  1.0191
  860MOL0     C16029   3.392   3.176   1.443  0.8777  0.4182  0.0094
  860MOL0     C16030   3.446   3.176   1.337  0.7203  0.1696  0.2329
  860MOL0     C16031   2.687   3.282   1.654 -0.0562 -0.1599 -0.3198
  860MOL0     C16032   2.546   3.299   1.635 -0.0042 -0.1576 -0.5181
  860MOL0     H16033   2.120   3.127   1.423  0.2955 -0.5205 -1.1873
  860MOL0     H16034   1.895   3.123   1.348  0.3460  0.5883  0.9378
  860MOL0     H16035   1.605   3.242   1.143 -0.8833 -1.2829  0.0701
  860MOL0     H16036   1.742   3.131   1.172  1.0208  1.5599  1.0002
  860MOL0     H16037   1.685   3.147   1.412 -0.8647 -1.2977  0.0016
  860MOL0     H16038   1.558   3.271   1.363 -0.9504  0.1720 -1.9422
  860MOL0     H16039   1.426   3.089   1.248 -0.5320 -1.5526 -0.4498
  860MOL0     H16040   1.557   2.977   1.298  3.1108  1.3109 -1.0977
  860MOL0     H16041   1.489   2.980   1.525 -0.3195  0.7876  0.0747
  860MOL0     H16042   1.407   3.138   1.499 -0.3024 -0.2785  0.3768
  860MOL0     H16043   1.239   2.989   1.529  0.7703 -0.1886  0.2653
  860MOL0     H16044   1.241   3.015   1.354  0.6788 -0.6859 -1.0386
  860MOL0     H16045   1.356   2.787   1.333 -0.2631 -4.9211  1.4013
  860MOL0     H16046   1.354   2.775   1.499  1.7074  0.6201 -0.8134
  860MOL0     H16047   1.099   2.764   1.500 -0.5218 -0.4979 -1.1069
  860MOL0     H16048   1.089   2.806   1.337 -0.7872 -0.6095 -0.9609
  860MOL0     H16049   1.228   2.570   1.465  2.1893  0.3094 -1.0785
  860MOL0     H16050   1.246   2.591   1.294 -1.6921 -2.2283 -0.8544
  860MOL0     H16051   0.916   2.637   1.505  0.5594 -0.5493 -0.6383
  860MOL0     H16052   0.668   2.602   1.475  0.9626  0.9091 -0.9388
  860MOL0     H16053   0.644   2.570   1.314  2.4701  0.8701 -1.6692
  860MOL0     H16054   0.524   2.422   1.524 -0.6698  1.1214 -0.6818
  860MOL0     H16055   0.680   2.348   1.515 -1.4649  1.5353  2.1690
  860MOL0     H16056   0.653   2.278   1.274  0.8320  2.4738 -0.7438
  860MOL0     H16057   0.510   2.372   1.254 -1.8711 -1.1869  0.4759
  860MOL0     H16058   0.558   2.141   1.440  1.6807  1.5091 -0.2391
  860MOL0     H16059   0.481   2.117   1.287  0.1136 -1.0899  1.4711
  860MOL0     H16060   0.437   1.951   1.488 -2.1317 -1.1407 -2.3029
  860MOL0     H16061   0.310   1.700   1.707  2.9540  1.7884  0.5510
  860MOL0     H16062   0.262   1.690   1.537  0.9753 -0.6570 -0.3777
  860MOL0     H16063   0.427   1.740   1.586 -0.0408  0.1686 -2.3157
  860MOL0     H16064  -0.192   1.617   1.721  0.4531  1.0778 -0.1906
  860MOL0     H16065  -0.301   1.488   1.872 -1.0280  0.7378  0.4288
  860MOL0     H16066  -0.414   1.415   2.106 -0.0106  1.0080 -0.1772
  860MOL0     H16067  -0.336   1.303   1.994  2.2027  0.8710 -0.6333
  860MOL0     H16068  -0.272   1.162   2.202  0.6782  1.4096  0.1652
  860MOL0     H16069  -0.381   1.251   2.299  0.3771 -0.5439 -0.1548
  860MOL0     H16070  -0.483   1.050   2.228  2.7681  0.7496  0.2038
  860MOL0     H16071  -0.456   1.077   2.055 -0.9757  1.3867 -1.2100
  860MOL0     H16072  -0.634   1.232   2.240  2.9429  0.5491  1.0613
  860MOL0     H16073  -0.592   1.278   2.068  0.8227 -2.7600 -1.6824
  860MOL0     H16074  -0.732   1.021   2.141  2.3644 -0.7185  0.4411
  860MOL0     H16075  -0.683   1.094   1.982 -0.6431  5.0598 -1.3894
  860MOL0     H16076  -0.855   1.256   2.004 -1.0825  2.4617  2.2886
  860MOL0     H16077  -0.914   1.098   2.041  3.2152 -2.9715  0.4293
  860MOL0     H16078  -0.862   1.312   2.248  2.6446 -1.1671 -2.4214
  860MOL0     H16079  -0.911   1.150   2.300  1.7160  1.7294  1.4235
  860MOL0     H16080  -1.067   1.334   2.103  1.2328 -0.4590 -1.6557
  860MOL0     H16081  -1.111   1.301   2.271  2.4918  1.9770  0.0597
  860MOL0     H16082   0.020   1.518   2.149 -4.9144  0.8218  2.7718
  860MOL0     H16083   0.140   1.640   1.999 -0.9754 -0.0803  2.6165
  860MOL0     H16084   0.014   2.120   1.659  1.3591  2.1885 -0.4982
  860MOL0     H16085   0.143   2.263   1.542  2.7519  1.8595 -2.3670
  860MOL0     H16086   1.937   3.519   1.172  1.5124  0.0941 -0.2598
  860MOL0     H16087   2.182   3.517   1.243 -1.4483  2.1246 -0.1105
  860MOL0     H16088   2.529   3.320   1.302  2.4137 -0.8235 -1.3940
  860MOL0     H16089   2.778   3.354   1.329  1.5194 -2.3047  0.6626
  860MOL0     H16090   2.985   3.302   1.372  1.0085 -2.1609  1.4019
  860MOL0     H16091   2.966   3.459   1.447  1.8151  1.0131 -0.3198
  860MOL0     H16092   3.154   3.409   1.600 -2.7810  0.1298  1.1285
  860MOL0     H16093   3.194   3.351   1.426 -0.5993  0.0782 -0.3963
  860MOL0     H16094   3.128   3.122   1.512 -1.7806 -1.7396  4.4601
  860MOL0     H16095   3.135   3.188   1.671 -0.4254 -2.6663 -0.4395
  860MOL0     H16096   3.333   3.085   1.621 -0.0445 -1.5226 -1.0243
  860MOL0     H16097   3.383   3.263   1.632  2.0142 -0.0526 -1.1847
  860MOL0     H16098   3.484   3.211   1.243  0.5987 -0.3526 -0.0132
  860MOL0     H16099   2.729   3.262   1.752  0.5035  1.3748 -0.2159
  860MOL0     H16100   2.486   3.297   1.725  1.6453  3.2248  0.8582
  861MOL0     O16101   2.498   9.263   3.403  0.2263  0.0706  0.0889
  861MOL0     C16102   2.567   9.329   3.319  0.5664 -0.1931 -0.3785
  861MOL0     O16103   2.674   9.292   3.261 -0.2279  0.2365 -0.4944
  861MOL0     C16104   2.741   9.180   3.302 -1.0054  0.3481 -0.9376
  861MOL0     C16105   2.682   9.056   3.300  0.8145  0.3762 -0.3074
  861MOL0     C16106   2.752   8.938   3.342 -0.6235 -0.4267  0.0432
  861MOL0     C16107   2.873   8.944   3.405  0.1745 -0.5047 -0.9144
  861MOL0     O16108   2.935   8.835   3.442 -0.0550 -0.2035  0.1092
  861MOL0     C16109   3.065   8.846   3.512 -0.3281 -0.1592 -0.0369
  861MOL0     C16110   3.119   8.701   3.533 -0.1562 -0.6442 -0.6783
  861MOL0     C16111   3.145   8.621   3.409 -0.2325  0.0986  1.1520
  861MOL0     C16112   3.252   8.688   3.326 -0.6605 -0.2777  0.4658
  861MOL0     C16113   3.301   8.601   3.211 -0.4231 -0.2231  0.4179
  861MOL0     C16114   3.435   8.644   3.149  0.1794 -0.1876  0.4640
  861MOL0     C16115   3.472   8.556   3.024  0.3912  0.1649 -0.2748
  861MOL0     C16116   3.575   8.619   2.923 -0.4916 -0.1572  0.0482
  861MOL0     N16117   3.711   8.611   2.969  0.2681 -0.4881  0.2161
  861MOL0     C16118   3.809   8.534   2.923 -1.2374 -1.5165 -0.5213
  861MOL0     C16119   3.919   8.552   3.003 -0.3720  0.2173 -0.4559
  861MOL0     C16120   4.055   8.492   2.970 -0.5391 -0.2132  0.3537
  861MOL0     C16121   4.079   8.356   3.039  0.3080  0.5732  0.1497
  861MOL0     C16122   3.989   8.247   2.978  0.4531  0.1856  0.6484
  861MOL0     C16123   4.015   8.116   3.050  0.4600  1.4734 -0.6322
  861MOL0     O16124   4.013   8.133   3.192  0.5239 -0.6605  0.5133
  861MOL0     C16125   3.897   8.111   3.251  0.2729 -0.1235  0.6668
  861MOL0     C16126   3.793   8.206   3.258 -0.7668 -0.3652 -0.0255
  861MOL0     C16127   3.674   8.189   3.332 -1.0472 -0.9490 -0.2885
  861MOL0     C16128   3.572   8.307   3.338  0.4773 -1.0204 -1.1453
  861MOL0     C16129   3.644   8.062   3.385  0.2271  0.3110  0.4659
  861MOL0     C16130   3.520   8.020   3.454  0.3818  0.1904  0.4571
  861MOL0     O16131   3.536   7.895   3.514 -0.2829  0.2743 -0.1319
  861MOL0     C16132   3.438   7.851   3.597 -0.6551  0.3975  1.1031
  861MOL0     C16133   3.481   7.798   3.717 -0.6177 -0.1438  0.3473
  861MOL0     C16134   3.383   7.745   3.809 -0.7967 -0.4230 -0.0975
  861MOL0     C16135   3.251   7.720   3.760 -0.2434  0.0359 -0.4098
  861MOL0     O16136   3.159   7.643   3.825  0.1803  0.6187  0.2073
  861MOL0     C16137   3.195   7.572   3.940 -1.2996 -0.1905 -0.3200
  861MOL0     C16138   3.098   7.451   3.954  0.6511 -0.2865  0.2274
  861MOL0     C16139   3.125   7.389   4.094 -0.1256  0.8078  0.4529
  861MOL0     C16140   3.039   7.263   4.112  0.2684  0.3568 -0.5330
  861MOL0     C16141   3.081   7.193   4.234 -0.0377  0.7732 -0.5214
  861MOL0     C16142   2.994   7.070   4.281 -0.2700 -0.1571  0.2277
  861MOL0     C16143   3.016   7.022   4.426  0.3833 -0.8647  0.2261
  861MOL0     C16144   2.953   6.890   4.462 -0.1203 -0.6764 -0.0632
  861MOL0    Cl16145   2.770   6.890   4.454 -0.0602  0.4599  1.0796
  861MOL0     C16146   3.216   7.761   3.636 -0.8299 -0.2463  0.1192
  861MOL0     C16147   3.306   7.837   3.553  0.0402 -0.1556 -0.9309
  861MOL0     O16148   3.411   8.081   3.439  0.4874  0.0185 -0.2131
  861MOL0     C16149   3.748   7.963   3.371  0.5645 -0.4633  0.2123
  861MOL0     C16150   3.872   7.989   3.308 -0.1609  0.2911 -0.0336
  861MOL0     N16151   3.875   8.641   3.109 -0.0030 -0.3769  0.2736
  861MOL0     N16152   3.757   8.684   3.075 -1.0103  0.6063  0.6437
  861MOL0     C16153   2.927   9.073   3.427  0.3247 -0.1563 -0.4927
  861MOL0     C16154   2.858   9.188   3.380 -0.3471 -0.7871  0.6543
  861MOL0     C16155   2.516   9.467   3.293 -0.1053  0.4792 -0.1425
  861MOL0     C16156   2.408   9.513   3.367  0.6101 -0.4901  0.7748
  861MOL0     C16157   2.349   9.638   3.340  0.9696 -0.2200  0.2513
  861MOL0     C16158   2.402   9.726   3.249  0.3910  0.0413 -0.6521
  861MOL0     O16159   2.330   9.836   3.220  0.5225  0.0220  0.6392
  861MOL0     C16160   2.301   9.919   3.336 -0.1635  0.4408  0.0179
  861MOL0     C16161   2.340  10.067   3.297  1.3377 -0.2741 -0.2955
  861MOL0     C16162   2.485  10.080   3.267  0.4547  0.1860 -0.3026
  861MOL0     C16163   2.511  10.229   3.239  0.2307  0.4529 -0.4388
  861MOL0     C16164   2.657  10.252   3.209 -0.5668  0.0849 -0.1540
  861MOL0     C16165   2.771  10.275   3.179 -0.3994 -0.3654 -0.4627
  861MOL0     C16166   2.508   9.681   3.172  0.3560 -0.2924 -0.2422
  861MOL0     C16167   2.564   9.549   3.197  0.6033  0.0461 -0.1154
  861MOL0     H16168   2.576   9.057   3.278  0.3424  2.0240  1.7248
  861MOL0     H16169   2.691   8.849   3.354 -0.8815 -0.1748  0.6261
  861MOL0     H16170   3.143   8.897   3.455  3.3731 -1.3901  3.5121
  861MOL0     H16171   3.054   8.905   3.603 -0.8654  0.4308 -0.4666
  861MOL0     H16172   3.219   8.709   3.578 -0.1607  3.5744 -1.0053
  861MOL0     H16173   3.058   8.638   3.598  1.4371 -3.6108 -1.8961
  861MOL0     H16174   3.185   8.523   3.437 -1.5933 -0.3377  1.6133
  861MOL0     H16175   3.055   8.607   3.349  0.3406 -0.7193  0.4467
  861MOL0     H16176   3.217   8.785   3.289  2.2218  0.3731 -0.8235
  861MOL0     H16177   3.340   8.709   3.388 -0.9927  0.1629  0.7984
  861MOL0     H16178   3.323   8.506   3.261  0.5226  1.7231  4.1250
  861MOL0     H16179   3.216   8.598   3.142  2.1852  1.5949 -3.1669
  861MOL0     H16180   3.430   8.750   3.123  0.6466  1.0110  4.6207
  861MOL0     H16181   3.504   8.640   3.234  0.7176  1.4045  0.1472
  861MOL0     H16182   3.519   8.461   3.050  0.9538 -0.1855 -2.4196
  861MOL0     H16183   3.379   8.545   2.967  0.3834  1.9534 -0.6750
  861MOL0     H16184   3.549   8.722   2.897  0.5015  0.0058 -0.3353
  861MOL0     H16185   3.575   8.571   2.824 -0.0340 -0.2454  0.0909
  861MOL0     H16186   3.804   8.480   2.829  0.6889 -0.4923 -1.2720
  861MOL0     H16187   4.075   8.495   2.863 -0.3215  0.2074  0.4015
  861MOL0     H16188   4.132   8.558   3.011  0.9099 -1.1081 -0.8157
  861MOL0     H16189   4.056   8.368   3.146  1.6222  2.0733  0.3111
  861MOL0     H16190   4.185   8.328   3.037  0.5075  1.3383 -1.5054
  861MOL0     H16191   4.012   8.235   2.872 -4.4384 -1.9530 -0.4549
  861MOL0     H16192   3.886   8.277   3.000  0.8899  1.9667  0.4011
  861MOL0     H16193   4.112   8.075   3.021  0.5889  1.8060 -0.6842
  861MOL0     H16194   3.943   8.038   3.025  0.0377  1.1068  1.5105
  861MOL0     H16195   3.809   8.304   3.214  0.3094  0.2568  1.6660
  861MOL0     H16196   3.496   8.295   3.260  0.5733  0.0647 -1.4264
  861MOL0     H16197   3.537   8.310   3.442  2.2354 -0.6076 -0.5408
  861MOL0     H16198   3.634   8.395   3.321  2.8205 -1.5213  3.3631
  861MOL0     H16199   3.585   7.798   3.749 -1.0562  1.1878  1.9062
  861MOL0     H16200   3.420   7.722   3.908  2.3614  4.8035  0.3112
  861MOL0     H16201   3.298   7.533   3.941 -0.7935  1.0706  0.7025
  861MOL0     H16202   3.183   7.633   4.030 -4.5373 -0.8346 -0.2043
  861MOL0     H16203   2.996   7.488   3.942  0.8372 -0.3573 -2.1710
  861MOL0     H16204   3.111   7.382   3.870 -3.4399  0.4817 -1.2525
  861MOL0     H16205   3.096   7.469   4.163 -0.3665  2.2121 -1.1970
  861MOL0     H16206   3.231   7.365   4.102  0.0053  1.6542  1.4511
  861MOL0     H16207   2.937   7.301   4.118 -0.6460 -1.6071 -2.2470
  861MOL0     H16208   3.045   7.194   4.027 -3.1861 -1.8575  0.7963
  861MOL0     H16209   3.087   7.262   4.319 -0.3396 -2.7813  2.6129
  861MOL0     H16210   3.185   7.160   4.222 -0.8928 -2.9965  1.2310
  861MOL0     H16211   2.889   7.099   4.269  0.3631  2.0810 -0.5495
  861MOL0     H16212   3.012   6.990   4.208  0.6192  1.1413 -1.0462
  861MOL0     H16213   2.966   7.100   4.483  0.0725 -0.0399 -1.1330
  861MOL0     H16214   3.122   7.021   4.449  0.4801  2.2454  0.2742
  861MOL0     H16215   2.998   6.853   4.555  0.6803 -2.0469 -0.9620
  861MOL0     H16216   2.996   6.822   4.388  2.8262 -0.3237  1.1595
  861MOL0     H16217   3.118   7.744   3.594 -0.4307 -0.1645 -0.8753
  861MOL0     H16218   3.278   7.869   3.453  0.3343 -0.9424 -1.2786
  861MOL0     H16219   3.735   7.865   3.414  2.5343 -1.6035 -1.5990
  861MOL0     H16220   3.940   7.906   3.294 -1.2306 -0.3017 -2.1326
  861MOL0     H16221   3.021   9.085   3.478  0.1660 -0.9018 -0.0121
  861MOL0     H16222   2.903   9.285   3.401 -0.8303 -0.2579 -0.6169
  861MOL0     H16223   2.371   9.459   3.454 -1.1512  1.4276  1.3040
  861MOL0     H16224   2.256   9.652   3.395 -1.0021 -3.2452 -1.9961
  861MOL0     H16225   2.196   9.909   3.364  0.3019  0.8236  2.0046
  861MOL0     H16226   2.357   9.901   3.428 -2.4830  1.3351  1.6743
  861MOL0     H16227   2.308  10.133   3.379  0.8369 -0.3671 -0.4146
  861MOL0     H16228   2.277  10.102   3.215  0.2655 -0.6597  0.3373
  861MOL0     H16229   2.514  10.017   3.182  3.0796  1.8728 -0.7382
  861MOL0     H16230   2.543  10.035   3.348 -1.2732 -2.5030 -0.4192
  861MOL0     H16231   2.483  10.292   3.324 -2.3403  0.3364 -1.1421
  861MOL0     H16232   2.441  10.259   3.161 -0.5115 -0.8311 -0.2920
  861MOL0     H16233   2.867  10.315   3.153 -0.4754 -0.8071 -1.4755
  861MOL0     H16234   2.540   9.749   3.094 -2.8608  0.6936 -0.8318
  861MOL0     H16235   2.643   9.522   3.128 -1.9113  0.8764 -3.6347
  862MOL0     O16236   7.429   4.663   5.966  0.2320 -0.1292  0.0924
  862MOL0     C16237   7.487   4.590   5.882  0.4823  0.5720  0.4877
  862MOL0     O16238   7.546   4.471   5.913  0.0389  0.3236 -0.3579
  862MOL0     C16239   7.589   4.428   6.040  0.2635 -0.2270 -0.0429
  862MOL0     C16240   7.651   4.302   6.047  0.6382 -0.2723 -0.1057
  862MOL0     C16241   7.691   4.255   6.167  0.6609  0.1861  0.2336
  862MOL0     C16242   7.683   4.324   6.285 -0.1429 -0.0855  0.2491
  862MOL0     O16243   7.719   4.281   6.412  0.8417  0.7407  0.1869
  862MOL0     C16244   7.787   4.154   6.434  0.3995 -0.1059 -0.9398
  862MOL0     C16245   7.818   4.135   6.586  0.0006 -0.0347  0.4088
  862MOL0     C16246   7.696   4.108   6.678  0.5729 -0.9979 -0.3785
  862MOL0     C16247   7.741   4.050   6.811  0.1353  0.5409  0.5285
  862MOL0     C16248   7.629   4.049   6.913  0.2293 -0.2215 -0.5183
  862MOL0     C16249   7.514   3.951   6.879  0.6479 -0.1535 -0.4765
  862MOL0     C16250   7.405   3.950   6.988 -0.1092  0.3732 -0.0730
  862MOL0     C16251   7.308   3.835   6.978  0.9744 -0.4187  0.6337
  862MOL0     N16252   7.196   3.849   7.070  0.3815 -0.1538 -0.0711
  862MOL0     C16253   7.099   3.753   7.090 -0.2472 -0.1542  0.0865
  862MOL0     C16254   7.016   3.806   7.182 -0.6379 -0.4746  0.2710
  862MOL0     C16255   6.880   3.742   7.212 -0.4008 -0.8272  0.1896
  862MOL0     C16256   6.767   3.850   7.212 -0.2292  0.1484 -0.2358
  862MOL0     C16257   6.631   3.800   7.270  0.1972  0.4690 -0.0665
  862MOL0     C16258   6.520   3.903   7.233 -0.1724 -0.6551  0.1439
  862MOL0     O16259   6.547   4.022   7.302 -0.3865 -0.5796  0.6208
  862MOL0     C16260   6.447   4.107   7.323 -0.5086 -0.6910 -0.3026
  862MOL0     C16261   6.491   4.242   7.338  0.6071 -0.1577 -0.1939
  862MOL0     C16262   6.394   4.341   7.343  0.3794 -0.3747 -0.7175
  862MOL0     C16263   6.453   4.479   7.346  0.0386 -0.3912 -0.2251
  862MOL0     C16264   6.250   4.317   7.347 -0.2546 -0.3152  0.6476
  862MOL0     C16265   6.138   4.419   7.335 -0.2454  0.5667  0.2290
  862MOL0     O16266   6.010   4.380   7.362 -0.4991 -0.0565 -0.2776
  862MOL0     C16267   5.927   4.478   7.400 -0.5404 -0.4538  0.3334
  862MOL0     C16268   5.913   4.504   7.536 -0.5428 -0.3242 -0.7125
  862MOL0     C16269   5.828   4.608   7.581  0.4296 -0.5500  0.4236
  862MOL0     C16270   5.780   4.701   7.488  0.8203  0.4435  0.6240
  862MOL0     O16271   5.695   4.804   7.528  0.8628  0.0092  0.1774
  862MOL0     C16272   5.649   4.898   7.433  0.0767 -0.2680  0.1916
  862MOL0     C16273   5.525   4.844   7.357  0.1960  0.4774  0.0467
  862MOL0     C16274   5.436   4.945   7.286 -0.2264  0.6921 -0.6215
  862MOL0     C16275   5.328   4.876   7.201  0.0177 -0.5020  0.2501
  862MOL0     C16276   5.223   4.975   7.155 -0.1741  0.5671  0.3552
  862MOL0     C16277   5.110   4.895   7.089 -0.4456 -0.2191  0.5269
  862MOL0     C16278   5.006   4.978   7.031  1.2447 -0.6079  0.7260
  862MOL0     C16279   4.874   4.899   7.021 -0.8464  0.5968 -0.2973
  862MOL0    Cl16280   4.750   5.019   7.006  0.1068  0.3054  0.0384
  862MOL0     C16281   5.805   4.683   7.348  0.2105  0.0532  0.4131
  862MOL0     C16282   5.881   4.568   7.304 -0.6402 -0.0665 -1.3485
  862MOL0     O16283   6.173   4.536   7.303 -0.0663  0.8818  0.4598
  862MOL0     C16284   6.214   4.184   7.352  0.1167 -0.1646  0.7362
  862MOL0     C16285   6.310   4.083   7.344  0.9855 -0.0748 -0.7682
  862MOL0     N16286   7.076   3.923   7.237  0.0599  0.1064  0.1325
  862MOL0     N16287   7.188   3.947   7.167 -0.6292 -0.0489  0.1690
  862MOL0     C16288   7.641   4.456   6.276  0.3884  0.6530  0.1209
  862MOL0     C16289   7.588   4.511   6.155  0.0087  0.5710 -0.9300
  862MOL0     C16290   7.476   4.609   5.743  0.6978 -0.2107 -0.1198
  862MOL0     C16291   7.414   4.732   5.691  0.0448 -0.5979  0.1499
  862MOL0     C16292   7.378   4.742   5.559  0.4151 -0.2111 -0.2984
  862MOL0     C16293   7.417   4.643   5.467  0.7672  0.3515 -0.4245
  862MOL0     O16294   7.399   4.674   5.334  0.5548  0.3856 -0.0178
  862MOL0     C16295   7.434   4.590   5.219  0.0604  0.1034 -0.7525
  862MOL0     C16296   7.468   4.681   5.101  1.0480 -0.2523 -0.1913
  862MOL0     C16297   7.548   4.601   5.000  0.2101 -0.8253  0.3107
  862MOL0     C16298   7.589   4.693   4.879 -1.1616  0.5939 -0.4302
  862MOL0     C16299   7.482   4.746   4.793  0.4176  0.0211  0.0003
  862MOL0     C16300   7.393   4.786   4.715 -0.2910  0.7563 -0.5335
  862MOL0     C16301   7.473   4.521   5.509 -0.5785  0.3439 -0.3709
  862MOL0     C16302   7.499   4.500   5.649  0.6115 -0.1337 -0.5473
  862MOL0     H16303   7.645   4.237   5.961  1.6933  0.0940 -0.4769
  862MOL0     H16304   7.726   4.153   6.155 -0.8621 -0.1946 -1.6639
  862MOL0     H16305   7.731   4.070   6.390 -1.6735  1.1934 -0.9334
  862MOL0     H16306   7.884   4.166   6.386  2.4501 -0.8267  2.7007
  862MOL0     H16307   7.880   4.045   6.592 -1.2383 -1.1480 -1.9530
  862MOL0     H16308   7.889   4.211   6.619 -0.0758 -0.8097  2.4989
  862MOL0     H16309   7.655   4.207   6.699  0.6442 -0.2277 -3.3541
  862MOL0     H16310   7.620   4.049   6.627  0.8488 -0.4772 -1.4293
  862MOL0     H16311   7.791   3.953   6.804  1.4969  1.2002  0.8158
  862MOL0     H16312   7.820   4.116   6.847  0.6971 -0.0638  0.4200
  862MOL0     H16313   7.657   4.008   7.011  0.1544 -0.5130 -0.6211
  862MOL0     H16314   7.606   4.155   6.924  2.4384  0.2272  0.4682
  862MOL0     H16315   7.463   3.969   6.784 -3.8061  2.0907  1.9912
  862MOL0     H16316   7.566   3.855   6.868  0.2239 -0.2800 -1.4852
  862MOL0     H16317   7.448   3.964   7.088  0.0008  0.1450 -0.0876
  862MOL0     H16318   7.347   4.039   6.965  3.1143  2.9352  0.9269
  862MOL0     H16319   7.349   3.735   6.996 -0.0310 -1.3382 -1.8551
  862MOL0     H16320   7.273   3.843   6.875 -0.2921  1.0206  1.1385
  862MOL0     H16321   7.082   3.660   7.036 -0.6641 -0.1506  0.2055
  862MOL0     H16322   6.865   3.658   7.144  0.8734 -0.2670 -0.8184
  862MOL0     H16323   6.889   3.704   7.315  1.9506 -0.1363  0.2811
  862MOL0     H16324   6.758   3.883   7.108 -0.0946 -1.1184 -0.6592
  862MOL0     H16325   6.802   3.932   7.275  1.9551 -0.3650 -0.7177
  862MOL0     H16326   6.645   3.790   7.378  0.9726  1.3703 -0.0756
  862MOL0     H16327   6.600   3.702   7.232 -1.3366  0.7038  0.4981
  862MOL0     H16328   6.419   3.861   7.239  0.3641 -1.8685  1.2440
  862MOL0     H16329   6.528   3.916   7.125 -2.3271 -1.5218 -0.1694
  862MOL0     H16330   6.597   4.265   7.351  0.5497  0.3422 -0.5749
  862MOL0     H16331   6.428   4.528   7.441  1.4810  0.5332 -0.2810
  862MOL0     H16332   6.562   4.486   7.348  0.0415 -0.5493  0.7348
  862MOL0     H16333   6.429   4.543   7.261  1.6364  1.0782  0.3483
  862MOL0     H16334   5.962   4.434   7.602  0.0567 -0.3530 -1.1860
  862MOL0     H16335   5.797   4.632   7.683 -0.9740 -2.0500  0.3968
  862MOL0     H16336   5.614   4.990   7.483 -2.1917 -0.6720 -0.5112
  862MOL0     H16337   5.729   4.943   7.374  0.9955 -0.1517  1.4680
  862MOL0     H16338   5.548   4.763   7.288  0.6172  2.4486 -2.2574
  862MOL0     H16339   5.472   4.796   7.439  3.7110  0.2460  2.4102
  862MOL0     H16340   5.489   5.015   7.222  4.4501 -1.7144  0.1195
  862MOL0     H16341   5.395   5.006   7.367 -0.8935  2.9847 -2.5908
  862MOL0     H16342   5.384   4.829   7.120  0.7152  1.2622 -0.3315
  862MOL0     H16343   5.276   4.791   7.246 -0.9645 -0.8497 -1.4499
  862MOL0     H16344   5.266   5.051   7.089  0.4444  1.4266  1.7001
  862MOL0     H16345   5.184   5.039   7.235 -1.5079  3.9701 -2.7256
  862MOL0     H16346   5.151   4.820   7.021 -0.5111  1.9416 -2.0329
  862MOL0     H16347   5.076   4.848   7.182 -0.0059 -0.8112  0.3969
  862MOL0     H16348   5.044   5.020   6.937  1.5381  0.4635  1.3015
  862MOL0     H16349   4.988   5.063   7.099  0.0231 -2.3557  2.7283
  862MOL0     H16350   4.857   4.847   7.116  0.1327 -0.7608 -0.8442
  862MOL0     H16351   4.885   4.814   6.954 -0.9631 -2.7939  3.5775
  862MOL0     H16352   5.796   4.750   7.262  0.3476 -4.5278 -3.5802
  862MOL0     H16353   5.912   4.555   7.201  2.3583 -1.0060 -0.4171
  862MOL0     H16354   6.110   4.156   7.359  0.0823  0.1521  1.4864
  862MOL0     H16355   6.277   3.982   7.367 -1.8028  1.2548  1.9568
  862MOL0     H16356   7.649   4.529   6.356 -2.3240 -1.1183  2.2168
  862MOL0     H16357   7.562   4.616   6.147 -0.8115  0.3755 -0.9935
  862MOL0     H16358   7.375   4.808   5.759  1.1741 -0.0617  0.2135
  862MOL0     H16359   7.330   4.824   5.507  1.0682  1.3094  1.3602
  862MOL0     H16360   7.516   4.524   5.248  1.4004  2.6398  1.7324
  862MOL0     H16361   7.345   4.530   5.199 -2.4254  1.4999  4.3973
  862MOL0     H16362   7.530   4.765   5.133 -1.8195  1.4336  1.3592
  862MOL0     H16363   7.373   4.711   5.056  0.5153  0.6962  1.4757
  862MOL0     H16364   7.479   4.529   4.955  0.8809  0.3643 -2.8335
  862MOL0     H16365   7.635   4.546   5.037  0.3457 -1.4953 -0.9761
  862MOL0     H16366   7.657   4.636   4.815 -1.6968  1.0516 -1.4305
  862MOL0     H16367   7.647   4.777   4.919 -0.5052 -1.8432  4.3612
  862MOL0     H16368   7.316   4.808   4.644 -1.6918 -3.5611 -0.5948
  862MOL0     H16369   7.486   4.444   5.434  0.8600  0.6192 -0.4312
  862MOL0     H16370   7.537   4.403   5.679 -1.7255 -0.5647  1.2903
  863MOL0     O16371   7.668  10.604   6.879  0.4758 -0.4541 -0.6305
  863MOL0     C16372   7.713  10.530   6.961  0.3874  0.4333  0.5902
  863MOL0     O16373   7.669  10.487   7.076  0.0291 -0.4587 -0.0940
  863MOL0     C16374   7.547  10.532   7.126  0.4695  0.1183 -0.0441
  863MOL0     C16375   7.457  10.445   7.175  0.2599 -0.4288  0.5595
  863MOL0     C16376   7.331  10.490   7.219 -0.6906 -0.1094  0.1954
  863MOL0     C16377   7.291  10.626   7.198  0.4812 -0.3374  0.4687
  863MOL0     O16378   7.162  10.668   7.215 -0.2829 -0.4067 -0.4523
  863MOL0     C16379   7.052  10.575   7.184 -0.2686 -0.7054 -0.8054
  863MOL0     C16380   6.924  10.658   7.148 -0.4084 -0.3654  0.3824
  863MOL0     C16381   6.871  10.726   7.278  0.2563  0.5615 -0.6751
  863MOL0     C16382   6.943  10.847   7.316 -0.1655  0.2838  0.3676
  863MOL0     C16383   6.855  10.952   7.377 -0.2153 -0.3110 -0.0509
  863MOL0     C16384   6.753  11.022   7.285 -0.0512  0.7197  0.1317
  863MOL0     C16385   6.676  11.136   7.355 -0.9540 -0.9348 -0.6436
  863MOL0     C16386   6.521  11.119   7.347  0.9349 -0.9882 -0.0899
  863MOL0     N16387   6.442  11.213   7.429 -0.7802 -0.8012  0.6686
  863MOL0     C16388   6.489  11.334   7.470  0.2916 -0.7623 -0.8278
  863MOL0     C16389   6.382  11.383   7.545 -0.4225 -0.2801 -0.1786
  863MOL0     C16390   6.374  11.523   7.601 -0.1989 -0.4428  0.2186
  863MOL0     C16391   6.278  11.621   7.523 -0.5586  0.4272  0.4238
  863MOL0     C16392   6.216  11.724   7.606  0.6209 -0.3896  0.4451
  863MOL0     C16393   6.101  11.673   7.692 -0.1723  0.3168  0.7049
  863MOL0     O16394   5.999  11.620   7.610  0.3931  0.0742  0.1814
  863MOL0     C16395   5.884  11.578   7.669 -0.0948  0.1782  0.4340
  863MOL0     C16396   5.834  11.645   7.778  1.3317  1.0312 -0.0778
  863MOL0     C16397   5.728  11.590   7.856  0.4053  0.4851  0.0393
  863MOL0     C16398   5.687  11.666   7.977  0.2618  0.4476  0.3689
  863MOL0     C16399   5.674  11.462   7.814  0.7889  0.0073 -0.3477
  863MOL0     C16400   5.552  11.399   7.867  0.9156  0.8455  0.3886
  863MOL0     O16401   5.553  11.265   7.859 -0.0691 -0.2851 -0.1379
  863MOL0     C16402   5.440  11.188   7.861 -0.4274  0.2374 -0.3068
  863MOL0     C16403   5.309  11.232   7.815 -0.1554  0.2080 -0.3570
  863MOL0     C16404   5.195  11.149   7.815 -0.1046 -0.4453  0.3686
  863MOL0     C16405   5.210  11.016   7.851  1.4150  1.3662 -0.0514
  863MOL0     O16406   5.087  10.942   7.863 -0.6884  0.0745 -0.5811
  863MOL0     C16407   5.086  10.809   7.810  0.1328 -0.1225 -0.2659
  863MOL0     C16408   4.975  10.734   7.887  0.4765 -0.4584 -0.8033
  863MOL0     C16409   4.845  10.765   7.813 -0.7845  0.2380 -0.0874
  863MOL0     C16410   4.751  10.650   7.825  0.6611 -0.7342 -0.1455
  863MOL0     C16411   4.616  10.679   7.751 -0.5520  0.0757 -1.0279
  863MOL0     C16412   4.523  10.557   7.760 -0.7505 -0.3295  0.0805
  863MOL0     C16413   4.498  10.522   7.905 -0.9567 -0.0556  0.6808
  863MOL0     C16414   4.373  10.430   7.899  0.2562 -0.7471  0.7680
  863MOL0    Cl16415   4.212  10.521   7.843 -0.3874  0.4234 -0.1179
  863MOL0     C16416   5.337  10.966   7.890  0.7026  0.3781  0.1916
  863MOL0     C16417   5.445  11.050   7.893  0.1734 -0.8407 -0.6182
  863MOL0     O16418   5.461  11.467   7.910  0.2835 -0.4497 -0.8726
  863MOL0     C16419   5.734  11.390   7.708 -0.3837 -0.5025  0.1624
  863MOL0     C16420   5.835  11.457   7.636  0.0166  0.0570 -0.4927
  863MOL0     N16421   6.281  11.291   7.547  0.1552 -0.0537 -0.4110
  863MOL0     N16422   6.323  11.183   7.493 -0.3872  0.0754  0.0224
  863MOL0     C16423   7.391  10.714   7.151 -0.0198  0.7339  0.2680
  863MOL0     C16424   7.517  10.667   7.119 -0.6374  0.7394  0.3848
  863MOL0     C16425   7.849  10.483   6.922 -0.6890 -0.3511 -0.5660
  863MOL0     C16426   7.916  10.538   6.806 -0.3214  0.8874 -0.2958
  863MOL0     C16427   8.036  10.482   6.762 -1.7799  0.0529  0.4180
  863MOL0     C16428   8.095  10.376   6.828  0.2155  0.0236 -0.1609
  863MOL0     O16429   8.207  10.309   6.777 -0.0229 -0.0389 -0.4315
  863MOL0     C16430   8.330  10.380   6.788 -0.0759  0.4601  0.1271
  863MOL0     C16431   8.362  10.395   6.943 -0.3623 -0.5353  0.0788
  863MOL0     C16432   8.495  10.462   6.972  1.2260 -0.1088 -0.5547
  863MOL0     C16433   8.514  10.610   6.930 -0.3867  0.1969  0.5597
  863MOL0     C16434   8.409  10.708   6.973  0.1689 -0.3816  0.6595
  863MOL0     C16435   8.315  10.776   7.012 -0.1902  0.5314 -0.0373
  863MOL0     C16436   8.032  10.331   6.938 -0.0233  0.4881 -0.0197
  863MOL0     C16437   7.913  10.373   6.988 -0.3393 -0.2619  0.2593
  863MOL0     H16438   7.489  10.343   7.192  2.4490  0.2335  0.7538
  863MOL0     H16439   7.265  10.425   7.277  0.7043  1.4788  3.8450
  863MOL0     H16440   7.086  10.515   7.099  0.9301 -1.4247  0.1556
  863MOL0     H16441   7.037  10.517   7.275 -0.7806  1.9561  0.9323
  863MOL0     H16442   6.934  10.736   7.072  0.6896 -0.6346  0.2370
  863MOL0     H16443   6.861  10.583   7.099  0.7142 -2.5043  2.0434
  863MOL0     H16444   6.764  10.749   7.277  0.1446  0.5669  2.2512
  863MOL0     H16445   6.869  10.649   7.356 -1.3741  1.2855  0.0561
  863MOL0     H16446   7.023  10.815   7.383  0.7140 -1.2036 -1.3174
  863MOL0     H16447   6.993  10.885   7.226 -2.4274  3.2967  0.2383
  863MOL0     H16448   6.804  10.922   7.469 -0.1346  2.5431  1.0356
  863MOL0     H16449   6.924  11.023   7.424 -0.0338 -1.9801  2.4009
  863MOL0     H16450   6.802  11.072   7.201 -0.1829  2.1958  0.9018
  863MOL0     H16451   6.682  10.955   7.237 -0.2071 -0.5591  2.0427
  863MOL0     H16452   6.705  11.144   7.460 -3.1274  1.1978 -0.1126
  863MOL0     H16453   6.713  11.232   7.317 -0.1346  0.2151  2.6530
  863MOL0     H16454   6.498  11.020   7.386 -2.3182 -0.2808  0.0637
  863MOL0     H16455   6.498  11.133   7.241  3.8493 -2.2973 -1.0003
  863MOL0     H16456   6.569  11.401   7.440  0.7992  0.2133  2.2696
  863MOL0     H16457   6.335  11.516   7.703 -1.0434  0.1764 -0.0438
  863MOL0     H16458   6.473  11.567   7.595 -0.0441 -0.8657 -0.3984
  863MOL0     H16459   6.210  11.558   7.464 -0.3083  3.1442 -3.0915
  863MOL0     H16460   6.346  11.666   7.451 -1.6243 -2.8137 -2.9199
  863MOL0     H16461   6.176  11.801   7.540 -1.0381 -1.5389  0.0492
  863MOL0     H16462   6.292  11.770   7.671 -0.5967  1.6552  0.5065
  863MOL0     H16463   6.065  11.765   7.739 -0.7352  2.4650 -3.3968
  863MOL0     H16464   6.148  11.606   7.764 -0.2062  1.4040  1.7822
  863MOL0     H16465   5.870  11.744   7.802  0.1657  1.4130  0.1525
  863MOL0     H16466   5.592  11.718   7.963 -0.4771 -0.4524  1.8785
  863MOL0     H16467   5.674  11.609   8.069 -0.1035 -2.5408 -1.4178
  863MOL0     H16468   5.769  11.737   7.994  4.7541 -3.5308 -2.1519
  863MOL0     H16469   5.291  11.333   7.780 -0.0585  0.2289 -0.3468
  863MOL0     H16470   5.097  11.193   7.801 -0.9279 -2.6665 -1.3307
  863MOL0     H16471   5.071  10.806   7.702  1.4156 -0.4942 -0.4477
  863MOL0     H16472   5.175  10.751   7.835  0.9740  0.7846 -1.0464
  863MOL0     H16473   4.994  10.626   7.889  1.2740 -0.3144  0.1121
  863MOL0     H16474   4.978  10.760   7.994 -3.8907 -1.0144 -0.3492
  863MOL0     H16475   4.868  10.772   7.706  0.4478  0.2913  0.1656
  863MOL0     H16476   4.791  10.849   7.857 -1.6485 -0.0587 -0.5594
  863MOL0     H16477   4.799  10.561   7.782 -0.9378 -1.3969 -0.6340
  863MOL0     H16478   4.746  10.620   7.930  0.8684  0.1052  0.1053
  863MOL0     H16479   4.644  10.694   7.646  0.7380  0.1712 -0.6965
  863MOL0     H16480   4.573  10.771   7.792  1.7838  1.1931 -0.9164
  863MOL0     H16481   4.429  10.589   7.713  0.8195  0.5685 -2.6331
  863MOL0     H16482   4.568  10.471   7.710  0.5732  0.9783 -1.0482
  863MOL0     H16483   4.468  10.614   7.957  0.9961  1.0388 -0.0401
  863MOL0     H16484   4.586  10.477   7.951 -0.7197 -1.3419 -0.9453
  863MOL0     H16485   4.350  10.379   7.993  1.2246  1.1044  2.0865
  863MOL0     H16486   4.400  10.353   7.826  3.3324  0.4049  0.5537
  863MOL0     H16487   5.353  10.863   7.918  0.1238  0.6876  1.7648
  863MOL0     H16488   5.539  11.000   7.911  0.2227 -0.9144 -1.0711
  863MOL0     H16489   5.706  11.294   7.667  0.1006 -0.4234 -0.3763
  863MOL0     H16490   5.884  11.408   7.552 -0.0195  3.0519 -2.3829
  863MOL0     H16491   7.372  10.817   7.125  2.2783  2.2703  3.8441
  863MOL0     H16492   7.592  10.732   7.076  0.6997 -1.2855 -0.4874
  863MOL0     H16493   7.872  10.626   6.759 -3.2525  0.0026  0.5288
  863MOL0     H16494   8.079  10.525   6.672  0.6134 -3.0766 -0.1140
  863MOL0     H16495   8.401  10.318   6.733 -1.1966 -0.7376 -0.0315
  863MOL0     H16496   8.331  10.476   6.736 -2.9153  0.4142 -0.1631
  863MOL0     H16497   8.354  10.297   6.989 -0.6863 -0.0737  1.0229
  863MOL0     H16498   8.284  10.448   6.997 -1.0278 -0.4555 -0.9366
  863MOL0     H16499   8.584  10.401   6.953  2.3456  1.9048 -2.3883
  863MOL0     H16500   8.498  10.472   7.080 -1.4981  0.4999 -0.4559
  863MOL0     H16501   8.534  10.619   6.823  1.0451 -1.4020  0.6680
  863MOL0     H16502   8.603  10.641   6.985  0.5356  2.4454 -1.9793
  863MOL0     H16503   8.226  10.826   7.044 -1.2211 -1.5288  0.4464
  863MOL0     H16504   8.070  10.238   6.978  4.5893  2.1173  0.0695
  863MOL0     H16505   7.868  10.323   7.073 -3.4479 -0.4734 -1.4007
  864MOL0     O16506   5.113   3.118   4.097  0.4858  0.5858 -0.3645
  864MOL0     C16507   5.175   3.057   4.011 -0.1202 -0.8497 -0.1272
  864MOL0     O16508   5.124   2.964   3.926  0.0216 -0.3616 -0.0181
  864MOL0     C16509   5.005   2.895   3.934  0.2173  0.1613 -0.2747
  864MOL0     C16510   4.989   2.755   3.933  0.3638  0.4247  0.3317
  864MOL0     C16511   4.858   2.704   3.924  0.1051  0.8093 -0.0848
  864MOL0     C16512   4.746   2.785   3.937  0.9336  0.5612  0.1541
  864MOL0     O16513   4.614   2.743   3.945 -0.5410 -0.1544 -0.2860
  864MOL0     C16514   4.573   2.626   3.868  0.4228  0.7068 -0.4100
  864MOL0     C16515   4.441   2.570   3.909  0.2162 -0.2260 -0.0201
  864MOL0     C16516   4.330   2.674   3.873  0.5827  0.0711  0.3537
  864MOL0     C16517   4.198   2.604   3.907 -0.8039  0.1347  0.1855
  864MOL0     C16518   4.083   2.705   3.900 -0.3339  0.5771  0.5261
  864MOL0     C16519   3.941   2.655   3.923 -0.2307  0.1189  0.1725
  864MOL0     C16520   3.832   2.753   3.890 -0.7768 -0.4278  0.2090
  864MOL0     C16521   3.832   2.796   3.741  0.1391 -0.3841 -0.0678
  864MOL0     N16522   3.716   2.884   3.736 -0.3926  0.1966  0.2957
  864MOL0     C16523   3.582   2.844   3.706 -0.6758 -0.3656 -0.1854
  864MOL0     C16524   3.508   2.963   3.708 -0.3983 -0.0656  0.6868
  864MOL0     C16525   3.355   2.967   3.700 -0.1591 -0.0877  0.9010
  864MOL0     C16526   3.299   2.873   3.807 -0.7801 -0.4344 -0.9058
  864MOL0     C16527   3.186   2.781   3.747  0.1724 -0.0756  0.2205
  864MOL0     C16528   3.108   2.735   3.872 -0.6392  1.0688  0.7108
  864MOL0     O16529   2.998   2.656   3.830 -0.0557  0.2438 -0.0230
  864MOL0     C16530   2.900   2.630   3.920  1.0018  0.0689  0.5828
  864MOL0     C16531   2.924   2.589   4.052 -0.3344 -0.0067 -0.8330
  864MOL0     C16532   2.819   2.593   4.147 -0.3897  0.2983  0.9719
  864MOL0     C16533   2.861   2.570   4.288  0.1566  0.4548  0.2710
  864MOL0     C16534   2.691   2.638   4.100 -0.9375  0.6921  0.2329
  864MOL0     C16535   2.576   2.645   4.195 -0.3209 -0.1819 -0.0085
  864MOL0     O16536   2.476   2.724   4.146  0.2518  0.1554 -0.3162
  864MOL0     C16537   2.372   2.769   4.235  0.0091 -0.0015  0.2646
  864MOL0     C16538   2.242   2.775   4.188 -0.2538  0.4555 -0.1772
  864MOL0     C16539   2.130   2.813   4.265  0.0509  0.2898  0.1256
  864MOL0     C16540   2.143   2.858   4.405 -0.6080  0.1083  0.5236
  864MOL0     O16541   2.034   2.899   4.479 -0.0746  0.3720 -0.1935
  864MOL0     C16542   2.058   2.893   4.623 -1.1968 -0.1491  0.6609
  864MOL0     C16543   1.939   2.928   4.714  0.0279  0.0927  0.4547
  864MOL0     C16544   1.982   2.951   4.861 -0.7323 -0.5062 -0.3117
  864MOL0     C16545   1.863   2.965   4.955  0.8358 -0.6146  0.1672
  864MOL0     C16546   1.778   3.091   4.937 -0.9001  0.5744 -0.0688
  864MOL0     C16547   1.638   3.072   5.011 -0.8434 -0.2338 -0.6991
  864MOL0     C16548   1.548   2.983   4.920 -0.4306  0.2694  0.3060
  864MOL0     C16549   1.444   2.900   4.998  0.8812 -0.4390  0.2749
  864MOL0    Cl16550   1.338   2.825   4.888  0.4256  0.2964  0.1190
  864MOL0     C16551   2.281   2.864   4.442  0.4154  0.3654 -0.6627
  864MOL0     C16552   2.392   2.818   4.363  1.4521 -0.4334  0.2400
  864MOL0     O16553   2.577   2.571   4.293  0.5400  0.2371  0.0815
  864MOL0     C16554   2.664   2.660   3.964 -0.5044 -0.8000  0.0217
  864MOL0     C16555   2.770   2.652   3.874  0.6441  1.1608 -1.2733
  864MOL0     N16556   3.601   3.062   3.718  1.0422 -0.3742  1.0761
  864MOL0     N16557   3.721   3.015   3.733  0.7685 -0.0187 -0.2699
  864MOL0     C16558   4.767   2.920   3.953 -0.5476  0.3243 -0.3235
  864MOL0     C16559   4.892   2.974   3.961 -0.2949  0.2811 -0.5600
  864MOL0     C16560   5.320   3.072   4.001 -0.5399  0.4325  0.1475
  864MOL0     C16561   5.383   3.059   3.880 -1.3573 -0.3334 -0.1494
  864MOL0     C16562   5.519   3.091   3.869 -0.4904 -0.1304 -0.1304
  864MOL0     C16563   5.597   3.121   3.977  0.3989 -0.7639  0.6454
  864MOL0     O16564   5.721   3.180   3.976 -0.4436  0.6346 -0.1612
  864MOL0     C16565   5.788   3.169   3.849 -0.0644 -0.2546 -0.4108
  864MOL0     C16566   5.942   3.181   3.877  0.7216  0.8964 -1.0322
  864MOL0     C16567   6.023   3.115   3.766  0.4232 -0.0639 -0.4706
  864MOL0     C16568   6.168   3.085   3.793  0.0170  0.3587  0.4873
  864MOL0     C16569   6.243   3.209   3.798  0.2066  0.4420  0.3301
  864MOL0     C16570   6.323   3.301   3.799  0.4982  0.3289 -0.3385
  864MOL0     C16571   5.528   3.141   4.097 -0.3421  0.6080 -0.3724
  864MOL0     C16572   5.396   3.117   4.113 -0.2974  0.1673 -0.7548
  864MOL0     H16573   5.081   2.697   3.926 -0.7567 -1.5219  0.9503
  864MOL0     H16574   4.837   2.598   3.931  2.3000  0.2129 -1.6397
  864MOL0     H16575   4.581   2.652   3.762  2.6305  0.0194 -0.4524
  864MOL0     H16576   4.640   2.542   3.885 -0.4141 -0.3102 -1.8963
  864MOL0     H16577   4.418   2.477   3.858 -1.4378  0.3900 -0.4703
  864MOL0     H16578   4.444   2.543   4.015 -2.9469 -1.8206 -0.2328
  864MOL0     H16579   4.346   2.773   3.917  0.7334  0.2795 -0.1627
  864MOL0     H16580   4.323   2.699   3.767 -5.8530  0.2842  0.4832
  864MOL0     H16581   4.185   2.516   3.843  1.9477 -0.2501  0.0321
  864MOL0     H16582   4.200   2.569   4.011  0.4961  0.1599  0.1863
  864MOL0     H16583   4.107   2.780   3.976  2.7065 -0.8638  1.1430
  864MOL0     H16584   4.087   2.741   3.797  2.1866 -3.3039 -0.9440
  864MOL0     H16585   3.932   2.570   3.854 -0.1532 -1.5633  2.1197
  864MOL0     H16586   3.931   2.605   4.020 -3.0823 -1.2563 -0.7319
  864MOL0     H16587   3.734   2.714   3.920 -0.1271 -0.5864  2.2649
  864MOL0     H16588   3.849   2.843   3.950 -0.0816  2.2748 -3.6640
  864MOL0     H16589   3.818   2.710   3.674 -0.1766 -0.3645 -0.0244
  864MOL0     H16590   3.919   2.856   3.713  0.9310 -0.8096  1.4093
  864MOL0     H16591   3.539   2.744   3.703  1.1547 -1.1759 -0.5885
  864MOL0     H16592   3.323   3.070   3.716 -1.2658  0.6063 -4.0467
  864MOL0     H16593   3.324   2.933   3.601 -0.8937 -1.0207  1.4307
  864MOL0     H16594   3.250   2.938   3.880 -0.3963 -2.2883  1.1032
  864MOL0     H16595   3.371   2.812   3.861 -1.4670 -2.4958 -2.1930
  864MOL0     H16596   3.241   2.702   3.695  3.0431  0.6497  1.9191
  864MOL0     H16597   3.127   2.847   3.683  0.2526  1.7421  1.9179
  864MOL0     H16598   3.074   2.821   3.930  1.0397  0.9191  2.0262
  864MOL0     H16599   3.173   2.673   3.935  0.2683  0.9732 -0.2827
  864MOL0     H16600   3.024   2.587   4.094 -1.1140 -1.7884  1.0765
  864MOL0     H16601   2.838   2.468   4.322 -1.6431  0.6023 -0.4043
  864MOL0     H16602   2.966   2.590   4.309  0.6604 -1.3183 -0.4159
  864MOL0     H16603   2.792   2.627   4.351 -2.1907  1.1968 -2.7247
  864MOL0     H16604   2.225   2.737   4.088  1.7632  1.7284 -1.0916
  864MOL0     H16605   2.029   2.808   4.226  0.1140 -2.0640  0.1127
  864MOL0     H16606   2.099   2.796   4.654 -2.8771 -0.4481  2.0872
  864MOL0     H16607   2.134   2.967   4.649 -0.4135 -1.0392  0.9643
  864MOL0     H16608   1.902   3.018   4.664  3.8569  1.6128 -0.0451
  864MOL0     H16609   1.863   2.850   4.713 -0.0669  0.1843 -0.2284
  864MOL0     H16610   2.052   3.035   4.863  0.3485 -1.3551 -0.8149
  864MOL0     H16611   2.046   2.866   4.890  1.2741  0.7812 -0.7491
  864MOL0     H16612   1.803   2.879   4.924  0.9551 -0.1842 -1.3836
  864MOL0     H16613   1.886   2.948   5.060 -1.5274 -4.0995  0.2712
  864MOL0     H16614   1.765   3.123   4.833 -1.9899  3.4742  0.8838
  864MOL0     H16615   1.839   3.168   4.985  3.7968 -1.7782 -1.5500
  864MOL0     H16616   1.655   3.032   5.111  1.1875  1.4821 -0.2700
  864MOL0     H16617   1.596   3.172   5.030  0.5121  0.2016  0.1223
  864MOL0     H16618   1.613   2.908   4.874 -3.4069 -1.2432 -1.8275
  864MOL0     H16619   1.503   3.051   4.848  0.2227 -0.2233 -0.5793
  864MOL0     H16620   1.377   2.969   5.052 -1.4115 -1.2241 -1.3905
  864MOL0     H16621   1.484   2.829   5.069  1.7417  1.7613  2.1182
  864MOL0     H16622   2.296   2.906   4.541 -2.0661 -0.8188  0.3050
  864MOL0     H16623   2.492   2.831   4.404  1.8776 -0.2320 -0.8101
  864MOL0     H16624   2.562   2.689   3.939 -0.4254  0.1840  0.7703
  864MOL0     H16625   2.745   2.661   3.769 -2.9907 -0.2115 -0.6706
  864MOL0     H16626   4.680   2.984   3.966  0.5167  1.5398  1.2685
  864MOL0     H16627   4.907   3.081   3.971  0.6294  0.1420 -0.3422
  864MOL0     H16628   5.331   3.025   3.791 -4.9875  0.5991  1.4372
  864MOL0     H16629   5.571   3.086   3.774  0.9948  1.0418  0.5986
  864MOL0     H16630   5.763   3.075   3.799  1.1759 -0.7766 -0.0910
  864MOL0     H16631   5.758   3.251   3.783 -3.8350 -1.4917 -0.4491
  864MOL0     H16632   5.961   3.134   3.974 -0.6595  1.3729 -0.5015
  864MOL0     H16633   5.974   3.283   3.901 -0.5284  0.5285  2.9503
  864MOL0     H16634   6.008   3.163   3.668 -2.1748  1.2299  0.4597
  864MOL0     H16635   5.978   3.015   3.764 -2.4525  0.9886  2.5674
  864MOL0     H16636   6.203   3.017   3.715 -0.3304 -1.0492  1.5282
  864MOL0     H16637   6.180   3.030   3.887  0.0619 -0.4142  0.0378
  864MOL0     H16638   6.378   3.392   3.810  1.3130  0.0282 -1.6439
  864MOL0     H16639   5.589   3.172   4.181  2.1875  0.5409 -2.0570
  864MOL0     H16640   5.357   3.142   4.211 -0.7237  1.0331 -1.1334
  865MOL0     O16641  10.252   6.000   6.534  0.6973 -0.0159  0.1924
  865MOL0     C16642  10.239   6.009   6.659 -0.6178  0.7527  0.8780
  865MOL0     O16643  10.137   5.957   6.737 -0.6645 -0.9830  0.0473
  865MOL0     C16644  10.031   5.901   6.673 -0.2646  0.0835 -0.3118
  865MOL0     C16645  10.006   5.761   6.690  0.1456 -0.2021  0.1559
  865MOL0     C16646   9.902   5.704   6.621  0.5225  0.6697  0.4464
  865MOL0     C16647   9.813   5.785   6.544 -0.5776  0.2629 -0.2840
  865MOL0     O16648   9.701   5.725   6.499  0.5245  0.1171  0.1652
  865MOL0     C16649   9.636   5.789   6.389 -0.0438  0.3835  0.1787
  865MOL0     C16650   9.529   5.700   6.331 -0.1185  0.2936  0.2394
  865MOL0     C16651   9.489   5.748   6.189  1.0191  0.0466  0.2474
  865MOL0     C16652   9.409   5.637   6.128 -0.3575  0.4203  0.4114
  865MOL0     C16653   9.367   5.663   5.982 -0.2571 -0.1106  0.1839
  865MOL0     C16654   9.302   5.538   5.915  0.7245 -0.3687 -0.3736
  865MOL0     C16655   9.335   5.539   5.771  0.1462  0.3557  0.1995
  865MOL0     C16656   9.307   5.669   5.692  0.8182 -0.3895 -0.5971
  865MOL0     N16657   9.260   5.635   5.559  0.0056  0.0896 -0.0307
  865MOL0     C16658   9.322   5.567   5.459  0.1831 -0.6148 -0.4996
  865MOL0     C16659   9.222   5.532   5.369 -0.0198  0.0061  0.4859
  865MOL0     C16660   9.252   5.429   5.255 -0.4229  0.4555 -0.8665
  865MOL0     C16661   9.183   5.292   5.282 -0.4200 -0.6159 -0.2331
  865MOL0     C16662   9.197   5.190   5.164 -0.8160  0.4609  0.2321
  865MOL0     C16663   9.086   5.202   5.063 -1.0236  0.1385  0.1204
  865MOL0     O16664   9.077   5.085   4.981  0.9444  0.1232  0.1159
  865MOL0     C16665   9.176   5.054   4.889  0.4962  0.4277 -0.1393
  865MOL0     C16666   9.174   4.933   4.823  0.3401  0.5952 -0.7474
  865MOL0     C16667   9.266   4.896   4.721  0.4254 -0.8036 -1.4838
  865MOL0     C16668   9.253   4.764   4.655  0.1134  0.2096  0.2060
  865MOL0     C16669   9.372   4.991   4.688  0.1739  0.2821  0.0424
  865MOL0     C16670   9.467   4.970   4.576 -1.3015 -0.7348  0.2183
  865MOL0     O16671   9.520   4.843   4.558  0.2752 -0.0944 -0.4006
  865MOL0     C16672   9.636   4.836   4.481  0.9386  0.1005 -0.0822
  865MOL0     C16673   9.634   4.849   4.341 -0.2547  0.1265  1.0050
  865MOL0     C16674   9.753   4.860   4.262 -0.0371 -0.3858 -0.2371
  865MOL0     C16675   9.882   4.869   4.322  1.0722  0.3946  0.5504
  865MOL0     O16676  10.000   4.908   4.264 -0.1057  0.7216 -1.2126
  865MOL0     C16677  10.008   4.881   4.125 -0.2494  0.6308  0.7580
  865MOL0     C16678  10.153   4.822   4.099 -0.2195  0.1149  0.2383
  865MOL0     C16679  10.266   4.915   4.158  0.5789  0.7762  0.8546
  865MOL0     C16680  10.405   4.849   4.176 -0.0875 -0.5855 -0.3958
  865MOL0     C16681  10.484   4.821   4.047 -0.6590 -0.0427  0.0500
  865MOL0     C16682  10.508   4.948   3.964  0.3912  0.3275 -0.5370
  865MOL0     C16683  10.635   4.955   3.885  0.1957  0.3813 -0.7238
  865MOL0     C16684  10.649   4.843   3.785  1.2887  0.1219  0.0190
  865MOL0    Cl16685  10.534   4.848   3.645  0.2230  0.4747  0.2147
  865MOL0     C16686   9.881   4.858   4.459 -0.4900  0.0035  0.2180
  865MOL0     C16687   9.765   4.848   4.538 -0.0182 -0.1179 -0.3841
  865MOL0     O16688   9.501   5.068   4.513 -0.4155  0.3161 -0.6085
  865MOL0     C16689   9.374   5.117   4.755  0.5008 -0.1503 -0.5005
  865MOL0     C16690   9.280   5.148   4.852  0.0124  0.0764  0.3575
  865MOL0     N16691   9.104   5.580   5.422  0.1051 -0.0129 -0.5636
  865MOL0     N16692   9.131   5.641   5.526 -0.9945 -0.2210 -0.9179
  865MOL0     C16693   9.841   5.921   6.542  0.0270 -0.0855  0.4947
  865MOL0     C16694   9.948   5.980   6.600  0.1975  0.0998  0.7438
  865MOL0     C16695  10.356   6.065   6.733  0.5703  0.3913  0.3238
  865MOL0     C16696  10.358   6.045   6.877  0.5293 -0.1287 -0.0717
  865MOL0     C16697  10.471   6.093   6.947 -0.8564  0.5340 -0.3343
  865MOL0     C16698  10.573   6.161   6.878  0.4070  0.2298 -0.9310
  865MOL0     O16699  10.670   6.230   6.953  0.2777  0.3499  0.4345
  865MOL0     C16700  10.663   6.371   6.937  0.4993 -0.4061  0.3183
  865MOL0     C16701  10.725   6.437   7.051 -0.1086  0.6268 -0.0402
  865MOL0     C16702  10.876   6.396   7.077  0.2619 -0.5407 -0.2475
  865MOL0     C16703  10.981   6.435   6.973 -0.2283  0.5004  0.1761
  865MOL0     C16704  11.123   6.439   7.028  0.5942 -0.1221 -0.2760
  865MOL0     C16705  11.215   6.457   7.095  0.2264  0.1956 -0.6248
  865MOL0     C16706  10.571   6.182   6.741 -0.5337 -0.0634  0.0966
  865MOL0     C16707  10.462   6.131   6.668  0.3675 -0.3532  0.4575
  865MOL0     H16708  10.086   5.711   6.744 -0.4685  0.2122  1.5160
  865MOL0     H16709   9.900   5.595   6.613  0.0935  0.6367  0.9958
  865MOL0     H16710   9.605   5.891   6.412  3.0178  1.8181 -1.3881
  865MOL0     H16711   9.706   5.813   6.308 -0.6522  0.5766 -0.2964
  865MOL0     H16712   9.566   5.598   6.319 -1.0801 -0.2340  1.5929
  865MOL0     H16713   9.452   5.686   6.407 -0.0693 -1.4008  0.0051
  865MOL0     H16714   9.424   5.837   6.190  1.2117  0.2006  1.8828
  865MOL0     H16715   9.577   5.777   6.131 -1.0772  2.6257 -1.9154
  865MOL0     H16716   9.478   5.552   6.130  3.4502  3.2677  2.5997
  865MOL0     H16717   9.315   5.615   6.180 -1.0277 -2.0585 -1.6173
  865MOL0     H16718   9.297   5.747   5.973 -0.4868 -0.1485  1.3520
  865MOL0     H16719   9.456   5.681   5.922 -2.2063 -0.2132 -2.9761
  865MOL0     H16720   9.345   5.447   5.958 -1.1536 -0.1383  2.2762
  865MOL0     H16721   9.193   5.529   5.921  0.8788 -1.7529  1.2521
  865MOL0     H16722   9.439   5.509   5.754  0.6593  3.2445 -2.6533
  865MOL0     H16723   9.272   5.462   5.724  1.9354 -0.6153 -0.7148
  865MOL0     H16724   9.387   5.743   5.681  2.6216 -2.2430 -0.5502
  865MOL0     H16725   9.227   5.727   5.739  0.8277 -1.1937  0.4313
  865MOL0     H16726   9.427   5.538   5.454  0.2234 -0.3321 -1.9050
  865MOL0     H16727   9.208   5.472   5.165  0.1847 -1.5403 -2.1820
  865MOL0     H16728   9.359   5.415   5.238 -0.1388  0.3627  0.8365
  865MOL0     H16729   9.082   5.312   5.319 -1.4532 -0.6781 -2.7982
  865MOL0     H16730   9.228   5.242   5.368 -2.3837 -0.4132  0.9990
  865MOL0     H16731   9.192   5.100   5.225  1.4998  2.1491  3.1936
  865MOL0     H16732   9.292   5.201   5.111 -2.1696 -2.0841 -3.0862
  865MOL0     H16733   9.101   5.295   5.007 -2.1402 -0.3955 -1.1220
  865MOL0     H16734   8.997   5.208   5.126 -0.4273 -3.1379  1.4547
  865MOL0     H16735   9.094   4.872   4.865  0.8561  1.2077  1.2111
  865MOL0     H16736   9.324   4.684   4.679 -0.9460  0.1951  3.9747
  865MOL0     H16737   9.158   4.715   4.677 -0.1870  0.4134 -0.5988
  865MOL0     H16738   9.267   4.793   4.551  0.9368 -0.1326  0.2122
  865MOL0     H16739   9.538   4.855   4.290  0.9043 -0.9162 -1.4537
  865MOL0     H16740   9.738   4.886   4.158  1.6123 -0.0416 -0.4129
  865MOL0     H16741   9.933   4.808   4.095 -0.0458  0.0322  1.6631
  865MOL0     H16742   9.996   4.979   4.078 -0.0592  0.7170  0.8857
  865MOL0     H16743  10.158   4.719   4.135  0.5029  0.2429  0.5118
  865MOL0     H16744  10.161   4.821   3.990 -2.0718 -1.8782  0.0620
  865MOL0     H16745  10.230   4.956   4.253 -1.5470  1.2326 -0.0894
  865MOL0     H16746  10.267   5.002   4.092 -0.1868  0.4331  0.3781
  865MOL0     H16747  10.462   4.929   4.225  0.7072 -1.1134 -0.4427
  865MOL0     H16748  10.392   4.754   4.229 -0.4529 -1.5649 -2.1798
  865MOL0     H16749  10.439   4.753   3.974  0.5560  1.1857 -1.9471
  865MOL0     H16750  10.580   4.776   4.076 -0.8113 -0.5570 -0.2247
  865MOL0     H16751  10.430   4.962   3.888 -1.4787 -0.7355  1.1070
  865MOL0     H16752  10.500   5.038   4.027 -1.6859  0.0091 -0.2624
  865MOL0     H16753  10.715   4.959   3.959 -1.6226  1.7183  1.3174
  865MOL0     H16754  10.641   5.053   3.838  0.9601  1.2719  1.1317
  865MOL0     H16755  10.629   4.743   3.827 -1.0833  0.0654 -1.0787
  865MOL0     H16756  10.755   4.834   3.761  1.4501 -2.6930  1.3194
  865MOL0     H16757   9.974   4.866   4.514 -0.6486 -1.9871  0.8280
  865MOL0     H16758   9.774   4.845   4.646  0.0283  0.7403 -0.3614
  865MOL0     H16759   9.446   5.196   4.735  1.7038 -1.2584 -0.6469
  865MOL0     H16760   9.289   5.243   4.902 -0.0590 -0.0922  0.6933
  865MOL0     H16761   9.764   5.982   6.496 -0.2618  0.2995  1.4567
  865MOL0     H16762   9.986   6.079   6.577  0.2943 -0.0874  0.0913
  865MOL0     H16763  10.279   6.004   6.939 -0.6066  1.5520 -0.3342
  865MOL0     H16764  10.458   6.097   7.055 -2.1145  1.2273 -0.4918
  865MOL0     H16765  10.721   6.401   6.849  1.7502 -0.0911  1.2340
  865MOL0     H16766  10.562   6.413   6.943  0.0562 -1.4336  0.2433
  865MOL0     H16767  10.665   6.429   7.142 -1.5857  2.6078 -0.7786
  865MOL0     H16768  10.719   6.545   7.035 -0.3377  1.2439  3.3638
  865MOL0     H16769  10.885   6.287   7.087  2.3669 -0.7135 -2.7649
  865MOL0     H16770  10.908   6.442   7.170  1.0403  2.3169 -1.8059
  865MOL0     H16771  10.968   6.537   6.936  1.1850  0.6098 -0.0790
  865MOL0     H16772  10.973   6.373   6.883 -0.6280  0.8369 -0.0218
  865MOL0     H16773  11.300   6.497   7.147  0.2680  0.5083 -0.9326
  865MOL0     H16774  10.643   6.243   6.688 -1.2112 -0.7779 -1.7354
  865MOL0     H16775  10.464   6.158   6.563  0.9491 -1.3555  0.1986
  866MOL0     O16776   9.268   1.968   0.006 -0.0842 -0.1478 -0.7927
  866MOL0     C16777   9.218   2.036  -0.083  0.3645  0.1621  0.5351
  866MOL0     O16778   9.289   2.111  -0.174 -0.3595  0.6368  0.5344
  866MOL0     C16779   9.420   2.136  -0.163  0.2201  0.2381  0.4448
  866MOL0     C16780   9.507   2.026  -0.176 -0.5222 -0.1644 -0.1585
  866MOL0     C16781   9.646   2.050  -0.162  0.5628  0.1778 -0.2042
  866MOL0     C16782   9.701   2.174  -0.142  0.9218 -0.3207 -0.6556
  866MOL0     O16783   9.834   2.204  -0.135  0.2403 -0.7794  0.1819
  866MOL0     C16784   9.940   2.105  -0.135 -0.3086 -0.5100 -0.1577
  866MOL0     C16785  10.063   2.175  -0.170 -0.5739 -0.4586  0.7462
  866MOL0     C16786  10.187   2.086  -0.155 -0.0527  0.1281 -0.3815
  866MOL0     C16787  10.324   2.151  -0.195  0.4712 -0.2951 -0.2461
  866MOL0     C16788  10.453   2.060  -0.186  0.9599  0.2592  0.6739
  866MOL0     C16789  10.579   2.157  -0.192 -0.6012 -0.0973 -0.0534
  866MOL0     C16790  10.572   2.251  -0.315 -0.0025  0.1640  0.0048
  866MOL0     C16791  10.696   2.339  -0.318  0.0433  0.4505 -0.8408
  866MOL0     N16792  10.698   2.448  -0.412  0.0539 -0.3513 -0.6348
  866MOL0     C16793  10.594   2.532  -0.444  0.1913 -0.3383  0.2279
  866MOL0     C16794  10.652   2.633  -0.508 -0.5222 -0.6708 -0.3678
  866MOL0     C16795  10.598   2.764  -0.551  0.2703 -0.7012 -0.1600
  866MOL0     C16796  10.451   2.761  -0.571 -0.2567  0.1516  0.1095
  866MOL0     C16797  10.392   2.901  -0.603  0.1201 -0.0954  0.2315
  866MOL0     C16798  10.237   2.902  -0.610 -0.2889  0.5445 -0.3978
  866MOL0     O16799  10.178   3.038  -0.602  0.5353  0.8718  0.0912
  866MOL0     C16800  10.045   3.030  -0.606  0.4012 -0.0527 -0.9333
  866MOL0     C16801   9.971   2.993  -0.495 -0.2380  0.0374  0.7056
  866MOL0     C16802   9.829   2.978  -0.491  0.6562 -1.4842 -0.2155
  866MOL0     C16803   9.784   2.943  -0.343 -0.2087 -0.7125 -0.5240
  866MOL0     C16804   9.753   3.009  -0.609 -0.7928 -0.6481  0.3271
  866MOL0     C16805   9.602   3.012  -0.620 -0.1096  0.1918  0.0852
  866MOL0     O16806   9.540   3.034  -0.741  0.1651  0.0933  0.6853
  866MOL0     C16807   9.402   3.021  -0.743  0.0177 -0.6392  0.1041
  866MOL0     C16808   9.343   2.901  -0.710 -0.0419 -0.3222 -0.1184
  866MOL0     C16809   9.206   2.893  -0.693 -0.4734  1.0899  0.1864
  866MOL0     C16810   9.117   2.991  -0.725 -0.8093  0.5864 -0.0877
  866MOL0     O16811   8.982   2.967  -0.697 -0.1901 -0.3007 -0.3338
  866MOL0     C16812   8.886   3.034  -0.775 -0.1510  1.6098  0.2714
  866MOL0     C16813   8.799   2.927  -0.844 -0.2110  0.0811  0.3435
  866MOL0     C16814   8.661   2.993  -0.885 -0.2316  0.5077 -0.3818
  866MOL0     C16815   8.570   2.894  -0.959 -0.1733 -0.2354 -0.8203
  866MOL0     C16816   8.429   2.944  -0.979  0.5322 -1.2205 -0.6105
  866MOL0     C16817   8.328   2.864  -1.062  0.4829  0.4640  0.0958
  866MOL0     C16818   8.387   2.872  -1.206 -0.2552 -0.3038 -0.2864
  866MOL0     C16819   8.294   2.788  -1.302  0.0343  0.1168 -0.3753
  866MOL0    Cl16820   8.123   2.852  -1.300 -0.1780  0.3515  0.1248
  866MOL0     C16821   9.176   3.114  -0.770  0.0686 -0.3760 -0.1650
  866MOL0     C16822   9.318   3.128  -0.780 -0.0536  0.4361 -0.0187
  866MOL0     O16823   9.543   3.024  -0.514 -0.4883  0.3621 -0.8025
  866MOL0     C16824   9.837   3.039  -0.723 -0.2105 -0.5070 -1.3178
  866MOL0     C16825   9.976   3.050  -0.721 -0.0227 -0.4600  0.7451
  866MOL0     N16826  10.785   2.597  -0.537  0.2974 -0.6295 -0.7191
  866MOL0     N16827  10.814   2.494  -0.471  0.6781 -0.1566  0.6687
  866MOL0     C16828   9.608   2.283  -0.147 -0.9470 -0.3836  0.6143
  866MOL0     C16829   9.475   2.272  -0.158 -0.0260 -0.7174  0.6048
  866MOL0     C16830   9.080   2.028  -0.095  2.0273 -0.2411  0.8303
  866MOL0     C16831   9.025   2.042  -0.221  0.3150  0.0827  0.4485
  866MOL0     C16832   8.888   2.032  -0.244  0.4118 -0.1303  0.3551
  866MOL0     C16833   8.805   2.001  -0.140 -0.1803  0.0401 -0.7538
  866MOL0     O16834   8.680   1.981  -0.185 -0.0030 -0.4369  0.0413
  866MOL0     C16835   8.568   2.003  -0.095 -0.1277 -0.0422  0.0213
  866MOL0     C16836   8.444   2.042  -0.177  0.0718  0.1910  0.4375
  866MOL0     C16837   8.319   2.032  -0.079 -0.2343  0.0489 -0.1325
  866MOL0     C16838   8.189   2.046  -0.144 -0.1817  0.2338  1.1447
  866MOL0     C16839   8.071   2.047  -0.065 -0.3831 -0.0530 -0.4122
  866MOL0     C16840   7.973   2.041   0.009  0.2783 -0.1760  0.8640
  866MOL0     C16841   8.856   1.976  -0.011  0.6603  0.0054  0.5913
  866MOL0     C16842   8.991   1.996   0.009  0.6865  0.1341 -0.2321
  866MOL0     H16843   9.472   1.925  -0.191  2.0415 -0.8755 -2.0357
  866MOL0     H16844   9.706   1.961  -0.144 -0.8568 -0.5578  1.0672
  866MOL0     H16845   9.958   2.046  -0.044 -0.8866 -1.3613 -0.5770
  866MOL0     H16846   9.918   2.033  -0.215 -2.7084  4.1153 -4.2451
  866MOL0     H16847  10.058   2.218  -0.270 -1.2474 -0.2903  0.8445
  866MOL0     H16848  10.091   2.249  -0.093  0.4689  2.5501 -2.2854
  866MOL0     H16849  10.193   2.045  -0.054 -0.7807 -1.0583 -0.7929
  866MOL0     H16850  10.185   1.995  -0.216  1.5119 -0.1989  0.0196
  866MOL0     H16851  10.317   2.181  -0.301  0.7032 -2.9587 -1.0748
  866MOL0     H16852  10.335   2.240  -0.132 -1.3060  0.1614 -0.5155
  866MOL0     H16853  10.469   1.995  -0.100  1.5427 -0.9296 -0.2989
  866MOL0     H16854  10.450   2.002  -0.279 -0.9018  0.3238  0.6496
  866MOL0     H16855  10.578   2.220  -0.103 -0.4076 -0.3312  0.1114
  866MOL0     H16856  10.670   2.096  -0.194 -1.7848 -1.9575  0.1644
  866MOL0     H16857  10.562   2.179  -0.397  0.3925  2.2239 -1.9292
  866MOL0     H16858  10.479   2.308  -0.322  0.2480  0.7865  1.4118
  866MOL0     H16859  10.784   2.275  -0.320  1.7690  2.3596  2.9493
  866MOL0     H16860  10.694   2.391  -0.221 -1.3989  0.7049 -0.9873
  866MOL0     H16861  10.495   2.536  -0.401  0.4064 -2.3210  1.0438
  866MOL0     H16862  10.621   2.842  -0.478 -0.3280 -1.6564  1.0823
  866MOL0     H16863  10.646   2.794  -0.644  1.0932 -4.0790 -0.9459
  866MOL0     H16864  10.404   2.737  -0.476 -0.4445  0.8307  0.1932
  866MOL0     H16865  10.430   2.688  -0.650  1.4126  1.8083 -1.9945
  866MOL0     H16866  10.424   2.942  -0.700  1.4970 -0.2285  0.6110
  866MOL0     H16867  10.413   2.977  -0.528 -0.1157  2.5885 -2.2351
  866MOL0     H16868  10.197   2.845  -0.525  0.3585  0.1906 -0.3260
  866MOL0     H16869  10.201   2.847  -0.697  0.1358 -1.3259  0.5490
  866MOL0     H16870  10.025   2.962  -0.407 -0.1062 -0.7253  0.3651
  866MOL0     H16871   9.816   3.010  -0.262 -1.1916  1.4181 -1.8002
  866MOL0     H16872   9.677   2.934  -0.325  0.0425  0.0358  1.7714
  866MOL0     H16873   9.829   2.847  -0.317 -0.7621 -0.6944  0.5998
  866MOL0     H16874   9.398   2.810  -0.691 -2.8967 -1.8104  1.8261
  866MOL0     H16875   9.185   2.789  -0.670 -1.9879  1.6842  1.7025
  866MOL0     H16876   8.824   3.096  -0.710 -2.4446  0.0590 -0.3326
  866MOL0     H16877   8.936   3.102  -0.845  2.1208 -1.0875 -0.9461
  866MOL0     H16878   8.855   2.892  -0.931  1.1768  3.4921 -0.3028
  866MOL0     H16879   8.783   2.846  -0.772 -1.9790 -1.0653 -1.2483
  866MOL0     H16880   8.681   3.079  -0.949  1.9921  0.4250  0.1213
  866MOL0     H16881   8.599   3.032  -0.804  0.8229  0.5257  0.4418
  866MOL0     H16882   8.614   2.868  -1.055  1.5959  0.7275 -0.3137
  866MOL0     H16883   8.579   2.804  -0.897  2.1631 -0.1067 -0.8884
  866MOL0     H16884   8.426   3.042  -1.028 -0.5956 -0.1011  1.5552
  866MOL0     H16885   8.386   2.961  -0.880  0.5201  0.0980 -0.8160
  866MOL0     H16886   8.317   2.763  -1.021  0.5977  0.5414  0.3143
  866MOL0     H16887   8.227   2.905  -1.055  0.4467  0.0595  2.6356
  866MOL0     H16888   8.485   2.825  -1.210 -0.4095 -0.5360 -2.5848
  866MOL0     H16889   8.379   2.978  -1.233 -4.4016 -0.2558  0.4793
  866MOL0     H16890   8.298   2.684  -1.268  2.7617 -0.4256 -2.0067
  866MOL0     H16891   8.321   2.798  -1.408 -0.8982  2.3770 -0.4542
  866MOL0     H16892   9.127   3.210  -0.780 -2.5737 -1.0937  3.6107
  866MOL0     H16893   9.362   3.220  -0.817  0.3458  0.3030  0.1194
  866MOL0     H16894   9.781   3.044  -0.816  0.3079 -1.3942 -1.6882
  866MOL0     H16895  10.027   3.082  -0.811 -0.6596  0.6689  0.7768
  866MOL0     H16896   9.647   2.384  -0.155 -1.5385 -0.0738  1.4013
  866MOL0     H16897   9.413   2.361  -0.165 -1.3017 -1.4356  2.1615
  866MOL0     H16898   9.097   2.056  -0.302 -0.3022  0.5333 -0.0349
  866MOL0     H16899   8.844   2.041  -0.343 -2.1473  1.1532  1.4998
  866MOL0     H16900   8.549   1.913  -0.036 -1.3837 -0.8608 -1.5903
  866MOL0     H16901   8.582   2.077  -0.015  3.0506 -0.7144  0.2591
  866MOL0     H16902   8.432   1.968  -0.257  1.5046 -3.0789  2.9982
  866MOL0     H16903   8.460   2.140  -0.223  0.6190  0.5251  1.3239
  866MOL0     H16904   8.319   2.121  -0.015 -0.3280 -0.2575  0.2963
  866MOL0     H16905   8.312   1.938  -0.025  2.4514 -2.2985 -3.4001
  866MOL0     H16906   8.172   1.963  -0.213 -1.5507  0.9640  0.5601
  866MOL0     H16907   8.186   2.145  -0.192  2.0604  1.0030  2.4421
  866MOL0     H16908   7.893   2.015   0.074 -0.6086 -2.0920 -0.8791
  866MOL0     H16909   8.801   1.937   0.074 -2.6233  1.5319 -0.6638
  866MOL0     H16910   9.038   1.971   0.104 -0.2194 -1.3507 -0.1502
  867MOL0     O16911   0.317  10.421   7.365  0.1444 -0.1004 -0.2750
  867MOL0     C16912   0.389  10.392   7.462 -0.3827  0.6874 -0.2072
  867MOL0     O16913   0.339  10.373   7.592 -0.1509 -0.4000  0.1298
  867MOL0     C16914   0.204  10.394   7.612 -0.4856  0.3363 -0.1588
  867MOL0     C16915   0.110  10.290   7.619  0.4046  0.4355  0.0753
  867MOL0     C16916  -0.027  10.308   7.643  0.2470 -0.0810 -0.4698
  867MOL0     C16917  -0.078  10.440   7.634  0.0724  0.0816 -0.8509
  867MOL0     O16918  -0.203  10.488   7.642  0.2485  0.2326 -0.2212
  867MOL0     C16919  -0.317  10.413   7.588  1.0378 -0.9358 -0.5998
  867MOL0     C16920  -0.447  10.491   7.596  0.1065  0.0447  0.3350
  867MOL0     C16921  -0.520  10.487   7.733 -0.5443 -0.5422  0.6505
  867MOL0     C16922  -0.654  10.563   7.736 -1.2853 -0.7796  0.7208
  867MOL0     C16923  -0.723  10.552   7.874 -0.1247 -0.5232  0.0161
  867MOL0     C16924  -0.858  10.632   7.875 -0.5035  0.4838 -0.5323
  867MOL0     C16925  -0.924  10.615   8.010 -0.8958  0.6409  0.7226
  867MOL0     C16926  -1.035  10.508   8.022  0.6158  0.0218  0.2591
  867MOL0     N16927  -1.159  10.542   7.949  0.0610 -0.9390  0.2228
  867MOL0     C16928  -1.237  10.452   7.884  0.1437  0.8194 -0.2824
  867MOL0     C16929  -1.337  10.524   7.826 -0.4747 -0.3102  0.6804
  867MOL0     C16930  -1.451  10.472   7.739 -0.4565  0.3040 -0.7419
  867MOL0     C16931  -1.588  10.469   7.799  0.0834  0.6545 -0.7529
  867MOL0     C16932  -1.693  10.410   7.706  0.2587  0.0855  0.2450
  867MOL0     C16933  -1.831  10.407   7.761 -0.2009 -0.3427 -0.2995
  867MOL0     O16934  -1.880  10.543   7.779 -0.3243  0.2541 -0.4790
  867MOL0     C16935  -2.007  10.580   7.759 -0.3538 -0.1057 -0.2215
  867MOL0     C16936  -2.032  10.713   7.738 -0.6810  0.0731  0.9113
  867MOL0     C16937  -2.156  10.766   7.694 -1.0400 -0.1523 -0.6182
  867MOL0     C16938  -2.152  10.919   7.677  0.1167 -1.2517 -0.1365
  867MOL0     C16939  -2.269  10.679   7.710 -0.5243 -0.2400  0.4427
  867MOL0     C16940  -2.408  10.723   7.677  0.7207 -0.3770 -0.1429
  867MOL0     O16941  -2.516  10.629   7.699 -0.0957  0.2812  0.5396
  867MOL0     C16942  -2.650  10.656   7.666 -0.1834 -0.2259  0.5647
  867MOL0     C16943  -2.708  10.778   7.697  0.9352 -1.0185  0.0391
  867MOL0     C16944  -2.833  10.810   7.642  0.7994  0.0543 -0.1109
  867MOL0     C16945  -2.908  10.719   7.568 -0.1659  0.2295 -0.2803
  867MOL0     O16946  -3.026  10.757   7.507  0.2531 -0.8942  0.4884
  867MOL0     C16947  -3.028  10.733   7.359  0.0255  0.1718 -0.3733
  867MOL0     C16948  -3.173  10.705   7.315 -0.1007  0.2858  0.1915
  867MOL0     C16949  -3.258  10.830   7.340  0.0876  0.4339 -0.1267
  867MOL0     C16950  -3.398  10.799   7.280  0.8090  0.2017 -0.0494
  867MOL0     C16951  -3.516  10.901   7.307  0.0096 -0.1898  0.1974
  867MOL0     C16952  -3.481  11.044   7.252  0.9227  0.7658  0.2741
  867MOL0     C16953  -3.611  11.122   7.250 -0.5369  0.6190 -0.3635
  867MOL0     C16954  -3.613  11.240   7.345  0.0653 -0.4795 -0.0032
  867MOL0    Cl16955  -3.759  11.334   7.333 -0.1176  0.5236  0.2814
  867MOL0     C16956  -2.851  10.587   7.564  0.0044  0.0638  0.1059
  867MOL0     C16957  -2.728  10.553   7.620  0.3569  0.0018  0.0474
  867MOL0     O16958  -2.426  10.845   7.645  0.0310  0.6148  0.4186
  867MOL0     C16959  -2.237  10.543   7.739 -0.3322 -0.0809  0.2222
  867MOL0     C16960  -2.107  10.492   7.759 -0.2616  0.4744  0.3975
  867MOL0     N16961  -1.321  10.660   7.869 -0.2386 -0.0154  0.0004
  867MOL0     N16962  -1.215  10.665   7.937  0.6182  0.5021 -0.0434
  867MOL0     C16963   0.014  10.539   7.626  0.0270 -0.8875 -0.1054
  867MOL0     C16964   0.151  10.520   7.634 -0.5328  0.4843 -0.3185
  867MOL0     C16965   0.533  10.356   7.438  0.3126 -0.0050  0.2588
  867MOL0     C16966   0.613  10.305   7.537 -0.1535 -0.9336 -0.4100
  867MOL0     C16967   0.746  10.265   7.521  0.2453 -0.6982 -0.6708
  867MOL0     C16968   0.798  10.292   7.398 -0.3262 -1.4156  0.3027
  867MOL0     O16969   0.927  10.262   7.366  0.0698  0.2185 -0.0246
  867MOL0     C16970   1.020  10.211   7.470 -0.2979  0.0544  0.4172
  867MOL0     C16971   1.154  10.160   7.418 -0.3011 -0.2489  0.4972
  867MOL0     C16972   1.235  10.097   7.529 -0.3326 -0.1464  0.5934
  867MOL0     C16973   1.260  10.187   7.650  0.7167 -0.1969 -0.2599
  867MOL0     C16974   1.343  10.119   7.745 -0.4682  0.6327 -0.2995
  867MOL0     C16975   1.414  10.050   7.814 -0.4317 -0.5298  0.2461
  867MOL0     C16976   0.722  10.359   7.293  0.4855  0.9355  0.1596
  867MOL0     C16977   0.590  10.388   7.316 -0.3106  0.3843  1.0317
  867MOL0     H16978   0.145  10.188   7.603 -1.0254  0.2284 -2.2512
  867MOL0     H16979  -0.096  10.224   7.651 -0.3792  0.4211 -0.5622
  867MOL0     H16980  -0.293  10.396   7.483 -1.8640 -0.0978 -1.4736
  867MOL0     H16981  -0.326  10.314   7.635 -3.5883 -1.7236 -2.6010
  867MOL0     H16982  -0.413  10.593   7.577 -0.1112 -0.1336 -1.1181
  867MOL0     H16983  -0.525  10.453   7.531 -1.2727  3.8831 -0.5036
  867MOL0     H16984  -0.549  10.386   7.762 -0.9356 -0.6824 -0.1954
  867MOL0     H16985  -0.451  10.541   7.798  1.0110 -0.0106 -1.3167
  867MOL0     H16986  -0.628  10.668   7.718  0.7073 -1.1847  1.0423
  867MOL0     H16987  -0.717  10.524   7.656  1.6515 -4.8245  0.0437
  867MOL0     H16988  -0.742  10.445   7.885 -0.3084 -0.6523 -1.3946
  867MOL0     H16989  -0.653  10.589   7.949  0.0362  1.1717 -0.9185
  867MOL0     H16990  -0.841  10.736   7.847  1.1193  0.3985  0.0311
  867MOL0     H16991  -0.920  10.575   7.805  0.5106 -2.4165  0.7740
  867MOL0     H16992  -0.847  10.613   8.088  0.7247  1.8422 -0.7709
  867MOL0     H16993  -0.964  10.713   8.038  0.1721  2.1636 -2.6523
  867MOL0     H16994  -1.065  10.501   8.127 -1.5440  1.4300 -0.1955
  867MOL0     H16995  -1.000  10.408   7.996  0.4148  0.2083 -0.7670
  867MOL0     H16996  -1.221  10.345   7.876  0.4781  0.9895 -4.4444
  867MOL0     H16997  -1.453  10.536   7.650 -2.0449  1.3349 -0.0001
  867MOL0     H16998  -1.418  10.377   7.695  0.7057  0.8567 -1.1046
  867MOL0     H16999  -1.620  10.572   7.816 -0.2368  0.7242 -1.7430
  867MOL0     H17000  -1.596  10.403   7.886 -0.6879 -0.3633 -1.5658
  867MOL0     H17001  -1.660  10.308   7.680 -2.6477 -0.7736 -0.4481
  867MOL0     H17002  -1.696  10.461   7.609 -1.2487 -1.0618 -0.3582
  867MOL0     H17003  -1.837  10.368   7.863 -1.0255  0.5673  0.0286
  867MOL0     H17004  -1.901  10.345   7.704 -0.5732  0.3447 -0.6114
  867MOL0     H17005  -1.948  10.782   7.742  0.6503 -1.4644  0.2961
  867MOL0     H17006  -2.210  10.959   7.594  1.9745 -0.3138 -1.0475
  867MOL0     H17007  -2.195  10.966   7.765 -0.3907 -2.0902  0.0707
  867MOL0     H17008  -2.052  10.963   7.678  0.5858 -2.2460  1.5515
  867MOL0     H17009  -2.648  10.851   7.749  0.8932  0.2038 -1.5733
  867MOL0     H17010  -2.867  10.911   7.658  1.4681 -0.0024  1.9915
  867MOL0     H17011  -2.999  10.822   7.302 -1.1439 -0.7679 -2.5408
  867MOL0     H17012  -2.953  10.656   7.341  2.5162  2.2993  0.2995
  867MOL0     H17013  -3.182  10.676   7.210 -0.5751 -3.0052  1.0348
  867MOL0     H17014  -3.213  10.632   7.385  1.1695  0.6346  1.3286
  867MOL0     H17015  -3.224  10.923   7.293  1.0366 -0.9974 -2.4811
  867MOL0     H17016  -3.272  10.852   7.447 -2.4667 -0.7313 -0.1637
  867MOL0     H17017  -3.393  10.776   7.173 -0.2797 -1.3419  0.1884
  867MOL0     H17018  -3.435  10.703   7.317  3.1780 -0.5033  0.6779
  867MOL0     H17019  -3.527  10.917   7.415  0.2427 -0.7688  0.3119
  867MOL0     H17020  -3.612  10.858   7.279 -0.0704 -0.3509  0.7078
  867MOL0     H17021  -3.402  11.084   7.317  1.2884  0.7596 -0.1589
  867MOL0     H17022  -3.441  11.029   7.152  0.1570 -3.8439  0.4407
  867MOL0     H17023  -3.694  11.053   7.267 -2.2688  1.5667 -4.0176
  867MOL0     H17024  -3.639  11.174   7.158 -1.0297  0.3397 -0.3716
  867MOL0     H17025  -3.530  11.309   7.324  0.4452 -0.5060  1.3449
  867MOL0     H17026  -3.607  11.200   7.446 -0.2376 -1.5335 -0.3815
  867MOL0     H17027  -2.910  10.507   7.520  1.7454 -1.9011  1.1725
  867MOL0     H17028  -2.691  10.452   7.611  1.3610  0.4191 -0.7056
  867MOL0     H17029  -2.321  10.476   7.759  1.0719 -1.6726  1.0428
  867MOL0     H17030  -2.083  10.396   7.804 -0.8620 -0.8527 -1.9590
  867MOL0     H17031  -0.021  10.642   7.624 -2.4068 -1.6556 -2.6528
  867MOL0     H17032   0.214  10.607   7.651  0.1114 -0.0967  0.3076
  867MOL0     H17033   0.569  10.290   7.635  1.3216 -1.7511  0.1708
  867MOL0     H17034   0.809  10.225   7.600  2.7738  1.8954 -1.2308
  867MOL0     H17035   1.033  10.297   7.537  0.5864  0.2720 -0.0158
  867MOL0     H17036   0.980  10.131   7.533  1.6837 -1.2359  0.1268
  867MOL0     H17037   1.213  10.244   7.381  1.4110 -0.5874  2.2929
  867MOL0     H17038   1.137  10.084   7.340 -1.6664  1.1649 -0.6400
  867MOL0     H17039   1.334  10.078   7.488  0.0503  1.9681  0.4044
  867MOL0     H17040   1.180  10.008   7.562  2.1166 -3.2338 -2.8864
  867MOL0     H17041   1.165  10.213   7.699 -0.7238  0.1755 -3.0405
  867MOL0     H17042   1.297  10.282   7.610 -1.4831  1.0522  0.4485
  867MOL0     H17043   1.483   9.990   7.870  1.7648 -1.2265 -2.8957
  867MOL0     H17044   0.763  10.381   7.195  1.2979  2.2943  0.7784
  867MOL0     H17045   0.526  10.435   7.243  1.0698 -2.7420 -2.5039
  868MOL0     O17046   6.928   8.792   5.876  0.3994 -0.1330  0.2580
  868MOL0     C17047   6.936   8.794   6.002  0.7418  0.1288 -0.6474
  868MOL0     O17048   6.860   8.731   6.098  0.0959 -0.3130  0.5155
  868MOL0     C17049   6.757   8.650   6.071  0.7874  0.1022  0.9791
  868MOL0     C17050   6.727   8.547   6.161 -0.0470 -0.1410 -0.2933
  868MOL0     C17051   6.603   8.477   6.158 -0.3632 -0.1220  0.0760
  868MOL0     C17052   6.519   8.501   6.047  0.2045  0.0472 -0.1192
  868MOL0     O17053   6.399   8.433   6.021 -0.7802 -0.4659  0.0135
  868MOL0     C17054   6.319   8.423   6.142  0.3230 -0.4324 -0.0532
  868MOL0     C17055   6.181   8.401   6.090 -0.0855  0.0130  0.5169
  868MOL0     C17056   6.129   8.514   6.015  0.6575  0.8845 -0.2064
  868MOL0     C17057   5.979   8.497   6.018 -0.1422  0.0053 -0.0232
  868MOL0     C17058   5.899   8.606   5.944 -0.5773 -0.0760  0.3292
  868MOL0     C17059   5.744   8.579   5.921  0.9466 -0.1355 -0.9927
  868MOL0     C17060   5.712   8.445   5.858  0.2291  0.3111 -0.5190
  868MOL0     C17061   5.569   8.430   5.820 -0.1552  0.2251 -0.1682
  868MOL0     N17062   5.542   8.297   5.765 -0.8713 -0.8271  0.0774
  868MOL0     C17063   5.449   8.208   5.816  0.3479  0.2667 -0.1225
  868MOL0     C17064   5.469   8.089   5.755 -0.4245 -0.5806 -0.5670
  868MOL0     C17065   5.393   7.968   5.783 -0.0947 -0.1234  0.4494
  868MOL0     C17066   5.284   7.943   5.679 -0.0472 -0.1410  0.3308
  868MOL0     C17067   5.139   7.949   5.734  0.0066  0.0200 -0.1352
  868MOL0     C17068   5.087   8.092   5.746  0.3945  0.2477  0.3528
  868MOL0     O17069   4.996   8.103   5.856  0.3387 -0.5748 -0.8074
  868MOL0     C17070   4.879   8.031   5.863 -0.0591 -0.6414  0.1898
  868MOL0     C17071   4.805   7.985   5.758  0.2294  0.2811 -0.2948
  868MOL0     C17072   4.691   7.909   5.778  0.4078  0.6761  0.0573
  868MOL0     C17073   4.618   7.868   5.654 -1.2388 -0.0313  0.5416
  868MOL0     C17074   4.632   7.898   5.904 -0.0017  0.5094 -0.1571
  868MOL0     C17075   4.509   7.824   5.945 -0.1997 -0.3594  0.1830
  868MOL0     O17076   4.405   7.836   5.862 -0.0712 -0.3740 -0.1163
  868MOL0     C17077   4.286   7.764   5.880 -1.2098 -0.3785  0.1293
  868MOL0     C17078   4.221   7.759   6.008 -0.4689 -0.2669  0.4497
  868MOL0     C17079   4.099   7.688   6.016 -0.1632  0.7304  0.1582
  868MOL0     C17080   4.046   7.624   5.908  0.7862 -0.3274  0.6298
  868MOL0     O17081   3.930   7.552   5.905 -0.1905  0.4017 -0.0462
  868MOL0     C17082   3.844   7.567   6.022 -0.0436  0.8239 -0.2194
  868MOL0     C17083   3.712   7.504   5.999 -0.5970  0.4345  0.4614
  868MOL0     C17084   3.655   7.553   5.866 -0.6100 -1.0352  0.2199
  868MOL0     C17085   3.507   7.559   5.870 -0.1848  1.1152  0.3977
  868MOL0     C17086   3.460   7.687   5.943 -0.1306 -0.1039  0.4384
  868MOL0     C17087   3.326   7.663   6.020  0.0411  0.9576 -0.7093
  868MOL0     C17088   3.196   7.601   5.944 -0.4552 -0.7592  0.2242
  868MOL0     C17089   3.165   7.691   5.827  0.2137  0.4733  0.2076
  868MOL0    Cl17090   3.101   7.860   5.877 -0.0061  0.0349  0.3366
  868MOL0     C17091   4.114   7.637   5.784 -0.5827  0.2059 -0.5357
  868MOL0     C17092   4.232   7.699   5.773  0.1217  0.0035 -0.0470
  868MOL0     O17093   4.508   7.774   6.055  0.0646  0.3876 -0.9201
  868MOL0     C17094   4.697   7.966   6.007  1.3475  0.1103 -0.5989
  868MOL0     C17095   4.816   8.030   5.989 -0.0961  0.3274 -0.2184
  868MOL0     N17096   5.557   8.112   5.650  0.1577  0.6759 -0.2651
  868MOL0     N17097   5.594   8.234   5.658 -0.2561 -0.5571 -0.3914
  868MOL0     C17098   6.552   8.586   5.948 -0.2420 -0.1048 -0.5816
  868MOL0     C17099   6.668   8.661   5.962  0.4907  0.0411 -0.4340
  868MOL0     C17100   7.059   8.860   6.047 -0.1404  0.5442 -1.0198
  868MOL0     C17101   7.081   8.894   6.182  0.6211  0.6031  0.2469
  868MOL0     C17102   7.195   8.960   6.218  0.7460 -0.3733 -0.2620
  868MOL0     C17103   7.298   8.983   6.122  0.1133  0.3885 -0.1587
  868MOL0     O17104   7.410   9.052   6.153 -0.3457 -0.5259  0.9630
  868MOL0     C17105   7.432   9.172   6.074  0.1451 -0.0593  0.1902
  868MOL0     C17106   7.578   9.199   6.092  0.3174 -0.1746 -0.4149
  868MOL0     C17107   7.627   9.306   5.987  0.3197  0.0759  0.1507
  868MOL0     C17108   7.771   9.335   5.995 -1.0677  0.2271  0.0617
  868MOL0     C17109   7.845   9.216   5.953 -0.2302 -0.2661 -0.0336
  868MOL0     C17110   7.913   9.126   5.907  0.2054  0.1132  0.1758
  868MOL0     C17111   7.275   8.942   5.987 -0.3113  1.1930 -0.6178
  868MOL0     C17112   7.159   8.885   5.951 -0.0142  0.1035 -1.1040
  868MOL0     H17113   6.807   8.534   6.235 -0.7630  1.9049  0.9261
  868MOL0     H17114   6.578   8.414   6.243  0.1457  0.6333  0.7992
  868MOL0     H17115   6.366   8.345   6.203 -0.0929  0.2646  1.1824
  868MOL0     H17116   6.323   8.512   6.205  0.3591 -0.9560  0.6916
  868MOL0     H17117   6.194   8.314   6.025  2.9293  0.8788 -0.2228
  868MOL0     H17118   6.125   8.369   6.178 -1.9385 -0.0439 -0.6396
  868MOL0     H17119   6.161   8.610   6.058 -2.0982  1.1179  1.5841
  868MOL0     H17120   6.166   8.509   5.912  0.0579  2.3202 -0.5189
  868MOL0     H17121   5.968   8.404   5.961 -0.7563  0.7247 -1.0968
  868MOL0     H17122   5.947   8.471   6.119  3.0675 -1.7262  0.7152
  868MOL0     H17123   5.906   8.697   6.003  0.3602 -1.3113  2.2187
  868MOL0     H17124   5.939   8.620   5.843 -0.3021 -0.3840  0.3935
  868MOL0     H17125   5.699   8.576   6.020  1.3524  0.1777 -0.7970
  868MOL0     H17126   5.696   8.656   5.860 -2.2301 -0.8752  0.3958
  868MOL0     H17127   5.766   8.424   5.766 -2.2495 -2.2775 -1.5471
  868MOL0     H17128   5.748   8.364   5.922  1.9406 -0.5386 -2.4530
  868MOL0     H17129   5.539   8.509   5.751 -0.0092  0.9069  0.5378
  868MOL0     H17130   5.515   8.442   5.914 -0.8849 -3.4015  0.0202
  868MOL0     H17131   5.376   8.237   5.892 -0.4787 -0.8934 -0.4333
  868MOL0     H17132   5.466   7.887   5.777  1.2614  1.0212  0.9591
  868MOL0     H17133   5.350   7.981   5.882 -1.0990  3.7214 -0.3503
  868MOL0     H17134   5.308   7.846   5.635  2.0374 -1.1153  3.2909
  868MOL0     H17135   5.289   8.015   5.596 -1.5694  0.0581  0.3921
  868MOL0     H17136   5.143   7.911   5.836  0.7689  2.0614  0.6554
  868MOL0     H17137   5.073   7.891   5.669  0.8506 -0.1025 -0.9165
  868MOL0     H17138   5.041   8.123   5.651  0.6559  0.5142  0.3132
  868MOL0     H17139   5.170   8.158   5.772  0.7149  0.4561 -1.1064
  868MOL0     H17140   4.835   7.997   5.654  0.8152  1.1063 -0.0467
  868MOL0     H17141   4.608   7.759   5.648  2.2408 -0.8420  4.6428
  868MOL0     H17142   4.524   7.924   5.661 -1.3304 -0.3834  3.3083
  868MOL0     H17143   4.656   7.900   5.557 -2.9468 -0.6999 -0.4003
  868MOL0     H17144   4.261   7.797   6.102  0.0677 -0.6806  0.3964
  868MOL0     H17145   4.060   7.693   6.118  0.4220 -1.7478  0.5676
  868MOL0     H17146   3.889   7.512   6.106  1.6293  0.6588 -1.1653
  868MOL0     H17147   3.823   7.667   6.060  0.2437  0.5364  0.7358
  868MOL0     H17148   3.740   7.398   5.994  0.9009  0.8351 -0.3395
  868MOL0     H17149   3.645   7.509   6.085 -0.5285 -4.7233  1.1440
  868MOL0     H17150   3.687   7.481   5.791 -0.4846 -3.5760  2.5713
  868MOL0     H17151   3.690   7.654   5.841 -0.7685 -1.2564 -0.9658
  868MOL0     H17152   3.467   7.558   5.769  1.3203 -1.9022 -0.2988
  868MOL0     H17153   3.478   7.467   5.923 -1.3007  1.1461 -0.1367
  868MOL0     H17154   3.453   7.758   5.860 -2.3830 -2.2065 -1.3268
  868MOL0     H17155   3.541   7.715   6.012 -0.5193 -0.5838  1.1024
  868MOL0     H17156   3.333   7.601   6.110  1.2179  3.6097  1.1323
  868MOL0     H17157   3.304   7.758   6.068  1.2385  2.0140 -2.1702
  868MOL0     H17158   3.120   7.610   6.022  1.4460  3.2439  1.9683
  868MOL0     H17159   3.224   7.499   5.917  1.8575 -0.6501  1.8261
  868MOL0     H17160   3.093   7.645   5.758  0.4500 -0.4660  0.5724
  868MOL0     H17161   3.252   7.710   5.764 -1.3224 -2.1781 -3.0506
  868MOL0     H17162   4.066   7.588   5.700 -1.9625  1.8778 -0.7909
  868MOL0     H17163   4.281   7.699   5.676  4.1444  2.5391  1.7274
  868MOL0     H17164   4.663   7.958   6.110 -1.0930 -1.1306 -1.4196
  868MOL0     H17165   4.875   8.080   6.066  1.0401 -0.2624 -0.6859
  868MOL0     H17166   6.484   8.592   5.864 -1.5427 -1.3881  0.3131
  868MOL0     H17167   6.688   8.731   5.882  0.6844 -0.0112 -0.4303
  868MOL0     H17168   7.001   8.882   6.254 -1.3760  5.5611 -0.7540
  868MOL0     H17169   7.209   8.965   6.325  0.9036  0.8039 -0.3311
  868MOL0     H17170   7.402   9.152   5.971  3.7760 -0.2846 -0.9575
  868MOL0     H17171   7.376   9.257   6.114 -1.6986 -0.9124 -0.4701
  868MOL0     H17172   7.636   9.107   6.084  0.5290 -0.2463  1.4975
  868MOL0     H17173   7.604   9.229   6.194 -0.1876 -1.0801 -0.0098
  868MOL0     H17174   7.574   9.398   6.013  0.9229 -0.1856  2.5353
  868MOL0     H17175   7.605   9.276   5.884 -1.9160 -0.6240  0.7699
  868MOL0     H17176   7.802   9.352   6.099  0.1227 -2.8838  0.3380
  868MOL0     H17177   7.807   9.413   5.927 -0.6914 -1.8222 -2.2348
  868MOL0     H17178   7.983   9.050   5.876 -0.4356 -1.0686  1.4857
  868MOL0     H17179   7.350   8.956   5.910  2.1244 -1.7527  0.9987
  868MOL0     H17180   7.145   8.872   5.844  0.1266  1.6063 -1.3274
  869MOL0     O17181   5.993   1.094   6.849 -0.3240  0.0334  0.6917
  869MOL0     C17182   6.017   0.979   6.872 -0.0784 -0.2111  0.0986
  869MOL0     O17183   5.924   0.871   6.877 -0.1585 -0.2598  0.1036
  869MOL0     C17184   5.788   0.882   6.890 -0.1855 -0.2812  0.5112
  869MOL0     C17185   5.712   0.766   6.862 -0.0846  0.6957  0.3108
  869MOL0     C17186   5.573   0.762   6.892  0.2433  0.2142  0.7071
  869MOL0     C17187   5.501   0.876   6.927 -1.1027 -0.5410  0.0153
  869MOL0     O17188   5.366   0.883   6.959  0.8747  0.4277 -0.3210
  869MOL0     C17189   5.286   0.772   7.000 -0.0561 -0.4435  1.0952
  869MOL0     C17190   5.321   0.724   7.143  0.9732  0.1674  0.2898
  869MOL0     C17191   5.201   0.627   7.167 -0.5550  0.0805  0.7586
  869MOL0     C17192   5.201   0.607   7.319  0.1086  0.9764  0.6101
  869MOL0     C17193   5.116   0.487   7.370 -0.6224  0.1298 -0.3568
  869MOL0     C17194   4.962   0.504   7.324  0.4516 -0.0620  0.8393
  869MOL0     C17195   4.846   0.459   7.415  0.0141  1.1611  1.0212
  869MOL0     C17196   4.713   0.471   7.337  0.1529  0.0497  0.3807
  869MOL0     N17197   4.594   0.446   7.426  0.0802  0.0332  0.0716
  869MOL0     C17198   4.554   0.522   7.536 -0.0622 -0.1805  0.9302
  869MOL0     C17199   4.469   0.436   7.596  0.6255  0.6964  0.0040
  869MOL0     C17200   4.384   0.453   7.719  0.2375 -0.3067  0.4384
  869MOL0     C17201   4.256   0.539   7.693  0.1282  0.6368 -0.3355
  869MOL0     C17202   4.191   0.515   7.558  0.1148 -0.4716  0.1927
  869MOL0     C17203   4.045   0.556   7.546 -0.2511  0.3349  0.6407
  869MOL0     O17204   4.002   0.532   7.406 -0.1002  0.3230  0.9195
  869MOL0     C17205   3.865   0.524   7.396  0.4324 -0.0206  0.5156
  869MOL0     C17206   3.809   0.417   7.332 -0.2158 -0.5292 -0.0289
  869MOL0     C17207   3.668   0.396   7.336  0.1826  0.4966 -0.6376
  869MOL0     C17208   3.609   0.267   7.281  0.2020 -0.5867  0.3780
  869MOL0     C17209   3.584   0.487   7.409 -0.4314  0.1029  0.8212
  869MOL0     C17210   3.432   0.475   7.425  1.1244 -0.4914  0.2956
  869MOL0     O17211   3.377   0.557   7.519  0.2051  0.0631  0.1838
  869MOL0     C17212   3.247   0.594   7.506  0.2935  0.1260  0.8896
  869MOL0     C17213   3.145   0.520   7.561 -0.6430  0.9269 -0.5320
  869MOL0     C17214   3.015   0.556   7.551 -0.1296 -0.2817  0.3761
  869MOL0     C17215   2.974   0.678   7.488  0.8535 -0.4539  0.5895
  869MOL0     O17216   2.844   0.708   7.490  0.3247  0.1209 -0.0810
  869MOL0     C17217   2.806   0.830   7.424  0.1956  0.5965 -0.2051
  869MOL0     C17218   2.649   0.837   7.434 -0.0461  0.2552 -0.4836
  869MOL0     C17219   2.600   0.942   7.340 -0.4353 -0.7612  0.7328
  869MOL0     C17220   2.453   0.952   7.315 -0.1059  0.4336 -0.2988
  869MOL0     C17221   2.401   0.840   7.214 -0.6637  0.0823  0.2829
  869MOL0     C17222   2.254   0.867   7.189 -0.7405 -0.0695 -0.2896
  869MOL0     C17223   2.190   0.735   7.149 -0.7293  0.5909 -0.0156
  869MOL0     C17224   2.034   0.751   7.148 -0.0118 -0.8042  0.3095
  869MOL0    Cl17225   2.016   0.858   7.002  0.2720  0.8516  0.1742
  869MOL0     C17226   3.071   0.760   7.434 -0.7855  0.5267 -1.3329
  869MOL0     C17227   3.207   0.718   7.439 -0.3759  1.1895 -1.0705
  869MOL0     O17228   3.374   0.405   7.348  0.3363  0.0183 -0.5362
  869MOL0     C17229   3.653   0.593   7.468  0.6442 -0.2205  0.2055
  869MOL0     C17230   3.788   0.614   7.469 -0.0646  0.3046 -1.0951
  869MOL0     N17231   4.458   0.314   7.531 -0.5720 -0.0761  0.3811
  869MOL0     N17232   4.526   0.330   7.425  0.6887 -0.5416  0.4171
  869MOL0     C17233   5.574   0.992   6.960 -1.0488 -0.4780  0.7251
  869MOL0     C17234   5.713   0.998   6.930  0.8381  0.3009  0.1072
  869MOL0     C17235   6.161   0.940   6.893 -0.0291 -0.1020 -0.1424
  869MOL0     C17236   6.266   1.028   6.893  0.2381 -0.1643  0.8469
  869MOL0     C17237   6.391   0.985   6.935  0.0809 -0.0649  0.7792
  869MOL0     C17238   6.421   0.854   6.979  0.0597 -0.3634 -0.7443
  869MOL0     O17239   6.542   0.804   7.027  0.5459 -0.7394 -0.1089
  869MOL0     C17240   6.657   0.890   7.019 -0.3910  0.2380  0.0411
  869MOL0     C17241   6.778   0.813   7.077  0.3643 -0.1800 -0.0879
  869MOL0     C17242   6.839   0.705   6.991  0.6469  0.2382  0.3406
  869MOL0     C17243   6.952   0.621   7.056  0.0835  0.7592 -0.2947
  869MOL0     C17244   6.900   0.549   7.178 -0.4397  0.4252  0.0860
  869MOL0     C17245   6.873   0.491   7.282 -0.5011 -0.0726  0.1219
  869MOL0     C17246   6.318   0.759   6.974 -0.3672 -0.6940  0.3293
  869MOL0     C17247   6.191   0.809   6.944 -1.2003 -0.1916  0.5083
  869MOL0     H17248   5.771   0.681   6.829  1.4638  2.0854 -0.6396
  869MOL0     H17249   5.517   0.670   6.876  1.3150 -1.1500  4.0522
  869MOL0     H17250   5.182   0.804   6.988  0.2634 -0.2757 -1.8644
  869MOL0     H17251   5.307   0.696   6.924  1.8249  0.1138  1.0005
  869MOL0     H17252   5.419   0.676   7.147  1.1568  0.5795  0.8367
  869MOL0     H17253   5.329   0.810   7.211  0.2527 -0.9714  1.8795
  869MOL0     H17254   5.103   0.669   7.144 -1.8090 -2.1086  1.7592
  869MOL0     H17255   5.214   0.529   7.120 -1.1710  1.2041 -1.9527
  869MOL0     H17256   5.300   0.576   7.352  1.1106 -1.0157 -3.6707
  869MOL0     H17257   5.171   0.701   7.368  0.0306  2.6907 -2.4611
  869MOL0     H17258   5.148   0.392   7.325 -1.2745  1.0095 -2.8847
  869MOL0     H17259   5.122   0.486   7.479 -1.9482 -0.3777 -0.2584
  869MOL0     H17260   4.944   0.612   7.314  0.7321 -0.2221 -2.7649
  869MOL0     H17261   4.948   0.468   7.222  5.1353  0.1047 -0.1139
  869MOL0     H17262   4.870   0.359   7.454 -0.8555 -0.0310 -1.2633
  869MOL0     H17263   4.839   0.516   7.508 -0.8016 -0.4372  1.9752
  869MOL0     H17264   4.701   0.405   7.250  2.8813 -1.0765  0.7563
  869MOL0     H17265   4.703   0.572   7.298 -1.6819 -0.2769 -0.0739
  869MOL0     H17266   4.582   0.625   7.554  1.4922 -0.4459  0.2054
  869MOL0     H17267   4.345   0.356   7.752 -1.9925  1.0893  2.2044
  869MOL0     H17268   4.448   0.497   7.795  2.4246 -0.5824 -1.1740
  869MOL0     H17269   4.272   0.647   7.697 -0.4056  0.7857 -1.7186
  869MOL0     H17270   4.178   0.528   7.769 -1.5854  2.2766 -1.7479
  869MOL0     H17271   4.202   0.410   7.531  4.2201  0.1234 -1.0063
  869MOL0     H17272   4.244   0.585   7.493 -2.5019  0.3278 -1.2622
  869MOL0     H17273   4.039   0.660   7.580 -1.1997 -0.0165  1.6211
  869MOL0     H17274   3.983   0.494   7.612 -1.3361 -0.1757 -0.8137
  869MOL0     H17275   3.864   0.335   7.288 -2.7768 -3.2552  1.4449
  869MOL0     H17276   3.562   0.294   7.186 -1.6703 -0.8608  1.1858
  869MOL0     H17277   3.686   0.199   7.243 -0.9988 -0.5414 -2.3853
  869MOL0     H17278   3.548   0.211   7.352  0.6798 -1.5439  0.0498
  869MOL0     H17279   3.169   0.435   7.625 -0.6803  0.8498 -0.6205
  869MOL0     H17280   2.935   0.500   7.598 -1.4739  0.5371 -0.8469
  869MOL0     H17281   2.849   0.924   7.459 -0.8303  1.1141 -0.2780
  869MOL0     H17282   2.821   0.823   7.316  2.3062 -0.7364  0.1225
  869MOL0     H17283   2.613   0.738   7.408  0.7007  0.3471 -1.9595
  869MOL0     H17284   2.620   0.861   7.537  1.1164 -0.7525  0.1102
  869MOL0     H17285   2.650   0.947   7.243  0.3338  1.5886  1.1771
  869MOL0     H17286   2.627   1.043   7.373  0.8955 -0.7794 -0.2117
  869MOL0     H17287   2.404   0.923   7.408  1.4156 -1.5677 -0.0401
  869MOL0     H17288   2.419   1.053   7.289 -0.4021  0.2855 -0.4919
  869MOL0     H17289   2.410   0.740   7.259 -1.9812 -0.0352  0.3069
  869MOL0     H17290   2.466   0.830   7.126  1.6517 -2.2944  2.0749
  869MOL0     H17291   2.208   0.895   7.284  1.0211  1.5372  0.1532
  869MOL0     H17292   2.251   0.943   7.110  0.0719 -0.0079 -0.2753
  869MOL0     H17293   2.220   0.653   7.215  0.7684  0.0562 -1.3016
  869MOL0     H17294   2.221   0.705   7.049  0.5206 -0.8741  0.7722
  869MOL0     H17295   1.993   0.799   7.237 -0.7886  0.7830 -0.8716
  869MOL0     H17296   1.980   0.657   7.134 -0.1189 -0.9752  1.7164
  869MOL0     H17297   3.060   0.862   7.397 -2.1921  0.5950 -0.7716
  869MOL0     H17298   3.285   0.784   7.402  0.2675 -0.0606 -1.9874
  869MOL0     H17299   3.592   0.667   7.520  1.0843  1.4220 -1.4993
  869MOL0     H17300   3.836   0.694   7.525 -0.3956 -1.2401  1.5345
  869MOL0     H17301   5.523   1.083   6.988  0.6219  1.1994 -1.3369
  869MOL0     H17302   5.758   1.097   6.939 -1.4066  1.6766 -2.1875
  869MOL0     H17303   6.242   1.122   6.845  0.5668  0.3774  1.7240
  869MOL0     H17304   6.478   1.049   6.920  1.0051 -1.9515 -3.3113
  869MOL0     H17305   6.663   0.925   6.916  0.7657  2.8560  0.9084
  869MOL0     H17306   6.648   0.986   7.071 -1.0743  0.4462 -0.4378
  869MOL0     H17307   6.752   0.761   7.170  1.2085  1.1987  0.9582
  869MOL0     H17308   6.847   0.897   7.095 -0.7995  0.7831  0.0301
  869MOL0     H17309   6.876   0.746   6.897 -1.1446 -1.9439 -1.4546
  869MOL0     H17310   6.758   0.637   6.962 -1.6507  2.6601  0.7161
  869MOL0     H17311   7.036   0.681   7.093  2.7471 -2.9843  0.3013
  869MOL0     H17312   6.995   0.548   6.987 -2.2061  1.9578 -3.1997
  869MOL0     H17313   6.839   0.435   7.367  1.6898 -0.1792  0.9877
  869MOL0     H17314   6.329   0.656   7.006 -1.7815 -0.2022  2.5826
  869MOL0     H17315   6.122   0.727   6.955 -1.5768  0.0875  0.2521
  870MOL0     O17316   6.211   4.907   0.298  0.4688 -0.6997  0.1106
  870MOL0     C17317   6.287   5.001   0.304 -0.9256 -0.2300 -0.7941
  870MOL0     O17318   6.252   5.138   0.316  0.5452 -0.2167 -0.2252
  870MOL0     C17319   6.113   5.149   0.314 -0.7120  0.3141  0.7858
  870MOL0     C17320   6.039   5.129   0.430  0.1208  0.1065  0.3047
  870MOL0     C17321   5.904   5.149   0.431 -0.2542  0.3289 -0.3950
  870MOL0     C17322   5.832   5.146   0.307 -0.4840  0.1286  0.3851
  870MOL0     O17323   5.695   5.145   0.298 -0.7288 -0.0427 -0.4866
  870MOL0     C17324   5.623   5.199   0.410  0.0629  1.0830 -0.6206
  870MOL0     C17325   5.484   5.240   0.364  0.2332  0.2654  0.9565
  870MOL0     C17326   5.406   5.353   0.443 -0.2414  0.6787  0.1038
  870MOL0     C17327   5.255   5.362   0.398 -0.6413  0.8275 -0.0981
  870MOL0     C17328   5.182   5.496   0.418  0.6548  0.3528  0.0338
  870MOL0     C17329   5.171   5.536   0.565 -0.2596 -0.5677 -0.0790
  870MOL0     C17330   5.092   5.670   0.582  0.5895  0.4570 -0.0496
  870MOL0     C17331   5.053   5.707   0.726 -0.4220  0.4920  0.2830
  870MOL0     N17332   4.925   5.650   0.775  0.6811  0.2752  0.2936
  870MOL0     C17333   4.803   5.637   0.708  0.7196  0.1614  0.5612
  870MOL0     C17334   4.731   5.571   0.803  0.6565  0.0278  0.4275
  870MOL0     C17335   4.592   5.516   0.780  0.2192  0.4056 -0.4522
  870MOL0     C17336   4.510   5.509   0.903 -0.1213  0.0903  0.3061
  870MOL0     C17337   4.370   5.452   0.875 -0.7319  0.5621  0.0333
  870MOL0     C17338   4.329   5.335   0.965 -0.0780 -0.3781 -0.7109
  870MOL0     O17339   4.202   5.293   0.916  0.4846  0.9438 -0.1275
  870MOL0     C17340   4.084   5.357   0.958 -0.5320 -0.2384  0.5035
  870MOL0     C17341   4.094   5.480   1.030  0.6981  0.5119 -0.1245
  870MOL0     C17342   3.984   5.540   1.088  0.3302  0.3615 -0.4949
  870MOL0     C17343   4.009   5.669   1.167 -0.2385  0.1044  0.1673
  870MOL0     C17344   3.863   5.481   1.065  0.5827 -0.1736  0.0235
  870MOL0     C17345   3.740   5.542   1.125 -0.6902 -0.1838  0.1504
  870MOL0     O17346   3.705   5.666   1.061  0.0984 -0.5380  0.2033
  870MOL0     C17347   3.580   5.715   1.095  1.0084 -0.4406  0.3906
  870MOL0     C17348   3.570   5.852   1.115 -0.2335  0.5369 -0.4286
  870MOL0     C17349   3.447   5.915   1.135  0.8426 -0.3863  0.0357
  870MOL0     C17350   3.327   5.841   1.133 -0.7822 -0.6429  0.7709
  870MOL0     O17351   3.202   5.890   1.143  0.5669  0.3489  0.3950
  870MOL0     C17352   3.180   6.028   1.108  0.8522  0.1654  0.0923
  870MOL0     C17353   3.032   6.058   1.136 -0.8134  0.0912  0.3357
  870MOL0     C17354   3.016   6.130   1.270 -0.3354  0.7046  0.2590
  870MOL0     C17355   2.873   6.139   1.311  0.0643  0.5473  1.2169
  870MOL0     C17356   2.834   6.015   1.386  0.3711 -0.7176 -0.3177
  870MOL0     C17357   2.691   6.041   1.425 -0.6939  0.4548  0.1945
  870MOL0     C17358   2.638   5.917   1.506 -0.6943  0.8537 -0.6233
  870MOL0     C17359   2.494   5.948   1.540 -0.0463 -0.4986  0.0061
  870MOL0    Cl17360   2.439   5.847   1.682  0.3146 -0.4197  0.5405
  870MOL0     C17361   3.336   5.706   1.125 -0.1907 -0.7169  1.1907
  870MOL0     C17362   3.462   5.646   1.100 -0.2118  0.0534 -0.5069
  870MOL0     O17363   3.681   5.484   1.214 -0.1469  0.2261 -0.1135
  870MOL0     C17364   3.849   5.373   0.977  0.0412 -0.8623  0.4810
  870MOL0     C17365   3.964   5.307   0.931  0.4618 -0.8034 -0.4589
  870MOL0     N17366   4.797   5.550   0.920  0.0980 -0.0277 -0.0818
  870MOL0     N17367   4.916   5.601   0.903 -0.4533 -0.7980 -0.1350
  870MOL0     C17368   5.904   5.141   0.188 -0.1019 -0.5476  0.3228
  870MOL0     C17369   6.048   5.158   0.190 -0.8159 -0.2811  0.2763
  870MOL0     C17370   6.436   4.979   0.317 -0.5728  0.4357 -0.5452
  870MOL0     C17371   6.529   5.072   0.364 -0.5088 -0.0319  0.2674
  870MOL0     C17372   6.661   5.033   0.405 -0.1275 -0.4810 -0.2051
  870MOL0     C17373   6.707   4.900   0.381  0.3217  0.3371  0.2678
  870MOL0     O17374   6.836   4.856   0.399 -0.5093 -0.1917 -0.1287
  870MOL0     C17375   6.921   4.941   0.468 -0.6357  0.3152  0.0871
  870MOL0     C17376   7.058   4.874   0.489  0.6217  0.4971 -0.0217
  870MOL0     C17377   7.159   4.970   0.548  0.5421  0.0216  0.0321
  870MOL0     C17378   7.294   4.902   0.532  0.2534  0.4866 -0.0237
  870MOL0     C17379   7.298   4.789   0.624  1.4194 -0.9099  0.0321
  870MOL0     C17380   7.283   4.710   0.714 -0.0197  0.1153  0.9409
  870MOL0     C17381   6.617   4.813   0.318  0.2474  0.6988  0.4595
  870MOL0     C17382   6.486   4.851   0.288 -0.3741  0.2943  0.6177
  870MOL0     H17383   6.092   5.096   0.518 -0.0400 -2.0308 -0.3396
  870MOL0     H17384   5.848   5.131   0.522 -0.6832  2.0909 -0.2889
  870MOL0     H17385   5.619   5.122   0.488  0.0667 -1.5000 -3.0255
  870MOL0     H17386   5.673   5.287   0.450  2.9822  0.2126 -2.1274
  870MOL0     H17387   5.495   5.274   0.260 -1.4468  1.2167  1.0539
  870MOL0     H17388   5.437   5.143   0.351  2.8558 -0.9615 -0.2272
  870MOL0     H17389   5.396   5.322   0.547  0.6998  2.0781  0.6481
  870MOL0     H17390   5.461   5.448   0.436  4.3400 -1.7837 -1.2466
  870MOL0     H17391   5.252   5.343   0.290 -0.9223 -0.1209  0.0650
  870MOL0     H17392   5.202   5.286   0.457 -0.1781 -1.4425 -2.3942
  870MOL0     H17393   5.239   5.573   0.365 -0.9748  1.2949 -0.4277
  870MOL0     H17394   5.084   5.487   0.371  0.8051 -0.1469 -0.1904
  870MOL0     H17395   5.122   5.450   0.613 -0.7125 -1.3644 -1.8705
  870MOL0     H17396   5.270   5.550   0.611 -0.2844 -0.3854 -0.0832
  870MOL0     H17397   5.154   5.752   0.545  1.7569 -1.4828 -2.7226
  870MOL0     H17398   5.002   5.669   0.519 -0.0555 -1.2710  0.8358
  870MOL0     H17399   5.046   5.815   0.740  2.2600  1.1489 -2.4446
  870MOL0     H17400   5.137   5.675   0.787 -0.1642  0.2834 -0.1737
  870MOL0     H17401   4.780   5.658   0.604  1.1952 -0.7194  0.2637
  870MOL0     H17402   4.538   5.576   0.706 -2.3069 -0.8669  0.2421
  870MOL0     H17403   4.597   5.418   0.732  0.8047  0.8608 -1.3464
  870MOL0     H17404   4.516   5.606   0.954  0.1460  0.1080  0.2444
  870MOL0     H17405   4.546   5.442   0.981 -1.2840 -0.5618  0.2944
  870MOL0     H17406   4.362   5.431   0.768 -0.1861 -1.4080  0.3346
  870MOL0     H17407   4.303   5.538   0.885 -0.7660  0.5928 -0.4596
  870MOL0     H17408   4.323   5.355   1.072  0.5549  0.9169 -0.9030
  870MOL0     H17409   4.396   5.250   0.946 -0.1745 -0.0391 -2.8051
  870MOL0     H17410   4.189   5.526   1.055  0.1419  1.1175  0.9093
  870MOL0     H17411   3.966   5.667   1.267  1.2087 -3.9116  0.8873
  870MOL0     H17412   4.113   5.699   1.180 -0.2151 -0.5952  1.7370
  870MOL0     H17413   3.972   5.755   1.109  0.2963 -1.0014 -1.9143
  870MOL0     H17414   3.659   5.915   1.117  0.5147 -0.4112  3.2965
  870MOL0     H17415   3.443   6.021   1.157 -0.8546 -0.1641 -1.1476
  870MOL0     H17416   3.247   6.099   1.157 -1.3379  1.6695  1.0646
  870MOL0     H17417   3.202   6.034   1.001  0.9876  0.4557  0.1372
  870MOL0     H17418   2.980   6.120   1.063 -0.2283 -2.0415 -2.0535
  870MOL0     H17419   2.968   5.969   1.147 -1.6330  0.7047  0.5930
  870MOL0     H17420   3.053   6.231   1.249  1.8908 -0.7521 -4.0477
  870MOL0     H17421   3.091   6.097   1.343  0.7075 -0.5869 -1.3315
  870MOL0     H17422   2.864   6.224   1.379  1.3098  3.4374 -1.9562
  870MOL0     H17423   2.801   6.157   1.230 -1.5308 -2.5846  1.7708
  870MOL0     H17424   2.901   6.007   1.472  4.4997  0.0005 -3.2052
  870MOL0     H17425   2.844   5.925   1.325  1.9979 -0.9612  0.2748
  870MOL0     H17426   2.667   6.131   1.483 -1.1242  0.7271 -0.3898
  870MOL0     H17427   2.632   6.043   1.333 -1.4355 -1.8617  0.5568
  870MOL0     H17428   2.690   5.907   1.602 -1.2876  0.7823 -0.3075
  870MOL0     H17429   2.636   5.821   1.453 -3.8071  2.0752 -3.0377
  870MOL0     H17430   2.428   5.929   1.455 -1.4446 -2.6915  1.4741
  870MOL0     H17431   2.485   6.054   1.567  1.7127  0.0775 -1.4389
  870MOL0     H17432   3.242   5.651   1.121 -0.2750 -0.5046 -0.4897
  870MOL0     H17433   3.458   5.539   1.083 -1.8901 -0.3232  1.7457
  870MOL0     H17434   3.749   5.336   0.958 -0.6515  1.5916 -1.0750
  870MOL0     H17435   3.955   5.218   0.870 -2.8918 -0.0589 -1.2714
  870MOL0     H17436   5.847   5.139   0.096 -2.5830  1.3793  1.6891
  870MOL0     H17437   6.103   5.166   0.097 -1.4430  0.4212 -0.0416
  870MOL0     H17438   6.502   5.174   0.389 -0.1116  0.0455  0.3891
  870MOL0     H17439   6.728   5.106   0.450 -0.7797 -0.0877  0.1494
  870MOL0     H17440   6.933   5.031   0.408  1.9688  0.7803  1.1427
  870MOL0     H17441   6.888   4.956   0.571  3.5256  1.8217  1.4201
  870MOL0     H17442   7.101   4.827   0.399  0.4969 -3.5697  1.8343
  870MOL0     H17443   7.027   4.786   0.546  3.4449 -0.8874 -0.4372
  870MOL0     H17444   7.137   4.998   0.652 -0.2180  1.7185 -0.5422
  870MOL0     H17445   7.156   5.058   0.484  1.7219  0.7590  0.9428
  870MOL0     H17446   7.368   4.976   0.565  0.0217 -0.0923  1.8801
  870MOL0     H17447   7.318   4.874   0.429  0.3669 -0.6317  0.3011
  870MOL0     H17448   7.293   4.629   0.784 -0.4073 -1.9841 -1.2843
  870MOL0     H17449   6.647   4.711   0.295  1.7895  0.6608  2.3616
  870MOL0     H17450   6.423   4.773   0.245  0.6832 -0.8209  1.0528
  871MOL0     O17451   3.012   6.257   2.800 -0.4231  0.1345 -0.0760
  871MOL0     C17452   3.084   6.156   2.767  0.7485  0.2338  0.8945
  871MOL0     O17453   3.038   6.031   2.741  0.3469  0.2830 -0.2415
  871MOL0     C17454   2.905   6.016   2.715  0.5683  0.6189  0.3085
  871MOL0     C17455   2.818   6.088   2.638 -0.1027 -0.1858  0.0275
  871MOL0     C17456   2.683   6.055   2.615  0.9186  0.0418 -0.5603
  871MOL0     C17457   2.629   5.938   2.679  0.0407  0.0739 -0.0684
  871MOL0     O17458   2.502   5.911   2.663  0.0268  0.6914 -0.0302
  871MOL0     C17459   2.443   5.858   2.784 -0.3921 -0.0932 -0.7977
  871MOL0     C17460   2.298   5.898   2.785  0.2660  0.8905 -0.0189
  871MOL0     C17461   2.276   6.032   2.813 -0.0549 -0.6595  0.5619
  871MOL0     C17462   2.133   6.065   2.817 -0.4055  0.2502 -0.3407
  871MOL0     C17463   2.097   6.209   2.868  0.3467  0.0902 -0.1005
  871MOL0     C17464   1.944   6.242   2.846 -0.0359  0.7026 -0.4064
  871MOL0     C17465   1.913   6.383   2.884 -0.4087  0.1483 -0.2294
  871MOL0     C17466   1.847   6.398   3.028  0.2539 -0.4723  0.4773
  871MOL0     N17467   1.720   6.332   3.061 -0.4037  0.2110 -0.3848
  871MOL0     C17468   1.625   6.299   2.968  0.3241 -0.1563 -1.1787
  871MOL0     C17469   1.555   6.195   3.027  0.0126  0.5047  0.4469
  871MOL0     C17470   1.452   6.099   2.970 -0.0323 -0.4013 -0.1033
  871MOL0     C17471   1.342   6.038   3.060 -0.5412 -0.4445 -0.1161
  871MOL0     C17472   1.233   5.961   2.984 -0.1650 -0.5136 -0.2107
  871MOL0     C17473   1.200   5.845   3.073  0.1626 -0.3705  0.3623
  871MOL0     O17474   1.098   5.764   3.019  0.1981  0.8771 -0.4552
  871MOL0     C17475   0.964   5.810   3.034 -0.4600 -0.5263  0.1821
  871MOL0     C17476   0.921   5.940   3.082  0.4545 -0.1471 -0.7979
  871MOL0     C17477   0.782   5.965   3.094  0.0173 -0.4136  0.1026
  871MOL0     C17478   0.744   6.089   3.174 -0.6602  0.0640  0.3147
  871MOL0     C17479   0.691   5.874   3.057 -0.0373 -0.4308  1.2111
  871MOL0     C17480   0.553   5.887   3.085  0.2530  0.1673  1.1832
  871MOL0     O17481   0.458   5.858   2.982  0.2281 -0.5755 -0.5616
  871MOL0     C17482   0.341   5.925   3.001  1.2932 -0.0146  0.1352
  871MOL0     C17483   0.226   5.843   2.993 -0.1550  0.4564  0.5158
  871MOL0     C17484   0.094   5.892   3.000 -0.5442 -0.2856  0.3646
  871MOL0     C17485   0.080   6.028   3.028  0.5240 -0.0834  0.2879
  871MOL0     O17486  -0.045   6.093   3.044  0.2797 -0.0553 -0.3317
  871MOL0     C17487  -0.157   6.005   3.083  0.4547  0.1456  0.5474
  871MOL0     C17488  -0.285   6.092   3.081  0.3620 -0.3159  0.8475
  871MOL0     C17489  -0.407   6.013   3.118 -0.4170  0.2116 -0.5996
  871MOL0     C17490  -0.484   6.090   3.224 -0.6634 -0.1378 -0.9213
  871MOL0     C17491  -0.629   6.035   3.246  0.0942 -0.0957  0.1300
  871MOL0     C17492  -0.713   6.067   3.131  0.0303  0.2634 -0.2626
  871MOL0     C17493  -0.863   6.041   3.161  0.7013  1.1072  0.7372
  871MOL0     C17494  -0.956   6.046   3.041  0.4057  0.3470  0.0276
  871MOL0    Cl17495  -1.130   6.016   3.088 -0.2513  0.2124 -0.3769
  871MOL0     C17496   0.191   6.113   3.040 -1.1979  1.5566  0.6139
  871MOL0     C17497   0.323   6.063   3.024 -0.7668 -0.4539 -0.1269
  871MOL0     O17498   0.528   5.909   3.201  0.1084  0.1793 -0.1520
  871MOL0     C17499   0.728   5.767   2.989  1.0405  0.6106  0.1132
  871MOL0     C17500   0.863   5.734   2.972  0.2558 -1.1246 -0.4308
  871MOL0     N17501   1.608   6.166   3.153 -0.8155 -0.7527  0.7406
  871MOL0     N17502   1.702   6.247   3.165  0.4539 -0.6112  0.1368
  871MOL0     C17503   2.724   5.863   2.761  0.4276  0.2265 -0.0096
  871MOL0     C17504   2.856   5.904   2.779 -0.8100  0.5415  0.4625
  871MOL0     C17505   3.225   6.191   2.754  0.3401 -0.3857  0.4280
  871MOL0     C17506   3.314   6.096   2.703  0.1207  0.3885  0.2022
  871MOL0     C17507   3.450   6.104   2.711  0.3389 -0.3578 -0.0594
  871MOL0     C17508   3.505   6.222   2.761  0.2715  0.3152 -0.7135
  871MOL0     O17509   3.639   6.233   2.739  0.0209  0.1459 -0.2673
  871MOL0     C17510   3.710   6.324   2.827 -0.1610  0.4205 -0.0451
  871MOL0     C17511   3.862   6.315   2.808 -0.3304 -0.7396 -0.6047
  871MOL0     C17512   3.950   6.374   2.921 -0.1059 -1.2773 -0.6763
  871MOL0     C17513   4.101   6.349   2.885  0.1440 -0.3680 -0.0678
  871MOL0     C17514   4.170   6.411   2.994 -0.0655 -0.5037 -0.0173
  871MOL0     C17515   4.224   6.468   3.086 -0.5755 -0.0677 -0.6464
  871MOL0     C17516   3.422   6.328   2.805  0.1818 -0.6532  0.3280
  871MOL0     C17517   3.284   6.311   2.802  0.3098  0.7180 -0.1559
  871MOL0     H17518   2.846   6.183   2.594  0.2144  0.5105  1.6623
  871MOL0     H17519   2.618   6.114   2.551 -1.4448  0.3919  2.0019
  871MOL0     H17520   2.461   5.750   2.787  0.4344  0.0349  1.2406
  871MOL0     H17521   2.491   5.895   2.876  0.5988 -0.4599 -1.1450
  871MOL0     H17522   2.248   5.869   2.692 -2.9524  0.7309  1.5880
  871MOL0     H17523   2.252   5.844   2.869  1.3785  0.2489  0.1855
  871MOL0     H17524   2.328   6.061   2.906 -2.0222  3.0378  0.6937
  871MOL0     H17525   2.315   6.089   2.728 -0.8037 -1.0952 -0.0837
  871MOL0     H17526   2.092   6.054   2.716  1.7270 -3.2588 -0.9823
  871MOL0     H17527   2.077   5.998   2.884  0.3538 -1.0142 -0.9566
  871MOL0     H17528   2.132   6.217   2.972  0.6697  0.1242 -0.2112
  871MOL0     H17529   2.153   6.281   2.809  0.2015 -1.5752 -2.3814
  871MOL0     H17530   1.928   6.217   2.741 -0.2983 -0.7181 -0.0548
  871MOL0     H17531   1.881   6.169   2.900 -3.8007  1.4764 -3.2846
  871MOL0     H17532   2.005   6.441   2.890  1.9553 -3.3039  0.0221
  871MOL0     H17533   1.850   6.416   2.801  0.7376  0.8289 -0.8473
  871MOL0     H17534   1.827   6.504   3.050  1.4306 -0.8339  3.8557
  871MOL0     H17535   1.919   6.369   3.105  2.0448  0.4794 -0.7599
  871MOL0     H17536   1.583   6.344   2.879 -1.5675  2.0921  0.7029
  871MOL0     H17537   1.399   6.163   2.899  0.6814  1.1021  0.6778
  871MOL0     H17538   1.504   6.022   2.911  1.6847 -0.3653  1.2815
  871MOL0     H17539   1.276   6.118   3.095  0.0853 -0.0040  0.0742
  871MOL0     H17540   1.388   5.974   3.136  0.8843 -2.2811 -2.3937
  871MOL0     H17541   1.278   5.920   2.893 -1.4683 -1.8994 -0.2755
  871MOL0     H17542   1.150   6.029   2.969  0.7791  0.6023 -0.4944
  871MOL0     H17543   1.176   5.885   3.172  0.6630 -1.0371  0.7653
  871MOL0     H17544   1.289   5.786   3.096  0.1513 -0.7492 -0.5398
  871MOL0     H17545   0.989   6.014   3.123 -0.7180  0.7047 -0.3394
  871MOL0     H17546   0.829   6.157   3.186  0.2391 -1.1680  1.2590
  871MOL0     H17547   0.670   6.143   3.115 -1.0723 -1.9152 -1.0995
  871MOL0     H17548   0.710   6.059   3.274 -3.1868 -3.9277 -1.4857
  871MOL0     H17549   0.241   5.735   2.987 -3.8290 -0.2081  0.8088
  871MOL0     H17550   0.007   5.829   2.990 -2.4368  1.7667  2.6913
  871MOL0     H17551  -0.168   5.922   3.013 -1.2117  1.1422 -0.4269
  871MOL0     H17552  -0.131   5.967   3.183 -0.0410 -0.2312  0.5365
  871MOL0     H17553  -0.272   6.178   3.147  2.8301 -0.0871  0.1646
  871MOL0     H17554  -0.296   6.117   2.975  1.1061 -0.3910  0.7460
  871MOL0     H17555  -0.382   5.913   3.155  0.4263  0.9805  1.0297
  871MOL0     H17556  -0.458   6.001   3.022  3.9181  1.0596 -3.3044
  871MOL0     H17557  -0.429   6.059   3.313  0.4646 -3.3477 -2.5696
  871MOL0     H17558  -0.502   6.197   3.210  1.7325  0.4366 -0.1459
  871MOL0     H17559  -0.676   6.084   3.332 -0.1712  1.4800 -0.8693
  871MOL0     H17560  -0.641   5.929   3.270  1.3037 -0.2791 -0.0600
  871MOL0     H17561  -0.685   6.166   3.095  5.3946 -1.5462 -2.1312
  871MOL0     H17562  -0.695   5.994   3.051 -3.3899 -2.0007  0.7994
  871MOL0     H17563  -0.896   6.109   3.241 -0.4231  2.1791 -0.5874
  871MOL0     H17564  -0.864   5.937   3.196 -0.7961  0.3974 -1.2224
  871MOL0     H17565  -0.930   5.970   2.968 -1.5787  1.0430 -1.4957
  871MOL0     H17566  -0.957   6.143   2.990 -1.5556  0.3026 -0.0900
  871MOL0     H17567   0.169   6.219   3.051 -2.6872  1.2533  0.7988
  871MOL0     H17568   0.410   6.126   3.038 -2.1643  1.0812  2.2963
  871MOL0     H17569   0.654   5.696   2.956  0.8020  0.6730  0.5192
  871MOL0     H17570   0.903   5.645   2.925 -0.2163 -1.1061 -0.8742
  871MOL0     H17571   2.691   5.775   2.816 -0.7280  1.1926  0.8864
  871MOL0     H17572   2.918   5.842   2.843 -2.1580  2.4329  3.8563
  871MOL0     H17573   3.265   6.009   2.660  1.1286 -1.1810  2.0891
  871MOL0     H17574   3.518   6.023   2.690  0.5440 -1.1162  3.1209
  871MOL0     H17575   3.683   6.428   2.808 -1.7516  0.0780  0.1846
  871MOL0     H17576   3.692   6.290   2.930  0.3762  1.1760  0.3079
  871MOL0     H17577   3.886   6.370   2.717  2.7935  0.6579  0.8819
  871MOL0     H17578   3.892   6.211   2.795  0.9445 -0.6942  1.5047
  871MOL0     H17579   3.928   6.331   3.019 -0.5609 -1.0291 -0.6727
  871MOL0     H17580   3.928   6.479   2.938 -2.9208 -2.3401  4.0689
  871MOL0     H17581   4.144   6.396   2.796  1.5942 -1.1635  0.1876
  871MOL0     H17582   4.135   6.245   2.881 -0.0681 -0.5769  2.2717
  871MOL0     H17583   4.270   6.520   3.167  1.6268 -2.0284 -0.5277
  871MOL0     H17584   3.446   6.428   2.840 -0.9297 -0.2752  0.0468
  871MOL0     H17585   3.238   6.400   2.844 -0.6478 -0.7828  2.2417
  872MOL0     O17586   8.929  10.946   3.524 -0.7802  0.6460  0.8066
  872MOL0     C17587   8.975  10.830   3.532 -0.4669  0.3027  0.9608
  872MOL0     O17588   8.903  10.718   3.547 -0.0293 -0.2207  0.5896
  872MOL0     C17589   8.764  10.727   3.532  0.1403 -0.4510  1.2152
  872MOL0     C17590   8.691  10.698   3.413 -0.5897  0.9901  0.3685
  872MOL0     C17591   8.556  10.685   3.410  0.6164 -0.3531  0.0663
  872MOL0     C17592   8.479  10.698   3.525  0.3458  0.0831  0.3037
  872MOL0     O17593   8.341  10.673   3.536 -0.7455 -0.2016 -0.7155
  872MOL0     C17594   8.257  10.688   3.425  0.8583  0.7619  0.3606
  872MOL0     C17595   8.140  10.592   3.440 -0.5034  0.3870  0.1565
  872MOL0     C17596   8.027  10.588   3.341  0.6859  0.4159 -0.0306
  872MOL0     C17597   7.952  10.721   3.323  0.2017 -0.3819 -0.0133
  872MOL0     C17598   7.813  10.703   3.262  0.0559  0.2702  0.5079
  872MOL0     C17599   7.751  10.842   3.224 -0.1994 -0.0119 -0.1314
  872MOL0     C17600   7.611  10.834   3.159  1.1269  0.6227 -0.7730
  872MOL0     C17601   7.530  10.965   3.173 -0.1296  0.5447  0.1000
  872MOL0     N17602   7.399  10.994   3.106  0.4191  0.5264  0.5793
  872MOL0     C17603   7.274  11.012   3.168 -0.3951 -0.7405  0.9292
  872MOL0     C17604   7.193  11.031   3.060  1.0034 -0.2152  0.0352
  872MOL0     C17605   7.044  11.036   3.068  0.5944  0.3424 -0.0974
  872MOL0     C17606   6.977  11.075   2.942 -0.2335 -0.1776  0.8189
  872MOL0     C17607   6.827  11.074   2.954  0.4475  0.6512 -1.1123
  872MOL0     C17608   6.757  11.114   2.826 -0.2214  0.6889 -0.5010
  872MOL0     O17609   6.619  11.115   2.853  0.1259 -0.6321  0.0336
  872MOL0     C17610   6.540  11.187   2.765  0.4079 -0.2409  0.7083
  872MOL0     C17611   6.578  11.213   2.629  0.3065 -0.0600 -0.2914
  872MOL0     C17612   6.491  11.273   2.536  0.3031  0.4436  0.0799
  872MOL0     C17613   6.534  11.284   2.388 -0.2797  0.0475  0.1124
  872MOL0     C17614   6.370  11.331   2.579 -0.3937  0.3556  0.0450
  872MOL0     C17615   6.266  11.395   2.494 -0.3005 -0.8406 -0.2050
  872MOL0     O17616   6.185  11.479   2.561  0.5120  0.5876 -0.4780
  872MOL0     C17617   6.069  11.539   2.506 -0.0249  0.0658  0.1924
  872MOL0     C17618   6.037  11.662   2.574 -0.2835 -0.0784  0.2860
  872MOL0     C17619   5.923  11.727   2.537 -0.6435  0.0010 -0.0503
  872MOL0     C17620   5.837  11.678   2.442  0.3433 -0.2504  0.0473
  872MOL0     O17621   5.720  11.756   2.416 -0.5374 -0.7125 -0.4704
  872MOL0     C17622   5.625  11.697   2.332  0.5138 -0.5169 -1.0598
  872MOL0     C17623   5.501  11.783   2.363 -0.4210 -0.7003  0.4309
  872MOL0     C17624   5.382  11.720   2.271 -0.2067 -0.2986 -0.2793
  872MOL0     C17625   5.308  11.607   2.338  0.9907  0.2168 -1.3175
  872MOL0     C17626   5.235  11.541   2.221  0.7908 -0.1918  1.2920
  872MOL0     C17627   5.148  11.425   2.254  0.4410  0.7360  0.0452
  872MOL0     C17628   5.094  11.351   2.140 -0.0899  0.0191 -0.0980
  872MOL0     C17629   5.001  11.432   2.047  0.0001 -1.2574 -0.1609
  872MOL0    Cl17630   4.866  11.524   2.128 -0.2206 -0.1094 -0.3322
  872MOL0     C17631   5.874  11.554   2.377 -0.0734  0.0871 -0.8177
  872MOL0     C17632   5.987  11.483   2.414 -1.0489  1.1207  0.5673
  872MOL0     O17633   6.255  11.376   2.373  0.1802  0.4871  0.1770
  872MOL0     C17634   6.341  11.327   2.714 -0.1648  0.8108  0.7128
  872MOL0     C17635   6.419  11.248   2.799 -0.1231  0.2345 -0.4207
  872MOL0     N17636   7.270  11.052   2.939  0.2250 -0.1571  0.2220
  872MOL0     N17637   7.388  11.022   2.975 -0.1802  0.1187  0.1935
  872MOL0     C17638   8.546  10.720   3.642 -0.4148 -0.3550  0.2706
  872MOL0     C17639   8.686  10.735   3.645  0.2311 -0.2990  0.0364
  872MOL0     C17640   9.123  10.814   3.516  0.3868 -0.6584 -0.4930
  872MOL0     C17641   9.183  10.685   3.533  0.9033 -0.8226 -0.1489
  872MOL0     C17642   9.322  10.667   3.520  0.3504  0.0490  0.7074
  872MOL0     C17643   9.399  10.778   3.495  0.0835 -0.5065 -0.1747
  872MOL0     O17644   9.534  10.780   3.474  0.1745  0.2763  0.2474
  872MOL0     C17645   9.591  10.646   3.465 -0.0207 -0.4100 -0.1458
  872MOL0     C17646   9.739  10.674   3.451 -0.1854 -0.3487  1.3558
  872MOL0     C17647   9.793  10.751   3.568 -0.0751  0.1990 -1.2383
  872MOL0     C17648   9.928  10.712   3.619  0.7576 -0.0105  0.5371
  872MOL0     C17649  10.035  10.718   3.513  0.6884  0.5131  0.1510
  872MOL0     C17650  10.126  10.711   3.435  0.0958  1.0064  0.0987
  872MOL0     C17651   9.341  10.903   3.473 -0.5817  0.2266 -0.4302
  872MOL0     C17652   9.203  10.921   3.478 -0.1510 -0.8597 -0.1158
  872MOL0     H17653   8.746  10.667   3.324  1.2079 -0.3352  1.8580
  872MOL0     H17654   8.510  10.643   3.321  0.2716 -1.1134  0.5796
  872MOL0     H17655   8.220  10.790   3.414  0.5601  0.4169 -2.7916
  872MOL0     H17656   8.295  10.671   3.324 -2.1711  2.8162 -1.2854
  872MOL0     H17657   8.188  10.494   3.433  1.1964  1.2458 -0.6878
  872MOL0     H17658   8.100  10.609   3.540 -2.9103  1.5650 -0.9227
  872MOL0     H17659   8.059  10.547   3.245  1.0753 -3.0311  1.3921
  872MOL0     H17660   7.959  10.512   3.382  1.3105 -0.0574  0.1427
  872MOL0     H17661   7.941  10.770   3.420  3.7202  1.5261 -0.4072
  872MOL0     H17662   8.020  10.779   3.260  0.0735 -1.0671 -0.8134
  872MOL0     H17663   7.810  10.645   3.170  0.6905  1.8226 -0.5238
  872MOL0     H17664   7.749  10.653   3.335  0.0566  2.0710  1.8262
  872MOL0     H17665   7.745  10.902   3.315 -0.6205  1.3137 -1.0173
  872MOL0     H17666   7.810  10.902   3.155 -2.0512  0.7511 -1.1095
  872MOL0     H17667   7.616  10.805   3.054 -3.8728  2.4395 -1.7780
  872MOL0     H17668   7.552  10.754   3.205  1.4227  0.0632 -1.3517
  872MOL0     H17669   7.602  11.036   3.131  0.2334  0.6264  0.8490
  872MOL0     H17670   7.516  10.991   3.278 -0.9326  2.1444 -0.3671
  872MOL0     H17671   7.244  10.996   3.271 -1.6673 -1.4570  0.4726
  872MOL0     H17672   7.010  10.934   3.090 -0.5478  0.9035  0.8443
  872MOL0     H17673   7.020  11.099   3.154  1.9707 -0.7867  1.1698
  872MOL0     H17674   7.004  11.004   2.863  0.7877 -0.9879  1.8462
  872MOL0     H17675   7.013  11.173   2.910 -0.9719 -0.1289  0.1053
  872MOL0     H17676   6.799  11.152   3.026 -2.0726 -0.7585 -0.4687
  872MOL0     H17677   6.789  10.977   2.986 -2.5575  1.9016 -0.5359
  872MOL0     H17678   6.776  11.043   2.745  0.5217 -1.0431  1.1292
  872MOL0     H17679   6.792  11.214   2.797  0.1387  0.7895  0.2613
  872MOL0     H17680   6.678  11.176   2.606  0.1191 -1.2579  0.6810
  872MOL0     H17681   6.508  11.384   2.353  0.9127  0.9910  1.7503
  872MOL0     H17682   6.644  11.277   2.385 -0.0990  0.3949  3.0982
  872MOL0     H17683   6.496  11.194   2.340  4.1142 -1.2968 -1.3838
  872MOL0     H17684   6.109  11.699   2.646  0.6638  4.0532 -2.4198
  872MOL0     H17685   5.906  11.822   2.586  0.0185  0.2463 -0.2850
  872MOL0     H17686   5.654  11.707   2.227  0.9061  1.0853 -0.8125
  872MOL0     H17687   5.605  11.591   2.354  0.0489 -0.3314 -0.5737
  872MOL0     H17688   5.489  11.795   2.471  2.6116 -1.8341  0.9900
  872MOL0     H17689   5.520  11.882   2.319 -1.0778 -0.7175  0.0915
  872MOL0     H17690   5.434  11.681   2.184  1.5255 -0.8460  0.9528
  872MOL0     H17691   5.318  11.803   2.241  2.1112  1.4969 -0.4230
  872MOL0     H17692   5.374  11.533   2.384 -0.3271 -1.8849 -2.6407
  872MOL0     H17693   5.233  11.642   2.409  0.3277 -3.4001 -0.0552
  872MOL0     H17694   5.311  11.512   2.148 -1.4073  0.7851 -1.5498
  872MOL0     H17695   5.172  11.617   2.175  2.2707 -0.3586 -1.1766
  872MOL0     H17696   5.211  11.345   2.294  0.3287 -0.8623 -2.7152
  872MOL0     H17697   5.066  11.454   2.320 -2.3776 -0.0234 -2.8674
  872MOL0     H17698   5.026  11.273   2.176  1.1402 -0.6297  0.9035
  872MOL0     H17699   5.170  11.298   2.083 -1.0614  0.1259 -1.5619
  872MOL0     H17700   4.956  11.364   1.975 -1.4886 -2.4178  1.7856
  872MOL0     H17701   5.064  11.509   2.001  2.5115 -2.9932  0.1855
  872MOL0     H17702   5.821  11.526   2.286  0.0294  0.1710 -0.9027
  872MOL0     H17703   6.022  11.395   2.362  0.6681  1.9135  0.3190
  872MOL0     H17704   6.246  11.366   2.748 -0.7038 -0.0726  0.2416
  872MOL0     H17705   6.379  11.227   2.897 -3.1220 -1.7599 -1.9211
  872MOL0     H17706   8.483  10.715   3.731 -0.8272 -0.9726 -0.0427
  872MOL0     H17707   8.740  10.757   3.736 -0.2172  4.3143 -0.5783
  872MOL0     H17708   9.126  10.596   3.558  1.7060 -0.7399  2.2292
  872MOL0     H17709   9.366  10.569   3.532  2.6761  0.5617 -2.1822
  872MOL0     H17710   9.580  10.593   3.560  4.1542  2.6092  2.3755
  872MOL0     H17711   9.554  10.588   3.380 -0.3169  0.2355 -0.4694
  872MOL0     H17712   9.758  10.723   3.355 -0.1677 -1.6583  0.6740
  872MOL0     H17713   9.792  10.579   3.452  1.1187  0.3384  3.0639
  872MOL0     H17714   9.738  10.746   3.663  2.2866  0.4529  0.2305
  872MOL0     H17715   9.789  10.857   3.543  1.5268  0.3442 -0.9772
  872MOL0     H17716   9.914  10.610   3.655 -2.0664  0.4196  0.8675
  872MOL0     H17717   9.964  10.774   3.702  1.9922  1.3036 -0.9174
  872MOL0     H17718  10.199  10.704   3.357 -1.4078 -2.1172 -1.2376
  872MOL0     H17719   9.398  10.995   3.459  0.0187 -0.4017 -2.4421
  872MOL0     H17720   9.164  11.022   3.465  1.8681 -0.1707 -1.3284
  873MOL0     O17721   1.147   9.489   5.945 -0.5040  0.0103 -0.4247
  873MOL0     C17722   1.197   9.501   5.831  0.4445  0.5697 -0.0539
  873MOL0     O17723   1.148   9.426   5.722 -0.5071 -0.3075 -0.4059
  873MOL0     C17724   1.026   9.365   5.740 -0.7440 -1.4084 -0.3248
  873MOL0     C17725   1.013   9.227   5.748  0.3512 -0.4813  0.8632
  873MOL0     C17726   0.882   9.176   5.764  0.0037  0.4467 -0.1847
  873MOL0     C17727   0.771   9.264   5.792  1.0159  0.4232  0.9199
  873MOL0     O17728   0.655   9.201   5.829 -0.2886 -0.2061 -0.2089
  873MOL0     C17729   0.541   9.286   5.853  0.0689  0.6197 -0.0538
  873MOL0     C17730   0.418   9.201   5.864  0.6462 -0.0657  0.3212
  873MOL0     C17731   0.296   9.295   5.886 -0.0286  0.1400 -0.0076
  873MOL0     C17732   0.173   9.219   5.833 -0.3831 -0.0201 -0.1702
  873MOL0     C17733   0.047   9.308   5.846 -0.3375  0.3484 -0.0945
  873MOL0     C17734   0.027   9.360   5.702  0.1095  0.1510 -0.3429
  873MOL0     C17735  -0.057   9.489   5.700 -1.1086 -0.6216 -0.0247
  873MOL0     C17736  -0.191   9.500   5.770 -0.0923  0.4665  0.1278
  873MOL0     N17737  -0.299   9.421   5.693 -0.0977 -0.4200 -0.5155
  873MOL0     C17738  -0.397   9.491   5.631 -0.0456  0.5961  0.1841
  873MOL0     C17739  -0.492   9.392   5.601 -0.5118 -0.3460  0.3285
  873MOL0     C17740  -0.613   9.414   5.522  0.0589 -0.1275  1.3443
  873MOL0     C17741  -0.676   9.271   5.486  0.2169 -0.0753  0.6883
  873MOL0     C17742  -0.811   9.256   5.569 -0.4362  0.2129 -0.5935
  873MOL0     C17743  -0.928   9.346   5.517 -0.8031  0.4249  0.4408
  873MOL0     O17744  -1.059   9.302   5.545  1.1471 -0.4622  0.1751
  873MOL0     C17745  -1.167   9.369   5.484  0.1023  0.5081  0.1750
  873MOL0     C17746  -1.174   9.507   5.448 -0.4095  0.1788  0.2162
  873MOL0     C17747  -1.295   9.562   5.407  0.6654  0.5738  0.6856
  873MOL0     C17748  -1.290   9.716   5.390  0.3115  0.1178 -0.9513
  873MOL0     C17749  -1.410   9.485   5.381 -0.4799 -0.2547  0.7635
  873MOL0     C17750  -1.533   9.534   5.309 -0.3540 -0.1803 -0.0267
  873MOL0     O17751  -1.646   9.537   5.393 -0.0591  0.1693  0.7360
  873MOL0     C17752  -1.765   9.593   5.355 -0.3763  0.9064  0.2696
  873MOL0     C17753  -1.852   9.615   5.467  0.0269 -0.9242  0.3966
  873MOL0     C17754  -1.971   9.689   5.454 -0.9571 -0.9059  0.5320
  873MOL0     C17755  -2.020   9.721   5.320  0.3780  0.2791  0.4755
  873MOL0     O17756  -2.137   9.775   5.293 -0.3516 -0.2705 -0.3183
  873MOL0     C17757  -2.246   9.767   5.390 -0.2616  0.1370 -0.1755
  873MOL0     C17758  -2.376   9.826   5.337 -0.5298  0.9227  0.1090
  873MOL0     C17759  -2.433   9.743   5.221  0.2132 -1.1207  0.4408
  873MOL0     C17760  -2.535   9.820   5.131 -0.2296  0.2693  1.2063
  873MOL0     C17761  -2.679   9.788   5.176  0.1059  0.0086 -0.3230
  873MOL0     C17762  -2.781   9.870   5.103  0.0175  0.7429  0.4430
  873MOL0     C17763  -2.911   9.881   5.174  0.3094 -0.5894  0.1902
  873MOL0     C17764  -2.981   9.744   5.215 -0.3765 -0.0797  0.1180
  873MOL0    Cl17765  -3.115   9.763   5.333 -0.1162 -0.1298  0.6200
  873MOL0     C17766  -1.939   9.681   5.215 -1.1552  0.5378  0.2899
  873MOL0     C17767  -1.815   9.619   5.229 -1.2237  0.7841 -0.7633
  873MOL0     O17768  -1.524   9.589   5.199  1.1111 -0.3591  0.4149
  873MOL0     C17769  -1.401   9.348   5.409  0.3047  0.2016  0.3861
  873MOL0     C17770  -1.284   9.295   5.460 -0.4735  0.0560 -0.1165
  873MOL0     N17771  -0.442   9.277   5.658 -0.4522 -0.0636 -0.1188
  873MOL0     N17772  -0.326   9.296   5.714  0.0875 -0.0030  0.2546
  873MOL0     C17773   0.792   9.403   5.788 -0.6077  0.2389  0.1327
  873MOL0     C17774   0.922   9.454   5.762  0.0836  0.2328 -0.5143
  873MOL0     C17775   1.332   9.568   5.813 -0.6988  0.2586  0.2659
  873MOL0     C17776   1.393   9.576   5.684 -0.1288 -0.1364  0.4914
  873MOL0     C17777   1.527   9.618   5.672  0.8819 -0.0328  0.1629
  873MOL0     C17778   1.599   9.656   5.784  0.0873 -0.5364  0.8357
  873MOL0     O17779   1.726   9.710   5.794  0.1899 -0.2637  0.3128
  873MOL0     C17780   1.823   9.683   5.691 -0.2357 -0.7999  0.4950
  873MOL0     C17781   1.868   9.541   5.674  0.3431 -0.1073 -0.0530
  873MOL0     C17782   1.943   9.480   5.793  0.1155 -0.0670 -0.6428
  873MOL0     C17783   1.984   9.336   5.762 -0.2354  0.4015  0.4705
  873MOL0     C17784   2.051   9.288   5.882 -0.2630  0.1296 -0.2937
  873MOL0     C17785   2.120   9.249   5.976  0.5678 -0.4063 -0.5049
  873MOL0     C17786   1.534   9.660   5.906 -0.3160 -0.1677 -0.4463
  873MOL0     C17787   1.398   9.621   5.922 -0.0356 -0.0040  0.4552
  873MOL0     H17788   1.099   9.165   5.728  0.5360  0.1984 -0.5947
  873MOL0     H17789   0.867   9.069   5.768 -3.0494  0.8060  0.3033
  873MOL0     H17790   0.546   9.337   5.950  2.1743 -3.3023  2.1505
  873MOL0     H17791   0.520   9.357   5.772 -0.8421  0.8592  0.3815
  873MOL0     H17792   0.407   9.152   5.766  0.0902  1.2099 -0.2832
  873MOL0     H17793   0.422   9.121   5.938 -0.8599  1.2539  1.9153
  873MOL0     H17794   0.281   9.306   5.993  0.0236  1.6645 -0.1452
  873MOL0     H17795   0.313   9.392   5.840  0.8854 -0.6424 -1.4084
  873MOL0     H17796   0.192   9.183   5.731  0.7504 -0.6856  0.2540
  873MOL0     H17797   0.161   9.136   5.904 -0.8190  1.0149  0.9847
  873MOL0     H17798  -0.045   9.260   5.883 -0.2949  0.2715 -0.0890
  873MOL0     H17799   0.073   9.393   5.910  1.7619 -0.1447 -0.2455
  873MOL0     H17800   0.122   9.383   5.653 -0.1762 -1.5996 -1.8518
  873MOL0     H17801  -0.015   9.283   5.637  2.8175 -2.9704  1.3216
  873MOL0     H17802   0.008   9.575   5.715  3.0442 -2.4162 -4.7824
  873MOL0     H17803  -0.097   9.503   5.599 -0.1088  3.8158  0.0053
  873MOL0     H17804  -0.234   9.600   5.785 -1.2220 -0.1929  1.5111
  873MOL0     H17805  -0.189   9.461   5.872 -2.2153  0.1344  0.0889
  873MOL0     H17806  -0.396   9.594   5.597  0.9651  0.8588  0.9795
  873MOL0     H17807  -0.681   9.482   5.573  0.4703  1.5422 -0.2241
  873MOL0     H17808  -0.588   9.459   5.425 -0.2083 -4.1390 -0.8023
  873MOL0     H17809  -0.604   9.191   5.504  1.1884  1.1357  2.4725
  873MOL0     H17810  -0.691   9.260   5.378  3.0410  1.6273  0.0154
  873MOL0     H17811  -0.780   9.283   5.670  0.4793  1.0170 -1.0771
  873MOL0     H17812  -0.841   9.151   5.581 -0.6699  0.5596  2.8060
  873MOL0     H17813  -0.918   9.365   5.410 -2.1447 -1.0303  0.0137
  873MOL0     H17814  -0.908   9.440   5.569  0.6798 -0.5910  1.7998
  873MOL0     H17815  -1.087   9.567   5.470 -1.7535  2.5793 -0.6994
  873MOL0     H17816  -1.293   9.733   5.282  1.3200  1.6510 -0.7651
  873MOL0     H17817  -1.377   9.763   5.436  0.0191 -1.0076 -0.3086
  873MOL0     H17818  -1.205   9.762   5.441  0.1896  0.9644 -1.4838
  873MOL0     H17819  -1.803   9.607   5.564  1.3619 -1.3696 -0.3015
  873MOL0     H17820  -2.014   9.731   5.544 -1.8149  2.8050 -1.4034
  873MOL0     H17821  -2.262   9.662   5.415 -0.8461  0.3913  0.5554
  873MOL0     H17822  -2.229   9.828   5.479 -2.2319  0.2244  0.1842
  873MOL0     H17823  -2.451   9.834   5.416 -1.2259 -0.4172 -0.3942
  873MOL0     H17824  -2.365   9.929   5.302 -2.0758  0.7559 -0.9569
  873MOL0     H17825  -2.487   9.653   5.251  1.3090 -1.4175  1.5815
  873MOL0     H17826  -2.346   9.714   5.160  2.6472  2.3729  1.8870
  873MOL0     H17827  -2.509   9.926   5.121 -0.7998  0.3236  0.0671
  873MOL0     H17828  -2.528   9.771   5.033 -1.2546 -1.0127  1.7403
  873MOL0     H17829  -2.667   9.807   5.283  2.8792  0.9737 -0.7227
  873MOL0     H17830  -2.698   9.681   5.164  0.6821 -0.0530 -0.7408
  873MOL0     H17831  -2.755   9.976   5.107  1.5820  0.3332  2.0025
  873MOL0     H17832  -2.786   9.840   4.997 -0.5818  0.4880  0.5362
  873MOL0     H17833  -2.976   9.947   5.116  0.5608  1.3209  1.9536
  873MOL0     H17834  -2.909   9.944   5.263 -3.0800 -0.2218  0.1161
  873MOL0     H17835  -2.913   9.674   5.265  0.3149 -0.4158 -1.2436
  873MOL0     H17836  -3.019   9.693   5.125 -0.8361  0.2930  0.0998
  873MOL0     H17837  -1.979   9.692   5.114 -3.0047  3.5865  1.2333
  873MOL0     H17838  -1.751   9.585   5.148 -1.4733  1.6287 -1.3208
  873MOL0     H17839  -1.488   9.285   5.390  1.3028 -1.6423  1.6544
  873MOL0     H17840  -1.279   9.188   5.478  3.9627  0.3732  1.7588
  873MOL0     H17841   0.714   9.471   5.820 -1.9076 -2.2916  2.8537
  873MOL0     H17842   0.938   9.561   5.756 -2.4207  0.8732  1.9844
  873MOL0     H17843   1.344   9.550   5.590  1.5991 -0.1591 -0.4488
  873MOL0     H17844   1.574   9.609   5.575 -1.4679 -0.1224 -1.0467
  873MOL0     H17845   1.783   9.723   5.597 -3.0853  1.7399  2.5711
  873MOL0     H17846   1.907   9.749   5.715 -2.8908  3.2355 -0.3079
  873MOL0     H17847   1.929   9.534   5.583  0.2692 -1.9183 -0.0115
  873MOL0     H17848   1.784   9.472   5.666  2.2577 -3.0377  2.6389
  873MOL0     H17849   1.871   9.479   5.875  1.1200  0.8198  0.2837
  873MOL0     H17850   2.028   9.540   5.826 -1.0972  1.2407  0.2083
  873MOL0     H17851   2.037   9.336   5.666 -3.6506  0.4749 -1.5579
  873MOL0     H17852   1.895   9.274   5.745  0.2046 -0.1856  0.2510
  873MOL0     H17853   2.179   9.232   6.064  0.8559  3.3563  0.1948
  873MOL0     H17854   1.582   9.685   6.000  0.2495 -0.4801 -0.6468
  873MOL0     H17855   1.360   9.612   6.023  0.6719 -2.1480  0.5724
  874MOL0     O17856   4.012   2.579   3.553  0.4295  0.4031  0.3212
  874MOL0     C17857   4.055   2.560   3.438 -0.2495 -0.0176 -1.5516
  874MOL0     O17858   3.981   2.564   3.324 -0.8727  0.2068  0.5535
  874MOL0     C17859   3.842   2.580   3.343 -0.2238  0.2860  0.0649
  874MOL0     C17860   3.787   2.708   3.342  0.2330 -0.6867 -0.0690
  874MOL0     C17861   3.653   2.726   3.365  1.1107 -0.6298  0.2391
  874MOL0     C17862   3.559   2.624   3.396  0.4342  0.3934  0.7428
  874MOL0     O17863   3.424   2.632   3.407  0.3782 -0.1816  1.0896
  874MOL0     C17864   3.369   2.753   3.348 -0.3567 -0.3660 -0.2343
  874MOL0     C17865   3.228   2.771   3.346 -0.8489  0.4149 -0.3814
  874MOL0     C17866   3.171   2.898   3.301 -0.6587 -0.1677 -0.1509
  874MOL0     C17867   3.030   2.889   3.247  0.1715  0.8885  0.4370
  874MOL0     C17868   2.928   2.811   3.336 -0.3960 -0.5496 -0.1948
  874MOL0     C17869   2.860   2.887   3.453 -0.8749 -0.4824  0.6283
  874MOL0     C17870   2.786   3.011   3.393 -0.6748  0.1261 -0.0909
  874MOL0     C17871   2.773   3.130   3.488 -0.6254 -0.0515 -0.3429
  874MOL0     N17872   2.888   3.215   3.484 -0.1083 -0.3922 -0.5483
  874MOL0     C17873   3.018   3.184   3.517  0.3050 -0.4529  0.2171
  874MOL0     C17874   3.097   3.282   3.487 -0.7230 -0.3912  0.0190
  874MOL0     C17875   3.251   3.279   3.489 -0.4427  0.8941 -0.1361
  874MOL0     C17876   3.312   3.402   3.554  1.0350 -0.0685  0.4409
  874MOL0     C17877   3.469   3.389   3.557  0.4313  0.4438  0.0274
  874MOL0     C17878   3.535   3.408   3.421  0.0444  0.1940  0.9176
  874MOL0     O17879   3.674   3.466   3.432  0.1809  0.5758  0.6375
  874MOL0     C17880   3.775   3.385   3.442 -0.5282 -0.0570 -0.6661
  874MOL0     C17881   3.896   3.427   3.382  0.0241  0.3332  0.3451
  874MOL0     C17882   4.008   3.343   3.372 -0.1903  0.0193  0.3635
  874MOL0     C17883   4.121   3.396   3.273  0.8894  0.2459 -0.5363
  874MOL0     C17884   4.014   3.228   3.458  0.1326  0.3423 -0.0579
  874MOL0     C17885   4.135   3.139   3.474 -0.2341  0.2399  0.1087
  874MOL0     O17886   4.127   3.024   3.556  0.0968  0.7097 -0.1970
  874MOL0     C17887   4.251   2.970   3.579 -0.5732  0.2341 -0.1720
  874MOL0     C17888   4.348   3.023   3.660  0.0287  0.1399 -0.4432
  874MOL0     C17889   4.480   2.964   3.660 -0.2187  0.1116  1.0129
  874MOL0     C17890   4.513   2.859   3.579 -0.4451 -0.0529  0.7632
  874MOL0     O17891   4.651   2.817   3.581  0.2509  0.0829  0.4859
  874MOL0     C17892   4.705   2.723   3.485  0.2065  0.6699 -0.0778
  874MOL0     C17893   4.831   2.661   3.540  0.2917  0.1859 -0.5559
  874MOL0     C17894   4.947   2.766   3.551 -0.4330 -0.6194  0.8597
  874MOL0     C17895   5.082   2.707   3.585 -0.0780  0.6084 -0.1939
  874MOL0     C17896   5.189   2.810   3.556 -0.1441 -0.0637 -0.3859
  874MOL0     C17897   5.316   2.775   3.629 -0.2440  0.2552  0.3371
  874MOL0     C17898   5.426   2.859   3.571 -0.3119 -0.3887 -0.3679
  874MOL0     C17899   5.566   2.818   3.624 -0.2578  0.1248  0.7081
  874MOL0    Cl17900   5.696   2.896   3.531 -0.0395  0.3685  0.3849
  874MOL0     C17901   4.415   2.814   3.485  0.7699 -0.0607 -0.4298
  874MOL0     C17902   4.282   2.867   3.497  0.9717  0.3730  0.0202
  874MOL0     O17903   4.243   3.174   3.419 -0.1728  0.1460 -0.9137
  874MOL0     C17904   3.904   3.195   3.523  0.0678  0.1423 -0.3054
  874MOL0     C17905   3.777   3.264   3.510  0.4882  0.3317  0.3962
  874MOL0     N17906   3.016   3.374   3.418  0.2931  1.0272 -0.2342
  874MOL0     N17907   2.889   3.335   3.424 -0.5429  0.2989  0.3820
  874MOL0     C17908   3.617   2.494   3.402 -0.5667 -0.4566  0.1792
  874MOL0     C17909   3.752   2.465   3.373 -0.4443 -0.3952  0.2134
  874MOL0     C17910   4.197   2.519   3.416  0.7461 -0.6108 -0.4175
  874MOL0     C17911   4.242   2.479   3.286  0.4516 -0.0795 -0.4704
  874MOL0     C17912   4.373   2.434   3.272  0.2135  0.2300 -0.5847
  874MOL0     C17913   4.461   2.438   3.375  0.4150 -0.4078 -0.5887
  874MOL0     O17914   4.594   2.414   3.351 -0.5263  0.5037 -0.2130
  874MOL0     C17915   4.642   2.298   3.272  0.5705 -0.8870  0.5357
  874MOL0     C17916   4.796   2.288   3.244  0.5433  0.1609  0.9301
  874MOL0     C17917   4.875   2.275   3.372 -0.2476 -0.2742  0.8630
  874MOL0     C17918   5.031   2.297   3.358  0.6192 -0.0409  0.4084
  874MOL0     C17919   5.076   2.197   3.259  0.4833 -0.2463 -0.5790
  874MOL0     C17920   5.108   2.118   3.179 -1.4156 -0.3158  0.7290
  874MOL0     C17921   4.422   2.474   3.506 -0.3393  0.2004 -0.0763
  874MOL0     C17922   4.292   2.513   3.523  0.6719  0.4938 -0.4396
  874MOL0     H17923   3.849   2.797   3.339  0.6921 -1.0186 -2.1960
  874MOL0     H17924   3.610   2.825   3.378 -1.8995 -2.1354  3.0719
  874MOL0     H17925   3.416   2.834   3.405  2.2636 -1.9684  0.0680
  874MOL0     H17926   3.407   2.755   3.246  0.1696  1.8140 -0.0371
  874MOL0     H17927   3.181   2.693   3.287 -1.4243  0.0727  0.5044
  874MOL0     H17928   3.193   2.748   3.448 -3.4538  0.8304 -1.1115
  874MOL0     H17929   3.182   2.972   3.381 -1.5506  0.8660 -0.9594
  874MOL0     H17930   3.226   2.932   3.213 -0.5788 -0.6007 -0.2734
  874MOL0     H17931   3.002   2.994   3.232 -0.7479  1.1217  3.2536
  874MOL0     H17932   3.020   2.833   3.153 -1.7831  0.3148  0.9414
  874MOL0     H17933   2.844   2.781   3.272 -1.6130  1.0448  0.5794
  874MOL0     H17934   2.990   2.724   3.361  1.3637 -0.2567 -3.1117
  874MOL0     H17935   2.789   2.815   3.494 -2.7421  2.7336  3.6017
  874MOL0     H17936   2.936   2.926   3.522  0.6130  1.1002 -1.7759
  874MOL0     H17937   2.838   3.047   3.304  1.1563  1.2473  1.3509
  874MOL0     H17938   2.693   2.969   3.355 -0.3925  1.3524 -2.3366
  874MOL0     H17939   2.755   3.095   3.590 -1.8503 -2.0532 -1.1902
  874MOL0     H17940   2.691   3.192   3.451 -1.3873 -0.7833  0.0949
  874MOL0     H17941   3.049   3.087   3.555  1.2448 -0.8372 -1.4451
  874MOL0     H17942   3.281   3.182   3.530 -0.5400 -0.7323 -3.5398
  874MOL0     H17943   3.291   3.269   3.388  1.8612  1.0714  0.6812
  874MOL0     H17944   3.286   3.406   3.661  2.0809  2.7314  0.6745
  874MOL0     H17945   3.288   3.497   3.507 -0.1851 -0.3664  0.4377
  874MOL0     H17946   3.506   3.296   3.601  0.3835  1.0731  1.4896
  874MOL0     H17947   3.519   3.463   3.621 -0.1407 -0.6860  1.8492
  874MOL0     H17948   3.480   3.483   3.365 -0.2988 -0.7445 -0.0408
  874MOL0     H17949   3.529   3.312   3.369 -2.3156 -0.8542  2.9468
  874MOL0     H17950   3.890   3.529   3.344 -2.8456  1.0605  2.3848
  874MOL0     H17951   4.199   3.453   3.323 -0.7023  2.1177 -0.0627
  874MOL0     H17952   4.156   3.312   3.211  1.9457  0.8736 -0.8115
  874MOL0     H17953   4.068   3.462   3.204  1.8509  3.6135  1.7197
  874MOL0     H17954   4.314   3.114   3.709  0.4992  0.6618 -1.0637
  874MOL0     H17955   4.559   3.006   3.721 -0.8113  2.7379  0.0915
  874MOL0     H17956   4.632   2.642   3.472 -0.3041  0.5655  2.8728
  874MOL0     H17957   4.738   2.774   3.394  1.1992 -0.9502 -0.6725
  874MOL0     H17958   4.815   2.613   3.637  1.9820 -1.1048 -0.8713
  874MOL0     H17959   4.874   2.591   3.468 -0.2515 -0.0615 -0.6401
  874MOL0     H17960   4.918   2.839   3.627 -1.8330 -1.0954  0.8271
  874MOL0     H17961   4.940   2.812   3.452 -0.5158  2.9250  2.3885
  874MOL0     H17962   5.074   2.692   3.693  2.0609  2.7035  0.3396
  874MOL0     H17963   5.098   2.614   3.529 -2.6522  0.2158 -0.4065
  874MOL0     H17964   5.164   2.912   3.586  0.5102 -0.3649  1.3256
  874MOL0     H17965   5.194   2.800   3.447 -0.4187  0.5492 -0.4543
  874MOL0     H17966   5.310   2.788   3.738 -1.8949 -1.4497  0.4938
  874MOL0     H17967   5.335   2.669   3.609  1.1978  0.1739  1.8784
  874MOL0     H17968   5.395   2.962   3.592 -0.0317 -0.6252  1.3828
  874MOL0     H17969   5.432   2.850   3.462  0.7252  3.7230 -0.8397
  874MOL0     H17970   5.580   2.710   3.631  0.8074  0.0235 -1.7166
  874MOL0     H17971   5.574   2.857   3.725 -1.4601 -0.0290  0.8680
  874MOL0     H17972   4.443   2.744   3.407  0.3674 -0.3110 -0.3543
  874MOL0     H17973   4.202   2.837   3.430  0.7458  0.7370  0.1251
  874MOL0     H17974   3.902   3.107   3.586  1.6565  0.0166 -0.3699
  874MOL0     H17975   3.684   3.233   3.557  0.4490  2.3817  1.8080
  874MOL0     H17976   3.533   2.427   3.416 -0.8566  0.2275  2.0850
  874MOL0     H17977   3.801   2.368   3.373  0.2430 -0.0693 -0.8813
  874MOL0     H17978   4.190   2.481   3.191 -1.0871 -0.0735  0.3316
  874MOL0     H17979   4.400   2.423   3.167 -0.6395  2.1248 -1.0550
  874MOL0     H17980   4.604   2.208   3.321 -2.5106  0.3089  0.6354
  874MOL0     H17981   4.598   2.305   3.172  3.2623 -0.8473 -0.7137
  874MOL0     H17982   4.833   2.372   3.184  2.0315 -0.0324  1.5091
  874MOL0     H17983   4.806   2.195   3.186  2.3220  0.2965  0.9482
  874MOL0     H17984   4.856   2.180   3.422  0.4926 -0.1280  1.4424
  874MOL0     H17985   4.835   2.350   3.441 -1.8780 -1.1275  0.9034
  874MOL0     H17986   5.091   2.296   3.450  0.5557  4.3278  0.6982
  874MOL0     H17987   5.046   2.396   3.315  0.8203 -0.2915 -0.1011
  874MOL0     H17988   5.147   2.044   3.113  1.6029 -0.9597  3.0124
  874MOL0     H17989   4.481   2.489   3.596 -1.8858 -1.4492  1.3017
  874MOL0     H17990   4.265   2.535   3.626  0.0450  0.6141 -0.6220
  875MOL0     O17991   0.771   8.026   1.611 -0.4448 -0.1137 -0.2853
  875MOL0     C17992   0.773   8.146   1.589  0.8087 -0.4731  0.8257
  875MOL0     O17993   0.695   8.234   1.645  0.3505 -0.3738 -0.2949
  875MOL0     C17994   0.599   8.184   1.735 -0.2036 -0.4469  0.4143
  875MOL0     C17995   0.479   8.130   1.680  0.5252 -0.1759  0.0399
  875MOL0     C17996   0.367   8.102   1.767  0.4650  0.6174  0.3128
  875MOL0     C17997   0.382   8.125   1.902 -0.5124  0.3774  0.3132
  875MOL0     O17998   0.283   8.099   1.994  0.1993  0.4762  0.2221
  875MOL0     C17999   0.148   8.068   1.937 -0.3328 -0.4487  0.5738
  875MOL0     C18000   0.055   8.011   2.033 -0.0427 -0.0447  0.2864
  875MOL0     C18001   0.008   8.123   2.130 -0.3057 -0.7120  0.0053
  875MOL0     C18002  -0.095   8.082   2.227 -1.0642 -0.1402 -0.2179
  875MOL0     C18003  -0.177   8.215   2.275  0.7167  0.0589 -1.0849
  875MOL0     C18004  -0.300   8.181   2.358 -0.9282 -0.4017 -0.8309
  875MOL0     C18005  -0.369   8.303   2.417  0.5048  0.3101  0.0092
  875MOL0     C18006  -0.496   8.350   2.339 -0.1330 -0.1380 -0.2891
  875MOL0     N18007  -0.605   8.258   2.342  0.4883 -1.3244  0.4862
  875MOL0     C18008  -0.698   8.235   2.444  0.2811 -0.2425  1.2468
  875MOL0     C18009  -0.765   8.124   2.413  0.1385  0.7131 -0.7975
  875MOL0     C18010  -0.854   8.051   2.513  0.7529  0.1390 -0.8596
  875MOL0     C18011  -1.001   8.050   2.474  1.4523  0.5443 -0.2786
  875MOL0     C18012  -1.034   7.991   2.330  0.1917 -0.0944  0.0680
  875MOL0     C18013  -1.187   7.998   2.301 -1.1782  0.1937 -0.5444
  875MOL0     O18014  -1.260   7.892   2.363 -0.4652  0.6338 -0.2125
  875MOL0     C18015  -1.388   7.875   2.327 -0.2742 -0.1776  0.1042
  875MOL0     C18016  -1.443   7.753   2.360  0.0181  0.3081 -0.1156
  875MOL0     C18017  -1.572   7.715   2.321 -0.2687  0.1148  0.2824
  875MOL0     C18018  -1.618   7.590   2.383  0.2118  0.6695  0.0871
  875MOL0     C18019  -1.645   7.804   2.241  0.0622  0.0325  0.4971
  875MOL0     C18020  -1.782   7.776   2.187 -0.1509  0.1732 -0.5403
  875MOL0     O18021  -1.859   7.881   2.148  0.8203  0.2359  0.5869
  875MOL0     C18022  -1.978   7.866   2.081  0.0433  0.7653 -0.6154
  875MOL0     C18023  -1.991   7.878   1.940 -0.1877  0.9755  0.0954
  875MOL0     C18024  -2.118   7.877   1.881  0.1432  0.3091 -0.0417
  875MOL0     C18025  -2.232   7.841   1.957 -0.0925 -0.5050  0.9036
  875MOL0     O18026  -2.344   7.828   1.878 -0.2576  0.0587 -0.6530
  875MOL0     C18027  -2.472   7.816   1.949 -1.0501 -0.5751  0.0986
  875MOL0     C18028  -2.588   7.846   1.855 -0.3397  0.2970 -0.4411
  875MOL0     C18029  -2.716   7.825   1.928  0.0064 -0.1434 -0.7566
  875MOL0     C18030  -2.852   7.876   1.873 -0.8764  0.1080 -0.2727
  875MOL0     C18031  -2.853   8.021   1.836 -0.8714  1.0230  0.6510
  875MOL0     C18032  -2.995   8.075   1.843  0.7251  0.5008 -0.0350
  875MOL0     C18033  -3.020   8.224   1.823 -0.5323 -0.0946  0.4746
  875MOL0     C18034  -3.174   8.256   1.840 -1.2691 -0.5310 -0.2070
  875MOL0    Cl18035  -3.256   8.210   1.690 -0.0060  0.3733 -0.5986
  875MOL0     C18036  -2.224   7.824   2.097 -0.4975 -0.6491 -0.1918
  875MOL0     C18037  -2.102   7.840   2.159 -0.7540 -0.7594 -0.5561
  875MOL0     O18038  -1.819   7.662   2.180  0.0605 -0.6080 -0.2868
  875MOL0     C18039  -1.596   7.935   2.213  0.3676 -0.1760 -0.4962
  875MOL0     C18040  -1.469   7.966   2.260 -0.0760 -0.7114 -1.3818
  875MOL0     N18041  -0.720   8.078   2.293  0.0605  0.3806  0.0386
  875MOL0     N18042  -0.631   8.163   2.246  0.2844  0.1176 -0.0556
  875MOL0     C18043   0.499   8.170   1.954 -0.4608 -0.0931 -0.1147
  875MOL0     C18044   0.609   8.197   1.871  0.1358  0.4708  0.9641
  875MOL0     C18045   0.859   8.195   1.482 -0.1462 -0.2495 -0.0469
  875MOL0     C18046   0.837   8.314   1.418  0.3087 -0.1714 -0.0244
  875MOL0     C18047   0.916   8.361   1.309  1.1439  0.4155 -0.6284
  875MOL0     C18048   1.021   8.282   1.269 -0.4972 -0.4450 -0.0803
  875MOL0     O18049   1.100   8.304   1.155 -0.7017  0.2457 -0.6241
  875MOL0     C18050   1.233   8.350   1.190 -0.1361  0.2130 -0.4672
  875MOL0     C18051   1.346   8.283   1.118 -0.2775 -1.2791 -0.7104
  875MOL0     C18052   1.362   8.130   1.151 -0.3767 -0.9917 -1.0870
  875MOL0     C18053   1.387   8.095   1.304 -0.6027 -0.6202  0.2588
  875MOL0     C18054   1.528   8.122   1.335  0.0392  0.7795  1.0038
  875MOL0     C18055   1.647   8.118   1.345  0.1643 -0.8061  0.2876
  875MOL0     C18056   1.041   8.154   1.335 -0.3272 -0.2101 -0.2662
  875MOL0     C18057   0.969   8.119   1.438  0.5627 -0.7805  0.3787
  875MOL0     H18058   0.456   8.112   1.575  3.0952 -1.3047 -0.4040
  875MOL0     H18059   0.279   8.072   1.710  2.5893 -0.4656 -2.6866
  875MOL0     H18060   0.098   8.156   1.896  0.2299 -0.8702 -1.1031
  875MOL0     H18061   0.157   7.988   1.862  2.0565  1.1344 -0.9991
  875MOL0     H18062  -0.031   7.985   1.971 -0.7324  0.8295  0.8565
  875MOL0     H18063   0.092   7.919   2.078 -1.1041 -0.2080  0.8493
  875MOL0     H18064   0.098   8.143   2.188 -1.1005  0.8642  0.7644
  875MOL0     H18065  -0.011   8.213   2.071  4.0200 -0.9119 -2.0909
  875MOL0     H18066  -0.153   8.003   2.178 -0.4810  0.1804 -1.4639
  875MOL0     H18067  -0.044   8.048   2.317  0.5605  1.7295 -0.3774
  875MOL0     H18068  -0.125   8.286   2.339 -4.8731  2.3696  1.6098
  875MOL0     H18069  -0.207   8.269   2.185  1.8183  2.1539 -0.2675
  875MOL0     H18070  -0.376   8.135   2.295  0.3782  1.5735 -4.0680
  875MOL0     H18071  -0.268   8.111   2.436  0.1235 -0.1676 -1.0351
  875MOL0     H18072  -0.404   8.280   2.517 -2.5035  2.5345 -0.3930
  875MOL0     H18073  -0.304   8.392   2.418 -0.4353  1.0948 -2.3169
  875MOL0     H18074  -0.465   8.357   2.234 -0.1519 -0.6548 -0.3276
  875MOL0     H18075  -0.530   8.449   2.372  0.7182  0.1683 -0.2931
  875MOL0     H18076  -0.715   8.296   2.532 -1.0111 -0.2395  1.0185
  875MOL0     H18077  -0.816   7.950   2.532 -1.4968 -0.3301  1.6580
  875MOL0     H18078  -0.853   8.100   2.611  1.1765 -0.5550 -0.5135
  875MOL0     H18079  -1.040   8.152   2.477 -1.4688 -0.4834 -0.4910
  875MOL0     H18080  -1.048   7.987   2.550  0.1027  1.2685 -0.4782
  875MOL0     H18081  -0.986   7.893   2.328  3.4972  1.3858 -0.6342
  875MOL0     H18082  -0.979   8.056   2.261  0.5363  3.5718  3.3650
  875MOL0     H18083  -1.202   8.002   2.193  0.8320  3.1685 -0.8553
  875MOL0     H18084  -1.221   8.085   2.357  0.3571 -0.2849  1.2385
  875MOL0     H18085  -1.391   7.683   2.425 -0.4184  0.2888  0.2192
  875MOL0     H18086  -1.657   7.539   2.295  1.1637 -2.6115  1.4058
  875MOL0     H18087  -1.546   7.521   2.429 -1.0945  1.5051  3.7727
  875MOL0     H18088  -1.698   7.609   2.456 -0.3470 -1.0326 -0.0336
  875MOL0     H18089  -1.900   7.890   1.883  0.5326  2.8321  1.5438
  875MOL0     H18090  -2.135   7.896   1.775  0.2187  2.2224  0.2594
  875MOL0     H18091  -2.466   7.718   1.996 -0.8159  0.1129  1.5824
  875MOL0     H18092  -2.483   7.878   2.038 -2.0387 -2.5119  1.3967
  875MOL0     H18093  -2.580   7.950   1.823  1.9715  0.1493 -0.5668
  875MOL0     H18094  -2.599   7.784   1.765  0.1120 -1.9479  0.9675
  875MOL0     H18095  -2.703   7.876   2.024  1.1190 -1.0023 -0.4327
  875MOL0     H18096  -2.726   7.718   1.949 -2.7518 -0.2917 -2.3722
  875MOL0     H18097  -2.876   7.815   1.785  4.6548  0.0985 -2.1953
  875MOL0     H18098  -2.934   7.844   1.938 -0.5689  1.5122  0.8726
  875MOL0     H18099  -2.811   8.039   1.737 -2.4127  0.4324 -0.1413
  875MOL0     H18100  -2.783   8.072   1.903 -0.6845  2.9777 -0.9384
  875MOL0     H18101  -3.059   8.011   1.781 -1.0324 -0.4451  2.5676
  875MOL0     H18102  -3.027   8.057   1.946  3.6019 -3.0159  0.4701
  875MOL0     H18103  -2.989   8.244   1.720 -0.1444  0.3074  0.6655
  875MOL0     H18104  -2.955   8.277   1.894  0.8380 -1.7720  0.5447
  875MOL0     H18105  -3.184   8.363   1.861 -0.6817 -0.7834  1.5031
  875MOL0     H18106  -3.212   8.206   1.929 -2.2017  1.7596  0.7734
  875MOL0     H18107  -2.310   7.802   2.160 -0.8846 -2.6133 -1.3181
  875MOL0     H18108  -2.080   7.830   2.265  3.2527  2.0938 -0.8921
  875MOL0     H18109  -1.655   8.009   2.159  1.3816  2.3711  1.6663
  875MOL0     H18110  -1.446   8.071   2.244  0.8355 -0.3011  1.9128
  875MOL0     H18111   0.512   8.173   2.061 -1.4748 -1.8690  0.0926
  875MOL0     H18112   0.694   8.248   1.916 -0.7027  1.6606  1.2461
  875MOL0     H18113   0.752   8.376   1.440 -0.6144 -1.3253 -0.2540
  875MOL0     H18114   0.889   8.450   1.253 -2.6550 -0.2007 -0.0078
  875MOL0     H18115   1.237   8.456   1.167 -1.9385  0.4104 -0.0039
  875MOL0     H18116   1.237   8.344   1.300 -3.0485 -3.3702 -0.3586
  875MOL0     H18117   1.437   8.331   1.156 -0.1058 -2.6783  0.7823
  875MOL0     H18118   1.332   8.286   1.010  1.0959  2.7275 -0.9604
  875MOL0     H18119   1.454   8.096   1.103  2.0630  1.1006  1.7528
  875MOL0     H18120   1.273   8.075   1.118 -2.1231  1.4950 -0.7655
  875MOL0     H18121   1.362   7.992   1.331  1.8867 -1.2792  0.2994
  875MOL0     H18122   1.325   8.154   1.372  0.9089  1.0557  0.2245
  875MOL0     H18123   1.750   8.100   1.367  0.2777 -1.8553 -0.9783
  875MOL0     H18124   1.122   8.091   1.298 -1.8074 -1.5006 -1.4193
  875MOL0     H18125   0.983   8.019   1.478 -1.6117 -0.8520  1.0684
  876MOL0     O18126   5.906   6.747   9.153  0.1815 -0.0026  0.3555
  876MOL0     C18127   5.895   6.623   9.167 -0.2812 -0.3850 -0.8292
  876MOL0     O18128   5.792   6.547   9.133  0.2870 -0.1676 -0.1103
  876MOL0     C18129   5.683   6.612   9.074  0.4417  0.3345  0.2810
  876MOL0     C18130   5.552   6.605   9.128 -0.5927  0.2262 -0.6766
  876MOL0     C18131   5.437   6.656   9.073 -0.6072 -0.7423  0.3169
  876MOL0     C18132   5.451   6.740   8.969 -0.2847  0.4980 -0.0893
  876MOL0     O18133   5.333   6.804   8.933  0.2139  0.2026  0.4376
  876MOL0     C18134   5.351   6.934   8.879 -0.3543 -0.1620  0.1700
  876MOL0     C18135   5.213   6.993   8.839 -0.4267  0.0379  0.6978
  876MOL0     C18136   5.124   6.996   8.970  0.3423 -0.4857 -0.2483
  876MOL0     C18137   4.995   7.057   8.936  0.4483 -0.1436 -0.8629
  876MOL0     C18138   4.900   7.068   9.061 -0.4468  1.2244  0.2116
  876MOL0     C18139   4.760   7.118   9.037 -0.2866  0.0280  0.5930
  876MOL0     C18140   4.676   7.106   9.163 -0.4620 -0.8570  0.5544
  876MOL0     C18141   4.548   7.189   9.133  0.1332  0.9329 -0.6578
  876MOL0     N18142   4.455   7.164   9.246 -0.2108  0.8514  0.5129
  876MOL0     C18143   4.467   7.175   9.386 -0.3387 -0.4723  0.2486
  876MOL0     C18144   4.350   7.145   9.441 -0.0083 -0.9945 -0.1215
  876MOL0     C18145   4.320   7.140   9.586 -0.1257  0.2026  0.3639
  876MOL0     C18146   4.183   7.207   9.623  0.8021 -0.9903 -0.1090
  876MOL0     C18147   4.054   7.124   9.584 -0.5440 -0.0348  0.4728
  876MOL0     C18148   3.931   7.210   9.562 -0.2624  0.9978  0.0699
  876MOL0     O18149   3.929   7.297   9.669  0.4971 -0.2899  0.5914
  876MOL0     C18150   3.822   7.379   9.691 -0.3640  0.2921  0.1925
  876MOL0     C18151   3.834   7.482   9.787  0.0189 -0.2130  0.1404
  876MOL0     C18152   3.727   7.568   9.818  0.0203  0.2110 -0.0781
  876MOL0     C18153   3.741   7.652   9.947  0.3031  0.2650  0.3411
  876MOL0     C18154   3.601   7.551   9.743 -0.1380  0.0834 -0.1342
  876MOL0     C18155   3.469   7.624   9.772  0.4118 -0.2084 -0.0889
  876MOL0     O18156   3.371   7.634   9.674  0.5095 -0.2643  0.0434
  876MOL0     C18157   3.258   7.718   9.674 -0.5635 -0.2038  0.0113
  876MOL0     C18158   3.165   7.688   9.582  0.6461 -0.1318 -0.3709
  876MOL0     C18159   3.043   7.765   9.567  0.0583  0.1669 -0.5740
  876MOL0     C18160   3.006   7.866   9.661 -0.1735 -0.7152 -0.5551
  876MOL0     O18161   2.877   7.913   9.644 -0.0862  0.2231  0.5731
  876MOL0     C18162   2.824   8.007   9.734  0.6342  0.9365  0.4239
  876MOL0     C18163   2.724   8.101   9.661 -0.2924  0.3510  0.8724
  876MOL0     C18164   2.645   8.174   9.764 -0.6038  0.2009  0.0416
  876MOL0     C18165   2.600   8.322   9.736 -1.0124 -0.4069  0.1720
  876MOL0     C18166   2.537   8.389   9.856  0.0966  0.2504  0.8999
  876MOL0     C18167   2.512   8.537   9.843  0.2921  0.2401  0.0662
  876MOL0     C18168   2.454   8.609   9.965 -0.3634  0.2512 -0.2269
  876MOL0     C18169   2.556   8.660  10.063 -0.4791  0.5398 -0.0187
  876MOL0    Cl18170   2.642   8.533  10.159 -0.0720  0.0585 -0.1821
  876MOL0     C18171   3.096   7.896   9.764 -0.1557 -0.3041 -0.1398
  876MOL0     C18172   3.219   7.815   9.769 -0.1575  0.0126  0.0173
  876MOL0     O18173   3.454   7.652   9.891 -0.5786  0.5170  0.1457
  876MOL0     C18174   3.597   7.457   9.639 -0.3538  0.6940 -0.4950
  876MOL0     C18175   3.705   7.370   9.614 -1.1937  0.1929  1.1019
  876MOL0     N18176   4.262   7.129   9.339  0.2608 -0.1313  1.4821
  876MOL0     N18177   4.325   7.134   9.222  0.0950  0.1750  0.0438
  876MOL0     C18178   5.579   6.750   8.902 -0.3138  0.5613 -0.3892
  876MOL0     C18179   5.684   6.674   8.952 -0.1018  0.3024  0.1840
  876MOL0     C18180   6.011   6.549   9.241  0.2601  0.4993 -0.1304
  876MOL0     C18181   6.124   6.622   9.273 -0.5428  0.1201  0.5654
  876MOL0     C18182   6.239   6.562   9.321 -0.3901  0.0419 -0.3669
  876MOL0     C18183   6.237   6.430   9.368  0.4921 -0.3850  0.7485
  876MOL0     O18184   6.347   6.376   9.437  0.1629 -0.9039  0.1885
  876MOL0     C18185   6.347   6.240   9.482 -0.5487 -0.0615 -0.3331
  876MOL0     C18186   6.476   6.195   9.552 -0.5896 -0.5696  0.0974
  876MOL0     C18187   6.528   6.306   9.648  0.1578  0.2138 -0.3687
  876MOL0     C18188   6.681   6.293   9.673  0.1129 -0.1038  0.4103
  876MOL0     C18189   6.708   6.354   9.809 -0.1381  0.8352 -0.0955
  876MOL0     C18190   6.709   6.408   9.919  0.0493 -0.3244  0.3633
  876MOL0     C18191   6.117   6.358   9.346  0.1999  0.1180  0.5034
  876MOL0     C18192   6.012   6.408   9.281 -0.0292 -0.4778  0.2722
  876MOL0     H18193   5.555   6.553   9.224  2.1491  3.0391  0.9312
  876MOL0     H18194   5.354   6.659   9.142 -0.7767 -2.7424  0.2754
  876MOL0     H18195   5.394   6.983   8.967  0.0270 -0.4127  0.1249
  876MOL0     H18196   5.416   6.926   8.792 -1.4815  1.5369 -0.8882
  876MOL0     H18197   5.225   7.094   8.799 -0.0416 -0.3667 -0.2283
  876MOL0     H18198   5.165   6.931   8.762  0.0924 -0.1184  0.4938
  876MOL0     H18199   5.094   6.899   9.009  0.6617 -0.5783 -0.2263
  876MOL0     H18200   5.177   7.047   9.052 -1.0147 -0.3416  0.5804
  876MOL0     H18201   5.007   7.160   8.903 -2.1424  0.0435 -1.4149
  876MOL0     H18202   4.947   7.005   8.853  0.1556  2.2679 -2.2831
  876MOL0     H18203   4.901   6.967   9.105  0.4365  0.2813 -1.8245
  876MOL0     H18204   4.942   7.136   9.135  1.1614  0.1878  0.2887
  876MOL0     H18205   4.763   7.215   8.985  1.5130  0.9057  2.2141
  876MOL0     H18206   4.707   7.041   8.980 -5.3685  2.5984  1.2539
  876MOL0     H18207   4.644   7.003   9.180  1.8618 -1.8895 -0.8803
  876MOL0     H18208   4.737   7.150   9.243  1.1683  0.0595 -1.1219
  876MOL0     H18209   4.496   7.154   9.044 -2.4439 -1.7161  1.6692
  876MOL0     H18210   4.581   7.293   9.134  1.6302  0.5147  1.2202
  876MOL0     H18211   4.563   7.195   9.432 -0.5534  2.4359 -0.3280
  876MOL0     H18212   4.317   7.034   9.612  1.4475 -0.1729 -0.8268
  876MOL0     H18213   4.397   7.195   9.641 -2.4979  0.8121  3.3256
  876MOL0     H18214   4.171   7.314   9.606 -0.5371 -0.8583  1.4214
  876MOL0     H18215   4.174   7.213   9.732 -0.1688 -0.6961 -0.1995
  876MOL0     H18216   4.037   7.047   9.660 -0.8235 -0.1071  0.3366
  876MOL0     H18217   4.080   7.062   9.497 -0.2168  1.6548 -0.6760
  876MOL0     H18218   3.844   7.145   9.575  0.4475  0.4421  2.5827
  876MOL0     H18219   3.932   7.268   9.469 -3.4424  2.3430  0.7393
  876MOL0     H18220   3.933   7.504   9.824  0.4068 -1.1148 -0.3484
  876MOL0     H18221   3.672   7.623  10.027 -0.3010  3.2108  0.9978
  876MOL0     H18222   3.844   7.661   9.983  1.0705 -0.0055 -1.6497
  876MOL0     H18223   3.699   7.753   9.943 -0.2813  0.0120 -0.2788
  876MOL0     H18224   3.182   7.605   9.514 -1.1475 -2.7294  2.1202
  876MOL0     H18225   2.982   7.750   9.479 -1.5753 -0.9298  0.6894
  876MOL0     H18226   2.773   7.961   9.819 -0.3755  3.3129  1.1919
  876MOL0     H18227   2.902   8.069   9.778  0.3277  0.3687  1.7900
  876MOL0     H18228   2.789   8.172   9.611  0.3736 -0.1824  0.9642
  876MOL0     H18229   2.650   8.062   9.591  0.1214 -0.1276  0.6959
  876MOL0     H18230   2.707   8.186   9.853 -0.5892  1.2134 -0.0964
  876MOL0     H18231   2.547   8.128   9.783  0.6010 -2.9757 -0.8533
  876MOL0     H18232   2.688   8.386   9.723 -2.6552  2.5904  2.3751
  876MOL0     H18233   2.549   8.330   9.640  1.0337 -1.0909 -1.0282
  876MOL0     H18234   2.608   8.374   9.939 -0.9135 -2.0632  1.4460
  876MOL0     H18235   2.442   8.342   9.885 -0.8234  2.5256  1.7461
  876MOL0     H18236   2.611   8.579   9.828 -0.3548  2.1224  0.7546
  876MOL0     H18237   2.443   8.556   9.760 -1.1475 -2.5819  0.4690
  876MOL0     H18238   2.371   8.558  10.014 -0.7928  2.2644  1.3206
  876MOL0     H18239   2.406   8.697   9.922 -1.7560 -0.1574  0.4416
  876MOL0     H18240   2.495   8.713  10.137  0.7033  3.1663 -0.7926
  876MOL0     H18241   2.629   8.732  10.025 -0.2945  0.8673  0.9312
  876MOL0     H18242   3.083   7.967   9.845  1.9773  0.3558 -0.3087
  876MOL0     H18243   3.290   7.844   9.846 -0.1891  0.4203 -0.1027
  876MOL0     H18244   3.505   7.429   9.588 -0.5151  0.7281 -0.2285
  876MOL0     H18245   3.692   7.298   9.534  0.8300  0.2302  0.6779
  876MOL0     H18246   5.587   6.800   8.806 -3.9423 -0.6343 -1.4749
  876MOL0     H18247   5.773   6.663   8.890 -1.3998  0.5462 -1.8281
  876MOL0     H18248   6.122   6.731   9.266 -0.5661  0.0439 -0.9823
  876MOL0     H18249   6.327   6.624   9.335  1.2865 -1.6546 -2.6246
  876MOL0     H18250   6.267   6.227   9.555  0.8353  0.3114  1.3055
  876MOL0     H18251   6.332   6.172   9.398 -1.0486 -0.7197  0.2803
  876MOL0     H18252   6.551   6.172   9.477 -3.1107 -2.2901 -2.0948
  876MOL0     H18253   6.442   6.104   9.603 -2.6089 -1.2562 -2.2617
  876MOL0     H18254   6.470   6.293   9.740  1.3473 -0.0424  0.3652
  876MOL0     H18255   6.493   6.404   9.613 -0.0355 -0.0238 -0.8394
  876MOL0     H18256   6.737   6.357   9.605 -0.3043 -0.5957 -0.4103
  876MOL0     H18257   6.715   6.190   9.658  1.8949 -0.0520  3.3079
  876MOL0     H18258   6.704   6.465  10.009 -2.9415  0.8567 -0.4304
  876MOL0     H18259   6.108   6.257   9.385  0.9393  0.4671  1.6613
  876MOL0     H18260   5.925   6.345   9.267 -0.3662 -0.6518  2.6106
  877MOL0     O18261   4.497   1.950   3.358  1.0857 -0.2764 -0.2326
  877MOL0     C18262   4.512   1.955   3.241  0.0477 -0.0385 -0.3724
  877MOL0     O18263   4.412   2.005   3.155  0.0202 -0.2044 -0.6003
  877MOL0     C18264   4.281   2.045   3.188 -0.9665  0.4224  0.2241
  877MOL0     C18265   4.216   2.125   3.105 -0.3505 -0.6148  1.0513
  877MOL0     C18266   4.086   2.162   3.122 -0.2791 -0.2103 -0.1570
  877MOL0     C18267   4.017   2.125   3.240 -0.5494 -0.1669 -0.3354
  877MOL0     O18268   3.895   2.169   3.263  0.4359  0.2190  0.2022
  877MOL0     C18269   3.796   2.131   3.166 -1.3916  0.5890 -0.3299
  877MOL0     C18270   3.660   2.159   3.218 -0.1911 -0.0390 -0.3415
  877MOL0     C18271   3.616   2.051   3.315  0.4649  0.3028  0.9664
  877MOL0     C18272   3.470   2.083   3.356  0.0363 -0.0158  0.4015
  877MOL0     C18273   3.396   1.961   3.385  0.5152  0.7952 -0.6353
  877MOL0     C18274   3.248   1.984   3.434  0.2230 -0.0878 -0.4901
  877MOL0     C18275   3.199   1.849   3.481  0.0496 -0.0788 -0.4743
  877MOL0     C18276   3.065   1.871   3.553  0.4861 -0.5347 -0.3487
  877MOL0     N18277   2.950   1.893   3.466  0.2112 -0.1782  1.1442
  877MOL0     C18278   2.914   1.827   3.353  1.1848  0.2876  0.8452
  877MOL0     C18279   2.795   1.880   3.311 -0.0310  0.7964  0.4669
  877MOL0     C18280   2.712   1.854   3.183  0.0994 -0.2927 -0.3606
  877MOL0     C18281   2.571   1.810   3.218  0.8645  0.0963 -0.9018
  877MOL0     C18282   2.544   1.662   3.195 -0.4994 -0.0604  0.1974
  877MOL0     C18283   2.396   1.627   3.184  0.7689  0.4254 -0.3803
  877MOL0     O18284   2.386   1.496   3.126 -0.4084  0.0161  0.3602
  877MOL0     C18285   2.261   1.441   3.123 -0.1476  0.5854  0.1352
  877MOL0     C18286   2.231   1.298   3.135  0.2637 -0.6080 -0.1117
  877MOL0     C18287   2.101   1.250   3.126 -0.1136  0.2359  0.0898
  877MOL0     C18288   2.084   1.097   3.135  0.1197 -0.4465 -0.2360
  877MOL0     C18289   1.994   1.345   3.100 -0.4518 -0.7334 -0.2045
  877MOL0     C18290   1.851   1.309   3.082 -0.1016 -0.5317 -0.6147
  877MOL0     O18291   1.805   1.189   3.134 -0.6252  0.0642 -0.2466
  877MOL0     C18292   1.676   1.166   3.100  0.1367 -0.2799 -0.0752
  877MOL0     C18293   1.571   1.177   3.195 -0.2265  0.8528  0.5054
  877MOL0     C18294   1.439   1.147   3.155  0.2657 -0.9722  0.3306
  877MOL0     C18295   1.408   1.123   3.019  0.2232 -0.3819 -0.8680
  877MOL0     O18296   1.280   1.138   2.967  0.3940  0.1103 -0.2181
  877MOL0     C18297   1.173   1.111   3.054  0.0059  0.0136 -0.4313
  877MOL0     C18298   1.041   1.114   2.972 -1.0310 -0.0536 -0.2605
  877MOL0     C18299   0.909   1.102   3.044  0.3564 -0.4817  0.3312
  877MOL0     C18300   0.867   0.959   3.066  0.3572 -0.0467  0.0775
  877MOL0     C18301   0.752   0.963   3.177  0.0468  0.0264 -0.4957
  877MOL0     C18302   0.722   0.829   3.244 -0.6464  0.0701  0.2585
  877MOL0     C18303   0.671   0.728   3.139  0.5142  0.3842  0.3550
  877MOL0     C18304   0.591   0.605   3.202  0.3387 -0.9134 -0.0900
  877MOL0    Cl18305   0.445   0.661   3.298 -0.2222  0.1674 -0.0953
  877MOL0     C18306   1.515   1.114   2.929 -0.5579  0.5164 -0.4075
  877MOL0     C18307   1.646   1.134   2.968 -0.3335  0.3209 -0.2752
  877MOL0     O18308   1.785   1.387   3.015  0.1009 -0.0712  0.6157
  877MOL0     C18309   2.018   1.484   3.087  0.1369 -0.0130 -1.2383
  877MOL0     C18310   2.151   1.528   3.098  0.1467 -0.7320 -0.1297
  877MOL0     N18311   2.764   1.977   3.405  0.3154  0.4607  0.3517
  877MOL0     N18312   2.855   1.986   3.493  0.1619 -0.1700 -0.4126
  877MOL0     C18313   4.088   2.046   3.336  0.2710 -0.3025 -0.6837
  877MOL0     C18314   4.213   2.007   3.305 -0.2157  0.2035 -0.3317
  877MOL0     C18315   4.647   1.921   3.186 -0.2827  0.0056  0.4156
  877MOL0     C18316   4.665   1.880   3.049 -0.6164 -0.8688  0.1422
  877MOL0     C18317   4.785   1.832   2.994 -0.8696  0.7457 -0.8023
  877MOL0     C18318   4.896   1.818   3.087 -0.3419 -0.3751  0.0798
  877MOL0     O18319   5.020   1.783   3.034 -0.8157 -0.2086  0.1131
  877MOL0     C18320   5.058   1.826   2.907 -0.0836  0.6780  0.9374
  877MOL0     C18321   5.208   1.814   2.869 -0.3940 -0.9068  0.7164
  877MOL0     C18322   5.270   1.677   2.899  0.1636  0.5262 -0.1320
  877MOL0     C18323   5.214   1.576   2.796 -0.9284  0.2003 -0.1941
  877MOL0     C18324   5.268   1.605   2.660 -0.9923  0.2416  0.2087
  877MOL0     C18325   5.328   1.611   2.558  0.9556 -0.7099  0.5850
  877MOL0     C18326   4.887   1.859   3.224 -0.2567  0.3305 -0.0200
  877MOL0     C18327   4.763   1.911   3.268  0.3470  0.3372 -0.7292
  877MOL0     H18328   4.272   2.140   3.013  1.1618 -1.3208  1.8228
  877MOL0     H18329   4.035   2.220   3.045  0.9461  0.8068 -0.2414
  877MOL0     H18330   3.817   2.202   3.085  1.4651  2.3680  1.7690
  877MOL0     H18331   3.824   2.032   3.131  1.2981  0.6450  1.3357
  877MOL0     H18332   3.646   2.256   3.266 -1.6814 -0.6726  0.5864
  877MOL0     H18333   3.595   2.158   3.130 -0.1783 -1.0726 -0.3538
  877MOL0     H18334   3.626   1.962   3.253  0.6027  3.9497 -5.0139
  877MOL0     H18335   3.678   2.048   3.405 -0.2245 -0.1355  1.4426
  877MOL0     H18336   3.476   2.151   3.441  0.4853  0.2019  0.2018
  877MOL0     H18337   3.413   2.124   3.273 -3.0637 -4.3087  0.0884
  877MOL0     H18338   3.392   1.899   3.295 -1.2786 -1.0993  0.6401
  877MOL0     H18339   3.442   1.900   3.463  0.8691 -0.8628 -2.0790
  877MOL0     H18340   3.225   2.061   3.508 -1.6996 -0.0731 -1.0473
  877MOL0     H18341   3.188   2.014   3.347 -0.0149  1.6398  0.2238
  877MOL0     H18342   3.186   1.778   3.399  0.4646 -1.1429  0.3559
  877MOL0     H18343   3.277   1.802   3.542  1.4783  1.8536 -0.7085
  877MOL0     H18344   3.075   1.953   3.624 -2.6270 -1.1386  0.9406
  877MOL0     H18345   3.035   1.780   3.606 -3.9483  1.4921  1.0382
  877MOL0     H18346   2.975   1.749   3.307 -2.9465 -1.6706 -1.9490
  877MOL0     H18347   2.721   1.947   3.126  0.8266  0.8410  1.4791
  877MOL0     H18348   2.767   1.781   3.124  1.0379 -0.4288  0.6403
  877MOL0     H18349   2.499   1.876   3.169  1.3846 -0.2670 -2.1920
  877MOL0     H18350   2.544   1.822   3.324  0.2435 -1.3800 -0.8751
  877MOL0     H18351   2.597   1.605   3.271 -1.1852 -0.1112  0.6394
  877MOL0     H18352   2.584   1.637   3.096 -2.2646 -1.2514 -0.2502
  877MOL0     H18353   2.353   1.700   3.115  0.8545  3.7059  2.7681
  877MOL0     H18354   2.339   1.630   3.277 -1.2304  0.4743 -1.5475
  877MOL0     H18355   2.315   1.234   3.160  3.0690  2.5913 -0.6460
  877MOL0     H18356   2.025   1.079   3.225  2.8849  1.5511  2.1407
  877MOL0     H18357   2.026   1.070   3.046 -0.8457  1.4466 -0.2379
  877MOL0     H18358   2.182   1.049   3.130  0.3331  0.0689 -2.7613
  877MOL0     H18359   1.591   1.199   3.300 -0.4684 -0.4047  0.8368
  877MOL0     H18360   1.371   1.162   3.238  1.1323  1.6622  0.6420
  877MOL0     H18361   1.197   1.013   3.096 -0.8540 -0.5038 -1.1022
  877MOL0     H18362   1.177   1.186   3.133 -3.4546  0.8136 -0.8469
  877MOL0     H18363   1.041   1.213   2.925  0.0959  0.5967  1.0711
  877MOL0     H18364   1.037   1.047   2.885  1.4477  1.9438 -2.0434
  877MOL0     H18365   0.840   1.160   2.981  0.7197  0.8101  1.0950
  877MOL0     H18366   0.917   1.157   3.138 -0.5186 -0.1192  0.2071
  877MOL0     H18367   0.821   0.921   2.974 -0.1140  3.8185 -1.4839
  877MOL0     H18368   0.944   0.895   3.110 -0.9732 -0.3307  2.1512
  877MOL0     H18369   0.653   1.004   3.154 -1.0250 -0.5239  2.6949
  877MOL0     H18370   0.788   1.035   3.251 -1.4169  0.9515 -0.6382
  877MOL0     H18371   0.811   0.785   3.290 -0.4036  0.4026  0.1060
  877MOL0     H18372   0.654   0.843   3.329 -0.9830 -3.0287  0.6206
  877MOL0     H18373   0.758   0.680   3.093  1.2276 -1.7510  3.5166
  877MOL0     H18374   0.614   0.784   3.066 -0.8109 -0.1750  0.9276
  877MOL0     H18375   0.664   0.546   3.257  1.3971 -0.2522 -0.7570
  877MOL0     H18376   0.545   0.545   3.123  0.7105 -0.2623 -0.8163
  877MOL0     H18377   1.499   1.091   2.824 -1.1183 -1.7438  0.1192
  877MOL0     H18378   1.728   1.138   2.896  1.2272  1.5444  1.4695
  877MOL0     H18379   1.938   1.555   3.069 -0.1584 -0.6935 -2.7334
  877MOL0     H18380   2.160   1.636   3.091  0.9735 -0.7504  0.5325
  877MOL0     H18381   4.039   2.020   3.429 -0.7401  1.2515 -0.7417
  877MOL0     H18382   4.258   1.942   3.380 -2.2445 -1.3337 -0.3752
  877MOL0     H18383   4.573   1.878   2.992 -0.1442  3.5924 -1.1746
  877MOL0     H18384   4.798   1.811   2.889 -1.7323  1.1807 -0.9971
  877MOL0     H18385   4.995   1.767   2.840 -2.7978  1.8100  2.3589
  877MOL0     H18386   5.033   1.932   2.899 -2.2946  0.1260 -0.1631
  877MOL0     H18387   5.254   1.886   2.938  4.1888 -1.6273 -1.2382
  877MOL0     H18388   5.235   1.853   2.771  1.0835  1.7950  2.0592
  877MOL0     H18389   5.253   1.636   2.999  1.8699  1.5897  0.6351
  877MOL0     H18390   5.378   1.680   2.883  0.2565  0.1579  0.4277
  877MOL0     H18391   5.105   1.583   2.796 -0.9787 -0.2089  1.2690
  877MOL0     H18392   5.241   1.481   2.843  1.9075  1.7025  1.4709
  877MOL0     H18393   5.373   1.644   2.467 -0.2588  2.7785  1.1229
  877MOL0     H18394   4.977   1.845   3.283 -0.1906  3.6084  0.8473
  877MOL0     H18395   4.761   1.929   3.375  0.0646  0.2500 -0.7169
  878MOL0     O18396   8.705   0.921   2.655  1.1134 -0.3650 -0.1976
  878MOL0     C18397   8.739   0.841   2.739 -0.4791  1.0977  0.5387
  878MOL0     O18398   8.658   0.749   2.802 -0.9378 -0.4353  0.1556
  878MOL0     C18399   8.540   0.714   2.745 -0.0377  0.3655 -0.6402
  878MOL0     C18400   8.467   0.773   2.636 -0.5170  1.0333  0.7631
  878MOL0     C18401   8.347   0.712   2.605  0.3672  0.3395  0.2024
  878MOL0     C18402   8.275   0.621   2.694 -0.6062 -0.1717 -0.1829
  878MOL0     O18403   8.146   0.595   2.654  1.2987 -0.3602  0.8370
  878MOL0     C18404   8.057   0.501   2.725  0.4548 -0.0564  0.8567
  878MOL0     C18405   8.037   0.363   2.645  0.2746  0.1840 -0.5108
  878MOL0     C18406   7.992   0.357   2.500  0.2139 -0.1156 -0.5900
  878MOL0     C18407   7.848   0.405   2.493  0.7043 -0.8716 -0.0791
  878MOL0     C18408   7.797   0.446   2.358 -0.3641 -0.2131 -0.1877
  878MOL0     C18409   7.643   0.459   2.353 -0.0951 -0.6723  1.0446
  878MOL0     C18410   7.592   0.533   2.225 -0.3191  0.2505 -0.0311
  878MOL0     C18411   7.658   0.471   2.101 -0.5328 -0.3057 -0.0629
  878MOL0     N18412   7.576   0.483   1.984  0.4074  0.2987 -0.0140
  878MOL0     C18413   7.562   0.600   1.930 -0.3698  0.1803 -0.9738
  878MOL0     C18414   7.492   0.582   1.819  0.2157  1.1185  0.2867
  878MOL0     C18415   7.458   0.696   1.727  0.2555  0.4388 -0.4282
  878MOL0     C18416   7.307   0.713   1.745 -0.0973 -0.0614 -0.1625
  878MOL0     C18417   7.235   0.802   1.640  0.1910  0.1370 -0.0157
  878MOL0     C18418   7.292   0.942   1.643  0.1497  1.0716 -0.1214
  878MOL0     O18419   7.219   1.017   1.541  0.8260  0.2498 -0.2765
  878MOL0     C18420   7.096   1.068   1.574  0.4928  0.6553  1.1136
  878MOL0     C18421   7.039   1.161   1.479  0.4685  0.1437  0.1861
  878MOL0     C18422   6.910   1.221   1.498 -1.3479 -0.3697 -0.4152
  878MOL0     C18423   6.859   1.318   1.393 -0.5703  0.5970  1.3400
  878MOL0     C18424   6.839   1.185   1.617 -0.4353  0.2614  0.9748
  878MOL0     C18425   6.705   1.228   1.652  0.4954 -0.2184  0.8902
  878MOL0     O18426   6.630   1.148   1.744 -0.7036 -0.1516  0.1740
  878MOL0     C18427   6.501   1.189   1.778 -1.2334 -0.0483  0.1868
  878MOL0     C18428   6.464   1.326   1.808  0.2498  0.1676 -0.0978
  878MOL0     C18429   6.325   1.352   1.844 -0.4431 -0.6887  0.4625
  878MOL0     C18430   6.235   1.250   1.874 -0.1183 -0.5967  0.4842
  878MOL0     O18431   6.108   1.286   1.909  0.1613 -0.0159  0.3688
  878MOL0     C18432   6.011   1.182   1.919  0.4950  0.9007  0.6982
  878MOL0     C18433   5.872   1.259   1.927 -0.7098 -0.1755 -0.0374
  878MOL0     C18434   5.876   1.362   2.045 -0.0198 -0.2524 -0.2330
  878MOL0     C18435   5.932   1.317   2.186  0.1101 -0.0287 -0.6488
  878MOL0     C18436   5.902   1.415   2.304  0.7742 -0.5074 -0.1831
  878MOL0     C18437   5.753   1.393   2.350  0.2801 -1.0242 -0.3158
  878MOL0     C18438   5.706   1.495   2.454  0.1114 -0.2456  0.3262
  878MOL0     C18439   5.689   1.626   2.390 -0.3375 -0.7274 -0.6485
  878MOL0    Cl18440   5.589   1.607   2.243  0.1362  0.6248  0.4989
  878MOL0     C18441   6.277   1.123   1.865 -0.9692 -0.2155  0.1977
  878MOL0     C18442   6.415   1.092   1.827  0.4732  0.4661 -0.7274
  878MOL0     O18443   6.667   1.332   1.606 -0.1815 -0.4558 -0.0993
  878MOL0     C18444   6.891   1.095   1.705 -0.9119  0.2138 -0.6656
  878MOL0     C18445   7.019   1.040   1.689  0.2846  0.9195 -0.2086
  878MOL0     N18446   7.486   0.447   1.787  0.0206 -0.1691  0.4039
  878MOL0     N18447   7.542   0.390   1.887  0.7998 -0.6597 -0.0580
  878MOL0     C18448   8.346   0.567   2.803 -0.0871 -0.2879  0.2098
  878MOL0     C18449   8.477   0.610   2.824  0.0438  0.3035 -0.0727
  878MOL0     C18450   8.881   0.817   2.759  0.1621  0.3687 -0.9310
  878MOL0     C18451   8.973   0.826   2.652  0.1618 -0.7141  0.9381
  878MOL0     C18452   9.115   0.821   2.678 -0.1198 -0.9461  0.2462
  878MOL0     C18453   9.164   0.805   2.814 -1.0348 -0.6448  0.0230
  878MOL0     O18454   9.299   0.797   2.824  0.2908 -0.5412 -0.1672
  878MOL0     C18455   9.355   0.740   2.938 -0.4006  0.0031 -0.0356
  878MOL0     C18456   9.376   0.826   3.064  0.6537  0.0526  1.2024
  878MOL0     C18457   9.471   0.762   3.160  0.3163  0.6126 -0.1042
  878MOL0     C18458   9.484   0.833   3.297  0.6882  0.6649 -0.9364
  878MOL0     C18459   9.352   0.849   3.362 -0.6149 -0.5832 -0.2187
  878MOL0     C18460   9.249   0.843   3.419  0.5610  0.6011 -0.7007
  878MOL0     C18461   9.073   0.794   2.907  0.6543 -0.0826 -0.2793
  878MOL0     C18462   8.929   0.801   2.886 -0.1757  1.7833 -0.4243
  878MOL0     H18463   8.488   0.843   2.557  2.1978 -3.1277 -2.6121
  878MOL0     H18464   8.290   0.755   2.524 -1.1870  0.1639  1.1751
  878MOL0     H18465   8.098   0.476   2.823  1.4865 -2.8491 -0.1745
  878MOL0     H18466   7.958   0.543   2.742  1.3669  1.1926  3.6089
  878MOL0     H18467   8.136   0.318   2.656  0.4281  0.2120 -1.6400
  878MOL0     H18468   7.966   0.296   2.693 -2.9208  2.2637 -1.9839
  878MOL0     H18469   8.051   0.425   2.438  0.3426  1.9515  1.6405
  878MOL0     H18470   7.997   0.249   2.482 -1.1744 -0.3081  0.0331
  878MOL0     H18471   7.771   0.343   2.538 -0.4641  0.4034 -0.2502
  878MOL0     H18472   7.842   0.497   2.552  0.6172 -0.6262 -0.4705
  878MOL0     H18473   7.825   0.550   2.337  1.1185 -0.3344  1.0229
  878MOL0     H18474   7.838   0.382   2.280  2.9339  2.7171 -1.1266
  878MOL0     H18475   7.601   0.359   2.367 -0.4454 -0.5827  0.6723
  878MOL0     H18476   7.606   0.522   2.434 -1.5661  1.5179 -1.1625
  878MOL0     H18477   7.487   0.505   2.215 -0.2974 -1.1987  2.8218
  878MOL0     H18478   7.606   0.640   2.239  0.6723 -0.1642  3.0595
  878MOL0     H18479   7.671   0.366   2.128  0.6254  0.4028  2.4332
  878MOL0     H18480   7.757   0.515   2.082 -0.1674 -1.7635 -1.8353
  878MOL0     H18481   7.599   0.692   1.974 -3.5618  1.7189 -1.1898
  878MOL0     H18482   7.508   0.787   1.763 -1.8175  1.1913  0.7189
  878MOL0     H18483   7.471   0.671   1.621 -1.3779 -2.0673 -0.1199
  878MOL0     H18484   7.283   0.751   1.845 -0.9735  0.6722 -0.6431
  878MOL0     H18485   7.261   0.614   1.734  0.5012 -0.0893 -3.4041
  878MOL0     H18486   7.131   0.815   1.670 -0.2918  0.6957 -1.8045
  878MOL0     H18487   7.256   0.760   1.541  0.9622 -1.5631  0.8102
  878MOL0     H18488   7.397   0.936   1.615  0.1298  2.4019 -0.5707
  878MOL0     H18489   7.279   0.987   1.742 -1.7821 -2.4305  1.3993
  878MOL0     H18490   7.103   1.170   1.392  1.5149 -0.2752  0.8859
  878MOL0     H18491   6.831   1.409   1.446 -0.9713  0.9953  0.4745
  878MOL0     H18492   6.935   1.339   1.317 -0.5397 -0.8069  0.9526
  878MOL0     H18493   6.779   1.266   1.340  2.3311 -2.4087 -0.5637
  878MOL0     H18494   6.528   1.413   1.794  1.5336 -0.5886  0.9271
  878MOL0     H18495   6.289   1.454   1.846 -1.1294 -0.9227  2.9315
  878MOL0     H18496   6.017   1.112   1.835  0.9847 -0.0124  1.4737
  878MOL0     H18497   6.028   1.119   2.007  4.2007  0.2187 -0.3359
  878MOL0     H18498   5.850   1.308   1.831  0.1436  1.3895  0.5277
  878MOL0     H18499   5.795   1.187   1.956  1.5609 -0.8135  5.9148
  878MOL0     H18500   5.777   1.404   2.063  0.9259  1.4132  1.5133
  878MOL0     H18501   5.935   1.449   2.012  0.8023 -1.9754 -3.6918
  878MOL0     H18502   5.900   1.215   2.208 -1.3446  0.5278 -0.0540
  878MOL0     H18503   6.041   1.318   2.177  0.1171 -3.3567 -2.4609
  878MOL0     H18504   5.918   1.519   2.271  0.0985 -1.2482 -3.1364
  878MOL0     H18505   5.970   1.407   2.389  2.4221 -0.4967 -1.4288
  878MOL0     H18506   5.680   1.394   2.269 -1.9018  0.0681  1.5514
  878MOL0     H18507   5.736   1.295   2.394 -2.8703 -1.9739 -3.2690
  878MOL0     H18508   5.778   1.505   2.536 -0.6363 -3.2127  1.4637
  878MOL0     H18509   5.613   1.463   2.501  0.7872 -0.5433  1.5123
  878MOL0     H18510   5.790   1.661   2.366 -1.4135  1.0008 -3.0223
  878MOL0     H18511   5.652   1.701   2.461  0.2637 -0.7406 -0.3125
  878MOL0     H18512   6.219   1.036   1.895  0.9918 -1.5700  0.2963
  878MOL0     H18513   6.443   0.988   1.837  1.4122  0.5756 -1.9334
  878MOL0     H18514   6.833   1.072   1.793  0.0101  3.0163  0.8045
  878MOL0     H18515   7.066   0.989   1.773 -1.5619 -1.1245 -0.3477
  878MOL0     H18516   8.306   0.486   2.864  2.9096 -2.3042 -0.2300
  878MOL0     H18517   8.525   0.580   2.917 -0.1656  1.6933  0.5001
  878MOL0     H18518   8.936   0.845   2.552  1.5130 -1.4996  0.2546
  878MOL0     H18519   9.174   0.817   2.587 -0.2596  1.3316  0.0018
  878MOL0     H18520   9.293   0.651   2.955 -0.8392  0.0600 -1.2054
  878MOL0     H18521   9.456   0.708   2.910 -0.5641  1.9232 -3.4123
  878MOL0     H18522   9.280   0.842   3.113 -0.2137  0.7207 -0.6281
  878MOL0     H18523   9.409   0.925   3.033  1.5187 -1.1828 -2.3101
  878MOL0     H18524   9.573   0.747   3.123  1.4088  1.7285  2.2228
  878MOL0     H18525   9.426   0.667   3.191  2.2016 -0.1850  0.3460
  878MOL0     H18526   9.542   0.925   3.283  2.8720 -0.9786 -3.8486
  878MOL0     H18527   9.551   0.767   3.351  0.1489 -0.7979 -1.9855
  878MOL0     H18528   9.151   0.847   3.463  0.1933 -3.1586 -0.8550
  878MOL0     H18529   9.086   0.788   3.015  0.9373  0.2596 -0.2945
  878MOL0     H18530   8.861   0.773   2.965 -0.3935  2.0203 -0.5293
  879MOL0     O18531   0.652  11.190   7.942 -0.7066 -0.5964  0.7950
  879MOL0     C18532   0.676  11.093   8.016  0.4542  0.4572 -0.1715
  879MOL0     O18533   0.606  10.973   8.018  0.0257  0.9838 -0.6555
  879MOL0     C18534   0.496  10.959   7.938  0.0552  0.8931 -0.7154
  879MOL0     C18535   0.399  11.054   7.937 -0.6851  0.2876  0.2537
  879MOL0     C18536   0.278  11.044   7.863  0.1057 -0.1441 -0.1048
  879MOL0     C18537   0.248  10.937   7.783 -0.3918  0.2862  0.3091
  879MOL0     O18538   0.125  10.913   7.719 -0.1596 -0.0590 -0.7507
  879MOL0     C18539   0.007  10.979   7.764  0.4246  0.5254  0.4505
  879MOL0     C18540  -0.112  10.880   7.773  0.5111  1.1880  0.0376
  879MOL0     C18541  -0.217  10.937   7.870 -0.2970  0.1097  0.3180
  879MOL0     C18542  -0.331  10.833   7.904  1.1430 -0.8622 -1.3565
  879MOL0     C18543  -0.421  10.900   8.010 -0.7484  0.0556 -0.0526
  879MOL0     C18544  -0.564  10.836   8.012 -0.3882 -0.1422 -0.7712
  879MOL0     C18545  -0.643  10.910   8.115  0.9559  0.0262 -0.1475
  879MOL0     C18546  -0.612  10.884   8.269  0.2217 -0.5488 -0.1326
  879MOL0     N18547  -0.696  10.780   8.323 -0.1168 -0.5658  0.0802
  879MOL0     C18548  -0.819  10.807   8.383  0.1590 -0.4878  0.7302
  879MOL0     C18549  -0.846  10.691   8.441  0.4398  0.7059  0.4347
  879MOL0     C18550  -0.967  10.650   8.525 -0.7123  0.0910  0.0644
  879MOL0     C18551  -1.092  10.616   8.440  0.9240 -0.4845 -0.2434
  879MOL0     C18552  -1.173  10.733   8.369 -0.2934  0.0340 -0.1217
  879MOL0     C18553  -1.294  10.686   8.294 -0.3228 -0.2350 -0.6455
  879MOL0     O18554  -1.379  10.624   8.385 -0.0807 -0.0721 -0.5503
  879MOL0     C18555  -1.509  10.589   8.346 -0.7706  0.7713  0.5261
  879MOL0     C18556  -1.563  10.640   8.226 -0.5600  0.7739 -0.1995
  879MOL0     C18557  -1.702  10.611   8.196  0.0658  0.1684  0.2428
  879MOL0     C18558  -1.753  10.676   8.067 -0.0787  0.6119 -0.1943
  879MOL0     C18559  -1.774  10.525   8.281 -0.8154 -0.3680  0.5552
  879MOL0     C18560  -1.922  10.518   8.265  0.1144  0.2104 -0.0300
  879MOL0     O18561  -1.967  10.493   8.137 -0.1681 -0.4643 -0.4542
  879MOL0     C18562  -2.107  10.483   8.117 -0.5285  0.2811  0.1500
  879MOL0     C18563  -2.167  10.361   8.123 -0.2324 -0.5924 -0.0384
  879MOL0     C18564  -2.306  10.354   8.104  0.2678 -1.2990  0.1733
  879MOL0     C18565  -2.388  10.466   8.081  0.2144 -0.0995  0.0525
  879MOL0     O18566  -2.514  10.432   8.055  0.9615  0.3778  0.7194
  879MOL0     C18567  -2.607  10.540   8.042  0.3007  0.3799 -0.8677
  879MOL0     C18568  -2.749  10.483   8.016 -0.0217 -0.5967  0.0102
  879MOL0     C18569  -2.852  10.589   8.019 -0.1008 -0.4151 -0.0160
  879MOL0     C18570  -2.991  10.528   7.999 -0.2143  0.3796 -0.0719
  879MOL0     C18571  -3.101  10.635   7.996 -0.6245  0.8988 -0.3329
  879MOL0     C18572  -3.103  10.712   7.864 -1.3848  0.2565  0.2087
  879MOL0     C18573  -3.219  10.802   7.836 -0.5710  0.2544 -0.0920
  879MOL0     C18574  -3.347  10.724   7.811 -0.2299  0.5593  0.7670
  879MOL0    Cl18575  -3.476  10.834   7.746 -0.3194  0.4420 -0.6684
  879MOL0     C18576  -2.321  10.590   8.086 -0.0538 -0.3396  0.2037
  879MOL0     C18577  -2.179  10.601   8.101  0.9213  0.0574 -0.4478
  879MOL0     O18578  -1.988  10.515   8.369  0.3822 -0.8808  0.3587
  879MOL0     C18579  -1.710  10.477   8.397  0.5751 -0.4123 -0.1163
  879MOL0     C18580  -1.582  10.506   8.428 -0.3947 -0.0612 -0.3200
  879MOL0     N18581  -0.736  10.612   8.432 -0.4938 -0.9574 -1.2208
  879MOL0     N18582  -0.649  10.657   8.357 -0.0197 -0.5962  0.0695
  879MOL0     C18583   0.354  10.836   7.770 -1.0669 -0.0709  0.7353
  879MOL0     C18584   0.471  10.850   7.850  0.0465 -0.2044  0.4483
  879MOL0     C18585   0.775  11.112   8.128  0.4952 -0.4724 -0.2682
  879MOL0     C18586   0.913  11.128   8.112 -0.4923 -0.7661  0.4915
  879MOL0     C18587   0.998  11.152   8.223 -0.3696 -0.2351 -1.2451
  879MOL0     C18588   0.945  11.163   8.349 -0.3784  0.4818 -0.0486
  879MOL0     O18589   1.024  11.187   8.454 -0.0425 -0.1284  0.6336
  879MOL0     C18590   1.098  11.070   8.497 -0.0998 -0.5948  0.0122
  879MOL0     C18591   1.240  11.106   8.551  0.5277  0.2275 -0.2329
  879MOL0     C18592   1.326  11.160   8.443 -0.2034  0.4912  0.4169
  879MOL0     C18593   1.369  11.068   8.337 -0.1879  0.3606  0.5765
  879MOL0     C18594   1.495  11.110   8.272 -0.1921  0.4034  0.1944
  879MOL0     C18595   1.605  11.124   8.217  0.8020 -0.8222 -0.8248
  879MOL0     C18596   0.801  11.159   8.364 -0.4020 -0.4938 -0.7096
  879MOL0     C18597   0.722  11.141   8.253 -0.1927  0.1356 -0.0027
  879MOL0     H18598   0.416  11.140   8.001 -0.0899  0.2872  0.1032
  879MOL0     H18599   0.209  11.128   7.868 -0.3575 -0.3947 -1.6834
  879MOL0     H18600   0.028  11.032   7.858  2.7742 -0.2491  0.4474
  879MOL0     H18601  -0.013  11.056   7.689  0.8852 -1.3218 -1.6999
  879MOL0     H18602  -0.159  10.857   7.676  2.2831  1.1979 -0.8700
  879MOL0     H18603  -0.079  10.789   7.825  2.1900  2.1980  0.8375
  879MOL0     H18604  -0.172  10.967   7.965 -4.3778  3.5209  1.4607
  879MOL0     H18605  -0.243  11.036   7.834  1.8559  0.9306  0.8356
  879MOL0     H18606  -0.387  10.814   7.813 -0.8665 -0.0378 -0.3483
  879MOL0     H18607  -0.285  10.743   7.948  2.6474 -0.7335 -2.5906
  879MOL0     H18608  -0.376  10.884   8.108  0.1900  1.2490 -0.2594
  879MOL0     H18609  -0.418  11.008   7.993  0.7100  0.1111  0.4266
  879MOL0     H18610  -0.616  10.853   7.917 -2.6284  0.6401  0.5256
  879MOL0     H18611  -0.562  10.731   8.044 -1.6198  0.4831  1.6591
  879MOL0     H18612  -0.642  11.018   8.098 -1.0353 -0.1703 -2.0010
  879MOL0     H18613  -0.747  10.882   8.095  1.8099 -3.3719 -0.4039
  879MOL0     H18614  -0.622  10.972   8.333  1.9218 -1.4413  1.4346
  879MOL0     H18615  -0.509  10.850   8.280  0.5380  0.0514 -1.1419
  879MOL0     H18616  -0.876  10.899   8.376 -1.1925 -1.4355 -2.3558
  879MOL0     H18617  -0.935  10.565   8.586  1.9866  1.3052  0.4764
  879MOL0     H18618  -0.994  10.735   8.589 -1.1753  0.4631 -0.6127
  879MOL0     H18619  -1.168  10.587   8.512  0.9316  0.7335  0.2741
  879MOL0     H18620  -1.071  10.537   8.367  0.8456  0.1594 -0.9757
  879MOL0     H18621  -1.108  10.794   8.305 -2.1770  3.0194  0.6177
  879MOL0     H18622  -1.195  10.808   8.445  1.1589  1.6011 -1.1896
  879MOL0     H18623  -1.272  10.612   8.217 -0.4568 -0.0344 -0.8762
  879MOL0     H18624  -1.345  10.770   8.244  0.1390 -0.8119 -2.1200
  879MOL0     H18625  -1.505  10.693   8.151  0.0339 -0.5020 -0.6558
  879MOL0     H18626  -1.793  10.598   8.001  2.1144  0.4925 -1.4722
  879MOL0     H18627  -1.833  10.747   8.091  1.8045  2.4129  1.1804
  879MOL0     H18628  -1.677  10.728   8.008  0.2651 -1.3205 -1.5374
  879MOL0     H18629  -2.113  10.268   8.139 -2.0206 -1.8794 -1.1089
  879MOL0     H18630  -2.360  10.259   8.109 -1.1799 -0.4992  0.3993
  879MOL0     H18631  -2.609  10.594   8.137  0.8564  3.5275 -2.5042
  879MOL0     H18632  -2.582  10.613   7.965  1.7878  1.2544  0.3703
  879MOL0     H18633  -2.737  10.442   7.915  0.8317  2.5494 -1.2883
  879MOL0     H18634  -2.786  10.414   8.093 -1.9524  1.7060  1.2844
  879MOL0     H18635  -2.844  10.660   7.936 -2.2097  0.9581  0.8660
  879MOL0     H18636  -2.842  10.639   8.116 -0.1429  3.0888 -1.6646
  879MOL0     H18637  -2.986  10.467   7.909  1.6957 -0.8350  0.7857
  879MOL0     H18638  -3.022  10.470   8.086 -2.3358  0.2609 -0.8596
  879MOL0     H18639  -3.095  10.705   8.080  1.3692 -0.7437  0.9539
  879MOL0     H18640  -3.204  10.596   7.994 -0.5757  0.7892 -1.4515
  879MOL0     H18641  -3.009  10.767   7.855 -1.2324  0.0008  0.2359
  879MOL0     H18642  -3.090  10.646   7.777  1.8371  2.9806 -1.6040
  879MOL0     H18643  -3.203  10.866   7.749  1.3129 -0.4776 -0.3281
  879MOL0     H18644  -3.238  10.878   7.912 -1.5984  0.3248 -0.3998
  879MOL0     H18645  -3.382  10.678   7.904  0.8136 -0.8570  0.4893
  879MOL0     H18646  -3.328  10.635   7.751 -1.5613 -0.2524  1.5173
  879MOL0     H18647  -2.374  10.681   8.063  2.2323  0.8933 -0.4890
  879MOL0     H18648  -2.125  10.694   8.109  0.9477 -0.0176  0.4471
  879MOL0     H18649  -1.777  10.427   8.466 -0.9547  2.4598  0.6639
  879MOL0     H18650  -1.546  10.482   8.528 -1.3176  0.3673  0.1221
  879MOL0     H18651   0.338  10.744   7.716 -0.0227  1.1297 -1.7474
  879MOL0     H18652   0.543  10.770   7.866 -0.3557 -0.5200  0.7067
  879MOL0     H18653   0.950  11.143   8.011  0.8567  2.0651  1.2911
  879MOL0     H18654   1.106  11.155   8.214 -0.3320 -2.5669 -2.2060
  879MOL0     H18655   1.038  11.026   8.578  0.9798  0.5916  1.5356
  879MOL0     H18656   1.104  10.989   8.424 -2.4529 -1.7184  0.9741
  879MOL0     H18657   1.293  11.023   8.599  1.1896  0.6151 -0.2808
  879MOL0     H18658   1.226  11.182   8.628 -1.7409  0.1534 -0.4989
  879MOL0     H18659   1.415  11.211   8.481  1.4580 -0.6108 -1.7014
  879MOL0     H18660   1.264  11.236   8.395  0.6855  0.4971 -0.7984
  879MOL0     H18661   1.288  11.048   8.266  0.7843  0.6869 -0.6688
  879MOL0     H18662   1.393  10.972   8.383 -0.1183 -1.3190 -2.6297
  879MOL0     H18663   1.706  11.127   8.182  0.7083  1.2777 -1.0321
  879MOL0     H18664   0.760  11.167   8.464  0.9302 -2.7163  0.0851
  879MOL0     H18665   0.616  11.129   8.271  0.0352 -1.4349  0.4032
  880MOL0     O18666   3.362  10.813   0.550  0.8063  0.0809  0.2176
  880MOL0     C18667   3.415  10.887   0.475 -0.1458 -0.5080  1.0159
  880MOL0     O18668   3.355  10.994   0.418 -0.8806  0.0129 -0.1954
  880MOL0     C18669   3.222  11.025   0.438  1.6322 -0.1860  0.0748
  880MOL0     C18670   3.147  11.001   0.555 -0.3533 -0.9399  0.1240
  880MOL0     C18671   3.011  11.042   0.573  0.3902  0.2295 -0.3968
  880MOL0     C18672   2.952  11.113   0.469  0.1131  0.0856 -0.2144
  880MOL0     O18673   2.826  11.171   0.468 -0.1086 -0.2824  0.4335
  880MOL0     C18674   2.732  11.164   0.575  0.0813  0.4381 -0.5608
  880MOL0     C18675   2.601  11.238   0.543 -0.1198 -0.2238  0.6371
  880MOL0     C18676   2.497  11.251   0.658 -0.4007 -0.3356 -0.0374
  880MOL0     C18677   2.361  11.293   0.603  0.0826  0.7911 -0.8672
  880MOL0     C18678   2.272  11.321   0.725  0.1247 -0.8342 -0.3038
  880MOL0     C18679   2.256  11.195   0.813 -0.7059 -0.2780 -0.3633
  880MOL0     C18680   2.136  11.228   0.902  0.1649 -0.3467  0.8839
  880MOL0     C18681   1.997  11.206   0.844 -0.1879 -0.1573  0.3412
  880MOL0     N18682   1.900  11.165   0.942  0.3556  0.0860  0.3789
  880MOL0     C18683   1.892  11.052   1.013  0.5093  1.1253  0.2481
  880MOL0     C18684   1.775  11.048   1.076  0.4678  0.3716 -0.2075
  880MOL0     C18685   1.733  10.938   1.167 -0.0686  0.4206 -0.2361
  880MOL0     C18686   1.616  10.970   1.256 -0.0864 -0.4853 -1.2328
  880MOL0     C18687   1.480  10.944   1.196  1.2104 -0.8729 -0.6280
  880MOL0     C18688   1.365  10.976   1.289  0.3681 -0.4345 -0.3933
  880MOL0     O18689   1.373  10.892   1.404 -0.1454 -0.4760  0.7486
  880MOL0     C18690   1.265  10.877   1.484 -0.2875 -0.3347  0.5402
  880MOL0     C18691   1.278  10.789   1.594  0.6079  0.5663  1.1006
  880MOL0     C18692   1.167  10.768   1.679  0.0514  0.2724 -0.4352
  880MOL0     C18693   1.183  10.650   1.783 -0.7685  0.6468 -0.4237
  880MOL0     C18694   1.045  10.841   1.665  0.0665 -1.0529  0.6893
  880MOL0     C18695   0.926  10.827   1.747  0.7624  0.7512 -0.1154
  880MOL0     O18696   0.833  10.930   1.744  0.1728  0.2218 -0.5294
  880MOL0     C18697   0.715  10.918   1.807  0.2471  0.3580 -0.1116
  880MOL0     C18698   0.697  10.943   1.939 -0.3116 -0.7279 -0.0715
  880MOL0     C18699   0.579  10.936   2.004  0.5733  0.5298 -1.0855
  880MOL0     C18700   0.474  10.883   1.928  0.5270 -0.9074  0.4571
  880MOL0     O18701   0.358  10.882   2.005 -0.7295  0.1396 -0.0195
  880MOL0     C18702   0.254  10.808   1.953  0.2889 -0.1291 -0.9708
  880MOL0     C18703   0.163  10.909   1.889  0.4864  0.0881 -0.2469
  880MOL0     C18704   0.044  10.824   1.817  0.0489 -1.1104 -0.4887
  880MOL0     C18705   0.043  10.847   1.670 -0.0235  0.6480  0.1969
  880MOL0     C18706  -0.069  10.762   1.605  0.2570 -0.8365 -0.0271
  880MOL0     C18707  -0.040  10.612   1.618 -0.3662  0.2183 -1.1158
  880MOL0     C18708  -0.103  10.538   1.500  0.1048 -0.3507  0.6903
  880MOL0     C18709  -0.074  10.393   1.483 -0.4552 -1.0624 -0.0816
  880MOL0    Cl18710   0.096  10.375   1.422 -0.0168  0.0641 -0.1912
  880MOL0     C18711   0.489  10.851   1.788 -0.2187 -0.5582 -0.9723
  880MOL0     C18712   0.614  10.859   1.732 -0.0521  0.1351 -0.4163
  880MOL0     O18713   0.905  10.723   1.812 -0.1834  0.8740 -0.1746
  880MOL0     C18714   1.038  10.945   1.567 -1.0403 -0.0069  0.0372
  880MOL0     C18715   1.145  10.960   1.478  0.2997  0.3630  0.4032
  880MOL0     N18716   1.709  11.165   1.050  0.3319  0.2593 -0.3099
  880MOL0     N18717   1.786  11.236   0.963  0.7606  0.4997 -0.3431
  880MOL0     C18718   3.024  11.126   0.346 -0.7537 -0.2597 -0.5920
  880MOL0     C18719   3.156  11.088   0.326  0.2693 -0.0200  0.5707
  880MOL0     C18720   3.564  10.862   0.454 -0.6534 -0.4602  0.8077
  880MOL0     C18721   3.629  10.915   0.340  0.8017  0.2527  0.3221
  880MOL0     C18722   3.769  10.900   0.325 -0.1240 -0.0408  0.5623
  880MOL0     C18723   3.843  10.835   0.419  0.4785 -0.1064 -0.0760
  880MOL0     O18724   3.978  10.831   0.402 -0.4224 -0.6031  0.3454
  880MOL0     C18725   4.057  10.796   0.519 -0.5181  0.7740 -0.5350
  880MOL0     C18726   4.204  10.837   0.512  0.5132  0.1846 -0.1385
  880MOL0     C18727   4.302  10.759   0.418  0.2720  0.1544 -0.0016
  880MOL0     C18728   4.426  10.848   0.386 -0.3398 -1.2178  0.6367
  880MOL0     C18729   4.508  10.819   0.271  0.3259 -0.3839  0.4581
  880MOL0     C18730   4.590  10.795   0.182  1.3116  0.3659 -0.5888
  880MOL0     C18731   3.781  10.777   0.529  0.2060 -0.0838  0.4208
  880MOL0     C18732   3.639  10.777   0.536  0.1168  0.1547  0.4288
  880MOL0     H18733   3.190  10.940   0.634 -0.4463  0.4941  1.3230
  880MOL0     H18734   2.974  11.003   0.667  2.7142 -2.2215 -0.3703
  880MOL0     H18735   2.711  11.058   0.594  2.5889  0.0354  0.4014
  880MOL0     H18736   2.772  11.211   0.665 -0.0606  0.4564 -0.5077
  880MOL0     H18737   2.627  11.341   0.515 -1.6758 -0.4168 -1.8145
  880MOL0     H18738   2.573  11.199   0.445  3.5103  0.2226 -0.7231
  880MOL0     H18739   2.485  11.159   0.715 -0.4043 -0.7638 -0.7298
  880MOL0     H18740   2.544  11.325   0.725 -1.1798 -0.5317  0.7508
  880MOL0     H18741   2.359  11.377   0.532  0.8418 -0.1295 -2.0194
  880MOL0     H18742   2.315  11.214   0.541 -1.7889  0.8842  0.3119
  880MOL0     H18743   2.305  11.406   0.786 -2.9509 -0.8415  1.5621
  880MOL0     H18744   2.172  11.352   0.693 -0.9870 -2.6024  1.2557
  880MOL0     H18745   2.233  11.107   0.752  0.4197  1.6234 -3.8774
  880MOL0     H18746   2.341  11.183   0.879  0.1593  3.7773 -0.4407
  880MOL0     H18747   2.140  11.155   0.983 -1.0300 -1.5207 -0.0738
  880MOL0     H18748   2.140  11.332   0.937  3.1814  0.1769 -0.6418
  880MOL0     H18749   2.011  11.128   0.768  0.3179 -0.6194  0.9063
  880MOL0     H18750   1.958  11.296   0.795 -0.9162 -0.4828  0.3040
  880MOL0     H18751   1.962  10.968   1.018  0.8136  1.3093 -0.8141
  880MOL0     H18752   1.709  10.850   1.107  1.6612  0.3339 -0.8549
  880MOL0     H18753   1.821  10.912   1.226  0.3013 -0.6318 -1.2206
  880MOL0     H18754   1.613  11.077   1.280  0.6622 -0.0645 -2.8830
  880MOL0     H18755   1.626  10.919   1.352 -0.0214  2.2278  0.3291
  880MOL0     H18756   1.473  10.837   1.176  0.9903 -1.1834  0.9830
  880MOL0     H18757   1.484  10.997   1.100  0.6484 -2.7271 -1.7141
  880MOL0     H18758   1.268  10.975   1.237  0.1332  0.6608 -0.0006
  880MOL0     H18759   1.382  11.075   1.332 -0.1420 -1.3296  2.0599
  880MOL0     H18760   1.370  10.733   1.592  0.3950 -0.0229 -3.4915
  880MOL0     H18761   1.132  10.674   1.877 -0.1613  0.6750 -0.0982
  880MOL0     H18762   1.151  10.551   1.749  2.3351 -1.0272  1.1910
  880MOL0     H18763   1.287  10.627   1.808 -0.0936  2.5442 -1.2797
  880MOL0     H18764   0.776  10.979   2.004  0.8461 -3.0838 -0.0748
  880MOL0     H18765   0.574  10.959   2.110 -0.6740  2.4989 -1.5188
  880MOL0     H18766   0.288  10.720   1.898 -0.7665 -0.4974 -1.0699
  880MOL0     H18767   0.203  10.774   2.043 -1.9092  1.5604 -1.4607
  880MOL0     H18768   0.125  10.982   1.961 -0.1479  0.4899 -0.9673
  880MOL0     H18769   0.220  10.962   1.812 -0.4170  1.1194 -0.2275
  880MOL0     H18770  -0.052  10.848   1.865  1.4308  0.1107  1.8267
  880MOL0     H18771   0.052  10.718   1.843  2.1361 -0.8026  0.2636
  880MOL0     H18772   0.023  10.954   1.654  1.8376  0.7881 -1.5530
  880MOL0     H18773   0.142  10.826   1.629 -1.0154  0.1818 -2.1090
  880MOL0     H18774  -0.075  10.789   1.500  0.1142  0.5743  0.3257
  880MOL0     H18775  -0.165  10.799   1.641  1.0024  2.1005 -0.8432
  880MOL0     H18776   0.067  10.588   1.619 -1.0759 -3.6052 -1.1517
  880MOL0     H18777  -0.067  10.576   1.718  1.1136  0.1781 -0.7079
  880MOL0     H18778  -0.066  10.584   1.408  1.1282 -2.2895  0.0777
  880MOL0     H18779  -0.211  10.554   1.512  0.1200 -0.9288  1.6238
  880MOL0     H18780  -0.137  10.361   1.400  0.4804 -0.7949 -0.9213
  880MOL0     H18781  -0.090  10.327   1.569  0.4290  1.3638  2.0759
  880MOL0     H18782   0.404  10.816   1.731 -1.0936 -1.3937  0.7643
  880MOL0     H18783   0.620  10.829   1.627  0.4833 -1.3755  0.0120
  880MOL0     H18784   0.956  11.016   1.565 -2.4198 -1.5178  0.9439
  880MOL0     H18785   1.124  11.042   1.410 -0.1391  1.1369  1.4461
  880MOL0     H18786   2.970  11.172   0.264 -0.7918  1.8057  0.5266
  880MOL0     H18787   3.204  11.113   0.232 -1.4988  2.2268  0.1815
  880MOL0     H18788   3.578  10.954   0.253  1.9207  2.1188  0.4423
  880MOL0     H18789   3.815  10.943   0.237 -0.4931  2.0366  1.3275
  880MOL0     H18790   4.010  10.842   0.607  0.1921  1.7520 -0.6419
  880MOL0     H18791   4.054  10.687   0.517 -0.1073  0.7634 -3.1820
  880MOL0     H18792   4.245  10.827   0.612  0.0479  2.3253  0.3281
  880MOL0     H18793   4.194  10.940   0.476  0.4063 -0.0938 -0.9304
  880MOL0     H18794   4.252  10.730   0.325 -0.4929  1.2278  0.0566
  880MOL0     H18795   4.331  10.667   0.470  0.1772  1.9443  3.4979
  880MOL0     H18796   4.490  10.875   0.470  0.5362  2.9594 -1.1458
  880MOL0     H18797   4.375  10.943   0.366  0.5811 -0.7912  0.2952
  880MOL0     H18798   4.671  10.782   0.113  2.9297  0.4960  1.1935
  880MOL0     H18799   3.836  10.722   0.605 -0.3067 -0.3499  0.6030
  880MOL0     H18800   3.591  10.727   0.619 -1.2858 -0.8888 -0.9602
  881MOL0     O18801   9.404   8.379   0.149  0.0718  0.1131  0.1609
  881MOL0     C18802   9.430   8.493   0.170  0.2562 -0.6185 -0.2374
  881MOL0     O18803   9.344   8.594   0.152 -0.2382 -0.4396 -0.6173
  881MOL0     C18804   9.229   8.583   0.077  0.6275  0.3732  0.1088
  881MOL0     C18805   9.211   8.684  -0.008 -0.1500  0.6214  0.3196
  881MOL0     C18806   9.087   8.706  -0.074  0.3537  0.3386 -0.2544
  881MOL0     C18807   8.979   8.616  -0.045 -0.0519 -0.5404 -0.9256
  881MOL0     O18808   8.848   8.619  -0.085 -0.3884 -0.8727 -0.3349
  881MOL0     C18809   8.812   8.711  -0.189  0.2049  0.6591 -0.7324
  881MOL0     C18810   8.669   8.699  -0.225  0.0038  0.5748  0.4541
  881MOL0     C18811   8.670   8.779  -0.367  0.4210 -0.2792 -0.6165
  881MOL0     C18812   8.552   8.737  -0.455  0.1092 -0.6810 -0.1139
  881MOL0     C18813   8.559   8.785  -0.596  0.0779  0.5507  0.4127
  881MOL0     C18814   8.493   8.925  -0.612 -0.5835 -0.4597 -0.2362
  881MOL0     C18815   8.347   8.939  -0.582  0.6036 -0.6362 -0.7989
  881MOL0     C18816   8.273   8.832  -0.665 -0.2740 -0.6210 -0.1308
  881MOL0     N18817   8.133   8.873  -0.692  0.2677  0.5343  0.2801
  881MOL0     C18818   8.033   8.787  -0.677 -0.0367 -0.3163  0.1667
  881MOL0     C18819   7.919   8.847  -0.713 -0.1633 -0.2854 -0.0189
  881MOL0     C18820   7.785   8.782  -0.704  0.0646  0.3460 -0.1225
  881MOL0     C18821   7.736   8.777  -0.556  0.1959 -0.2606  0.1093
  881MOL0     C18822   7.601   8.700  -0.550 -0.4964  0.2723  0.1737
  881MOL0     C18823   7.486   8.778  -0.605  0.4114  0.9595 -0.1908
  881MOL0     O18824   7.370   8.692  -0.610  0.2677  0.8901  0.4303
  881MOL0     C18825   7.241   8.741  -0.621  0.1711  0.1713 -0.2425
  881MOL0     C18826   7.198   8.881  -0.626  0.4571  0.1931  0.3052
  881MOL0     C18827   7.060   8.917  -0.633 -0.5809  0.2256 -1.2310
  881MOL0     C18828   7.022   9.062  -0.635 -0.2260 -0.0515  0.1923
  881MOL0     C18829   6.964   8.815  -0.616 -0.7516  0.1281 -0.4992
  881MOL0     C18830   6.821   8.838  -0.589 -0.5580  0.1059 -0.3560
  881MOL0     O18831   6.739   8.739  -0.627  0.6325  0.1486 -0.4582
  881MOL0     C18832   6.606   8.747  -0.587  0.0863 -0.1316 -0.3383
  881MOL0     C18833   6.527   8.839  -0.651  0.3644  0.4345  0.2689
  881MOL0     C18834   6.387   8.849  -0.630  0.3276 -0.3280  0.1227
  881MOL0     C18835   6.322   8.766  -0.539 -0.5538 -0.3563 -0.2519
  881MOL0     O18836   6.185   8.776  -0.530 -0.2975 -1.2019  0.0797
  881MOL0     C18837   6.106   8.664  -0.490  0.5090  0.5668  0.5867
  881MOL0     C18838   5.959   8.707  -0.489  0.3197 -0.1292  0.1016
  881MOL0     C18839   5.919   8.776  -0.625 -0.0047  0.4077  0.2400
  881MOL0     C18840   5.771   8.803  -0.645 -0.4190 -0.3560 -0.1089
  881MOL0     C18841   5.721   8.884  -0.765 -0.6178  0.2841 -0.1070
  881MOL0     C18842   5.728   8.822  -0.904  0.0742 -0.2362  0.9060
  881MOL0     C18843   5.652   8.686  -0.907 -0.7637 -0.0395 -0.8479
  881MOL0     C18844   5.668   8.631  -1.055 -1.1638  0.4876  0.3980
  881MOL0    Cl18845   5.557   8.727  -1.164 -0.2497 -0.4939 -0.1790
  881MOL0     C18846   6.403   8.667  -0.473 -0.3419 -0.6150 -0.8737
  881MOL0     C18847   6.540   8.652  -0.503  0.6490 -0.7776  0.6299
  881MOL0     O18848   6.792   8.931  -0.514 -0.5265 -0.0688 -0.3644
  881MOL0     C18849   7.009   8.680  -0.622 -0.0186 -0.2951 -0.8011
  881MOL0     C18850   7.145   8.638  -0.613 -0.7093 -0.1517  0.5361
  881MOL0     N18851   7.950   8.977  -0.740 -1.0829 -0.4839  0.4516
  881MOL0     N18852   8.080   8.995  -0.711  0.0941 -0.1105  0.2578
  881MOL0     C18853   9.006   8.503   0.034 -0.1883 -0.1208  0.7528
  881MOL0     C18854   9.128   8.485   0.098 -0.1023  0.2166 -0.1606
  881MOL0     C18855   9.554   8.530   0.228 -0.6528 -0.3926 -0.3732
  881MOL0     C18856   9.594   8.663   0.250  0.3070  0.7200  0.0473
  881MOL0     C18857   9.716   8.693   0.313 -0.6869  0.5443 -0.2742
  881MOL0     C18858   9.794   8.592   0.359 -0.2848  0.1009 -0.1923
  881MOL0     O18859   9.929   8.627   0.381  0.0553 -0.0639 -0.4125
  881MOL0     C18860  10.026   8.522   0.394  0.5954  0.6829 -0.0464
  881MOL0     C18861  10.164   8.565   0.454  0.3679  1.0147  0.1326
  881MOL0     C18862  10.240   8.657   0.366  0.1054 -0.4353  0.4323
  881MOL0     C18863  10.364   8.727   0.431 -0.0250  0.0853  0.2780
  881MOL0     C18864  10.336   8.792   0.557 -0.9557 -0.3839  0.0580
  881MOL0     C18865  10.315   8.847   0.665 -0.0632 -0.4916  0.4297
  881MOL0     C18866   9.753   8.462   0.348 -0.3673 -0.8118 -0.2849
  881MOL0     C18867   9.638   8.430   0.278  0.0222  0.0715 -1.4733
  881MOL0     H18868   9.288   8.760  -0.020 -1.6228  2.0518 -0.5920
  881MOL0     H18869   9.073   8.799  -0.128  1.9363 -0.3115 -1.8720
  881MOL0     H18870   8.829   8.814  -0.158  0.1088  0.7119 -0.8518
  881MOL0     H18871   8.883   8.688  -0.269  0.7973  0.5632 -0.1818
  881MOL0     H18872   8.640   8.593  -0.231  2.7949 -0.2327 -0.2982
  881MOL0     H18873   8.606   8.754  -0.155 -1.9086  1.0640 -1.5374
  881MOL0     H18874   8.667   8.887  -0.353  1.6308 -0.1375 -1.3266
  881MOL0     H18875   8.760   8.756  -0.424  0.4433  3.1589 -2.1950
  881MOL0     H18876   8.545   8.628  -0.442  0.1872 -0.4436  2.4367
  881MOL0     H18877   8.460   8.765  -0.403  0.5857  1.7814 -0.4935
  881MOL0     H18878   8.660   8.784  -0.637 -0.7117  0.8281 -1.6378
  881MOL0     H18879   8.515   8.709  -0.660  1.4112 -1.8071  2.1133
  881MOL0     H18880   8.554   8.990  -0.549 -1.8336  0.5180 -0.0054
  881MOL0     H18881   8.505   8.964  -0.713 -2.4458  1.4647  0.2130
  881MOL0     H18882   8.336   8.935  -0.473  2.8341  1.4933 -0.4137
  881MOL0     H18883   8.322   9.041  -0.612 -1.0216 -1.1270 -1.2513
  881MOL0     H18884   8.280   8.731  -0.624  2.5017 -0.5932 -0.3216
  881MOL0     H18885   8.317   8.817  -0.764  1.1270 -0.4022  0.4311
  881MOL0     H18886   8.046   8.682  -0.652 -2.4958 -1.0888 -1.3527
  881MOL0     H18887   7.711   8.831  -0.767 -2.8311  1.0009  3.4248
  881MOL0     H18888   7.808   8.678  -0.728 -0.5933  0.2137 -0.2021
  881MOL0     H18889   7.716   8.878  -0.521 -1.3672  0.2526 -2.0534
  881MOL0     H18890   7.809   8.730  -0.489 -0.5953 -1.4454  0.1732
  881MOL0     H18891   7.585   8.673  -0.446  2.6880 -1.9962  0.2130
  881MOL0     H18892   7.616   8.608  -0.607 -1.4885  0.6590 -0.7425
  881MOL0     H18893   7.498   8.827  -0.702  0.2026  0.2181 -0.5895
  881MOL0     H18894   7.467   8.867  -0.542  0.5184  1.0998 -0.3557
  881MOL0     H18895   7.273   8.960  -0.630  0.3917  0.2181 -0.7793
  881MOL0     H18896   7.064   9.121  -0.716  0.0120  1.2476  1.2349
  881MOL0     H18897   6.915   9.080  -0.651  0.2197  1.0362 -1.9155
  881MOL0     H18898   7.054   9.106  -0.540 -1.8566 -0.1633  0.8274
  881MOL0     H18899   6.565   8.900  -0.731 -2.2507  0.3393 -1.1542
  881MOL0     H18900   6.341   8.917  -0.701  3.2920 -1.2121 -2.9089
  881MOL0     H18901   6.113   8.585  -0.565 -1.6113 -0.3897  1.3077
  881MOL0     H18902   6.135   8.638  -0.388  0.4419  0.1040  0.4884
  881MOL0     H18903   5.906   8.617  -0.456  1.3833 -0.5380  0.7689
  881MOL0     H18904   5.946   8.777  -0.406 -0.8600 -1.9286  1.5029
  881MOL0     H18905   5.962   8.711  -0.702  1.5257 -0.4017  1.7055
  881MOL0     H18906   5.967   8.873  -0.631  0.0474  0.4168  0.7706
  881MOL0     H18907   5.737   8.699  -0.645  3.9060 -2.0556 -2.5133
  881MOL0     H18908   5.736   8.859  -0.559 -4.2783  0.7437 -2.1618
  881MOL0     H18909   5.767   8.983  -0.769  1.0069 -0.4587 -0.4901
  881MOL0     H18910   5.613   8.898  -0.755 -0.8715 -1.7521  0.3772
  881MOL0     H18911   5.682   8.885  -0.980  2.5370 -0.1030 -0.5701
  881MOL0     H18912   5.832   8.810  -0.938  0.0376  0.2119  0.6309
  881MOL0     H18913   5.546   8.678  -0.878 -0.4098 -1.0439  0.2436
  881MOL0     H18914   5.714   8.617  -0.849 -0.0324 -0.1212 -1.7139
  881MOL0     H18915   5.645   8.524  -1.055  3.2761 -0.6631  1.5364
  881MOL0     H18916   5.768   8.624  -1.098 -1.5977 -2.8204 -0.3743
  881MOL0     H18917   6.348   8.592  -0.417 -0.6121 -1.5842 -2.3638
  881MOL0     H18918   6.586   8.567  -0.454 -0.0899 -1.6808 -0.2130
  881MOL0     H18919   6.939   8.597  -0.615 -0.4543  0.1166 -0.1495
  881MOL0     H18920   7.168   8.532  -0.611  0.5173 -0.0320 -2.2140
  881MOL0     H18921   8.923   8.437   0.055 -0.2570 -0.0699  0.6406
  881MOL0     H18922   9.139   8.421   0.185 -0.1120  2.8503  1.8951
  881MOL0     H18923   9.533   8.744   0.210  1.5708  0.9827 -1.4925
  881MOL0     H18924   9.749   8.797   0.311 -0.4695  0.5387  1.5586
  881MOL0     H18925   9.992   8.455   0.473  1.8620 -0.3316 -0.3445
  881MOL0     H18926  10.026   8.465   0.301 -1.1114 -0.7527  0.7879
  881MOL0     H18927  10.222   8.473   0.467 -2.8594 -1.2532 -0.3460
  881MOL0     H18928  10.145   8.609   0.552 -2.0157 -2.5722  1.4710
  881MOL0     H18929  10.176   8.740   0.333 -1.3059 -0.3923  3.0207
  881MOL0     H18930  10.265   8.614   0.268 -0.9588  2.0482 -1.0316
  881MOL0     H18931  10.412   8.794   0.359 -2.4982  0.3420 -1.2678
  881MOL0     H18932  10.440   8.649   0.439 -0.4164 -1.0299 -4.1364
  881MOL0     H18933  10.306   8.882   0.765 -0.5055  0.3471  0.1100
  881MOL0     H18934   9.810   8.376   0.382  0.3956 -0.5938 -0.9743
  881MOL0     H18935   9.602   8.328   0.267 -1.2149 -0.2510  3.2371
  882MOL0     O18936   9.664   5.618   5.657  0.2893  0.2077 -0.5790
  882MOL0     C18937   9.703   5.666   5.764  0.3866  0.1592  1.4701
  882MOL0     O18938   9.709   5.798   5.786 -0.5075 -0.0727 -0.1984
  882MOL0     C18939   9.702   5.878   5.676 -0.2322  0.8996 -0.9492
  882MOL0     C18940   9.813   5.877   5.587  0.7973  0.1340 -0.1679
  882MOL0     C18941   9.820   5.988   5.500 -0.6588  0.2407  0.2715
  882MOL0     C18942   9.719   6.090   5.491 -0.0061  0.1756 -0.1795
  882MOL0     O18943   9.738   6.201   5.415  0.3216 -0.4859  0.0794
  882MOL0     C18944   9.821   6.195   5.295 -0.1204  0.5065 -0.3087
  882MOL0     C18945   9.798   6.319   5.207 -0.2524  0.5961 -0.1483
  882MOL0     C18946   9.682   6.300   5.114 -0.2126  0.7000 -0.2713
  882MOL0     C18947   9.539   6.296   5.178  0.4821  0.1950  0.1035
  882MOL0     C18948   9.421   6.317   5.083  0.3438  0.1945  0.4910
  882MOL0     C18949   9.435   6.447   5.004  0.2143 -0.3259 -0.3959
  882MOL0     C18950   9.438   6.573   5.091 -0.3011 -0.8211 -0.4486
  882MOL0     C18951   9.490   6.690   4.996  0.8296  0.5261 -0.0523
  882MOL0     N18952   9.408   6.701   4.878 -0.1433 -0.5849 -0.6585
  882MOL0     C18953   9.287   6.756   4.867  0.4070 -0.4898 -0.3922
  882MOL0     C18954   9.260   6.760   4.731 -0.0818 -1.2908 -0.7375
  882MOL0     C18955   9.129   6.812   4.668 -0.2787  0.0523 -0.0562
  882MOL0     C18956   9.028   6.702   4.673  0.1256 -0.5293 -0.5229
  882MOL0     C18957   9.054   6.583   4.576  0.3688  0.6334 -1.0704
  882MOL0     C18958   8.952   6.471   4.586  0.7482  0.4788  0.3431
  882MOL0     O18959   8.835   6.496   4.508 -0.6476 -0.2218  0.2826
  882MOL0     C18960   8.709   6.514   4.560 -0.1863  0.6357 -0.3604
  882MOL0     C18961   8.668   6.483   4.695  0.5890  1.3146 -0.1923
  882MOL0     C18962   8.540   6.498   4.746  0.1367  0.7173 -0.2625
  882MOL0     C18963   8.508   6.472   4.890 -0.1275 -0.4392 -0.2294
  882MOL0     C18964   8.441   6.546   4.658 -0.1984  0.1622 -0.1668
  882MOL0     C18965   8.302   6.573   4.699  0.0531  1.0694 -0.3748
  882MOL0     O18966   8.214   6.526   4.613  0.1362  0.1468  0.0843
  882MOL0     C18967   8.087   6.510   4.655 -0.8898  1.2010  0.7603
  882MOL0     C18968   8.033   6.387   4.691 -0.1822 -0.7597 -0.5322
  882MOL0     C18969   7.896   6.374   4.716 -0.1415 -0.2298  0.2564
  882MOL0     C18970   7.796   6.471   4.700 -0.1322 -0.7423  0.1520
  882MOL0     O18971   7.662   6.468   4.726  0.8099  1.0991 -0.0625
  882MOL0     C18972   7.598   6.340   4.725  0.6920 -0.1274  0.0546
  882MOL0     C18973   7.565   6.300   4.585  0.5607  0.0853 -0.5662
  882MOL0     C18974   7.443   6.385   4.544 -0.3246  0.0005  0.1499
  882MOL0     C18975   7.411   6.363   4.394 -0.2539 -0.8174  0.4081
  882MOL0     C18976   7.302   6.450   4.339 -0.8029 -0.5403  0.3199
  882MOL0     C18977   7.240   6.412   4.203  0.2180 -0.0073  0.5060
  882MOL0     C18978   7.123   6.510   4.170  0.3877  0.5051  0.2266
  882MOL0     C18979   7.072   6.479   4.034 -0.0427 -0.5161  0.5683
  882MOL0    Cl18980   6.945   6.605   4.004  0.6915  0.1974  0.4316
  882MOL0     C18981   7.858   6.595   4.655 -0.1948  0.5722 -0.3970
  882MOL0     C18982   7.995   6.616   4.636 -0.6494 -0.4660  0.7656
  882MOL0     O18983   8.270   6.648   4.797 -0.1658 -0.4604  0.5026
  882MOL0     C18984   8.478   6.568   4.528  0.1260  0.1502  0.5974
  882MOL0     C18985   8.606   6.550   4.475  0.1217 -0.1689  0.4790
  882MOL0     N18986   9.367   6.697   4.666  0.1229 -0.0052 -0.5773
  882MOL0     N18987   9.456   6.674   4.758  0.3612 -0.3365 -0.3077
  882MOL0     C18988   9.610   6.075   5.574  0.6098 -0.1542  0.4286
  882MOL0     C18989   9.606   5.977   5.664 -0.2842 -0.3496 -0.6559
  882MOL0     C18990   9.742   5.574   5.877  0.2399 -0.2640 -0.3556
  882MOL0     C18991   9.777   5.630   6.000 -0.2924 -0.2467 -0.5763
  882MOL0     C18992   9.790   5.546   6.112  0.0217  0.0313 -0.5072
  882MOL0     C18993   9.767   5.403   6.111 -0.4881  0.3180  0.3950
  882MOL0     O18994   9.772   5.318   6.220 -0.7933  0.5172  0.2621
  882MOL0     C18995   9.794   5.385   6.357 -0.6441  0.4644 -0.4013
  882MOL0     C18996   9.769   5.284   6.462  0.0775 -0.7058 -0.7680
  882MOL0     C18997   9.887   5.197   6.502 -0.6277  0.6107 -0.3820
  882MOL0     C18998   9.857   5.110   6.622  0.1641 -0.5246 -0.9044
  882MOL0     C18999   9.770   4.999   6.573  0.1622 -0.2957 -0.2906
  882MOL0     C19000   9.714   4.910   6.512  0.4813  0.8422 -0.1898
  882MOL0     C19001   9.734   5.347   5.986 -0.8510 -0.1377 -0.2434
  882MOL0     C19002   9.711   5.432   5.876 -0.6927  0.3369  0.4016
  882MOL0     H19003   9.888   5.799   5.599  0.7635 -0.1125 -1.4125
  882MOL0     H19004   9.905   5.995   5.433 -1.5290  1.2336 -0.7829
  882MOL0     H19005   9.925   6.191   5.325  0.0769  0.6150 -0.9467
  882MOL0     H19006   9.791   6.107   5.237 -0.1768 -0.2824  0.8983
  882MOL0     H19007   9.772   6.390   5.286 -3.3927 -1.6752  1.0396
  882MOL0     H19008   9.888   6.350   5.152  0.6160  1.1138  1.4976
  882MOL0     H19009   9.677   6.392   5.056 -0.6727  0.3816 -0.7418
  882MOL0     H19010   9.699   6.210   5.054  0.0733 -0.8859  2.0078
  882MOL0     H19011   9.505   6.197   5.211 -2.5989 -0.3209 -3.8471
  882MOL0     H19012   9.530   6.373   5.255  2.3864  1.4137 -0.8216
  882MOL0     H19013   9.415   6.235   5.011 -2.4283  2.0568 -1.6053
  882MOL0     H19014   9.328   6.325   5.140 -0.3815  0.9981 -0.7500
  882MOL0     H19015   9.525   6.442   4.942 -0.6128 -2.6892 -1.5491
  882MOL0     H19016   9.345   6.463   4.944 -0.0508 -1.1629 -0.2455
  882MOL0     H19017   9.342   6.598   5.137 -0.7972 -1.1280 -1.3031
  882MOL0     H19018   9.514   6.560   5.168 -0.7792 -1.3747 -0.0560
  882MOL0     H19019   9.594   6.675   4.966  0.2430 -3.2988 -0.6974
  882MOL0     H19020   9.494   6.786   5.049  2.7442  0.5890 -0.2373
  882MOL0     H19021   9.221   6.812   4.933  1.7541 -2.0213  2.4186
  882MOL0     H19022   9.086   6.894   4.727  0.8253  0.1803  0.6010
  882MOL0     H19023   9.153   6.848   4.568  1.7795  1.8148  0.9780
  882MOL0     H19024   8.930   6.736   4.637 -0.8059 -3.5368 -1.1826
  882MOL0     H19025   9.023   6.660   4.774  0.7743 -3.1148 -1.4850
  882MOL0     H19026   9.153   6.539   4.591  0.2453  1.4103  2.8713
  882MOL0     H19027   9.042   6.617   4.472 -1.1211 -2.1983 -1.9390
  882MOL0     H19028   8.934   6.459   4.694  1.0753  1.2500  0.4880
  882MOL0     H19029   9.000   6.385   4.539 -1.2585  0.2530 -1.4509
  882MOL0     H19030   8.741   6.457   4.771  0.0661 -1.9138 -0.6339
  882MOL0     H19031   8.465   6.559   4.942 -1.3157 -0.5946 -0.9095
  882MOL0     H19032   8.427   6.398   4.888 -0.3599 -0.2616  1.2895
  882MOL0     H19033   8.587   6.422   4.946  0.9605  0.7532 -0.6459
  882MOL0     H19034   8.095   6.303   4.721  1.7251  1.1939  1.3697
  882MOL0     H19035   7.865   6.276   4.751 -1.7486 -1.2217 -3.4976
  882MOL0     H19036   7.656   6.265   4.779  1.1052  1.2734  1.6848
  882MOL0     H19037   7.509   6.359   4.787  1.1915  1.3552  0.3611
  882MOL0     H19038   7.651   6.310   4.519  2.0545  1.0459  1.4105
  882MOL0     H19039   7.536   6.194   4.580 -2.2389  0.7361  0.0706
  882MOL0     H19040   7.456   6.489   4.574  2.4088 -0.0475 -0.5901
  882MOL0     H19041   7.355   6.347   4.598 -1.3765  2.0321 -0.0390
  882MOL0     H19042   7.497   6.384   4.331 -1.8972 -0.3525 -1.8174
  882MOL0     H19043   7.377   6.261   4.376  1.0287 -1.0052 -1.2066
  882MOL0     H19044   7.330   6.555   4.332 -1.8682 -0.3236 -1.2736
  882MOL0     H19045   7.224   6.446   4.416  1.7592 -2.2975  3.0734
  882MOL0     H19046   7.318   6.416   4.126  0.1896 -1.2078  0.3919
  882MOL0     H19047   7.210   6.307   4.193 -1.9192  0.8404 -3.5340
  882MOL0     H19048   7.154   6.614   4.186 -1.0046  0.9073  0.4513
  882MOL0     H19049   7.034   6.487   4.229 -0.1014 -3.2187 -1.6519
  882MOL0     H19050   7.032   6.377   4.037 -0.5077 -0.3202  2.7195
  882MOL0     H19051   7.156   6.476   3.963  0.4754 -1.9573  1.2077
  882MOL0     H19052   7.791   6.679   4.642 -0.0134  0.5910 -1.2149
  882MOL0     H19053   8.039   6.709   4.600  0.3806 -2.2162 -2.9158
  882MOL0     H19054   8.399   6.605   4.463 -0.5589 -0.9626  0.7834
  882MOL0     H19055   8.621   6.568   4.369 -2.8376 -0.6813 -0.0947
  882MOL0     H19056   9.527   6.145   5.567 -0.7884 -1.7855 -0.1229
  882MOL0     H19057   9.524   5.978   5.735 -0.5528 -1.5099 -0.9280
  882MOL0     H19058   9.812   5.732   6.007  1.2639 -0.6823 -1.5904
  882MOL0     H19059   9.826   5.586   6.206  0.4810 -2.2530  0.3537
  882MOL0     H19060   9.898   5.418   6.366 -0.3567 -0.6223  0.4164
  882MOL0     H19061   9.720   5.466   6.362 -2.8445 -1.3314 -1.8421
  882MOL0     H19062   9.690   5.218   6.425 -0.1956 -2.2017  2.2057
  882MOL0     H19063   9.717   5.326   6.548 -2.1803 -3.4945 -0.5984
  882MOL0     H19064   9.965   5.264   6.537  0.3394 -1.6807  2.2014
  882MOL0     H19065   9.940   5.142   6.424  1.6934  1.3491  0.5987
  882MOL0     H19066   9.821   5.156   6.714  1.2721  2.2802 -1.7621
  882MOL0     H19067   9.954   5.067   6.644 -0.2643  0.3144  3.4300
  882MOL0     H19068   9.676   4.836   6.445  0.6654  0.2695  0.3338
  882MOL0     H19069   9.725   5.241   5.964 -0.0019 -0.3337  0.2881
  882MOL0     H19070   9.692   5.380   5.783 -0.1590 -0.8483  0.9327
  883MOL0     O19071  10.188   9.290   4.601  0.1562 -0.9445 -0.4413
  883MOL0     C19072  10.208   9.206   4.517 -0.0207 -0.2932  0.3880
  883MOL0     O19073  10.117   9.165   4.428  0.5219 -0.4588 -0.8808
  883MOL0     C19074   9.985   9.207   4.454  0.2064 -0.0720  0.1699
  883MOL0     C19075   9.918   9.155   4.563  0.5427 -0.5153 -0.4886
  883MOL0     C19076   9.793   9.192   4.596  0.3776 -0.2517  0.3492
  883MOL0     C19077   9.722   9.293   4.521 -1.4127  0.2162 -0.3058
  883MOL0     O19078   9.588   9.322   4.551  0.6043  0.4701 -0.2548
  883MOL0     C19079   9.511   9.411   4.478 -0.1960 -0.2662 -1.0505
  883MOL0     C19080   9.509   9.552   4.540  1.2303 -0.1293  0.6874
  883MOL0     C19081   9.408   9.657   4.472  0.5189  0.0705  0.4640
  883MOL0     C19082   9.271   9.649   4.532 -0.4502 -0.4311  0.9316
  883MOL0     C19083   9.175   9.732   4.452  0.7745  0.5603 -0.4004
  883MOL0     C19084   9.030   9.678   4.459 -0.3141 -0.3090 -0.0906
  883MOL0     C19085   8.923   9.751   4.370  0.2356 -0.0087 -0.5813
  883MOL0     C19086   8.786   9.700   4.396  0.6970  0.4260 -0.0127
  883MOL0     N19087   8.693   9.699   4.279 -0.1839 -0.7408 -0.6204
  883MOL0     C19088   8.596   9.607   4.262 -0.8638  0.8858  0.7263
  883MOL0     C19089   8.535   9.645   4.143 -0.5637  0.8411 -0.4058
  883MOL0     C19090   8.448   9.541   4.073  0.0212 -0.0172 -0.5683
  883MOL0     C19091   8.361   9.603   3.963  0.2223  0.1013 -0.5121
  883MOL0     C19092   8.256   9.699   4.021  0.2973 -0.0948  0.2794
  883MOL0     C19093   8.158   9.734   3.906 -0.1877  0.2461 -0.3976
  883MOL0     O19094   8.063   9.616   3.894 -0.3868  0.2999  0.3685
  883MOL0     C19095   7.933   9.642   3.862  0.3319  0.6981  0.1068
  883MOL0     C19096   7.843   9.532   3.888  0.2200 -0.1315 -0.8822
  883MOL0     C19097   7.710   9.542   3.840 -0.6320  1.2335  0.3700
  883MOL0     C19098   7.632   9.414   3.847  0.4227  0.1569  0.0101
  883MOL0     C19099   7.662   9.658   3.779 -0.9117 -0.0359  0.2184
  883MOL0     C19100   7.520   9.667   3.756  0.1628 -0.6754  0.0979
  883MOL0     O19101   7.481   9.743   3.640 -0.3539 -0.1293 -0.5888
  883MOL0     C19102   7.350   9.746   3.605 -0.0374 -0.1230  0.0700
  883MOL0     C19103   7.241   9.688   3.671 -0.5147  0.1953 -0.5456
  883MOL0     C19104   7.114   9.691   3.613  0.0247  0.0621  1.0032
  883MOL0     C19105   7.094   9.761   3.493  0.3445  0.1654 -0.3140
  883MOL0     O19106   6.971   9.782   3.432 -0.4014  0.1761 -0.1996
  883MOL0     C19107   6.851   9.726   3.495 -0.0293  0.2820  0.0286
  883MOL0     C19108   6.732   9.736   3.400  0.6054 -0.2611 -0.0585
  883MOL0     C19109   6.693   9.877   3.379 -0.1720 -0.4472  0.0145
  883MOL0     C19110   6.545   9.893   3.350  0.4324 -0.0447 -0.4330
  883MOL0     C19111   6.516  10.042   3.322 -0.2843 -0.2575 -0.4677
  883MOL0     C19112   6.408  10.061   3.215 -0.5004  0.3375 -0.3171
  883MOL0     C19113   6.397  10.200   3.156  0.2124  0.2176  0.1543
  883MOL0     C19114   6.535  10.259   3.113  0.7108  1.0988 -0.7152
  883MOL0    Cl19115   6.606  10.152   2.991 -0.2096 -0.3898  0.1918
  883MOL0     C19116   7.207   9.820   3.432 -1.1027 -0.1589  0.1840
  883MOL0     C19117   7.332   9.817   3.484 -0.1045  0.2402 -0.0277
  883MOL0     O19118   7.447   9.646   3.853 -0.1870  0.4009  0.3367
  883MOL0     C19119   7.747   9.770   3.766 -0.1932  0.4390  0.8628
  883MOL0     C19120   7.884   9.764   3.809 -0.3558  0.1038  0.0869
  883MOL0     N19121   8.587   9.768   4.107  0.2971  0.4025  0.5499
  883MOL0     N19122   8.679   9.801   4.185  0.1649  0.4088 -0.1278
  883MOL0     C19123   9.794   9.348   4.408  0.3195  0.0544  0.8707
  883MOL0     C19124   9.917   9.293   4.375  0.5732 -0.1055 -0.4535
  883MOL0     C19125  10.348   9.171   4.487  0.6974  0.1022 -0.2820
  883MOL0     C19126  10.398   9.115   4.364  0.3760  0.2567  0.0930
  883MOL0     C19127  10.539   9.089   4.346 -0.0978 -0.0461 -0.6275
  883MOL0     C19128  10.638   9.128   4.440  0.0870 -0.1669 -0.2059
  883MOL0     O19129  10.772   9.113   4.421 -0.2686 -0.1831  0.4206
  883MOL0     C19130  10.806   9.003   4.332  0.6312 -0.1018  0.6201
  883MOL0     C19131  10.956   8.979   4.359  0.4885  0.7829 -0.9020
  883MOL0     C19132  10.993   8.831   4.319 -0.3928  0.5209 -0.2996
  883MOL0     C19133  10.935   8.777   4.184  1.2370  0.6918 -0.5204
  883MOL0     C19134  10.955   8.640   4.147  0.9737  0.2649  0.5521
  883MOL0     C19135  10.964   8.521   4.117 -0.1700  0.5093 -0.7220
  883MOL0     C19136  10.586   9.183   4.561 -0.0608  0.8473  0.0304
  883MOL0     C19137  10.445   9.198   4.581 -0.2727 -0.0032 -0.2472
  883MOL0     H19138   9.968   9.095   4.638  0.2277 -1.7348 -1.2347
  883MOL0     H19139   9.746   9.155   4.687  1.3203  1.8370  1.7636
  883MOL0     H19140   9.543   9.406   4.374 -0.6351 -4.8998 -1.1550
  883MOL0     H19141   9.407   9.377   4.471 -0.0133 -1.2474  0.5005
  883MOL0     H19142   9.512   9.561   4.649  1.5538  1.2305  0.5874
  883MOL0     H19143   9.604   9.593   4.506  1.1471 -0.5702 -0.1007
  883MOL0     H19144   9.446   9.759   4.477  1.7553 -0.1147 -2.9390
  883MOL0     H19145   9.390   9.631   4.368 -2.0370 -0.0592  0.8738
  883MOL0     H19146   9.238   9.545   4.539 -0.7042 -0.5146 -1.0418
  883MOL0     H19147   9.274   9.687   4.634  0.6265  0.3692  0.6222
  883MOL0     H19148   9.179   9.836   4.487  2.3300  0.0705  1.0047
  883MOL0     H19149   9.191   9.730   4.344  1.7970  1.7020 -0.2845
  883MOL0     H19150   9.030   9.568   4.452 -1.2255 -0.2606 -1.1098
  883MOL0     H19151   9.000   9.710   4.559 -0.3357 -0.4614 -0.0472
  883MOL0     H19152   8.926   9.857   4.393  1.2605 -0.4276  1.3637
  883MOL0     H19153   8.952   9.731   4.266  1.4679 -1.6686  0.0448
  883MOL0     H19154   8.733   9.752   4.477  2.8540  2.5562  0.1285
  883MOL0     H19155   8.789   9.594   4.426 -0.0331  0.7758  1.3817
  883MOL0     H19156   8.579   9.521   4.325 -0.9271  2.7473  3.3886
  883MOL0     H19157   8.499   9.453   4.032 -0.7989 -0.5514 -0.4776
  883MOL0     H19158   8.384   9.491   4.147  0.9743  0.8922  0.9332
  883MOL0     H19159   8.307   9.523   3.912 -0.9560  1.1988 -1.0399
  883MOL0     H19160   8.431   9.649   3.893  2.3197 -3.0220 -0.6529
  883MOL0     H19161   8.307   9.791   4.052 -0.5747 -0.1494  1.9665
  883MOL0     H19162   8.207   9.653   4.107 -1.1289  2.3280  0.8592
  883MOL0     H19163   8.219   9.743   3.816  2.4664 -1.6364  1.0601
  883MOL0     H19164   8.115   9.832   3.929 -5.3108 -1.4838 -1.2015
  883MOL0     H19165   7.891   9.437   3.912 -1.5442 -0.2561  2.8034
  883MOL0     H19166   7.562   9.410   3.763  1.2431  1.5180 -0.7732
  883MOL0     H19167   7.691   9.322   3.852  0.0477 -0.0398  1.1338
  883MOL0     H19168   7.576   9.412   3.941  1.4854 -0.7168  0.6559
  883MOL0     H19169   7.247   9.618   3.755  1.7159  0.9742  0.0180
  883MOL0     H19170   7.033   9.640   3.665 -2.7170  0.6792 -2.2722
  883MOL0     H19171   6.872   9.623   3.526  0.8576 -0.3241 -2.3720
  883MOL0     H19172   6.837   9.784   3.587  2.0635  0.5803  0.2070
  883MOL0     H19173   6.769   9.689   3.309 -1.0717 -2.9128  0.4999
  883MOL0     H19174   6.654   9.679   3.452 -1.0352  2.4952  0.6944
  883MOL0     H19175   6.749   9.912   3.291  0.5204 -2.4941 -0.4019
  883MOL0     H19176   6.712   9.946   3.462 -0.8571 -1.5721  1.1295
  883MOL0     H19177   6.514   9.832   3.265 -2.1831 -0.2382  0.5731
  883MOL0     H19178   6.490   9.857   3.438  2.6712 -2.5070  0.0794
  883MOL0     H19179   6.608  10.099   3.306 -0.7528  1.6042  2.6455
  883MOL0     H19180   6.496  10.094   3.416  3.1455  0.7724 -0.1733
  883MOL0     H19181   6.422   9.983   3.138 -1.5746 -1.7146  1.4551
  883MOL0     H19182   6.309  10.042   3.256 -0.4459  1.2688  0.2644
  883MOL0     H19183   6.357  10.263   3.237  3.3730 -0.2579  2.2538
  883MOL0     H19184   6.317  10.195   3.081  1.0076 -0.3492 -0.6631
  883MOL0     H19185   6.595  10.289   3.199  1.0358  1.6863 -1.1364
  883MOL0     H19186   6.512  10.354   3.064 -0.3896  0.0815 -2.2570
  883MOL0     H19187   7.185   9.880   3.344  1.1007 -1.3704 -1.2636
  883MOL0     H19188   7.422   9.863   3.445 -0.0671  1.4421  1.3811
  883MOL0     H19189   7.710   9.865   3.728  2.1911  0.9312 -0.4123
  883MOL0     H19190   7.955   9.840   3.781  0.4842 -1.5078 -2.5625
  883MOL0     H19191   9.762   9.425   4.339 -0.3861  2.4651  3.6938
  883MOL0     H19192   9.954   9.334   4.281  0.0708  1.1920 -0.1076
  883MOL0     H19193  10.318   9.098   4.293 -0.8324  1.7673  1.0466
  883MOL0     H19194  10.576   9.029   4.263  1.4367 -0.4482  0.2892
  883MOL0     H19195  10.744   8.916   4.356  0.7661 -0.3496  0.0738
  883MOL0     H19196  10.794   9.037   4.229  0.4665  1.0629  1.0039
  883MOL0     H19197  10.985   8.994   4.463  3.2309 -2.5524 -1.0524
  883MOL0     H19198  11.018   9.053   4.308  1.1743  1.0082  0.2116
  883MOL0     H19199  10.962   8.762   4.398  0.6508  2.0768  1.5667
  883MOL0     H19200  11.101   8.838   4.307 -0.5686  1.5833 -1.5898
  883MOL0     H19201  10.963   8.849   4.107 -0.8968  3.7054  1.2961
  883MOL0     H19202  10.827   8.791   4.193  1.5640  2.6607  1.1623
  883MOL0     H19203  10.968   8.421   4.080  0.2394  1.1442 -2.4614
  883MOL0     H19204  10.652   9.198   4.646  0.7656 -1.5168 -0.1028
  883MOL0     H19205  10.407   9.234   4.676 -0.1024 -0.1877 -0.1080
  884MOL0     O19206   0.159   6.471   7.803  0.1372 -0.1389  0.4906
  884MOL0     C19207   0.211   6.506   7.907 -0.1655 -0.4455 -0.2139
  884MOL0     O19208   0.148   6.579   8.010  0.1031 -0.2195  0.0046
  884MOL0     C19209   0.015   6.625   8.006 -1.2136 -0.1737 -0.0936
  884MOL0     C19210  -0.021   6.758   8.035 -0.5816 -0.4253 -0.4080
  884MOL0     C19211  -0.154   6.794   8.029  0.1713 -0.7143  0.0786
  884MOL0     C19212  -0.255   6.707   8.006 -0.5523  0.5523 -0.1978
  884MOL0     O19213  -0.388   6.751   8.016 -0.1422 -0.2387 -0.5438
  884MOL0     C19214  -0.482   6.662   7.947  0.4936 -0.4424 -0.2992
  884MOL0     C19215  -0.619   6.736   7.952  0.1475 -0.1428  0.8994
  884MOL0     C19216  -0.742   6.637   7.956 -0.4482  0.5873  0.0340
  884MOL0     C19217  -0.866   6.706   7.909 -0.4291  0.8211 -0.1595
  884MOL0     C19218  -0.972   6.689   8.013  1.0414  0.3868  0.2091
  884MOL0     C19219  -0.975   6.792   8.128 -0.2447  0.2205 -1.2675
  884MOL0     C19220  -1.106   6.786   8.208  0.1004 -0.6402 -0.1384
  884MOL0     C19221  -1.121   6.896   8.304 -0.4833 -1.6433 -0.4584
  884MOL0     N19222  -1.114   7.031   8.243 -0.2653  0.1064  0.5431
  884MOL0     C19223  -0.997   7.104   8.229  0.6060 -0.7603 -0.3333
  884MOL0     C19224  -1.052   7.220   8.172 -0.7273  0.1098 -0.9300
  884MOL0     C19225  -0.966   7.339   8.129 -1.0011 -0.4171  0.6035
  884MOL0     C19226  -0.857   7.306   8.020  0.3086  0.3691 -0.4772
  884MOL0     C19227  -0.781   7.419   7.957  0.1986  0.6735  0.1536
  884MOL0     C19228  -0.660   7.388   7.860  0.2107 -0.7866 -0.8453
  884MOL0     O19229  -0.591   7.508   7.819  0.3434  0.1073 -0.6270
  884MOL0     C19230  -0.464   7.501   7.769  0.1365 -0.0363  0.3499
  884MOL0     C19231  -0.375   7.607   7.774  0.4826  0.7419 -0.0023
  884MOL0     C19232  -0.249   7.608   7.708  1.1760  0.7097  0.2544
  884MOL0     C19233  -0.165   7.731   7.722 -0.1322  0.4682 -0.0972
  884MOL0     C19234  -0.209   7.489   7.641 -0.0284  0.2810  0.7487
  884MOL0     C19235  -0.068   7.467   7.594  0.3099 -0.9385  0.1238
  884MOL0     O19236   0.014   7.531   7.669 -0.3907  0.1736  0.3667
  884MOL0     C19237   0.149   7.506   7.646 -0.3427  0.9984  0.1947
  884MOL0     C19238   0.232   7.619   7.638 -0.1253 -0.7988  0.0631
  884MOL0     C19239   0.377   7.607   7.630  0.0369  0.4846 -0.6513
  884MOL0     C19240   0.422   7.473   7.648  0.0158 -0.3927 -0.7475
  884MOL0     O19241   0.558   7.463   7.636 -0.4900 -0.0167  0.5147
  884MOL0     C19242   0.631   7.334   7.664  0.4531 -0.4828 -0.0177
  884MOL0     C19243   0.773   7.363   7.694 -0.2182  0.4005 -0.5117
  884MOL0     C19244   0.836   7.282   7.813  0.2058 -0.5686 -0.0022
  884MOL0     C19245   0.987   7.302   7.831 -0.4419  0.2254 -0.5868
  884MOL0     C19246   1.036   7.271   7.971  1.3439 -0.4192 -0.4327
  884MOL0     C19247   1.189   7.291   7.988  0.3499  0.1807 -0.6868
  884MOL0     C19248   1.224   7.290   8.137 -0.2329 -0.5565 -0.4050
  884MOL0     C19249   1.376   7.294   8.140 -0.1455 -0.4304 -0.0622
  884MOL0    Cl19250   1.455   7.274   8.299  0.0771 -0.2592 -0.3241
  884MOL0     C19251   0.342   7.364   7.640 -0.2767 -0.3237 -0.6922
  884MOL0     C19252   0.206   7.380   7.646  0.1733  0.9323 -0.2386
  884MOL0     O19253  -0.047   7.393   7.502  0.3040 -0.0362 -0.4448
  884MOL0     C19254  -0.297   7.380   7.637 -0.2922  0.2789  0.3157
  884MOL0     C19255  -0.424   7.386   7.698 -0.1970  0.3773  0.4128
  884MOL0     N19256  -1.186   7.215   8.150  0.3859 -0.3167 -0.1636
  884MOL0     N19257  -1.220   7.094   8.189  0.5560  0.2462 -0.5244
  884MOL0     C19258  -0.219   6.577   7.994 -0.5434 -0.2787  1.1285
  884MOL0     C19259  -0.089   6.543   7.976 -0.5280  0.4340 -0.2679
  884MOL0     C19260   0.353   6.462   7.941  0.2242 -0.8104  0.5838
  884MOL0     C19261   0.448   6.447   7.843  0.5949 -0.2357  0.3881
  884MOL0     C19262   0.584   6.416   7.868 -0.3716  0.9494 -0.5510
  884MOL0     C19263   0.625   6.395   8.003 -0.1858  0.2429 -0.1568
  884MOL0     O19264   0.746   6.350   8.053 -0.0055  0.3007  0.0103
  884MOL0     C19265   0.843   6.306   7.949 -0.0947 -0.2611 -0.8957
  884MOL0     C19266   0.966   6.257   8.020  0.4322 -0.5350  0.3567
  884MOL0     C19267   1.034   6.369   8.092  0.6269 -0.2811 -0.2920
  884MOL0     C19268   1.091   6.333   8.231 -0.4159  0.0292  0.2800
  884MOL0     C19269   0.987   6.314   8.326 -0.9816 -0.0769  0.2027
  884MOL0     C19270   0.898   6.288   8.403 -0.7305  0.7047  0.3754
  884MOL0     C19271   0.526   6.421   8.105 -0.5899  0.5133  0.1294
  884MOL0     C19272   0.397   6.461   8.072 -0.6640  0.3941 -0.2413
  884MOL0     H19273   0.061   6.822   8.068 -0.2334 -2.1073  2.2138
  884MOL0     H19274  -0.182   6.898   8.041  1.3343 -0.5540  1.7572
  884MOL0     H19275  -0.449   6.639   7.845 -2.3149  0.2456 -1.4328
  884MOL0     H19276  -0.487   6.571   8.008  0.1707  0.2070  0.6694
  884MOL0     H19277  -0.617   6.798   8.042  2.0510  1.1690  0.0209
  884MOL0     H19278  -0.631   6.796   7.861 -1.2281 -0.9111  0.5462
  884MOL0     H19279  -0.720   6.544   7.902 -2.2098 -0.3364  0.8341
  884MOL0     H19280  -0.751   6.601   8.059 -1.4604  2.7283  0.7371
  884MOL0     H19281  -0.841   6.812   7.898  2.1079  0.3733  0.7406
  884MOL0     H19282  -0.892   6.670   7.808  2.8952  1.2889 -1.2921
  884MOL0     H19283  -1.069   6.702   7.965  0.8022 -0.0847  0.5547
  884MOL0     H19284  -0.984   6.588   8.055 -0.1691 -0.1461 -1.3186
  884MOL0     H19285  -0.899   6.772   8.204 -1.4237 -1.6987 -0.5276
  884MOL0     H19286  -0.958   6.894   8.093 -0.7246  1.0731  0.8836
  884MOL0     H19287  -1.192   6.795   8.140  0.0738 -0.2896 -0.0565
  884MOL0     H19288  -1.118   6.697   8.272  0.8366 -0.9619 -0.4425
  884MOL0     H19289  -1.039   6.894   8.377 -2.8951  1.3213  2.6790
  884MOL0     H19290  -1.218   6.892   8.356 -0.8618 -3.7558 -1.2160
  884MOL0     H19291  -0.903   7.072   8.272  0.7319  1.2261  1.0609
  884MOL0     H19292  -1.032   7.414   8.085  1.6280  3.4145  2.5926
  884MOL0     H19293  -0.916   7.391   8.211  0.0493  2.1031 -1.4557
  884MOL0     H19294  -0.896   7.245   7.938  1.8553  1.8708 -2.4123
  884MOL0     H19295  -0.778   7.243   8.062 -0.4057 -0.4038 -0.2668
  884MOL0     H19296  -0.737   7.472   8.042  1.5477  0.0651 -0.1341
  884MOL0     H19297  -0.855   7.481   7.906 -0.9646 -0.5716  0.2746
  884MOL0     H19298  -0.702   7.334   7.775 -1.3563 -2.1152  0.6910
  884MOL0     H19299  -0.586   7.330   7.916 -1.1955  0.3646  2.4219
  884MOL0     H19300  -0.399   7.701   7.822 -0.4340  1.4638 -1.7779
  884MOL0     H19301  -0.102   7.719   7.811 -3.1533 -0.4170  2.0901
  884MOL0     H19302  -0.105   7.767   7.638  2.4670  3.6564  2.8236
  884MOL0     H19303  -0.233   7.808   7.760  1.6376  0.2821  3.9959
  884MOL0     H19304   0.188   7.718   7.650  0.7575 -0.5199  1.0726
  884MOL0     H19305   0.436   7.694   7.601 -3.3141  2.6976 -1.4643
  884MOL0     H19306   0.587   7.288   7.754  0.1222  2.0543  1.1939
  884MOL0     H19307   0.626   7.250   7.594 -3.8989  0.9275 -1.7554
  884MOL0     H19308   0.836   7.339   7.608  1.2598  1.6294  0.1837
  884MOL0     H19309   0.769   7.466   7.731  0.1254 -0.5156  2.3194
  884MOL0     H19310   0.822   7.175   7.797  3.9953 -1.3156  0.5982
  884MOL0     H19311   0.781   7.302   7.905  0.5241 -5.1659  1.4352
  884MOL0     H19312   1.034   7.234   7.759 -0.6097 -0.3545 -0.1582
  884MOL0     H19313   1.020   7.402   7.801  1.2354  0.0574  0.5415
  884MOL0     H19314   0.993   7.174   7.997 -4.0530  1.4016 -1.1957
  884MOL0     H19315   0.983   7.348   8.028 -2.0793  0.1649 -3.9561
  884MOL0     H19316   1.238   7.203   7.944 -0.2610 -0.0889 -0.8425
  884MOL0     H19317   1.220   7.384   7.940 -1.6791  1.1026 -0.3062
  884MOL0     H19318   1.184   7.209   8.198  2.1090 -0.8483  0.8349
  884MOL0     H19319   1.196   7.384   8.186 -0.9622 -0.9406 -0.0800
  884MOL0     H19320   1.415   7.388   8.101 -0.6038 -0.2894 -0.1867
  884MOL0     H19321   1.413   7.213   8.077  0.0607  0.0958 -0.6245
  884MOL0     H19322   0.377   7.262   7.650 -0.3517 -0.3368 -0.5540
  884MOL0     H19323   0.145   7.293   7.666  0.9412  0.0198 -1.6434
  884MOL0     H19324  -0.277   7.284   7.591  0.2269  0.3693  0.3463
  884MOL0     H19325  -0.479   7.292   7.705  1.0138 -0.3933 -0.0690
  884MOL0     H19326  -0.298   6.503   7.986 -0.2515 -0.4736 -0.1154
  884MOL0     H19327  -0.062   6.438   7.977 -0.8433  0.3456  1.1122
  884MOL0     H19328   0.425   6.482   7.743 -2.2799  0.4223  1.1879
  884MOL0     H19329   0.651   6.394   7.786 -1.3137  0.8212 -1.3078
  884MOL0     H19330   0.790   6.234   7.887 -0.9697 -0.1154 -0.3260
  884MOL0     H19331   0.867   6.392   7.886  0.1030 -0.5334 -1.1962
  884MOL0     H19332   1.034   6.211   7.948 -1.1348 -2.1103 -0.2027
  884MOL0     H19333   0.928   6.182   8.091 -3.3121  1.2230  0.4238
  884MOL0     H19334   0.963   6.450   8.111 -0.1099 -0.9129 -0.2678
  884MOL0     H19335   1.110   6.404   8.021  1.7544  1.2107  1.5593
  884MOL0     H19336   1.157   6.403   8.283  0.1988  0.1799 -0.6678
  884MOL0     H19337   1.144   6.238   8.233 -1.4797 -0.5688  2.3011
  884MOL0     H19338   0.817   6.251   8.463 -0.7658 -1.8659 -1.0726
  884MOL0     H19339   0.572   6.424   8.204  0.7508  0.0540 -0.4641
  884MOL0     H19340   0.329   6.484   8.153  0.3429 -1.6059  1.2708
  885MOL0     O19341   1.675   0.748   9.359 -0.2919 -0.0964 -0.2219
  885MOL0     C19342   1.727   0.815   9.274 -0.7208 -0.8173  0.0599
  885MOL0     O19343   1.663   0.850   9.160  0.3624 -0.2757  0.8752
  885MOL0     C19344   1.524   0.848   9.160  0.1164 -0.4946 -0.0288
  885MOL0     C19345   1.441   0.868   9.272  0.4235  0.6878  0.5491
  885MOL0     C19346   1.296   0.854   9.259 -0.1144  0.2308  0.1722
  885MOL0     C19347   1.235   0.837   9.137  0.0891  0.6809  0.3065
  885MOL0     O19348   1.098   0.817   9.138  0.0859  0.1418  0.1319
  885MOL0     C19349   1.030   0.781   9.016 -0.4220  0.3618  0.7160
  885MOL0     C19350   0.877   0.774   9.032 -0.8095  0.1372  0.4363
  885MOL0     C19351   0.802   0.720   8.908  0.5218 -1.0494 -0.4804
  885MOL0     C19352   0.652   0.730   8.942 -0.5555 -0.8015 -1.0015
  885MOL0     C19353   0.570   0.684   8.827  0.3926  0.1917 -0.5101
  885MOL0     C19354   0.427   0.680   8.875 -0.0982 -0.6916  0.1256
  885MOL0     C19355   0.337   0.655   8.757  0.4229  0.2050  0.3997
  885MOL0     C19356   0.301   0.786   8.686  0.2613 -0.0730  0.2026
  885MOL0     N19357   0.193   0.747   8.596 -0.0556 -0.2374 -0.6301
  885MOL0     C19358   0.081   0.816   8.569 -0.7548 -0.0744  0.5500
  885MOL0     C19359   0.007   0.720   8.510  0.5166  0.1907 -0.6590
  885MOL0     C19360  -0.137   0.734   8.499  0.2976 -0.0164  0.3220
  885MOL0     C19361  -0.195   0.837   8.403 -0.6505 -0.4587  0.0182
  885MOL0     C19362  -0.331   0.899   8.461 -0.7237  0.0473 -0.1370
  885MOL0     C19363  -0.398   1.014   8.376 -0.2257  0.0238  0.3644
  885MOL0     O19364  -0.468   0.973   8.254 -0.6815 -0.1486 -1.1097
  885MOL0     C19365  -0.603   0.952   8.256 -0.2281 -0.3861 -1.2433
  885MOL0     C19366  -0.674   0.941   8.138 -0.4068 -0.2198 -0.5282
  885MOL0     C19367  -0.810   0.901   8.139 -0.4104 -1.0669  0.0866
  885MOL0     C19368  -0.879   0.867   8.008  0.4832 -0.0117 -0.2051
  885MOL0     C19369  -0.887   0.885   8.256 -0.7451 -0.0605 -0.2840
  885MOL0     C19370  -1.028   0.843   8.272  0.4613 -0.0521  1.0113
  885MOL0     O19371  -1.073   0.811   8.403  0.2953  0.3390 -0.7062
  885MOL0     C19372  -1.205   0.846   8.438 -0.2238  0.3816  0.4339
  885MOL0     C19373  -1.318   0.797   8.365 -0.7448  0.6205 -0.3505
  885MOL0     C19374  -1.443   0.844   8.385  0.0798 -0.0132  0.1167
  885MOL0     C19375  -1.465   0.936   8.487 -0.3042 -0.8065  0.0916
  885MOL0     O19376  -1.585   0.991   8.501 -0.0022 -0.3966 -0.1609
  885MOL0     C19377  -1.647   0.993   8.633  0.5663  0.3763 -0.4019
  885MOL0     C19378  -1.679   0.856   8.697 -0.4824 -0.6677  0.6286
  885MOL0     C19379  -1.749   0.875   8.831  0.5804  0.0661  0.7037
  885MOL0     C19380  -1.794   0.743   8.900 -0.1471 -0.2139  0.0243
  885MOL0     C19381  -1.874   0.785   9.030 -0.1246  0.2384  0.3926
  885MOL0     C19382  -1.925   0.659   9.104 -0.2063 -0.2273  0.4273
  885MOL0     C19383  -1.982   0.684   9.239 -0.6762  0.5018 -0.4455
  885MOL0     C19384  -2.065   0.566   9.298 -0.1416 -0.3733 -1.3138
  885MOL0    Cl19385  -1.968   0.421   9.344 -0.2043 -0.2214  0.4476
  885MOL0     C19386  -1.357   1.004   8.542 -0.0172  0.2791 -0.7253
  885MOL0     C19387  -1.230   0.951   8.534 -0.2765  0.2274  0.7755
  885MOL0     O19388  -1.104   0.882   8.181 -0.2024 -0.2661 -0.0785
  885MOL0     C19389  -0.808   0.895   8.380 -0.5222  0.3387  0.1797
  885MOL0     C19390  -0.674   0.932   8.375  0.4693 -0.0422 -0.1034
  885MOL0     N19391   0.084   0.613   8.474 -0.1973  0.0943 -0.0363
  885MOL0     N19392   0.199   0.644   8.513 -0.3760  0.4696 -0.6430
  885MOL0     C19393   1.317   0.811   9.023  0.3127 -0.0262 -0.0233
  885MOL0     C19394   1.461   0.821   9.036 -0.3143 -0.2390 -0.3295
  885MOL0     C19395   1.867   0.872   9.294  0.4028  0.8385  0.0145
  885MOL0     C19396   1.943   0.838   9.410 -0.0343  0.2488 -0.2098
  885MOL0     C19397   2.077   0.890   9.426 -0.1391  0.6736 -0.1707
  885MOL0     C19398   2.130   0.966   9.315 -1.1306  0.2027  0.2311
  885MOL0     O19399   2.258   0.992   9.294 -0.1582  0.6451  0.4241
  885MOL0     C19400   2.365   0.937   9.377 -0.5884  0.5784 -0.3732
  885MOL0     C19401   2.498   0.931   9.303  0.4822  0.4044 -0.4481
  885MOL0     C19402   2.592   0.832   9.366 -0.8208 -0.1617 -0.2869
  885MOL0     C19403   2.736   0.860   9.380  0.6404 -0.1966 -0.2271
  885MOL0     C19404   2.789   0.872   9.242  0.1949 -0.4051 -0.7233
  885MOL0     C19405   2.835   0.883   9.129  0.5689  0.7515 -0.4240
  885MOL0     C19406   2.045   1.014   9.218 -0.3160 -0.1708  1.0222
  885MOL0     C19407   1.914   0.975   9.204  0.9101 -0.3121 -0.2616
  885MOL0     H19408   1.489   0.896   9.366  2.4805 -0.1161 -0.2010
  885MOL0     H19409   1.242   0.867   9.352 -1.3482 -0.3646 -0.4266
  885MOL0     H19410   1.052   0.855   8.938  0.1037 -0.4986  0.0287
  885MOL0     H19411   1.069   0.686   8.979 -0.8065  0.1513  0.8530
  885MOL0     H19412   0.847   0.722   9.123 -0.0295 -0.2176  0.4989
  885MOL0     H19413   0.855   0.880   9.045  1.7562  0.4563  3.6716
  885MOL0     H19414   0.831   0.785   8.825 -0.5412 -0.5308 -0.4585
  885MOL0     H19415   0.822   0.616   8.878 -3.4718 -1.7460 -1.2515
  885MOL0     H19416   0.638   0.659   9.024  2.0540 -0.3638 -0.1140
  885MOL0     H19417   0.617   0.829   8.971 -2.3146 -1.2010 -1.5909
  885MOL0     H19418   0.582   0.758   8.748  0.7512  2.1904  1.3214
  885MOL0     H19419   0.603   0.587   8.789 -0.0364 -0.7096  1.3059
  885MOL0     H19420   0.422   0.604   8.954  0.7105 -0.0464  0.8050
  885MOL0     H19421   0.396   0.775   8.919  0.0655 -0.4705 -0.2257
  885MOL0     H19422   0.378   0.578   8.690 -0.1236 -1.2520  1.6864
  885MOL0     H19423   0.240   0.615   8.786  0.3512  0.2921  0.2787
  885MOL0     H19424   0.388   0.839   8.647 -1.1409  1.6244 -0.7478
  885MOL0     H19425   0.256   0.858   8.755  0.0838 -0.0255  0.0391
  885MOL0     H19426   0.040   0.911   8.600 -1.5557 -0.8357  1.9027
  885MOL0     H19427  -0.177   0.637   8.468  3.7051 -1.5395  0.3514
  885MOL0     H19428  -0.179   0.755   8.598 -2.3832  0.0438 -0.7217
  885MOL0     H19429  -0.210   0.812   8.298 -1.8238  1.2033 -0.2621
  885MOL0     H19430  -0.131   0.925   8.416 -0.3851 -0.8996  1.9950
  885MOL0     H19431  -0.312   0.932   8.564  2.1883  0.3025 -0.6610
  885MOL0     H19432  -0.401   0.816   8.449 -1.1140  0.7231 -3.5734
  885MOL0     H19433  -0.325   1.090   8.346 -0.6176  1.4456  2.7867
  885MOL0     H19434  -0.469   1.064   8.443 -1.3481  0.3864 -1.0428
  885MOL0     H19435  -0.609   0.947   8.051  1.8638  1.7265  1.1583
  885MOL0     H19436  -0.959   0.941   7.999 -0.2085  0.0346  4.1111
  885MOL0     H19437  -0.817   0.883   7.919  0.0945  0.3746 -0.4069
  885MOL0     H19438  -0.927   0.769   8.017 -1.1389  0.7996  0.2653
  885MOL0     H19439  -1.288   0.722   8.292  2.4052 -0.2620  1.6399
  885MOL0     H19440  -1.518   0.789   8.329  1.5763 -2.8723  0.6929
  885MOL0     H19441  -1.587   1.053   8.702  0.1766 -2.1974  2.4054
  885MOL0     H19442  -1.741   1.046   8.615 -0.0350 -1.2501 -2.3345
  885MOL0     H19443  -1.741   0.797   8.629  2.5940 -1.8455 -1.3954
  885MOL0     H19444  -1.593   0.792   8.718  1.6071  0.2905 -3.7141
  885MOL0     H19445  -1.841   0.932   8.817  1.4180  1.1495 -0.5648
  885MOL0     H19446  -1.677   0.925   8.897  2.9059 -0.8026 -1.0705
  885MOL0     H19447  -1.848   0.685   8.825  0.0032  0.6502 -0.7702
  885MOL0     H19448  -1.702   0.691   8.927  1.6504  2.3372 -0.7599
  885MOL0     H19449  -1.964   0.837   8.997  0.3562  0.2381 -0.9964
  885MOL0     H19450  -1.808   0.847   9.091  0.7810 -1.0228  0.7505
  885MOL0     H19451  -2.000   0.611   9.040  0.5177 -1.6391  0.6016
  885MOL0     H19452  -1.838   0.594   9.117  1.1019  1.9244  3.4862
  885MOL0     H19453  -2.054   0.767   9.237 -2.5736 -0.9470  1.9687
  885MOL0     H19454  -1.908   0.708   9.316 -0.3464 -1.7728 -0.0071
  885MOL0     H19455  -2.140   0.536   9.224 -0.2406 -0.6908 -1.0875
  885MOL0     H19456  -2.116   0.600   9.388  2.9446  0.1108  0.3890
  885MOL0     H19457  -1.364   1.098   8.596  1.9780 -0.9583  1.9026
  885MOL0     H19458  -1.153   1.003   8.590  0.3140  0.7435 -0.4821
  885MOL0     H19459  -0.863   0.869   8.470 -3.3595  0.7023 -1.2996
  885MOL0     H19460  -0.616   0.936   8.466  1.5121  1.1320 -0.7886
  885MOL0     H19461   1.269   0.784   8.930  0.1460 -3.2486  0.8829
  885MOL0     H19462   1.529   0.799   8.955  1.7422 -1.3054  1.5781
  885MOL0     H19463   1.906   0.764   9.480 -1.6624 -1.2547 -2.5346
  885MOL0     H19464   2.144   0.858   9.506  0.1961  2.8092  0.4727
  885MOL0     H19465   2.381   1.005   9.461 -1.8032  1.5930 -0.9273
  885MOL0     H19466   2.343   0.837   9.416  0.8343  0.3902  0.0111
  885MOL0     H19467   2.537   1.034   9.303 -3.8880  2.2622 -1.3332
  885MOL0     H19468   2.491   0.907   9.197 -0.2946 -4.0668  0.4505
  885MOL0     H19469   2.590   0.735   9.317  4.1263  0.2672 -1.9046
  885MOL0     H19470   2.553   0.805   9.465 -1.6410  1.1027 -0.2453
  885MOL0     H19471   2.778   0.774   9.432  0.1316 -2.0903 -2.7476
  885MOL0     H19472   2.765   0.950   9.434  2.6614 -1.0885  0.2767
  885MOL0     H19473   2.873   0.902   9.030 -3.2140  0.9198 -2.0362
  885MOL0     H19474   2.083   1.087   9.147  2.5034 -1.2039  1.3388
  885MOL0     H19475   1.857   1.012   9.119  5.1030  1.3218 -2.7292
  886MOL0     O19476   7.786   6.290   8.198 -0.2307 -0.4107  0.1631
  886MOL0     C19477   7.768   6.413   8.207 -0.6096 -0.4797 -0.1287
  886MOL0     O19478   7.649   6.485   8.202 -0.5041  0.2072 -0.0207
  886MOL0     C19479   7.538   6.407   8.215 -1.3504 -0.7619 -0.2985
  886MOL0     C19480   7.514   6.310   8.113 -0.2759 -0.3522  0.3266
  886MOL0     C19481   7.412   6.214   8.125  0.5812 -0.6398  0.2159
  886MOL0     C19482   7.327   6.230   8.238 -1.1798  0.1714  0.3967
  886MOL0     O19483   7.218   6.152   8.253  0.2172  0.0935 -0.1547
  886MOL0     C19484   7.122   6.153   8.140 -0.5465  0.2611  0.0809
  886MOL0     C19485   7.136   6.011   8.069 -0.2174 -0.7117 -0.3211
  886MOL0     C19486   7.107   6.012   7.923  0.0580  1.8854 -0.5676
  886MOL0     C19487   6.968   5.932   7.884 -0.8291 -0.0464 -0.1107
  886MOL0     C19488   6.940   5.962   7.737  0.0204 -0.7666  0.2028
  886MOL0     C19489   6.807   5.895   7.683 -0.4245  0.3304  0.0124
  886MOL0     C19490   6.787   5.952   7.540 -0.3631 -0.7183 -0.0735
  886MOL0     C19491   6.655   5.930   7.482  0.8784  0.1909  0.7298
  886MOL0     N19492   6.647   6.009   7.347 -0.9583  0.2389 -0.4304
  886MOL0     C19493   6.698   5.961   7.223 -0.6304 -0.0954  0.2278
  886MOL0     C19494   6.670   6.067   7.134  0.4829  0.3830  0.3861
  886MOL0     C19495   6.710   6.082   6.991 -0.0097  0.0811  0.8045
  886MOL0     C19496   6.637   5.979   6.891  0.6738 -0.4430 -0.4070
  886MOL0     C19497   6.701   5.967   6.745 -0.2074  1.1110 -0.3344
  886MOL0     C19498   6.603   5.933   6.641 -0.0733 -0.9698 -0.2331
  886MOL0     O19499   6.513   5.831   6.681  0.2162 -0.1977 -0.4982
  886MOL0     C19500   6.385   5.846   6.636  0.7603 -0.1891  0.0218
  886MOL0     C19501   6.289   5.812   6.722  0.5264 -0.2714  0.5726
  886MOL0     C19502   6.153   5.813   6.697 -0.0176 -0.3822  0.6940
  886MOL0     C19503   6.051   5.794   6.800  0.9320 -0.1693  0.7152
  886MOL0     C19504   6.112   5.854   6.570  0.0827 -0.3158 -0.2080
  886MOL0     C19505   5.969   5.871   6.542  0.9646 -0.0632 -0.6189
  886MOL0     O19506   5.930   5.996   6.521  0.2916  0.0517 -0.7484
  886MOL0     C19507   5.796   6.018   6.517  0.5666 -0.8614  0.5421
  886MOL0     C19508   5.710   6.018   6.636  0.1562 -0.1383  0.1036
  886MOL0     C19509   5.577   6.067   6.625  0.0843  1.1610  0.3218
  886MOL0     C19510   5.519   6.089   6.498  0.2926 -0.6371 -0.7402
  886MOL0     O19511   5.382   6.106   6.508  0.7064  0.0879 -0.0494
  886MOL0     C19512   5.318   6.160   6.388  0.5967 -0.3239 -0.0113
  886MOL0     C19513   5.286   6.051   6.289  0.2130 -0.0895  0.8252
  886MOL0     C19514   5.148   5.997   6.322  1.0374 -0.2234 -0.3447
  886MOL0     C19515   5.025   6.076   6.277 -0.4300 -0.3648 -0.0901
  886MOL0     C19516   4.894   6.005   6.303 -0.4473 -0.1857  0.0027
  886MOL0     C19517   4.853   5.973   6.452 -1.0828 -0.5998 -0.3197
  886MOL0     C19518   4.861   6.086   6.550 -0.7916  0.2169 -0.4221
  886MOL0     C19519   4.830   6.040   6.687  1.1017 -0.7115 -1.0141
  886MOL0    Cl19520   4.941   5.921   6.750  0.3643  0.3936  0.3084
  886MOL0     C19521   5.605   6.078   6.387 -0.5573  0.0611 -0.3203
  886MOL0     C19522   5.738   6.058   6.394 -0.0084 -0.9188 -0.5578
  886MOL0     O19523   5.899   5.772   6.522 -0.6142 -0.8152 -0.0075
  886MOL0     C19524   6.206   5.908   6.475  1.4837 -0.2084 -0.9279
  886MOL0     C19525   6.344   5.903   6.509  0.4082  0.3701  0.2211
  886MOL0     N19526   6.605   6.171   7.199 -0.1062  0.8052  0.1159
  886MOL0     N19527   6.585   6.129   7.321  0.4675 -0.3252  0.2109
  886MOL0     C19528   7.345   6.332   8.326  0.0164 -0.5769  0.3292
  886MOL0     C19529   7.449   6.424   8.326  0.1071  0.5132  1.2208
  886MOL0     C19530   7.879   6.503   8.233 -0.6279  0.8550  0.2857
  886MOL0     C19531   7.867   6.620   8.292  0.1927  0.0510 -0.6518
  886MOL0     C19532   7.981   6.696   8.338  0.1226 -0.3180 -0.2095
  886MOL0     C19533   8.109   6.664   8.302 -0.2518 -0.7354 -1.1561
  886MOL0     O19534   8.219   6.747   8.338  0.4749  1.0367 -0.0118
  886MOL0     C19535   8.326   6.733   8.248 -0.0030  0.2260 -0.4341
  886MOL0     C19536   8.410   6.854   8.245 -0.3165 -0.3183  0.0077
  886MOL0     C19537   8.532   6.847   8.154 -0.9749 -0.1715  0.3733
  886MOL0     C19538   8.505   6.888   8.006  0.4491  0.2591 -0.5562
  886MOL0     C19539   8.434   6.779   7.937 -0.3056  0.7214 -0.6555
  886MOL0     C19540   8.369   6.698   7.876  0.4551  0.9720 -0.7416
  886MOL0     C19541   8.123   6.534   8.239  0.2570  0.9598  1.0080
  886MOL0     C19542   8.010   6.459   8.209  0.5032 -0.2589 -0.2122
  886MOL0     H19543   7.583   6.305   8.030  0.6041 -1.5787  1.0991
  886MOL0     H19544   7.391   6.138   8.051  1.0023 -0.1645 -0.4128
  886MOL0     H19545   7.020   6.170   8.178 -1.3822 -1.7787 -1.0857
  886MOL0     H19546   7.142   6.234   8.071 -0.4333  0.0437 -0.1422
  886MOL0     H19547   7.240   5.981   8.087 -0.4327 -0.3967  1.6562
  886MOL0     H19548   7.070   5.942   8.123 -0.7402  2.1240  2.9968
  886MOL0     H19549   7.105   6.116   7.890 -1.5248  2.3796  0.9568
  886MOL0     H19550   7.189   5.955   7.877  0.5544  2.1640 -0.0341
  886MOL0     H19551   6.982   5.827   7.908  1.6960  0.2267 -0.0744
  886MOL0     H19552   6.893   5.982   7.946 -0.0184  2.1469 -0.7717
  886MOL0     H19553   6.932   6.070   7.721 -0.4614 -0.3394  2.7388
  886MOL0     H19554   7.017   5.918   7.674 -1.1137  2.0083 -3.4524
  886MOL0     H19555   6.808   5.788   7.702  0.1243  0.6359  2.0263
  886MOL0     H19556   6.715   5.930   7.731 -2.0713 -0.2359 -2.5752
  886MOL0     H19557   6.801   6.060   7.546  1.5118 -0.8152 -1.7261
  886MOL0     H19558   6.871   5.919   7.479 -2.3748  0.5697 -3.8686
  886MOL0     H19559   6.575   5.969   7.545  0.1104 -2.0590  1.2144
  886MOL0     H19560   6.648   5.822   7.464  0.6888  0.2784  0.2457
  886MOL0     H19561   6.741   5.866   7.196 -2.0991 -0.3505 -1.4190
  886MOL0     H19562   6.687   6.184   6.960 -0.4330 -0.1675  0.3030
  886MOL0     H19563   6.819   6.070   6.983  0.2883  1.9435  1.5220
  886MOL0     H19564   6.536   6.016   6.873  0.6279 -0.6828 -0.6508
  886MOL0     H19565   6.634   5.880   6.937 -1.2705  0.3986  1.4696
  886MOL0     H19566   6.766   5.879   6.743 -1.2047  0.3421 -3.4451
  886MOL0     H19567   6.763   6.055   6.728  0.7525  1.1574  2.6818
  886MOL0     H19568   6.656   5.904   6.550 -0.6233  0.4850 -1.0577
  886MOL0     H19569   6.549   6.025   6.618 -4.0507 -2.2718  2.7431
  886MOL0     H19570   6.323   5.764   6.813  0.2680 -1.0275  0.2762
  886MOL0     H19571   5.990   5.704   6.790 -1.8001  1.6902 -0.8237
  886MOL0     H19572   6.099   5.793   6.898  0.3744  1.9066  1.0549
  886MOL0     H19573   5.988   5.884   6.800  0.0499 -0.7705  1.4551
  886MOL0     H19574   5.751   5.998   6.735 -0.9839 -0.4714  0.5253
  886MOL0     H19575   5.511   6.089   6.708 -0.3004  2.0225 -0.2022
  886MOL0     H19576   5.229   6.217   6.417  0.5172 -0.8772  0.8687
  886MOL0     H19577   5.381   6.227   6.329 -0.3605  2.7685  2.2327
  886MOL0     H19578   5.293   6.083   6.184 -1.0473  0.4259  0.8856
  886MOL0     H19579   5.359   5.971   6.303 -0.7176 -1.5224 -1.9219
  886MOL0     H19580   5.139   5.981   6.430  1.0543 -1.0512 -0.4562
  886MOL0     H19581   5.137   5.898   6.275  0.0263  0.1962 -1.0221
  886MOL0     H19582   5.022   6.178   6.316 -0.9162 -0.5304  0.3121
  886MOL0     H19583   5.030   6.082   6.167 -0.4153 -0.6089 -0.1033
  886MOL0     H19584   4.897   5.921   6.233  0.0210 -0.4881  0.3758
  886MOL0     H19585   4.805   6.055   6.263 -1.7305 -3.2972 -1.3798
  886MOL0     H19586   4.747   5.945   6.453 -0.9523 -1.0977  0.5075
  886MOL0     H19587   4.909   5.885   6.486 -0.9148  0.4531  2.3835
  886MOL0     H19588   4.796   6.168   6.519  3.4623  3.6416 -1.3062
  886MOL0     H19589   4.965   6.122   6.554 -0.0659 -1.2787 -3.4617
  886MOL0     H19590   4.727   6.001   6.688  2.2935 -4.1800 -0.8624
  886MOL0     H19591   4.846   6.119   6.761 -0.2468 -1.5526  0.2343
  886MOL0     H19592   5.558   6.087   6.290  2.4025  1.7198 -1.7388
  886MOL0     H19593   5.798   6.057   6.304 -1.4957  1.4815 -1.6831
  886MOL0     H19594   6.166   5.954   6.385  0.3224  3.1222  1.0950
  886MOL0     H19595   6.419   5.951   6.447  2.9005 -0.3565  2.4716
  886MOL0     H19596   7.275   6.325   8.409  0.9463  0.4589  1.2461
  886MOL0     H19597   7.468   6.494   8.407  0.1378 -0.4533  2.0745
  886MOL0     H19598   7.772   6.657   8.329  0.6913  2.7257 -1.8746
  886MOL0     H19599   7.962   6.787   8.393 -0.6313  0.1433 -1.2002
  886MOL0     H19600   8.383   6.644   8.274  0.5405  0.9384  0.8791
  886MOL0     H19601   8.283   6.719   8.148  0.4202  2.4108 -0.9874
  886MOL0     H19602   8.452   6.867   8.345 -1.2046 -1.3848  0.5465
  886MOL0     H19603   8.347   6.941   8.222  0.1229  0.2020  0.7353
  886MOL0     H19604   8.574   6.746   8.150  1.5540  0.7940  0.7634
  886MOL0     H19605   8.608   6.917   8.191 -0.8269  0.8893 -1.7783
  886MOL0     H19606   8.597   6.912   7.950 -1.5722  3.2632 -2.9153
  886MOL0     H19607   8.441   6.976   8.011  1.8859  1.3085  0.2809
  886MOL0     H19608   8.298   6.626   7.839 -1.9527  1.7564  1.9620
  886MOL0     H19609   8.215   6.485   8.209 -0.8405  0.5448 -2.0035
  886MOL0     H19610   8.030   6.358   8.174  0.6462 -0.3141  0.0261
  887MOL0     O19611   7.637   9.698   5.994  0.0220  0.3051  0.3321
  887MOL0     C19612   7.720   9.672   6.082 -0.1012 -0.2303 -0.6935
  887MOL0     O19613   7.697   9.622   6.204  0.0617 -0.2931  0.0628
  887MOL0     C19614   7.579   9.570   6.248 -0.4768 -0.2066 -0.8853
  887MOL0     C19615   7.578   9.462   6.339 -0.9644  0.1399  0.3546
  887MOL0     C19616   7.454   9.407   6.383  0.1921 -0.0650  0.1766
  887MOL0     C19617   7.334   9.444   6.333  0.6654  0.1715 -0.2688
  887MOL0     O19618   7.224   9.373   6.369  0.1140  0.3748 -0.0798
  887MOL0     C19619   7.095   9.433   6.375  0.7661  0.1498  0.6171
  887MOL0     C19620   7.017   9.351   6.476  0.8347  0.2934 -0.5646
  887MOL0     C19621   6.867   9.392   6.475 -0.3819  0.1984  0.3905
  887MOL0     C19622   6.790   9.338   6.597  0.5634  0.7645 -0.0614
  887MOL0     C19623   6.719   9.453   6.669  0.1484 -0.4530 -0.0158
  887MOL0     C19624   6.639   9.422   6.794  0.2809  0.3112 -0.4439
  887MOL0     C19625   6.510   9.332   6.763 -0.6690  0.0114  0.1958
  887MOL0     C19626   6.403   9.395   6.684  0.6320 -1.0500 -0.1256
  887MOL0     N19627   6.286   9.316   6.659 -0.1809 -0.1870  0.1055
  887MOL0     C19628   6.200   9.245   6.735  0.4657 -1.2541 -0.8864
  887MOL0     C19629   6.109   9.183   6.654  0.2663  0.3191 -0.6913
  887MOL0     C19630   5.974   9.116   6.691  0.3059 -0.2239 -0.3764
  887MOL0     C19631   5.866   9.163   6.594 -0.3680  0.2364 -0.7691
  887MOL0     C19632   5.735   9.086   6.619  0.3648  0.3161 -0.2449
  887MOL0     C19633   5.640   9.156   6.525  1.6057  0.0466 -0.4306
  887MOL0     O19634   5.513   9.120   6.581 -0.3515 -0.8989  0.5183
  887MOL0     C19635   5.402   9.185   6.533  0.6580  0.4023 -0.4572
  887MOL0     C19636   5.369   9.204   6.401  0.2971  0.0821 -0.0002
  887MOL0     C19637   5.249   9.267   6.358 -0.3065  0.6916  0.9980
  887MOL0     C19638   5.227   9.287   6.206 -1.4316  0.4537 -0.3360
  887MOL0     C19639   5.143   9.285   6.451 -0.4335 -0.1999 -0.0499
  887MOL0     C19640   5.002   9.333   6.424 -0.9088  0.0295 -0.5340
  887MOL0     O19641   4.927   9.351   6.533 -0.1125 -0.0391 -0.5406
  887MOL0     C19642   4.789   9.374   6.528 -0.5123  1.0177  0.5320
  887MOL0     C19643   4.695   9.328   6.434 -0.5898  0.3809  0.0580
  887MOL0     C19644   4.566   9.372   6.440 -0.2315 -0.2743  0.1018
  887MOL0     C19645   4.527   9.464   6.536 -0.4557  0.0259 -0.6577
  887MOL0     O19646   4.400   9.506   6.556 -0.0786 -0.2659 -0.2792
  887MOL0     C19647   4.298   9.427   6.498  0.2474  1.2882  0.8833
  887MOL0     C19648   4.164   9.496   6.498  0.5047  0.3706  0.2942
  887MOL0     C19649   4.089   9.478   6.632  1.1587 -0.7058 -0.6488
  887MOL0     C19650   3.943   9.544   6.636 -0.1961  0.4140 -0.3043
  887MOL0     C19651   3.859   9.545   6.765 -0.4047  0.4656  1.6594
  887MOL0     C19652   3.711   9.588   6.742 -0.7220 -0.3913 -0.3619
  887MOL0     C19653   3.637   9.597   6.876 -0.3007  0.6516 -0.3271
  887MOL0     C19654   3.481   9.599   6.860 -0.5436 -0.7295  0.6316
  887MOL0    Cl19655   3.413   9.619   7.022  0.0567  0.2618 -0.3138
  887MOL0     C19656   4.615   9.504   6.640  0.9880  1.1998  0.2670
  887MOL0     C19657   4.749   9.453   6.638 -0.0007 -0.0867  0.3160
  887MOL0     O19658   4.966   9.357   6.309 -0.2215 -0.2570 -0.6151
  887MOL0     C19659   5.175   9.269   6.592  0.5167  0.2079  0.4105
  887MOL0     C19660   5.302   9.224   6.634 -0.1134 -0.4220  0.6072
  887MOL0     N19661   6.150   9.221   6.532 -0.2817 -0.4275 -0.0786
  887MOL0     N19662   6.245   9.302   6.527 -0.3113 -0.7348  0.8512
  887MOL0     C19663   7.330   9.547   6.241 -0.6375  0.7106 -0.7779
  887MOL0     C19664   7.448   9.613   6.204 -0.1289 -0.0768  0.2777
  887MOL0     C19665   7.859   9.698   6.044 -0.9747  0.6680  0.2108
  887MOL0     C19666   7.968   9.662   6.129 -0.5887  0.5541  0.2489
  887MOL0     C19667   8.106   9.695   6.101 -0.4700 -0.3214 -0.7413
  887MOL0     C19668   8.132   9.768   5.982 -0.1752  1.0100  0.2324
  887MOL0     O19669   8.267   9.797   5.952 -0.1000 -0.2937  0.0502
  887MOL0     C19670   8.302   9.818   5.813  1.0788  0.9329  0.9000
  887MOL0     C19671   8.334   9.959   5.808  0.0875 -1.0758 -0.0162
  887MOL0     C19672   8.389   9.990   5.676 -0.2146  0.1303  0.2035
  887MOL0     C19673   8.411  10.133   5.645 -1.6632 -0.6825 -0.9629
  887MOL0     C19674   8.458  10.155   5.514  0.9018  0.0566  0.2182
  887MOL0     C19675   8.492  10.173   5.401 -0.0571  0.1090  0.1221
  887MOL0     C19676   8.022   9.808   5.899  0.4003 -0.7502  0.0739
  887MOL0     C19677   7.894   9.769   5.930 -0.4933 -0.2052 -0.0414
  887MOL0     H19678   7.677   9.429   6.368 -1.1927 -0.7584  0.1623
  887MOL0     H19679   7.439   9.334   6.462  3.5276 -0.4450  0.6200
  887MOL0     H19680   7.100   9.537   6.407 -2.5274  0.4016  0.6647
  887MOL0     H19681   7.054   9.433   6.273  2.1800 -1.1245  0.0034
  887MOL0     H19682   7.037   9.246   6.457 -0.0175  0.3567 -1.9069
  887MOL0     H19683   7.062   9.367   6.575  0.2212  1.2477 -0.4168
  887MOL0     H19684   6.854   9.501   6.468 -1.4790  0.0058 -1.3744
  887MOL0     H19685   6.816   9.358   6.384  1.5968 -1.4708 -0.1705
  887MOL0     H19686   6.713   9.264   6.573  1.1416  0.3150 -0.5434
  887MOL0     H19687   6.858   9.288   6.666 -1.8110 -4.0494 -0.8029
  887MOL0     H19688   6.794   9.527   6.697  0.6025 -2.0994  3.7500
  887MOL0     H19689   6.653   9.504   6.598  1.5765  2.1689  0.4085
  887MOL0     H19690   6.701   9.387   6.877  0.8321  2.2447  0.0185
  887MOL0     H19691   6.593   9.512   6.836  0.8842 -0.8893  3.1657
  887MOL0     H19692   6.549   9.246   6.707  0.5619  0.1905  0.7517
  887MOL0     H19693   6.467   9.290   6.854  0.3481 -0.4553  0.4793
  887MOL0     H19694   6.441   9.449   6.596 -2.3101  0.7321 -0.4448
  887MOL0     H19695   6.368   9.473   6.752  0.6124 -0.0594 -1.2414
  887MOL0     H19696   6.199   9.242   6.844  2.0005  1.1743 -0.7130
  887MOL0     H19697   5.978   9.007   6.687  1.1757 -0.2028 -0.2212
  887MOL0     H19698   5.941   9.136   6.793 -1.2073 -1.0832 -0.6624
  887MOL0     H19699   5.892   9.162   6.487 -2.2162 -0.1050 -1.2559
  887MOL0     H19700   5.856   9.267   6.625 -0.2712 -0.7092  2.9417
  887MOL0     H19701   5.705   9.100   6.723  1.2709  0.2099  0.0368
  887MOL0     H19702   5.739   8.981   6.587  0.3115  0.5725 -1.1351
  887MOL0     H19703   5.653   9.113   6.425 -1.0872  1.3117 -1.4118
  887MOL0     H19704   5.653   9.264   6.525 -0.2220  0.2996 -0.9232
  887MOL0     H19705   5.446   9.181   6.328  0.1783  1.7609 -0.7151
  887MOL0     H19706   5.134   9.250   6.163 -0.8639  0.8352 -1.9832
  887MOL0     H19707   5.218   9.392   6.177  0.9991  1.1103  0.9850
  887MOL0     H19708   5.316   9.243   6.160  0.3020 -1.9113  4.5793
  887MOL0     H19709   4.737   9.265   6.357 -1.0163 -1.4906  1.3125
  887MOL0     H19710   4.487   9.345   6.370 -2.3559  2.0286  1.4561
  887MOL0     H19711   4.319   9.419   6.391 -1.3676 -1.8788  0.6841
  887MOL0     H19712   4.292   9.323   6.531  0.0201  0.4559 -1.5386
  887MOL0     H19713   4.170   9.604   6.482  1.1915  0.6414  2.0642
  887MOL0     H19714   4.100   9.462   6.417 -1.6026  1.0582  1.6074
  887MOL0     H19715   4.153   9.516   6.713  0.5225  2.4837 -1.5076
  887MOL0     H19716   4.073   9.371   6.653  5.6011 -1.1260  1.8016
  887MOL0     H19717   3.946   9.648   6.602 -0.5531  0.3796 -0.4463
  887MOL0     H19718   3.897   9.480   6.560  0.7089 -1.2692  0.5077
  887MOL0     H19719   3.913   9.620   6.824  2.0415  0.0504  0.0502
  887MOL0     H19720   3.855   9.446   6.812  0.4220 -0.2875  0.1980
  887MOL0     H19721   3.711   9.686   6.694 -1.5821 -0.0057  0.4120
  887MOL0     H19722   3.664   9.514   6.676  0.2175 -1.3440  0.0063
  887MOL0     H19723   3.668   9.681   6.939  0.9491 -1.4961  2.1261
  887MOL0     H19724   3.663   9.508   6.935  0.0392 -0.6586 -2.3397
  887MOL0     H19725   3.450   9.499   6.830 -0.8205 -0.9809  1.7327
  887MOL0     H19726   3.446   9.683   6.799 -1.0478 -1.6765 -0.4131
  887MOL0     H19727   4.568   9.566   6.716 -3.7961  0.0624 -1.3664
  887MOL0     H19728   4.815   9.472   6.722  0.6645  2.9866 -0.7799
  887MOL0     H19729   5.099   9.297   6.665 -1.8770  1.5558 -2.4221
  887MOL0     H19730   5.336   9.222   6.737  2.8914  0.3791 -0.2503
  887MOL0     H19731   7.237   9.587   6.201  0.0043  0.9510 -2.1102
  887MOL0     H19732   7.430   9.693   6.133  1.1987  0.0240  0.0202
  887MOL0     H19733   7.941   9.626   6.228  1.7810  0.0118  0.7562
  887MOL0     H19734   8.193   9.670   6.162  0.6610 -1.1630 -2.6159
  887MOL0     H19735   8.390   9.755   5.795 -1.2167 -1.9808 -0.9643
  887MOL0     H19736   8.233   9.795   5.731  2.6140  2.2189 -0.8714
  887MOL0     H19737   8.400   9.977   5.893 -2.5527 -1.2936  2.2058
  887MOL0     H19738   8.248  10.023   5.829  2.2711  2.0149  0.2366
  887MOL0     H19739   8.323   9.958   5.595  0.6661  0.3251 -0.6190
  887MOL0     H19740   8.478   9.928   5.662  1.0884  1.7394  0.9418
  887MOL0     H19741   8.487  10.173   5.713  1.4496 -3.4718 -2.4762
  887MOL0     H19742   8.313  10.180   5.651 -2.3439 -2.2088  1.6351
  887MOL0     H19743   8.527  10.188   5.301 -1.1777  0.3337 -0.2450
  887MOL0     H19744   8.023   9.871   5.810 -0.6349  1.1621  1.3571
  887MOL0     H19745   7.811   9.799   5.866 -2.2793 -1.0806  1.7575
  888MOL0     O19746   6.311   7.817   2.775  0.1412  0.1502 -0.2548
  888MOL0     C19747   6.388   7.909   2.746  0.9553  0.7456 -0.2265
  888MOL0     O19748   6.352   8.017   2.666  0.0632 -0.0510  0.1308
  888MOL0     C19749   6.223   8.020   2.611  0.0582  0.2798 -0.1402
  888MOL0     C19750   6.199   8.076   2.480 -0.4535  0.6932  0.8800
  888MOL0     C19751   6.069   8.095   2.434  0.4348 -0.0596  0.2317
  888MOL0     C19752   5.955   8.066   2.507  0.0628 -0.1373 -0.0701
  888MOL0     O19753   5.827   8.084   2.469 -0.6054  0.4217 -0.0896
  888MOL0     C19754   5.794   8.080   2.328  0.0908  0.1095  0.0913
  888MOL0     C19755   5.646   8.077   2.300  0.2402 -0.3321 -1.3892
  888MOL0     C19756   5.586   8.209   2.331  0.7507 -0.4691 -0.1421
  888MOL0     C19757   5.440   8.204   2.285  0.6912 -0.7849 -0.1344
  888MOL0     C19758   5.371   8.340   2.309  0.0657 -0.3984 -0.0681
  888MOL0     C19759   5.352   8.378   2.448  0.3631  0.0514  0.5025
  888MOL0     C19760   5.265   8.503   2.472  0.7865  0.0368  0.5186
  888MOL0     C19761   5.287   8.562   2.610 -0.9236 -0.2033 -0.9955
  888MOL0     N19762   5.424   8.621   2.627  0.3934 -0.1751  0.2002
  888MOL0     C19763   5.521   8.581   2.716 -0.1379 -0.3559  1.4418
  888MOL0     C19764   5.605   8.683   2.723 -0.0962 -0.5018  1.1184
  888MOL0     C19765   5.726   8.688   2.809  0.2529 -0.2999 -0.3546
  888MOL0     C19766   5.683   8.710   2.959  0.7169  0.1777  0.2347
  888MOL0     C19767   5.795   8.667   3.058  0.1759 -0.8429  0.3263
  888MOL0     C19768   5.745   8.685   3.207 -0.1123  1.1106  0.5339
  888MOL0     O19769   5.673   8.567   3.231 -0.1423 -0.1257 -0.4475
  888MOL0     C19770   5.618   8.547   3.353 -0.8359  0.0362 -0.0904
  888MOL0     C19771   5.646   8.420   3.415 -0.2150 -0.1490 -0.0350
  888MOL0     C19772   5.585   8.380   3.529 -0.0968  0.4978 -0.8754
  888MOL0     C19773   5.610   8.235   3.571  0.2242 -0.8746 -0.0218
  888MOL0     C19774   5.510   8.476   3.605 -0.0515  0.3494 -0.6258
  888MOL0     C19775   5.444   8.447   3.732  0.4758 -1.1411 -0.2002
  888MOL0     O19776   5.318   8.506   3.750  0.4115  0.2245  0.2175
  888MOL0     C19777   5.252   8.486   3.872 -0.2538 -0.0115  0.6790
  888MOL0     C19778   5.122   8.456   3.861  0.3574  0.1129 -0.0238
  888MOL0     C19779   5.040   8.423   3.975  0.4512  0.1479 -1.4984
  888MOL0     C19780   5.096   8.435   4.107 -0.1157 -0.1468  1.2066
  888MOL0     O19781   5.007   8.417   4.209  0.1616 -0.0386 -0.1772
  888MOL0     C19782   5.042   8.477   4.339 -0.5859 -0.1428 -0.6017
  888MOL0     C19783   4.932   8.453   4.434  0.3000  0.1673  0.0527
  888MOL0     C19784   4.795   8.504   4.379  0.1457  0.1436 -0.2072
  888MOL0     C19785   4.740   8.613   4.466 -0.1542 -0.7780  0.6002
  888MOL0     C19786   4.689   8.567   4.603  0.2745 -0.8522  0.3708
  888MOL0     C19787   4.603   8.677   4.671  0.6444  0.9566  1.1764
  888MOL0     C19788   4.544   8.627   4.805 -0.4617  0.5351  0.6909
  888MOL0     C19789   4.448   8.727   4.866  0.7185  0.4547  0.2606
  888MOL0    Cl19790   4.307   8.738   4.755 -0.3926 -0.5681  0.2252
  888MOL0     C19791   5.225   8.485   4.118  0.4336  0.7665  0.9264
  888MOL0     C19792   5.300   8.497   4.000  0.3940  0.3090  0.1402
  888MOL0     O19793   5.501   8.369   3.801 -0.5496 -0.8789 -0.1931
  888MOL0     C19794   5.492   8.609   3.553 -0.4182  0.4906 -0.0387
  888MOL0     C19795   5.549   8.640   3.433 -0.2940  0.0229 -0.3326
  888MOL0     N19796   5.558   8.782   2.636 -0.4139 -0.1359 -0.6812
  888MOL0     N19797   5.445   8.751   2.593  1.3758 -0.4978 -0.1447
  888MOL0     C19798   5.974   8.017   2.631 -0.0823  0.3179 -0.0123
  888MOL0     C19799   6.103   7.995   2.684 -0.0269 -0.0434 -0.0939
  888MOL0     C19800   6.528   7.896   2.791 -0.1082  0.3404  0.2029
  888MOL0     C19801   6.625   8.000   2.758  0.2262 -0.4333  0.3576
  888MOL0     C19802   6.758   7.985   2.786  1.0016 -0.8801  1.0134
  888MOL0     C19803   6.804   7.876   2.853 -0.3455 -0.4762 -1.1191
  888MOL0     O19804   6.943   7.878   2.892 -0.8711  0.7671  1.0181
  888MOL0     C19805   7.000   7.757   2.953  0.2712 -0.1003 -0.3266
  888MOL0     C19806   7.148   7.774   2.928  0.4125  0.1114  0.4710
  888MOL0     C19807   7.218   7.640   2.960 -0.2479  0.4113  0.0247
  888MOL0     C19808   7.371   7.655   2.956  0.3271 -0.6215  0.6333
  888MOL0     C19809   7.430   7.736   3.061  0.8644  0.3670  0.3108
  888MOL0     C19810   7.456   7.802   3.160  0.7800  0.4938 -0.4943
  888MOL0     C19811   6.713   7.787   2.901 -0.9520 -0.1841  0.0193
  888MOL0     C19812   6.576   7.791   2.867  0.4843 -0.8413 -0.3410
  888MOL0     H19813   6.288   8.108   2.426 -1.8177 -0.8347 -2.6040
  888MOL0     H19814   6.058   8.159   2.346  1.0062 -1.3885 -0.8461
  888MOL0     H19815   5.829   8.168   2.272 -3.1532  1.5678  0.0901
  888MOL0     H19816   5.834   7.989   2.282  0.5986  0.6161 -0.4936
  888MOL0     H19817   5.635   8.063   2.192  1.1393 -2.4064 -1.2498
  888MOL0     H19818   5.590   8.002   2.356  0.4640  0.3158 -0.2842
  888MOL0     H19819   5.596   8.235   2.437  3.5567 -0.4613 -0.3247
  888MOL0     H19820   5.649   8.286   2.285  1.4850 -0.8758  0.1536
  888MOL0     H19821   5.434   8.184   2.178  0.0031 -0.6690 -0.1208
  888MOL0     H19822   5.379   8.133   2.342  0.2511  0.4086  0.9113
  888MOL0     H19823   5.429   8.419   2.262 -1.0664  0.1800 -0.5322
  888MOL0     H19824   5.274   8.346   2.259 -0.4280  0.3105  0.9477
  888MOL0     H19825   5.291   8.310   2.508 -0.5101  0.3240 -0.0543
  888MOL0     H19826   5.448   8.389   2.499 -0.8402 -0.2385  3.0207
  888MOL0     H19827   5.298   8.579   2.400  1.2321  1.3568  2.0692
  888MOL0     H19828   5.157   8.490   2.460  0.7952  1.8019 -2.4146
  888MOL0     H19829   5.269   8.485   2.685  1.8426  1.1532  1.2340
  888MOL0     H19830   5.208   8.636   2.627 -1.9937 -1.5361  0.1740
  888MOL0     H19831   5.525   8.487   2.771 -3.8947 -2.2080 -1.0302
  888MOL0     H19832   5.778   8.594   2.788 -0.9890 -0.9764 -0.4722
  888MOL0     H19833   5.787   8.775   2.784 -1.0078  2.1153  3.8643
  888MOL0     H19834   5.586   8.661   2.976  1.0356 -0.6953 -0.3613
  888MOL0     H19835   5.662   8.815   2.978  2.2878  0.7622 -1.0308
  888MOL0     H19836   5.885   8.725   3.036 -0.4007  0.3621  1.0320
  888MOL0     H19837   5.820   8.561   3.051 -0.1038 -0.8122 -1.6176
  888MOL0     H19838   5.685   8.776   3.222  2.9657  3.5790 -0.8098
  888MOL0     H19839   5.828   8.675   3.277  0.7986  2.7501 -0.2344
  888MOL0     H19840   5.706   8.352   3.355 -2.4484 -0.7029 -1.7880
  888MOL0     H19841   5.638   8.235   3.676  0.2647 -0.4301 -0.0314
  888MOL0     H19842   5.527   8.164   3.564 -0.6844  0.2655 -1.6025
  888MOL0     H19843   5.693   8.191   3.514 -0.9981 -1.9626 -1.0406
  888MOL0     H19844   5.071   8.450   3.766  0.2420 -0.4263  0.0635
  888MOL0     H19845   4.934   8.401   3.970  0.5730 -0.3993 -1.7912
  888MOL0     H19846   5.132   8.435   4.385  0.8814  0.4148 -2.8119
  888MOL0     H19847   5.063   8.584   4.333 -0.0141  0.1979  3.7625
  888MOL0     H19848   4.915   8.347   4.451 -0.4554  0.2177 -0.3355
  888MOL0     H19849   4.947   8.510   4.526 -1.2570  0.5762  0.0847
  888MOL0     H19850   4.722   8.423   4.369 -0.2670  0.7265 -2.4550
  888MOL0     H19851   4.808   8.537   4.276  3.9257  1.9654  0.6599
  888MOL0     H19852   4.816   8.688   4.491 -1.5401  0.3474  1.5956
  888MOL0     H19853   4.662   8.664   4.410 -0.0955 -0.4115  0.8462
  888MOL0     H19854   4.777   8.550   4.666 -0.5895 -0.2793  1.7710
  888MOL0     H19855   4.635   8.474   4.584 -0.1511 -0.2820 -1.4098
  888MOL0     H19856   4.656   8.773   4.681  0.8434  0.9338  0.4156
  888MOL0     H19857   4.524   8.691   4.597  0.5079 -0.1924  1.0933
  888MOL0     H19858   4.628   8.611   4.873  0.3487 -0.1834 -0.4390
  888MOL0     H19859   4.506   8.525   4.788  1.2125  0.3019 -2.4084
  888MOL0     H19860   4.494   8.825   4.858 -1.3677  1.4433 -0.2679
  888MOL0     H19861   4.424   8.702   4.970  0.1291 -0.5996 -0.1078
  888MOL0     H19862   5.277   8.507   4.210  2.4063 -1.6432  0.4917
  888MOL0     H19863   5.401   8.534   4.017  0.4823  0.5668 -0.8704
  888MOL0     H19864   5.448   8.691   3.608 -2.1090 -1.5396  1.7768
  888MOL0     H19865   5.528   8.742   3.402  0.4858  0.0263 -0.8509
  888MOL0     H19866   5.893   7.999   2.700 -0.4976  1.8452 -0.0780
  888MOL0     H19867   6.106   7.954   2.785  1.6366  1.9264  0.7081
  888MOL0     H19868   6.588   8.082   2.697 -1.1498 -1.7190 -0.6121
  888MOL0     H19869   6.822   8.064   2.747 -1.6071 -0.4411 -2.9896
  888MOL0     H19870   6.970   7.767   3.058  0.4547  0.6983 -0.3449
  888MOL0     H19871   6.962   7.661   2.917  0.0283 -1.5570  3.3839
  888MOL0     H19872   7.184   7.861   2.983 -0.5153  1.0731 -0.4195
  888MOL0     H19873   7.164   7.796   2.822  2.1915 -1.8289  0.2529
  888MOL0     H19874   7.179   7.570   2.885 -2.3593  1.2966  0.2368
  888MOL0     H19875   7.182   7.597   3.054 -0.1137  0.8588  0.2834
  888MOL0     H19876   7.390   7.697   2.857 -4.5693 -1.1895 -0.8208
  888MOL0     H19877   7.422   7.558   2.957  1.6967  0.0188 -1.6606
  888MOL0     H19878   7.477   7.868   3.242  1.4893  0.1801 -0.4170
  888MOL0     H19879   6.754   7.708   2.962 -0.6905 -2.8089 -3.2878
  888MOL0     H19880   6.520   7.704   2.900  0.7279 -0.9676 -0.2604
  889MOL0     O19881  11.136   8.447   9.167 -0.1720  0.4939  0.6494
  889MOL0     C19882  11.180   8.337   9.138 -0.3525  1.1619  0.0091
  889MOL0     O19883  11.115   8.233   9.071 -0.4118  0.4115 -0.1893
  889MOL0     C19884  11.009   8.250   8.991 -0.0427  0.2526  0.0070
  889MOL0     C19885  10.974   8.374   8.927  0.1216 -1.1531 -0.5382
  889MOL0     C19886  10.861   8.387   8.843  0.4033  0.1751  0.6695
  889MOL0     C19887  10.783   8.275   8.817  0.3484  0.1550 -0.0935
  889MOL0     O19888  10.663   8.284   8.756 -0.5245  0.4341  0.0830
  889MOL0     C19889  10.570   8.386   8.804 -0.4175 -0.8920 -0.8314
  889MOL0     C19890  10.442   8.389   8.718 -0.1825 -1.1458  0.2729
  889MOL0     C19891  10.377   8.249   8.704 -0.2842 -0.4455 -0.3318
  889MOL0     C19892  10.224   8.277   8.677  0.7176 -0.0066 -0.5417
  889MOL0     C19893  10.141   8.149   8.659  0.5954 -0.0731 -0.7247
  889MOL0     C19894   9.992   8.197   8.636  0.3384  0.9118  0.2085
  889MOL0     C19895   9.970   8.236   8.481  0.5419 -0.3100  0.4612
  889MOL0     C19896   9.826   8.256   8.456  0.5286  0.3911 -0.0754
  889MOL0     N19897   9.746   8.140   8.487  0.2852  0.0143 -0.8000
  889MOL0     C19898   9.762   8.012   8.429 -0.1620  0.1518 -0.0040
  889MOL0     C19899   9.662   7.938   8.484 -0.4638  0.1993 -0.1331
  889MOL0     C19900   9.628   7.801   8.445  0.2890 -0.0121 -0.4050
  889MOL0     C19901   9.475   7.755   8.463  0.4337 -0.0591 -0.4970
  889MOL0     C19902   9.442   7.623   8.395  0.1092 -0.3791  0.2870
  889MOL0     C19903   9.314   7.542   8.424  0.1728  0.2282 -0.1080
  889MOL0     O19904   9.306   7.438   8.327 -0.4389 -0.9199  0.4187
  889MOL0     C19905   9.222   7.453   8.223 -0.5593 -0.1878  0.5245
  889MOL0     C19906   9.152   7.340   8.177 -0.9209 -0.4858 -1.1872
  889MOL0     C19907   9.068   7.338   8.059  0.7218  0.3993 -0.3470
  889MOL0     C19908   8.997   7.210   8.031  0.3846  0.0113  1.1026
  889MOL0     C19909   9.043   7.464   7.992  0.3352 -0.3997  0.5253
  889MOL0     C19910   8.949   7.488   7.872  1.1615 -0.4011 -0.6551
  889MOL0     O19911   8.929   7.378   7.792 -0.0053  0.1197  0.6146
  889MOL0     C19912   8.840   7.380   7.686 -0.3943  0.0387  0.9545
  889MOL0     C19913   8.851   7.274   7.585  0.0662 -0.1978  0.4362
  889MOL0     C19914   8.750   7.257   7.495 -0.2994  0.2028  0.5979
  889MOL0     C19915   8.635   7.340   7.495 -1.6458 -0.3855  0.0118
  889MOL0     O19916   8.548   7.323   7.386  0.8400  0.7969  0.2093
  889MOL0     C19917   8.447   7.420   7.373 -0.3977 -0.1970  0.3754
  889MOL0     C19918   8.380   7.374   7.248  0.2783  0.4600 -0.1844
  889MOL0     C19919   8.266   7.464   7.202 -0.5311  1.2625  0.6085
  889MOL0     C19920   8.145   7.466   7.288 -0.0159  0.8125 -0.1270
  889MOL0     C19921   8.035   7.542   7.217 -0.1716 -0.7384  0.1647
  889MOL0     C19922   7.891   7.517   7.264  0.5066  0.2322  0.0544
  889MOL0     C19923   7.792   7.573   7.161 -0.4233 -0.3120  0.5318
  889MOL0     C19924   7.641   7.534   7.180  0.2188 -0.3831  0.8109
  889MOL0    Cl19925   7.563   7.580   7.347 -0.2464 -0.1376 -0.2123
  889MOL0     C19926   8.620   7.438   7.591  0.1639  0.2529 -0.7319
  889MOL0     C19927   8.726   7.466   7.686  0.1920 -0.1496 -0.8817
  889MOL0     O19928   8.904   7.599   7.856  0.8396  0.0513  0.1128
  889MOL0     C19929   9.107   7.578   8.043 -0.5363 -0.2580  0.6588
  889MOL0     C19930   9.201   7.575   8.151  0.9460 -0.6130  0.0245
  889MOL0     N19931   9.593   8.027   8.561  0.2623 -0.3156 -0.2625
  889MOL0     N19932   9.653   8.139   8.579  0.5859 -0.1796 -1.0811
  889MOL0     C19933  10.838   8.148   8.860  0.0492  0.0169 -0.9341
  889MOL0     C19934  10.950   8.139   8.948 -0.0315  0.0662  0.3743
  889MOL0     C19935  11.317   8.318   9.183  0.8109 -0.6420 -1.7153
  889MOL0     C19936  11.376   8.194   9.177  0.0065 -0.6047  0.2018
  889MOL0     C19937  11.506   8.167   9.229  0.0765 -0.5780  0.0965
  889MOL0     C19938  11.567   8.265   9.305  0.5413 -0.8454 -0.3938
  889MOL0     O19939  11.694   8.239   9.357 -0.6733 -0.6700  0.5468
  889MOL0     C19940  11.751   8.349   9.429 -0.1560  0.1631  0.3089
  889MOL0     C19941  11.875   8.309   9.507 -0.7926  0.3732 -0.4985
  889MOL0     C19942  11.983   8.253   9.421 -1.5446  0.2704  0.5944
  889MOL0     C19943  12.110   8.344   9.431 -0.5542  0.1708  0.5079
  889MOL0     C19944  12.200   8.334   9.553  0.1570  0.0350  0.1335
  889MOL0     C19945  12.260   8.323   9.653  0.6147 -0.6630 -0.4596
  889MOL0     C19946  11.511   8.391   9.308  0.4123 -0.4136  0.2672
  889MOL0     C19947  11.391   8.425   9.245  0.2536  0.0021  0.2388
  889MOL0     H19948  11.033   8.464   8.937 -0.4369 -1.0079  2.6633
  889MOL0     H19949  10.831   8.480   8.795  1.9480  0.0206 -0.6861
  889MOL0     H19950  10.545   8.360   8.907  1.1824  2.1122  0.4304
  889MOL0     H19951  10.618   8.484   8.806  0.1161 -1.1219 -1.6625
  889MOL0     H19952  10.374   8.456   8.772  0.0297 -0.7739  0.0842
  889MOL0     H19953  10.465   8.434   8.621  1.4681  1.5362  1.7740
  889MOL0     H19954  10.433   8.184   8.637  1.4298 -0.3781  0.9782
  889MOL0     H19955  10.377   8.195   8.799 -1.1245  1.6050  0.8928
  889MOL0     H19956  10.182   8.339   8.756  1.5883 -1.9599  1.5861
  889MOL0     H19957  10.212   8.332   8.584 -0.6698 -2.0218 -1.6349
  889MOL0     H19958  10.187   8.093   8.577 -0.5548 -1.5331 -0.4123
  889MOL0     H19959  10.141   8.080   8.744 -0.9976  1.2981  0.4604
  889MOL0     H19960   9.921   8.117   8.661 -0.2986  1.7843  1.3052
  889MOL0     H19961   9.966   8.285   8.696  0.8785  0.1009  1.6631
  889MOL0     H19962  10.034   8.317   8.443 -0.8049  1.7714  2.4041
  889MOL0     H19963  10.002   8.152   8.418  0.2243  0.4995 -0.8244
  889MOL0     H19964   9.820   8.269   8.348  0.4897 -0.2056 -0.1509
  889MOL0     H19965   9.786   8.345   8.506  0.3505 -0.2836  1.0410
  889MOL0     H19966   9.835   7.990   8.352 -0.6273  0.7401 -0.6235
  889MOL0     H19967   9.663   7.792   8.342  2.1437 -0.4364  0.2209
  889MOL0     H19968   9.683   7.724   8.499 -3.4911 -0.4872  3.2921
  889MOL0     H19969   9.399   7.830   8.437 -2.9093 -2.2373  1.9897
  889MOL0     H19970   9.459   7.745   8.571 -0.0044 -1.9601 -0.7004
  889MOL0     H19971   9.532   7.562   8.406  1.0237  0.7747 -0.5907
  889MOL0     H19972   9.442   7.649   8.289  2.7608 -0.9664  0.0839
  889MOL0     H19973   9.218   7.592   8.434  1.8086  3.2948  2.2243
  889MOL0     H19974   9.335   7.500   8.523 -0.4601 -1.6017 -0.7194
  889MOL0     H19975   9.168   7.250   8.236 -0.2791 -1.4724 -2.7890
  889MOL0     H19976   8.918   7.220   7.956  0.9692  1.0765  0.6142
  889MOL0     H19977   9.062   7.126   8.005 -2.6464 -2.0192 -0.5747
  889MOL0     H19978   8.952   7.166   8.121 -1.4419 -2.0658 -0.7117
  889MOL0     H19979   8.938   7.210   7.575  1.8203  2.3293 -1.6426
  889MOL0     H19980   8.755   7.179   7.420  0.8087  2.2156 -1.5719
  889MOL0     H19981   8.387   7.428   7.464 -2.5734 -1.5455 -0.8400
  889MOL0     H19982   8.498   7.514   7.352  1.5764 -1.4742 -0.8976
  889MOL0     H19983   8.453   7.370   7.166  1.3850  2.8791  0.5970
  889MOL0     H19984   8.337   7.274   7.259 -0.2569  0.6273 -0.6723
  889MOL0     H19985   8.235   7.432   7.102 -0.0739  3.4011 -0.2862
  889MOL0     H19986   8.298   7.569   7.201  1.0410  0.8027  0.4956
  889MOL0     H19987   8.102   7.366   7.303  0.9981  0.7439  3.1234
  889MOL0     H19988   8.168   7.500   7.389 -2.3943  2.4641 -0.0505
  889MOL0     H19989   8.049   7.529   7.109  0.9772  4.4779 -0.5833
  889MOL0     H19990   8.050   7.649   7.228 -1.7222 -0.4186 -0.5102
  889MOL0     H19991   7.867   7.411   7.272 -1.6835  0.5703 -1.2705
  889MOL0     H19992   7.858   7.564   7.357 -3.1291  0.1872 -1.0683
  889MOL0     H19993   7.817   7.559   7.055 -3.1107  0.5875 -0.2839
  889MOL0     H19994   7.804   7.679   7.185  1.8026 -0.3065 -0.3254
  889MOL0     H19995   7.639   7.424   7.177  0.9575 -0.4334 -2.8756
  889MOL0     H19996   7.582   7.581   7.102  0.2094  0.5228  1.3498
  889MOL0     H19997   8.531   7.497   7.611 -0.6120 -0.6854 -1.3382
  889MOL0     H19998   8.707   7.529   7.772  1.2713 -1.7484  0.5862
  889MOL0     H19999   9.092   7.674   7.995  2.6172 -0.8142 -1.8376
  889MOL0     H20000   9.251   7.664   8.187  0.8399 -0.8533  0.7803
  889MOL0     H20001  10.788   8.062   8.815 -0.9914 -0.1045  0.3826
  889MOL0     H20002  10.987   8.042   8.979 -1.7868 -0.6938  0.1977
  889MOL0     H20003  11.316   8.114   9.133  1.0863 -0.6136 -1.3399
  889MOL0     H20004  11.550   8.069   9.218 -0.8424 -0.9405 -0.5155
  889MOL0     H20005  11.769   8.425   9.353 -3.6144  2.9553  2.0055
  889MOL0     H20006  11.682   8.382   9.507 -1.4358  1.4587 -1.2999
  889MOL0     H20007  11.845   8.247   9.592  1.0902 -1.9217 -1.4183
  889MOL0     H20008  11.914   8.404   9.546 -0.0713 -0.4035  0.7209
  889MOL0     H20009  11.950   8.247   9.317  1.2750 -0.1957 -0.3589
  889MOL0     H20010  11.999   8.148   9.448  0.0639  0.2933 -0.1674
  889MOL0     H20011  12.093   8.452   9.424 -0.3215  0.1756 -0.0111
  889MOL0     H20012  12.171   8.314   9.346  0.9642  0.7698  1.3443
  889MOL0     H20013  12.317   8.321   9.744  1.3696  0.9528 -0.8606
  889MOL0     H20014  11.551   8.476   9.364  1.8058 -2.4941  2.6334
  889MOL0     H20015  11.347   8.523   9.257  1.5991  1.0026 -2.2601
  890MOL0     O20016   2.967   1.508   7.931  0.6723 -0.1608 -0.5348
  890MOL0     C20017   3.032   1.428   7.993  0.6150 -0.1782  0.0996
  890MOL0     O20018   2.990   1.310   8.044 -0.0220  0.2012 -0.5179
  890MOL0     C20019   2.876   1.267   7.985  0.0226  0.2603 -0.8481
  890MOL0     C20020   2.887   1.142   7.925 -0.3059 -0.0309 -0.2319
  890MOL0     C20021   2.781   1.084   7.862 -0.2502 -0.6771 -0.6695
  890MOL0     C20022   2.653   1.139   7.858  0.0908  0.6972  0.1796
  890MOL0     O20023   2.556   1.079   7.777 -0.0777  0.7411  0.2110
  890MOL0     C20024   2.422   1.106   7.817  0.1444  0.0761 -0.3072
  890MOL0     C20025   2.330   1.012   7.744  0.6782 -0.1796 -0.8903
  890MOL0     C20026   2.372   0.861   7.770  0.1383  0.7978  0.4386
  890MOL0     C20027   2.266   0.756   7.718  0.5654  0.0888  0.2110
  890MOL0     C20028   2.327   0.611   7.714 -1.1455 -0.5197  1.0308
  890MOL0     C20029   2.218   0.509   7.705 -0.0465 -0.0865 -0.3602
  890MOL0     C20030   2.179   0.484   7.557 -0.0079 -0.3675 -0.1640
  890MOL0     C20031   2.059   0.394   7.539 -0.0595 -1.1240  0.1530
  890MOL0     N20032   1.939   0.454   7.601 -0.2426 -0.6816  0.2569
  890MOL0     C20033   1.841   0.521   7.532  0.2282 -0.2427  0.6230
  890MOL0     C20034   1.743   0.557   7.625  0.3668  1.3927  0.3683
  890MOL0     C20035   1.611   0.635   7.585  0.8810  1.3905 -0.3182
  890MOL0     C20036   1.482   0.603   7.653 -0.7032  0.2415 -0.3860
  890MOL0     C20037   1.376   0.719   7.638 -1.1649 -0.2732 -0.2161
  890MOL0     C20038   1.286   0.723   7.761  0.5904 -0.3277  0.7693
  890MOL0     O20039   1.199   0.613   7.768 -0.3828 -0.5507  0.2918
  890MOL0     C20040   1.069   0.643   7.744  0.7076  0.5580 -0.6501
  890MOL0     C20041   0.971   0.613   7.845 -0.0439 -0.0509 -0.6429
  890MOL0     C20042   0.833   0.640   7.830  0.5289 -0.2713  0.1071
  890MOL0     C20043   0.743   0.609   7.945  0.0948  0.2405  0.6386
  890MOL0     C20044   0.779   0.699   7.712 -0.0503  0.5364  0.3973
  890MOL0     C20045   0.643   0.744   7.687  0.2413  0.2203  0.5953
  890MOL0     O20046   0.567   0.803   7.782 -0.4256 -0.3216  0.2881
  890MOL0     C20047   0.433   0.826   7.771 -0.4260 -0.8903 -0.1501
  890MOL0     C20048   0.384   0.954   7.781 -0.1525 -0.5431 -0.2122
  890MOL0     C20049   0.248   0.982   7.797  1.2966  0.9238 -0.4614
  890MOL0     C20050   0.155   0.875   7.785  0.1297  0.8253  0.1655
  890MOL0     O20051   0.023   0.896   7.793  0.6483  0.1754 -0.4186
  890MOL0     C20052  -0.007   0.952   7.918 -0.0751  0.3581  0.0931
  890MOL0     C20053  -0.120   0.882   7.996 -0.1594  0.5564  0.4537
  890MOL0     C20054  -0.249   0.884   7.916  0.1490  0.4585  0.0267
  890MOL0     C20055  -0.354   0.778   7.963 -0.2530 -0.4918 -0.4228
  890MOL0     C20056  -0.436   0.733   7.853 -1.1653  0.0226 -0.0516
  890MOL0     C20057  -0.378   0.608   7.791 -0.1293  0.4437  0.4814
  890MOL0     C20058  -0.422   0.585   7.640  0.8710 -0.2524  0.0513
  890MOL0     C20059  -0.300   0.539   7.564 -0.1332  0.3159  0.1837
  890MOL0    Cl20060  -0.357   0.506   7.390  0.6532  0.0307 -0.2849
  890MOL0     C20061   0.207   0.747   7.783  0.4120  0.6465  0.5126
  890MOL0     C20062   0.342   0.723   7.781 -0.0736 -0.2868  0.2193
  890MOL0     O20063   0.599   0.725   7.573 -0.0355 -0.5770 -0.3057
  890MOL0     C20064   0.873   0.727   7.615  0.5573  0.3779  0.9313
  890MOL0     C20065   1.012   0.695   7.625  0.7999  0.3592  0.4420
  890MOL0     N20066   1.782   0.508   7.747 -0.2292 -0.0211 -0.1754
  890MOL0     N20067   1.899   0.446   7.731 -0.2375 -0.9587  0.1733
  890MOL0     C20068   2.641   1.268   7.912  0.3210  0.0520  0.0530
  890MOL0     C20069   2.750   1.329   7.972 -0.5153  0.0228  0.5205
  890MOL0     C20070   3.170   1.467   8.019  0.7671 -1.2042  0.5365
  890MOL0     C20071   3.207   1.606   8.000  0.2629  0.0796 -0.6525
  890MOL0     C20072   3.331   1.653   8.035 -0.5746  1.2012 -0.8699
  890MOL0     C20073   3.418   1.562   8.096  0.7436 -0.1899  0.1609
  890MOL0     O20074   3.544   1.601   8.121 -0.0069 -0.3275  0.0461
  890MOL0     C20075   3.650   1.506   8.143 -0.1674  0.7767  0.0651
  890MOL0     C20076   3.790   1.564   8.121  0.2975 -0.2965 -0.3224
  890MOL0     C20077   3.878   1.468   8.043  0.2719 -0.1950 -0.2340
  890MOL0     C20078   4.025   1.514   8.045 -0.1930 -1.0559 -1.0140
  890MOL0     C20079   4.094   1.461   8.164 -0.0806  0.3157 -0.5972
  890MOL0     C20080   4.149   1.419   8.264 -0.0649  0.3289 -0.4354
  890MOL0     C20081   3.379   1.433   8.126  0.2928 -0.4498  0.3741
  890MOL0     C20082   3.260   1.383   8.083 -0.8391 -0.2125 -0.1719
  890MOL0     H20083   2.985   1.096   7.917  0.1480  1.1098 -1.9882
  890MOL0     H20084   2.792   0.983   7.824 -0.3698 -0.8397 -0.2763
  890MOL0     H20085   2.406   1.094   7.924 -3.7762  1.7415 -0.5047
  890MOL0     H20086   2.410   1.211   7.791 -2.9498  0.2027  1.1152
  890MOL0     H20087   2.228   1.030   7.778  1.1695  0.6845  0.2080
  890MOL0     H20088   2.339   1.033   7.637  1.6164  0.1923 -0.7503
  890MOL0     H20089   2.469   0.838   7.725 -0.6896  1.4316 -1.7933
  890MOL0     H20090   2.381   0.863   7.879  0.2326  1.6271  0.4177
  890MOL0     H20091   2.185   0.748   7.791 -0.6893 -2.5062 -1.3247
  890MOL0     H20092   2.232   0.798   7.623 -0.6012 -0.6355  0.2958
  890MOL0     H20093   2.393   0.610   7.627 -1.7359  0.1037  0.5613
  890MOL0     H20094   2.384   0.590   7.805  1.6287  0.3274 -0.4002
  890MOL0     H20095   2.255   0.413   7.743 -2.1360 -0.9724 -0.4250
  890MOL0     H20096   2.130   0.540   7.764 -0.2332 -0.5570 -0.3875
  890MOL0     H20097   2.151   0.578   7.509 -0.9046 -0.3655  0.3322
  890MOL0     H20098   2.256   0.431   7.501  1.5142  0.0565  1.4438
  890MOL0     H20099   2.071   0.297   7.587 -2.0004 -0.2809  2.5147
  890MOL0     H20100   2.046   0.385   7.430 -0.2361  0.1895  0.0400
  890MOL0     H20101   1.834   0.535   7.425  0.6578 -0.4058  0.5699
  890MOL0     H20102   1.623   0.744   7.596  1.7712  1.0591  3.0765
  890MOL0     H20103   1.602   0.614   7.478 -1.2849 -3.8095  0.5977
  890MOL0     H20104   1.504   0.594   7.760  2.4532  1.3914 -0.8555
  890MOL0     H20105   1.442   0.510   7.610 -2.7282  2.0248 -2.6143
  890MOL0     H20106   1.314   0.695   7.551 -0.6034  2.3679 -1.4286
  890MOL0     H20107   1.430   0.809   7.606  0.0669  0.2455  2.9320
  890MOL0     H20108   1.218   0.808   7.761 -1.6625 -1.7323 -4.5571
  890MOL0     H20109   1.341   0.734   7.855  0.5355  1.2007  0.6406
  890MOL0     H20110   1.003   0.557   7.933  0.8324 -0.2164 -1.0588
  890MOL0     H20111   0.644   0.573   7.913  0.2066 -1.7652  2.3674
  890MOL0     H20112   0.789   0.535   8.011  2.9679 -0.0846 -1.5383
  890MOL0     H20113   0.720   0.699   8.003 -0.0729  1.0423 -0.6188
  890MOL0     H20114   0.461   1.030   7.786 -2.2166  1.5344  2.5079
  890MOL0     H20115   0.215   1.083   7.821 -0.8373  0.8644 -2.7660
  890MOL0     H20116   0.073   0.947   7.993 -1.6378  1.2292  1.9351
  890MOL0     H20117  -0.027   1.059   7.905 -1.1036  0.4661  2.1011
  890MOL0     H20118  -0.090   0.780   8.020  5.3378  1.7949  0.0890
  890MOL0     H20119  -0.146   0.937   8.087  1.4744  1.6307  0.3209
  890MOL0     H20120  -0.227   0.866   7.810 -0.7050 -1.2671  0.1123
  890MOL0     H20121  -0.297   0.982   7.909 -1.4861 -0.3340 -0.1953
  890MOL0     H20122  -0.296   0.694   8.001  1.2906  0.5994 -0.2817
  890MOL0     H20123  -0.404   0.827   8.048  0.1100  0.3698 -0.6988
  890MOL0     H20124  -0.451   0.810   7.776 -1.4401  0.0902  0.0694
  890MOL0     H20125  -0.539   0.721   7.887 -0.6280 -0.4815  1.4747
  890MOL0     H20126  -0.270   0.595   7.795 -0.0283  0.6664 -1.0117
  890MOL0     H20127  -0.419   0.535   7.861  1.1757 -0.2629  0.5316
  890MOL0     H20128  -0.465   0.681   7.609  1.6858  0.4686  1.0687
  890MOL0     H20129  -0.499   0.507   7.643  1.3469 -0.7037  1.1733
  890MOL0     H20130  -0.249   0.453   7.609 -0.2180  0.2068  0.0724
  890MOL0     H20131  -0.228   0.621   7.552 -0.0710 -0.0810 -3.5668
  890MOL0     H20132   0.130   0.672   7.776 -0.3465  1.3712  0.9762
  890MOL0     H20133   0.370   0.618   7.786 -1.0385 -0.5720 -0.1547
  890MOL0     H20134   0.832   0.761   7.520 -0.4165 -2.4347  0.2537
  890MOL0     H20135   1.078   0.715   7.541 -3.0598 -0.2192 -3.0532
  890MOL0     H20136   2.545   1.319   7.908  0.7129  0.7814 -0.3043
  890MOL0     H20137   2.746   1.434   7.997 -1.8422  0.0408  0.3373
  890MOL0     H20138   3.139   1.675   7.951 -1.7995 -2.7113 -2.0104
  890MOL0     H20139   3.348   1.755   8.001 -2.2649  1.7890 -0.0854
  890MOL0     H20140   3.637   1.471   8.246 -1.4181 -0.3068 -0.4309
  890MOL0     H20141   3.634   1.419   8.079 -0.7274  1.1095 -0.2526
  890MOL0     H20142   3.826   1.584   8.222 -0.4428  1.1597 -0.3283
  890MOL0     H20143   3.774   1.657   8.067 -2.4869  0.3508  1.4253
  890MOL0     H20144   3.851   1.450   7.938  1.3801 -0.9376 -0.4066
  890MOL0     H20145   3.880   1.370   8.092  0.9147 -0.5476 -0.9369
  890MOL0     H20146   4.021   1.623   8.045 -4.4082 -0.9114  2.9860
  890MOL0     H20147   4.075   1.478   7.954  0.2452 -1.4905 -0.6047
  890MOL0     H20148   4.194   1.396   8.358 -1.9378  0.0720  0.4550
  890MOL0     H20149   3.446   1.365   8.179  2.6843 -0.1261 -2.0379
  890MOL0     H20150   3.235   1.282   8.111 -0.1815 -0.3290  0.0094
  891MOL0     O20151   7.280   1.813   7.981 -0.0948 -0.1169 -0.2189
  891MOL0     C20152   7.362   1.810   8.075 -0.0454  0.4038  0.9177
  891MOL0     O20153   7.332   1.778   8.201  0.4573 -0.6468 -0.0572
  891MOL0     C20154   7.202   1.766   8.230 -0.1914 -0.1927  0.8751
  891MOL0     C20155   7.119   1.882   8.230 -0.6036 -0.2348 -0.0833
  891MOL0     C20156   6.989   1.876   8.283  0.7446 -0.4245  0.4475
  891MOL0     C20157   6.938   1.757   8.325  1.4199  0.0863  0.3332
  891MOL0     O20158   6.808   1.766   8.368  0.8007  0.3187  0.2425
  891MOL0     C20159   6.734   1.667   8.447  0.1685 -0.4526  0.6979
  891MOL0     C20160   6.647   1.739   8.543 -0.2355  0.0280 -0.0921
  891MOL0     C20161   6.531   1.804   8.468 -0.0229  1.0574  0.0356
  891MOL0     C20162   6.412   1.710   8.458 -0.8067  0.0735 -0.4106
  891MOL0     C20163   6.279   1.782   8.440 -0.7048 -0.3758  0.1868
  891MOL0     C20164   6.251   1.820   8.298 -0.4725  0.7996  0.0848
  891MOL0     C20165   6.125   1.909   8.291  0.5473  0.3431  0.6507
  891MOL0     C20166   6.056   1.893   8.153 -0.6829 -1.1157  0.1783
  891MOL0     N20167   5.931   1.976   8.155  0.9694  0.2926 -0.3716
  891MOL0     C20168   5.814   1.952   8.220  1.2118  1.4367  0.6521
  891MOL0     C20169   5.734   2.052   8.200  0.0586  0.7029 -0.4828
  891MOL0     C20170   5.593   2.069   8.258  0.1582  0.0474  0.9019
  891MOL0     C20171   5.496   2.008   8.153 -0.2813 -0.4790 -1.2614
  891MOL0     C20172   5.360   2.041   8.196  0.1222 -0.5767  0.5833
  891MOL0     C20173   5.262   1.981   8.094  0.1202  0.2982  0.1398
  891MOL0     O20174   5.135   2.005   8.155  0.0138 -0.0889  0.1202
  891MOL0     C20175   5.028   1.976   8.076  0.4704 -0.3020 -0.4639
  891MOL0     C20176   5.016   1.887   7.972 -0.6490  0.7989 -0.2141
  891MOL0     C20177   4.904   1.869   7.892 -0.9217 -0.1528 -0.1863
  891MOL0     C20178   4.924   1.786   7.766  0.1082 -0.4431 -0.0025
  891MOL0     C20179   4.787   1.936   7.927  0.0362 -0.1666 -0.5079
  891MOL0     C20180   4.659   1.919   7.858  0.4272  0.5796 -0.2655
  891MOL0     O20181   4.567   2.011   7.891  0.1408 -0.3172 -0.3645
  891MOL0     C20182   4.446   2.003   7.836  0.0233 -0.8674 -1.0688
  891MOL0     C20183   4.333   1.989   7.914  0.0433 -0.6387 -0.3803
  891MOL0     C20184   4.202   1.973   7.854  0.2170 -0.2397 -0.3945
  891MOL0     C20185   4.191   1.974   7.715  0.1668 -0.3412 -0.3178
  891MOL0     O20186   4.072   1.969   7.646 -0.6930  0.1552 -0.2928
  891MOL0     C20187   3.942   1.963   7.704 -0.4665  0.5360  0.3596
  891MOL0     C20188   3.910   1.821   7.721  0.7185 -0.1784 -0.1626
  891MOL0     C20189   3.780   1.806   7.791  0.2163  0.4244  1.2120
  891MOL0     C20190   3.651   1.854   7.708 -0.1488 -0.6285  0.3763
  891MOL0     C20191   3.509   1.832   7.769 -0.4626 -0.3706 -0.4664
  891MOL0     C20192   3.408   1.872   7.669  0.4680 -1.2993  0.1134
  891MOL0     C20193   3.256   1.854   7.709  0.3017  0.0373 -0.0518
  891MOL0     C20194   3.168   1.862   7.587  0.0554 -0.2721 -0.4541
  891MOL0    Cl20195   3.002   1.803   7.617  0.1676 -0.7918  0.2966
  891MOL0     C20196   4.305   1.991   7.638 -0.3403  0.3146 -0.2349
  891MOL0     C20197   4.427   2.008   7.700  0.1992 -0.0976  0.4650
  891MOL0     O20198   4.640   1.810   7.799  0.5802 -0.0542  0.2121
  891MOL0     C20199   4.783   2.022   8.040  0.4384  0.1209  0.1339
  891MOL0     C20200   4.905   2.042   8.108 -0.1673 -0.4570  0.3865
  891MOL0     N20201   5.797   2.145   8.120  0.5658  0.3398  0.7378
  891MOL0     N20202   5.916   2.096   8.090  0.2950  0.3833  0.4304
  891MOL0     C20203   7.011   1.639   8.314  0.4383  0.5577 -0.2587
  891MOL0     C20204   7.139   1.644   8.266  0.3056  0.2137  0.0344
  891MOL0     C20205   7.503   1.848   8.046  0.3440  0.5064  0.1887
  891MOL0     C20206   7.551   1.872   7.913 -0.0435  0.5456 -0.3445
  891MOL0     C20207   7.680   1.903   7.890 -0.0494 -0.5120  0.3448
  891MOL0     C20208   7.770   1.933   7.991  0.7958  0.0952 -0.3986
  891MOL0     O20209   7.901   1.977   7.970  0.6224  0.4251  0.9805
  891MOL0     C20210   7.936   2.055   7.854 -0.0015  0.6545  0.2058
  891MOL0     C20211   8.091   2.090   7.866  0.9458  0.3857  0.1866
  891MOL0     C20212   8.172   1.965   7.844 -0.3482 -0.3679 -0.4081
  891MOL0     C20213   8.307   1.974   7.917 -0.3426 -0.4479  0.4569
  891MOL0     C20214   8.396   2.085   7.871  0.0196  0.8028  0.4238
  891MOL0     C20215   8.471   2.173   7.833  0.1208  0.4904 -0.2704
  891MOL0     C20216   7.732   1.909   8.123 -0.2496  0.1998 -0.6015
  891MOL0     C20217   7.599   1.860   8.152 -0.3577 -0.2114  1.0512
  891MOL0     H20218   7.162   1.981   8.216  0.9930 -0.3146  3.2857
  891MOL0     H20219   6.924   1.963   8.283  0.3249 -0.6737 -1.7297
  891MOL0     H20220   6.681   1.594   8.386  1.0138  2.6921 -4.3626
  891MOL0     H20221   6.798   1.609   8.515 -0.9651 -0.1712  2.0661
  891MOL0     H20222   6.616   1.676   8.627  1.0157  0.2257  0.5317
  891MOL0     H20223   6.711   1.818   8.582  1.2131 -1.2595  0.2413
  891MOL0     H20224   6.497   1.895   8.519 -1.3941 -0.1760  1.4069
  891MOL0     H20225   6.557   1.834   8.366  1.4289  1.3797  0.4742
  891MOL0     H20226   6.423   1.640   8.375 -3.1498 -2.6170  1.3307
  891MOL0     H20227   6.399   1.643   8.544 -0.4879  0.6632  0.1055
  891MOL0     H20228   6.193   1.733   8.488  0.9065 -2.5949  0.9635
  891MOL0     H20229   6.284   1.867   8.508 -0.3993 -0.5960  0.4423
  891MOL0     H20230   6.345   1.863   8.263  1.2680 -0.8629  2.3742
  891MOL0     H20231   6.230   1.723   8.253  2.7192 -0.8605  1.8171
  891MOL0     H20232   6.048   1.870   8.358  0.6435 -1.1494 -0.0487
  891MOL0     H20233   6.139   2.010   8.330  0.0514  0.0579  1.6114
  891MOL0     H20234   6.032   1.789   8.129  0.5564 -0.5525 -4.3424
  891MOL0     H20235   6.126   1.917   8.073 -2.6048  2.5510 -0.6500
  891MOL0     H20236   5.798   1.861   8.276  0.1114  0.4564 -1.1336
  891MOL0     H20237   5.595   2.029   8.359 -1.2613  0.8947  1.2871
  891MOL0     H20238   5.580   2.177   8.259  1.4102  0.3247 -1.7392
  891MOL0     H20239   5.514   1.900   8.151  1.0432 -0.3912  1.3977
  891MOL0     H20240   5.522   2.058   8.059 -1.1432  0.0304 -1.2354
  891MOL0     H20241   5.340   2.149   8.204 -1.0104 -0.9098  3.0126
  891MOL0     H20242   5.329   2.012   8.297  2.1373  2.3544  2.2018
  891MOL0     H20243   5.274   1.872   8.099 -1.4004  0.1385  0.9412
  891MOL0     H20244   5.283   2.019   7.994  1.4401  2.3227  1.1300
  891MOL0     H20245   5.109   1.835   7.951 -0.4898  0.6153  0.9020
  891MOL0     H20246   4.888   1.684   7.784  0.3904 -0.7571 -1.1320
  891MOL0     H20247   4.862   1.816   7.682 -2.2073 -2.0641  1.0084
  891MOL0     H20248   5.028   1.777   7.732  0.4562  0.1770  0.8712
  891MOL0     H20249   4.347   1.986   8.022 -2.7167  0.5799  0.0945
  891MOL0     H20250   4.120   1.949   7.920  2.2314 -1.4207  1.8398
  891MOL0     H20251   3.948   2.008   7.804  2.0561 -2.6698  1.8532
  891MOL0     H20252   3.880   2.025   7.638  1.2173  3.0380  0.9942
  891MOL0     H20253   3.890   1.769   7.627 -1.9721  0.4936 -0.0172
  891MOL0     H20254   3.985   1.765   7.779 -1.7630 -0.0081  3.5847
  891MOL0     H20255   3.789   1.859   7.886  3.1742  0.2251  1.1337
  891MOL0     H20256   3.766   1.703   7.823  0.4043  0.3007  0.9066
  891MOL0     H20257   3.657   1.961   7.689 -0.3572 -0.7783 -0.6166
  891MOL0     H20258   3.655   1.810   7.607  1.0805  1.1830 -0.4140
  891MOL0     H20259   3.498   1.869   7.871  0.0078 -1.8386  0.1465
  891MOL0     H20260   3.499   1.724   7.785  3.2665 -0.8211 -0.2903
  891MOL0     H20261   3.415   1.975   7.633  0.5826 -1.5508 -0.6188
  891MOL0     H20262   3.415   1.813   7.577 -3.4324 -0.9925 -0.5345
  891MOL0     H20263   3.242   1.932   7.785  0.9554 -0.8184  0.9848
  891MOL0     H20264   3.253   1.754   7.754  0.4677 -0.4220 -1.0315
  891MOL0     H20265   3.214   1.808   7.504 -0.8825 -1.1886 -0.3942
  891MOL0     H20266   3.162   1.968   7.560  1.1079  0.3006  1.3483
  891MOL0     H20267   4.293   2.004   7.531 -2.2961 -2.8075 -0.5149
  891MOL0     H20268   4.511   2.042   7.641  0.2776  2.6229  1.9738
  891MOL0     H20269   4.695   2.060   8.091  1.1468  1.4320  0.4424
  891MOL0     H20270   4.898   2.113   8.190  0.6015  0.0066  0.0538
  891MOL0     H20271   6.960   1.550   8.348 -2.2569  2.1569  0.1981
  891MOL0     H20272   7.198   1.553   8.261 -1.2821 -0.8352 -0.0981
  891MOL0     H20273   7.474   1.883   7.838 -3.6542  1.6007  3.1343
  891MOL0     H20274   7.714   1.923   7.789  1.2088 -3.5871  0.0190
  891MOL0     H20275   7.919   2.009   7.757  2.0986  0.3671 -0.0622
  891MOL0     H20276   7.893   2.155   7.862  2.1488  1.5085  2.2445
  891MOL0     H20277   8.108   2.123   7.969 -1.8776  1.0888  0.5217
  891MOL0     H20278   8.127   2.169   7.800  0.0800  1.0745  0.5106
  891MOL0     H20279   8.197   1.950   7.738  0.8086  0.1160 -0.2127
  891MOL0     H20280   8.121   1.877   7.884  0.2457 -0.8882 -0.7814
  891MOL0     H20281   8.354   1.877   7.901 -0.6665 -0.2110 -2.4732
  891MOL0     H20282   8.284   1.994   8.023  2.1765 -1.0090  1.1609
  891MOL0     H20283   8.542   2.252   7.815 -0.3788  1.5795  2.1521
  891MOL0     H20284   7.803   1.937   8.199 -0.1319  1.2855 -1.0783
  891MOL0     H20285   7.573   1.838   8.255 -1.2543  0.6486  1.0274
  892MOL0     O20286   5.274  10.969   5.421 -0.8025 -0.0059 -0.4532
  892MOL0     C20287   5.324  10.942   5.315 -0.4589  0.4915  0.4283
  892MOL0     O20288   5.261  10.922   5.195 -0.4835  0.4853  0.7956
  892MOL0     C20289   5.130  10.913   5.188  1.7751 -0.3207 -0.5799
  892MOL0     C20290   5.075  10.810   5.106  0.8277  0.0149 -0.4655
  892MOL0     C20291   4.939  10.793   5.089 -0.8995  0.3984 -0.0418
  892MOL0     C20292   4.850  10.877   5.157 -0.2515  0.4577  0.3216
  892MOL0     O20293   4.716  10.851   5.163  0.1879 -0.6875 -0.9217
  892MOL0     C20294   4.666  10.740   5.092 -0.7523  0.4308  0.5586
  892MOL0     C20295   4.519  10.760   5.111  0.0349 -0.1795 -0.2786
  892MOL0     C20296   4.475  10.739   5.249 -0.2001 -0.6318 -0.2223
  892MOL0     C20297   4.349  10.654   5.252  1.0276 -0.0850  0.2205
  892MOL0     C20298   4.219  10.712   5.208 -0.1872 -0.6183 -0.1747
  892MOL0     C20299   4.103  10.610   5.220  0.0590 -0.0890  0.3051
  892MOL0     C20300   3.975  10.666   5.159 -0.4836 -0.9866 -0.5300
  892MOL0     C20301   3.849  10.591   5.178 -0.6972  0.0421  0.0415
  892MOL0     N20302   3.735  10.640   5.103 -0.4288 -0.0787 -0.2068
  892MOL0     C20303   3.685  10.762   5.133 -0.1969 -0.3338 -0.5598
  892MOL0     C20304   3.599  10.786   5.027 -0.0476 -0.1502  0.4468
  892MOL0     C20305   3.493  10.894   5.012 -0.3536  0.6883  0.5307
  892MOL0     C20306   3.375  10.851   5.095 -0.1175 -0.8935 -0.4405
  892MOL0     C20307   3.300  10.729   5.043 -0.5887 -0.3372 -1.0308
  892MOL0     C20308   3.176  10.695   5.124 -0.1555 -0.0955  0.1687
  892MOL0     O20309   3.096  10.601   5.048  0.4371 -0.0287  0.1720
  892MOL0     C20310   3.020  10.644   4.942  0.4414  0.0762 -1.6276
  892MOL0     C20311   2.941  10.546   4.884  0.0629  0.6897 -0.6514
  892MOL0     C20312   2.846  10.577   4.780 -0.6500  0.0406 -0.5690
  892MOL0     C20313   2.783  10.455   4.713  0.2009  1.1566 -0.1130
  892MOL0     C20314   2.837  10.709   4.728  0.4907  0.2088 -0.2384
  892MOL0     C20315   2.751  10.747   4.614 -0.5198 -0.7309  0.0858
  892MOL0     O20316   2.705  10.881   4.608 -0.3649  0.1244 -0.3242
  892MOL0     C20317   2.618  10.932   4.517 -0.1025  0.1014  0.8037
  892MOL0     C20318   2.600  11.069   4.514 -0.0691 -0.1803 -0.6020
  892MOL0     C20319   2.513  11.145   4.436  0.0322  0.7334  0.0332
  892MOL0     C20320   2.438  11.070   4.344 -0.1786  0.4348 -0.7804
  892MOL0     O20321   2.347  11.137   4.268  0.4222 -0.1234 -1.1745
  892MOL0     C20322   2.214  11.076   4.246 -0.6914  0.5552  0.5711
  892MOL0     C20323   2.116  11.181   4.182  0.5235 -0.3802 -0.2611
  892MOL0     C20324   2.080  11.298   4.269 -0.0747  0.1068 -0.1026
  892MOL0     C20325   1.989  11.258   4.395 -0.1970 -0.7216  0.5012
  892MOL0     C20326   1.864  11.199   4.361  0.2927 -0.4266 -0.0876
  892MOL0     C20327   1.786  11.271   4.250 -1.0339  0.4408 -0.4390
  892MOL0     C20328   1.645  11.221   4.233 -0.2147  0.8585 -0.1475
  892MOL0     C20329   1.601  11.306   4.115 -0.0209  0.4030  0.0499
  892MOL0    Cl20330   1.451  11.251   4.041 -0.2516 -0.1058 -0.3180
  892MOL0     C20331   2.457  10.936   4.338 -0.6329  0.3025 -0.0138
  892MOL0     C20332   2.545  10.862   4.421  0.0086  0.7165  0.7569
  892MOL0     O20333   2.751  10.678   4.516 -0.2165  0.2190  0.6744
  892MOL0     C20334   2.919  10.808   4.790 -0.7572 -0.9956  0.4659
  892MOL0     C20335   3.012  10.775   4.895  0.2811  0.2088  0.9228
  892MOL0     N20336   3.610  10.674   4.936  0.4140 -1.1283 -0.3168
  892MOL0     N20337   3.701  10.591   4.983 -0.0318  0.0178  1.2825
  892MOL0     C20338   4.899  10.985   5.227 -0.2011 -0.3458  0.1219
  892MOL0     C20339   5.039  11.005   5.242  0.0413 -0.2455 -0.3279
  892MOL0     C20340   5.461  10.899   5.319  0.3852 -0.1740  0.5958
  892MOL0     C20341   5.552  10.915   5.425  0.3365 -0.6941  0.0960
  892MOL0     C20342   5.677  10.862   5.424  0.2840  0.5483  0.5636
  892MOL0     C20343   5.723  10.784   5.318  0.2662  0.4856 -0.3813
  892MOL0     O20344   5.841  10.709   5.316  0.2241 -0.5478  0.5307
  892MOL0     C20345   5.926  10.717   5.431 -0.1627 -0.0801 -0.2462
  892MOL0     C20346   6.057  10.638   5.405  0.2090  0.1845  1.1211
  892MOL0     C20347   6.148  10.689   5.282 -0.0124 -0.7078  0.2180
  892MOL0     C20348   6.175  10.841   5.283 -0.6591 -0.0808  0.6851
  892MOL0     C20349   6.296  10.876   5.207 -0.3208 -0.0910 -0.0068
  892MOL0     C20350   6.396  10.897   5.145 -0.1422  0.3859  0.2448
  892MOL0     C20351   5.648  10.763   5.208 -0.2954  0.0905 -0.2005
  892MOL0     C20352   5.517  10.824   5.210  0.4148  0.4636  0.3871
  892MOL0     H20353   5.145  10.740   5.061  0.9778  0.6003 -1.1510
  892MOL0     H20354   4.904  10.712   5.026 -0.5928 -0.1966  0.5337
  892MOL0     H20355   4.691  10.758   4.987  1.4665  1.0799  1.1448
  892MOL0     H20356   4.697  10.643   5.132  1.5745  0.9064  0.0375
  892MOL0     H20357   4.474  10.855   5.079 -1.0638 -0.1672  1.1698
  892MOL0     H20358   4.475  10.679   5.053 -4.5141 -0.2166  2.6865
  892MOL0     H20359   4.550  10.699   5.318 -0.0553 -0.4317 -0.2613
  892MOL0     H20360   4.443  10.833   5.296  1.0894 -0.7999  1.0820
  892MOL0     H20361   4.363  10.565   5.189 -1.6795 -2.5275  2.7306
  892MOL0     H20362   4.338  10.620   5.356  0.5183  0.7540  0.4481
  892MOL0     H20363   4.196  10.800   5.268  1.5805  1.0344 -1.7771
  892MOL0     H20364   4.226  10.729   5.100  0.1550 -2.8290 -0.5687
  892MOL0     H20365   4.139  10.523   5.165 -1.1798 -1.9535  2.2900
  892MOL0     H20366   4.081  10.575   5.321 -0.7239 -1.4610 -0.3259
  892MOL0     H20367   3.967  10.773   5.182  1.0919 -0.0361 -3.8018
  892MOL0     H20368   3.990  10.677   5.051  0.8948  1.4329 -0.1703
  892MOL0     H20369   3.826  10.589   5.285  3.5364  0.2800  1.1297
  892MOL0     H20370   3.876  10.489   5.148 -0.8294  0.1859 -0.5819
  892MOL0     H20371   3.713  10.829   5.213  1.7579 -0.0523 -1.4176
  892MOL0     H20372   3.543  10.986   5.044  0.8373  0.7416 -1.3725
  892MOL0     H20373   3.458  10.905   4.909  0.2009  2.2337  0.4754
  892MOL0     H20374   3.308  10.936   5.108 -2.5098 -2.3141 -2.3969
  892MOL0     H20375   3.403  10.825   5.197  0.9474 -2.0260 -0.9975
  892MOL0     H20376   3.367  10.644   5.034 -0.3642 -0.0264 -2.4852
  892MOL0     H20377   3.272  10.752   4.940  2.1664  1.8347 -1.4206
  892MOL0     H20378   3.121  10.784   5.154 -1.4524 -0.7125 -0.3295
  892MOL0     H20379   3.202  10.645   5.218 -3.1965  0.8138  1.6245
  892MOL0     H20380   2.962  10.446   4.922 -1.0384  0.7572  0.1875
  892MOL0     H20381   2.850  10.425   4.631  1.1348  0.1900  0.9662
  892MOL0     H20382   2.764  10.375   4.785 -0.6053  1.2085 -0.2579
  892MOL0     H20383   2.682  10.477   4.676  0.9070  3.6354 -0.7955
  892MOL0     H20384   2.666  11.120   4.584 -2.1210 -0.2813  1.5662
  892MOL0     H20385   2.495  11.250   4.454 -0.0236  0.3392  2.8764
  892MOL0     H20386   2.216  10.985   4.185 -0.5496  1.4073 -0.7461
  892MOL0     H20387   2.183  11.042   4.345 -0.0049 -1.0986  0.2588
  892MOL0     H20388   2.175  11.216   4.097 -0.8036  0.2419 -0.9499
  892MOL0     H20389   2.020  11.138   4.155  0.8050 -0.5961 -0.9401
  892MOL0     H20390   2.020  11.376   4.222  0.2744 -0.2650 -1.1847
  892MOL0     H20391   2.173  11.349   4.295  0.5204 -0.4755 -1.0225
  892MOL0     H20392   2.041  11.185   4.458 -1.2575 -2.3031 -0.4037
  892MOL0     H20393   1.974  11.352   4.450 -0.6432 -0.3345 -0.2710
  892MOL0     H20394   1.801  11.197   4.450 -0.3524 -0.2216 -0.5267
  892MOL0     H20395   1.884  11.097   4.327  1.1893 -0.8019  1.4738
  892MOL0     H20396   1.791  11.377   4.274 -0.6720  0.7140 -1.6145
  892MOL0     H20397   1.837  11.238   4.159  2.0682 -2.3420  2.0691
  892MOL0     H20398   1.586  11.244   4.322 -2.4875 -4.3956  0.0459
  892MOL0     H20399   1.643  11.112   4.223 -1.1240  1.0708 -3.2304
  892MOL0     H20400   1.667  11.309   4.028 -1.1162  3.6154 -0.8120
  892MOL0     H20401   1.600  11.409   4.153  1.2392 -0.4787  2.7171
  892MOL0     H20402   2.392  10.884   4.268  0.0864 -1.5769  0.6457
  892MOL0     H20403   2.559  10.756   4.398 -0.3415  0.7158  0.5270
  892MOL0     H20404   2.917  10.917   4.782  1.5815 -0.8272  1.5181
  892MOL0     H20405   3.071  10.847   4.950  0.0504  2.0206 -1.0846
  892MOL0     H20406   4.826  11.048   5.277  0.7699  1.1008 -0.2191
  892MOL0     H20407   5.072  11.090   5.302 -1.2254  1.5038 -1.9567
  892MOL0     H20408   5.519  10.976   5.508 -2.8728 -1.6549 -0.3200
  892MOL0     H20409   5.733  10.874   5.516  0.3430 -1.2077  0.7807
  892MOL0     H20410   5.942  10.821   5.462  1.8100 -0.9560  1.9480
  892MOL0     H20411   5.873  10.677   5.518  2.4806 -0.8722  1.0929
  892MOL0     H20412   6.033  10.534   5.382 -0.4019  0.7406 -0.9606
  892MOL0     H20413   6.112  10.643   5.499  0.2842  1.6417  1.0290
  892MOL0     H20414   6.112  10.662   5.182  0.4192 -0.2178 -0.0779
  892MOL0     H20415   6.247  10.646   5.295 -0.3462 -1.5604  0.0132
  892MOL0     H20416   6.187  10.877   5.386  1.5349  0.5916  0.2403
  892MOL0     H20417   6.093  10.902   5.243 -3.3505 -3.6799  0.2308
  892MOL0     H20418   6.498  10.910   5.114  0.7092  0.4062  2.8004
  892MOL0     H20419   5.686  10.720   5.116  0.7742  0.4255  0.0602
  892MOL0     H20420   5.462  10.811   5.117 -0.6015  2.0602  0.7233
  893MOL0     O20421   6.487   4.886   9.164  0.6148  0.5954  0.0930
  893MOL0     C20422   6.536   4.866   9.050  0.8217 -0.0136  0.2780
  893MOL0     O20423   6.478   4.889   8.924 -0.0983 -0.4243  0.0552
  893MOL0     C20424   6.358   4.958   8.914  0.0173 -0.4868  0.0654
  893MOL0     C20425   6.282   4.940   8.794  0.2807 -0.0213 -0.6559
  893MOL0     C20426   6.148   4.993   8.783  0.1560 -0.1651  0.3301
  893MOL0     C20427   6.097   5.087   8.870  0.0644  0.1036  0.1677
  893MOL0     O20428   5.969   5.143   8.851  0.9291  0.5769  0.4192
  893MOL0     C20429   5.880   5.078   8.753  0.2382 -0.7246 -0.8454
  893MOL0     C20430   5.726   5.117   8.765 -0.1585 -0.5908 -0.7215
  893MOL0     C20431   5.645   5.101   8.632 -0.5159  0.7814 -0.0970
  893MOL0     C20432   5.513   5.176   8.648  0.0133  1.1920 -0.1965
  893MOL0     C20433   5.401   5.087   8.580  0.3627 -0.2249 -0.1124
  893MOL0     C20434   5.275   5.169   8.557  0.4971  0.4403  0.1268
  893MOL0     C20435   5.163   5.071   8.518 -0.1298 -0.9374 -0.5151
  893MOL0     C20436   5.027   5.147   8.521 -0.0631 -0.4468  0.3642
  893MOL0     N20437   4.923   5.059   8.463 -0.2411 -0.0169 -0.3560
  893MOL0     C20438   4.831   4.985   8.531 -0.6906 -1.7666 -0.1704
  893MOL0     C20439   4.732   4.953   8.442  0.6083  0.1076  0.5413
  893MOL0     C20440   4.605   4.871   8.454 -0.1956  0.0685 -0.5641
  893MOL0     C20441   4.480   4.964   8.457 -0.0015  0.3230  0.9659
  893MOL0     C20442   4.437   4.998   8.605 -0.8097 -1.1495  0.1477
  893MOL0     C20443   4.370   5.135   8.612 -0.6984  0.0299  0.2077
  893MOL0     O20444   4.303   5.175   8.489  0.0612  0.1244 -0.3598
  893MOL0     C20445   4.165   5.170   8.482  0.1508 -0.6695 -0.7173
  893MOL0     C20446   4.082   5.082   8.547 -0.3237  0.5581 -0.2657
  893MOL0     C20447   3.944   5.104   8.551 -1.3032  0.4412 -0.8000
  893MOL0     C20448   3.861   5.010   8.631 -0.0522 -0.1201 -0.0402
  893MOL0     C20449   3.888   5.202   8.479 -0.0729 -0.7029  0.2148
  893MOL0     C20450   3.740   5.220   8.475 -0.0521  0.3431  0.2613
  893MOL0     O20451   3.681   5.329   8.529  0.7290  0.6238  0.1553
  893MOL0     C20452   3.544   5.342   8.528 -0.2063 -0.0799 -0.9275
  893MOL0     C20453   3.503   5.437   8.621  1.2024 -0.1935 -0.5019
  893MOL0     C20454   3.360   5.465   8.629  0.3868 -0.4311  0.3610
  893MOL0     C20455   3.261   5.388   8.561 -0.6001 -0.1438  0.2269
  893MOL0     O20456   3.130   5.406   8.569 -0.0003 -0.3238  0.2504
  893MOL0     C20457   3.032   5.309   8.516 -0.3667 -0.2442  0.0826
  893MOL0     C20458   2.887   5.356   8.556  0.2586 -0.7307 -0.3090
  893MOL0     C20459   2.842   5.461   8.449 -0.6638 -0.0243  0.1885
  893MOL0     C20460   2.788   5.399   8.326 -0.3148  0.2078 -0.3475
  893MOL0     C20461   2.734   5.508   8.230 -0.0986  0.3053  1.1059
  893MOL0     C20462   2.601   5.565   8.273  0.4392 -0.5547 -0.0776
  893MOL0     C20463   2.532   5.646   8.163 -0.7854 -0.3823 -0.4853
  893MOL0     C20464   2.381   5.656   8.196 -0.7891 -0.2714  0.8454
  893MOL0    Cl20465   2.356   5.726   8.368  0.4929  0.1073  0.2363
  893MOL0     C20466   3.307   5.295   8.460 -0.1342  0.7727  0.0099
  893MOL0     C20467   3.445   5.271   8.452  0.3164 -0.0589  0.5180
  893MOL0     O20468   3.687   5.119   8.432  0.3612 -0.0569 -0.3653
  893MOL0     C20469   3.969   5.286   8.403 -0.9508  0.9016  0.7523
  893MOL0     C20470   4.109   5.271   8.405 -0.2809  0.0581  0.2651
  893MOL0     N20471   4.770   5.004   8.323 -0.4006  0.5411  0.6364
  893MOL0     N20472   4.873   5.073   8.334 -0.2816  0.6253 -0.7044
  893MOL0     C20473   6.177   5.112   8.986 -0.2375  0.5903 -0.2246
  893MOL0     C20474   6.299   5.046   9.009 -0.8865  0.0086 -0.0477
  893MOL0     C20475   6.678   4.815   9.050 -0.8956  0.6437  0.5744
  893MOL0     C20476   6.745   4.797   9.167  0.4786 -0.4054 -0.2597
  893MOL0     C20477   6.872   4.759   9.174 -0.2235 -0.2659  0.5790
  893MOL0     C20478   6.947   4.744   9.051 -0.0719  0.2259 -0.1008
  893MOL0     O20479   7.075   4.689   9.036  0.6165 -0.3949 -0.0635
  893MOL0     C20480   7.157   4.667   9.154 -0.3631 -0.6218 -0.0040
  893MOL0     C20481   7.310   4.675   9.130 -0.5281 -0.3203  0.2570
  893MOL0     C20482   7.334   4.835   9.130 -0.9213 -0.1560  0.2127
  893MOL0     C20483   7.471   4.878   9.083 -0.7376  0.1580 -0.3017
  893MOL0     C20484   7.561   4.915   9.197  0.3135  0.6653 -0.7471
  893MOL0     C20485   7.622   4.954   9.298  0.0046 -0.1807 -0.1484
  893MOL0     C20486   6.878   4.742   8.931 -0.7123  0.1382 -0.4646
  893MOL0     C20487   6.749   4.785   8.929 -0.7261 -0.4928  0.8782
  893MOL0     H20488   6.324   4.873   8.719  1.0254  1.5870 -1.7293
  893MOL0     H20489   6.086   4.967   8.698 -0.0982  1.9439 -0.2111
  893MOL0     H20490   5.916   5.089   8.650  0.5822 -0.8790 -0.7419
  893MOL0     H20491   5.876   4.970   8.769  0.4335 -0.6931 -0.5927
  893MOL0     H20492   5.682   5.055   8.845  0.6632 -0.1710  0.0761
  893MOL0     H20493   5.714   5.221   8.797 -0.1377 -0.9452  0.4960
  893MOL0     H20494   5.685   5.156   8.546 -1.3596  3.0192  0.8602
  893MOL0     H20495   5.629   4.996   8.607 -5.1831  1.1000  0.6220
  893MOL0     H20496   5.481   5.185   8.752  2.1803  3.9565  0.3887
  893MOL0     H20497   5.520   5.281   8.616  1.2331  1.4463  0.7921
  893MOL0     H20498   5.423   5.055   8.477  0.4028 -0.3339 -0.0708
  893MOL0     H20499   5.384   4.997   8.640 -0.5700 -1.3574 -1.9813
  893MOL0     H20500   5.257   5.226   8.648 -1.6739 -0.3717  0.2651
  893MOL0     H20501   5.287   5.236   8.471 -0.8570  0.7050  0.1157
  893MOL0     H20502   5.187   5.025   8.422  1.0755 -1.1003 -0.1592
  893MOL0     H20503   5.157   4.989   8.590  3.3810 -0.7184  0.2069
  893MOL0     H20504   5.027   5.241   8.464 -1.7415  0.8289  2.3014
  893MOL0     H20505   5.000   5.169   8.625  0.9951  0.1214  0.5323
  893MOL0     H20506   4.832   4.970   8.638  1.6141  1.7067  0.4539
  893MOL0     H20507   4.602   4.804   8.368  2.0501 -0.4730 -0.2651
  893MOL0     H20508   4.602   4.815   8.548  1.8615  0.0545 -0.4613
  893MOL0     H20509   4.391   4.919   8.411 -1.3327  1.1452  2.6374
  893MOL0     H20510   4.511   5.052   8.400  2.5021  0.4261  2.3606
  893MOL0     H20511   4.524   4.996   8.671  1.3757  2.3990 -2.2850
  893MOL0     H20512   4.367   4.917   8.629 -1.0953 -0.6835  0.9555
  893MOL0     H20513   4.453   5.203   8.631 -0.7829  1.0749 -2.6181
  893MOL0     H20514   4.303   5.132   8.699  0.4783  0.8316  1.1684
  893MOL0     H20515   4.120   4.995   8.599  0.5023 -0.3632 -2.3199
  893MOL0     H20516   3.832   4.926   8.568 -1.5175 -0.5688  1.1604
  893MOL0     H20517   3.914   4.989   8.724 -0.6345 -3.2701 -0.3226
  893MOL0     H20518   3.768   5.058   8.662 -0.2228  0.0694 -0.8108
  893MOL0     H20519   3.575   5.506   8.663 -0.8926  1.8123  0.0366
  893MOL0     H20520   3.309   5.549   8.674  0.1678 -0.3590 -0.0172
  893MOL0     H20521   3.037   5.313   8.406 -0.0557 -1.8839  0.0122
  893MOL0     H20522   3.045   5.204   8.544 -1.5156 -0.2486  0.6540
  893MOL0     H20523   2.818   5.272   8.550 -0.8038  0.1263 -0.3150
  893MOL0     H20524   2.885   5.401   8.655  1.4502  0.5489 -0.8194
  893MOL0     H20525   2.928   5.521   8.418 -1.5407  0.7860 -0.7684
  893MOL0     H20526   2.767   5.522   8.499 -1.5110 -1.3703  0.6041
  893MOL0     H20527   2.870   5.343   8.279  0.0225  1.0339 -0.7593
  893MOL0     H20528   2.704   5.337   8.360 -1.0400  1.3707  0.0143
  893MOL0     H20529   2.717   5.464   8.131  0.8742  2.0114  0.1321
  893MOL0     H20530   2.811   5.586   8.232  1.0547 -0.8075  1.1568
  893MOL0     H20531   2.540   5.484   8.314 -2.3996  1.3813 -0.2683
  893MOL0     H20532   2.617   5.630   8.359 -2.0100 -0.6982  0.5428
  893MOL0     H20533   2.528   5.598   8.065 -1.0778  1.9661 -1.6963
  893MOL0     H20534   2.585   5.740   8.149 -0.7972 -0.1901  0.6426
  893MOL0     H20535   2.348   5.552   8.188  1.4298 -0.9437 -0.3788
  893MOL0     H20536   2.339   5.727   8.123  3.9784  1.0167 -0.9922
  893MOL0     H20537   3.245   5.264   8.377  1.3530 -0.6683 -0.6195
  893MOL0     H20538   3.470   5.199   8.374 -1.4404  1.4451 -1.5747
  893MOL0     H20539   3.927   5.371   8.350  0.3227  0.4265 -1.1382
  893MOL0     H20540   4.160   5.348   8.349  0.0258 -1.9681 -2.4412
  893MOL0     H20541   6.136   5.181   9.060 -0.4877 -0.0394  0.2289
  893MOL0     H20542   6.337   5.057   9.110 -0.6545 -4.9816  0.6848
  893MOL0     H20543   6.689   4.804   9.260 -2.5488 -0.5166 -1.9529
  893MOL0     H20544   6.914   4.745   9.273  1.0895  0.3099  0.1262
  893MOL0     H20545   7.121   4.726   9.239 -1.5508  1.1569 -1.6458
  893MOL0     H20546   7.132   4.562   9.174 -0.9758 -0.4483  0.1615
  893MOL0     H20547   7.339   4.640   9.030  0.4818 -0.5419  0.6176
  893MOL0     H20548   7.365   4.626   9.211 -3.0639 -1.0608  1.6062
  893MOL0     H20549   7.304   4.887   9.221 -1.2427 -0.6153  0.3749
  893MOL0     H20550   7.262   4.859   9.052 -0.5138 -0.9544 -0.4250
  893MOL0     H20551   7.450   4.964   9.019 -1.1702  1.5364  1.5850
  893MOL0     H20552   7.519   4.811   9.012  3.1696  4.5825 -2.3186
  893MOL0     H20553   7.671   5.011   9.374  1.4590 -2.0899  0.4026
  893MOL0     H20554   6.927   4.721   8.836  0.8191  1.3987  0.0123
  893MOL0     H20555   6.702   4.796   8.831  1.0235  0.6536  0.1302
  894MOL0     O20556   0.545   2.620   1.075 -0.5003  0.3369  0.1000
  894MOL0     C20557   0.536   2.738   1.112 -0.5675 -0.8459 -0.4514
  894MOL0     O20558   0.431   2.791   1.171 -0.2208 -0.0319  0.0001
  894MOL0     C20559   0.328   2.706   1.184  0.0549 -0.1381  0.0731
  894MOL0     C20560   0.229   2.703   1.089  0.0605  0.5117 -1.2729
  894MOL0     C20561   0.126   2.609   1.099 -0.6752  0.0211 -0.1170
  894MOL0     C20562   0.103   2.538   1.213 -1.0545  0.8956 -0.8445
  894MOL0     O20563  -0.011   2.462   1.213  0.0294 -0.8110 -0.4791
  894MOL0     C20564  -0.041   2.369   1.315  0.0913 -0.6358 -0.0782
  894MOL0     C20565  -0.171   2.288   1.283 -0.3046 -0.9994 -0.4158
  894MOL0     C20566  -0.196   2.167   1.374 -0.5053 -0.8362 -0.3211
  894MOL0     C20567  -0.344   2.126   1.357 -0.8995 -0.7865  0.1513
  894MOL0     C20568  -0.368   1.986   1.426  0.1433 -0.5201  0.5847
  894MOL0     C20569  -0.513   1.941   1.398  0.0572  0.3619  0.1719
  894MOL0     C20570  -0.585   1.931   1.537  1.2304 -1.5113  0.6608
  894MOL0     C20571  -0.725   1.880   1.541 -0.4019 -0.1156 -0.4480
  894MOL0     N20572  -0.801   1.899   1.668 -0.9867 -0.1861 -0.2071
  894MOL0     C20573  -0.780   1.999   1.759 -0.3222  0.7057  0.3322
  894MOL0     C20574  -0.869   1.975   1.860  0.7517  0.0035  0.7801
  894MOL0     C20575  -0.895   2.052   1.984 -0.0410  0.3109 -0.1749
  894MOL0     C20576  -0.900   2.207   1.941 -0.6783  0.2762  0.0245
  894MOL0     C20577  -0.944   2.292   2.064  0.0009  0.2829  0.1800
  894MOL0     C20578  -0.970   2.434   2.023 -0.4806  0.3257  0.6847
  894MOL0     O20579  -1.082   2.452   1.934 -0.4887  0.8422  0.5139
  894MOL0     C20580  -1.217   2.439   1.980 -0.3416  0.1517  0.2222
  894MOL0     C20581  -1.311   2.419   1.883  0.8312  0.5900  0.2242
  894MOL0     C20582  -1.447   2.400   1.917  0.6378  0.2302  0.2732
  894MOL0     C20583  -1.537   2.373   1.802  0.1016  0.2154  0.1259
  894MOL0     C20584  -1.491   2.409   2.055 -0.6895 -0.2575 -0.3515
  894MOL0     C20585  -1.631   2.387   2.108  0.9470  0.2202  0.5031
  894MOL0     O20586  -1.651   2.372   2.245 -0.2470 -0.1882  0.3719
  894MOL0     C20587  -1.767   2.399   2.310 -0.0448  0.4962 -0.8892
  894MOL0     C20588  -1.797   2.313   2.418 -0.4978 -0.2035 -1.6689
  894MOL0     C20589  -1.913   2.335   2.494 -0.5130 -0.7737 -1.3743
  894MOL0     C20590  -2.015   2.432   2.458  0.5590  0.9201  0.2476
  894MOL0     O20591  -2.127   2.445   2.546  0.3735 -0.1995 -0.0292
  894MOL0     C20592  -2.235   2.527   2.487 -0.2510 -0.7294 -0.0324
  894MOL0     C20593  -2.370   2.509   2.556  0.1466  0.0315 -0.3643
  894MOL0     C20594  -2.371   2.540   2.713  0.0973 -0.4035 -0.8168
  894MOL0     C20595  -2.519   2.524   2.754 -0.4337  0.1424  0.2293
  894MOL0     C20596  -2.539   2.549   2.905  0.3380  0.7491 -0.9918
  894MOL0     C20597  -2.685   2.523   2.952 -0.1449  0.1419 -0.1513
  894MOL0     C20598  -2.734   2.382   2.920  0.4081  0.5504 -0.7863
  894MOL0     C20599  -2.881   2.371   2.965 -0.2376 -0.3314  0.2824
  894MOL0    Cl20600  -2.906   2.444   3.132  0.0110 -0.4579  0.0234
  894MOL0     C20601  -1.985   2.506   2.346  0.1647  0.4016 -0.0491
  894MOL0     C20602  -1.865   2.498   2.269 -0.1925  0.7447 -0.4216
  894MOL0     O20603  -1.724   2.393   2.031 -0.7165  0.4616  0.2316
  894MOL0     C20604  -1.386   2.431   2.151  0.0414  0.2080 -0.2936
  894MOL0     C20605  -1.249   2.448   2.120 -0.1769 -1.3921  0.1573
  894MOL0     N20606  -0.931   1.852   1.839  0.3336  0.4048 -0.2665
  894MOL0     N20607  -0.887   1.803   1.725 -0.5028 -2.1024  0.0083
  894MOL0     C20608   0.205   2.545   1.309 -0.2321 -0.0673 -0.8140
  894MOL0     C20609   0.317   2.620   1.291 -0.1138  0.6920 -0.3778
  894MOL0     C20610   0.662   2.821   1.099  0.4925  0.2028 -0.1909
  894MOL0     C20611   0.790   2.763   1.107  0.3598  0.1676 -0.1456
  894MOL0     C20612   0.912   2.844   1.100  0.1075 -0.1544 -0.5384
  894MOL0     C20613   0.901   2.982   1.085  0.1572 -0.2140 -1.5313
  894MOL0     O20614   1.019   3.055   1.088  0.4253 -0.9617 -1.0405
  894MOL0     C20615   1.023   3.183   1.155  0.2568 -0.5150 -0.6292
  894MOL0     C20616   1.148   3.256   1.152 -0.3652  0.4968  0.1666
  894MOL0     C20617   1.142   3.392   1.234 -0.4264  0.3859  0.3689
  894MOL0     C20618   1.035   3.481   1.184 -0.4146  0.2348 -0.2514
  894MOL0     C20619   1.043   3.620   1.238  0.3102 -0.0695 -0.3726
  894MOL0     C20620   1.022   3.732   1.277  0.5011  0.6749  0.1885
  894MOL0     C20621   0.771   3.041   1.079 -0.0271  0.2230  0.1232
  894MOL0     C20622   0.655   2.960   1.085  0.1996  0.0994  1.1171
  894MOL0     H20623   0.249   2.774   1.010  2.4915  0.5043 -0.7388
  894MOL0     H20624   0.056   2.615   1.015 -1.2514  4.2711  0.4371
  894MOL0     H20625   0.043   2.299   1.317  0.5376 -0.1260 -0.5254
  894MOL0     H20626  -0.047   2.432   1.404  0.8083  2.4579 -2.0719
  894MOL0     H20627  -0.263   2.348   1.275 -2.1869 -3.3890  1.5623
  894MOL0     H20628  -0.158   2.251   1.181  3.6624 -1.5214  0.1351
  894MOL0     H20629  -0.131   2.091   1.328 -0.0929 -1.5947  1.4302
  894MOL0     H20630  -0.154   2.168   1.475  0.2039 -1.6466 -0.5934
  894MOL0     H20631  -0.417   2.197   1.399  1.1135  1.1748  0.4858
  894MOL0     H20632  -0.360   2.128   1.249  3.0890 -1.1623 -0.5681
  894MOL0     H20633  -0.292   1.910   1.408  0.5158 -0.2158  0.8651
  894MOL0     H20634  -0.362   2.003   1.533  0.8582 -1.6365  0.7335
  894MOL0     H20635  -0.566   2.008   1.330 -2.5837 -1.3693  0.3463
  894MOL0     H20636  -0.515   1.840   1.356  1.8078 -0.4452  1.8734
  894MOL0     H20637  -0.524   1.870   1.603  0.7487 -0.1429  2.4569
  894MOL0     H20638  -0.578   2.032   1.580 -0.2552 -1.0798 -0.0602
  894MOL0     H20639  -0.726   1.771   1.525 -3.7924 -0.8336  2.9865
  894MOL0     H20640  -0.780   1.930   1.462 -1.8622 -0.0779  0.5487
  894MOL0     H20641  -0.723   2.088   1.731 -1.1517  1.1787  0.1026
  894MOL0     H20642  -0.990   2.033   2.036  0.1876  1.6890  0.7910
  894MOL0     H20643  -0.810   2.038   2.051  0.1404 -0.9290 -0.6445
  894MOL0     H20644  -0.966   2.210   1.854  2.5128  0.8226 -2.5765
  894MOL0     H20645  -0.801   2.242   1.910 -0.7285  3.3054  2.6682
  894MOL0     H20646  -0.854   2.295   2.126  0.4539  1.8694 -0.5154
  894MOL0     H20647  -1.038   2.263   2.112 -0.9798  0.7793 -1.3726
  894MOL0     H20648  -0.887   2.471   1.963 -1.3221 -0.7358 -1.2201
  894MOL0     H20649  -0.976   2.502   2.109 -0.3535 -0.8398  1.6489
  894MOL0     H20650  -1.289   2.423   1.777 -1.7501 -2.9552 -0.6495
  894MOL0     H20651  -1.485   2.310   1.730 -2.3503 -0.4789 -1.1672
  894MOL0     H20652  -1.626   2.318   1.832  1.2477 -1.4563  0.5859
  894MOL0     H20653  -1.567   2.472   1.765 -3.5167 -0.1135  1.7770
  894MOL0     H20654  -1.731   2.229   2.435  1.8561  1.7512 -0.4820
  894MOL0     H20655  -1.919   2.276   2.585 -0.8376  1.2260 -0.0196
  894MOL0     H20656  -2.216   2.634   2.504 -5.5664  0.5540 -0.1909
  894MOL0     H20657  -2.254   2.515   2.379  1.2130 -0.7387 -0.3038
  894MOL0     H20658  -2.447   2.566   2.505 -1.4598 -2.9041 -1.4796
  894MOL0     H20659  -2.405   2.407   2.533  0.0557 -0.2249  0.8186
  894MOL0     H20660  -2.335   2.642   2.729  2.7470 -0.9702 -2.4574
  894MOL0     H20661  -2.309   2.475   2.775 -0.4317  0.2031  0.3796
  894MOL0     H20662  -2.583   2.590   2.695  1.9865  2.4625  0.0545
  894MOL0     H20663  -2.543   2.420   2.727  2.2053 -0.2234 -1.0893
  894MOL0     H20664  -2.522   2.655   2.924 -0.2373  0.8116 -0.8074
  894MOL0     H20665  -2.483   2.478   2.967  1.0501 -0.3758 -2.8519
  894MOL0     H20666  -2.674   2.537   3.060 -1.7179  0.2808  0.0128
  894MOL0     H20667  -2.745   2.605   2.911 -1.2908 -0.2308  0.7064
  894MOL0     H20668  -2.670   2.307   2.969  2.6888  1.7367 -1.7741
  894MOL0     H20669  -2.734   2.355   2.814  1.1030  0.5753 -0.8009
  894MOL0     H20670  -2.922   2.270   2.959  0.3971 -0.6010  0.4682
  894MOL0     H20671  -2.938   2.444   2.905  1.3546  3.0135  2.5074
  894MOL0     H20672  -2.056   2.572   2.297 -0.7541 -2.4147 -2.8461
  894MOL0     H20673  -1.845   2.555   2.179  1.2078  0.1058 -0.5522
  894MOL0     H20674  -1.416   2.454   2.253 -2.1104 -0.2236 -0.7679
  894MOL0     H20675  -1.166   2.475   2.184  1.2221 -0.1639 -2.0619
  894MOL0     H20676   0.190   2.475   1.391 -3.4349 -0.4792 -1.6196
  894MOL0     H20677   0.396   2.615   1.365  1.4547 -3.1265 -2.0699
  894MOL0     H20678   0.793   2.659   1.139  1.3692  1.2254  3.8149
  894MOL0     H20679   1.011   2.800   1.099  0.5593  0.5749  2.2192
  894MOL0     H20680   0.958   3.257   1.107  1.9860  2.7861  1.7054
  894MOL0     H20681   0.996   3.178   1.261  1.1988  2.3488 -0.1671
  894MOL0     H20682   1.184   3.278   1.051  1.2245  0.8654  0.7865
  894MOL0     H20683   1.222   3.194   1.202  0.6354  2.4643  1.2534
  894MOL0     H20684   1.234   3.449   1.222  0.1986 -0.0031  2.7653
  894MOL0     H20685   1.138   3.362   1.339 -1.3907  0.4412  0.3570
  894MOL0     H20686   0.945   3.446   1.236  1.0312 -0.3123  2.0478
  894MOL0     H20687   1.022   3.474   1.076  1.6067  1.3607 -0.6212
  894MOL0     H20688   0.995   3.832   1.304 -0.8540  0.7256 -1.2189
  894MOL0     H20689   0.760   3.149   1.072 -2.8930 -0.0279 -0.5407
  894MOL0     H20690   0.558   3.009   1.090  0.9707  1.8265 -0.1649
  895MOL0     O20691   9.568   2.620  10.716 -1.6952 -0.4214  0.4402
  895MOL0     C20692   9.604   2.574  10.824  0.7661  0.8932  0.6940
  895MOL0     O20693   9.516   2.522  10.918 -0.8256 -0.4516 -0.6343
  895MOL0     C20694   9.384   2.515  10.887  0.6529 -0.6179  0.4197
  895MOL0     C20695   9.310   2.641  10.894 -0.6620  0.8445  0.0857
  895MOL0     C20696   9.175   2.622  10.863 -0.3989 -0.2631 -0.2211
  895MOL0     C20697   9.116   2.498  10.828 -0.9226  0.1832  0.0520
  895MOL0     O20698   8.985   2.488  10.779  0.4305 -0.7572  0.2191
  895MOL0     C20699   8.903   2.609  10.796 -0.4734  0.3062  0.3164
  895MOL0     C20700   8.767   2.567  10.753 -0.0304 -0.6830 -0.9410
  895MOL0     C20701   8.660   2.678  10.784 -0.0395 -0.1608  0.8640
  895MOL0     C20702   8.538   2.623  10.708  0.3718 -0.1938 -0.2342
  895MOL0     C20703   8.423   2.729  10.706 -0.3295  0.1235 -0.1110
  895MOL0     C20704   8.316   2.693  10.600  0.6087 -0.0886 -0.5842
  895MOL0     C20705   8.196   2.777  10.638 -0.5433 -0.2927  0.1137
  895MOL0     C20706   8.072   2.728  10.559  0.0932  0.2319 -0.4619
  895MOL0     N20707   7.943   2.793  10.600 -0.0331  0.7032  0.6311
  895MOL0     C20708   7.856   2.877  10.523 -0.5909 -0.6637 -0.8064
  895MOL0     C20709   7.737   2.878  10.581  0.4240  0.8925  0.8407
  895MOL0     C20710   7.616   2.955  10.538 -0.2403 -0.1825  1.1952
  895MOL0     C20711   7.486   2.876  10.511 -1.0810  0.5025  0.4202
  895MOL0     C20712   7.363   2.954  10.498 -0.0498 -0.0590 -0.0520
  895MOL0     C20713   7.251   2.862  10.460  0.0681 -0.1166 -0.4052
  895MOL0     O20714   7.240   2.744  10.544 -0.3332 -0.1699 -0.8330
  895MOL0     C20715   7.133   2.666  10.541  0.8981 -0.1135  0.5805
  895MOL0     C20716   7.125   2.561  10.629  0.4110  0.5832 -1.1999
  895MOL0     C20717   7.030   2.455  10.621  0.5883 -0.4032  0.3668
  895MOL0     C20718   7.052   2.339  10.711 -0.0899  0.3432  0.6241
  895MOL0     C20719   6.917   2.476  10.527  0.5073 -0.0244  0.4090
  895MOL0     C20720   6.795   2.394  10.520 -0.1656 -0.2518  0.5320
  895MOL0     O20721   6.713   2.414  10.405 -0.2433 -0.3343 -0.1078
  895MOL0     C20722   6.605   2.343  10.387 -0.9650 -0.5676  0.5217
  895MOL0     C20723   6.479   2.372  10.422  0.7894 -0.0159  0.3036
  895MOL0     C20724   6.371   2.303  10.371  0.2892 -0.5613 -0.1668
  895MOL0     C20725   6.390   2.209  10.281  0.5081 -0.1372  0.2211
  895MOL0     O20726   6.277   2.141  10.235 -0.6290 -0.2285 -0.7164
  895MOL0     C20727   6.239   2.015  10.302  0.0559 -0.1292 -0.8313
  895MOL0     C20728   6.103   2.039  10.374 -0.0822  0.1797  0.6438
  895MOL0     C20729   6.000   2.054  10.274 -0.7300 -1.0221 -0.2186
  895MOL0     C20730   5.860   2.075  10.342 -0.4755  0.0972  0.2197
  895MOL0     C20731   5.763   2.092  10.228 -0.5154  0.4260 -0.0395
  895MOL0     C20732   5.622   2.132  10.276 -0.1911 -0.0884 -0.1685
  895MOL0     C20733   5.522   2.103  10.163 -0.5615 -0.1932 -0.4034
  895MOL0     C20734   5.392   2.065  10.223 -0.2163 -0.2895  0.3544
  895MOL0    Cl20735   5.310   2.221  10.249  0.1255 -0.1515 -0.1798
  895MOL0     C20736   6.518   2.175  10.243 -0.2085 -0.1698  0.0268
  895MOL0     C20737   6.629   2.242  10.299  0.7488  0.8877  0.3496
  895MOL0     O20738   6.781   2.297  10.591 -0.4026  1.0731 -0.1677
  895MOL0     C20739   6.935   2.580  10.432  0.1709 -0.3366 -0.1228
  895MOL0     C20740   7.042   2.674  10.435  0.0448 -1.0498  0.7486
  895MOL0     N20741   7.743   2.803  10.692 -0.2120 -0.1585  0.3469
  895MOL0     N20742   7.868   2.744  10.702  1.0122 -0.1625 -0.0422
  895MOL0     C20743   9.186   2.382  10.841 -0.2144  0.0270  0.0275
  895MOL0     C20744   9.325   2.390  10.874  0.2292 -0.2380  0.5630
  895MOL0     C20745   9.747   2.590  10.844 -0.0494 -0.3341 -0.5344
  895MOL0     C20746   9.791   2.581  10.970 -0.6366  0.2443 -0.9816
  895MOL0     C20747   9.929   2.574  10.993 -0.6916  0.1150  0.1815
  895MOL0     C20748  10.018   2.616  10.900 -0.0913  0.6818 -0.0714
  895MOL0     O20749  10.156   2.610  10.910  0.4107 -0.4756  0.2224
  895MOL0     C20750  10.220   2.543  11.019 -0.2962 -0.1568  0.4279
  895MOL0     C20751  10.222   2.632  11.146 -0.3615 -0.0315 -1.1402
  895MOL0     C20752  10.269   2.773  11.109  0.3954 -0.2931 -1.3307
  895MOL0     C20753  10.259   2.865  11.229 -0.4816 -0.1025  0.2774
  895MOL0     C20754  10.121   2.880  11.273  0.2706  0.1541  0.5931
  895MOL0     C20755  10.004   2.894  11.316 -0.2533 -0.7657 -0.7528
  895MOL0     C20756   9.970   2.649  10.770  0.1357  0.1647  0.8928
  895MOL0     C20757   9.835   2.632  10.743 -1.0852  0.1248 -0.3216
  895MOL0     H20758   9.349   2.739  10.919 -1.8630  1.2922  0.2398
  895MOL0     H20759   9.121   2.716  10.849  0.7334  0.2097 -1.6869
  895MOL0     H20760   8.916   2.662  10.891 -0.9480 -0.2354  0.6893
  895MOL0     H20761   8.944   2.683  10.727  0.9504 -0.4045  0.3548
  895MOL0     H20762   8.766   2.532  10.650  4.2788 -2.1952 -0.6560
  895MOL0     H20763   8.744   2.476  10.808 -2.1107  0.0783 -0.4664
  895MOL0     H20764   8.630   2.695  10.887  3.6596  0.9722  1.8974
  895MOL0     H20765   8.703   2.769  10.742  1.7306 -0.6896  1.4447
  895MOL0     H20766   8.564   2.610  10.602  1.4568 -0.0263  0.0087
  895MOL0     H20767   8.495   2.534  10.756  2.5806 -0.7906  0.7418
  895MOL0     H20768   8.381   2.725  10.807 -0.2303 -0.6380 -0.0947
  895MOL0     H20769   8.456   2.832  10.690 -0.4756 -0.0852 -1.8732
  895MOL0     H20770   8.353   2.708  10.499 -0.7917  0.0274 -1.0972
  895MOL0     H20771   8.286   2.589  10.616  0.3962  0.2674  1.6742
  895MOL0     H20772   8.171   2.782  10.744 -2.9391  2.4423 -0.4403
  895MOL0     H20773   8.212   2.881  10.609  0.6427 -0.8816 -1.5032
  895MOL0     H20774   8.068   2.620  10.573  0.1350  0.2430 -0.3632
  895MOL0     H20775   8.092   2.736  10.451  2.6302 -0.4161 -0.0975
  895MOL0     H20776   7.883   2.938  10.437  1.3663 -1.4168 -0.7808
  895MOL0     H20777   7.614   3.038  10.610 -0.8677  2.4492 -1.6670
  895MOL0     H20778   7.642   2.996  10.440  3.4716 -1.6011  1.4381
  895MOL0     H20779   7.480   2.806  10.596 -0.6645 -1.7395 -1.3067
  895MOL0     H20780   7.500   2.810  10.426  2.0660  1.9628 -0.3268
  895MOL0     H20781   7.380   3.032  10.424  0.7343 -3.6000 -4.0279
  895MOL0     H20782   7.326   3.005  10.588 -0.1022  1.9089 -1.1389
  895MOL0     H20783   7.269   2.820  10.360  2.1909  1.4146 -0.7604
  895MOL0     H20784   7.165   2.930  10.460  0.7197  0.7350 -1.1837
  895MOL0     H20785   7.199   2.558  10.708  0.5789 -0.3576 -1.3848
  895MOL0     H20786   7.038   2.242  10.662 -1.4341  1.0414 -0.4110
  895MOL0     H20787   7.158   2.350  10.737 -0.4642  3.2027  1.3094
  895MOL0     H20788   6.988   2.342  10.800 -0.4402  0.4342  0.3666
  895MOL0     H20789   6.462   2.460  10.483  0.5349  1.1027 -1.2943
  895MOL0     H20790   6.270   2.335  10.396  0.0063  0.1933 -2.0583
  895MOL0     H20791   6.234   1.922  10.245  1.5668 -1.4843  1.0912
  895MOL0     H20792   6.313   1.993  10.380 -2.2815 -2.1327  0.9840
  895MOL0     H20793   6.087   1.946  10.429  0.1974 -0.9937 -1.1610
  895MOL0     H20794   6.117   2.122  10.444  1.5176 -0.5612  1.2360
  895MOL0     H20795   5.994   1.967  10.208 -1.2474 -0.3747 -1.0526
  895MOL0     H20796   6.029   2.145  10.220  1.5753 -1.1605  0.6504
  895MOL0     H20797   5.829   1.993  10.407 -0.2237  1.0925  1.6512
  895MOL0     H20798   5.860   2.170  10.397 -0.2166  1.3858 -1.8775
  895MOL0     H20799   5.771   1.994  10.179 -1.0021 -1.2416  2.9880
  895MOL0     H20800   5.809   2.165  10.161  0.7133 -0.3949 -0.1166
  895MOL0     H20801   5.591   2.081  10.367 -0.6171  2.1729  1.0374
  895MOL0     H20802   5.606   2.238  10.299 -1.0693 -0.5449  1.4771
  895MOL0     H20803   5.549   2.017  10.101 -2.0894 -0.1308 -1.2313
  895MOL0     H20804   5.511   2.192  10.099 -0.5443  1.3352  1.6201
  895MOL0     H20805   5.405   1.994  10.306 -3.1177 -0.1922  1.0011
  895MOL0     H20806   5.328   2.017  10.149 -0.7126  0.5567  0.2297
  895MOL0     H20807   6.521   2.096  10.170 -1.5723 -2.1587  1.9832
  895MOL0     H20808   6.733   2.229  10.271  0.6051  1.3984 -0.4626
  895MOL0     H20809   6.866   2.602  10.351  1.2843  0.9985 -0.7437
  895MOL0     H20810   7.060   2.746  10.356  2.7657 -0.3402  1.8771
  895MOL0     H20811   9.138   2.290  10.811 -0.1429  0.3271 -1.0351
  895MOL0     H20812   9.376   2.294  10.880 -1.7464 -1.4000 -0.2968
  895MOL0     H20813   9.728   2.550  11.053 -0.9031  1.3429 -0.7702
  895MOL0     H20814   9.956   2.527  11.088 -1.4340 -0.5878  0.0554
  895MOL0     H20815  10.173   2.449  11.047  2.1540 -0.7916  2.8926
  895MOL0     H20816  10.324   2.518  10.995 -0.0272  0.3539  1.0100
  895MOL0     H20817  10.286   2.588  11.223 -1.1518 -1.3810 -1.2264
  895MOL0     H20818  10.118   2.637  11.180  0.3631  4.1461  1.1651
  895MOL0     H20819  10.205   2.830  11.041 -0.7171  0.8104  0.5366
  895MOL0     H20820  10.367   2.779  11.062  0.6437  3.1649 -0.6661
  895MOL0     H20821  10.290   2.967  11.202 -0.6817  0.2402  1.3025
  895MOL0     H20822  10.331   2.829  11.303 -0.8147 -1.2803  0.0477
  895MOL0     H20823   9.906   2.910  11.355  1.0458 -0.2223  2.6380
  895MOL0     H20824  10.043   2.694  10.704  1.0351 -0.8991  1.1324
  895MOL0     H20825   9.804   2.645  10.640 -0.3454  0.5237 -0.4979
  896MOL0     O20826   6.967   7.367   2.893 -0.3130  0.1741  0.1027
  896MOL0     C20827   6.940   7.261   2.835  0.0913 -0.7040  0.6240
  896MOL0     O20828   6.820   7.202   2.823 -0.0000 -0.0211 -0.2569
  896MOL0     C20829   6.703   7.259   2.861 -0.5421  0.1405  0.6039
  896MOL0     C20830   6.617   7.329   2.774 -0.5982  0.3362  0.5164
  896MOL0     C20831   6.521   7.405   2.829  0.1988 -0.6969  0.3483
  896MOL0     C20832   6.479   7.397   2.970  0.4680 -0.2973 -0.2979
  896MOL0     O20833   6.384   7.473   3.034  0.0183  0.1043  0.1667
  896MOL0     C20834   6.284   7.541   2.956  0.1698 -0.2336  0.2701
  896MOL0     C20835   6.153   7.520   3.035 -0.1456 -0.5214 -0.2912
  896MOL0     C20836   6.032   7.585   2.959 -0.1201 -0.2711 -0.6918
  896MOL0     C20837   5.914   7.611   3.061  0.3636  0.9005 -0.3975
  896MOL0     C20838   5.801   7.695   2.998 -0.6128 -0.1682 -0.2550
  896MOL0     C20839   5.710   7.756   3.109  0.8965  0.3163  0.3625
  896MOL0     C20840   5.658   7.886   3.055  0.1495 -0.2220 -0.3421
  896MOL0     C20841   5.552   7.973   3.131 -0.0047  0.0771 -0.1780
  896MOL0     N20842   5.428   7.901   3.139  0.3913  1.1329 -0.1270
  896MOL0     C20843   5.327   7.901   3.042 -1.1497  0.4416  0.2100
  896MOL0     C20844   5.227   7.843   3.102  0.6408  0.5689  0.1298
  896MOL0     C20845   5.099   7.843   3.040  0.5782 -0.0454  0.1799
  896MOL0     C20846   5.004   7.936   3.120 -0.3896 -0.6498  0.3915
  896MOL0     C20847   4.863   7.936   3.051 -0.3351 -0.4097 -1.0240
  896MOL0     C20848   4.802   7.805   3.071  0.2553  0.5372 -0.2781
  896MOL0     O20849   4.664   7.791   3.037 -0.1330 -0.9467 -0.8240
  896MOL0     C20850   4.566   7.791   3.138 -0.0253  0.0203  1.5535
  896MOL0     C20851   4.438   7.757   3.098 -0.5418  0.4246  0.1748
  896MOL0     C20852   4.334   7.742   3.188  0.5429 -0.3979 -0.8350
  896MOL0     C20853   4.197   7.706   3.126  0.2549  0.8125  0.1384
  896MOL0     C20854   4.353   7.768   3.331 -1.0601 -0.3663  0.0118
  896MOL0     C20855   4.246   7.760   3.430 -0.4453 -0.6781 -0.3815
  896MOL0     O20856   4.114   7.750   3.391  0.2836 -0.2657  0.0179
  896MOL0     C20857   4.024   7.695   3.474 -0.4513  0.1088 -2.0193
  896MOL0     C20858   3.998   7.750   3.605  0.3074 -0.5156 -0.6149
  896MOL0     C20859   3.898   7.698   3.691 -0.8837  0.1810 -0.9759
  896MOL0     C20860   3.833   7.581   3.651  0.4849  0.4883 -0.2201
  896MOL0     O20861   3.748   7.521   3.738  0.6689 -0.1482 -0.1636
  896MOL0     C20862   3.662   7.412   3.693 -0.1329  0.6887 -0.1246
  896MOL0     C20863   3.599   7.344   3.815 -0.3922 -0.1264 -0.1512
  896MOL0     C20864   3.527   7.209   3.804 -0.7790 -0.5055 -0.3697
  896MOL0     C20865   3.493   7.159   3.944  0.0064 -0.6462  0.6563
  896MOL0     C20866   3.433   7.022   3.957  0.1491  0.1049 -0.0226
  896MOL0     C20867   3.445   6.979   4.106 -0.5656  0.2829 -0.1651
  896MOL0     C20868   3.422   6.829   4.124  0.2190  0.1516  0.6582
  896MOL0     C20869   3.460   6.774   4.266  0.1626 -0.9334  0.6954
  896MOL0    Cl20870   3.355   6.870   4.368 -0.4516 -0.3480 -0.3626
  896MOL0     C20871   3.866   7.525   3.524  0.1557  0.2670 -0.4404
  896MOL0     C20872   3.953   7.589   3.433 -0.1017 -0.0943 -0.2781
  896MOL0     O20873   4.293   7.748   3.547  0.0727  0.6042 -0.3514
  896MOL0     C20874   4.482   7.808   3.365 -0.4731  0.3004  0.0881
  896MOL0     C20875   4.586   7.831   3.275 -1.7313 -0.1552  0.3929
  896MOL0     N20876   5.257   7.819   3.231 -0.0520  0.1637 -0.1600
  896MOL0     N20877   5.379   7.862   3.261 -0.4426 -0.2850 -0.1832
  896MOL0     C20878   6.555   7.310   3.050  0.6702 -0.6653  0.4491
  896MOL0     C20879   6.673   7.256   3.001 -0.1303 -0.4454  0.7976
  896MOL0     C20880   7.050   7.197   2.768 -0.0475  0.8755  0.2690
  896MOL0     C20881   7.181   7.233   2.800  1.1444 -0.4428  0.1299
  896MOL0     C20882   7.292   7.175   2.738 -0.1924 -0.2683 -1.0312
  896MOL0     C20883   7.278   7.069   2.643  0.3505  0.0320 -0.2487
  896MOL0     O20884   7.382   6.995   2.578  0.3835 -0.0543  0.3833
  896MOL0     C20885   7.509   6.981   2.646  0.9276 -0.0449  0.0327
  896MOL0     C20886   7.605   6.883   2.567  0.0604  0.3231 -0.4601
  896MOL0     C20887   7.692   6.957   2.460 -0.3891  0.1061  0.4734
  896MOL0     C20888   7.603   7.024   2.343  0.1194  0.4422  0.1830
  896MOL0     C20889   7.674   7.013   2.215 -1.0697  0.6427 -0.1614
  896MOL0     C20890   7.744   7.008   2.115  0.3958 -0.1396  0.0413
  896MOL0     C20891   7.141   7.045   2.606 -0.0055 -0.2676 -0.3682
  896MOL0     C20892   7.029   7.104   2.665 -0.6857  1.2717  0.0912
  896MOL0     H20893   6.642   7.337   2.669 -1.3091  4.0424  0.4909
  896MOL0     H20894   6.462   7.465   2.761  0.0814 -2.4538 -1.1821
  896MOL0     H20895   6.301   7.649   2.967 -1.2141 -0.1794  2.5285
  896MOL0     H20896   6.277   7.511   2.851 -3.0417  1.4811 -0.1284
  896MOL0     H20897   6.139   7.411   3.036  1.5960 -0.7762 -0.9171
  896MOL0     H20898   6.170   7.557   3.136  0.7510 -2.8353  0.4733
  896MOL0     H20899   6.064   7.678   2.912 -1.2725 -1.2378 -3.6039
  896MOL0     H20900   5.995   7.513   2.885 -1.3468 -0.3734 -0.0075
  896MOL0     H20901   5.873   7.513   3.085  1.1346  0.5931 -0.3153
  896MOL0     H20902   5.947   7.664   3.151 -1.0451  0.8033  0.1979
  896MOL0     H20903   5.851   7.768   2.934  0.3708 -1.7350 -1.3645
  896MOL0     H20904   5.736   7.638   2.932  0.8880 -3.9052  1.2110
  896MOL0     H20905   5.620   7.696   3.126  0.2544  1.7294  2.3493
  896MOL0     H20906   5.757   7.768   3.207  2.0296 -2.1002  0.1867
  896MOL0     H20907   5.744   7.947   3.026 -0.0797  0.3970  0.2605
  896MOL0     H20908   5.604   7.861   2.963  0.4956  1.6975 -1.1200
  896MOL0     H20909   5.536   8.064   3.073 -0.8025  0.7300  1.0320
  896MOL0     H20910   5.596   8.008   3.225  1.0217 -1.7601  0.0783
  896MOL0     H20911   5.321   7.951   2.945 -1.9608  0.9659  0.5229
  896MOL0     H20912   5.109   7.893   2.943 -3.9135  2.5636  0.7806
  896MOL0     H20913   5.061   7.741   3.041  0.0395  0.0719  3.9834
  896MOL0     H20914   5.049   8.035   3.110  0.1948 -1.1457 -2.9762
  896MOL0     H20915   4.995   7.899   3.222 -1.2008 -0.3810  0.4289
  896MOL0     H20916   4.883   7.948   2.944  2.5173  1.8752 -0.3562
  896MOL0     H20917   4.812   8.019   3.099  1.8604 -0.0159  0.7797
  896MOL0     H20918   4.820   7.770   3.173  1.5175  1.3493 -0.2074
  896MOL0     H20919   4.854   7.735   3.005 -0.4599 -0.9755  0.6982
  896MOL0     H20920   4.435   7.727   2.994 -0.0348  1.9298 -0.2999
  896MOL0     H20921   4.157   7.617   3.175  0.3933  2.3954  3.3796
  896MOL0     H20922   4.128   7.789   3.143 -1.1527 -0.0710 -1.0050
  896MOL0     H20923   4.223   7.690   3.021  2.8301 -1.1565  0.9505
  896MOL0     H20924   4.054   7.842   3.620 -0.3651 -0.4457  1.9327
  896MOL0     H20925   3.879   7.736   3.791  0.6119 -2.5074  0.4118
  896MOL0     H20926   3.579   7.446   3.631 -2.5484  1.8525  3.3978
  896MOL0     H20927   3.721   7.333   3.646 -1.2606 -3.4265  4.5654
  896MOL0     H20928   3.683   7.332   3.883 -0.9585  0.8454  0.7529
  896MOL0     H20929   3.519   7.407   3.857 -0.3357 -1.2438  1.7223
  896MOL0     H20930   3.586   7.132   3.753  0.9562 -1.4406  2.8045
  896MOL0     H20931   3.432   7.215   3.750 -0.5647 -2.8220 -1.1089
  896MOL0     H20932   3.582   7.168   4.007  0.7093 -0.9612 -0.2845
  896MOL0     H20933   3.420   7.228   3.989  0.0789 -1.0834  1.4685
  896MOL0     H20934   3.487   6.952   3.893  0.7344 -2.7743  3.3773
  896MOL0     H20935   3.325   7.028   3.939  0.2850 -0.2682 -1.0255
  896MOL0     H20936   3.543   7.017   4.136 -2.1628  4.0105  0.9816
  896MOL0     H20937   3.378   7.036   4.171  0.1002 -0.7595  1.4833
  896MOL0     H20938   3.480   6.775   4.050 -1.3824  2.3090 -2.3808
  896MOL0     H20939   3.317   6.813   4.097  0.0055  2.3390 -0.0300
  896MOL0     H20940   3.567   6.793   4.281 -0.1539  0.7679  0.9794
  896MOL0     H20941   3.432   6.668   4.263  0.7409 -1.0859  0.4828
  896MOL0     H20942   3.828   7.431   3.487 -0.2937 -0.2939  1.3398
  896MOL0     H20943   3.978   7.551   3.334  0.9019  1.0581 -0.4852
  896MOL0     H20944   4.496   7.827   3.471 -0.6790  0.0478  0.1611
  896MOL0     H20945   4.681   7.867   3.313 -1.9657 -0.1389  0.9679
  896MOL0     H20946   6.556   7.303   3.159 -0.5688 -4.2715  0.3502
  896MOL0     H20947   6.747   7.221   3.072  1.0704  0.0783 -0.1455
  896MOL0     H20948   7.192   7.302   2.883  3.1112 -0.0944 -0.3789
  896MOL0     H20949   7.394   7.202   2.766  0.3666 -1.9077 -1.3819
  896MOL0     H20950   7.556   7.079   2.655  0.0392  0.3356  0.7089
  896MOL0     H20951   7.482   6.930   2.739 -1.0562  0.4013 -0.2369
  896MOL0     H20952   7.544   6.805   2.520 -0.3509 -0.5980  1.4984
  896MOL0     H20953   7.669   6.835   2.641  0.5279 -0.5537 -1.4017
  896MOL0     H20954   7.754   6.884   2.408 -0.9145  0.7611 -1.1560
  896MOL0     H20955   7.762   7.019   2.517 -1.2209  1.0934  0.4554
  896MOL0     H20956   7.586   7.129   2.369 -0.3407  0.5914 -0.6842
  896MOL0     H20957   7.505   6.976   2.338  1.6819 -2.9394 -0.8892
  896MOL0     H20958   7.809   6.997   2.030 -0.8592  0.3641 -1.0239
  896MOL0     H20959   7.134   6.969   2.528 -1.3444 -0.9815  0.4268
  896MOL0     H20960   6.930   7.075   2.634 -0.7569  0.3014  1.1629
  897MOL0     O20961  10.684   7.147   4.381 -0.3220 -0.1074 -0.0251
  897MOL0     C20962  10.706   7.119   4.262  0.5191 -0.4431 -0.3307
  897MOL0     O20963  10.632   7.153   4.147 -0.7457  0.0590 -0.0216
  897MOL0     C20964  10.513   7.210   4.152 -0.2093  0.0123 -0.3660
  897MOL0     C20965  10.435   7.183   4.040  0.6970 -0.4694 -0.6992
  897MOL0     C20966  10.319   7.259   4.013  0.5298  0.2159 -0.3172
  897MOL0     C20967  10.276   7.352   4.104 -0.2011  0.3207 -0.0909
  897MOL0     O20968  10.154   7.411   4.107  0.1114 -0.0134  0.6227
  897MOL0     C20969  10.036   7.348   4.059 -0.1916  0.5212  0.3568
  897MOL0     C20970  10.008   7.393   3.909  0.8570 -0.5595 -0.2444
  897MOL0     C20971   9.859   7.366   3.851 -1.1962 -0.1420 -0.1270
  897MOL0     C20972   9.758   7.459   3.915  0.5195  0.9842  0.1274
  897MOL0     C20973   9.629   7.468   3.832  0.2115 -1.0217 -0.3586
  897MOL0     C20974   9.572   7.330   3.799 -0.5718  0.3657  0.0522
  897MOL0     C20975   9.445   7.316   3.720 -0.3337  0.2498 -0.4264
  897MOL0     C20976   9.335   7.357   3.813 -1.0753 -0.4525 -0.0528
  897MOL0     N20977   9.202   7.349   3.755  0.0725 -0.6485 -0.3273
  897MOL0     C20978   9.126   7.239   3.758  0.6857  0.1860  0.3668
  897MOL0     C20979   9.025   7.273   3.673 -0.2496  0.0325  0.2926
  897MOL0     C20980   8.897   7.204   3.648 -0.3920  0.0493 -0.7803
  897MOL0     C20981   8.797   7.218   3.767 -0.0140 -0.5543 -0.7674
  897MOL0     C20982   8.742   7.079   3.801  0.0791  0.2559  0.4851
  897MOL0     C20983   8.616   7.057   3.709 -0.2267  0.6250  0.1875
  897MOL0     O20984   8.503   7.121   3.762 -0.1444 -0.3999 -0.3936
  897MOL0     C20985   8.389   7.133   3.690  0.7252 -0.2357 -0.1206
  897MOL0     C20986   8.380   7.113   3.545  0.5494 -0.0079  0.0035
  897MOL0     C20987   8.268   7.140   3.472  0.7383 -0.1374  0.2384
  897MOL0     C20988   8.288   7.121   3.326  0.5423 -0.2115 -0.3138
  897MOL0     C20989   8.153   7.172   3.545  0.9378 -0.1127  0.3830
  897MOL0     C20990   8.020   7.211   3.470  0.0644  0.4455  0.9978
  897MOL0     O20991   7.937   7.256   3.556 -0.5004 -0.2114 -0.5968
  897MOL0     C20992   7.805   7.290   3.520 -0.4003  0.4569  0.2400
  897MOL0     C20993   7.724   7.192   3.459  0.0202  0.1302 -0.3793
  897MOL0     C20994   7.584   7.225   3.451 -0.4450  0.4148  0.1581
  897MOL0     C20995   7.532   7.344   3.497  0.0223 -0.6910  0.5543
  897MOL0     O20996   7.395   7.365   3.490  0.0022 -0.3840  0.2426
  897MOL0     C20997   7.337   7.392   3.621 -0.0304 -0.6511 -0.2244
  897MOL0     C20998   7.186   7.400   3.600 -0.6266  0.3906 -0.4486
  897MOL0     C20999   7.124   7.454   3.723 -0.7678  0.0083 -0.2887
  897MOL0     C21000   7.094   7.355   3.837  0.0988 -0.6357 -0.9304
  897MOL0     C21001   6.993   7.418   3.935 -0.0523  0.6503 -0.2346
  897MOL0     C21002   6.960   7.322   4.051 -0.3687 -0.0833  0.4190
  897MOL0     C21003   6.838   7.369   4.134  0.2074 -0.2051 -0.5821
  897MOL0     C21004   6.709   7.368   4.049 -0.4954  0.2809  0.8193
  897MOL0    Cl21005   6.573   7.401   4.153  0.1332 -0.1136 -0.2224
  897MOL0     C21006   7.618   7.429   3.568  0.0298  0.1886 -0.8609
  897MOL0     C21007   7.756   7.405   3.565  0.3696 -0.8683  0.5206
  897MOL0     O21008   8.009   7.215   3.343 -0.2701  0.2362 -0.2809
  897MOL0     C21009   8.162   7.203   3.681 -0.6071 -0.1039  0.1937
  897MOL0     C21010   8.280   7.191   3.754  0.0650  0.2760  0.1408
  897MOL0     N21011   9.053   7.401   3.619 -0.4078 -0.3237  0.2227
  897MOL0     N21012   9.159   7.448   3.671  0.5834  0.1952 -0.6474
  897MOL0     C21013  10.356   7.381   4.210  0.4367 -0.4468 -0.3379
  897MOL0     C21014  10.476   7.310   4.237 -0.2702  0.4413  0.6131
  897MOL0     C21015  10.831   7.059   4.235 -0.8037  0.2217 -0.5984
  897MOL0     C21016  10.909   7.002   4.347 -1.1627  0.3560  0.5093
  897MOL0     C21017  11.023   6.924   4.317  0.8517 -0.2505  0.3483
  897MOL0     C21018  11.069   6.913   4.190 -0.4745  0.2603  1.3457
  897MOL0     O21019  11.175   6.836   4.147  0.0128  0.0908  0.0518
  897MOL0     C21020  11.268   6.776   4.244  0.4226  0.4681  0.6396
  897MOL0     C21021  11.337   6.666   4.168 -0.3749 -0.0456  0.3158
  897MOL0     C21022  11.248   6.544   4.125  0.2276 -0.1118  0.6261
  897MOL0     C21023  11.316   6.436   4.035  0.0069 -0.6426 -0.2776
  897MOL0     C21024  11.329   6.482   3.895 -0.8687 -0.8846  0.4719
  897MOL0     C21025  11.368   6.509   3.787  0.2716 -0.2971 -0.2474
  897MOL0     C21026  11.007   6.986   4.083 -0.1889  0.1685  0.0899
  897MOL0     C21027  10.878   7.041   4.099  0.4630 -0.8587 -0.4943
  897MOL0     H21028  10.472   7.115   3.965 -1.2344  0.9282 -3.0612
  897MOL0     H21029  10.271   7.229   3.920  1.4626  1.3464 -1.1946
  897MOL0     H21030  10.045   7.239   4.067  0.3100  0.4170 -1.2000
  897MOL0     H21031   9.952   7.384   4.119  0.6407 -2.3567  3.5147
  897MOL0     H21032  10.018   7.502   3.914  0.8191 -0.5786  3.9754
  897MOL0     H21033  10.082   7.355   3.837 -0.1290 -1.8112 -0.6437
  897MOL0     H21034   9.872   7.388   3.744  3.8416  0.3391  0.3094
  897MOL0     H21035   9.836   7.261   3.869  1.5559 -1.5504 -3.5513
  897MOL0     H21036   9.724   7.412   4.007 -0.0048 -1.1354 -1.0919
  897MOL0     H21037   9.796   7.556   3.950 -0.6322  1.8012 -0.7838
  897MOL0     H21038   9.551   7.524   3.885 -1.4522 -0.1676 -3.5018
  897MOL0     H21039   9.657   7.530   3.746 -0.8019  0.1520  0.1264
  897MOL0     H21040   9.649   7.271   3.747  1.0340  0.2578  2.4173
  897MOL0     H21041   9.559   7.279   3.894  0.4215 -0.3414 -0.1726
  897MOL0     H21042   9.442   7.383   3.634 -3.3855  2.8926  1.5293
  897MOL0     H21043   9.419   7.215   3.685 -3.9852 -0.3105  3.0794
  897MOL0     H21044   9.352   7.463   3.835  1.5181 -0.3733 -1.9126
  897MOL0     H21045   9.341   7.283   3.893 -3.4943 -0.1702  0.4551
  897MOL0     H21046   9.130   7.147   3.816 -0.9149 -0.7165 -0.8875
  897MOL0     H21047   8.846   7.245   3.560 -2.2642 -1.2652 -0.3645
  897MOL0     H21048   8.917   7.098   3.632 -2.2762 -0.0963 -2.5430
  897MOL0     H21049   8.715   7.287   3.745  2.7957  3.2061 -0.4567
  897MOL0     H21050   8.850   7.251   3.856 -0.3309 -0.8658 -0.4593
  897MOL0     H21051   8.716   7.079   3.907 -2.0603  1.0724  0.0036
  897MOL0     H21052   8.807   6.994   3.777 -0.1588  1.0691 -3.8143
  897MOL0     H21053   8.604   6.949   3.701  0.6654  0.1804  3.4176
  897MOL0     H21054   8.646   7.098   3.612 -1.9468 -1.1224 -1.1536
  897MOL0     H21055   8.472   7.089   3.492 -0.0248 -0.4664 -0.8080
  897MOL0     H21056   8.222   7.056   3.268 -2.5480  0.8511  1.7415
  897MOL0     H21057   8.265   7.220   3.286 -0.9046 -0.1715  0.5500
  897MOL0     H21058   8.392   7.100   3.302  1.0215 -0.3940  1.7350
  897MOL0     H21059   7.761   7.099   3.417 -0.0618 -0.4339  0.7651
  897MOL0     H21060   7.508   7.159   3.409 -1.9656  2.8693 -1.1810
  897MOL0     H21061   7.353   7.303   3.682 -2.2335 -1.9881 -1.4799
  897MOL0     H21062   7.377   7.489   3.652 -1.0920 -0.4566  0.6020
  897MOL0     H21063   7.152   7.455   3.512 -1.4988 -1.9464 -1.6566
  897MOL0     H21064   7.156   7.295   3.589  1.5535 -0.1242 -2.1245
  897MOL0     H21065   7.036   7.510   3.689  0.9494  2.3377 -1.2153
  897MOL0     H21066   7.190   7.526   3.773  0.0277 -1.5810  1.0505
  897MOL0     H21067   7.047   7.268   3.789 -0.8430 -2.3534  2.7477
  897MOL0     H21068   7.185   7.341   3.895 -2.1030  0.9089  3.3591
  897MOL0     H21069   6.911   7.448   3.870 -0.8925 -2.5247 -0.7920
  897MOL0     H21070   7.034   7.510   3.977  2.2065 -0.5734  0.3903
  897MOL0     H21071   6.932   7.233   3.994 -1.1525  2.8600 -4.4026
  897MOL0     H21072   7.049   7.292   4.107  0.0702 -0.9170 -0.7011
  897MOL0     H21073   6.856   7.465   4.184  1.8399 -1.9798  2.5389
  897MOL0     H21074   6.832   7.287   4.206 -1.4287  0.0844 -0.3472
  897MOL0     H21075   6.703   7.272   3.998  2.9813  1.0489 -1.3603
  897MOL0     H21076   6.719   7.448   3.975  1.0610 -0.4681  0.1666
  897MOL0     H21077   7.586   7.523   3.611 -3.8670 -0.9126 -0.9587
  897MOL0     H21078   7.817   7.477   3.618 -3.8161  1.6241  2.5330
  897MOL0     H21079   8.068   7.218   3.733  0.5109 -1.4982  2.8622
  897MOL0     H21080   8.292   7.226   3.856  1.3667  1.2933 -0.3230
  897MOL0     H21081  10.335   7.450   4.291  0.4485  0.8320 -1.3895
  897MOL0     H21082  10.542   7.344   4.317 -0.3815  2.5245 -0.1266
  897MOL0     H21083  10.882   7.010   4.452 -0.0728  2.1008  0.6991
  897MOL0     H21084  11.078   6.869   4.393  1.1418  0.0980  0.3908
  897MOL0     H21085  11.350   6.843   4.274  1.0396  0.3134 -0.6465
  897MOL0     H21086  11.216   6.727   4.327 -2.5528 -0.1999 -1.4797
  897MOL0     H21087  11.424   6.620   4.217 -1.1790 -1.1691  0.7112
  897MOL0     H21088  11.379   6.708   4.076 -1.8916  0.8813  0.0106
  897MOL0     H21089  11.161   6.583   4.072  0.8810  3.4068  1.9222
  897MOL0     H21090  11.207   6.492   4.213  1.4536  0.4522  1.5670
  897MOL0     H21091  11.249   6.350   4.042  0.9649 -1.3459  0.5565
  897MOL0     H21092  11.412   6.419   4.084 -0.2118 -2.9116 -0.5156
  897MOL0     H21093  11.401   6.530   3.688  0.0165  5.7205  0.5280
  897MOL0     H21094  11.056   6.981   3.986 -1.7249  0.3347 -0.7211
  897MOL0     H21095  10.818   7.076   4.015  2.8851  2.1713 -1.1189
  898MOL0     O21096  11.217   7.122   7.817 -0.3052  0.5361  0.9163
  898MOL0     C21097  11.259   7.013   7.776 -0.6256 -0.0201  0.4588
  898MOL0     O21098  11.194   6.925   7.689 -0.1201  0.8297 -0.7472
  898MOL0     C21099  11.063   6.950   7.648  0.2377 -0.7005 -0.1747
  898MOL0     C21100  10.962   6.980   7.739  0.4567  0.7726 -0.1959
  898MOL0     C21101  10.831   6.994   7.700 -0.0450 -0.7156  0.5041
  898MOL0     C21102  10.796   6.998   7.562  0.8180 -0.4669 -0.1760
  898MOL0     O21103  10.666   7.013   7.524 -0.8620  0.1828 -0.0481
  898MOL0     C21104  10.556   7.057   7.608  0.1433  0.2302 -0.6229
  898MOL0     C21105  10.439   7.060   7.517  0.8804 -0.1723 -0.5797
  898MOL0     C21106  10.314   7.099   7.603 -0.3559 -0.5008 -0.0239
  898MOL0     C21107  10.193   7.110   7.506  0.3641 -0.7746  0.0641
  898MOL0     C21108  10.081   7.187   7.575  0.2350 -0.2253 -0.2622
  898MOL0     C21109  10.033   7.139   7.713 -0.4813  0.1119  0.2080
  898MOL0     C21110   9.906   7.218   7.742 -0.6020 -0.5601  0.2342
  898MOL0     C21111   9.854   7.198   7.888 -0.7152 -0.4955  0.3992
  898MOL0     N21112   9.715   7.212   7.887  0.0370  0.0919  0.7442
  898MOL0     C21113   9.638   7.315   7.852 -0.5550 -0.3422 -0.6960
  898MOL0     C21114   9.512   7.268   7.869 -0.1567 -0.4588 -0.4734
  898MOL0     C21115   9.391   7.352   7.847 -0.1732 -0.0120 -0.5378
  898MOL0     C21116   9.297   7.304   7.731 -0.6513  0.6197  0.1386
  898MOL0     C21117   9.367   7.323   7.596  0.3644 -0.2291  0.0945
  898MOL0     C21118   9.265   7.296   7.488 -0.0541  0.7165 -0.6648
  898MOL0     O21119   9.210   7.164   7.485 -0.4034 -0.0816 -0.5401
  898MOL0     C21120   9.116   7.145   7.388 -0.0155  0.4248 -0.0665
  898MOL0     C21121   9.039   7.241   7.312 -0.1329 -0.2278  0.1273
  898MOL0     C21122   8.930   7.206   7.227 -0.8908 -0.6453 -0.4370
  898MOL0     C21123   8.860   7.326   7.158  0.2705  0.5363 -0.0674
  898MOL0     C21124   8.893   7.072   7.215  0.1218  0.2117  0.4397
  898MOL0     C21125   8.778   7.027   7.136  0.4818 -0.3590  0.2241
  898MOL0     O21126   8.713   7.113   7.054  0.2684  0.5600  0.6635
  898MOL0     C21127   8.634   7.062   6.956 -0.4113 -0.1293 -0.0487
  898MOL0     C21128   8.664   6.945   6.877  0.5467 -0.6125  0.6933
  898MOL0     C21129   8.566   6.884   6.804  0.2173  0.4469  1.0236
  898MOL0     C21130   8.438   6.947   6.791 -0.4202  0.5849  0.0811
  898MOL0     O21131   8.330   6.887   6.723 -0.3912 -0.4064 -0.7926
  898MOL0     C21132   8.346   6.779   6.635 -0.1628  0.3625 -0.7875
  898MOL0     C21133   8.321   6.650   6.712  0.2650  0.3902  0.3708
  898MOL0     C21134   8.197   6.641   6.808 -0.2577  0.0463  0.0040
  898MOL0     C21135   8.065   6.641   6.728 -0.0398 -0.3723  0.1831
  898MOL0     C21136   7.957   6.678   6.820  0.8733  0.7456 -0.1302
  898MOL0     C21137   7.823   6.692   6.738 -0.2384 -0.0633 -0.2684
  898MOL0     C21138   7.712   6.762   6.822 -0.1826 -0.4150  0.0981
  898MOL0     C21139   7.618   6.847   6.735  0.0287  0.3188  0.6054
  898MOL0    Cl21140   7.716   6.981   6.653  0.1316  0.0475  0.1339
  898MOL0     C21141   8.416   7.073   6.852  0.1769  0.6665  0.4048
  898MOL0     C21142   8.507   7.127   6.939 -0.1798  0.1799 -0.5877
  898MOL0     O21143   8.735   6.911   7.154  0.3507  0.3332 -0.6605
  898MOL0     C21144   8.966   6.973   7.289  0.0362  0.4764 -0.2163
  898MOL0     C21145   9.076   7.018   7.367  1.0221 -0.3546 -0.7135
  898MOL0     N21146   9.517   7.138   7.900  0.8452  0.0537  0.1223
  898MOL0     N21147   9.637   7.109   7.925  0.1689 -0.1335  0.0793
  898MOL0     C21148  10.897   6.966   7.467 -0.4287 -0.6827  0.4405
  898MOL0     C21149  11.027   6.938   7.516  0.0559 -0.6375 -0.4498
  898MOL0     C21150  11.399   6.983   7.814 -0.4073  0.6040  0.3343
  898MOL0     C21151  11.482   7.075   7.881  0.0981 -0.3581 -0.7122
  898MOL0     C21152  11.616   7.056   7.902 -0.0742  1.0713 -0.0648
  898MOL0     C21153  11.673   6.937   7.862  0.2112 -0.2738  0.1586
  898MOL0     O21154  11.809   6.941   7.897  1.1122 -0.1162  0.3508
  898MOL0     C21155  11.903   6.840   7.862  0.2737 -0.5192 -0.2043
  898MOL0     C21156  12.042   6.888   7.896 -0.0265  0.2650  0.1506
  898MOL0     C21157  12.155   6.784   7.875 -0.0851  0.3317  0.3447
  898MOL0     C21158  12.296   6.839   7.921  0.2374  0.0724 -0.0227
  898MOL0     C21159  12.410   6.742   7.893 -0.4193  0.1307  0.5128
  898MOL0     C21160  12.514   6.679   7.876  0.2349  0.1009 -1.2384
  898MOL0     C21161  11.600   6.835   7.804  0.1665 -0.4021  0.2678
  898MOL0     C21162  11.464   6.859   7.771  0.0850 -0.2803 -0.4503
  898MOL0     H21163  10.978   6.994   7.846 -1.4867 -0.0476  0.2563
  898MOL0     H21164  10.752   6.995   7.775 -0.7043 -1.1252 -0.1771
  898MOL0     H21165  10.542   6.991   7.695 -1.4717  0.4381 -0.6999
  898MOL0     H21166  10.587   7.160   7.627  0.6256  0.6421 -3.2484
  898MOL0     H21167  10.452   7.123   7.428  0.7820  2.1828  0.9799
  898MOL0     H21168  10.418   6.958   7.485  0.2376 -0.8694  1.8692
  898MOL0     H21169  10.292   7.031   7.685  0.1075  1.1013  1.4799
  898MOL0     H21170  10.336   7.197   7.646  0.8870 -0.6809 -0.2076
  898MOL0     H21171  10.216   7.164   7.414  1.6167 -1.7813 -0.2419
  898MOL0     H21172  10.153   7.010   7.489 -1.3965  0.1823 -1.8347
  898MOL0     H21173  10.110   7.292   7.572 -1.1018  0.1409 -2.9691
  898MOL0     H21174   9.993   7.177   7.511  1.2990 -1.6272 -1.5829
  898MOL0     H21175  10.000   7.035   7.702 -2.1307  0.3362  2.4599
  898MOL0     H21176  10.104   7.154   7.795  0.7472  0.2821 -0.8387
  898MOL0     H21177   9.920   7.326   7.733  0.3098 -0.6592  0.3619
  898MOL0     H21178   9.825   7.193   7.673  0.3947 -0.6163 -0.9364
  898MOL0     H21179   9.900   7.278   7.947  0.4198 -2.0570  1.7084
  898MOL0     H21180   9.877   7.101   7.932  1.3904  0.4266  1.4484
  898MOL0     H21181   9.668   7.419   7.844  1.4191 -0.7272  0.8082
  898MOL0     H21182   9.336   7.380   7.937  3.5298  0.9732  1.6562
  898MOL0     H21183   9.436   7.445   7.812  1.7558 -1.4131 -1.9813
  898MOL0     H21184   9.207   7.366   7.726 -1.2538 -0.2552  0.0396
  898MOL0     H21185   9.262   7.201   7.741  0.9193 -0.4326 -3.5941
  898MOL0     H21186   9.462   7.271   7.582  0.7537  0.6494 -0.5972
  898MOL0     H21187   9.400   7.427   7.591  3.3828 -1.0662  0.4967
  898MOL0     H21188   9.311   7.330   7.394  1.2691 -0.4467 -0.4779
  898MOL0     H21189   9.182   7.365   7.501 -0.9508 -0.5253  0.4053
  898MOL0     H21190   9.072   7.344   7.314  1.7732 -0.8082  1.1251
  898MOL0     H21191   8.896   7.428   7.177 -2.5805  1.6425 -0.2280
  898MOL0     H21192   8.848   7.320   7.050  0.0876  0.3021 -0.0354
  898MOL0     H21193   8.759   7.319   7.197 -0.5336  0.0588 -2.1050
  898MOL0     H21194   8.755   6.887   6.889  1.5334  1.0614  1.8813
  898MOL0     H21195   8.601   6.793   6.757  1.2625  0.3584  1.9283
  898MOL0     H21196   8.265   6.784   6.561  0.2650 -1.0890 -1.3888
  898MOL0     H21197   8.442   6.774   6.583 -0.1000 -1.0725 -0.5660
  898MOL0     H21198   8.322   6.569   6.639 -2.1522  2.6002 -2.3538
  898MOL0     H21199   8.409   6.628   6.773 -0.1320 -2.3110  0.0726
  898MOL0     H21200   8.197   6.727   6.876  1.5068 -0.4475  0.6817
  898MOL0     H21201   8.212   6.556   6.876  0.6570  0.9938  1.0462
  898MOL0     H21202   8.076   6.721   6.654 -1.6225 -0.8333 -0.5995
  898MOL0     H21203   8.055   6.547   6.674  0.5223 -1.4832  1.9197
  898MOL0     H21204   7.959   6.776   6.871 -1.0644  1.7243 -1.7800
  898MOL0     H21205   7.944   6.594   6.889 -3.0404  0.5850 -0.8183
  898MOL0     H21206   7.837   6.736   6.639  1.4790 -2.1368 -1.0375
  898MOL0     H21207   7.802   6.589   6.709  2.7546 -1.2247  1.2647
  898MOL0     H21208   7.760   6.838   6.884 -0.7884  1.2989 -1.4177
  898MOL0     H21209   7.659   6.691   6.885  1.4149 -1.2202  0.5848
  898MOL0     H21210   7.537   6.877   6.802 -1.6169 -1.2608 -0.6038
  898MOL0     H21211   7.566   6.780   6.666  1.7469 -0.8019  0.3296
  898MOL0     H21212   8.321   7.126   6.846 -1.3644 -2.0182 -1.0931
  898MOL0     H21213   8.486   7.220   6.991  1.0815 -0.2590  0.7860
  898MOL0     H21214   8.944   6.868   7.276 -1.4036  0.9574 -2.0390
  898MOL0     H21215   9.129   6.942   7.423  2.6376  1.6699  0.6631
  898MOL0     H21216  10.858   6.963   7.366 -1.6229  3.2513  0.6220
  898MOL0     H21217  11.113   6.908   7.456  0.0923 -1.1570 -0.1421
  898MOL0     H21218  11.420   7.157   7.914 -1.5417 -1.0376 -1.9296
  898MOL0     H21219  11.676   7.139   7.936 -0.6608  2.6722 -2.6379
  898MOL0     H21220  11.885   6.761   7.936 -0.5776  0.1768  0.3513
  898MOL0     H21221  11.886   6.808   7.759 -0.0051 -0.2992 -0.2287
  898MOL0     H21222  12.041   6.915   8.001 -0.2950 -1.0069  0.4986
  898MOL0     H21223  12.050   6.980   7.838 -2.3985  0.4204 -0.0388
  898MOL0     H21224  12.142   6.746   7.773 -1.6801  3.2955 -0.6781
  898MOL0     H21225  12.128   6.698   7.937 -1.6512  0.6421  0.1436
  898MOL0     H21226  12.288   6.845   8.030  0.2687 -2.4493  0.1779
  898MOL0     H21227  12.317   6.933   7.869  0.9828 -0.3031 -0.4128
  898MOL0     H21228  12.600   6.618   7.857  0.1146 -0.3021 -0.5196
  898MOL0     H21229  11.661   6.747   7.786  1.7987  0.9051 -0.8859
  898MOL0     H21230  11.406   6.781   7.724  0.5986 -0.7487 -0.3184
  899MOL0     O21231  11.012   4.222   5.157 -0.6287  1.1255  0.2361
  899MOL0     C21232  11.071   4.112   5.173  0.3063  0.7775  0.1887
  899MOL0     O21233  11.008   3.992   5.210 -0.8335  0.1756 -0.1484
  899MOL0     C21234  10.873   3.983   5.200 -0.4143 -0.3618  1.0331
  899MOL0     C21235  10.827   3.865   5.142 -0.1496  0.1621 -0.0624
  899MOL0     C21236  10.696   3.850   5.103  0.5226 -1.1912  0.0210
  899MOL0     C21237  10.603   3.950   5.145  0.4301 -0.1038  0.0130
  899MOL0     O21238  10.472   3.940   5.132 -0.1937 -0.0129  0.3834
  899MOL0     C21239  10.424   3.828   5.062  0.3194  0.5298  0.1366
  899MOL0     C21240  10.272   3.798   5.052 -0.2935 -0.7703  0.0504
  899MOL0     C21241  10.199   3.861   5.178 -0.0262  0.3983  0.2918
  899MOL0     C21242  10.052   3.819   5.185  0.3075  0.3297  0.1297
  899MOL0     C21243  10.004   3.674   5.146  0.4610  0.9272 -0.7449
  899MOL0     C21244   9.852   3.653   5.179 -0.9596 -0.3161 -0.1767
  899MOL0     C21245   9.774   3.534   5.118 -0.5220  0.1245 -0.3284
  899MOL0     C21246   9.618   3.540   5.146 -0.6489  0.4523 -0.5697
  899MOL0     N21247   9.563   3.409   5.108 -0.1861  0.8567 -0.0803
  899MOL0     C21248   9.526   3.358   4.985  0.0194  0.6256  0.0718
  899MOL0     C21249   9.478   3.236   5.013  0.5175  0.2556  0.6819
  899MOL0     C21250   9.430   3.141   4.915  0.0203 -0.3182  0.2366
  899MOL0     C21251   9.507   3.139   4.779  0.4454 -0.9383  0.2773
  899MOL0     C21252   9.490   3.029   4.668 -0.9621 -0.3693  1.5711
  899MOL0     C21253   9.351   2.993   4.660  0.7184 -0.1332 -0.1196
  899MOL0     O21254   9.325   2.899   4.550 -0.0917  0.1717  0.0381
  899MOL0     C21255   9.195   2.867   4.518 -0.0764  1.1149  1.0916
  899MOL0     C21256   9.177   2.835   4.383  0.6929  1.0066  0.7031
  899MOL0     C21257   9.048   2.789   4.339  0.2475  0.8032  0.7631
  899MOL0     C21258   9.029   2.740   4.199 -0.8656 -0.3217 -0.3591
  899MOL0     C21259   8.936   2.806   4.421  0.9100 -0.3208  0.4491
  899MOL0     C21260   8.793   2.781   4.364 -0.6058 -0.1259  0.3199
  899MOL0     O21261   8.727   2.671   4.407 -0.2202 -0.5191 -0.2870
  899MOL0     C21262   8.588   2.655   4.372 -0.6234  0.3703  0.3126
  899MOL0     C21263   8.554   2.535   4.312 -0.7491 -0.2519  0.3034
  899MOL0     C21264   8.423   2.519   4.270  0.4218  0.5530 -0.2394
  899MOL0     C21265   8.325   2.614   4.290  0.0882  0.5507 -0.3527
  899MOL0     O21266   8.197   2.577   4.251  0.0370 -0.1358 -0.7566
  899MOL0     C21267   8.100   2.689   4.239 -0.3506 -0.1999 -0.4745
  899MOL0     C21268   8.019   2.721   4.367 -0.3492 -0.3249 -0.7859
  899MOL0     C21269   7.978   2.587   4.436  0.0568 -0.2429  0.5704
  899MOL0     C21270   7.887   2.499   4.346  0.1669 -0.3837 -0.9069
  899MOL0     C21271   7.827   2.368   4.414  0.3104  0.6914 -0.4201
  899MOL0     C21272   7.924   2.277   4.498  0.3668 -0.2776 -0.0064
  899MOL0     C21273   8.053   2.234   4.420  0.2736 -0.2984 -0.4643
  899MOL0     C21274   8.166   2.211   4.516  0.0019 -0.3193 -0.0411
  899MOL0    Cl21275   8.113   2.063   4.610  0.1200 -0.8415  0.3543
  899MOL0     C21276   8.362   2.730   4.363  0.6000  0.6187  0.7369
  899MOL0     C21277   8.495   2.747   4.401  0.0475  0.0475 -0.0461
  899MOL0     O21278   8.748   2.868   4.289  0.1031 -0.3925 -0.1428
  899MOL0     C21279   8.959   2.842   4.554  0.6716  0.3778 -0.7639
  899MOL0     C21280   9.088   2.863   4.607  0.5342  0.3427 -0.5140
  899MOL0     N21281   9.494   3.204   5.143 -0.0292 -0.2446  0.3461
  899MOL0     N21282   9.546   3.306   5.202  0.2368  0.4552  0.6179
  899MOL0     C21283  10.648   4.060   5.218  0.1793 -0.9995  0.1420
  899MOL0     C21284  10.784   4.079   5.238 -0.4129  0.4108  0.3858
  899MOL0     C21285  11.220   4.108   5.171 -0.5694  0.2569 -0.7838
  899MOL0     C21286  11.284   3.989   5.220  0.7696  0.6642  0.0095
  899MOL0     C21287  11.425   3.981   5.236  0.1606 -0.0353 -1.3162
  899MOL0     C21288  11.504   4.094   5.221 -0.5927  0.6808  0.4146
  899MOL0     O21289  11.638   4.085   5.237 -0.1237  0.0264 -0.1287
  899MOL0     C21290  11.677   4.056   5.368  0.2649 -0.0757  0.3026
  899MOL0     C21291  11.824   4.054   5.385 -0.0659  1.0728 -0.1659
  899MOL0     C21292  11.879   3.929   5.321 -0.4322  0.2984  0.8604
  899MOL0     C21293  12.034   3.929   5.311 -0.6741  1.3815 -1.1566
  899MOL0     C21294  12.082   4.019   5.206 -0.1320  0.4762 -0.4185
  899MOL0     C21295  12.122   4.088   5.114 -0.2684 -0.6602 -0.8513
  899MOL0     C21296  11.444   4.216   5.175 -0.0454  0.3492  0.1071
  899MOL0     C21297  11.306   4.218   5.147 -0.6872 -0.0328 -0.8724
  899MOL0     H21298  10.887   3.777   5.120  2.1408  0.9946  2.3079
  899MOL0     H21299  10.662   3.764   5.046 -2.0789  0.7758 -1.6300
  899MOL0     H21300  10.460   3.812   4.960 -0.2536 -2.1258  0.2740
  899MOL0     H21301  10.448   3.737   5.117 -1.2011 -0.9701 -1.5457
  899MOL0     H21302  10.239   3.855   4.964  0.8526 -0.8407 -0.4457
  899MOL0     H21303  10.258   3.690   5.040  0.6647 -0.7249 -2.0406
  899MOL0     H21304  10.247   3.843   5.275  2.4739  1.4666 -0.6654
  899MOL0     H21305  10.210   3.970   5.172 -0.0914  0.3425 -0.9313
  899MOL0     H21306  10.023   3.855   5.284  0.5164  1.5292 -0.2374
  899MOL0     H21307   9.997   3.889   5.122  0.1172  2.2067  2.2731
  899MOL0     H21308  10.022   3.635   5.045 -0.6794 -0.0964 -0.5779
  899MOL0     H21309  10.066   3.608   5.208  1.0795  1.0081 -1.2658
  899MOL0     H21310   9.842   3.656   5.288 -0.7005 -4.3647  0.1115
  899MOL0     H21311   9.807   3.746   5.141 -2.0100  0.5948  2.9441
  899MOL0     H21312   9.792   3.519   5.011  1.3183 -1.6416  0.1582
  899MOL0     H21313   9.802   3.442   5.169 -3.0284  0.0341  1.0376
  899MOL0     H21314   9.566   3.626   5.102 -0.4680 -0.2994 -2.3073
  899MOL0     H21315   9.614   3.555   5.254 -0.7344 -2.8693 -0.0271
  899MOL0     H21316   9.546   3.398   4.886  0.8953  0.0527  0.0089
  899MOL0     H21317   9.442   3.039   4.954 -0.9452 -1.6279 -2.5652
  899MOL0     H21318   9.324   3.162   4.902  0.5888  1.6627 -1.9026
  899MOL0     H21319   9.615   3.147   4.794 -0.0153  1.4902  3.0010
  899MOL0     H21320   9.483   3.234   4.732  1.0081 -0.4911  0.8700
  899MOL0     H21321   9.556   2.942   4.681  2.5262  1.8823  0.1566
  899MOL0     H21322   9.521   3.063   4.569 -2.9971  1.4879  1.5091
  899MOL0     H21323   9.289   3.080   4.633 -1.5806 -2.4336 -2.9500
  899MOL0     H21324   9.318   2.950   4.754 -1.1174 -0.0532 -0.6921
  899MOL0     H21325   9.266   2.841   4.320  1.2523  1.7321  1.5366
  899MOL0     H21326   8.974   2.646   4.201 -2.3951  0.5223 -0.4282
  899MOL0     H21327   8.971   2.821   4.152 -2.8140 -1.7664 -0.5712
  899MOL0     H21328   9.127   2.733   4.153 -1.4272  1.7179 -2.0528
  899MOL0     H21329   8.628   2.459   4.287 -0.0902  0.7191 -0.8423
  899MOL0     H21330   8.384   2.428   4.225  2.0289 -0.5609  0.4958
  899MOL0     H21331   8.153   2.777   4.199  0.6500 -0.9905 -0.9356
  899MOL0     H21332   8.036   2.670   4.153  0.7006  0.7267 -1.5091
  899MOL0     H21333   8.082   2.772   4.440 -0.4191 -0.2502 -0.7786
  899MOL0     H21334   7.932   2.782   4.340  0.5195  0.7820 -1.1495
  899MOL0     H21335   7.920   2.616   4.524  0.1941 -0.1959  0.6463
  899MOL0     H21336   8.063   2.526   4.469  0.3170 -1.0639 -1.4980
  899MOL0     H21337   7.807   2.564   4.309  1.0418  0.1328 -1.9790
  899MOL0     H21338   7.948   2.456   4.265  0.4404 -1.2495 -0.2510
  899MOL0     H21339   7.774   2.310   4.338 -1.9084  0.1416  1.4209
  899MOL0     H21340   7.745   2.404   4.476 -0.8426 -1.1949 -0.7788
  899MOL0     H21341   7.940   2.344   4.583 -3.7311  2.5921 -1.1885
  899MOL0     H21342   7.865   2.188   4.524  1.8403 -0.6463  2.4495
  899MOL0     H21343   8.074   2.317   4.351  0.2362 -0.1587 -0.3084
  899MOL0     H21344   8.031   2.144   4.362 -0.2485 -0.9991  0.7733
  899MOL0     H21345   8.171   2.295   4.586 -1.4416  0.0341 -0.3282
  899MOL0     H21346   8.264   2.197   4.469 -0.6889  2.4832 -2.6340
  899MOL0     H21347   8.283   2.797   4.395 -2.1263 -1.0329 -1.9750
  899MOL0     H21348   8.526   2.839   4.451 -1.3441  0.8018 -0.4803
  899MOL0     H21349   8.875   2.856   4.622  2.1800 -0.0620  1.2940
  899MOL0     H21350   9.082   2.881   4.714  0.0740  1.9676 -0.7790
  899MOL0     H21351  10.572   4.126   5.258  1.4874  1.2801 -0.9552
  899MOL0     H21352  10.815   4.153   5.311  0.9780 -0.2378  0.4788
  899MOL0     H21353  11.227   3.900   5.241 -1.1885  2.1928  1.5059
  899MOL0     H21354  11.461   3.887   5.278 -1.5037 -0.2804 -0.3523
  899MOL0     H21355  11.640   4.135   5.436 -2.0998 -1.7860  1.1466
  899MOL0     H21356  11.636   3.962   5.406 -0.9842  0.6454  0.8317
  899MOL0     H21357  11.842   4.048   5.492  0.6522 -1.5006 -0.3580
  899MOL0     H21358  11.867   4.142   5.335 -2.4690  1.0514 -2.5396
  899MOL0     H21359  11.830   3.912   5.225 -1.1040  0.3074  1.1999
  899MOL0     H21360  11.861   3.841   5.382 -3.7652 -0.0667 -0.4709
  899MOL0     H21361  12.065   3.826   5.291 -2.5151  0.5220  0.1209
  899MOL0     H21362  12.074   3.959   5.408 -0.6121 -2.5575  0.2201
  899MOL0     H21363  12.159   4.159   5.043  0.4778  1.1026  1.2001
  899MOL0     H21364  11.504   4.303   5.150  0.6808 -0.0919  0.3187
  899MOL0     H21365  11.263   4.311   5.110 -1.5611 -0.1469 -0.1874
  900MOL0     O21366   6.793  10.513   9.693 -0.2859 -0.2106  0.2307
  900MOL0     C21367   6.893  10.440   9.697 -0.3382 -0.0735  0.5964
  900MOL0     O21368   6.898  10.305   9.662 -0.5088  0.7350  0.3603
  900MOL0     C21369   6.796  10.217   9.636 -0.0162  0.0944  0.6630
  900MOL0     C21370   6.822  10.081   9.636 -0.3083 -0.2661 -0.1343
  900MOL0     C21371   6.734   9.990   9.586 -0.3371  0.0307 -0.0572
  900MOL0     C21372   6.606  10.036   9.546 -0.9958  0.0219 -0.3369
  900MOL0     O21373   6.530   9.945   9.482  1.1101 -0.1513 -0.2611
  900MOL0     C21374   6.392   9.986   9.451  0.1844  0.2724  0.2273
  900MOL0     C21375   6.306   9.861   9.425  0.3173  0.0569  0.7807
  900MOL0     C21376   6.157   9.903   9.410  0.9124 -0.6650  0.6861
  900MOL0     C21377   6.055   9.789   9.419  0.4457 -0.3096 -0.1398
  900MOL0     C21378   5.912   9.841   9.417  0.1215 -0.6649 -0.0463
  900MOL0     C21379   5.864   9.919   9.304  0.3390 -0.4159  0.0306
  900MOL0     C21380   5.712   9.926   9.278  0.4044 -0.1300  0.3903
  900MOL0     C21381   5.669   9.819   9.175  0.2745 -0.2291  0.3754
  900MOL0     N21382   5.527   9.802   9.178  1.4139 -0.4266 -0.0629
  900MOL0     C21383   5.432   9.890   9.224 -0.2938 -0.4737  0.5132
  900MOL0     C21384   5.315   9.830   9.205  1.1227 -0.1323  0.2586
  900MOL0     C21385   5.177   9.897   9.224 -0.8865 -0.1254  0.2273
  900MOL0     C21386   5.142   9.960   9.365  0.0276 -0.2503 -0.0968
  900MOL0     C21387   5.189   9.881   9.484 -0.4151  0.1285  0.2501
  900MOL0     C21388   5.143   9.731   9.490  0.9663 -0.6414 -0.3490
  900MOL0     O21389   5.001   9.739   9.482  0.4817  0.2792  1.2003
  900MOL0     C21390   4.926   9.739   9.602 -0.9290 -0.3331 -0.3347
  900MOL0     C21391   4.929   9.636   9.699  0.9128 -0.0277 -0.8160
  900MOL0     C21392   4.840   9.629   9.810 -1.3546 -1.1034  0.1064
  900MOL0     C21393   4.862   9.508   9.903  0.8601 -0.8305 -0.5837
  900MOL0     C21394   4.737   9.725   9.826  0.3375  0.1011 -0.5985
  900MOL0     C21395   4.638   9.724   9.945 -0.4567  0.8660 -0.8578
  900MOL0     O21396   4.524   9.799   9.934 -0.0589 -0.6967  0.3963
  900MOL0     C21397   4.416   9.779  10.008  0.4582 -0.0587 -1.0700
  900MOL0     C21398   4.309   9.866   9.976 -0.5360 -0.1114 -0.0456
  900MOL0     C21399   4.172   9.855  10.027 -0.1866  0.4247 -0.2492
  900MOL0     C21400   4.145   9.743  10.117 -0.0901  0.0750 -0.5371
  900MOL0     O21401   4.016   9.723  10.168  0.3504 -0.1099  0.7635
  900MOL0     C21402   3.992   9.603  10.238 -0.1536 -0.3497 -0.4573
  900MOL0     C21403   3.842   9.578  10.249 -0.0090 -0.0445  0.0971
  900MOL0     C21404   3.756   9.679  10.326 -0.1471 -0.5035 -0.0201
  900MOL0     C21405   3.625   9.608  10.355 -0.2219 -0.2647 -0.7613
  900MOL0     C21406   3.522   9.703  10.406  0.1480 -0.2753 -0.1574
  900MOL0     C21407   3.399   9.625  10.464 -0.5262 -0.2205 -0.6523
  900MOL0     C21408   3.319   9.536  10.371 -0.4522  0.1392 -0.5548
  900MOL0     C21409   3.270   9.619  10.256 -0.1455  0.1492 -0.4105
  900MOL0    Cl21410   3.129   9.533  10.200  0.3310  0.1702  0.0271
  900MOL0     C21411   4.260   9.661  10.153  0.1059  0.4790 -0.5702
  900MOL0     C21412   4.392   9.674  10.102  0.2818  0.3766  0.3345
  900MOL0     O21413   4.675   9.676  10.049  0.6651  0.7357  0.5349
  900MOL0     C21414   4.719   9.822   9.716 -0.2675 -0.2265 -0.5214
  900MOL0     C21415   4.812   9.829   9.611  0.1231  0.3105  0.5675
  900MOL0     N21416   5.340   9.701   9.161  0.3576  0.3741  0.2294
  900MOL0     N21417   5.464   9.685   9.152  0.2562  0.3491 -0.1364
  900MOL0     C21418   6.571  10.169   9.562 -0.0414 -0.7675 -0.6939
  900MOL0     C21419   6.665  10.257   9.608 -0.1463  0.1688  0.7374
  900MOL0     C21420   7.026  10.497   9.723 -0.2767  0.2254  0.1116
  900MOL0     C21421   7.044  10.636   9.752  0.4809 -0.5049 -0.3162
  900MOL0     C21422   7.173  10.685   9.779  0.7590 -0.4371 -0.5834
  900MOL0     C21423   7.277  10.600   9.769  0.3599 -0.1674 -0.3718
  900MOL0     O21424   7.400  10.657   9.781  0.1864  0.0296 -0.0873
  900MOL0     C21425   7.518  10.574   9.776  0.4123 -0.2030  0.9842
  900MOL0     C21426   7.636  10.673   9.802  0.1390  0.6843  0.6884
  900MOL0     C21427   7.768  10.600   9.831 -0.1064  0.0416 -0.2237
  900MOL0     C21428   7.810  10.508   9.708  0.0314 -0.1723 -0.8280
  900MOL0     C21429   7.945  10.467   9.733 -0.2306 -0.0262 -0.4550
  900MOL0     C21430   8.053  10.416   9.764  1.2821 -0.6931  0.1846
  900MOL0     C21431   7.258  10.465   9.739  0.4953  0.2393 -0.0463
  900MOL0     C21432   7.134  10.412   9.719 -0.1876  0.4110  0.1908
  900MOL0     H21433   6.919  10.036   9.656  0.3003  0.7678 -0.7079
  900MOL0     H21434   6.757   9.884   9.582 -1.8265 -0.3194  0.1468
  900MOL0     H21435   6.346  10.027   9.541 -2.2581  0.1411 -0.8919
  900MOL0     H21436   6.385  10.050   9.362 -0.3417  0.2424  0.2432
  900MOL0     H21437   6.359   9.820   9.339  3.0189  2.3029  1.2533
  900MOL0     H21438   6.308   9.794   9.511 -1.1344 -1.8299 -0.5529
  900MOL0     H21439   6.135   9.981   9.484  0.2939  1.6080 -1.7240
  900MOL0     H21440   6.147   9.963   9.319  1.7040  3.8134  3.2389
  900MOL0     H21441   6.070   9.717   9.337  0.7898 -4.4224  3.1777
  900MOL0     H21442   6.067   9.732   9.512  2.5923 -0.6435 -0.5604
  900MOL0     H21443   5.849   9.752   9.418 -2.4496  1.0299  0.0417
  900MOL0     H21444   5.892   9.888   9.514  0.8314 -2.1303  0.8321
  900MOL0     H21445   5.904  10.019   9.322 -4.9211  3.0170 -4.2331
  900MOL0     H21446   5.911   9.885   9.211  0.1563  2.4597 -1.2195
  900MOL0     H21447   5.656   9.916   9.372 -0.2337 -2.1208 -0.1548
  900MOL0     H21448   5.681  10.019   9.230 -0.4684 -0.8911 -0.5893
  900MOL0     H21449   5.712   9.720   9.193 -0.9533 -0.5335  1.8196
  900MOL0     H21450   5.702   9.854   9.077 -1.5763 -0.2022 -0.2799
  900MOL0     H21451   5.458   9.993   9.245 -0.0767  0.1542 -2.4542
  900MOL0     H21452   5.155   9.976   9.152  1.9073  0.7880  0.2913
  900MOL0     H21453   5.107   9.813   9.216  0.8030 -1.5024 -0.6926
  900MOL0     H21454   5.035   9.977   9.374 -0.4167 -3.1030  1.2233
  900MOL0     H21455   5.193  10.056   9.366  0.4713 -0.4802  0.9504
  900MOL0     H21456   5.154   9.925   9.578 -0.9006 -2.2620  1.2851
  900MOL0     H21457   5.297   9.895   9.493 -0.5539  1.0128  0.6614
  900MOL0     H21458   5.180   9.684   9.582  1.5766 -0.5432 -0.5362
  900MOL0     H21459   5.183   9.680   9.402  0.8721  0.3394 -0.9861
  900MOL0     H21460   5.005   9.560   9.691  1.3691  0.1857  1.0178
  900MOL0     H21461   4.773   9.448   9.882 -1.4806  1.1509  2.8631
  900MOL0     H21462   4.944   9.447   9.864  0.4719 -0.5165 -1.9715
  900MOL0     H21463   4.871   9.524  10.010  2.3488  2.3640 -1.0668
  900MOL0     H21464   4.342   9.946   9.910  0.5181 -1.5341 -1.3221
  900MOL0     H21465   4.093   9.921   9.994 -1.4238  0.1878  2.0170
  900MOL0     H21466   4.039   9.513  10.197  0.0092 -0.1894 -0.6239
  900MOL0     H21467   4.045   9.612  10.333 -1.2799 -3.4422  0.6106
  900MOL0     H21468   3.796   9.562  10.151  1.1575 -0.2830 -0.4294
  900MOL0     H21469   3.831   9.482  10.300  0.3482 -1.8471 -3.0217
  900MOL0     H21470   3.739   9.771  10.270 -2.1298 -0.7225  0.1644
  900MOL0     H21471   3.803   9.702  10.422 -0.0769 -2.4205  0.4391
  900MOL0     H21472   3.593   9.573  10.257 -0.0230  2.9109 -2.0622
  900MOL0     H21473   3.645   9.527  10.427 -3.6156 -0.4632  0.1713
  900MOL0     H21474   3.494   9.764  10.319 -1.0343  0.1524  0.4953
  900MOL0     H21475   3.567   9.765  10.484  0.8386 -2.6734  1.4513
  900MOL0     H21476   3.419   9.558  10.548 -2.2151 -2.2488 -1.7568
  900MOL0     H21477   3.335   9.712  10.484  1.0860  1.7798 -3.5224
  900MOL0     H21478   3.229   9.500  10.422  1.2309 -1.5013  1.4305
  900MOL0     H21479   3.388   9.457  10.340  0.0769  0.1503  0.5488
  900MOL0     H21480   3.339   9.637  10.173 -2.8721  3.5147 -2.2005
  900MOL0     H21481   3.228   9.711  10.298 -1.8384 -2.0832  3.3416
  900MOL0     H21482   4.249   9.588  10.233 -0.5795  1.9226  0.7004
  900MOL0     H21483   4.464   9.596  10.125 -2.8407 -2.8291  0.2058
  900MOL0     H21484   4.641   9.899   9.723 -0.0462  0.1038 -1.6157
  900MOL0     H21485   4.810   9.917   9.548 -0.5995 -0.3441 -0.3503
  900MOL0     H21486   6.480  10.210   9.521  1.9130 -0.8803 -5.8941
  900MOL0     H21487   6.622  10.357   9.612 -3.3574 -1.0970  1.9225
  900MOL0     H21488   6.958  10.702   9.762 -0.0952 -1.4186  0.9896
  900MOL0     H21489   7.195  10.791   9.788 -0.9104 -0.0144 -1.0155
  900MOL0     H21490   7.506  10.500   9.856 -2.0795 -0.7624  0.1572
  900MOL0     H21491   7.524  10.524   9.679 -1.8340  1.9337 -0.3526
  900MOL0     H21492   7.609  10.745   9.879  1.2759  3.4540 -1.3413
  900MOL0     H21493   7.656  10.724   9.707  0.5928  2.1857  1.5603
  900MOL0     H21494   7.761  10.546   9.926  0.0445  2.3717  1.1945
  900MOL0     H21495   7.844  10.675   9.854 -0.0519 -0.4286  1.2018
  900MOL0     H21496   7.805  10.557   9.610 -3.8146 -1.4887 -1.4764
  900MOL0     H21497   7.751  10.416   9.712  2.0123 -1.4636  0.0702
  900MOL0     H21498   8.150  10.379   9.789  1.3916  0.1128  0.9976
  900MOL0     H21499   7.344  10.399   9.737 -1.8990 -3.2949  1.9334
  900MOL0     H21500   7.126  10.307   9.694  0.8091 -0.0068  1.5091
  901MOL0     O21501   4.963   8.904   2.413 -0.2172 -0.2209 -0.3666
  901MOL0     C21502   4.983   8.869   2.300  0.0331  0.9222  0.3256
  901MOL0     O21503   4.891   8.842   2.204  0.3962  0.2224  0.5334
  901MOL0     C21504   4.760   8.852   2.241  0.1874 -0.2871  0.0546
  901MOL0     C21505   4.703   8.822   2.367 -0.0651  0.2378 -0.1022
  901MOL0     C21506   4.566   8.842   2.386  0.9327  0.4592 -0.0770
  901MOL0     C21507   4.486   8.907   2.292  0.3823 -0.3173 -0.0494
  901MOL0     O21508   4.348   8.933   2.298  0.2156 -0.2611 -0.8546
  901MOL0     C21509   4.258   8.886   2.402 -0.4839 -0.1297  0.2593
  901MOL0     C21510   4.127   8.865   2.327  0.2546 -0.3621  0.4152
  901MOL0     C21511   4.016   8.822   2.426  0.0974 -0.4332  1.1431
  901MOL0     C21512   3.879   8.841   2.361 -0.1342  0.1829  0.2787
  901MOL0     C21513   3.769   8.766   2.442  0.3199 -0.2874  0.5910
  901MOL0     C21514   3.638   8.804   2.367  0.4251  0.7093  0.4223
  901MOL0     C21515   3.514   8.738   2.433 -0.1231 -0.2267  0.8002
  901MOL0     C21516   3.505   8.787   2.580  0.0462  0.4009 -0.5130
  901MOL0     N21517   3.379   8.719   2.645 -0.2283 -0.3160 -0.4581
  901MOL0     C21518   3.293   8.783   2.723 -0.1026  0.4839 -0.3412
  901MOL0     C21519   3.203   8.690   2.764  0.5100  0.0590  0.7269
  901MOL0     C21520   3.099   8.701   2.865 -0.2705  0.7578 -0.0319
  901MOL0     C21521   3.050   8.560   2.911 -0.9093 -0.3472  0.9962
  901MOL0     C21522   2.962   8.566   3.036  0.6904  0.0431 -0.4823
  901MOL0     C21523   2.820   8.626   3.011 -0.4493 -0.1439 -0.6139
  901MOL0     O21524   2.730   8.526   3.043  0.3269 -0.3937  0.9669
  901MOL0     C21525   2.681   8.498   3.163  0.1715  0.3284 -0.1652
  901MOL0     C21526   2.728   8.548   3.283 -0.0873  0.2449 -0.1507
  901MOL0     C21527   2.681   8.511   3.415 -0.2070 -0.5018 -0.2681
  901MOL0     C21528   2.777   8.540   3.528  0.1102  0.4176  0.3630
  901MOL0     C21529   2.579   8.414   3.424 -0.0655  0.6482 -0.1003
  901MOL0     C21530   2.517   8.356   3.552  0.1584  0.3970 -0.1584
  901MOL0     O21531   2.435   8.244   3.531  0.3171  0.3028  0.2455
  901MOL0     C21532   2.382   8.166   3.631  0.5426 -0.0138 -0.1523
  901MOL0     C21533   2.275   8.086   3.601 -0.0627 -0.7220 -0.1212
  901MOL0     C21534   2.232   7.991   3.692  0.5487  0.1849 -0.3841
  901MOL0     C21535   2.297   7.975   3.823 -0.0660 -0.0306  0.0709
  901MOL0     O21536   2.258   7.880   3.913  0.0991 -0.6354  0.0841
  901MOL0     C21537   2.124   7.894   3.964  0.0120 -0.6984  0.8475
  901MOL0     C21538   2.101   7.821   4.093  0.8014  0.6048  0.5614
  901MOL0     C21539   2.114   7.669   4.079  0.5519  0.7276 -0.2080
  901MOL0     C21540   2.096   7.588   4.207 -0.8786  0.6100  0.6581
  901MOL0     C21541   2.104   7.436   4.197 -0.1214 -0.4732 -0.9045
  901MOL0     C21542   2.115   7.367   4.330  0.5802  0.0072 -0.6921
  901MOL0     C21543   1.999   7.385   4.430 -0.2361 -0.9139 -0.4752
  901MOL0     C21544   1.994   7.287   4.552 -0.7384  0.2016 -0.1267
  901MOL0    Cl21545   2.098   7.334   4.689 -0.0243 -0.2376  0.1094
  901MOL0     C21546   2.395   8.068   3.855 -0.2388 -0.2396  0.1389
  901MOL0     C21547   2.445   8.152   3.754  0.1671 -0.0471 -0.3287
  901MOL0     O21548   2.542   8.406   3.659  0.1654  0.4523 -0.4058
  901MOL0     C21549   2.519   8.369   3.300  0.0504 -0.1488 -0.2077
  901MOL0     C21550   2.577   8.399   3.174  0.6240 -0.0938 -0.2799
  901MOL0     N21551   3.225   8.573   2.688 -0.8735 -0.4324 -0.3121
  901MOL0     N21552   3.330   8.593   2.615 -0.5012 -1.1593 -0.0461
  901MOL0     C21553   4.544   8.939   2.169  0.0642 -0.2683  0.6715
  901MOL0     C21554   4.676   8.904   2.142 -0.6610  0.3696  0.4995
  901MOL0     C21555   5.124   8.832   2.261  0.0291  0.1827 -0.2137
  901MOL0     C21556   5.226   8.883   2.341  0.6282 -0.2830  0.2246
  901MOL0     C21557   5.355   8.847   2.319 -0.1723  0.2722 -0.0886
  901MOL0     C21558   5.397   8.774   2.208 -0.0612  0.0020  1.0329
  901MOL0     O21559   5.533   8.737   2.181  0.9528  0.4124 -0.2238
  901MOL0     C21560   5.628   8.798   2.263 -0.7850 -0.6098 -0.2986
  901MOL0     C21561   5.767   8.765   2.220 -0.4254  1.0481 -0.1314
  901MOL0     C21562   5.799   8.609   2.255  0.1769  0.2968 -0.1098
  901MOL0     C21563   5.812   8.566   2.402  0.3677  0.2432  0.2675
  901MOL0     C21564   5.908   8.646   2.476  0.2054  0.2486 -0.6856
  901MOL0     C21565   5.990   8.716   2.537 -0.0221  0.1321 -0.3397
  901MOL0     C21566   5.295   8.727   2.122 -0.1283 -0.0253  0.6449
  901MOL0     C21567   5.158   8.756   2.142 -0.2223  0.1836 -0.2119
  901MOL0     H21568   4.763   8.778   2.446 -1.5230  0.6255  1.2635
  901MOL0     H21569   4.533   8.812   2.484 -0.7022  3.2161  0.2997
  901MOL0     H21570   4.296   8.799   2.456 -0.3477  0.1518  0.6221
  901MOL0     H21571   4.249   8.962   2.481  0.3337  1.3058 -0.9689
  901MOL0     H21572   4.115   8.965   2.282  1.3026 -0.6947 -0.6569
  901MOL0     H21573   4.147   8.793   2.248 -1.4849 -1.4705  0.9238
  901MOL0     H21574   4.034   8.719   2.458  0.4380 -1.8318 -2.9607
  901MOL0     H21575   4.019   8.883   2.517  1.2395 -0.8691  1.4136
  901MOL0     H21576   3.844   8.944   2.350 -1.9866 -0.5649 -1.6181
  901MOL0     H21577   3.872   8.800   2.259 -4.8337 -0.7012  0.7113
  901MOL0     H21578   3.794   8.659   2.445 -1.1888 -0.6422  1.9134
  901MOL0     H21579   3.778   8.810   2.542  0.1604  0.0739  0.4473
  901MOL0     H21580   3.619   8.912   2.367 -1.4968  0.5370 -3.3972
  901MOL0     H21581   3.652   8.762   2.267  3.1803 -2.5093  1.9691
  901MOL0     H21582   3.433   8.785   2.377  2.7653  1.9478 -1.9978
  901MOL0     H21583   3.509   8.630   2.418 -0.9659 -0.1377  0.4157
  901MOL0     H21584   3.499   8.896   2.584  0.4029  0.4141 -0.3072
  901MOL0     H21585   3.598   8.752   2.626  0.8175  0.2563 -2.0890
  901MOL0     H21586   3.292   8.886   2.758 -0.8514 -0.0946  1.4998
  901MOL0     H21587   3.134   8.746   2.958  1.2434 -1.6879  0.6577
  901MOL0     H21588   3.020   8.767   2.827  2.4639  4.0523 -0.4951
  901MOL0     H21589   3.144   8.506   2.927 -0.8521 -0.0985  1.5257
  901MOL0     H21590   2.985   8.522   2.831  1.2155 -0.8908 -0.5534
  901MOL0     H21591   3.012   8.628   3.110  0.4143  0.8098 -0.9231
  901MOL0     H21592   2.958   8.461   3.064  0.9508 -0.1182 -1.0280
  901MOL0     H21593   2.802   8.666   2.911  2.1223  2.6191 -0.1538
  901MOL0     H21594   2.811   8.712   3.079  0.9449 -1.2905  1.1329
  901MOL0     H21595   2.817   8.610   3.285  0.4468 -0.4981  2.3453
  901MOL0     H21596   2.772   8.462   3.605  0.7170  0.9323  0.9495
  901MOL0     H21597   2.881   8.543   3.494  0.2967  2.2082  0.9490
  901MOL0     H21598   2.761   8.635   3.580  0.0835  0.1727  0.8126
  901MOL0     H21599   2.233   8.089   3.501  2.1709 -1.3203 -1.1471
  901MOL0     H21600   2.139   7.935   3.686 -0.7811  1.7726  2.9107
  901MOL0     H21601   2.104   7.995   4.001 -2.0643 -0.3408 -1.0406
  901MOL0     H21602   2.055   7.860   3.887  1.5952  0.8530 -1.3672
  901MOL0     H21603   2.186   7.848   4.157  1.1032  2.1725 -0.4442
  901MOL0     H21604   2.008   7.850   4.143 -0.2000 -2.2784  0.5574
  901MOL0     H21605   2.204   7.633   4.027 -0.1906 -1.3351 -0.1511
  901MOL0     H21606   2.031   7.641   4.013 -0.9369 -1.9659  2.5251
  901MOL0     H21607   2.177   7.616   4.276 -1.0406  0.0456  1.0868
  901MOL0     H21608   2.000   7.617   4.250 -0.8132  0.9314  0.5922
  901MOL0     H21609   2.199   7.421   4.145 -0.8537  1.1366 -2.8608
  901MOL0     H21610   2.025   7.396   4.133  0.9873 -1.7194 -1.5536
  901MOL0     H21611   2.150   7.264   4.322  0.4454  0.1025 -4.2883
  901MOL0     H21612   2.194   7.429   4.372 -1.5526  2.9624 -0.7537
  901MOL0     H21613   1.909   7.370   4.370 -0.9697 -0.6522  0.5407
  901MOL0     H21614   2.001   7.483   4.477  4.1593 -1.0739  0.1110
  901MOL0     H21615   2.028   7.190   4.514  1.7060  1.2006 -0.6490
  901MOL0     H21616   1.897   7.267   4.599  0.2165 -2.2102  1.0262
  901MOL0     H21617   2.449   8.064   3.949 -0.0659  1.6375  0.1421
  901MOL0     H21618   2.538   8.203   3.779  1.3433 -1.4470 -1.6383
  901MOL0     H21619   2.428   8.311   3.293  0.0113  0.0805 -2.6123
  901MOL0     H21620   2.524   8.371   3.084 -3.3191  1.9078  1.1963
  901MOL0     H21621   4.480   8.983   2.093 -1.9480 -4.1235 -0.1255
  901MOL0     H21622   4.720   8.920   2.044 -2.6340  0.8658 -0.3551
  901MOL0     H21623   5.200   8.946   2.426 -2.8476  0.8546 -1.4750
  901MOL0     H21624   5.429   8.890   2.386  0.9125  0.7481 -1.5374
  901MOL0     H21625   5.618   8.907   2.260 -2.8178 -0.6755  1.7271
  901MOL0     H21626   5.614   8.767   2.367 -0.0979  2.4305  0.8205
  901MOL0     H21627   5.846   8.824   2.267 -1.4677  0.9874  1.8084
  901MOL0     H21628   5.778   8.776   2.112 -0.5429  0.6500 -0.1852
  901MOL0     H21629   5.900   8.584   2.220 -0.0005 -0.5197 -0.0511
  901MOL0     H21630   5.732   8.549   2.193 -1.1459  1.8546 -0.2647
  901MOL0     H21631   5.845   8.463   2.415  3.2920  0.9556 -0.6200
  901MOL0     H21632   5.712   8.576   2.444 -1.0679  0.6052 -2.9334
  901MOL0     H21633   6.059   8.783   2.586  0.9692 -0.1049 -1.3710
  901MOL0     H21634   5.334   8.674   2.035 -0.9411  1.1749 -0.5041
  901MOL0     H21635   5.075   8.715   2.085 -1.7297  2.3951  0.2559
  902MOL0     O21636   1.046   8.728   9.799 -0.4404 -0.0341  0.1519
  902MOL0     C21637   1.088   8.698   9.914 -0.3148 -0.3818 -0.9562
  902MOL0     O21638   1.013   8.653  10.019  0.6800  0.1162 -0.1246
  902MOL0     C21639   0.882   8.614   9.999  0.1839  0.3621 -0.9566
  902MOL0     C21640   0.828   8.561   9.881  0.9663  0.1683  0.9144
  902MOL0     C21641   0.685   8.522   9.870  0.1956  0.5567 -0.5043
  902MOL0     C21642   0.600   8.529   9.989  0.4121  0.1178  0.3326
  902MOL0     O21643   0.465   8.484   9.963 -0.8757 -0.3219  0.1227
  902MOL0     C21644   0.368   8.497  10.074 -0.2783  0.7452  0.2225
  902MOL0     C21645   0.241   8.424  10.042 -0.9739 -0.5589  0.3753
  902MOL0     C21646   0.146   8.454  10.161 -0.5554 -0.2280 -0.1662
  902MOL0     C21647   0.013   8.394  10.131  0.2401  0.0176  0.8170
  902MOL0     C21648  -0.071   8.362  10.252 -0.8516  0.3715 -0.8983
  902MOL0     C21649  -0.110   8.487  10.336 -0.4303 -0.3029 -0.0447
  902MOL0     C21650  -0.188   8.461  10.467  0.1593 -0.1233 -1.0865
  902MOL0     C21651  -0.316   8.376  10.451 -0.5209 -0.5659  0.2067
  902MOL0     N21652  -0.422   8.457  10.391 -0.3202  0.1001  0.3313
  902MOL0     C21653  -0.522   8.409  10.307 -0.3153 -0.3646 -0.5146
  902MOL0     C21654  -0.608   8.511  10.283 -0.2080  0.1216  0.3311
  902MOL0     C21655  -0.730   8.514  10.201 -0.0853 -0.1629 -0.7310
  902MOL0     C21656  -0.697   8.542  10.061  0.6451 -0.5700  0.0814
  902MOL0     C21657  -0.619   8.680  10.030 -0.3426 -0.4301  0.8051
  902MOL0     C21658  -0.697   8.810  10.073 -0.1422 -0.4291  0.0388
  902MOL0     O21659  -0.820   8.830  10.000  0.5073 -0.9857  0.0405
  902MOL0     C21660  -0.877   8.957  10.005 -0.1759 -0.1349  0.3168
  902MOL0     C21661  -0.905   9.024   9.887  0.8755  0.1160  0.4906
  902MOL0     C21662  -0.946   9.152   9.888  0.8725 -0.2269  0.0465
  902MOL0     C21663  -0.967   9.225   9.756 -0.6566 -0.1710 -0.1462
  902MOL0     C21664  -0.969   9.223  10.010  0.6672  0.1213  0.1925
  902MOL0     C21665  -1.010   9.366  10.019 -0.7291 -0.5961 -0.1962
  902MOL0     O21666  -0.922   9.463   9.978  0.0324 -0.0896  0.4225
  902MOL0     C21667  -0.969   9.586   9.971  0.7731 -0.2751  0.4114
  902MOL0     C21668  -0.876   9.686   9.992 -0.1310 -0.3610  0.0660
  902MOL0     C21669  -0.916   9.815   9.971  0.0876 -1.0407  0.0816
  902MOL0     C21670  -1.041   9.851   9.924 -1.0837 -0.3215 -0.4989
  902MOL0     O21671  -1.082   9.984   9.922  0.7911 -0.2269  0.4817
  902MOL0     C21672  -1.220  10.020   9.925 -0.0081  0.0169 -0.2886
  902MOL0     C21673  -1.241  10.166   9.966  0.0116  0.6466  0.0093
  902MOL0     C21674  -1.379  10.219   9.949 -0.4942  0.0162  0.2648
  902MOL0     C21675  -1.397  10.369   9.953  0.3517 -0.3170  0.4045
  902MOL0     C21676  -1.536  10.424   9.936  0.5014 -0.0116  0.5380
  902MOL0     C21677  -1.600  10.464  10.071  0.2807 -0.5490 -0.1974
  902MOL0     C21678  -1.723  10.548  10.047 -0.0158 -0.3007  0.2787
  902MOL0     C21679  -1.842  10.461   9.999 -0.5709  0.6900  0.1023
  902MOL0    Cl21680  -1.942  10.560   9.898  0.0701  0.0623  0.3090
  902MOL0     C21681  -1.129   9.747   9.897 -0.2065  0.2150  0.0100
  902MOL0     C21682  -1.094   9.617   9.925  0.9602 -0.9595  0.3063
  902MOL0     O21683  -1.110   9.386  10.079 -0.1497  0.0431 -0.2040
  902MOL0     C21684  -0.933   9.156  10.130 -0.5114 -0.7397 -0.5368
  902MOL0     C21685  -0.881   9.026  10.129  0.1725  1.2587  0.4476
  902MOL0     N21686  -0.562   8.620  10.361 -0.1108 -0.2440 -0.6496
  902MOL0     N21687  -0.450   8.592  10.417 -0.1130  1.1099  0.0689
  902MOL0     C21688   0.661   8.581  10.104  0.2682 -0.8024 -0.1713
  902MOL0     C21689   0.802   8.617  10.112 -0.2983 -0.2387 -0.4193
  902MOL0     C21690   1.234   8.697   9.925 -0.2675  0.5604 -0.1763
  902MOL0     C21691   1.295   8.630  10.035 -1.0584 -0.2447  0.9760
  902MOL0     C21692   1.435   8.643  10.068  0.2132  0.2252  0.4108
  902MOL0     C21693   1.522   8.711   9.978  0.2859  0.4251  0.4859
  902MOL0     O21694   1.652   8.713  10.007 -0.3222 -0.6348 -0.7746
  902MOL0     C21695   1.726   8.839   9.998  0.6943  0.4573  0.3493
  902MOL0     C21696   1.826   8.849   9.892  0.0161  0.1477 -0.0865
  902MOL0     C21697   1.943   8.752   9.922  0.4030 -0.8172 -0.7862
  902MOL0     C21698   2.070   8.810   9.865 -0.6263  0.6262 -0.5527
  902MOL0     C21699   2.082   8.816   9.721  0.5896 -0.0121  0.7780
  902MOL0     C21700   2.088   8.802   9.599 -0.8364  0.3275 -1.0380
  902MOL0     C21701   1.468   8.769   9.862 -0.0330 -0.2817 -0.9484
  902MOL0     C21702   1.320   8.766   9.843 -0.2383  0.1405  0.2643
  902MOL0     H21703   0.885   8.542   9.790  0.0369  0.8238  0.1730
  902MOL0     H21704   0.666   8.465   9.780  0.4188  0.3662 -0.4303
  902MOL0     H21705   0.405   8.447  10.164 -0.9264  0.8573  0.5561
  902MOL0     H21706   0.341   8.601  10.096 -3.4929 -0.3905  2.3846
  902MOL0     H21707   0.202   8.473   9.952 -1.8841  0.3850  1.2521
  902MOL0     H21708   0.257   8.316  10.032 -0.6321 -0.4670 -0.0836
  902MOL0     H21709   0.177   8.418  10.260 -3.2341  0.6270  1.0851
  902MOL0     H21710   0.155   8.560  10.186  0.6975 -0.8438  2.3495
  902MOL0     H21711  -0.044   8.456  10.060  2.9465  1.4849 -0.2028
  902MOL0     H21712   0.012   8.300  10.075  0.0373  0.4242  0.1123
  902MOL0     H21713  -0.163   8.315  10.215  0.4287 -2.7754 -0.3870
  902MOL0     H21714  -0.018   8.297  10.322  0.2725  2.7181  0.5551
  902MOL0     H21715  -0.023   8.549  10.357 -0.8002  0.7805 -1.5421
  902MOL0     H21716  -0.172   8.538  10.261  0.3883 -0.3122 -0.7417
  902MOL0     H21717  -0.122   8.403  10.532 -1.4426  0.9283  1.6460
  902MOL0     H21718  -0.192   8.553  10.526  0.3234 -0.3914 -0.6540
  902MOL0     H21719  -0.349   8.358  10.553  2.5290 -0.3889  1.3163
  902MOL0     H21720  -0.298   8.281  10.400 -0.8293 -0.2536 -0.4969
  902MOL0     H21721  -0.528   8.312  10.260  1.9358  1.2356 -4.7052
  902MOL0     H21722  -0.775   8.415  10.214 -1.3956  0.6728  1.8090
  902MOL0     H21723  -0.795   8.594  10.238  2.5791  1.7425  0.1730
  902MOL0     H21724  -0.787   8.536  10.000  0.5713  0.5746  0.0481
  902MOL0     H21725  -0.639   8.456  10.026  2.0191  0.6003 -0.6651
  902MOL0     H21726  -0.598   8.682   9.923 -0.7752  2.0061  0.7150
  902MOL0     H21727  -0.518   8.684  10.073  1.8732 -2.2018 -3.6485
  902MOL0     H21728  -0.637   8.900  10.054 -1.3352 -0.0213 -2.1072
  902MOL0     H21729  -0.717   8.818  10.180 -0.9084  1.1968 -0.1842
  902MOL0     H21730  -0.902   8.965   9.796  2.7345 -1.7803  1.6911
  902MOL0     H21731  -0.924   9.325   9.746 -2.0707  0.4209 -0.6277
  902MOL0     H21732  -0.951   9.159   9.670  1.2673 -0.9939  0.7877
  902MOL0     H21733  -1.075   9.244   9.760 -0.2542  2.7358 -0.9603
  902MOL0     H21734  -0.778   9.661  10.031 -0.2237  1.1463  1.3683
  902MOL0     H21735  -0.841   9.891   9.991  2.2198 -3.2018  0.8028
  902MOL0     H21736  -1.258  10.014   9.823  0.8919  0.2712 -0.6472
  902MOL0     H21737  -1.288   9.966   9.991  0.5294  1.7714  1.8606
  902MOL0     H21738  -1.230  10.167  10.075 -3.9925 -1.0112  0.5922
  902MOL0     H21739  -1.167  10.233   9.922 -0.3192  1.7789  1.1157
  902MOL0     H21740  -1.443  10.166  10.020 -2.8911  3.2850  0.7331
  902MOL0     H21741  -1.413  10.187   9.850  0.9998 -2.0857  0.3567
  902MOL0     H21742  -1.352  10.410  10.044  0.9346 -3.1038  1.4558
  902MOL0     H21743  -1.343  10.410   9.867 -1.1346  0.0336 -0.4094
  902MOL0     H21744  -1.602  10.349   9.893  0.0163 -0.4144  1.9242
  902MOL0     H21745  -1.537  10.507   9.866  0.8906  0.6172  1.2662
  902MOL0     H21746  -1.615  10.376  10.135  0.0261 -2.2030 -2.4108
  902MOL0     H21747  -1.531  10.526  10.129 -2.3315  1.7736  0.6307
  902MOL0     H21748  -1.698  10.620   9.969  3.0021 -0.8668  0.6098
  902MOL0     H21749  -1.762  10.603  10.134  1.2597  1.3488 -0.1423
  902MOL0     H21750  -1.900  10.422  10.083  1.1619 -0.5180  0.7855
  902MOL0     H21751  -1.811  10.371   9.945  0.8619  0.6652  0.9283
  902MOL0     H21752  -1.234   9.765   9.878 -0.2801 -0.3349 -0.1238
  902MOL0     H21753  -1.171   9.541   9.917 -0.7096  0.8025 -1.6250
  902MOL0     H21754  -0.928   9.208  10.225  1.1863 -1.6123 -0.1038
  902MOL0     H21755  -0.862   8.970  10.220 -0.7396  2.2328  1.2694
  902MOL0     H21756   0.600   8.606  10.190 -0.6351 -1.9840 -0.4560
  902MOL0     H21757   0.848   8.669  10.195  1.8142 -1.0243 -1.0265
  902MOL0     H21758   1.242   8.566  10.104 -0.4618 -1.4976  0.2903
  902MOL0     H21759   1.473   8.587  10.153  1.3872  1.9367  1.0739
  902MOL0     H21760   1.654   8.915   9.968  0.0652 -0.4184 -0.4449
  902MOL0     H21761   1.760   8.863  10.099  1.2495 -1.0771  0.5543
  902MOL0     H21762   1.867   8.950   9.900  1.3137 -0.4448  1.0637
  902MOL0     H21763   1.778   8.830   9.795 -1.5639  0.1543  0.6622
  902MOL0     H21764   1.924   8.656   9.872 -0.1135 -0.0463 -2.1120
  902MOL0     H21765   1.959   8.736  10.029  0.1384  0.1446 -0.5920
  902MOL0     H21766   2.148   8.745   9.905  0.8047  2.0010 -0.9742
  902MOL0     H21767   2.092   8.905   9.913  0.2485 -0.0847  0.5001
  902MOL0     H21768   2.117   8.779   9.499 -3.4025  1.6197 -2.1681
  902MOL0     H21769   1.531   8.815   9.786  1.2489 -1.0234 -0.3712
  902MOL0     H21770   1.269   8.823   9.767  0.5189  0.1803 -0.2257
  903MOL0     O21771   5.848   8.750   8.608 -0.6163  0.5847  1.1386
  903MOL0     C21772   5.926   8.826   8.670 -0.5610 -0.5810 -0.2652
  903MOL0     O21773   5.890   8.891   8.778 -0.6259  0.5682  1.1284
  903MOL0     C21774   5.759   8.887   8.802  0.1803 -0.3155 -0.2013
  903MOL0     C21775   5.688   9.010   8.783 -0.1038  0.0399  0.1199
  903MOL0     C21776   5.545   9.011   8.798  0.8222  0.2822  0.4918
  903MOL0     C21777   5.475   8.896   8.837 -0.0543  0.1780 -0.9051
  903MOL0     O21778   5.340   8.878   8.858  0.0057 -0.0742 -0.6556
  903MOL0     C21779   5.246   8.972   8.798 -0.1108  0.2933  0.3032
  903MOL0     C21780   5.108   8.930   8.856 -0.9525  0.3429  0.5274
  903MOL0     C21781   5.001   9.033   8.850 -0.2126 -0.0311 -0.3530
  903MOL0     C21782   4.868   8.982   8.897  0.9882  0.5576  0.0083
  903MOL0     C21783   4.761   9.087   8.873 -0.2765  0.3437 -0.0226
  903MOL0     C21784   4.621   9.046   8.916  0.1635  0.0540 -0.5386
  903MOL0     C21785   4.498   9.113   8.844  0.3275 -0.0726  0.0218
  903MOL0     C21786   4.500   9.095   8.690  0.7167  0.2156  0.3655
  903MOL0     N21787   4.364   9.108   8.623 -0.1090 -0.0174  0.4051
  903MOL0     C21788   4.322   9.010   8.543 -0.3441 -0.2737  0.9399
  903MOL0     C21789   4.211   9.072   8.487 -0.1297  0.1898  0.4484
  903MOL0     C21790   4.110   9.009   8.388  0.2349 -0.8219  0.3645
  903MOL0     C21791   4.043   8.872   8.430 -0.4815 -0.7474  0.1775
  903MOL0     C21792   4.012   8.870   8.579  0.0400 -0.2563 -0.5434
  903MOL0     C21793   3.926   8.992   8.623  0.0353 -0.4048  0.0724
  903MOL0     O21794   3.856   8.955   8.742  0.5212  0.1490  0.2693
  903MOL0     C21795   3.754   9.032   8.775  0.5349 -1.3163 -0.2928
  903MOL0     C21796   3.731   9.161   8.720  0.0571  0.1499  0.7268
  903MOL0     C21797   3.622   9.242   8.764  0.7102  0.3710  0.2832
  903MOL0     C21798   3.611   9.381   8.706 -1.3415  0.7922 -0.8134
  903MOL0     C21799   3.518   9.183   8.853 -0.9088 -0.0901  0.6825
  903MOL0     C21800   3.384   9.247   8.883 -0.7365  0.3938 -0.3744
  903MOL0     O21801   3.317   9.196   8.988 -0.2638  0.0649  0.5317
  903MOL0     C21802   3.194   9.261   9.016 -0.1951  1.1360  0.1199
  903MOL0     C21803   3.167   9.331   9.132  0.5499 -0.6902  0.6232
  903MOL0     C21804   3.031   9.363   9.168  0.0065  0.7095 -0.2567
  903MOL0     C21805   2.929   9.331   9.082  0.4276  1.0624  0.1313
  903MOL0     O21806   2.802   9.344   9.132  0.1302  0.4228  0.4242
  903MOL0     C21807   2.744   9.478   9.106 -0.5596  0.2103  0.8892
  903MOL0     C21808   2.595   9.473   9.121  0.3639  0.2817 -0.0035
  903MOL0     C21809   2.539   9.472   9.272  1.4607 -0.3057  1.6101
  903MOL0     C21810   2.387   9.481   9.257  0.7691 -0.3649  0.1088
  903MOL0     C21811   2.325   9.499   9.400  0.2439 -1.0501  0.3515
  903MOL0     C21812   2.177   9.465   9.392  0.2640  0.1425 -0.9306
  903MOL0     C21813   2.084   9.536   9.494  0.3872  0.0997 -0.3294
  903MOL0     C21814   2.139   9.513   9.639 -0.8165 -0.1749 -0.0529
  903MOL0    Cl21815   2.161   9.337   9.682  0.0687  0.2542 -0.1019
  903MOL0     C21816   2.957   9.268   8.960 -0.2377 -0.3983  0.5086
  903MOL0     C21817   3.092   9.236   8.928  0.0216  0.2559  0.0646
  903MOL0     O21818   3.339   9.331   8.805  0.5148  0.3295 -0.1388
  903MOL0     C21819   3.545   9.048   8.890 -0.7687  0.1916 -0.6577
  903MOL0     C21820   3.650   8.976   8.850  0.3345  0.2840 -0.6542
  903MOL0     N21821   4.204   9.206   8.517  0.5565  0.5477  0.4405
  903MOL0     N21822   4.295   9.227   8.601  0.0123  0.4315 -0.1246
  903MOL0     C21823   5.550   8.778   8.871 -0.5741 -0.6085  0.8461
  903MOL0     C21824   5.690   8.776   8.848 -0.9327 -0.2696  0.0870
  903MOL0     C21825   6.073   8.817   8.648 -0.0710 -0.6213  0.6705
  903MOL0     C21826   6.122   8.726   8.546  0.3347 -0.6310 -0.3493
  903MOL0     C21827   6.259   8.715   8.531 -0.8564 -0.4054  0.9175
  903MOL0     C21828   6.359   8.799   8.593  0.0732 -0.3227 -0.5496
  903MOL0     O21829   6.487   8.763   8.560 -0.1608  0.1708  0.7619
  903MOL0     C21830   6.596   8.834   8.628  0.7648 -0.2991 -0.2626
  903MOL0     C21831   6.720   8.752   8.597  0.3692 -0.1538 -0.2260
  903MOL0     C21832   6.841   8.791   8.675 -0.5813  0.3969 -0.0201
  903MOL0     C21833   6.833   8.751   8.816  0.0294 -0.1007 -0.8312
  903MOL0     C21834   6.962   8.792   8.880  0.8958 -0.1952 -0.6145
  903MOL0     C21835   7.066   8.819   8.938 -0.0376 -0.6327  0.2599
  903MOL0     C21836   6.309   8.884   8.694  0.1808  0.4521 -0.7531
  903MOL0     C21837   6.173   8.899   8.716 -0.0894  1.0665  0.1432
  903MOL0     H21838   5.732   9.099   8.739 -1.1508 -0.6424 -2.4793
  903MOL0     H21839   5.491   9.101   8.768  2.8849  0.7052 -2.4308
  903MOL0     H21840   5.258   9.077   8.826 -0.9629  0.3046  0.6522
  903MOL0     H21841   5.255   8.957   8.690  1.8482 -1.8267  0.6896
  903MOL0     H21842   5.078   8.835   8.810  3.2784  0.1532 -2.4002
  903MOL0     H21843   5.110   8.907   8.963 -0.9959 -0.4077  0.3709
  903MOL0     H21844   5.019   9.125   8.906  0.0021  0.5602 -1.3752
  903MOL0     H21845   4.981   9.051   8.744 -0.6183 -2.0587 -0.6657
  903MOL0     H21846   4.841   8.888   8.848  2.2019  0.8162 -1.2100
  903MOL0     H21847   4.884   8.961   9.003  0.9776  0.0096 -0.0956
  903MOL0     H21848   4.787   9.186   8.910  0.6192 -0.5016  1.7747
  903MOL0     H21849   4.755   9.103   8.765 -1.6250 -0.0288 -0.0214
  903MOL0     H21850   4.608   8.940   8.891 -2.7497  1.0361 -3.9758
  903MOL0     H21851   4.609   9.068   9.023 -1.5291 -0.4439 -0.5973
  903MOL0     H21852   4.408   9.063   8.881 -0.6319 -0.8067 -3.0266
  903MOL0     H21853   4.479   9.218   8.870 -3.0590  0.3521 -3.3092
  903MOL0     H21854   4.542   8.995   8.672 -0.9026 -0.0152 -2.9551
  903MOL0     H21855   4.570   9.162   8.639  0.2086  1.5560  1.4068
  903MOL0     H21856   4.363   8.912   8.523 -0.5443  0.1792 -2.2228
  903MOL0     H21857   4.025   9.077   8.374 -0.4310 -1.1023  2.6485
  903MOL0     H21858   4.156   8.998   8.289 -0.5554 -1.6141  0.0727
  903MOL0     H21859   4.108   8.787   8.410 -0.6363 -1.2815  1.8393
  903MOL0     H21860   3.947   8.858   8.377 -1.9193  0.4176  2.3303
  903MOL0     H21861   4.111   8.875   8.626  0.2116  0.1192 -0.9382
  903MOL0     H21862   3.967   8.773   8.600  0.5556 -0.5008 -0.5376
  903MOL0     H21863   3.850   9.013   8.547 -0.6734 -0.0036  0.8763
  903MOL0     H21864   3.999   9.073   8.632  0.7138 -1.1210  1.4011
  903MOL0     H21865   3.806   9.197   8.651 -1.4073  0.9681 -0.5072
  903MOL0     H21866   3.552   9.455   8.761  0.2744  1.0567  0.6416
  903MOL0     H21867   3.711   9.423   8.692  0.0001 -1.7108  0.6167
  903MOL0     H21868   3.572   9.376   8.604 -1.8570  3.0461 -0.7797
  903MOL0     H21869   3.242   9.355   9.206 -1.4164  1.0480  2.1914
  903MOL0     H21870   3.011   9.422   9.256 -1.1525  1.2000 -0.8267
  903MOL0     H21871   2.788   9.544   9.180 -0.0685 -1.5127  2.2059
  903MOL0     H21872   2.769   9.516   9.007  1.1878  1.4067  1.7488
  903MOL0     H21873   2.556   9.557   9.063 -2.4437 -0.8408  0.1127
  903MOL0     H21874   2.560   9.376   9.085 -0.6895  0.6996 -0.1451
  903MOL0     H21875   2.590   9.556   9.318  1.2802  0.4676  0.4348
  903MOL0     H21876   2.571   9.379   9.321  1.8559 -0.2100  1.5321
  903MOL0     H21877   2.360   9.558   9.184 -0.0295 -1.0052 -0.2826
  903MOL0     H21878   2.354   9.389   9.208 -1.4873 -1.7458  3.8435
  903MOL0     H21879   2.332   9.604   9.430  2.3161 -0.7176 -1.0578
  903MOL0     H21880   2.376   9.427   9.464  0.1346 -3.0364 -1.6915
  903MOL0     H21881   2.139   9.492   9.293 -0.5335  0.3894 -0.5673
  903MOL0     H21882   2.168   9.357   9.409  1.0419  0.1101 -0.6890
  903MOL0     H21883   1.978   9.511   9.484  0.0894  0.8610  0.7252
  903MOL0     H21884   2.103   9.641   9.473  5.4746 -0.7342 -1.2380
  903MOL0     H21885   2.066   9.550   9.712 -1.6937 -1.8113 -0.0409
  903MOL0     H21886   2.239   9.556   9.650  0.0432 -1.6612 -1.6300
  903MOL0     H21887   2.873   9.236   8.899 -1.8630 -1.7667  3.2922
  903MOL0     H21888   3.119   9.180   8.839  2.4642 -0.7441  1.3558
  903MOL0     H21889   3.474   8.992   8.949  0.8541  0.2828  1.4884
  903MOL0     H21890   3.663   8.875   8.885 -0.4669 -0.0615 -1.3241
  903MOL0     H21891   5.504   8.693   8.920  0.4039 -1.9724 -0.4944
  903MOL0     H21892   5.741   8.685   8.876  0.8686  0.0323 -1.9995
  903MOL0     H21893   6.055   8.654   8.499  0.3217 -2.6673  2.5063
  903MOL0     H21894   6.291   8.639   8.459 -2.2152 -2.6352  2.5534
  903MOL0     H21895   6.602   8.936   8.589  0.0285 -0.3879 -0.6219
  903MOL0     H21896   6.579   8.842   8.736  3.4176 -1.7315  0.3459
  903MOL0     H21897   6.729   8.770   8.490 -3.4394  2.8787 -0.2712
  903MOL0     H21898   6.699   8.647   8.615 -1.5912 -0.0688 -1.7233
  903MOL0     H21899   6.852   8.899   8.662 -0.2314  0.2869 -0.6755
  903MOL0     H21900   6.930   8.749   8.627  0.7817 -2.4036  4.3787
  903MOL0     H21901   6.823   8.642   8.823 -0.9050  0.0235  0.0768
  903MOL0     H21902   6.745   8.794   8.866  1.2636 -0.4169  1.8203
  903MOL0     H21903   7.160   8.846   8.982  0.6579  0.7866 -1.8970
  903MOL0     H21904   6.369   8.942   8.763  0.7332  0.5852 -1.3318
  903MOL0     H21905   6.124   8.971   8.781 -3.0787  1.4697 -2.2771
  904MOL0     O21906   2.952   1.025   7.224  0.5317 -0.5940  0.2505
  904MOL0     C21907   3.010   1.084   7.133  0.4246 -0.7651  1.1258
  904MOL0     O21908   2.950   1.130   7.013  0.3123  0.1068  0.2376
  904MOL0     C21909   2.814   1.149   7.007  0.3780 -0.3826  0.6036
  904MOL0     C21910   2.721   1.194   7.109  0.2142 -0.0316 -0.0442
  904MOL0     C21911   2.589   1.212   7.079  0.5091  0.2228 -1.3034
  904MOL0     C21912   2.530   1.182   6.962 -0.5664  0.1838  0.3900
  904MOL0     O21913   2.399   1.190   6.935  0.2186  0.5508 -0.3853
  904MOL0     C21914   2.311   1.264   7.021 -0.1123 -0.3808 -0.2543
  904MOL0     C21915   2.169   1.210   7.008  0.5183 -1.1330 -0.7657
  904MOL0     C21916   2.081   1.229   7.140 -0.5405 -0.6872 -0.3675
  904MOL0     C21917   1.927   1.208   7.100 -0.0300  0.0309  0.3362
  904MOL0     C21918   1.866   1.338   7.068  0.0875 -0.2517 -0.3052
  904MOL0     C21919   1.721   1.317   7.007  0.1937 -0.4850 -0.4372
  904MOL0     C21920   1.644   1.443   7.010 -0.3057 -0.6230  0.3172
  904MOL0     C21921   1.500   1.455   6.960 -0.3304  0.0769 -0.0934
  904MOL0     N21922   1.403   1.397   7.050 -0.3951  0.8720  0.2741
  904MOL0     C21923   1.337   1.467   7.146  0.0804  0.4593 -0.3277
  904MOL0     C21924   1.283   1.375   7.235 -0.2101 -0.3847 -0.1023
  904MOL0     C21925   1.192   1.389   7.351 -0.1049  0.1255  0.0496
  904MOL0     C21926   1.039   1.402   7.314 -0.4221 -0.1480 -0.6304
  904MOL0     C21927   1.005   1.553   7.262  0.2204  0.2379 -0.5070
  904MOL0     C21928   0.874   1.551   7.198 -0.0478 -0.7304  0.8078
  904MOL0     O21929   0.774   1.537   7.294 -0.0480  0.3410 -0.3501
  904MOL0     C21930   0.647   1.579   7.273  0.0245 -0.5354 -0.0769
  904MOL0     C21931   0.578   1.601   7.154 -0.2239  0.0204 -0.3790
  904MOL0     C21932   0.446   1.639   7.145  0.3105  0.5358  0.2103
  904MOL0     C21933   0.389   1.644   7.012  0.2450  0.2349  0.1025
  904MOL0     C21934   0.369   1.652   7.264 -0.0596  0.1306 -0.3794
  904MOL0     C21935   0.228   1.686   7.278 -0.9190  0.1145 -0.3907
  904MOL0     O21936   0.160   1.708   7.167  0.8657 -0.5995  0.3704
  904MOL0     C21937   0.049   1.790   7.170 -0.2463 -0.3359 -0.9489
  904MOL0     C21938  -0.066   1.773   7.087  0.7880  0.5340 -0.4683
  904MOL0     C21939  -0.173   1.864   7.087 -0.4865  0.6978 -0.3030
  904MOL0     C21940  -0.167   1.977   7.167 -0.0752  0.2611  0.8845
  904MOL0     O21941  -0.276   2.055   7.150  0.0316 -0.4364 -0.0981
  904MOL0     C21942  -0.329   2.122   7.258 -0.1866  0.1343  0.1413
  904MOL0     C21943  -0.413   2.254   7.221  0.0768 -0.2879  0.0499
  904MOL0     C21944  -0.532   2.222   7.133  0.0203  0.8534  0.5710
  904MOL0     C21945  -0.659   2.281   7.200 -0.2554 -0.1836  0.1584
  904MOL0     C21946  -0.773   2.286   7.100 -0.0517  0.0384 -0.2044
  904MOL0     C21947  -0.888   2.359   7.161 -0.0932  0.1144 -1.0400
  904MOL0     C21948  -1.001   2.363   7.063  0.1716 -0.0179  0.0707
  904MOL0     C21949  -1.127   2.398   7.136  0.0352 -0.3269 -0.2718
  904MOL0    Cl21950  -1.252   2.465   7.029 -0.6589  0.2508 -0.1106
  904MOL0     C21951  -0.063   2.002   7.259  0.1475 -0.0687 -0.5201
  904MOL0     C21952   0.041   1.904   7.259  0.5616  0.6427 -0.3978
  904MOL0     O21953   0.186   1.679   7.394  0.4405  0.5954 -0.1763
  904MOL0     C21954   0.443   1.642   7.382 -0.2588  0.1312 -0.4695
  904MOL0     C21955   0.577   1.601   7.391 -0.3165 -0.7045  0.3584
  904MOL0     N21956   1.329   1.255   7.193  0.3955 -0.0258  0.2722
  904MOL0     N21957   1.392   1.262   7.081  0.1137  0.1157  0.4552
  904MOL0     C21958   2.614   1.136   6.860  0.3912  0.9290 -0.0235
  904MOL0     C21959   2.751   1.125   6.878 -0.1851 -0.1427 -0.2882
  904MOL0     C21960   3.153   1.089   7.150 -0.2927 -0.2041  0.9125
  904MOL0     C21961   3.213   1.070   7.279  0.3035 -0.4403  0.1816
  904MOL0     C21962   3.345   1.073   7.304  0.0981  0.0460  0.5264
  904MOL0     C21963   3.428   1.113   7.196 -0.4477 -0.6139  1.5427
  904MOL0     O21964   3.563   1.127   7.224 -0.5866  0.2815 -0.8581
  904MOL0     C21965   3.649   1.172   7.118  0.4526  0.0885 -0.5735
  904MOL0     C21966   3.795   1.165   7.159 -0.1575  0.1587  0.6962
  904MOL0     C21967   3.814   1.169   7.311  0.4969 -0.2882 -0.1783
  904MOL0     C21968   3.960   1.142   7.368  0.6502 -0.4608 -0.3646
  904MOL0     C21969   3.995   1.006   7.365 -1.1749  1.2231  0.5114
  904MOL0     C21970   4.053   0.897   7.357  0.9959 -0.0940  0.4148
  904MOL0     C21971   3.380   1.130   7.070  0.2140 -0.0263  0.2055
  904MOL0     C21972   3.243   1.106   7.045 -0.1690 -0.4293  0.0710
  904MOL0     H21973   2.760   1.213   7.208 -1.9841 -0.5753  0.9865
  904MOL0     H21974   2.529   1.254   7.160  0.6110  1.4354 -1.8317
  904MOL0     H21975   2.333   1.259   7.128  1.0298  0.5078 -0.4244
  904MOL0     H21976   2.293   1.366   6.986 -0.6193 -1.1081 -2.2302
  904MOL0     H21977   2.123   1.268   6.927  0.0497 -0.2032  0.1364
  904MOL0     H21978   2.165   1.103   6.986 -1.2829 -1.3456  0.3620
  904MOL0     H21979   2.104   1.157   7.220  1.4967  1.8904  1.5576
  904MOL0     H21980   2.089   1.330   7.180 -0.8409 -0.8649  0.1624
  904MOL0     H21981   1.924   1.137   7.017  0.8796  0.0283  0.2987
  904MOL0     H21982   1.875   1.164   7.186  0.5312 -1.3661  0.0042
  904MOL0     H21983   1.847   1.403   7.153 -3.4320  1.5439 -2.2512
  904MOL0     H21984   1.927   1.401   7.003 -1.4177  1.3088 -0.2606
  904MOL0     H21985   1.734   1.280   6.905  2.8734 -0.5883 -0.1138
  904MOL0     H21986   1.674   1.242   7.071 -2.0023  1.1550  0.0151
  904MOL0     H21987   1.643   1.476   7.114 -2.6162 -1.3964  0.5875
  904MOL0     H21988   1.704   1.520   6.960 -2.9784  0.6389 -1.1798
  904MOL0     H21989   1.496   1.412   6.860  1.4088  0.0773 -0.1931
  904MOL0     H21990   1.477   1.562   6.948 -1.1171 -0.1942 -1.2215
  904MOL0     H21991   1.311   1.572   7.147  1.5058  0.8470  0.8156
  904MOL0     H21992   1.206   1.300   7.413  1.7726  0.3518  0.0133
  904MOL0     H21993   1.235   1.476   7.403 -0.8006  0.9973 -0.7989
  904MOL0     H21994   0.987   1.371   7.405 -0.1616 -1.4816 -0.9155
  904MOL0     H21995   1.010   1.329   7.238 -1.3544  0.8647 -1.2835
  904MOL0     H21996   1.079   1.580   7.187  0.9284  1.4275  0.5882
  904MOL0     H21997   0.999   1.620   7.348  0.7425  0.0700 -0.3381
  904MOL0     H21998   0.876   1.469   7.126 -1.9247 -0.7823  0.7587
  904MOL0     H21999   0.856   1.646   7.146 -5.4932 -1.0463  1.5207
  904MOL0     H22000   0.644   1.580   7.070  1.3773  3.6986 -0.2304
  904MOL0     H22001   0.309   1.571   7.001  1.2546 -1.6420  3.7112
  904MOL0     H22002   0.341   1.738   6.983  0.1654 -0.2649 -1.5047
  904MOL0     H22003   0.464   1.621   6.936  0.0492 -0.6807  0.1805
  904MOL0     H22004  -0.071   1.697   7.010  0.0735 -0.0469  0.1463
  904MOL0     H22005  -0.250   1.856   7.011  1.0555  0.6308 -1.9335
  904MOL0     H22006  -0.400   2.057   7.311 -0.9703  1.1575  0.3807
  904MOL0     H22007  -0.249   2.146   7.329  0.8889 -1.4217 -0.4844
  904MOL0     H22008  -0.447   2.295   7.317 -2.2068  1.2123 -1.3028
  904MOL0     H22009  -0.345   2.327   7.176 -0.1106 -0.9293 -1.3384
  904MOL0     H22010  -0.535   2.113   7.122  2.1419  0.8396 -0.4297
  904MOL0     H22011  -0.522   2.263   7.032 -2.5238  2.6986  0.9641
  904MOL0     H22012  -0.676   2.217   7.288  3.2371 -1.3837  0.1053
  904MOL0     H22013  -0.645   2.385   7.231 -5.4016  0.8860 -0.1701
  904MOL0     H22014  -0.807   2.184   7.080 -1.4994  0.5884 -0.6533
  904MOL0     H22015  -0.743   2.327   7.003  0.5433  1.3602  0.5060
  904MOL0     H22016  -0.904   2.314   7.259 -0.0311 -1.6628 -1.8070
  904MOL0     H22017  -0.860   2.462   7.187 -0.4803  0.3313 -1.4456
  904MOL0     H22018  -1.017   2.264   7.020  0.2369  0.8005 -1.9721
  904MOL0     H22019  -0.970   2.437   6.988  2.2994 -0.5910  0.3136
  904MOL0     H22020  -1.112   2.468   7.218 -0.8859 -1.8160  1.2268
  904MOL0     H22021  -1.159   2.302   7.178  0.7886 -0.5757 -0.2528
  904MOL0     H22022  -0.056   2.089   7.324  0.0056 -0.5839  0.1945
  904MOL0     H22023   0.127   1.927   7.321  1.6739  0.4153 -1.8043
  904MOL0     H22024   0.398   1.651   7.480 -0.3490 -0.1337 -0.4875
  904MOL0     H22025   0.634   1.589   7.482 -0.5319 -1.4290  0.4036
  904MOL0     H22026   2.577   1.116   6.760 -3.4705  0.3938  1.3304
  904MOL0     H22027   2.816   1.086   6.800 -3.4241 -2.1476 -2.2330
  904MOL0     H22028   3.155   1.042   7.366  1.8756  0.7127  1.6585
  904MOL0     H22029   3.396   1.050   7.397 -0.8690 -1.6322  0.6780
  904MOL0     H22030   3.646   1.126   7.019  2.1833  0.2028 -0.7121
  904MOL0     H22031   3.611   1.274   7.115  0.3609  0.0718 -0.0868
  904MOL0     H22032   3.862   1.234   7.107 -1.0403 -0.5461 -1.5124
  904MOL0     H22033   3.824   1.065   7.126  0.5907  0.8034 -0.7171
  904MOL0     H22034   3.761   1.088   7.362  2.7647 -1.0612  1.1315
  904MOL0     H22035   3.783   1.265   7.352  3.3526  0.8442 -0.4163
  904MOL0     H22036   3.967   1.169   7.474  1.2488 -1.8843 -0.0183
  904MOL0     H22037   4.031   1.193   7.304  1.2369 -1.8920 -0.9022
  904MOL0     H22038   4.111   0.810   7.338 -0.4042 -0.6199 -1.9674
  904MOL0     H22039   3.444   1.142   6.983 -3.1306  1.8846 -2.2303
  904MOL0     H22040   3.204   1.110   6.943  1.2778  2.4823 -0.4840
  905MOL0     O22041   4.542   7.657   0.818  0.2402  0.3370 -0.3611
  905MOL0     C22042   4.571   7.719   0.716  0.1841 -0.0597 -0.0067
  905MOL0     O22043   4.502   7.819   0.665 -0.2671  0.9861 -0.1747
  905MOL0     C22044   4.412   7.886   0.740 -0.0251 -0.0673 -0.2323
  905MOL0     C22045   4.312   7.831   0.822 -0.4381  0.5573  0.2283
  905MOL0     C22046   4.217   7.911   0.889  0.5698 -0.0926  1.0559
  905MOL0     C22047   4.220   8.049   0.869  0.5541 -0.0827 -0.5552
  905MOL0     O22048   4.110   8.115   0.921 -0.7906 -0.2414 -0.2338
  905MOL0     C22049   4.119   8.261   0.922 -0.1331 -0.0560  0.3935
  905MOL0     C22050   3.992   8.320   0.977  0.3424  0.6074  0.6148
  905MOL0     C22051   3.923   8.237   1.091 -0.4632  0.3818  0.0602
  905MOL0     C22052   3.814   8.315   1.160 -0.4687 -0.4211  0.0790
  905MOL0     C22053   3.723   8.247   1.254 -0.4629  0.3501 -0.1993
  905MOL0     C22054   3.609   8.176   1.172  0.4000 -0.1264 -0.3846
  905MOL0     C22055   3.534   8.085   1.272 -0.5283  0.5707 -0.5219
  905MOL0     C22056   3.462   8.167   1.395  0.1364  0.2587  0.6213
  905MOL0     N22057   3.345   8.103   1.453  0.3432 -0.3897 -0.6465
  905MOL0     C22058   3.358   7.997   1.542 -0.2235 -0.3259  0.0623
  905MOL0     C22059   3.233   7.942   1.545  0.0294  0.4527 -0.5545
  905MOL0     C22060   3.183   7.836   1.633 -0.4982  0.1226 -0.0302
  905MOL0     C22061   3.087   7.873   1.735 -0.0518  0.2406 -0.3968
  905MOL0     C22062   2.944   7.919   1.679 -0.3100  0.4299 -0.3374
  905MOL0     C22063   2.846   7.941   1.796  0.3227  0.3761 -0.2138
  905MOL0     O22064   2.792   7.813   1.828  0.0181  0.1183  0.0475
  905MOL0     C22065   2.711   7.800   1.932 -0.0003  0.6124 -0.5891
  905MOL0     C22066   2.722   7.675   2.000 -0.8985  0.6868 -1.2910
  905MOL0     C22067   2.641   7.643   2.106  0.2615  0.1034  0.1556
  905MOL0     C22068   2.668   7.518   2.181  1.0359 -0.4267 -1.5129
  905MOL0     C22069   2.540   7.736   2.149  0.6052  0.2396  0.7504
  905MOL0     C22070   2.435   7.712   2.252  0.3478 -0.3249 -0.3591
  905MOL0     O22071   2.382   7.824   2.301 -0.2637 -0.2375  0.0699
  905MOL0     C22072   2.319   7.833   2.417  1.1787  0.3633 -0.1817
  905MOL0     C22073   2.323   7.740   2.528 -0.5327 -0.6417 -0.2991
  905MOL0     C22074   2.242   7.756   2.648 -0.2236 -0.3687 -0.0724
  905MOL0     C22075   2.151   7.865   2.653 -0.2897 -0.3939 -0.3573
  905MOL0     O22076   2.053   7.877   2.752  0.3401  0.0332  0.3098
  905MOL0     C22077   1.965   7.767   2.777 -0.5031 -0.4984  0.2334
  905MOL0     C22078   1.836   7.817   2.832  0.2268  0.2181 -1.1958
  905MOL0     C22079   1.769   7.920   2.743  0.1200  0.2614 -0.4526
  905MOL0     C22080   1.624   7.950   2.779 -0.0181  0.3374  0.3131
  905MOL0     C22081   1.587   8.084   2.721  0.1216  1.5901 -0.3814
  905MOL0     C22082   1.430   8.103   2.728  0.0075  0.6421 -0.4229
  905MOL0     C22083   1.354   8.050   2.602 -1.4673 -0.3838  0.4543
  905MOL0     C22084   1.312   8.159   2.499 -0.6269  0.4423  0.4508
  905MOL0    Cl22085   1.170   8.246   2.567 -0.1917 -0.3339  0.2649
  905MOL0     C22086   2.146   7.949   2.546 -0.0819 -0.1866 -0.1145
  905MOL0     C22087   2.223   7.935   2.429  0.0404 -0.6043 -0.9819
  905MOL0     O22088   2.389   7.596   2.273 -0.1315 -0.3653 -0.1993
  905MOL0     C22089   2.539   7.864   2.079  0.7482  1.2199  0.0352
  905MOL0     C22090   2.617   7.892   1.969 -0.4266 -0.8378  0.3992
  905MOL0     N22091   3.152   8.009   1.460  0.6569 -0.8851 -0.9289
  905MOL0     N22092   3.218   8.116   1.406 -0.2966  0.2120 -0.3759
  905MOL0     C22093   4.329   8.109   0.802  0.8704 -0.0884  0.2864
  905MOL0     C22094   4.418   8.025   0.736  0.9242 -0.2460  0.0357
  905MOL0     C22095   4.695   7.698   0.643 -0.5381  0.5571  0.5491
  905MOL0     C22096   4.774   7.583   0.678  0.5376 -0.1656 -0.1248
  905MOL0     C22097   4.891   7.555   0.612 -0.4299 -0.7516 -0.4690
  905MOL0     C22098   4.943   7.638   0.511 -0.0018 -0.6052  0.2521
  905MOL0     O22099   5.060   7.605   0.458 -0.2186 -0.0222  0.3719
  905MOL0     C22100   5.141   7.701   0.387 -0.0705 -1.1180 -0.4277
  905MOL0     C22101   5.257   7.630   0.321 -0.1809 -0.7683 -0.3457
  905MOL0     C22102   5.324   7.743   0.234 -0.5661 -0.6740 -0.2305
  905MOL0     C22103   5.433   7.690   0.151 -0.2608  0.9089 -0.3237
  905MOL0     C22104   5.469   7.752   0.027 -0.2942  0.2876  0.3689
  905MOL0     C22105   5.517   7.826  -0.062  0.7618 -0.5505 -0.8660
  905MOL0     C22106   4.861   7.750   0.476  0.5955  0.1464 -0.1325
  905MOL0     C22107   4.741   7.781   0.539  0.2173  0.4291  0.2427
  905MOL0     H22108   4.291   7.725   0.829 -3.1199  1.1154  3.7076
  905MOL0     H22109   4.150   7.864   0.960  1.3559 -0.7161  1.3960
  905MOL0     H22110   4.211   8.295   0.971  1.6621 -3.0390 -0.5885
  905MOL0     H22111   4.127   8.291   0.817 -0.6937  0.4071  0.4836
  905MOL0     H22112   4.018   8.417   1.021  0.0088  0.7129  0.5839
  905MOL0     H22113   3.923   8.329   0.893  1.3022 -3.3267 -0.8091
  905MOL0     H22114   3.865   8.162   1.037 -0.1459  0.8102 -0.8887
  905MOL0     H22115   3.994   8.186   1.157 -0.4943 -0.9185 -0.8765
  905MOL0     H22116   3.871   8.395   1.208 -0.0543 -0.3042 -0.5945
  905MOL0     H22117   3.766   8.368   1.077  2.2482  1.4615 -0.4268
  905MOL0     H22118   3.780   8.172   1.309  0.7487  0.7635 -0.8662
  905MOL0     H22119   3.675   8.315   1.325 -0.9870  1.3906 -1.5002
  905MOL0     H22120   3.550   8.250   1.117 -2.3224 -0.7414  1.5073
  905MOL0     H22121   3.642   8.110   1.092 -1.4763 -0.8503 -0.6149
  905MOL0     H22122   3.465   8.026   1.210  2.9558 -2.9031 -1.5135
  905MOL0     H22123   3.605   8.008   1.303 -0.1749  1.4505  0.9357
  905MOL0     H22124   3.444   8.267   1.355 -2.4358 -1.2536 -2.4413
  905MOL0     H22125   3.532   8.181   1.478  1.8130  0.4725 -0.7585
  905MOL0     H22126   3.445   7.977   1.604 -0.5826  1.8785  1.3809
  905MOL0     H22127   3.125   7.764   1.574 -1.7586 -0.0699  1.3793
  905MOL0     H22128   3.270   7.796   1.685 -0.0401  0.8213 -0.2511
  905MOL0     H22129   3.128   7.951   1.800 -1.0180 -1.4070  2.3578
  905MOL0     H22130   3.069   7.787   1.800  0.2375  0.1169 -0.4765
  905MOL0     H22131   2.902   7.846   1.610  1.7359 -0.8201 -0.3494
  905MOL0     H22132   2.954   8.015   1.628  0.3405  0.3775 -0.3256
  905MOL0     H22133   2.760   8.003   1.769  0.1627  1.1700  1.9030
  905MOL0     H22134   2.891   7.981   1.887  2.1708  0.0450 -0.9365
  905MOL0     H22135   2.802   7.614   1.957 -0.9251  0.9379 -1.7110
  905MOL0     H22136   2.756   7.465   2.142  1.9314 -0.6170  0.6095
  905MOL0     H22137   2.677   7.534   2.289  1.8804 -0.3840 -1.5771
  905MOL0     H22138   2.586   7.445   2.178  0.3429  0.2956 -0.6335
  905MOL0     H22139   2.402   7.666   2.524 -0.5956 -0.7591  0.4891
  905MOL0     H22140   2.254   7.687   2.731  2.0583  1.6600  1.3924
  905MOL0     H22141   1.948   7.714   2.683  0.5152 -3.2358  1.4975
  905MOL0     H22142   2.018   7.705   2.849  0.9114  1.6840  1.1635
  905MOL0     H22143   1.764   7.736   2.844  1.3246 -0.6906 -0.5231
  905MOL0     H22144   1.848   7.856   2.934 -3.8253  1.9210 -1.1812
  905MOL0     H22145   1.757   7.891   2.638  1.2207  0.1775 -0.5711
  905MOL0     H22146   1.835   8.007   2.750  1.6999 -0.6974 -2.4885
  905MOL0     H22147   1.552   7.871   2.756 -0.7879  1.1494 -0.1461
  905MOL0     H22148   1.624   7.965   2.888  1.9014  2.5196  0.0913
  905MOL0     H22149   1.622   8.102   2.619  2.6622 -0.5279 -0.0056
  905MOL0     H22150   1.626   8.161   2.787  2.3624 -0.6506  1.0934
  905MOL0     H22151   1.390   8.059   2.820  3.4384  1.5211  1.6750
  905MOL0     H22152   1.404   8.210   2.727 -0.5571  0.5046 -1.1827
  905MOL0     H22153   1.259   8.005   2.632 -2.0005  1.1881  1.1866
  905MOL0     H22154   1.413   7.975   2.547 -1.8784  0.5188 -1.2881
  905MOL0     H22155   1.274   8.112   2.408  0.6949 -0.2412  0.2262
  905MOL0     H22156   1.391   8.225   2.462 -2.4611  3.3172  1.3040
  905MOL0     H22157   2.075   8.030   2.531 -3.9428 -3.4574 -1.2630
  905MOL0     H22158   2.196   8.015   2.360 -2.0174  1.3968  1.8966
  905MOL0     H22159   2.453   7.925   2.107 -1.2102 -1.7595  1.0623
  905MOL0     H22160   2.596   7.978   1.907  2.4825 -1.8046 -2.1329
  905MOL0     H22161   4.334   8.217   0.793 -0.2447 -0.0417  0.0382
  905MOL0     H22162   4.494   8.076   0.678  1.0581 -0.0659  0.3658
  905MOL0     H22163   4.745   7.508   0.752  1.0680 -0.8932 -0.6485
  905MOL0     H22164   4.944   7.460   0.621  2.0795  0.3711 -2.1546
  905MOL0     H22165   5.070   7.745   0.317 -0.9601 -0.6952  0.7093
  905MOL0     H22166   5.181   7.788   0.440  0.6325 -0.3224 -2.1807
  905MOL0     H22167   5.213   7.554   0.256 -1.9282 -0.6370  0.5966
  905MOL0     H22168   5.330   7.586   0.389 -0.5155 -0.4653  0.2280
  905MOL0     H22169   5.362   7.826   0.295 -4.1143  0.5682  0.5343
  905MOL0     H22170   5.251   7.782   0.162  2.1942  3.6745 -1.0272
  905MOL0     H22171   5.418   7.582   0.144  2.4377  0.4318  0.1889
  905MOL0     H22172   5.529   7.691   0.203  1.4620 -1.7488 -3.1108
  905MOL0     H22173   5.567   7.895  -0.127 -0.6307  0.9449 -0.4188
  905MOL0     H22174   4.876   7.806   0.384 -1.1269  0.2887 -0.3776
  905MOL0     H22175   4.684   7.866   0.503 -0.0117 -0.1156 -0.7023
  906MOL0     O22176   3.617  10.858  10.438 -0.7189 -0.2097  0.3464
  906MOL0     C22177   3.658  10.741  10.430 -0.0990  0.7763  0.1335
  906MOL0     O22178   3.584  10.629  10.406 -0.7011  0.7435  0.2674
  906MOL0     C22179   3.448  10.624  10.399 -0.2553 -0.7578 -0.7356
  906MOL0     C22180   3.382  10.516  10.462  0.2912  0.2326 -0.6560
  906MOL0     C22181   3.244  10.493  10.448  0.9141 -0.9865 -0.3533
  906MOL0     C22182   3.165  10.584  10.365 -0.1557  0.0183 -0.2600
  906MOL0     O22183   3.029  10.565  10.347 -0.2027 -0.0271  1.1250
  906MOL0     C22184   2.957  10.443  10.373 -0.7838  0.3552  0.2137
  906MOL0     C22185   2.824  10.448  10.305  0.4215 -0.7025  0.7770
  906MOL0     C22186   2.751  10.317  10.291  0.1430 -1.1019  0.7628
  906MOL0     C22187   2.717  10.249  10.418 -0.3401  0.2533  0.5853
  906MOL0     C22188   2.620  10.138  10.403  0.1473  0.2688  1.1696
  906MOL0     C22189   2.604  10.062  10.534  0.9374  0.3878 -0.3424
  906MOL0     C22190   2.509   9.948  10.537 -0.1834  0.0868 -0.2546
  906MOL0     C22191   2.524   9.879  10.672  0.1067  0.2762 -0.2026
  906MOL0     N22192   2.422   9.912  10.771  0.3391 -0.0512  0.8635
  906MOL0     C22193   2.296   9.858  10.755  0.4247 -0.7689 -0.6050
  906MOL0     C22194   2.202   9.947  10.805  0.5734  1.0673 -0.1036
  906MOL0     C22195   2.051   9.954  10.794 -0.0846  0.1907  0.0619
  906MOL0     C22196   2.011  10.022  10.665 -0.1006  0.6536  0.6521
  906MOL0     C22197   1.974   9.922  10.553 -0.0902  0.0968 -0.0968
  906MOL0     C22198   1.823   9.879  10.571  0.0521 -0.5027 -0.3597
  906MOL0     O22199   1.748   9.990  10.538  0.4795 -0.1812 -0.1056
  906MOL0     C22200   1.606   9.969  10.543 -0.2278 -0.8176  0.2480
  906MOL0     C22201   1.530  10.087  10.546 -0.6256 -0.1896  1.7378
  906MOL0     C22202   1.391  10.081  10.541 -0.1692  0.6731  0.2101
  906MOL0     C22203   1.312  10.208  10.537  1.0153 -0.5817  0.5570
  906MOL0     C22204   1.328   9.953  10.552  0.4220  0.2891  1.0197
  906MOL0     C22205   1.178   9.935  10.573  0.2779  0.3898 -0.2854
  906MOL0     O22206   1.116   9.816  10.553 -0.4842 -0.2323  0.1003
  906MOL0     C22207   0.990   9.777  10.598 -0.3215  0.7583  0.7629
  906MOL0     C22208   0.887   9.867  10.635  0.9244  0.4501 -0.1580
  906MOL0     C22209   0.758   9.811  10.655  0.4397 -0.5626 -0.3077
  906MOL0     C22210   0.733   9.668  10.635  0.0245 -0.5152 -0.2580
  906MOL0     O22211   0.614   9.598  10.659 -0.3235 -0.8190  0.3838
  906MOL0     C22212   0.493   9.679  10.640  0.5816 -0.8140  0.4490
  906MOL0     C22213   0.388   9.589  10.594  0.2681  0.0826 -0.1594
  906MOL0     C22214   0.422   9.551  10.455 -0.6112  0.0390  1.3763
  906MOL0     C22215   0.313   9.458  10.391  0.2836  0.2745 -0.5109
  906MOL0     C22216   0.375   9.355  10.301  0.5671 -0.0844  0.8886
  906MOL0     C22217   0.463   9.258  10.371 -0.5730 -0.5894 -0.3447
  906MOL0     C22218   0.500   9.149  10.265  0.2008  0.0877 -0.7363
  906MOL0     C22219   0.576   9.025  10.331 -0.3521 -0.4457 -0.1697
  906MOL0    Cl22220   0.501   8.966  10.482 -0.0328  0.1237 -0.1838
  906MOL0     C22221   0.840   9.591  10.619  0.2049  0.8657  0.1093
  906MOL0     C22222   0.962   9.641  10.598 -0.2195 -0.6509  0.7143
  906MOL0     O22223   1.119  10.033  10.624 -0.0626 -0.1419  0.7105
  906MOL0     C22224   1.405   9.834  10.548  0.1143 -0.5284  0.4314
  906MOL0     C22225   1.542   9.840  10.552 -0.3834  0.2300  0.2511
  906MOL0     N22226   2.282  10.050  10.857  0.9251 -0.3636 -0.0589
  906MOL0     N22227   2.412  10.025  10.840 -0.1036  0.3167 -0.2261
  906MOL0     C22228   3.233  10.699  10.318  0.9042 -0.3391  0.1211
  906MOL0     C22229   3.373  10.714  10.333  0.2229  0.2526  0.3275
  906MOL0     C22230   3.801  10.721  10.474 -0.3373  0.9550 -0.5301
  906MOL0     C22231   3.865  10.789  10.576 -0.4128 -0.5016  0.5719
  906MOL0     C22232   4.001  10.763  10.599 -0.3953  0.6406  0.1156
  906MOL0     C22233   4.069  10.660  10.526  0.4150  0.4925 -0.1116
  906MOL0     O22234   4.196  10.615  10.544  0.0424 -0.1711 -0.4750
  906MOL0     C22235   4.298  10.704  10.591 -0.5349 -0.1833 -0.3333
  906MOL0     C22236   4.418  10.615  10.616 -0.0891  0.1709 -0.2253
  906MOL0     C22237   4.504  10.680  10.725 -0.2183 -0.6254  0.5532
  906MOL0     C22238   4.583  10.792  10.640 -0.1849  0.2983  0.2118
  906MOL0     C22239   4.665  10.871  10.727  0.1082  0.4838 -0.5595
  906MOL0     C22240   4.729  10.931  10.801 -0.1615  0.3500 -0.7905
  906MOL0     C22241   3.997  10.587  10.438  0.2312  0.3109  0.5700
  906MOL0     C22242   3.861  10.617  10.409 -0.5385  0.7396  0.7265
  906MOL0     H22243   3.445  10.450  10.520 -1.0920 -1.0578 -0.5560
  906MOL0     H22244   3.189  10.412  10.495 -1.0914  0.4285 -0.1362
  906MOL0     H22245   3.009  10.367  10.314  0.1571  1.1027  0.0594
  906MOL0     H22246   2.942  10.416  10.478 -1.8995  0.0622 -0.0137
  906MOL0     H22247   2.761  10.525  10.351  3.2341  1.6946  0.9310
  906MOL0     H22248   2.844  10.491  10.206 -2.6349  0.5313  0.5727
  906MOL0     H22249   2.666  10.326  10.223  0.3770 -1.7527  0.3660
  906MOL0     H22250   2.818  10.249  10.237  2.2015  2.1668 -1.1609
  906MOL0     H22251   2.799  10.202  10.472  0.8748  0.2073 -1.2074
  906MOL0     H22252   2.672  10.327  10.480 -0.0493 -0.7031  2.0278
  906MOL0     H22253   2.525  10.176  10.364  0.8830  0.7838 -0.2298
  906MOL0     H22254   2.659  10.076  10.321  1.2301 -0.4263  2.1787
  906MOL0     H22255   2.699  10.040  10.585  0.9279  1.5056  0.1856
  906MOL0     H22256   2.551  10.133  10.597 -1.5328 -2.9247  1.6671
  906MOL0     H22257   2.405   9.974  10.515 -0.6879 -1.3243  0.3469
  906MOL0     H22258   2.536   9.864  10.473  1.1311  1.5475 -1.7037
  906MOL0     H22259   2.615   9.900  10.729 -2.4802  4.4197  3.0084
  906MOL0     H22260   2.523   9.770  10.658 -0.6428  0.4590 -1.7511
  906MOL0     H22261   2.271   9.767  10.700 -0.9998 -1.3949  0.9738
  906MOL0     H22262   1.999   9.858  10.803 -1.1355  0.7065 -0.3336
  906MOL0     H22263   2.022  10.014  10.881  0.2586 -0.0080  0.3118
  906MOL0     H22264   2.100  10.077  10.636  1.0482 -0.4717  1.9119
  906MOL0     H22265   1.925  10.090  10.666 -0.2027  0.6692 -2.0153
  906MOL0     H22266   2.038   9.833  10.566 -0.3098 -0.2784 -1.3842
  906MOL0     H22267   1.994   9.950  10.449  1.7736 -2.7396 -0.6538
  906MOL0     H22268   1.804   9.854  10.676 -1.2687  0.6797 -0.2934
  906MOL0     H22269   1.804   9.795  10.503  0.1182 -0.8814  0.0831
  906MOL0     H22270   1.576  10.183  10.565 -2.3004  0.3868  3.2153
  906MOL0     H22271   1.222  10.196  10.476  0.6267  3.1618  0.1621
  906MOL0     H22272   1.304  10.244  10.640  0.1809  0.3641  0.1732
  906MOL0     H22273   1.362  10.288  10.482 -0.0723 -0.2391  0.0393
  906MOL0     H22274   0.891   9.974  10.650 -0.4330  0.1043  4.3552
  906MOL0     H22275   0.674   9.879  10.669  0.0260 -0.9310 -0.9387
  906MOL0     H22276   0.457   9.732  10.729 -1.1304  0.1088 -0.7381
  906MOL0     H22277   0.514   9.759  10.569  4.4012 -0.7524  1.3980
  906MOL0     H22278   0.373   9.496  10.651  0.3905 -0.8238 -1.5503
  906MOL0     H22279   0.291   9.639  10.583  1.7934  2.7730 -2.5362
  906MOL0     H22280   0.515   9.493  10.465 -0.6135 -0.0551  0.8964
  906MOL0     H22281   0.450   9.631  10.386  1.3993 -1.6683  0.0857
  906MOL0     H22282   0.264   9.405  10.474  1.6872  1.1719  0.9307
  906MOL0     H22283   0.234   9.519  10.344 -1.2508 -0.2084  1.3187
  906MOL0     H22284   0.424   9.403  10.217  2.5521  0.3240  2.2053
  906MOL0     H22285   0.285   9.302  10.268 -0.5649  0.9363  2.2001
  906MOL0     H22286   0.559   9.298  10.405  0.3462 -2.8471 -0.1076
  906MOL0     H22287   0.423   9.209  10.461  0.8852  0.6709  1.0537
  906MOL0     H22288   0.567   9.191  10.190  1.9251 -1.5546 -0.2112
  906MOL0     H22289   0.415   9.100  10.217  0.7831  0.3567 -2.0675
  906MOL0     H22290   0.669   9.071  10.366 -0.7981  1.1820 -1.0201
  906MOL0     H22291   0.600   8.951  10.254  2.5819  0.5086 -0.3150
  906MOL0     H22292   0.831   9.483  10.617  1.8141  0.7230 -1.3901
  906MOL0     H22293   1.026   9.561  10.561 -0.9486 -0.4053 -1.1867
  906MOL0     H22294   1.352   9.740  10.563 -3.0721  1.1260  0.4169
  906MOL0     H22295   1.589   9.741  10.555  0.9702  0.7292 -2.0382
  906MOL0     H22296   3.176  10.774  10.264 -0.1334 -1.1154  0.1086
  906MOL0     H22297   3.428  10.801  10.299  2.6507 -0.9017  1.0391
  906MOL0     H22298   3.819  10.873  10.627  1.0266 -0.4558  1.8819
  906MOL0     H22299   4.062  10.830  10.658  4.3091 -2.2962 -0.8523
  906MOL0     H22300   4.313  10.787  10.521 -2.1987  1.5560  1.2511
  906MOL0     H22301   4.271  10.761  10.681  1.9102  0.3718  0.1249
  906MOL0     H22302   4.470  10.603  10.521  1.0267  3.6740 -0.1945
  906MOL0     H22303   4.385  10.518  10.655 -1.3491  0.7481  0.2063
  906MOL0     H22304   4.580  10.616  10.771  2.0947  0.2494 -1.7911
  906MOL0     H22305   4.440  10.729  10.799 -0.3451  0.2004 -0.0889
  906MOL0     H22306   4.509  10.861  10.597  0.4491  1.1259  0.4061
  906MOL0     H22307   4.643  10.752  10.557  2.6264  2.7428  0.8814
  906MOL0     H22308   4.778  11.004  10.864 -4.5945  0.9724  2.3915
  906MOL0     H22309   4.039  10.497  10.394 -1.4807 -0.4238  0.3658
  906MOL0     H22310   3.815  10.553  10.335  2.6336 -2.3947  1.2101
  907MOL0     O22311   1.957   9.073   4.698  0.1014 -0.2042  0.7900
  907MOL0     C22312   2.001   8.997   4.783 -0.0483  0.3629  0.3240
  907MOL0     O22313   1.927   8.943   4.879 -0.0972  0.1213  0.4184
  907MOL0     C22314   1.792   8.963   4.876  0.9082  0.3559 -0.7484
  907MOL0     C22315   1.748   9.076   4.944  0.6661 -0.8861  0.9231
  907MOL0     C22316   1.611   9.099   4.944  0.3332  0.4394  0.3798
  907MOL0     C22317   1.509   9.029   4.872  0.9681  0.0901  0.2399
  907MOL0     O22318   1.375   9.061   4.894 -0.9049 -0.5949  0.6239
  907MOL0     C22319   1.286   8.953   4.907 -0.8358  1.0593 -0.1209
  907MOL0     C22320   1.149   9.016   4.890  0.1151  0.6856 -0.2326
  907MOL0     C22321   1.097   8.986   4.742 -0.3906 -0.7199 -0.0860
  907MOL0     C22322   0.972   9.072   4.716  0.9506  0.6375 -0.2786
  907MOL0     C22323   0.994   9.217   4.675 -0.6528  0.3170 -0.6191
  907MOL0     C22324   0.859   9.276   4.644 -0.3120  1.0465 -0.5660
  907MOL0     C22325   0.895   9.409   4.576  0.3035  0.4365 -0.3407
  907MOL0     C22326   0.955   9.519   4.666 -0.6881  0.7810  0.0651
  907MOL0     N22327   0.869   9.539   4.786  0.5233  0.3155 -0.4986
  907MOL0     C22328   0.745   9.599   4.802  0.1705  0.3124  0.7269
  907MOL0     C22329   0.720   9.593   4.931 -0.4013 -0.7259  1.0636
  907MOL0     C22330   0.611   9.673   5.002  0.4337 -0.3824 -0.0388
  907MOL0     C22331   0.483   9.601   5.059  0.5213 -0.1047 -0.5322
  907MOL0     C22332   0.393   9.535   4.954 -0.0689 -0.8391  0.0697
  907MOL0     C22333   0.287   9.456   5.034  0.1210 -1.0000 -0.6085
  907MOL0     O22334   0.206   9.542   5.112  0.2091  0.7257 -0.5532
  907MOL0     C22335   0.074   9.568   5.072 -0.9478  0.6443  0.5118
  907MOL0     C22336  -0.019   9.589   5.172 -0.0197 -1.0592  0.0117
  907MOL0     C22337  -0.159   9.609   5.140 -0.1792 -0.0349 -0.0031
  907MOL0     C22338  -0.247   9.650   5.253  1.4318  0.4619  0.7788
  907MOL0     C22339  -0.200   9.611   5.003  0.1993  0.6021  0.3741
  907MOL0     C22340  -0.332   9.633   4.947  0.1186 -0.3172 -0.8750
  907MOL0     O22341  -0.348   9.644   4.811 -0.2369 -1.0113 -0.2553
  907MOL0     C22342  -0.480   9.659   4.764  1.2053  1.0618  0.1503
  907MOL0     C22343  -0.520   9.544   4.684 -0.3726 -0.1473  0.1596
  907MOL0     C22344  -0.641   9.533   4.613 -0.3212  0.7891 -0.6565
  907MOL0     C22345  -0.730   9.632   4.641 -0.6415 -0.5193  0.0425
  907MOL0     O22346  -0.854   9.624   4.584 -0.3309 -0.2695 -0.5071
  907MOL0     C22347  -0.978   9.664   4.657  0.5981 -0.3571  0.0933
  907MOL0     C22348  -1.101   9.635   4.568  0.6481  0.1485 -0.0289
  907MOL0     C22349  -1.097   9.700   4.427 -0.2429  0.0490  0.7106
  907MOL0     C22350  -1.226   9.638   4.355 -0.7097  0.0599 -0.1341
  907MOL0     C22351  -1.252   9.725   4.226 -0.0215  0.7422  0.3739
  907MOL0     C22352  -1.333   9.639   4.125 -0.3809 -0.3970  0.0062
  907MOL0     C22353  -1.487   9.649   4.153 -0.5808  0.1890 -0.8331
  907MOL0     C22354  -1.584   9.552   4.084 -0.4773 -0.6719  0.1503
  907MOL0    Cl22355  -1.734   9.571   4.161  0.4900 -0.2474  0.2312
  907MOL0     C22356  -0.691   9.743   4.714 -0.5418 -0.5511  0.0095
  907MOL0     C22357  -0.568   9.759   4.780 -0.2180 -0.0067 -1.0777
  907MOL0     O22358  -0.426   9.643   5.031  0.0752  0.8414  0.4331
  907MOL0     C22359  -0.104   9.566   4.911 -1.0692 -0.4250  0.5364
  907MOL0     C22360   0.028   9.550   4.943  0.6669 -0.5008 -0.1215
  907MOL0     N22361   0.831   9.545   4.993  0.9350  0.5032  0.0497
  907MOL0     N22362   0.913   9.498   4.904 -0.7371 -0.1100  0.7325
  907MOL0     C22363   1.557   8.917   4.797  0.5057  0.5977 -1.6763
  907MOL0     C22364   1.700   8.894   4.794  0.4655 -0.0343  0.1925
  907MOL0     C22365   2.149   8.985   4.800 -0.0548  0.1094  0.0515
  907MOL0     C22366   2.239   9.082   4.749  0.1980  0.8221 -0.1854
  907MOL0     C22367   2.378   9.066   4.770  0.8292  0.4164 -0.1222
  907MOL0     C22368   2.432   8.955   4.833  0.1986 -0.5069 -0.8150
  907MOL0     O22369   2.561   8.936   4.865 -0.0377  0.5758  0.8428
  907MOL0     C22370   2.664   9.018   4.820 -0.5449  0.6208 -0.0580
  907MOL0     C22371   2.796   8.946   4.828  0.0388 -0.7872  0.2945
  907MOL0     C22372   2.900   9.057   4.799  0.0394 -0.0435 -0.3769
  907MOL0     C22373   3.037   8.996   4.820 -0.3382 -0.6428  0.6839
  907MOL0     C22374   3.142   9.077   4.761  0.1290 -0.5047 -0.4257
  907MOL0     C22375   3.244   9.138   4.729  0.3924  0.5103 -0.1811
  907MOL0     C22376   2.342   8.851   4.873 -0.0914 -0.6568 -0.4734
  907MOL0     C22377   2.204   8.871   4.856 -0.3458  0.0376  0.1758
  907MOL0     H22378   1.803   9.148   5.005 -0.6008 -0.4811  1.6162
  907MOL0     H22379   1.571   9.167   5.018 -3.3580  2.1146 -2.7903
  907MOL0     H22380   1.294   8.867   4.840  0.9790  1.0142  0.1017
  907MOL0     H22381   1.302   8.924   5.011 -0.9876 -1.0735 -0.6423
  907MOL0     H22382   1.076   8.985   4.965  2.8060  0.3023  2.3952
  907MOL0     H22383   1.148   9.122   4.915 -3.7951  1.1427 -1.6860
  907MOL0     H22384   1.171   9.006   4.664 -0.0663  0.6097  0.5262
  907MOL0     H22385   1.073   8.880   4.744 -0.3508 -0.7390 -0.4541
  907MOL0     H22386   0.915   9.039   4.629 -1.0408 -0.8070  1.4751
  907MOL0     H22387   0.905   9.055   4.800 -2.4112  2.1475 -2.4052
  907MOL0     H22388   1.046   9.269   4.755 -1.2846 -0.9243  0.6481
  907MOL0     H22389   1.061   9.224   4.589 -0.6203 -1.5618 -0.7892
  907MOL0     H22390   0.812   9.208   4.572  1.1045 -0.0370 -0.5269
  907MOL0     H22391   0.798   9.295   4.733 -0.8359 -0.0512 -0.6761
  907MOL0     H22392   0.964   9.385   4.496  3.6263  1.4851  2.0045
  907MOL0     H22393   0.805   9.452   4.531  2.0519  2.9568 -1.6692
  907MOL0     H22394   0.964   9.611   4.607  1.9261  0.4784 -0.1349
  907MOL0     H22395   1.051   9.484   4.705 -1.9400 -0.3654  2.2973
  907MOL0     H22396   0.682   9.648   4.728 -2.6059 -1.2575  1.8830
  907MOL0     H22397   0.656   9.733   5.081  1.0260  1.6035 -1.8047
  907MOL0     H22398   0.584   9.753   4.933 -1.0147  0.4153  1.3784
  907MOL0     H22399   0.418   9.680   5.099  0.3341  0.7760 -2.4503
  907MOL0     H22400   0.505   9.525   5.134 -3.1574  0.6339  1.5965
  907MOL0     H22401   0.443   9.463   4.889  0.0197 -0.7510  0.0405
  907MOL0     H22402   0.351   9.616   4.893  2.2898  1.1067  0.8496
  907MOL0     H22403   0.345   9.397   5.106  1.0622  0.3009 -0.2689
  907MOL0     H22404   0.238   9.380   4.972 -1.1175  0.3894 -1.3799
  907MOL0     H22405   0.013   9.589   5.276  1.6069  2.0278 -0.3663
  907MOL0     H22406  -0.203   9.626   5.350 -1.1580 -2.7383  1.3517
  907MOL0     H22407  -0.273   9.755   5.236  0.3162 -0.0195 -0.6796
  907MOL0     H22408  -0.332   9.582   5.245  0.5760  1.5191  0.5922
  907MOL0     H22409  -0.446   9.466   4.671 -0.6589 -0.3741 -0.1050
  907MOL0     H22410  -0.653   9.452   4.542 -1.5753  1.4652 -1.2509
  907MOL0     H22411  -0.977   9.605   4.749 -0.0191  1.3241  1.2069
  907MOL0     H22412  -0.982   9.772   4.672  0.9227 -0.5070  1.3937
  907MOL0     H22413  -1.101   9.528   4.546 -0.8788  0.1177 -0.0335
  907MOL0     H22414  -1.188   9.673   4.623 -0.8940  1.6962 -3.2577
  907MOL0     H22415  -1.007   9.673   4.371 -0.9761 -0.5171 -0.2249
  907MOL0     H22416  -1.091   9.808   4.443 -0.3435  0.0132  0.9974
  907MOL0     H22417  -1.202   9.533   4.335 -0.2636 -0.2754  1.9124
  907MOL0     H22418  -1.305   9.630   4.430 -0.7469 -2.3321 -0.3611
  907MOL0     H22419  -1.156   9.757   4.186 -0.3964  2.1577  0.5694
  907MOL0     H22420  -1.314   9.808   4.260  1.1183  1.0257  1.8669
  907MOL0     H22421  -1.321   9.668   4.020  1.2568 -0.3441  0.1955
  907MOL0     H22422  -1.296   9.537   4.131  2.8846  0.7363  0.7404
  907MOL0     H22423  -1.509   9.752   4.126 -1.4548  0.1798 -0.2169
  907MOL0     H22424  -1.515   9.644   4.259 -1.3622 -1.8898 -1.0742
  907MOL0     H22425  -1.532   9.456   4.085  0.9268  0.0498 -0.5682
  907MOL0     H22426  -1.591   9.576   3.977 -0.2487 -2.3987 -0.2708
  907MOL0     H22427  -0.760   9.826   4.719 -0.3121 -0.2529 -1.4823
  907MOL0     H22428  -0.549   9.850   4.836 -1.6150  0.5841 -1.5197
  907MOL0     H22429  -0.131   9.548   4.807 -0.0415  1.2915 -0.0939
  907MOL0     H22430   0.100   9.530   4.865 -0.2037 -2.0880 -0.5743
  907MOL0     H22431   1.487   8.850   4.748 -1.1414  0.3067  0.8704
  907MOL0     H22432   1.731   8.816   4.725 -2.3312 -0.7976 -0.3260
  907MOL0     H22433   2.195   9.167   4.697  0.2216 -0.4102 -2.3516
  907MOL0     H22434   2.432   9.147   4.722 -0.5910 -1.1570 -5.0729
  907MOL0     H22435   2.640   9.060   4.722 -0.3210 -0.5392 -0.6272
  907MOL0     H22436   2.667   9.104   4.887  2.9369  1.7151 -1.4118
  907MOL0     H22437   2.797   8.866   4.753 -2.3538  0.7793 -1.5394
  907MOL0     H22438   2.808   8.899   4.926 -1.7973 -0.0623  0.9170
  907MOL0     H22439   2.888   9.146   4.861  1.7259 -1.3501  1.9632
  907MOL0     H22440   2.896   9.101   4.698  1.6500  1.7593  0.2828
  907MOL0     H22441   3.039   8.892   4.788  0.4882 -0.6288  0.6777
  907MOL0     H22442   3.050   8.975   4.927 -0.5447 -1.8103  0.4963
  907MOL0     H22443   3.332   9.196   4.708 -0.9378  2.0808 -1.8015
  907MOL0     H22444   2.382   8.761   4.919  0.6568 -0.2107 -0.2217
  907MOL0     H22445   2.134   8.791   4.880 -1.1536  0.0044 -2.0766
  908MOL0     O22446   6.572   2.859   1.708 -0.0579  0.0395  0.2863
  908MOL0     C22447   6.611   2.771   1.634 -0.1445 -0.6498 -0.2002
  908MOL0     O22448   6.549   2.731   1.515  0.0904  0.4495  0.3111
  908MOL0     C22449   6.428   2.793   1.487 -0.2786 -0.4065  0.3532
  908MOL0     C22450   6.416   2.865   1.364 -0.6697 -0.4360 -0.1002
  908MOL0     C22451   6.292   2.904   1.321 -0.1860 -0.3497 -0.2384
  908MOL0     C22452   6.174   2.869   1.388 -0.0883 -0.1504 -0.8393
  908MOL0     O22453   6.052   2.892   1.323 -0.0270  0.3229  0.0611
  908MOL0     C22454   5.940   2.807   1.370 -0.3590  0.1741 -0.7321
  908MOL0     C22455   5.819   2.827   1.276 -0.3847  0.1888  0.2372
  908MOL0     C22456   5.854   2.809   1.125 -0.1161 -0.8034 -0.2012
  908MOL0     C22457   5.749   2.871   1.030  0.3218 -0.4826  0.4308
  908MOL0     C22458   5.625   2.778   1.026 -0.5528  0.0160 -0.3608
  908MOL0     C22459   5.518   2.856   0.949 -0.1993  0.1615 -0.0959
  908MOL0     C22460   5.379   2.792   0.926  0.5102  0.1998  1.1439
  908MOL0     C22461   5.306   2.756   1.049  0.4007 -0.6724 -0.6201
  908MOL0     N22462   5.166   2.723   1.016 -0.2396  0.4230 -0.1630
  908MOL0     C22463   5.057   2.804   1.048  0.8169  0.6492 -0.4280
  908MOL0     C22464   4.943   2.720   1.044 -0.4098  0.3660  0.2692
  908MOL0     C22465   4.804   2.756   1.089  0.4152  0.6709 -0.3914
  908MOL0     C22466   4.792   2.779   1.247  0.0909  0.6100 -0.8827
  908MOL0     C22467   4.648   2.799   1.283  0.1862 -0.6639 -0.5026
  908MOL0     C22468   4.581   2.679   1.339 -0.5049  0.7165  0.1458
  908MOL0     O22469   4.440   2.698   1.360  0.8747 -0.9297 -0.8249
  908MOL0     C22470   4.350   2.606   1.326  0.3395  0.3959  0.2169
  908MOL0     C22471   4.367   2.468   1.355  0.6630  0.1721  0.3588
  908MOL0     C22472   4.268   2.372   1.321 -0.3763 -0.2358 -0.4957
  908MOL0     C22473   4.303   2.237   1.357 -0.3014  0.0461  0.5557
  908MOL0     C22474   4.153   2.412   1.250 -0.0285 -0.0693  0.1474
  908MOL0     C22475   4.044   2.322   1.213 -0.1571  0.5623  0.0582
  908MOL0     O22476   3.933   2.375   1.141 -0.9260  0.4322 -0.6545
  908MOL0     C22477   3.806   2.325   1.156 -0.6064  0.0539  0.4231
  908MOL0     C22478   3.714   2.351   1.055 -0.2456  0.7626  0.4642
  908MOL0     C22479   3.578   2.302   1.056 -0.1466  0.4436  0.3428
  908MOL0     C22480   3.533   2.246   1.167  0.1112 -0.1733 -0.1696
  908MOL0     O22481   3.398   2.220   1.183 -0.4069 -0.4942  0.5743
  908MOL0     C22482   3.336   2.169   1.302  0.8197 -0.0085  0.6235
  908MOL0     C22483   3.182   2.184   1.280 -0.0074 -0.1377  0.3503
  908MOL0     C22484   3.126   2.319   1.309  0.3325 -0.3250 -0.1696
  908MOL0     C22485   2.975   2.329   1.292 -0.4284  0.7208 -0.3624
  908MOL0     C22486   2.920   2.460   1.342 -0.4139  0.8111  0.9805
  908MOL0     C22487   2.774   2.446   1.368 -0.1940 -1.0523 -0.5167
  908MOL0     C22488   2.722   2.572   1.437 -0.0879 -0.4897 -0.1968
  908MOL0     C22489   2.589   2.561   1.505  0.4047 -0.1528  0.5658
  908MOL0    Cl22490   2.472   2.478   1.389 -0.3245 -0.2485  0.2961
  908MOL0     C22491   3.624   2.226   1.280  0.0251 -0.8117 -0.2673
  908MOL0     C22492   3.754   2.271   1.276  0.6572  0.0337  0.5637
  908MOL0     O22493   4.044   2.210   1.267  0.2121 -0.2385 -0.8128
  908MOL0     C22494   4.145   2.549   1.212  0.9168  0.4803  0.3215
  908MOL0     C22495   4.241   2.642   1.244  0.7382  0.7043  0.4817
  908MOL0     N22496   4.986   2.595   1.006 -0.2152 -0.5438 -0.1945
  908MOL0     N22497   5.118   2.598   0.998  0.0436  0.1994  1.0666
  908MOL0     C22498   6.194   2.815   1.514  0.2366  0.8438  0.0412
  908MOL0     C22499   6.312   2.769   1.563 -0.6179 -1.1833 -0.3266
  908MOL0     C22500   6.733   2.697   1.675 -0.7926 -1.0218 -0.9991
  908MOL0     C22501   6.771   2.576   1.634  0.1499  0.1001 -0.6050
  908MOL0     C22502   6.892   2.515   1.671 -0.1536  0.2374  0.6277
  908MOL0     C22503   6.988   2.578   1.749  0.1368  0.5787 -0.6904
  908MOL0     O22504   7.116   2.537   1.787  0.2356  0.3894  0.0067
  908MOL0     C22505   7.194   2.452   1.695  0.5011  0.4669  0.4207
  908MOL0     C22506   7.271   2.523   1.583  0.1309  0.4381  0.3115
  908MOL0     C22507   7.403   2.570   1.640  0.5237  0.4820  0.0864
  908MOL0     C22508   7.517   2.579   1.549  0.8493 -0.0412 -0.5528
  908MOL0     C22509   7.493   2.685   1.445 -0.2625  0.5920 -0.2988
  908MOL0     C22510   7.470   2.763   1.354 -0.4781  0.1375 -0.4814
  908MOL0     C22511   6.951   2.704   1.800  0.3882  0.4366  0.2571
  908MOL0     C22512   6.824   2.765   1.761  0.3709  0.4644 -1.0128
  908MOL0     H22513   6.501   2.889   1.303  0.6398  0.1807  1.8588
  908MOL0     H22514   6.294   2.948   1.222  3.1134 -0.9521 -0.5651
  908MOL0     H22515   5.961   2.699   1.369 -1.4143 -0.1060  1.7367
  908MOL0     H22516   5.906   2.838   1.468 -0.1460 -0.7486 -0.3526
  908MOL0     H22517   5.744   2.752   1.306  0.3179 -0.5674  0.1532
  908MOL0     H22518   5.770   2.922   1.297 -0.6883  0.1998 -0.4853
  908MOL0     H22519   5.953   2.841   1.091 -0.2883 -0.2293 -0.1660
  908MOL0     H22520   5.864   2.700   1.121  2.3273 -0.6381 -0.5084
  908MOL0     H22521   5.740   2.979   1.046  0.9168 -0.1036 -1.5207
  908MOL0     H22522   5.790   2.871   0.929 -0.6106 -1.6156  0.0272
  908MOL0     H22523   5.640   2.683   0.973  0.7815 -2.3206  3.7608
  908MOL0     H22524   5.584   2.759   1.125 -2.0764  1.1797 -0.7423
  908MOL0     H22525   5.497   2.953   0.994  0.4630  0.0901  0.3918
  908MOL0     H22526   5.567   2.865   0.852  2.7431  1.0280  1.3379
  908MOL0     H22527   5.314   2.869   0.883  0.7371  0.1552  0.7182
  908MOL0     H22528   5.396   2.708   0.858 -2.5944  0.9702 -0.8041
  908MOL0     H22529   5.311   2.836   1.124  2.8008 -1.7795  0.4917
  908MOL0     H22530   5.358   2.671   1.093  0.9503 -0.1948 -0.3391
  908MOL0     H22531   5.052   2.906   1.084 -1.2182 -0.3323  2.4645
  908MOL0     H22532   4.767   2.849   1.046  0.3573  0.9666  0.2806
  908MOL0     H22533   4.734   2.677   1.060  0.3935 -0.6460  2.8328
  908MOL0     H22534   4.848   2.870   1.267  1.1092 -0.2429  0.2769
  908MOL0     H22535   4.834   2.700   1.310 -0.9194  0.2876 -0.5927
  908MOL0     H22536   4.588   2.834   1.199  0.4158  1.3856  0.1294
  908MOL0     H22537   4.642   2.879   1.358 -0.6849  0.5877 -1.8408
  908MOL0     H22538   4.637   2.644   1.426 -2.9482  0.7008  1.7958
  908MOL0     H22539   4.586   2.602   1.261 -0.0036  2.0306 -1.1826
  908MOL0     H22540   4.464   2.437   1.392  1.1788  4.2572  3.1235
  908MOL0     H22541   4.248   2.191   1.440 -1.9577 -0.4831 -0.7766
  908MOL0     H22542   4.276   2.172   1.273 -2.1451  1.2796  0.1479
  908MOL0     H22543   4.408   2.230   1.389 -0.4447  2.2729  1.6404
  908MOL0     H22544   3.753   2.412   0.974  1.5482  1.0764  1.5053
  908MOL0     H22545   3.507   2.303   0.974  1.0663 -2.4485 -0.8824
  908MOL0     H22546   3.378   2.070   1.318  0.5826  0.1335  2.3379
  908MOL0     H22547   3.379   2.235   1.378  1.7728  2.0403 -1.5756
  908MOL0     H22548   3.157   2.147   1.180  0.2051 -2.0462  0.9608
  908MOL0     H22549   3.122   2.116   1.342 -0.8279  1.6838  1.6721
  908MOL0     H22550   3.167   2.396   1.243  2.5706 -2.0215 -0.8589
  908MOL0     H22551   3.146   2.339   1.415  0.9220 -1.1387 -0.1230
  908MOL0     H22552   2.955   2.320   1.185  0.9840  1.5898 -0.7273
  908MOL0     H22553   2.926   2.253   1.354 -3.9056  3.4666  0.5536
  908MOL0     H22554   2.936   2.532   1.261  1.1941  0.4306  0.9185
  908MOL0     H22555   2.977   2.492   1.430  2.1881 -0.7179 -0.0110
  908MOL0     H22556   2.719   2.433   1.275 -2.3826  1.2076  0.3599
  908MOL0     H22557   2.745   2.359   1.428  0.2183 -1.1066 -0.3919
  908MOL0     H22558   2.702   2.653   1.365  0.1657  1.3130  1.6604
  908MOL0     H22559   2.795   2.609   1.510 -2.1596  2.0448  0.7572
  908MOL0     H22560   2.548   2.653   1.548 -0.4795  0.8858 -2.2341
  908MOL0     H22561   2.595   2.489   1.586  1.6280 -1.7835 -0.9110
  908MOL0     H22562   3.592   2.181   1.373 -0.3699  1.8773  1.0169
  908MOL0     H22563   3.815   2.250   1.363  0.3819 -0.8408  0.5647
  908MOL0     H22564   4.058   2.577   1.153 -1.7422 -2.4889  2.4453
  908MOL0     H22565   4.231   2.747   1.218  1.2621  1.1633  2.0024
  908MOL0     H22566   6.102   2.805   1.571 -1.7457 -0.1788 -3.0386
  908MOL0     H22567   6.327   2.731   1.663  2.0036 -1.9155 -0.9158
  908MOL0     H22568   6.706   2.521   1.566 -1.6320  0.0799  1.0539
  908MOL0     H22569   6.911   2.424   1.615  1.1132  0.1497  1.1651
  908MOL0     H22570   7.271   2.394   1.748  1.1100 -1.2588 -2.1739
  908MOL0     H22571   7.125   2.378   1.653  2.1361 -1.2202  0.5755
  908MOL0     H22572   7.218   2.612   1.547 -0.6556  1.0672  2.8319
  908MOL0     H22573   7.297   2.452   1.504  0.3173 -0.8973  1.5170
  908MOL0     H22574   7.428   2.515   1.731 -0.5925  0.2365  0.2567
  908MOL0     H22575   7.378   2.670   1.679  0.4668  0.4046  0.2490
  908MOL0     H22576   7.529   2.484   1.495  2.3391 -0.7556  0.9386
  908MOL0     H22577   7.605   2.596   1.611 -0.1704 -0.3683  1.0608
  908MOL0     H22578   7.452   2.835   1.277  1.4158  2.1775  0.8293
  908MOL0     H22579   7.019   2.761   1.863  1.1329 -0.9174  0.7015
  908MOL0     H22580   6.808   2.870   1.785  2.0079  1.2164 -2.8968
  909MOL0     O22581   7.955   5.741   5.547 -0.2389  0.0528  0.2707
  909MOL0     C22582   8.009   5.848   5.520 -0.1255 -0.2706  0.0049
  909MOL0     O22583   7.943   5.963   5.497 -0.0984 -0.2681  0.0499
  909MOL0     C22584   7.813   5.939   5.468 -0.0931  0.3147 -0.1631
  909MOL0     C22585   7.772   5.887   5.340 -0.5227 -0.2765  0.4614
  909MOL0     C22586   7.632   5.868   5.317 -0.3348  0.3769 -0.1102
  909MOL0     C22587   7.546   5.883   5.420  1.0472  0.6294  0.4105
  909MOL0     O22588   7.415   5.855   5.386  0.6691  0.0926 -0.2738
  909MOL0     C22589   7.309   5.932   5.436 -0.4463  0.0793  0.1549
  909MOL0     C22590   7.180   5.886   5.370  0.3313  0.7042  0.1591
  909MOL0     C22591   7.070   5.985   5.391  0.5439 -0.2629  0.3373
  909MOL0     C22592   6.934   5.947   5.327 -0.4457  0.3160  0.5876
  909MOL0     C22593   6.847   6.072   5.327 -0.0970 -0.6645 -0.0447
  909MOL0     C22594   6.708   6.046   5.261 -0.1164  0.1627 -0.4018
  909MOL0     C22595   6.594   6.012   5.362  0.5601  0.6108 -0.5176
  909MOL0     C22596   6.466   5.956   5.301  1.0722 -0.9506  0.0653
  909MOL0     N22597   6.381   6.067   5.257  1.0775  0.9440 -0.5844
  909MOL0     C22598   6.394   6.139   5.141  0.2840 -0.3832  0.6504
  909MOL0     C22599   6.277   6.221   5.137  0.0854  0.6143  0.4144
  909MOL0     C22600   6.232   6.323   5.037  0.1085 -0.2581 -0.0931
  909MOL0     C22601   6.237   6.270   4.897 -0.3393 -0.1343  0.4106
  909MOL0     C22602   6.179   6.365   4.791  0.0618  0.9163 -0.2066
  909MOL0     C22603   6.196   6.513   4.813 -0.3062  0.6968 -1.0180
  909MOL0     O22604   6.336   6.559   4.822 -0.0235  0.4576  0.3677
  909MOL0     C22605   6.372   6.683   4.788 -0.0279  0.1638  0.1423
  909MOL0     C22606   6.504   6.698   4.736  0.9794 -0.1768  0.1736
  909MOL0     C22607   6.559   6.817   4.729 -0.9117 -0.3369  0.0655
  909MOL0     C22608   6.706   6.819   4.702 -0.2088 -0.3777 -0.1591
  909MOL0     C22609   6.478   6.934   4.748  0.6224  0.3227  0.0697
  909MOL0     C22610   6.529   7.076   4.719  0.1427 -0.0151  0.5467
  909MOL0     O22611   6.448   7.175   4.764 -0.1220  0.2953  0.7897
  909MOL0     C22612   6.473   7.305   4.754 -0.2781  0.4645 -0.8600
  909MOL0     C22613   6.548   7.360   4.855  0.0060  0.5384  0.0452
  909MOL0     C22614   6.569   7.497   4.869 -0.2223 -0.3603 -1.3363
  909MOL0     C22615   6.501   7.590   4.785 -1.2658  0.8699  0.6022
  909MOL0     O22616   6.516   7.729   4.782 -0.1025 -0.2025 -0.9636
  909MOL0     C22617   6.629   7.781   4.860  0.0178  0.0259  0.2547
  909MOL0     C22618   6.633   7.931   4.843 -0.4395 -0.1309  0.4833
  909MOL0     C22619   6.681   7.983   4.710 -0.0351 -0.5031  0.6680
  909MOL0     C22620   6.554   8.006   4.619  0.2711  1.1030 -0.0306
  909MOL0     C22621   6.453   8.115   4.662 -0.2891  0.0124 -0.1544
  909MOL0     C22622   6.456   8.232   4.559  0.3174  0.4903  0.8179
  909MOL0     C22623   6.368   8.350   4.607 -0.0678  0.6303  0.7883
  909MOL0     C22624   6.348   8.438   4.483  0.0147  0.0729 -0.6393
  909MOL0    Cl22625   6.221   8.371   4.378  0.0530 -0.1481  0.2007
  909MOL0     C22626   6.426   7.536   4.686 -0.0590  0.3930  0.8963
  909MOL0     C22627   6.419   7.395   4.665  0.7256 -0.4011  0.0419
  909MOL0     O22628   6.636   7.103   4.659 -0.6238 -0.3110 -0.7833
  909MOL0     C22629   6.344   6.918   4.790 -0.4350  0.0873 -0.3751
  909MOL0     C22630   6.290   6.792   4.802 -0.2467  0.0984  0.7133
  909MOL0     N22631   6.209   6.195   5.255  0.2406  0.6071 -0.2071
  909MOL0     N22632   6.271   6.108   5.326 -0.3248 -0.4647  0.6334
  909MOL0     C22633   7.589   5.925   5.547 -0.0885  0.3548 -0.0412
  909MOL0     C22634   7.724   5.950   5.572 -0.2308  0.1290 -0.1803
  909MOL0     C22635   8.155   5.845   5.504 -0.9203  0.2075  0.9566
  909MOL0     C22636   8.222   5.964   5.507 -0.1615 -0.1003 -0.2900
  909MOL0     C22637   8.361   5.966   5.518  0.3629 -0.3850  0.9708
  909MOL0     C22638   8.431   5.851   5.519 -0.3609  0.1948 -0.0159
  909MOL0     O22639   8.570   5.852   5.545 -0.2721 -0.4205 -0.3775
  909MOL0     C22640   8.660   5.763   5.488  0.4426  0.3518  0.2294
  909MOL0     C22641   8.719   5.668   5.595 -0.4651  0.1765  0.0325
  909MOL0     C22642   8.816   5.747   5.680 -0.4409 -0.6541  0.6365
  909MOL0     C22643   8.864   5.677   5.803  0.4718 -0.6039  0.5842
  909MOL0     C22644   8.971   5.763   5.852 -0.8313  0.2481  0.1450
  909MOL0     C22645   9.053   5.839   5.900 -0.1251  0.1359 -0.6953
  909MOL0     C22646   8.364   5.732   5.523 -0.3345 -0.0623  0.4618
  909MOL0     C22647   8.225   5.720   5.514 -0.1206 -0.6566  0.1396
  909MOL0     H22648   7.845   5.880   5.260 -1.5849  0.5679 -0.6275
  909MOL0     H22649   7.597   5.839   5.218  3.0157 -0.2892 -1.2529
  909MOL0     H22650   7.306   5.920   5.545 -2.7165 -0.8896  0.0460
  909MOL0     H22651   7.329   6.037   5.414  0.1127  0.3721  1.9242
  909MOL0     H22652   7.198   5.869   5.263  2.6802  0.8112  0.4885
  909MOL0     H22653   7.139   5.790   5.403  1.2780  0.2334 -0.0064
  909MOL0     H22654   7.047   5.988   5.498 -0.8452  0.3381  0.0438
  909MOL0     H22655   7.099   6.087   5.364  2.6829 -1.2645 -1.3906
  909MOL0     H22656   6.955   5.923   5.222 -0.0129  1.8630  0.2837
  909MOL0     H22657   6.891   5.869   5.389  0.8370 -1.4152 -0.6023
  909MOL0     H22658   6.837   6.097   5.433  2.1750  1.1309 -0.1636
  909MOL0     H22659   6.892   6.154   5.271  0.5678 -1.3778 -0.5741
  909MOL0     H22660   6.683   6.129   5.195  2.7388  0.8657 -0.7479
  909MOL0     H22661   6.717   5.960   5.193 -0.6497 -0.8768  0.8051
  909MOL0     H22662   6.624   5.926   5.423 -1.8780  0.2543  0.3040
  909MOL0     H22663   6.566   6.095   5.428  2.9386  1.1050 -0.0589
  909MOL0     H22664   6.410   5.892   5.370 -1.2568  1.2379  0.3494
  909MOL0     H22665   6.482   5.890   5.215  1.3991  1.2785 -1.6670
  909MOL0     H22666   6.466   6.125   5.062  0.3782  0.3339  0.5997
  909MOL0     H22667   6.134   6.365   5.063  0.4130  0.0361  0.6317
  909MOL0     H22668   6.306   6.403   5.047  1.3007 -1.3374  0.0271
  909MOL0     H22669   6.196   6.169   4.900  0.2702 -0.4426 -0.8131
  909MOL0     H22670   6.341   6.252   4.868 -0.2493 -0.0402  0.6709
  909MOL0     H22671   6.070   6.358   4.783  0.1536  0.6567 -1.4734
  909MOL0     H22672   6.225   6.335   4.696 -1.9691  1.5472 -1.4434
  909MOL0     H22673   6.152   6.549   4.906  2.8682 -1.2400  1.4425
  909MOL0     H22674   6.134   6.559   4.735 -2.3048  0.2903  0.2431
  909MOL0     H22675   6.560   6.606   4.731  1.1342 -0.1131  0.6746
  909MOL0     H22676   6.709   6.789   4.597  1.2278 -0.0331 -0.2365
  909MOL0     H22677   6.753   6.918   4.704 -0.8254 -0.0920  1.2653
  909MOL0     H22678   6.764   6.746   4.761  1.2691  2.2138  1.8461
  909MOL0     H22679   6.592   7.292   4.927 -0.0319 -1.0037 -1.2967
  909MOL0     H22680   6.620   7.528   4.960  0.5540  1.0143 -2.1876
  909MOL0     H22681   6.602   7.758   4.963 -4.0387 -3.5759 -1.3139
  909MOL0     H22682   6.728   7.748   4.826  0.4881  0.8954  0.7212
  909MOL0     H22683   6.541   7.978   4.878 -1.0493 -0.6793 -0.3527
  909MOL0     H22684   6.698   7.967   4.923  0.1754 -1.9124  0.8328
  909MOL0     H22685   6.744   7.916   4.649  4.0999  3.9318 -0.5001
  909MOL0     H22686   6.736   8.075   4.731 -3.4049  1.7726  0.2653
  909MOL0     H22687   6.596   8.022   4.519  0.4144 -1.1828 -0.3836
  909MOL0     H22688   6.502   7.911   4.602 -0.7985  1.6091  0.3053
  909MOL0     H22689   6.477   8.141   4.766 -1.5848 -1.8398  0.6550
  909MOL0     H22690   6.352   8.074   4.665 -0.5434  0.1518 -3.6164
  909MOL0     H22691   6.559   8.258   4.531  0.4567  1.1767  1.8962
  909MOL0     H22692   6.412   8.184   4.471 -1.7764 -2.2558  3.1772
  909MOL0     H22693   6.421   8.407   4.684  0.2291  0.2446  0.8726
  909MOL0     H22694   6.270   8.316   4.641 -0.2599  0.6256  0.2427
  909MOL0     H22695   6.436   8.441   4.418  0.0197 -2.2813 -0.8397
  909MOL0     H22696   6.325   8.538   4.521  2.4983  1.0626 -1.5746
  909MOL0     H22697   6.380   7.602   4.613 -0.8884 -1.4235 -0.3014
  909MOL0     H22698   6.360   7.353   4.585  2.2423  0.0874 -1.3969
  909MOL0     H22699   6.270   6.995   4.809  0.4423  0.6979  0.6838
  909MOL0     H22700   6.190   6.792   4.845 -0.2960  0.3578  0.6033
  909MOL0     H22701   7.510   5.913   5.621 -3.1126  0.5035 -3.0214
  909MOL0     H22702   7.753   5.967   5.675 -2.5126  0.1052  0.5275
  909MOL0     H22703   8.158   6.051   5.512  0.6084  0.4555  0.1500
  909MOL0     H22704   8.414   6.061   5.512 -1.0608  0.3634 -0.8716
  909MOL0     H22705   8.606   5.697   5.420 -0.0676  0.6386  0.3500
  909MOL0     H22706   8.736   5.820   5.433 -1.3577  1.7379 -0.9151
  909MOL0     H22707   8.759   5.576   5.551 -0.9841 -0.4047  0.7594
  909MOL0     H22708   8.644   5.627   5.664  1.7267 -2.2390  1.1720
  909MOL0     H22709   8.772   5.843   5.706  1.1657  1.3900 -3.3545
  909MOL0     H22710   8.898   5.772   5.612 -1.2707 -0.8704 -0.4902
  909MOL0     H22711   8.898   5.574   5.786  0.8736 -0.4355  0.3700
  909MOL0     H22712   8.780   5.682   5.872  0.6075  0.9596  0.6624
  909MOL0     H22713   9.126   5.887   5.963  2.4425 -4.1867  0.0182
  909MOL0     H22714   8.415   5.636   5.531  1.0814  0.2472 -2.9546
  909MOL0     H22715   8.172   5.627   5.527 -1.8864  0.5159  2.0919
  910MOL0     O22716   9.178   1.988   3.843  0.3316 -0.3097 -0.0384
  910MOL0     C22717   9.156   2.064   3.746  0.0566 -0.1133 -0.1452
  910MOL0     O22718   9.035   2.091   3.691  0.3767 -0.1239 -0.1686
  910MOL0     C22719   8.923   2.072   3.779 -0.5780 -0.8272  0.6734
  910MOL0     C22720   8.922   2.117   3.907 -0.1279 -0.9339 -1.0972
  910MOL0     C22721   8.814   2.115   3.994 -0.3744 -0.3446  0.1274
  910MOL0     C22722   8.703   2.031   3.959  0.3109 -0.3016  0.1798
  910MOL0     O22723   8.602   2.011   4.044 -0.1758 -0.5979  0.5542
  910MOL0     C22724   8.553   2.126   4.110  0.7454 -0.1597 -0.2132
  910MOL0     C22725   8.448   2.072   4.206 -0.6943  1.3619  0.0042
  910MOL0     C22726   8.333   1.985   4.141  0.0475  0.1816 -0.7840
  910MOL0     C22727   8.226   1.945   4.250 -0.3525 -0.4625  0.1995
  910MOL0     C22728   8.125   1.848   4.182 -0.3452 -0.1112  1.1935
  910MOL0     C22729   7.984   1.857   4.234  0.0239  0.7641  0.8129
  910MOL0     C22730   7.971   1.782   4.356 -0.0142  0.8821 -0.7401
  910MOL0     C22731   7.838   1.701   4.389 -0.2197  0.7152 -0.0008
  910MOL0     N22732   7.731   1.784   4.445  0.0573  0.0888  0.7816
  910MOL0     C22733   7.700   1.914   4.413  0.1416  0.6240  0.0515
  910MOL0     C22734   7.623   1.951   4.511 -0.3008  0.9566  0.3139
  910MOL0     C22735   7.585   2.104   4.522 -0.9700 -0.1815  1.1860
  910MOL0     C22736   7.445   2.123   4.575 -0.1823  0.2318  0.2614
  910MOL0     C22737   7.337   2.086   4.473  0.4153 -0.9818 -0.1157
  910MOL0     C22738   7.193   2.076   4.526  0.0772  0.1810  0.4225
  910MOL0     O22739   7.178   2.041   4.666 -0.0449 -0.2981  0.1297
  910MOL0     C22740   7.046   2.041   4.720 -1.0389 -0.5747 -0.1447
  910MOL0     C22741   7.026   2.008   4.860 -0.2674 -0.4422 -0.4816
  910MOL0     C22742   6.907   2.030   4.934  0.0994 -0.2893 -0.4968
  910MOL0     C22743   6.919   2.004   5.085 -0.3085 -0.6143  1.2458
  910MOL0     C22744   6.792   2.073   4.855  0.3220  0.4764 -0.0156
  910MOL0     C22745   6.660   2.102   4.920 -0.6795  0.2024 -0.0604
  910MOL0     O22746   6.650   2.076   5.050  0.6021  0.7480 -0.3682
  910MOL0     C22747   6.520   2.073   5.096  0.1527 -0.3358 -0.9379
  910MOL0     C22748   6.474   2.187   5.166 -0.1272 -0.6428  0.2334
  910MOL0     C22749   6.349   2.182   5.235  0.3587  0.2811  0.2742
  910MOL0     C22750   6.277   2.062   5.227  1.0997 -0.1245  0.2538
  910MOL0     O22751   6.151   2.034   5.280  0.2909 -0.0576  0.3189
  910MOL0     C22752   6.041   2.077   5.204 -0.1011  0.6405  1.1333
  910MOL0     C22753   5.981   1.972   5.110 -0.0040  0.7729 -1.0708
  910MOL0     C22754   5.888   1.871   5.177 -0.5617 -0.1044  0.0201
  910MOL0     C22755   5.751   1.924   5.225 -0.2361  0.8709  0.8010
  910MOL0     C22756   5.671   1.793   5.256  0.2388 -0.0666  0.4786
  910MOL0     C22757   5.534   1.832   5.304 -0.9321  0.5885 -0.3178
  910MOL0     C22758   5.466   1.711   5.360 -0.2283  0.4902 -0.3800
  910MOL0     C22759   5.326   1.728   5.424 -1.0073  0.4896  0.8253
  910MOL0    Cl22760   5.222   1.845   5.329 -0.1075  0.1318  0.1825
  910MOL0     C22761   6.331   1.949   5.159  0.7144  0.1982 -0.4612
  910MOL0     C22762   6.450   1.957   5.087  0.0867  0.0724 -0.7938
  910MOL0     O22763   6.568   2.132   4.844 -0.4910 -0.1140 -0.1063
  910MOL0     C22764   6.814   2.097   4.716  0.3478 -0.1868  0.0591
  910MOL0     C22765   6.937   2.086   4.654 -0.0556 -0.5593  0.2408
  910MOL0     N22766   7.592   1.837   4.593  0.0094 -0.3724  0.2805
  910MOL0     N22767   7.662   1.741   4.563 -0.2226 -0.3939  0.1763
  910MOL0     C22768   8.709   1.965   3.832 -0.2803  0.5838  0.4081
  910MOL0     C22769   8.810   1.993   3.742 -0.4149  0.0251 -0.2112
  910MOL0     C22770   9.259   2.138   3.680 -0.7750 -0.4670 -0.8103
  910MOL0     C22771   9.238   2.223   3.566  1.0480 -0.6737  0.5391
  910MOL0     C22772   9.333   2.302   3.504 -0.3252 -0.1722  0.3695
  910MOL0     C22773   9.465   2.305   3.556  0.7497  0.2823 -1.0313
  910MOL0     O22774   9.557   2.389   3.492  0.7591  0.4765 -0.5414
  910MOL0     C22775   9.593   2.349   3.358  0.5802 -0.6538  0.7501
  910MOL0     C22776   9.711   2.247   3.368  0.5859 -0.7563 -0.2463
  910MOL0     C22777   9.821   2.317   3.454  1.1462 -0.2988 -0.3938
  910MOL0     C22778   9.955   2.243   3.435  0.0916 -0.2307 -0.0884
  910MOL0     C22779  10.058   2.288   3.530  1.0152  0.6567  0.0682
  910MOL0     C22780  10.139   2.314   3.617 -0.4097  0.0432  0.8332
  910MOL0     C22781   9.500   2.215   3.660 -0.3563 -0.7792  0.2852
  910MOL0     C22782   9.399   2.141   3.724 -0.2437  0.0468  0.0937
  910MOL0     H22783   9.011   2.166   3.946 -0.5769 -0.0763 -1.1128
  910MOL0     H22784   8.841   2.159   4.089  0.2814  0.8130 -0.5646
  910MOL0     H22785   8.620   2.193   4.164  0.1955  0.3792 -0.1932
  910MOL0     H22786   8.503   2.193   4.040  1.0519  1.4942  1.1081
  910MOL0     H22787   8.508   2.012   4.276  2.5218  1.8614 -2.1335
  910MOL0     H22788   8.400   2.157   4.256 -1.1825  0.2785  1.4523
  910MOL0     H22789   8.278   2.047   4.070  1.5330  1.8611 -0.5699
  910MOL0     H22790   8.383   1.902   4.091  0.6029  2.0192 -3.4766
  910MOL0     H22791   8.267   1.886   4.332  3.2132 -0.6497 -1.5367
  910MOL0     H22792   8.181   2.036   4.291  1.4208 -0.2758  1.8668
  910MOL0     H22793   8.111   1.884   4.080  1.6677  0.0338  0.9338
  910MOL0     H22794   8.158   1.743   4.179 -0.0688  0.0014 -0.7988
  910MOL0     H22795   7.952   1.960   4.251 -2.8855  0.5530 -2.2979
  910MOL0     H22796   7.918   1.810   4.159  1.4475 -0.1060  0.0594
  910MOL0     H22797   8.051   1.709   4.369  0.0006  1.4434  4.0396
  910MOL0     H22798   7.996   1.858   4.430  0.4507  0.9689 -0.9825
  910MOL0     H22799   7.851   1.622   4.464 -4.0670 -1.8281 -1.6745
  910MOL0     H22800   7.797   1.655   4.298 -1.1734 -1.5233  1.4761
  910MOL0     H22801   7.744   1.968   4.330 -0.0693  1.6505  0.5841
  910MOL0     H22802   7.652   2.163   4.584 -0.9550  1.4950 -0.3275
  910MOL0     H22803   7.590   2.146   4.421  0.7411 -0.5601  1.0860
  910MOL0     H22804   7.438   2.229   4.602 -2.4563  0.3537 -0.6353
  910MOL0     H22805   7.434   2.054   4.660 -0.0608  0.2725  0.3113
  910MOL0     H22806   7.367   1.994   4.420 -0.9088 -1.8155  0.5276
  910MOL0     H22807   7.335   2.156   4.390  0.2766 -0.1038  0.6199
  910MOL0     H22808   7.147   2.003   4.458 -0.4191 -0.2885  1.2499
  910MOL0     H22809   7.148   2.173   4.505 -1.4045 -0.7542 -0.9240
  910MOL0     H22810   7.118   1.974   4.905  0.2148  0.4432 -0.7739
  910MOL0     H22811   6.870   2.070   5.156  0.7504  1.0518  0.4984
  910MOL0     H22812   6.887   1.902   5.107 -0.6148 -1.1628 -1.3701
  910MOL0     H22813   7.026   2.019   5.100 -0.4837  3.7474 -0.4325
  910MOL0     H22814   6.538   2.275   5.170 -1.3126  0.1994  1.9047
  910MOL0     H22815   6.318   2.274   5.284  1.2617  0.2688  0.8773
  910MOL0     H22816   5.965   2.106   5.276 -3.0735 -1.8701 -0.7392
  910MOL0     H22817   6.070   2.161   5.140  2.0458 -0.8280  0.0223
  910MOL0     H22818   5.916   2.023   5.039 -1.2683  0.8170  0.0955
  910MOL0     H22819   6.063   1.920   5.058 -1.5586 -0.4541 -2.3880
  910MOL0     H22820   5.948   1.813   5.247  1.0285  0.2301 -1.0015
  910MOL0     H22821   5.860   1.807   5.093  0.4030  3.2088 -3.1232
  910MOL0     H22822   5.764   1.990   5.312  0.7772  0.8137  0.7075
  910MOL0     H22823   5.716   1.989   5.144  1.8098  2.0002  0.7615
  910MOL0     H22824   5.730   1.730   5.323  2.5507  1.7458  0.2752
  910MOL0     H22825   5.653   1.736   5.164  4.4805 -1.5231  0.3378
  910MOL0     H22826   5.529   1.902   5.388 -1.2041  0.5904 -0.3324
  910MOL0     H22827   5.480   1.867   5.215 -1.1513  0.5877 -0.1881
  910MOL0     H22828   5.519   1.663   5.443  0.0818 -1.0650 -1.4300
  910MOL0     H22829   5.467   1.639   5.278  1.9986  0.0142  0.0120
  910MOL0     H22830   5.333   1.753   5.530 -2.1831 -1.4885  1.4265
  910MOL0     H22831   5.282   1.628   5.427  0.2017 -0.0426  1.7605
  910MOL0     H22832   6.269   1.860   5.161 -1.8755  1.9269  0.4204
  910MOL0     H22833   6.486   1.865   5.042 -1.6386 -2.3543  2.3466
  910MOL0     H22834   6.732   2.147   4.664  2.6372  1.1273 -2.5551
  910MOL0     H22835   6.948   2.101   4.547  0.3426  1.2320  0.4881
  910MOL0     H22836   8.630   1.898   3.798 -0.2293  1.3205 -1.2313
  910MOL0     H22837   8.811   1.947   3.643 -0.0803 -0.7417  0.1395
  910MOL0     H22838   9.144   2.231   3.511  1.2340 -0.6498  0.2187
  910MOL0     H22839   9.317   2.364   3.416  1.8242 -0.5450 -0.3306
  910MOL0     H22840   9.513   2.311   3.294  0.4337 -1.9488  1.6796
  910MOL0     H22841   9.630   2.436   3.302 -2.3770  1.6803  2.0998
  910MOL0     H22842   9.738   2.219   3.266 -0.0499  0.3498 -0.7372
  910MOL0     H22843   9.685   2.151   3.414  1.9115 -1.8842 -1.7535
  910MOL0     H22844   9.796   2.311   3.560 -0.0729  2.5558 -0.4446
  910MOL0     H22845   9.833   2.424   3.434 -0.2112  0.2665  1.4920
  910MOL0     H22846  10.009   2.264   3.342  1.5825 -2.3323  0.2150
  910MOL0     H22847   9.939   2.135   3.447 -1.3192 -0.2240 -1.5600
  910MOL0     H22848  10.204   2.339   3.698  1.2448 -2.7765  0.5161
  910MOL0     H22849   9.602   2.215   3.697 -1.2569  0.7339  3.1003
  910MOL0     H22850   9.412   2.072   3.807 -6.6458  0.0309  1.6220
  911MOL0     O22851  10.337   3.869  10.782 -0.8072  0.5647 -0.7143
  911MOL0     C22852  10.290   3.783  10.854 -0.2325 -0.4420  0.8730
  911MOL0     O22853  10.373   3.688  10.923  0.6910 -0.0926 -0.0752
  911MOL0     C22854  10.510   3.695  10.915 -0.7031  0.2082  1.0598
  911MOL0     C22855  10.571   3.796  10.975 -0.1725 -0.7335  0.3025
  911MOL0     C22856  10.711   3.808  10.981 -0.5375 -0.6162 -0.3868
  911MOL0     C22857  10.786   3.693  10.948  0.0912  0.0830  0.3342
  911MOL0     O22858  10.920   3.695  10.954 -0.3480  0.6662 -0.6914
  911MOL0     C22859  10.976   3.623  11.066 -0.6102 -0.2128  0.0685
  911MOL0     C22860  11.121   3.668  11.092 -0.1480  0.0997  0.6205
  911MOL0     C22861  11.219   3.612  10.975  1.0681  0.2793 -0.1590
  911MOL0     C22862  11.360   3.620  11.030  0.0640 -0.2900 -0.0716
  911MOL0     C22863  11.458   3.556  10.945 -0.2255  0.1416 -0.3334
  911MOL0     C22864  11.575   3.506  11.040 -0.0454  0.6661 -0.0887
  911MOL0     C22865  11.645   3.606  11.128  1.4641  0.8236 -0.4513
  911MOL0     C22866  11.775   3.548  11.203 -0.0678 -0.4154 -0.0683
  911MOL0     N22867  11.898   3.532  11.127  0.2421  0.7346  0.8373
  911MOL0     C22868  11.950   3.641  11.058  0.2947  0.1572 -0.3855
  911MOL0     C22869  12.046   3.584  10.976 -0.3734 -0.1024 -0.3730
  911MOL0     C22870  12.143   3.652  10.888 -0.1234  0.1223 -0.5586
  911MOL0     C22871  12.185   3.565  10.777 -0.3270 -0.1286 -0.0336
  911MOL0     C22872  12.075   3.511  10.678  0.2572 -1.1883  0.3961
  911MOL0     C22873  11.963   3.604  10.640 -0.3964 -0.3748 -1.2435
  911MOL0     O22874  11.860   3.542  10.564  0.4830  0.5962  0.8979
  911MOL0     C22875  11.770   3.628  10.503 -0.3875 -0.1435 -0.1875
  911MOL0     C22876  11.649   3.574  10.466  0.7211  0.1353  0.4921
  911MOL0     C22877  11.545   3.638  10.404 -0.1476  0.4607 -0.1803
  911MOL0     C22878  11.410   3.559  10.391  0.0794 -0.4361  0.6942
  911MOL0     C22879  11.559   3.772  10.368  0.3469 -0.3727  0.0405
  911MOL0     C22880  11.452   3.853  10.294 -0.0483  0.1801 -0.6274
  911MOL0     O22881  11.455   3.993  10.308 -0.7625 -0.0750 -0.8370
  911MOL0     C22882  11.343   4.052  10.266  0.8098  0.0986  0.2538
  911MOL0     C22883  11.354   4.125  10.139  0.2786  0.3439  0.0934
  911MOL0     C22884  11.238   4.188  10.090  0.2863  0.2023  1.2616
  911MOL0     C22885  11.108   4.182  10.161  0.7835 -0.6674 -0.1454
  911MOL0     O22886  10.989   4.244  10.124  0.4081  0.1065 -0.3300
  911MOL0     C22887  10.976   4.276   9.977  0.2204 -0.8456 -0.9858
  911MOL0     C22888  10.846   4.345   9.951 -0.3208 -0.1596  0.8293
  911MOL0     C22889  10.719   4.262   9.948  1.1424 -0.1093  0.4882
  911MOL0     C22890  10.590   4.334   9.976  0.3893 -0.6923  0.0201
  911MOL0     C22891  10.487   4.228  10.028  0.0628 -0.2067  0.4051
  911MOL0     C22892  10.352   4.285  10.055 -0.0215 -0.4133 -0.6674
  911MOL0     C22893  10.270   4.320   9.934 -0.3477 -0.2119 -0.3093
  911MOL0     C22894  10.166   4.422   9.968 -0.0616  0.5125  0.2606
  911MOL0    Cl22895  10.001   4.346  10.020 -0.1569 -0.0727  0.0618
  911MOL0     C22896  11.106   4.132  10.288 -0.6766 -0.0112 -0.5511
  911MOL0     C22897  11.219   4.064  10.335  0.6017  0.2420 -0.3234
  911MOL0     O22898  11.372   3.794  10.220  0.2075 -0.6186 -0.3268
  911MOL0     C22899  11.681   3.836  10.407  0.4976 -0.0785 -0.4917
  911MOL0     C22900  11.782   3.763  10.466 -0.4991  0.0364  0.4622
  911MOL0     N22901  12.045   3.450  10.997  0.4959  1.0907  0.2456
  911MOL0     N22902  11.955   3.409  11.094  0.3711  0.3443  0.1600
  911MOL0     C22903  10.720   3.579  10.900 -0.7062 -0.3144 -1.1832
  911MOL0     C22904  10.580   3.586  10.873 -0.1373 -0.5609 -1.3629
  911MOL0     C22905  10.150   3.767  10.868 -0.3407  0.3068  0.4645
  911MOL0     C22906  10.087   3.644  10.884  0.4481  0.3447 -0.3225
  911MOL0     C22907   9.953   3.631  10.907 -0.0333  0.7583  1.0244
  911MOL0     C22908   9.872   3.746  10.910  0.5620 -0.7248 -0.4650
  911MOL0     O22909   9.741   3.739  10.937  0.6570  0.1222  0.3216
  911MOL0     C22910   9.672   3.618  10.950 -0.9906  0.0904  0.1476
  911MOL0     C22911   9.516   3.631  10.967 -0.3505 -0.0224  0.3896
  911MOL0     C22912   9.491   3.700  11.095  0.4958  0.9329  0.0648
  911MOL0     C22913   9.361   3.646  11.156 -0.6641  0.0529 -0.1246
  911MOL0     C22914   9.243   3.666  11.074 -0.2673  0.1469 -0.0292
  911MOL0     C22915   9.139   3.667  11.014 -0.4096 -0.8560  0.4287
  911MOL0     C22916   9.925   3.871  10.887 -0.3407  0.0905  0.2562
  911MOL0     C22917  10.069   3.883  10.873  0.2792  0.1931 -0.6922
  911MOL0     H22918  10.509   3.875  11.014 -1.1915 -2.3992  2.2774
  911MOL0     H22919  10.778   3.883  11.021  0.9973 -1.0122 -2.1318
  911MOL0     H22920  10.918   3.636  11.158  0.6364  0.3190  0.8165
  911MOL0     H22921  10.976   3.520  11.030 -0.9078  0.3007 -1.4654
  911MOL0     H22922  11.126   3.777  11.099 -1.6864  0.1419  1.5734
  911MOL0     H22923  11.154   3.625  11.187  1.0537  0.2335  0.2798
  911MOL0     H22924  11.194   3.515  10.931  0.1791  0.1438  0.6042
  911MOL0     H22925  11.227   3.683  10.892  1.6820  1.1535  0.6247
  911MOL0     H22926  11.385   3.722  11.061 -0.8702  0.3245 -1.2243
  911MOL0     H22927  11.345   3.562  11.121  0.2590  0.2804  0.3324
  911MOL0     H22928  11.412   3.468  10.900 -1.1808  0.1445  0.5855
  911MOL0     H22929  11.477   3.626  10.863 -3.0941 -0.2227 -1.4192
  911MOL0     H22930  11.549   3.421  11.104  3.7647  0.4119  1.3859
  911MOL0     H22931  11.649   3.464  10.971 -1.3642  0.9001 -1.6953
  911MOL0     H22932  11.666   3.699  11.074 -0.0599  2.1470  1.0963
  911MOL0     H22933  11.570   3.629  11.204 -0.1228 -0.8619 -1.4124
  911MOL0     H22934  11.743   3.449  11.238 -0.6533 -0.1885  0.0389
  911MOL0     H22935  11.808   3.609  11.287 -1.4125 -1.1555  1.0472
  911MOL0     H22936  11.931   3.747  11.071  1.2600  0.3440 -0.4508
  911MOL0     H22937  12.106   3.750  10.854  1.8319  0.5805 -1.4931
  911MOL0     H22938  12.224   3.673  10.958  0.2191  3.6273 -1.7705
  911MOL0     H22939  12.237   3.480  10.821 -1.6683 -0.4676  0.9540
  911MOL0     H22940  12.262   3.612  10.715  1.0338  0.2183  1.8613
  911MOL0     H22941  12.045   3.416  10.724  1.6110 -0.5823  2.6722
  911MOL0     H22942  12.123   3.482  10.585 -2.0950  0.7852 -1.5901
  911MOL0     H22943  11.992   3.696  10.589  0.7783  0.6620  1.1192
  911MOL0     H22944  11.916   3.637  10.734  2.4467 -0.4920  0.3351
  911MOL0     H22945  11.633   3.467  10.478  0.9144 -0.8042 -5.1417
  911MOL0     H22946  11.398   3.510  10.293 -0.2130  0.3397  0.3341
  911MOL0     H22947  11.415   3.480  10.467  3.0391  1.4301  2.6261
  911MOL0     H22948  11.321   3.620  10.409  0.5816  0.3435  0.5400
  911MOL0     H22949  11.446   4.129  10.082 -0.0517 -0.0802 -0.4823
  911MOL0     H22950  11.239   4.226   9.988 -1.6793 -0.6815  0.8641
  911MOL0     H22951  11.059   4.342   9.948  0.1593  0.0867  0.7853
  911MOL0     H22952  10.987   4.189   9.913  0.2429 -3.3509  2.1704
  911MOL0     H22953  10.858   4.430  10.019  2.9203 -0.1242  0.4043
  911MOL0     H22954  10.848   4.394   9.853  1.8962  1.2952  1.5259
  911MOL0     H22955  10.727   4.170  10.006 -1.2074  0.9303  2.6386
  911MOL0     H22956  10.713   4.227   9.844 -1.7314 -1.2644  0.9407
  911MOL0     H22957  10.599   4.413  10.052  1.5862 -1.1504  0.3843
  911MOL0     H22958  10.562   4.379   9.881  3.2029  0.2192 -0.4742
  911MOL0     H22959  10.537   4.184  10.115  1.5780  1.5816  0.4895
  911MOL0     H22960  10.472   4.145   9.959  0.3397  0.3988 -0.3903
  911MOL0     H22961  10.300   4.210  10.115  0.0801 -3.1072 -3.7047
  911MOL0     H22962  10.365   4.382  10.104 -0.2594  1.6302 -4.3030
  911MOL0     H22963  10.233   4.236   9.875 -1.3162 -0.6549  0.9160
  911MOL0     H22964  10.348   4.365   9.870 -2.0781  0.8060 -1.8026
  911MOL0     H22965  10.154   4.479   9.875 -1.6035  0.3080  0.3032
  911MOL0     H22966  10.208   4.488  10.045 -2.3610 -1.4647  3.4289
  911MOL0     H22967  11.013   4.135  10.344 -0.6469 -0.8422 -0.4494
  911MOL0     H22968  11.213   4.011  10.430  3.3269  0.7995  0.2328
  911MOL0     H22969  11.692   3.943  10.394  0.2211 -0.0892 -0.8028
  911MOL0     H22970  11.876   3.815  10.484  0.1753 -0.2219 -1.9284
  911MOL0     H22971  10.771   3.484  10.888 -1.4564 -0.8683 -0.1637
  911MOL0     H22972  10.535   3.502  10.822  2.3963 -1.0002 -3.0591
  911MOL0     H22973  10.144   3.552  10.872  1.1510  0.7945 -0.5100
  911MOL0     H22974   9.916   3.530  10.922 -1.2888  0.9419 -0.5590
  911MOL0     H22975   9.704   3.552  10.868  1.6832 -0.5089  1.5700
  911MOL0     H22976   9.710   3.573  11.041 -0.6618  0.4386  0.1851
  911MOL0     H22977   9.475   3.530  10.964  0.4225 -0.3461  0.4601
  911MOL0     H22978   9.464   3.678  10.884 -1.2301 -0.9849  0.3719
  911MOL0     H22979   9.472   3.807  11.082  2.3090  1.6621  2.6614
  911MOL0     H22980   9.584   3.690  11.152  1.0550  0.5084 -0.8865
  911MOL0     H22981   9.353   3.704  11.249  4.3366  1.3979 -0.2852
  911MOL0     H22982   9.375   3.539  11.176 -1.5721  0.3726  2.7325
  911MOL0     H22983   9.055   3.652  10.949 -1.1664 -0.4308  1.2813
  911MOL0     H22984   9.866   3.962  10.890 -1.3202 -0.5382  1.9928
  911MOL0     H22985  10.110   3.981  10.853 -0.7293  0.4040 -1.8162
  912MOL0     O22986   4.572   4.689   4.918 -0.3786 -0.7032  1.3677
  912MOL0     C22987   4.517   4.802   4.911  0.0331 -0.4139 -0.6726
  912MOL0     O22988   4.383   4.827   4.955 -0.3749 -0.3551  0.2979
  912MOL0     C22989   4.300   4.726   5.004 -0.0147  0.0855 -0.1430
  912MOL0     C22990   4.162   4.748   4.985  0.0572  0.9596 -0.2296
  912MOL0     C22991   4.061   4.662   5.031 -0.4508 -0.6499 -0.0020
  912MOL0     C22992   4.102   4.549   5.100 -0.8404 -0.4652 -0.1596
  912MOL0     O22993   4.002   4.481   5.156  0.2972  0.4473 -0.3348
  912MOL0     C22994   4.034   4.382   5.260 -1.2064 -0.1414 -0.0329
  912MOL0     C22995   3.900   4.313   5.299 -0.1260 -0.1418 -0.4107
  912MOL0     C22996   3.806   4.414   5.358 -0.5430  0.4886 -0.1752
  912MOL0     C22997   3.677   4.340   5.404  0.1638  0.1167 -0.3043
  912MOL0     C22998   3.563   4.443   5.399 -0.5144  0.6725  0.0128
  912MOL0     C22999   3.455   4.388   5.492 -0.7012 -0.1816 -0.0328
  912MOL0     C23000   3.329   4.468   5.455 -0.1790  0.3534 -0.4552
  912MOL0     C23001   3.200   4.432   5.527  0.4585 -0.2750  0.3063
  912MOL0     N23002   3.170   4.289   5.533 -0.0830  0.0299 -0.6668
  912MOL0     C23003   3.094   4.220   5.442 -0.0678  0.3772 -0.0034
  912MOL0     C23004   3.069   4.098   5.501  0.3969 -0.2321  0.0078
  912MOL0     C23005   2.960   4.005   5.449 -1.2059 -0.5390 -0.7216
  912MOL0     C23006   2.914   3.916   5.558  0.7488  0.1492  0.3374
  912MOL0     C23007   2.792   3.835   5.532 -0.0440  0.1398 -0.3637
  912MOL0     C23008   2.669   3.900   5.481 -0.8742 -1.3125  0.3732
  912MOL0     O23009   2.646   4.014   5.562 -0.1081 -0.3023  0.6079
  912MOL0     C23010   2.516   4.046   5.567 -0.6958 -0.7464  0.0128
  912MOL0     C23011   2.428   3.995   5.660  0.0391  0.1038  0.2067
  912MOL0     C23012   2.293   4.038   5.656 -0.4469 -0.1029  0.9148
  912MOL0     C23013   2.207   3.988   5.765 -0.8781 -0.8889  0.5926
  912MOL0     C23014   2.236   4.124   5.550 -1.0626  0.1271 -0.5220
  912MOL0     C23015   2.097   4.163   5.539  1.0881  0.2258  0.2815
  912MOL0     O23016   2.075   4.278   5.476  0.6902 -0.6768  0.0309
  912MOL0     C23017   1.947   4.304   5.432 -0.0154  0.4102 -0.1858
  912MOL0     C23018   1.847   4.341   5.514  0.1641 -0.1948 -0.7630
  912MOL0     C23019   1.715   4.367   5.466 -0.4845 -1.0614  1.0455
  912MOL0     C23020   1.691   4.373   5.326 -0.1070 -0.8345 -0.4395
  912MOL0     O23021   1.569   4.416   5.272  0.0493 -0.9661  0.8210
  912MOL0     C23022   1.448   4.383   5.338  0.2039 -0.3388 -0.4024
  912MOL0     C23023   1.330   4.422   5.252  0.7298 -0.2711  0.3060
  912MOL0     C23024   1.190   4.376   5.315  0.7297 -1.1722  0.0595
  912MOL0     C23025   1.065   4.434   5.235  0.2710  0.4043  0.8904
  912MOL0     C23026   0.933   4.382   5.292 -0.6390 -0.6541  0.1941
  912MOL0     C23027   0.815   4.439   5.219  1.1757  0.7154 -0.1318
  912MOL0     C23028   0.686   4.396   5.284 -0.7671  0.2552 -0.6626
  912MOL0     C23029   0.571   4.463   5.212  0.6399 -0.8570  0.8211
  912MOL0    Cl23030   0.403   4.413   5.265 -0.0693  0.6207 -0.1882
  912MOL0     C23031   1.799   4.346   5.237 -0.5240 -0.6598 -0.4343
  912MOL0     C23032   1.921   4.303   5.292 -0.2267  0.2598 -0.5967
  912MOL0     O23033   2.012   4.087   5.587  0.0085 -0.0912 -0.2323
  912MOL0     C23034   2.329   4.162   5.458 -0.2021 -0.4634  0.2081
  912MOL0     C23035   2.473   4.129   5.463 -0.3519 -0.7065 -0.1197
  912MOL0     N23036   3.142   4.086   5.617 -0.5445  0.3584 -0.3853
  912MOL0     N23037   3.207   4.199   5.631 -0.0746 -0.7441 -0.1197
  912MOL0     C23038   4.243   4.519   5.113  0.5106 -0.3894  0.0464
  912MOL0     C23039   4.334   4.607   5.064 -0.2637 -0.7131 -0.6695
  912MOL0     C23040   4.595   4.920   4.878 -0.3608  0.4866  0.9753
  912MOL0     C23041   4.590   5.032   4.955  1.1680  0.4642  0.1832
  912MOL0     C23042   4.672   5.141   4.924 -0.1000 -0.6764 -0.0851
  912MOL0     C23043   4.750   5.156   4.812  0.9839  0.3405  0.5512
  912MOL0     O23044   4.815   5.271   4.791  0.6084  0.2022 -0.7910
  912MOL0     C23045   4.910   5.289   4.684  0.3710  0.3755 -0.7087
  912MOL0     C23046   4.856   5.308   4.547  0.1945 -0.0218  0.6183
  912MOL0     C23047   4.941   5.389   4.452  0.1836  0.1844 -0.0290
  912MOL0     C23048   4.889   5.536   4.440 -0.3803  0.5410  0.9239
  912MOL0     C23049   4.756   5.557   4.376  0.0873 -0.1290 -0.7230
  912MOL0     C23050   4.644   5.574   4.336 -0.0829  0.2092 -0.7124
  912MOL0     C23051   4.759   5.039   4.728 -0.1378  0.5190 -0.7063
  912MOL0     C23052   4.680   4.924   4.758  0.1158 -0.1953 -0.7922
  912MOL0     H23053   4.131   4.846   4.949 -0.2531  2.0341  2.6886
  912MOL0     H23054   3.958   4.695   5.020  0.0542  0.2104 -3.5856
  912MOL0     H23055   4.108   4.309   5.230  0.7018  0.6429  2.4350
  912MOL0     H23056   4.078   4.444   5.339 -0.2616 -0.7248 -0.0948
  912MOL0     H23057   3.863   4.275   5.204  0.9629  0.8676 -1.2659
  912MOL0     H23058   3.909   4.239   5.379 -1.2641  1.4458  1.2755
  912MOL0     H23059   3.863   4.466   5.435  0.1655  4.9058 -3.2680
  912MOL0     H23060   3.780   4.486   5.280  0.7849  1.8876  0.6152
  912MOL0     H23061   3.659   4.247   5.350  0.7022 -0.4411  0.4442
  912MOL0     H23062   3.693   4.298   5.504  0.3777 -2.6027 -1.3854
  912MOL0     H23063   3.605   4.540   5.428 -0.3323  0.5207  0.2586
  912MOL0     H23064   3.523   4.452   5.298 -0.8813 -0.7499  0.0084
  912MOL0     H23065   3.443   4.281   5.475 -0.6419 -0.0967 -0.6398
  912MOL0     H23066   3.499   4.395   5.592  3.4087  2.2087 -1.7419
  912MOL0     H23067   3.342   4.576   5.462 -0.2263  0.2451  2.7000
  912MOL0     H23068   3.308   4.461   5.348 -0.3529 -0.7483 -0.3674
  912MOL0     H23069   3.124   4.489   5.474 -0.3209 -0.4379  1.2140
  912MOL0     H23070   3.209   4.473   5.628 -0.5083  0.8161 -0.0373
  912MOL0     H23071   3.036   4.250   5.356 -2.1388  2.3552  1.9428
  912MOL0     H23072   2.884   4.071   5.407 -2.4319 -1.4313  0.0417
  912MOL0     H23073   3.002   3.944   5.367 -0.4349  0.1723 -0.8726
  912MOL0     H23074   2.896   3.981   5.644  0.8583 -0.9528  1.2163
  912MOL0     H23075   2.988   3.841   5.588 -0.6959 -2.1278 -1.4781
  912MOL0     H23076   2.772   3.803   5.635 -2.0416  1.7218 -0.1995
  912MOL0     H23077   2.818   3.749   5.469  1.2373 -0.2432  0.6581
  912MOL0     H23078   2.582   3.835   5.495 -1.7271 -0.0973  0.9981
  912MOL0     H23079   2.678   3.939   5.379  0.0934  0.6336  1.1527
  912MOL0     H23080   2.456   3.920   5.733 -0.8364  0.0350  0.4844
  912MOL0     H23081   2.133   3.914   5.731 -1.4538  0.3501 -0.9847
  912MOL0     H23082   2.259   3.944   5.851  1.6447  0.5458 -0.0962
  912MOL0     H23083   2.158   4.080   5.800 -1.9223 -0.8276 -0.9234
  912MOL0     H23084   1.861   4.362   5.619  1.8994  0.5951 -1.1225
  912MOL0     H23085   1.636   4.382   5.540  0.5911 -2.5038  2.5734
  912MOL0     H23086   1.441   4.275   5.346 -0.9817 -0.3307 -1.1057
  912MOL0     H23087   1.435   4.436   5.433  1.5891  2.3798 -1.5890
  912MOL0     H23088   1.330   4.529   5.227  2.8005 -0.5373 -1.0281
  912MOL0     H23089   1.348   4.371   5.157 -1.4121  3.7166 -2.5238
  912MOL0     H23090   1.184   4.405   5.420  1.1713  0.5681 -0.3703
  912MOL0     H23091   1.175   4.268   5.325  2.6413 -1.3631  1.2994
  912MOL0     H23092   1.059   4.544   5.231 -1.5144  0.4361 -4.6435
  912MOL0     H23093   1.064   4.395   5.133  0.6519 -1.7097  1.6505
  912MOL0     H23094   0.934   4.415   5.397  1.6659 -0.0326  0.0301
  912MOL0     H23095   0.930   4.274   5.305  0.4613 -0.3814  3.6984
  912MOL0     H23096   0.814   4.548   5.226 -0.8213  0.7085  0.5525
  912MOL0     H23097   0.820   4.413   5.113  1.2494  0.5199 -0.0804
  912MOL0     H23098   0.682   4.431   5.387 -0.3470  1.1059 -0.9295
  912MOL0     H23099   0.678   4.287   5.276  0.2453  0.1792 -0.6553
  912MOL0     H23100   0.585   4.450   5.105 -0.2996 -1.0886  0.7182
  912MOL0     H23101   0.574   4.568   5.242 -2.8376 -0.9103  1.9054
  912MOL0     H23102   1.813   4.367   5.132  4.2003 -3.3425 -0.6288
  912MOL0     H23103   2.004   4.273   5.229  1.6359  3.0367  0.3269
  912MOL0     H23104   2.289   4.215   5.373 -0.2826 -1.8805 -0.6660
  912MOL0     H23105   2.538   4.175   5.389 -1.5450 -0.2334 -0.9020
  912MOL0     H23106   4.283   4.433   5.166  1.9418  0.2275  0.0248
  912MOL0     H23107   4.439   4.584   5.078  0.3446  2.6836  1.4991
  912MOL0     H23108   4.528   5.041   5.043  2.5924  0.2704  1.2426
  912MOL0     H23109   4.679   5.228   4.989 -1.5541  0.6051 -1.5596
  912MOL0     H23110   4.967   5.380   4.709  2.7789 -0.7010 -1.9061
  912MOL0     H23111   4.977   5.203   4.691 -0.1626  0.0710  1.1022
  912MOL0     H23112   4.759   5.359   4.559 -0.1409 -1.2219  4.1250
  912MOL0     H23113   4.822   5.210   4.511 -0.5697 -0.5741  2.7121
  912MOL0     H23114   4.923   5.344   4.354  1.3515  0.1827 -0.2619
  912MOL0     H23115   5.048   5.378   4.469  0.6336  4.5258  1.1154
  912MOL0     H23116   4.960   5.588   4.376  1.0719 -1.4865  0.7745
  912MOL0     H23117   4.882   5.574   4.543 -0.1732 -2.2059  2.0351
  912MOL0     H23118   4.545   5.594   4.300 -0.4973  0.8373  0.6895
  912MOL0     H23119   4.814   5.043   4.635  2.2045 -2.1970  0.4059
  912MOL0     H23120   4.685   4.828   4.708  3.4240 -0.9167  0.6764
  913MOL0     O23121  10.719   9.198   8.883  0.0387  0.1682  0.8072
  913MOL0     C23122  10.679   9.198   8.998  1.0552 -0.1345  0.2412
  913MOL0     O23123  10.590   9.111   9.056  1.1855  0.8174  0.1293
  913MOL0     C23124  10.508   9.035   8.978 -0.3148 -0.0875  0.6684
  913MOL0     C23125  10.443   9.090   8.864  0.6427 -0.1322 -0.2795
  913MOL0     C23126  10.363   9.006   8.781 -0.0410  0.4328  1.0207
  913MOL0     C23127  10.339   8.876   8.815  0.2978  0.7909 -0.4131
  913MOL0     O23128  10.275   8.781   8.744  1.2946  0.2836  0.5822
  913MOL0     C23129  10.183   8.824   8.642 -0.7020 -0.0783 -0.2554
  913MOL0     C23130  10.067   8.730   8.640  0.6025 -0.0490 -0.0412
  913MOL0     C23131   9.959   8.786   8.548  0.0339  1.2022  0.3134
  913MOL0     C23132   9.841   8.683   8.552  0.2351 -0.3091 -1.1626
  913MOL0     C23133   9.729   8.744   8.472 -0.3658 -0.7870  0.2326
  913MOL0     C23134   9.608   8.656   8.477 -0.3421 -0.0439 -0.4772
  913MOL0     C23135   9.494   8.729   8.406 -0.3517  0.5220 -1.1618
  913MOL0     C23136   9.422   8.819   8.499  0.1530  0.0055  0.3870
  913MOL0     N23137   9.298   8.873   8.434 -0.5798 -0.0938 -0.5668
  913MOL0     C23138   9.180   8.799   8.419 -0.4208 -0.1165  0.3070
  913MOL0     C23139   9.093   8.874   8.350 -0.2175 -0.0658 -0.3749
  913MOL0     C23140   8.958   8.836   8.297 -0.1565  0.1838  0.3427
  913MOL0     C23141   8.840   8.880   8.377 -0.3009 -0.1502 -0.0554
  913MOL0     C23142   8.704   8.855   8.303  0.0980 -0.3627 -0.0474
  913MOL0     C23143   8.679   8.922   8.170  0.5728 -0.0129 -0.1743
  913MOL0     O23144   8.547   8.891   8.122 -0.8213 -0.1411  0.1476
  913MOL0     C23145   8.440   8.963   8.162  0.1267 -0.1742 -0.9683
  913MOL0     C23146   8.443   9.069   8.247  0.0103  0.2438  0.8838
  913MOL0     C23147   8.328   9.147   8.281 -0.3990 -0.3321  0.6677
  913MOL0     C23148   8.362   9.256   8.387 -0.0116  0.0912 -0.6176
  913MOL0     C23149   8.201   9.109   8.230 -0.4784 -0.1190  0.4323
  913MOL0     C23150   8.076   9.181   8.259  0.6459  1.0580 -0.4487
  913MOL0     O23151   7.960   9.105   8.253  1.0123 -0.6869  0.6981
  913MOL0     C23152   7.851   9.188   8.240  0.1266  0.2422 -0.6478
  913MOL0     C23153   7.761   9.182   8.345 -0.1170  0.1880 -0.0765
  913MOL0     C23154   7.636   9.251   8.333  0.5175 -0.1984  0.3083
  913MOL0     C23155   7.594   9.318   8.221  0.4746  0.6092 -0.0094
  913MOL0     O23156   7.463   9.362   8.210 -0.1769  0.1709 -0.5122
  913MOL0     C23157   7.405   9.366   8.076 -0.3861 -0.3445 -0.6330
  913MOL0     C23158   7.253   9.373   8.078 -0.3174  0.0046  0.8021
  913MOL0     C23159   7.193   9.508   8.138 -0.5476 -0.1067  0.4960
  913MOL0     C23160   7.051   9.537   8.097  0.2866 -0.0502  0.8201
  913MOL0     C23161   6.993   9.636   8.197 -0.3761 -0.3185  0.0300
  913MOL0     C23162   6.858   9.708   8.157  0.4745 -0.3198 -0.0580
  913MOL0     C23163   6.790   9.802   8.258  0.0198  0.8728  0.5203
  913MOL0     C23164   6.653   9.847   8.214  0.8350 -0.0260  0.2422
  913MOL0    Cl23165   6.648   9.880   8.033 -0.5123 -0.0627 -0.2061
  913MOL0     C23166   7.692   9.329   8.118  0.0456  0.0663 -1.4137
  913MOL0     C23167   7.813   9.262   8.126  0.1598  1.0560 -1.1275
  913MOL0     O23168   8.085   9.299   8.282 -1.2581 -0.0839  0.0599
  913MOL0     C23169   8.195   8.993   8.146  0.3364 -0.6191 -0.4710
  913MOL0     C23170   8.312   8.919   8.117 -0.2762  0.1293  0.0975
  913MOL0     N23171   9.162   8.992   8.320  0.5417 -0.3076 -0.0362
  913MOL0     N23172   9.281   8.995   8.374  0.3534  0.2767  0.0434
  913MOL0     C23173  10.405   8.824   8.931  0.3603 -0.9197  0.1928
  913MOL0     C23174  10.496   8.896   9.005  0.0174 -0.2828 -0.3386
  913MOL0     C23175  10.748   9.286   9.096  0.4872 -0.5928  0.4412
  913MOL0     C23176  10.880   9.327   9.071 -0.2615  0.1079  0.7834
  913MOL0     C23177  10.944   9.409   9.160 -0.4592  0.3541  1.6634
  913MOL0     C23178  10.891   9.460   9.272 -0.1449 -0.2642 -0.5546
  913MOL0     O23179  10.967   9.534   9.351 -0.5403 -0.4035 -0.3017
  913MOL0     C23180  10.909   9.657   9.409  0.7428 -0.3446 -0.3964
  913MOL0     C23181  10.823   9.746   9.309 -0.9775 -0.2192 -0.7055
  913MOL0     C23182  10.714   9.818   9.389  0.2784  0.3701  0.6967
  913MOL0     C23183  10.765   9.895   9.514 -0.8109  1.0547  0.3227
  913MOL0     C23184  10.654   9.913   9.607  0.7002  0.0000  0.2492
  913MOL0     C23185  10.551   9.919   9.672 -0.1533 -0.0988 -0.4811
  913MOL0     C23186  10.755   9.427   9.291 -0.4615  0.4006  0.6903
  913MOL0     C23187  10.680   9.342   9.208 -0.5343 -0.1609 -0.1560
  913MOL0     H23188  10.467   9.189   8.824  0.4741 -0.9641 -2.5748
  913MOL0     H23189  10.332   9.049   8.687 -0.4927 -2.0440 -0.0473
  913MOL0     H23190  10.155   8.928   8.661 -2.7700 -0.5409 -0.5322
  913MOL0     H23191  10.239   8.814   8.548 -1.1585  0.6878 -0.6228
  913MOL0     H23192  10.104   8.630   8.617  1.3783 -0.0768  1.2415
  913MOL0     H23193  10.020   8.731   8.739 -1.6631 -0.0117 -1.0422
  913MOL0     H23194   9.924   8.881   8.588 -0.1253  0.4099  2.1503
  913MOL0     H23195   9.996   8.790   8.445  1.3293  2.1455  0.7897
  913MOL0     H23196   9.880   8.596   8.498  1.4336 -0.2288 -0.4717
  913MOL0     H23197   9.832   8.652   8.657  1.4319 -0.9941 -1.2370
  913MOL0     H23198   9.699   8.841   8.514  0.7287 -1.7241  3.4330
  913MOL0     H23199   9.755   8.756   8.366  4.0530  0.6808  1.2882
  913MOL0     H23200   9.628   8.576   8.404  0.7601  0.1086 -0.3622
  913MOL0     H23201   9.580   8.634   8.580  1.5350  2.8944  0.7693
  913MOL0     H23202   9.518   8.774   8.309  0.2478  2.2548 -0.2471
  913MOL0     H23203   9.417   8.658   8.374 -1.2575  1.0285 -0.1926
  913MOL0     H23204   9.483   8.906   8.525  1.2249 -0.9628  1.2106
  913MOL0     H23205   9.399   8.766   8.592  0.8872  0.0696  0.6160
  913MOL0     H23206   9.159   8.695   8.444 -1.8870  0.1250  0.1967
  913MOL0     H23207   8.948   8.879   8.197  0.1770  0.5939  0.4848
  913MOL0     H23208   8.944   8.729   8.281  1.6861  0.2780 -2.5832
  913MOL0     H23209   8.851   8.983   8.412  0.5019 -0.0085 -0.6975
  913MOL0     H23210   8.834   8.825   8.472 -0.0242 -0.6073 -0.2995
  913MOL0     H23211   8.616   8.879   8.364  0.4900  2.1802 -0.3673
  913MOL0     H23212   8.699   8.747   8.285 -1.3528 -0.1549 -1.0291
  913MOL0     H23213   8.741   8.868   8.098  1.5981 -2.3603  2.2798
  913MOL0     H23214   8.705   9.028   8.174  0.5881 -0.0430  1.1277
  913MOL0     H23215   8.537   9.115   8.278 -1.1076  3.1104  0.3283
  913MOL0     H23216   8.361   9.355   8.339 -1.0010 -0.1976 -1.2310
  913MOL0     H23217   8.290   9.256   8.469  0.1398 -2.0970 -0.4303
  913MOL0     H23218   8.463   9.247   8.427 -0.1033 -3.8118 -0.9427
  913MOL0     H23219   7.786   9.126   8.436 -1.7043 -2.0666 -0.9355
  913MOL0     H23220   7.567   9.232   8.415  2.4432 -3.1898  1.4168
  913MOL0     H23221   7.454   9.444   8.016  0.2963 -0.7090 -0.5633
  913MOL0     H23222   7.426   9.271   8.026  1.8123 -0.7177  0.8318
  913MOL0     H23223   7.217   9.367   7.975 -1.0321  2.1292  0.8690
  913MOL0     H23224   7.221   9.280   8.127 -0.6141  0.1541  0.8958
  913MOL0     H23225   7.261   9.590   8.110  0.2051 -0.7750  0.3197
  913MOL0     H23226   7.188   9.496   8.246 -3.0121  1.9852  0.7119
  913MOL0     H23227   7.061   9.573   7.994 -1.4179  2.2618  1.3685
  913MOL0     H23228   6.993   9.445   8.099  1.7768 -1.0773 -0.6649
  913MOL0     H23229   7.076   9.708   8.196 -3.2360  3.2890 -2.1270
  913MOL0     H23230   6.976   9.584   8.292  1.6894  0.6289  0.9882
  913MOL0     H23231   6.880   9.774   8.072  0.3771  0.4860  0.5355
  913MOL0     H23232   6.784   9.635   8.123 -0.4192  1.1749 -1.5272
  913MOL0     H23233   6.855   9.888   8.275  2.2221 -0.5303 -0.3271
  913MOL0     H23234   6.786   9.746   8.352  0.7467 -0.6503 -0.3212
  913MOL0     H23235   6.627   9.939   8.268  1.1967 -0.3526  0.9806
  913MOL0     H23236   6.578   9.772   8.241  0.8211 -0.2371 -0.3731
  913MOL0     H23237   7.663   9.380   8.027  0.0113  0.3495 -1.2444
  913MOL0     H23238   7.875   9.254   8.037  1.3306 -0.5913 -0.2089
  913MOL0     H23239   8.099   8.979   8.096  0.5397 -0.7051 -0.8454
  913MOL0     H23240   8.313   8.833   8.051  2.1093 -0.9388  1.3931
  913MOL0     H23241  10.390   8.721   8.960 -0.5565 -0.1250  2.7989
  913MOL0     H23242  10.544   8.846   9.088  1.4814  0.3546 -0.7747
  913MOL0     H23243  10.929   9.300   8.979  0.9927  1.1206  1.1262
  913MOL0     H23244  11.044   9.441   9.133 -0.3818 -0.0793  1.4256
  913MOL0     H23245  10.846   9.623   9.492  1.5238 -1.0347 -0.0732
  913MOL0     H23246  10.992   9.718   9.447 -1.2936  1.4829  1.4204
  913MOL0     H23247  10.777   9.678   9.236 -2.8578 -0.0626  0.2621
  913MOL0     H23248  10.886   9.818   9.257 -0.8402  0.9099  0.9506
  913MOL0     H23249  10.636   9.746   9.415 -1.7871  2.2160 -0.1358
  913MOL0     H23250  10.659   9.888   9.326  0.0864  0.8619  1.4094
  913MOL0     H23251  10.808   9.992   9.487 -1.0871  1.6004  1.7835
  913MOL0     H23252  10.847   9.840   9.562  0.9662  1.4773 -2.0507
  913MOL0     H23253  10.461   9.917   9.731 -0.9206 -0.0300 -1.6146
  913MOL0     H23254  10.715   9.466   9.384  0.3018  1.9478  0.3971
  913MOL0     H23255  10.574   9.320   9.219 -1.0252  0.8252 -2.4348
  914MOL0     O23256   2.038  10.297   7.152  0.7119 -0.1177  0.4007
  914MOL0     C23257   2.020  10.195   7.088  0.0586  0.1889 -0.5021
  914MOL0     O23258   1.918  10.176   7.002  0.1105 -0.5953 -0.1458
  914MOL0     C23259   1.809  10.268   7.009 -0.7634  0.4075 -0.1705
  914MOL0     C23260   1.820  10.397   6.957 -0.0519  0.2151 -0.0453
  914MOL0     C23261   1.715  10.488   6.957 -0.3865 -0.3157  0.3681
  914MOL0     C23262   1.592  10.448   7.007  0.2211  0.2163  0.3662
  914MOL0     O23263   1.493  10.540   6.987  0.6419  0.3112 -0.7631
  914MOL0     C23264   1.362  10.521   7.036 -0.5508 -0.0768 -0.0585
  914MOL0     C23265   1.253  10.535   6.933 -0.3045 -0.4506  0.0744
  914MOL0     C23266   1.207  10.398   6.875 -0.2584 -0.1831  0.5629
  914MOL0     C23267   1.115  10.326   6.966 -0.6564 -0.1642  0.4116
  914MOL0     C23268   1.033  10.222   6.884 -0.6762 -0.3264  0.3674
  914MOL0     C23269   0.908  10.162   6.953 -1.0307  0.0342 -0.5916
  914MOL0     C23270   0.942  10.065   7.063  1.1970  0.2301 -0.5780
  914MOL0     C23271   1.014   9.942   7.014  0.0041  0.2167 -0.2138
  914MOL0     N23272   1.158   9.933   7.054 -0.0555  0.6422 -0.0374
  914MOL0     C23273   1.214   9.824   7.126  0.1471 -0.5214  0.7111
  914MOL0     C23274   1.332   9.864   7.173 -0.2952 -0.2874  0.1034
  914MOL0     C23275   1.435   9.770   7.229 -0.1038 -0.6117 -0.0816
  914MOL0     C23276   1.535   9.718   7.128  0.4275 -0.1806  0.6744
  914MOL0     C23277   1.626   9.825   7.066  0.6425 -0.1579 -0.4818
  914MOL0     C23278   1.733   9.784   6.965  0.5326  0.3205  0.7692
  914MOL0     O23279   1.816   9.689   7.023 -0.1743  0.9036  0.0028
  914MOL0     C23280   1.917   9.620   6.963 -0.4076  0.5579  0.2255
  914MOL0     C23281   1.926   9.616   6.825 -0.5239 -0.1702  0.9606
  914MOL0     C23282   2.036   9.540   6.759  0.3147 -0.9873 -0.4986
  914MOL0     C23283   2.046   9.542   6.610 -0.0389 -0.2873  0.1791
  914MOL0     C23284   2.113   9.453   6.845 -0.6400 -0.7543  0.0682
  914MOL0     C23285   2.222   9.375   6.786  1.1352 -0.1048  0.0388
  914MOL0     O23286   2.339   9.440   6.748 -0.3000  0.0909 -0.3204
  914MOL0     C23287   2.435   9.377   6.671  0.3048  0.0309 -0.2011
  914MOL0     C23288   2.555   9.347   6.731 -0.2310  0.3890 -0.9606
  914MOL0     C23289   2.659   9.288   6.650 -0.1499 -0.9351 -0.2584
  914MOL0     C23290   2.644   9.246   6.521  0.7429  0.0044  0.2655
  914MOL0     O23291   2.732   9.174   6.452 -0.1029  0.0596 -0.1527
  914MOL0     C23292   2.869   9.209   6.475 -0.4941 -0.6378  0.1446
  914MOL0     C23293   2.943   9.105   6.553  0.3249  0.2325  0.4961
  914MOL0     C23294   3.099   9.125   6.530  0.0689  0.1548 -0.7571
  914MOL0     C23295   3.178   9.022   6.615  0.1062  0.1089  0.2552
  914MOL0     C23296   3.325   9.068   6.619 -0.2571 -0.1250  0.2833
  914MOL0     C23297   3.402   8.964   6.710 -0.5983  0.2122 -0.2898
  914MOL0     C23298   3.539   9.005   6.772 -0.0354  0.1486  0.6483
  914MOL0     C23299   3.637   9.055   6.657  0.0893  0.0889 -1.1417
  914MOL0    Cl23300   3.665   9.239   6.677 -0.4215 -0.3129  0.0763
  914MOL0     C23301   2.509   9.270   6.474  0.2948  0.1352 -0.6368
  914MOL0     C23302   2.411   9.344   6.545  0.3725  0.5005  0.2929
  914MOL0     O23303   2.200   9.253   6.763  0.3990  0.6890 -0.5523
  914MOL0     C23304   2.088   9.447   6.980  0.0829 -0.5009  0.1388
  914MOL0     C23305   1.989   9.537   7.037 -0.6060  2.2160  0.0614
  914MOL0     N23306   1.354   9.994   7.129  0.9798  0.0162 -0.3312
  914MOL0     N23307   1.248  10.038   7.065 -0.5563 -0.1698 -0.1539
  914MOL0     C23308   1.581  10.321   7.060 -0.2848  0.4773 -0.2861
  914MOL0     C23309   1.691  10.233   7.068  0.0717 -0.0819  0.9523
  914MOL0     C23310   2.122  10.085   7.103  0.0391  0.4651  0.5229
  914MOL0     C23311   2.101   9.958   7.038 -0.2799 -0.3779  0.6607
  914MOL0     C23312   2.193   9.854   7.057 -0.5836 -0.9825  0.1773
  914MOL0     C23313   2.308   9.872   7.129 -0.2626 -0.2241 -0.3777
  914MOL0     O23314   2.406   9.778   7.142 -0.6353  0.3607 -0.6518
  914MOL0     C23315   2.426   9.667   7.054  0.5579 -0.0956 -0.2466
  914MOL0     C23316   2.520   9.694   6.933  0.5466 -0.5276  0.1747
  914MOL0     C23317   2.668   9.728   6.976  1.0003  0.1394 -0.7082
  914MOL0     C23318   2.733   9.597   7.011  0.9804 -0.2078  0.3617
  914MOL0     C23319   2.868   9.612   7.044 -0.3528  0.4671  0.6047
  914MOL0     C23320   2.983   9.620   7.062  0.0387  0.3351  0.8218
  914MOL0     C23321   2.325   9.991   7.200 -0.0198 -0.1015  0.1250
  914MOL0     C23322   2.240  10.100   7.175 -0.1580  0.3647 -0.0665
  914MOL0     H23323   1.912  10.431   6.909 -0.9843  0.4163 -1.7761
  914MOL0     H23324   1.721  10.587   6.912 -0.5387 -0.2395  0.5182
  914MOL0     H23325   1.340  10.430   7.091  0.8459  0.7620  2.0229
  914MOL0     H23326   1.355  10.601   7.111  1.1408  0.4581 -0.4436
  914MOL0     H23327   1.172  10.598   6.969  1.7799  2.0430  0.7056
  914MOL0     H23328   1.309  10.590   6.856  4.2563  0.6163  3.7271
  914MOL0     H23329   1.153  10.412   6.781 -0.8583 -0.5077  0.8528
  914MOL0     H23330   1.293  10.336   6.848 -1.5579 -1.9376  0.2457
  914MOL0     H23331   1.170  10.276   7.047  1.5004  0.3640 -0.6461
  914MOL0     H23332   1.051  10.406   7.003 -0.8674  0.5131 -1.3296
  914MOL0     H23333   1.004  10.265   6.788 -1.3248  2.9338  1.8577
  914MOL0     H23334   1.105  10.149   6.847  1.3609  1.9326 -0.4214
  914MOL0     H23335   0.858  10.247   7.000 -0.7695  0.5319 -1.1991
  914MOL0     H23336   0.847  10.123   6.872 -1.7060  4.0219 -2.2362
  914MOL0     H23337   0.990  10.105   7.152  2.5645  0.0711 -1.2272
  914MOL0     H23338   0.851  10.012   7.095  2.2895 -0.3973  1.6707
  914MOL0     H23339   0.988   9.923   6.909  0.1694  2.3021 -0.6969
  914MOL0     H23340   0.962   9.863   7.067  1.7291 -1.2459 -0.6002
  914MOL0     H23341   1.162   9.732   7.151 -0.4368 -0.5444 -0.5192
  914MOL0     H23342   1.502   9.828   7.293  1.6297  0.0295 -2.3438
  914MOL0     H23343   1.393   9.683   7.280  0.9823 -0.0904  1.7926
  914MOL0     H23344   1.478   9.673   7.046 -0.4599  0.3932  0.9572
  914MOL0     H23345   1.598   9.645   7.178 -0.8112  0.1755  2.8696
  914MOL0     H23346   1.687   9.868   7.147  0.6611  0.4283 -0.8026
  914MOL0     H23347   1.570   9.909   7.024 -0.7506 -0.0392  1.4446
  914MOL0     H23348   1.793   9.868   6.929  0.3427  0.6695  1.2571
  914MOL0     H23349   1.687   9.746   6.873 -4.5376 -3.2655  4.2650
  914MOL0     H23350   1.851   9.668   6.765 -2.0149 -2.3650  0.8345
  914MOL0     H23351   1.984   9.614   6.555  0.9125 -1.2188 -2.2616
  914MOL0     H23352   2.148   9.569   6.579 -0.6232  1.1804 -0.5886
  914MOL0     H23353   2.033   9.442   6.567  1.9183 -0.5091 -0.0050
  914MOL0     H23354   2.573   9.375   6.834  0.4332 -0.4371 -0.8365
  914MOL0     H23355   2.751   9.265   6.704 -0.6208 -1.1936  0.4512
  914MOL0     H23356   2.916   9.218   6.377  3.2108 -1.5063  1.6891
  914MOL0     H23357   2.882   9.308   6.520  1.0078  0.3433 -2.2025
  914MOL0     H23358   2.914   9.113   6.658 -2.4245  0.1739 -0.1820
  914MOL0     H23359   2.918   9.009   6.507  0.1110  0.3795  0.3040
  914MOL0     H23360   3.132   9.224   6.561  2.3971  0.2881 -3.3122
  914MOL0     H23361   3.115   9.125   6.422 -1.7067 -0.5455 -1.0474
  914MOL0     H23362   3.155   9.039   6.720  2.2906 -0.6627  0.9075
  914MOL0     H23363   3.156   8.919   6.585 -0.6390  0.0228  1.0644
  914MOL0     H23364   3.331   9.162   6.674 -1.8429 -1.2390  2.5364
  914MOL0     H23365   3.360   9.074   6.516  0.2891  0.5370  0.5001
  914MOL0     H23366   3.341   8.925   6.792  0.7027 -3.4244 -0.8831
  914MOL0     H23367   3.424   8.875   6.649  0.4974  1.1317 -1.3031
  914MOL0     H23368   3.593   8.918   6.811 -1.6306 -0.5281  1.4335
  914MOL0     H23369   3.516   9.076   6.852  0.7356  0.9329  0.1987
  914MOL0     H23370   3.599   9.034   6.556  2.3850  2.3376 -2.5796
  914MOL0     H23371   3.734   9.006   6.663 -1.1670 -2.4239  0.4374
  914MOL0     H23372   2.484   9.247   6.371 -2.6586 -1.0003  0.2155
  914MOL0     H23373   2.315   9.364   6.499 -0.9497 -1.4570  2.0183
  914MOL0     H23374   2.142   9.388   7.053 -1.0967 -2.0739 -0.1966
  914MOL0     H23375   1.971   9.523   7.143  1.1746 -0.2340  0.1355
  914MOL0     H23376   1.488  10.278   7.096 -0.3958  0.8095 -0.1722
  914MOL0     H23377   1.670  10.135   7.108  0.2743 -0.0937  1.0304
  914MOL0     H23378   2.013   9.940   6.977  0.7712 -0.3428 -0.9340
  914MOL0     H23379   2.178   9.763   6.998 -0.8470 -0.1912 -1.0095
  914MOL0     H23380   2.460   9.581   7.112 -0.5741 -1.0037 -0.8904
  914MOL0     H23381   2.330   9.632   7.015  0.8330 -1.2766  0.1003
  914MOL0     H23382   2.464   9.769   6.875 -3.3919 -3.8688 -0.7531
  914MOL0     H23383   2.519   9.611   6.862  2.9635 -1.5625  1.2473
  914MOL0     H23384   2.670   9.784   7.070  1.6479  0.9904 -1.2171
  914MOL0     H23385   2.721   9.784   6.898  3.1339 -0.0527  0.5065
  914MOL0     H23386   2.709   9.534   6.925 -0.1333 -1.2638  1.3951
  914MOL0     H23387   2.676   9.540   7.085 -1.9334  0.8384 -0.8841
  914MOL0     H23388   3.090   9.631   7.059  0.2454 -1.6573 -1.0063
  914MOL0     H23389   2.411  10.016   7.262 -0.5012 -1.1805  1.2690
  914MOL0     H23390   2.260  10.198   7.218 -0.9789  0.4428  0.1637
  915MOL0     O23391   5.269   4.193   6.676 -0.4198 -0.1607  0.3842
  915MOL0     C23392   5.319   4.102   6.745  0.4763 -0.0432  0.2493
  915MOL0     O23393   5.261   3.987   6.791 -0.2910 -0.6004  0.0598
  915MOL0     C23394   5.127   3.966   6.764 -0.0494  0.2054 -0.0195
  915MOL0     C23395   5.030   3.999   6.864  0.4771 -1.0261  0.0498
  915MOL0     C23396   4.900   3.958   6.848 -0.4159  0.1007 -0.0813
  915MOL0     C23397   4.848   3.912   6.732  0.6367  0.0890  0.1427
  915MOL0     O23398   4.717   3.880   6.722  0.4076 -0.2182 -0.2486
  915MOL0     C23399   4.617   3.976   6.775  0.5923 -0.8064  1.8865
  915MOL0     C23400   4.481   3.924   6.725  0.6626 -0.8436  0.3188
  915MOL0     C23401   4.441   3.987   6.587 -0.5844  0.0156 -0.0510
  915MOL0     C23402   4.294   3.973   6.577  0.4932  0.2421 -0.1907
  915MOL0     C23403   4.248   4.027   6.437  0.2375  0.2432 -0.8190
  915MOL0     C23404   4.098   4.016   6.409  0.3407 -0.1981  0.1567
  915MOL0     C23405   4.053   4.101   6.299  0.1826 -0.2144  0.1871
  915MOL0     C23406   4.092   4.041   6.153 -0.2905  0.1008 -0.1251
  915MOL0     N23407   3.987   3.944   6.125  0.2626 -0.2749  0.3953
  915MOL0     C23408   3.851   3.969   6.102 -0.0447  0.1228  0.4757
  915MOL0     C23409   3.806   3.852   6.058 -0.3590  0.3524 -0.8457
  915MOL0     C23410   3.680   3.820   5.999  0.6759  0.4830  0.2898
  915MOL0     C23411   3.584   3.731   6.088  1.3295 -0.1844 -0.2098
  915MOL0     C23412   3.457   3.675   6.016  0.4355 -0.5031  0.1578
  915MOL0     C23413   3.469   3.529   5.976  0.7212  0.2194  0.0729
  915MOL0     O23414   3.435   3.445   6.088  0.0394 -0.8127 -0.1246
  915MOL0     C23415   3.305   3.397   6.105  0.1506  0.0488 -0.5953
  915MOL0     C23416   3.294   3.285   6.192 -0.4749 -0.2648  0.4505
  915MOL0     C23417   3.169   3.227   6.216  0.5140  0.7362 -0.3905
  915MOL0     C23418   3.177   3.119   6.324  0.2096  0.2672  0.4286
  915MOL0     C23419   3.049   3.295   6.175  0.0520 -0.1609  0.4761
  915MOL0     C23420   2.922   3.247   6.214  0.2103  0.0499 -0.2010
  915MOL0     O23421   2.817   3.304   6.142 -0.4656  0.1866  0.3729
  915MOL0     C23422   2.691   3.281   6.187  0.2261  0.5694 -0.0261
  915MOL0     C23423   2.641   3.333   6.304 -0.5248  0.0647 -0.2234
  915MOL0     C23424   2.512   3.297   6.348  0.2111 -0.4544 -0.3615
  915MOL0     C23425   2.435   3.197   6.284  0.1220  0.2945 -0.4752
  915MOL0     O23426   2.306   3.168   6.335 -0.1174 -0.2818 -0.3337
  915MOL0     C23427   2.223   3.111   6.241  0.0974 -0.5911  0.5784
  915MOL0     C23428   2.080   3.141   6.286  0.2020 -0.2184  0.6508
  915MOL0     C23429   1.979   3.062   6.206 -0.6462 -0.2734 -0.4108
  915MOL0     C23430   1.838   3.130   6.240 -0.3779  0.5199 -0.3170
  915MOL0     C23431   1.727   3.063   6.169 -0.0148 -0.3593 -0.4621
  915MOL0     C23432   1.596   3.132   6.199  0.4963 -0.5916 -0.2287
  915MOL0     C23433   1.494   3.094   6.087  0.2963 -0.2814  0.1115
  915MOL0     C23434   1.385   3.197   6.065  0.2359  0.3819 -0.1823
  915MOL0    Cl23435   1.283   3.136   5.926 -0.0051  0.0306 -0.2486
  915MOL0     C23436   2.487   3.154   6.157 -0.6024 -0.3491  0.0862
  915MOL0     C23437   2.610   3.197   6.113  0.9359  0.3022 -0.8175
  915MOL0     O23438   2.910   3.180   6.315  0.1127  0.1389  0.7571
  915MOL0     C23439   3.066   3.412   6.095  0.3078  0.4893 -0.5440
  915MOL0     C23440   3.187   3.464   6.063 -0.3401  0.4597  0.2219
  915MOL0     N23441   3.906   3.754   6.067 -0.0662 -0.0821  0.1263
  915MOL0     N23442   4.012   3.808   6.120  0.4980  0.8373  0.0492
  915MOL0     C23443   4.935   3.894   6.633 -0.2005  0.3473  0.1866
  915MOL0     C23444   5.073   3.908   6.647 -0.0958  0.1578 -0.3254
  915MOL0     C23445   5.456   4.114   6.776  0.1677  0.4022  0.0808
  915MOL0     C23446   5.535   4.014   6.843  1.1964  0.4195 -0.0481
  915MOL0     C23447   5.670   4.034   6.882 -0.6932 -0.1502 -0.5851
  915MOL0     C23448   5.741   4.149   6.834 -0.1257  0.7701 -0.5942
  915MOL0     O23449   5.878   4.169   6.864  0.1880  0.2275  0.7319
  915MOL0     C23450   5.946   4.076   6.943 -0.6973  0.7487  0.5035
  915MOL0     C23451   6.079   4.120   7.002 -0.0165 -0.4991 -0.1934
  915MOL0     C23452   6.192   4.139   6.900 -0.5711 -0.0390 -0.4249
  915MOL0     C23453   6.334   4.182   6.960  0.0374 -0.7472 -0.5038
  915MOL0     C23454   6.332   4.331   7.001 -0.6925 -0.1155  0.8041
  915MOL0     C23455   6.345   4.451   7.020  0.5343  0.4108  0.3558
  915MOL0     C23456   5.668   4.255   6.776 -0.2234 -0.0395  0.5564
  915MOL0     C23457   5.528   4.242   6.752  0.1700  0.8606  0.5944
  915MOL0     H23458   5.051   4.042   6.962 -2.3080  0.3490  0.1237
  915MOL0     H23459   4.835   3.963   6.935 -0.0535  0.9460  0.1535
  915MOL0     H23460   4.623   3.982   6.884  0.4937  2.1925  1.8072
  915MOL0     H23461   4.648   4.075   6.741 -3.7186  0.7778  1.9950
  915MOL0     H23462   4.497   3.816   6.714 -0.1796 -1.0309  0.8782
  915MOL0     H23463   4.402   3.939   6.799  0.7675 -0.9050  0.4440
  915MOL0     H23464   4.477   4.090   6.578  2.1371 -0.9654 -1.5829
  915MOL0     H23465   4.491   3.939   6.502 -3.0438 -1.6187 -0.7046
  915MOL0     H23466   4.261   3.869   6.588  1.5908 -0.1710 -0.6887
  915MOL0     H23467   4.252   4.024   6.663 -0.8921 -2.1899  0.6837
  915MOL0     H23468   4.274   4.133   6.428  1.5028  0.0675  0.4203
  915MOL0     H23469   4.307   3.983   6.355  0.8570  0.7114 -0.6368
  915MOL0     H23470   4.074   3.913   6.381 -0.0533 -0.2227  0.5872
  915MOL0     H23471   4.040   4.052   6.494  1.6822  0.2860  0.9082
  915MOL0     H23472   3.944   4.098   6.299  0.1513 -3.7130 -1.3363
  915MOL0     H23473   4.099   4.200   6.309  0.0098  0.1773 -2.3244
  915MOL0     H23474   4.191   3.998   6.167 -0.8193 -1.1087  0.0437
  915MOL0     H23475   4.100   4.115   6.072  3.8982 -1.6999 -1.6375
  915MOL0     H23476   3.798   4.061   6.123  1.5697  1.3659 -0.6912
  915MOL0     H23477   3.634   3.914   5.966 -0.0579  0.2516  0.6302
  915MOL0     H23478   3.694   3.753   5.913 -4.0710 -2.5645  1.4667
  915MOL0     H23479   3.544   3.797   6.166 -0.1960  0.2781 -1.3261
  915MOL0     H23480   3.639   3.649   6.134  0.6964 -1.0501 -0.9742
  915MOL0     H23481   3.433   3.730   5.925 -3.6942 -1.3625  0.5219
  915MOL0     H23482   3.373   3.686   6.086  0.8280  3.6330  0.2339
  915MOL0     H23483   3.568   3.518   5.931  0.0300  1.1965 -1.8080
  915MOL0     H23484   3.414   3.499   5.886  0.3264 -1.8912  0.9672
  915MOL0     H23485   3.379   3.254   6.252 -0.3237 -0.1698  0.2880
  915MOL0     H23486   3.118   3.039   6.278 -1.5270  2.1347 -0.7708
  915MOL0     H23487   3.281   3.090   6.339  1.7539  3.2905 -2.7685
  915MOL0     H23488   3.141   3.160   6.418  2.0311 -0.0638  1.3186
  915MOL0     H23489   2.704   3.395   6.366  0.9349 -2.0842  0.5606
  915MOL0     H23490   2.473   3.351   6.434  0.0244  1.5474 -1.6433
  915MOL0     H23491   2.230   3.146   6.138  1.4889  0.6355  1.0508
  915MOL0     H23492   2.236   3.003   6.249  2.4375 -0.4582 -0.7492
  915MOL0     H23493   2.065   3.105   6.388  1.3509 -1.2120  0.4993
  915MOL0     H23494   2.072   3.250   6.285  1.1561 -0.1315 -0.6405
  915MOL0     H23495   1.973   2.957   6.236  3.0759 -1.1960 -2.2868
  915MOL0     H23496   2.009   3.078   6.102  1.3946  1.7766  0.3880
  915MOL0     H23497   1.825   3.127   6.349  3.4009  0.4022  0.2734
  915MOL0     H23498   1.839   3.236   6.211  0.1532  0.1977 -1.5438
  915MOL0     H23499   1.717   2.961   6.208  3.7880 -0.0858  1.7056
  915MOL0     H23500   1.760   3.058   6.064  0.0133 -1.0327 -0.4278
  915MOL0     H23501   1.556   3.112   6.298  2.2268 -0.2747  0.5717
  915MOL0     H23502   1.612   3.238   6.177 -0.3834 -1.0507 -3.7960
  915MOL0     H23503   1.449   2.998   6.115  0.9617 -0.7779 -0.4764
  915MOL0     H23504   1.543   3.085   5.989  0.2680 -0.6297  0.1269
  915MOL0     H23505   1.427   3.291   6.027 -0.8073  1.1455  0.4844
  915MOL0     H23506   1.325   3.214   6.155 -0.4904 -0.2409 -0.5279
  915MOL0     H23507   2.432   3.085   6.094  1.8165 -2.7434  0.4203
  915MOL0     H23508   2.644   3.175   6.012  1.1635  1.9509 -1.1290
  915MOL0     H23509   2.981   3.470   6.063  1.1393  1.1471 -1.6016
  915MOL0     H23510   3.187   3.568   6.031 -2.6230  0.1578 -0.9074
  915MOL0     H23511   4.908   3.864   6.532  1.2031  0.8018 -0.3607
  915MOL0     H23512   5.153   3.877   6.581  1.5655 -2.7347  2.7313
  915MOL0     H23513   5.477   3.926   6.870 -0.5804  0.1010 -4.1960
  915MOL0     H23514   5.726   3.953   6.926 -0.2816  0.5916  0.3016
  915MOL0     H23515   5.882   4.071   7.032 -0.2289 -0.5335  0.7861
  915MOL0     H23516   5.961   3.979   6.894  0.8657  1.3309 -0.2392
  915MOL0     H23517   6.118   4.052   7.079 -1.6415 -0.7876  0.4139
  915MOL0     H23518   6.069   4.218   7.049 -2.3803 -0.6135 -0.3698
  915MOL0     H23519   6.158   4.217   6.832 -0.3020  1.6456  1.2853
  915MOL0     H23520   6.213   4.050   6.839  0.8722  0.6579 -1.0023
  915MOL0     H23521   6.406   4.175   6.879 -0.8292  0.6378 -1.4311
  915MOL0     H23522   6.373   4.110   7.033  0.0945 -0.3211 -0.1070
  915MOL0     H23523   6.360   4.557   7.027  2.8094  0.2100 -0.5112
  915MOL0     H23524   5.730   4.338   6.743 -1.3511  0.5369 -0.2083
  915MOL0     H23525   5.481   4.322   6.695  0.3483  0.5411 -0.0114
  916MOL0     O23526   7.262   9.299   4.339 -0.2636  0.1156 -0.2926
  916MOL0     C23527   7.294   9.207   4.263  0.2763 -0.7834 -0.1868
  916MOL0     O23528   7.210   9.117   4.204  0.0680 -0.1511  0.1601
  916MOL0     C23529   7.079   9.121   4.248  0.0973  0.4878 -0.1599
  916MOL0     C23530   7.017   9.019   4.324 -0.8204 -0.1552 -0.1944
  916MOL0     C23531   6.877   9.025   4.338 -0.0422 -0.2871 -1.1023
  916MOL0     C23532   6.799   9.129   4.298 -0.7226  0.4480  0.1321
  916MOL0     O23533   6.662   9.133   4.293  0.4283 -0.4577 -0.0407
  916MOL0     C23534   6.601   9.119   4.420  0.3959  0.2359  0.1903
  916MOL0     C23535   6.446   9.115   4.400  0.2657  0.0826 -0.0629
  916MOL0     C23536   6.376   9.203   4.299 -0.4720 -1.0446  0.1148
  916MOL0     C23537   6.232   9.248   4.338  0.0550 -0.2542  0.2157
  916MOL0     C23538   6.177   9.334   4.231  0.0120  0.0026 -0.0787
  916MOL0     C23539   6.031   9.364   4.253 -0.2994 -0.7379 -0.0202
  916MOL0     C23540   5.944   9.425   4.145 -0.3910  0.2412 -0.3489
  916MOL0     C23541   5.787   9.411   4.173  0.4184  0.4679  0.9992
  916MOL0     N23542   5.708   9.434   4.051  0.0708 -0.0149 -0.3648
  916MOL0     C23543   5.663   9.351   3.954  0.1819  0.5008 -0.4868
  916MOL0     C23544   5.593   9.418   3.855  0.8993  0.1108 -0.1792
  916MOL0     C23545   5.532   9.361   3.733 -0.4113 -1.0034  0.2612
  916MOL0     C23546   5.402   9.418   3.704  0.0841  0.4481 -0.8266
  916MOL0     C23547   5.328   9.336   3.600 -0.0503 -0.7026 -0.2243
  916MOL0     C23548   5.178   9.387   3.572  0.7209 -0.0860 -0.3324
  916MOL0     O23549   5.089   9.371   3.688  0.2352 -0.1129 -0.2184
  916MOL0     C23550   4.960   9.330   3.681 -0.6295  0.7445 -0.2659
  916MOL0     C23551   4.903   9.270   3.797 -0.4831 -0.5209 -0.6190
  916MOL0     C23552   4.774   9.223   3.797 -1.1950  0.2697 -0.0936
  916MOL0     C23553   4.731   9.144   3.921  0.3661  0.4106  0.3611
  916MOL0     C23554   4.687   9.246   3.692 -0.0883 -0.9991  0.0959
  916MOL0     C23555   4.551   9.185   3.700  0.8045  0.4163 -0.6824
  916MOL0     O23556   4.459   9.240   3.788  0.1842  0.2704  0.0455
  916MOL0     C23557   4.335   9.186   3.800  0.4555 -0.6568  0.3330
  916MOL0     C23558   4.247   9.205   3.691  0.7158 -0.5595 -0.1998
  916MOL0     C23559   4.114   9.161   3.692 -0.4198  0.9035  0.7539
  916MOL0     C23560   4.071   9.082   3.810 -0.9605  0.1733  0.1870
  916MOL0     O23561   3.959   9.005   3.808 -0.4050 -0.0331 -0.3486
  916MOL0     C23562   3.856   9.043   3.725  0.5256 -0.1869 -0.4641
  916MOL0     C23563   3.724   9.022   3.792 -0.6141  0.8369 -0.2149
  916MOL0     C23564   3.704   9.127   3.902  0.4390 -0.0630  0.2551
  916MOL0     C23565   3.566   9.109   3.969 -0.1811  0.0856  0.2723
  916MOL0     C23566   3.560   9.223   4.069  0.4557 -0.3116  0.5818
  916MOL0     C23567   3.452   9.204   4.176 -0.0156 -0.6228 -0.0038
  916MOL0     C23568   3.446   9.330   4.273  0.1060  0.3004  0.1726
  916MOL0     C23569   3.346   9.310   4.386  0.0494  0.0533  0.9380
  916MOL0    Cl23570   3.276   9.456   4.436 -0.0667 -0.2257 -0.2546
  916MOL0     C23571   4.151   9.071   3.917 -0.4165 -0.0731 -0.1121
  916MOL0     C23572   4.287   9.112   3.912  0.1321 -0.2282  0.0385
  916MOL0     O23573   4.546   9.078   3.639  0.4627 -0.8454  0.4814
  916MOL0     C23574   4.736   9.310   3.581 -0.3161 -0.0551 -0.0128
  916MOL0     C23575   4.872   9.349   3.577  0.7925 -0.8362  0.7398
  916MOL0     N23576   5.596   9.551   3.896 -0.7516 -0.3295  1.0985
  916MOL0     N23577   5.666   9.559   4.004 -0.2515  0.8847  0.1618
  916MOL0     C23578   6.862   9.233   4.234  0.0675 -0.5342 -0.4857
  916MOL0     C23579   6.999   9.229   4.208  0.1972  0.0809  0.4488
  916MOL0     C23580   7.438   9.197   4.222 -1.1236 -0.4153 -0.0180
  916MOL0     C23581   7.530   9.269   4.300  0.2551  0.0296 -0.5574
  916MOL0     C23582   7.666   9.265   4.250  1.3239  0.0254 -0.6328
  916MOL0     C23583   7.706   9.202   4.133 -0.0207 -0.2433  0.7548
  916MOL0     O23584   7.831   9.213   4.091 -0.5312  0.4415  0.5407
  916MOL0     C23585   7.893   9.083   4.065 -1.5277 -0.4845 -0.0827
  916MOL0     C23586   8.014   9.087   4.163 -0.8098  0.4261  0.6291
  916MOL0     C23587   8.070   8.951   4.207 -0.0810  0.0872 -0.0732
  916MOL0     C23588   7.979   8.878   4.303  0.0751  0.0206 -0.1085
  916MOL0     C23589   8.051   8.764   4.367  0.1781  0.5525 -1.1423
  916MOL0     C23590   8.125   8.677   4.406 -0.0121 -0.1828  0.7540
  916MOL0     C23591   7.612   9.134   4.058 -0.2166  0.0954  0.7330
  916MOL0     C23592   7.481   9.129   4.106 -0.2758  0.0573 -0.3349
  916MOL0     H23593   7.077   8.934   4.351  0.9781  0.6452 -1.4735
  916MOL0     H23594   6.829   8.936   4.377 -1.4706  1.5654  1.7493
  916MOL0     H23595   6.651   9.034   4.468 -0.6944 -0.7861 -0.4374
  916MOL0     H23596   6.625   9.214   4.469  1.9899  0.1043 -0.2580
  916MOL0     H23597   6.429   9.012   4.369 -1.5164  0.0883  0.7633
  916MOL0     H23598   6.392   9.119   4.495  2.3250  2.2235  1.1278
  916MOL0     H23599   6.439   9.292   4.284 -1.1194 -0.8384 -1.6516
  916MOL0     H23600   6.367   9.144   4.207  4.3862 -1.2191 -0.5369
  916MOL0     H23601   6.171   9.157   4.346  0.2302 -0.2125  2.8402
  916MOL0     H23602   6.231   9.303   4.432  1.1012 -2.1315  1.3925
  916MOL0     H23603   6.230   9.429   4.220 -0.7770  0.6185  1.2141
  916MOL0     H23604   6.187   9.275   4.140  1.3781 -2.4607  1.5793
  916MOL0     H23605   5.989   9.265   4.272 -1.1700 -0.1070  1.5040
  916MOL0     H23606   6.015   9.428   4.340  1.6242  2.6265 -1.9026
  916MOL0     H23607   5.960   9.534   4.139 -2.8791  0.6892 -0.0576
  916MOL0     H23608   5.974   9.380   4.050 -0.1828  1.2615 -0.7893
  916MOL0     H23609   5.747   9.482   4.246 -1.8513  0.1278  0.1703
  916MOL0     H23610   5.763   9.313   4.215  0.9019 -1.8192 -3.4474
  916MOL0     H23611   5.693   9.246   3.957 -0.2215  0.2104 -3.3505
  916MOL0     H23612   5.606   9.383   3.655  0.7012  0.3030  1.6422
  916MOL0     H23613   5.531   9.253   3.751 -1.5470 -1.0016  0.2838
  916MOL0     H23614   5.408   9.520   3.665 -2.5767 -0.5520 -4.3657
  916MOL0     H23615   5.333   9.419   3.789  2.2430  2.8738  1.0530
  916MOL0     H23616   5.326   9.232   3.635 -1.3927 -0.0191  1.9083
  916MOL0     H23617   5.382   9.335   3.504 -3.2180 -0.0614 -2.1540
  916MOL0     H23618   5.129   9.341   3.485  1.3114  0.5243 -1.0112
  916MOL0     H23619   5.187   9.493   3.545  4.0981  0.0948  1.0302
  916MOL0     H23620   4.950   9.258   3.894 -0.5691 -1.7681 -0.7111
  916MOL0     H23621   4.655   9.068   3.902  0.2697  0.9141 -1.4239
  916MOL0     H23622   4.821   9.103   3.967  0.7089  1.3636  0.5700
  916MOL0     H23623   4.681   9.212   3.991  0.3976  1.7206 -0.8279
  916MOL0     H23624   4.278   9.282   3.621  2.6998  0.0359  1.2513
  916MOL0     H23625   4.055   9.182   3.603  3.1957  2.6773 -1.4516
  916MOL0     H23626   3.862   9.144   3.683  3.2516 -0.0693  0.0266
  916MOL0     H23627   3.853   8.976   3.638 -1.0182 -0.6248 -0.0924
  916MOL0     H23628   3.645   9.025   3.716  0.5092 -1.1928 -1.5661
  916MOL0     H23629   3.726   8.922   3.835 -0.5128 -0.1488 -2.3567
  916MOL0     H23630   3.722   9.225   3.855  1.6632 -0.5491 -0.3185
  916MOL0     H23631   3.785   9.115   3.974  1.1073 -3.2679 -0.8740
  916MOL0     H23632   3.492   9.106   3.889  0.6910  1.4194 -0.6190
  916MOL0     H23633   3.568   9.016   4.026 -0.3264  1.0093  1.8832
  916MOL0     H23634   3.556   9.312   4.006  3.2810 -0.8066 -0.4751
  916MOL0     H23635   3.657   9.235   4.119  0.3508  0.9590  0.5067
  916MOL0     H23636   3.349   9.205   4.138 -1.0595  0.9851  2.6065
  916MOL0     H23637   3.457   9.116   4.239 -0.2623  1.0267  2.4494
  916MOL0     H23638   3.416   9.416   4.212 -2.4171 -0.2406  0.5032
  916MOL0     H23639   3.538   9.358   4.324  0.0473  0.5367  0.1524
  916MOL0     H23640   3.394   9.262   4.472  1.1460  0.8731  0.8030
  916MOL0     H23641   3.277   9.239   4.341  1.6020  0.2025 -1.9743
  916MOL0     H23642   4.117   9.014   4.003  2.0705  0.9225  1.6487
  916MOL0     H23643   4.356   9.104   3.994  0.2068 -1.0231 -0.0892
  916MOL0     H23644   4.662   9.333   3.505  0.6850 -1.4447 -1.4797
  916MOL0     H23645   4.907   9.405   3.491 -1.8588 -2.5850 -1.6486
  916MOL0     H23646   6.808   9.322   4.204  0.8001 -0.3162 -1.1930
  916MOL0     H23647   7.034   9.314   4.150  0.9129 -0.5128 -0.0094
  916MOL0     H23648   7.502   9.324   4.389  1.8082  1.1622 -0.7059
  916MOL0     H23649   7.744   9.316   4.306  0.1187 -0.1921  1.3463
  916MOL0     H23650   7.828   9.002   4.098 -1.0586 -0.9847 -0.3676
  916MOL0     H23651   7.920   9.058   3.962 -0.2131 -1.5842  0.4943
  916MOL0     H23652   8.001   9.148   4.253 -0.6078 -1.1565  1.7734
  916MOL0     H23653   8.097   9.133   4.107 -1.5814 -1.0781 -1.9089
  916MOL0     H23654   8.170   8.965   4.249  0.9399 -1.3289 -1.9297
  916MOL0     H23655   8.078   8.890   4.117 -2.4320  0.2619 -0.4744
  916MOL0     H23656   7.880   8.853   4.263  0.6516 -2.3602 -0.1566
  916MOL0     H23657   7.949   8.949   4.381 -2.6988  0.2971 -1.2934
  916MOL0     H23658   8.199   8.600   4.420  0.1417  0.1335  1.7411
  916MOL0     H23659   7.636   9.116   3.954 -2.7268  1.2964 -0.1250
  916MOL0     H23660   7.403   9.075   4.052 -0.8086  0.2441  0.2360
  917MOL0     O23661   6.090   7.034  11.280  0.0050  0.1299  0.0191
  917MOL0     C23662   6.084   6.914  11.263 -0.4800 -0.0728  1.2153
  917MOL0     O23663   5.976   6.838  11.291 -0.6879  0.1395 -0.1368
  917MOL0     C23664   5.868   6.902  11.348  0.2371  1.1438  0.0428
  917MOL0     C23665   5.885   6.953  11.474 -0.7038  0.1054 -0.1576
  917MOL0     C23666   5.775   6.982  11.551 -0.0386 -0.4841  0.6480
  917MOL0     C23667   5.647   6.985  11.491 -0.9460  1.1256  0.3289
  917MOL0     O23668   5.528   7.021  11.545 -0.0529  0.6525  0.0542
  917MOL0     C23669   5.518   7.057  11.681  0.8522 -0.5028  0.4566
  917MOL0     C23670   5.386   7.125  11.725  0.4822  0.2039  0.3458
  917MOL0     C23671   5.256   7.040  11.704 -0.1429 -0.3182 -0.5870
  917MOL0     C23672   5.126   7.130  11.730 -0.8086  0.2725 -0.1778
  917MOL0     C23673   4.993   7.062  11.731 -0.3870 -0.2384  0.0421
  917MOL0     C23674   4.877   7.160  11.753  0.4838 -0.6553 -0.4568
  917MOL0     C23675   4.738   7.090  11.735 -0.0702 -0.2990  0.4086
  917MOL0     C23676   4.701   6.987  11.840 -0.1092 -0.5077 -0.8573
  917MOL0     N23677   4.558   6.955  11.833  0.4681 -0.4086 -0.2085
  917MOL0     C23678   4.474   6.972  11.939  0.8155  0.2388 -0.3099
  917MOL0     C23679   4.345   6.972  11.884 -0.4150 -0.1077  0.5910
  917MOL0     C23680   4.208   7.018  11.944  0.2634 -0.0020 -0.5246
  917MOL0     C23681   4.112   6.913  11.984  0.0792  0.4560 -0.6262
  917MOL0     C23682   3.967   6.964  11.985  0.9128  0.8374 -0.1944
  917MOL0     C23683   3.880   6.854  12.043 -0.3334 -0.1347  0.4455
  917MOL0     O23684   3.740   6.877  12.045  0.0050  0.4377 -0.4105
  917MOL0     C23685   3.700   6.986  12.124  0.2312 -0.3234  0.4482
  917MOL0     C23686   3.750   7.005  12.252 -0.3158 -0.0849  0.6777
  917MOL0     C23687   3.700   7.105  12.337  0.2445  0.5858  0.3801
  917MOL0     C23688   3.773   7.132  12.469  0.0948 -0.3239 -0.2407
  917MOL0     C23689   3.573   7.163  12.302  0.2867  0.4988  0.1129
  917MOL0     C23690   3.488   7.254  12.377  0.8941  0.5477  0.0149
  917MOL0     O23691   3.354   7.256  12.334 -0.7305 -0.5095  0.2322
  917MOL0     C23692   3.245   7.274  12.422 -0.6681  0.0799  0.5410
  917MOL0     C23693   3.254   7.236  12.556 -0.4169 -0.3226  0.7692
  917MOL0     C23694   3.137   7.258  12.634  0.7820 -0.6266  1.9800
  917MOL0     C23695   3.016   7.305  12.581 -0.1157  0.0957 -0.2912
  917MOL0     O23696   2.914   7.333  12.669 -0.0141  0.4350  0.2110
  917MOL0     C23697   2.796   7.414  12.627 -0.1145  1.0765  0.4050
  917MOL0     C23698   2.699   7.400  12.742 -0.0848  0.0270 -0.2782
  917MOL0     C23699   2.576   7.482  12.725  0.2803 -0.2370  0.2880
  917MOL0     C23700   2.467   7.458  12.829 -0.1938  0.6824  0.5482
  917MOL0     C23701   2.328   7.516  12.794 -0.6509 -1.0989 -0.2456
  917MOL0     C23702   2.221   7.464  12.880 -0.6227 -0.0235 -0.0951
  917MOL0     C23703   2.078   7.526  12.861 -0.2226  0.3331 -0.5501
  917MOL0     C23704   2.055   7.571  12.716 -0.0055  0.1164  0.4966
  917MOL0    Cl23705   1.880   7.607  12.714 -0.1086  0.5737  0.2537
  917MOL0     C23706   3.013   7.345  12.450  0.4304  0.3442  0.4851
  917MOL0     C23707   3.128   7.325  12.366  0.7920 -0.1475  0.3917
  917MOL0     O23708   3.532   7.328  12.465 -0.3064 -0.3475  0.0945
  917MOL0     C23709   3.531   7.143  12.169  0.1511 -0.3204  0.2345
  917MOL0     C23710   3.586   7.056  12.077 -0.4062  0.4285  0.4894
  917MOL0     N23711   4.363   6.921  11.758  1.2832  0.2077  0.4296
  917MOL0     N23712   4.486   6.914  11.726 -0.0697  0.2511 -0.2312
  917MOL0     C23713   5.632   6.928  11.364  0.9506 -0.4419  0.5956
  917MOL0     C23714   5.742   6.891  11.291 -0.0553  0.2608  0.4962
  917MOL0     C23715   6.200   6.844  11.192 -0.1841  0.3792 -0.1437
  917MOL0     C23716   6.323   6.912  11.160 -1.1301 -0.4446  0.3867
  917MOL0     C23717   6.418   6.844  11.081  0.5633 -0.2328 -0.1654
  917MOL0     C23718   6.398   6.706  11.045 -0.3419  0.0435  0.7101
  917MOL0     O23719   6.496   6.629  10.989 -0.1106  0.6699 -0.3564
  917MOL0     C23720   6.636   6.667  11.032 -0.2657 -0.3802 -0.3047
  917MOL0     C23721   6.746   6.583  10.978 -0.0424  0.4106 -0.2856
  917MOL0     C23722   6.885   6.641  10.977  0.1239 -0.5615  0.1011
  917MOL0     C23723   6.926   6.691  11.117 -0.3651  0.5421 -0.1719
  917MOL0     C23724   7.054   6.761  11.116  0.2939 -0.0511  0.0786
  917MOL0     C23725   7.161   6.826  11.121 -0.0557 -0.1394 -0.0060
  917MOL0     C23726   6.273   6.646  11.087 -0.5293 -0.2429  0.2253
  917MOL0     C23727   6.185   6.712  11.170 -0.3813 -0.3200  0.6588
  917MOL0     H23728   5.982   6.965  11.521 -0.4309  1.9695 -1.1179
  917MOL0     H23729   5.797   7.009  11.653  0.6529 -2.1835  0.9808
  917MOL0     H23730   5.535   6.969  11.744  2.9745 -0.6119 -0.1809
  917MOL0     H23731   5.604   7.119  11.705  0.0183 -0.0252  2.3605
  917MOL0     H23732   5.388   7.136  11.834  1.1478 -3.4552  0.8486
  917MOL0     H23733   5.377   7.223  11.678  2.6234  0.4195  0.3079
  917MOL0     H23734   5.261   6.994  11.605  0.5712 -1.0915 -0.2088
  917MOL0     H23735   5.254   6.958  11.777 -4.9159 -1.1221 -1.3060
  917MOL0     H23736   5.146   7.173  11.828 -0.2693 -1.2377  0.4063
  917MOL0     H23737   5.130   7.216  11.662  0.7033  1.0277  0.7996
  917MOL0     H23738   4.966   7.016  11.636 -0.7454  0.9291 -0.4518
  917MOL0     H23739   4.994   6.983  11.806 -0.5687 -0.1471  0.1429
  917MOL0     H23740   4.890   7.211  11.849  1.9718 -1.3871 -0.2438
  917MOL0     H23741   4.882   7.247  11.687 -0.7793  0.5322  0.9343
  917MOL0     H23742   4.664   7.171  11.731  0.4142  0.2460  1.8370
  917MOL0     H23743   4.736   7.041  11.637 -0.7228  1.2349 -0.3787
  917MOL0     H23744   4.726   7.036  11.935 -0.7725  0.8918 -1.3742
  917MOL0     H23745   4.752   6.891  11.836 -1.5907 -1.4523  0.9087
  917MOL0     H23746   4.489   7.012  12.038 -1.2341  1.3312 -0.3749
  917MOL0     H23747   4.216   7.099  12.017  0.1702  0.5905 -1.1674
  917MOL0     H23748   4.165   7.072  11.860  0.6379 -0.5568 -1.0810
  917MOL0     H23749   4.131   6.882  12.088 -0.8952 -2.5673 -1.2438
  917MOL0     H23750   4.117   6.832  11.911  1.0737  0.3294 -0.4393
  917MOL0     H23751   3.932   6.988  11.884  3.4265  0.0734 -1.3326
  917MOL0     H23752   3.951   7.054  12.045 -1.9541 -0.9232  1.9305
  917MOL0     H23753   3.914   6.822  12.142 -0.5984  0.9565  0.9077
  917MOL0     H23754   3.899   6.768  11.978 -2.5499 -0.2551 -0.1258
  917MOL0     H23755   3.835   6.950  12.291 -0.0860  0.7031  1.3318
  917MOL0     H23756   3.715   7.188  12.543 -1.4951 -1.5466 -0.4891
  917MOL0     H23757   3.805   7.038  12.514 -0.3147 -1.1597 -1.6325
  917MOL0     H23758   3.862   7.191  12.448 -1.7498  2.5528 -0.5765
  917MOL0     H23759   3.346   7.198  12.600  1.9763  4.3550  0.3954
  917MOL0     H23760   3.139   7.238  12.741  0.4316  0.6661  2.2455
  917MOL0     H23761   2.812   7.520  12.605 -0.9732  1.0266 -0.5343
  917MOL0     H23762   2.753   7.371  12.536  0.0345  3.6310 -0.9501
  917MOL0     H23763   2.660   7.298  12.741  1.0178 -0.4134 -0.9218
  917MOL0     H23764   2.755   7.427  12.832 -0.5643 -0.7087  0.2543
  917MOL0     H23765   2.536   7.469  12.624 -0.2943  2.9897  0.0104
  917MOL0     H23766   2.594   7.590  12.729 -2.7831  0.3847 -0.2564
  917MOL0     H23767   2.466   7.351  12.849 -0.5030  0.6436  0.3273
  917MOL0     H23768   2.502   7.506  12.921  2.1681  0.9773 -0.4188
  917MOL0     H23769   2.306   7.491  12.690 -1.2191  0.3836 -0.4953
  917MOL0     H23770   2.335   7.624  12.802  0.1605 -1.1378 -0.3255
  917MOL0     H23771   2.209   7.361  12.847 -0.2500  0.2280 -1.0469
  917MOL0     H23772   2.239   7.465  12.988  0.0399  0.8438 -0.1992
  917MOL0     H23773   2.068   7.615  12.924  1.4533  1.2867 -1.5447
  917MOL0     H23774   1.998   7.459  12.892 -0.8607 -0.1635 -3.0571
  917MOL0     H23775   2.079   7.491  12.645  2.3933  1.1153  0.0723
  917MOL0     H23776   2.117   7.658  12.692 -0.8381  0.5254 -0.2002
  917MOL0     H23777   2.922   7.383  12.403 -1.0341 -2.7481  0.5699
  917MOL0     H23778   3.126   7.346  12.259  0.3298  2.0080  0.7663
  917MOL0     H23779   3.452   7.207  12.132  0.6545  0.6851  0.8773
  917MOL0     H23780   3.536   7.041  11.982  0.0826 -0.9805  0.4306
  917MOL0     H23781   5.529   6.908  11.335  1.2554 -0.5063 -0.4824
  917MOL0     H23782   5.724   6.845  11.195  1.8907 -0.8503  0.6142
  917MOL0     H23783   6.339   7.016  11.185 -0.7532 -1.3041  4.2691
  917MOL0     H23784   6.502   6.905  11.050 -0.2673 -0.0797 -2.2847
  917MOL0     H23785   6.661   6.770  11.007 -0.6986 -0.3999 -0.8194
  917MOL0     H23786   6.635   6.656  11.141 -0.6417 -1.2535 -0.3842
  917MOL0     H23787   6.718   6.560  10.874 -3.1151  1.3881  0.2127
  917MOL0     H23788   6.748   6.491  11.037  1.3093  0.4825 -0.1991
  917MOL0     H23789   6.891   6.727  10.909  3.4540 -0.0456  0.8788
  917MOL0     H23790   6.955   6.566  10.940  2.5284  1.5016  0.2290
  917MOL0     H23791   6.922   6.610  11.191 -1.3384  1.0650  0.3771
  917MOL0     H23792   6.854   6.761  11.160 -0.4281 -0.3520  1.2322
  917MOL0     H23793   7.246   6.890  11.131 -0.9024  1.0913 -0.4133
  917MOL0     H23794   6.244   6.545  11.060 -1.1592 -0.4290  1.5097
  917MOL0     H23795   6.087   6.670  11.187 -0.3178 -0.7678 -0.0417
  918MOL0     O23796   1.104   7.559   7.429 -1.3520  0.2625 -0.2307
  918MOL0     C23797   1.100   7.638   7.528  0.0727  0.2644  0.5317
  918MOL0     O23798   1.011   7.735   7.543  0.0362 -0.2602  0.1857
  918MOL0     C23799   0.912   7.747   7.442 -0.6160 -0.3491 -0.1275
  918MOL0     C23800   0.875   7.875   7.396 -0.1871 -0.0219 -0.3972
  918MOL0     C23801   0.758   7.902   7.328 -0.7536 -0.3265  0.4804
  918MOL0     C23802   0.665   7.802   7.309  0.5132  0.2067  0.1280
  918MOL0     O23803   0.544   7.837   7.248  0.0406  1.4842 -0.2207
  918MOL0     C23804   0.433   7.759   7.310 -0.4054  0.2140  0.5092
  918MOL0     C23805   0.304   7.812   7.242 -0.3742  0.2034  0.4558
  918MOL0     C23806   0.172   7.765   7.308  0.6131  0.3220 -0.0110
  918MOL0     C23807   0.048   7.778   7.210 -0.3084  0.3788  0.3782
  918MOL0     C23808  -0.066   7.677   7.239  0.4157 -0.4856  0.4032
  918MOL0     C23809  -0.178   7.692   7.126  0.6271 -0.1734 -0.2680
  918MOL0     C23810  -0.300   7.612   7.162  0.6989  0.1499 -0.0934
  918MOL0     C23811  -0.395   7.671   7.258 -1.4300 -0.3395 -0.0336
  918MOL0     N23812  -0.523   7.597   7.275 -0.0753 -0.7536  0.3457
  918MOL0     C23813  -0.557   7.539   7.399  0.3527  0.5804  0.3730
  918MOL0     C23814  -0.667   7.470   7.362 -0.0842 -0.0838 -0.7499
  918MOL0     C23815  -0.753   7.425   7.474  0.7015 -0.4300  0.2402
  918MOL0     C23816  -0.867   7.527   7.501 -0.2614 -0.4243  0.6320
  918MOL0     C23817  -1.005   7.487   7.451 -0.4082 -0.1246 -0.1960
  918MOL0     C23818  -1.116   7.574   7.523 -0.5204  0.4040  0.5655
  918MOL0     O23819  -1.128   7.525   7.657 -0.3952 -0.4987  0.1331
  918MOL0     C23820  -1.241   7.569   7.719  0.1975  0.6369 -0.8446
  918MOL0     C23821  -1.264   7.515   7.845  0.3547 -0.0943 -0.1355
  918MOL0     C23822  -1.382   7.547   7.920  0.2936 -1.0217  0.2200
  918MOL0     C23823  -1.392   7.496   8.061 -0.1967 -0.4698 -1.0259
  918MOL0     C23824  -1.484   7.631   7.865  0.6464 -1.8183  0.2098
  918MOL0     C23825  -1.607   7.687   7.937 -0.8253 -0.2220  0.3931
  918MOL0     O23826  -1.670   7.782   7.870 -0.5998 -0.4636 -1.1900
  918MOL0     C23827  -1.794   7.828   7.908  0.5325 -0.0535  0.4194
  918MOL0     C23828  -1.907   7.776   7.831  0.8430 -0.0475 -0.5277
  918MOL0     C23829  -2.030   7.821   7.868 -0.3057 -0.0213 -0.3075
  918MOL0     C23830  -2.054   7.917   7.971 -0.2665  0.3695 -1.0029
  918MOL0     O23831  -2.186   7.952   7.987 -0.5474  0.5979 -0.0835
  918MOL0     C23832  -2.222   8.019   8.113 -0.2533 -0.5768 -0.0483
  918MOL0     C23833  -2.371   8.046   8.100  0.2111 -1.0858  0.1660
  918MOL0     C23834  -2.466   7.925   8.054 -0.0778 -0.3545  0.2394
  918MOL0     C23835  -2.616   7.956   8.050  0.3069  0.0937 -0.0635
  918MOL0     C23836  -2.692   7.844   7.979  1.3511  0.3983 -0.8600
  918MOL0     C23837  -2.849   7.861   7.951 -0.4924 -0.1727  0.1316
  918MOL0     C23838  -2.899   7.776   7.833 -0.3795  1.0322 -0.0213
  918MOL0     C23839  -2.917   7.630   7.887 -0.7572 -0.3049 -0.3293
  918MOL0    Cl23840  -3.000   7.560   7.761  0.1149  0.3874 -0.1140
  918MOL0     C23841  -1.945   7.962   8.048 -0.1969  0.0098  0.2035
  918MOL0     C23842  -1.821   7.901   8.022 -0.1854 -0.3145  0.0381
  918MOL0     O23843  -1.652   7.635   8.037 -0.1683  0.1873  0.5610
  918MOL0     C23844  -1.455   7.687   7.736  0.7437  0.5975  0.5405
  918MOL0     C23845  -1.339   7.655   7.668  0.0383  0.1564 -0.3042
  918MOL0     N23846  -0.701   7.482   7.222  0.5392 -0.9081  0.4852
  918MOL0     N23847  -0.606   7.554   7.177  0.5948 -1.0907 -0.2089
  918MOL0     C23848   0.705   7.676   7.355  0.0080 -0.0809 -0.3007
  918MOL0     C23849   0.826   7.648   7.420 -0.5391 -0.1834 -0.0067
  918MOL0     C23850   1.203   7.622   7.632 -0.1407  0.2397 -0.4034
  918MOL0     C23851   1.300   7.516   7.626 -0.4600  0.0340 -0.0817
  918MOL0     C23852   1.395   7.502   7.731 -0.2872 -0.1029  0.6977
  918MOL0     C23853   1.400   7.588   7.839 -0.1951  0.1153  0.1652
  918MOL0     O23854   1.491   7.580   7.939 -0.3678  0.0759  0.4750
  918MOL0     C23855   1.629   7.608   7.896 -0.1141 -0.1067  0.2742
  918MOL0     C23856   1.711   7.637   8.022 -0.3926  0.6917  0.4999
  918MOL0     C23857   1.857   7.668   7.986  0.2920  0.4498  0.4544
  918MOL0     C23858   1.932   7.712   8.114 -0.9658  0.3257 -0.5031
  918MOL0     C23859   1.895   7.854   8.145  0.6430  0.5028  0.0552
  918MOL0     C23860   1.843   7.967   8.169 -0.4319 -0.1639 -0.4996
  918MOL0     C23861   1.309   7.693   7.836  0.2317  0.8121  0.1806
  918MOL0     C23862   1.206   7.702   7.742 -0.0309 -0.0118 -0.8976
  918MOL0     H23863   0.932   7.957   7.439 -0.0176 -0.9272  1.1916
  918MOL0     H23864   0.739   8.006   7.302  1.9552  0.3303  0.7592
  918MOL0     H23865   0.441   7.651   7.294  1.9618  0.1937  1.4509
  918MOL0     H23866   0.415   7.774   7.417 -0.4694 -3.5959  1.1435
  918MOL0     H23867   0.308   7.921   7.253  0.6667  0.1405  0.7993
  918MOL0     H23868   0.310   7.788   7.136  3.6255 -0.1271  0.5928
  918MOL0     H23869   0.195   7.662   7.337  2.1981  0.3467 -1.0060
  918MOL0     H23870   0.148   7.825   7.396  1.6554 -0.2199  0.6715
  918MOL0     H23871   0.008   7.880   7.197  0.1379  0.3079 -2.1835
  918MOL0     H23872   0.091   7.755   7.112 -0.3779  1.4997  0.0640
  918MOL0     H23873  -0.027   7.575   7.245  0.3542 -0.5065  0.4564
  918MOL0     H23874  -0.112   7.710   7.333 -0.6013  2.1375 -0.9089
  918MOL0     H23875  -0.204   7.797   7.105 -1.5569 -1.1026 -2.9511
  918MOL0     H23876  -0.140   7.642   7.036  3.5304 -0.6671  1.1311
  918MOL0     H23877  -0.350   7.612   7.065  3.0175  1.3097 -1.3531
  918MOL0     H23878  -0.280   7.508   7.190 -2.4723 -0.2908  1.0008
  918MOL0     H23879  -0.406   7.777   7.233  0.6346 -0.5846 -2.3879
  918MOL0     H23880  -0.350   7.690   7.356 -3.0595 -0.1834  0.7255
  918MOL0     H23881  -0.507   7.563   7.492 -0.1314  3.4256 -0.0141
  918MOL0     H23882  -0.788   7.326   7.444 -0.1532  0.1523 -0.7992
  918MOL0     H23883  -0.689   7.420   7.562  0.4807  1.6246  0.5727
  918MOL0     H23884  -0.851   7.627   7.458 -0.7640 -1.1188 -1.2350
  918MOL0     H23885  -0.871   7.546   7.609 -2.2402 -2.6923  1.0396
  918MOL0     H23886  -1.016   7.382   7.481  1.9650 -1.3290 -3.0709
  918MOL0     H23887  -1.007   7.506   7.343 -2.2226  3.5456  0.3079
  918MOL0     H23888  -1.210   7.568   7.468 -0.9490  2.1388  1.0445
  918MOL0     H23889  -1.096   7.682   7.531 -3.4512  1.2239 -1.5369
  918MOL0     H23890  -1.199   7.447   7.900 -2.6348 -0.3730  3.4265
  918MOL0     H23891  -1.302   7.442   8.091  0.5357  1.9892  1.6868
  918MOL0     H23892  -1.399   7.576   8.135  2.2582 -1.6784  0.6461
  918MOL0     H23893  -1.474   7.428   8.086  0.6208 -0.0100  4.0554
  918MOL0     H23894  -1.894   7.711   7.745  1.6643 -0.2478 -0.2680
  918MOL0     H23895  -2.114   7.789   7.807 -1.9993  2.0171  0.8121
  918MOL0     H23896  -2.216   7.936   8.184 -0.1623 -2.8398 -2.5177
  918MOL0     H23897  -2.161   8.107   8.131 -2.0614  0.5138  1.0682
  918MOL0     H23898  -2.415   8.101   8.184  0.8590 -1.2394  0.6087
  918MOL0     H23899  -2.381   8.110   8.012 -3.2878 -1.9211 -0.1868
  918MOL0     H23900  -2.450   7.842   8.124  1.9966 -0.6355 -0.4974
  918MOL0     H23901  -2.426   7.893   7.957  0.4406  0.4212  0.1889
  918MOL0     H23902  -2.658   7.953   8.151  0.0496  0.7524 -0.1462
  918MOL0     H23903  -2.630   8.055   8.007  0.8342 -0.0897 -0.6632
  918MOL0     H23904  -2.672   7.747   8.025 -0.6694  0.5969  0.5579
  918MOL0     H23905  -2.638   7.846   7.883  0.4066 -4.3157 -1.7244
  918MOL0     H23906  -2.916   7.840   8.034 -1.8617  1.4102 -0.5333
  918MOL0     H23907  -2.871   7.963   7.921  0.2061 -0.2343 -0.6553
  918MOL0     H23908  -2.825   7.775   7.752  0.7995  2.3362  1.0033
  918MOL0     H23909  -2.990   7.813   7.785  1.2899  2.4562 -2.3334
  918MOL0     H23910  -2.973   7.625   7.981  0.7346  0.6662  0.6461
  918MOL0     H23911  -2.820   7.582   7.896 -1.0968 -0.7550  1.1147
  918MOL0     H23912  -1.963   8.027   8.133  0.1720 -1.0333  1.0994
  918MOL0     H23913  -1.739   7.936   8.082  0.2539 -2.0280  0.5075
  918MOL0     H23914  -1.527   7.747   7.682 -0.8947 -0.3221  1.6223
  918MOL0     H23915  -1.320   7.712   7.577 -1.3287  3.3725  1.2894
  918MOL0     H23916   0.633   7.595   7.349 -0.5686  0.5072 -2.1681
  918MOL0     H23917   0.842   7.546   7.456 -3.0390 -0.9909 -0.9383
  918MOL0     H23918   1.307   7.441   7.548 -1.5283  1.1589 -1.3161
  918MOL0     H23919   1.461   7.417   7.737 -1.9616 -1.4224  1.3419
  918MOL0     H23920   1.669   7.517   7.851 -1.9877 -0.9396  0.2271
  918MOL0     H23921   1.622   7.694   7.828  0.1293  1.0885  1.7129
  918MOL0     H23922   1.710   7.543   8.079  1.5331 -1.5020 -2.7231
  918MOL0     H23923   1.664   7.718   8.078 -4.9788 -0.7543 -0.7577
  918MOL0     H23924   1.877   7.746   7.912 -0.2378  0.3435  0.1958
  918MOL0     H23925   1.912   7.579   7.955 -0.1445 -0.1651  1.3711
  918MOL0     H23926   2.041   7.704   8.107 -0.6974  0.2224  2.3681
  918MOL0     H23927   1.904   7.654   8.203  1.5058 -0.7704 -0.3658
  918MOL0     H23928   1.819   8.065   8.207  3.2594  0.1940  1.4050
  918MOL0     H23929   1.317   7.765   7.917 -0.4474  1.8602 -0.6630
  918MOL0     H23930   1.126   7.775   7.743 -1.5845 -1.6498 -1.1109
  919MOL0     O23931   3.894   5.903  11.013  0.3884  0.3470  0.0546
  919MOL0     C23932   3.977   5.994  10.974  0.3120 -0.4200  0.0391
  919MOL0     O23933   3.948   6.129  10.979 -0.1863 -0.3359 -0.3060
  919MOL0     C23934   3.816   6.161  11.011  0.3032  0.4997  0.2996
  919MOL0     C23935   3.757   6.136  11.133 -0.5091  0.1045 -0.0237
  919MOL0     C23936   3.624   6.163  11.156 -0.5685 -0.5148 -0.2908
  919MOL0     C23937   3.544   6.231  11.055 -0.3685  0.5116 -0.0651
  919MOL0     O23938   3.411   6.264  11.081 -0.1859  0.4247  0.2255
  919MOL0     C23939   3.352   6.228  11.202 -0.1918 -0.3861 -0.4483
  919MOL0     C23940   3.210   6.297  11.214  0.0991  0.0176  0.9499
  919MOL0     C23941   3.119   6.254  11.108 -0.2165  0.7741  0.4297
  919MOL0     C23942   2.984   6.330  11.115 -0.3179  0.0708  0.3611
  919MOL0     C23943   2.894   6.278  11.000  0.2473 -0.1899 -0.3914
  919MOL0     C23944   2.745   6.326  11.001  0.2745 -0.5154 -0.3402
  919MOL0     C23945   2.666   6.254  11.115  0.1690  0.1297  0.5118
  919MOL0     C23946   2.550   6.343  11.172  0.9403 -0.5475 -0.1524
  919MOL0     N23947   2.501   6.289  11.298 -0.6053 -0.5633 -0.8010
  919MOL0     C23948   2.412   6.187  11.316 -0.4062 -0.6779 -0.3556
  919MOL0     C23949   2.427   6.140  11.442 -0.6938 -0.6979 -0.4716
  919MOL0     C23950   2.367   6.031  11.517  0.1135  0.1998  0.3401
  919MOL0     C23951   2.234   6.063  11.589 -0.4851  0.0694  0.2369
  919MOL0     C23952   2.169   5.941  11.652 -0.2491 -0.3852  0.1112
  919MOL0     C23953   2.045   5.957  11.734 -0.6138 -0.7123 -0.3913
  919MOL0     O23954   1.994   5.826  11.774  0.5563 -0.1106  0.0292
  919MOL0     C23955   1.902   5.819  11.869  0.4763 -0.3381 -0.6642
  919MOL0     C23956   1.772   5.852  11.839  0.0676 -0.1301  0.1028
  919MOL0     C23957   1.672   5.830  11.936 -0.2716 -0.1955 -0.7571
  919MOL0     C23958   1.545   5.892  11.904 -0.2911 -0.1354 -0.1394
  919MOL0     C23959   1.703   5.778  12.065 -0.3264  0.6399 -0.1281
  919MOL0     C23960   1.603   5.754  12.178  0.1978  1.2183 -0.6309
  919MOL0     O23961   1.491   5.833  12.174 -0.5529 -0.2839 -0.4072
  919MOL0     C23962   1.409   5.833  12.275  0.3052 -0.3520  0.1250
  919MOL0     C23963   1.359   5.715  12.332 -0.1267  0.6142 -0.8110
  919MOL0     C23964   1.288   5.724  12.445  0.4596  0.3946 -0.2473
  919MOL0     C23965   1.243   5.847  12.492  0.3148  0.2334 -0.5286
  919MOL0     O23966   1.158   5.853  12.602  0.5811  0.1958  0.3599
  919MOL0     C23967   1.173   5.756  12.705 -0.7136 -0.6428 -0.1678
  919MOL0     C23968   1.067   5.782  12.809  0.0835  0.5456 -0.4302
  919MOL0     C23969   0.927   5.766  12.757 -0.1865  0.2151 -0.1186
  919MOL0     C23970   0.816   5.785  12.857 -0.5313 -1.0502 -0.8022
  919MOL0     C23971   0.680   5.765  12.789 -0.2587 -0.0229  0.3536
  919MOL0     C23972   0.557   5.764  12.882 -0.1417  0.8342 -0.0038
  919MOL0     C23973   0.553   5.623  12.948  0.1169 -0.0538  0.3253
  919MOL0     C23974   0.416   5.590  13.001 -0.0741 -0.3569 -0.3063
  919MOL0    Cl23975   0.424   5.444  13.104 -0.1201 -0.3417  0.0210
  919MOL0     C23976   1.281   5.965  12.431  0.0921  0.3118 -0.1155
  919MOL0     C23977   1.367   5.954  12.321 -0.4035 -0.1254  0.6593
  919MOL0     O23978   1.628   5.659  12.256 -0.2587 -1.0952  0.6046
  919MOL0     C23979   1.833   5.739  12.087 -0.3119  0.4777  0.2566
  919MOL0     C23980   1.938   5.761  11.996 -0.0082 -1.0506  1.0648
  919MOL0     N23981   2.535   6.217  11.499  0.5001 -0.2911 -0.8643
  919MOL0     N23982   2.575   6.300  11.414  0.0108  0.0373 -0.3605
  919MOL0     C23983   3.607   6.254  10.935 -0.1646  0.1359  0.7171
  919MOL0     C23984   3.733   6.223  10.908 -0.0427  0.0988 -0.0894
  919MOL0     C23985   4.124   5.948  10.953  0.4614  0.0071  0.8153
  919MOL0     C23986   4.223   6.030  10.900 -0.3632  0.4341  0.4875
  919MOL0     C23987   4.353   5.983  10.884  0.7712  0.8934 -0.3123
  919MOL0     C23988   4.379   5.843  10.904 -0.1965 -0.0725 -0.8651
  919MOL0     O23989   4.503   5.799  10.880 -0.3202  0.3829 -0.8969
  919MOL0     C23990   4.544   5.669  10.934  0.1846  0.2635  0.5561
  919MOL0     C23991   4.691   5.653  10.900  0.4573  0.9432 -0.3585
  919MOL0     C23992   4.770   5.768  10.959 -0.7483  0.3921 -0.1144
  919MOL0     C23993   4.916   5.732  10.992  0.6672  0.7827  0.4154
  919MOL0     C23994   4.999   5.708  10.874  0.4916  0.2052 -0.0242
  919MOL0     C23995   5.061   5.694  10.772  0.4475  0.2607  0.0261
  919MOL0     C23996   4.280   5.763  10.947  0.5949 -0.1420  0.2496
  919MOL0     C23997   4.155   5.814  10.970 -0.1817  1.3284 -0.0225
  919MOL0     H23998   3.795   6.083  11.220 -2.5360  2.0928  2.1952
  919MOL0     H23999   3.597   6.120  11.252  2.6477  0.7184  1.3373
  919MOL0     H24000   3.329   6.123  11.221 -2.1875 -0.4668 -2.7609
  919MOL0     H24001   3.414   6.272  11.280 -0.3105  2.4190 -1.7977
  919MOL0     H24002   3.165   6.266  11.309  0.8596  2.1085  2.0508
  919MOL0     H24003   3.226   6.405  11.209 -0.0173 -0.0023 -0.0160
  919MOL0     H24004   3.157   6.275  11.007  3.7104 -1.8198  1.1150
  919MOL0     H24005   3.103   6.146  11.117 -1.8816  0.9987  0.5233
  919MOL0     H24006   2.940   6.317  11.215 -1.1975  2.3630  0.3440
  919MOL0     H24007   3.008   6.436  11.103  0.0377  0.0354  0.7583
  919MOL0     H24008   2.940   6.329  10.915 -0.5175  3.1569  1.0229
  919MOL0     H24009   2.899   6.169  10.992  0.6842 -0.8608  5.3197
  919MOL0     H24010   2.745   6.433  11.021 -0.1765 -0.5286 -0.2619
  919MOL0     H24011   2.696   6.307  10.906 -1.3016 -0.7173  0.4761
  919MOL0     H24012   2.622   6.163  11.072 -0.5141  0.9521 -0.5753
  919MOL0     H24013   2.732   6.223  11.196  0.8238 -0.8892 -0.3908
  919MOL0     H24014   2.471   6.358  11.098  1.9683  1.4011 -0.9474
  919MOL0     H24015   2.589   6.442  11.197 -0.2285 -0.4778  1.5174
  919MOL0     H24016   2.345   6.140  11.244  0.0877 -0.6937 -0.8150
  919MOL0     H24017   2.340   5.957  11.442  2.5285 -0.0073 -0.4213
  919MOL0     H24018   2.437   5.992  11.592 -2.4846 -3.2148  1.2300
  919MOL0     H24019   2.172   6.109  11.511  2.1003  0.4700 -1.7241
  919MOL0     H24020   2.248   6.135  11.670 -1.6339 -3.3783  3.7633
  919MOL0     H24021   2.250   5.909  11.718  1.1074  1.7402 -0.4088
  919MOL0     H24022   2.152   5.865  11.576 -0.4540  0.4235 -0.6705
  919MOL0     H24023   1.970   6.018  11.683 -1.0393  0.7241  1.7776
  919MOL0     H24024   2.066   6.005  11.831  1.2035 -2.4775  0.1484
  919MOL0     H24025   1.722   5.883  11.748 -2.6935  1.7423  2.0816
  919MOL0     H24026   1.550   5.936  11.804  1.2564 -0.2234 -0.1365
  919MOL0     H24027   1.459   5.825  11.909  0.1370 -0.8532 -1.8212
  919MOL0     H24028   1.530   5.982  11.964 -2.8061  0.5046 -1.5611
  919MOL0     H24029   1.386   5.619  12.291 -0.6934  0.2035 -0.2355
  919MOL0     H24030   1.262   5.627  12.487  3.8722 -0.2329  0.6991
  919MOL0     H24031   1.154   5.654  12.669 -0.8210 -0.0493 -1.8574
  919MOL0     H24032   1.273   5.761  12.749  0.0666 -3.2618 -1.4329
  919MOL0     H24033   1.089   5.712  12.889  1.6040  1.1323 -0.3127
  919MOL0     H24034   1.078   5.883  12.851 -1.2698  0.5506 -0.0398
  919MOL0     H24035   0.915   5.663  12.723 -1.0594  0.2742 -0.0180
  919MOL0     H24036   0.913   5.842  12.680  0.9899 -0.3563 -0.9216
  919MOL0     H24037   0.828   5.714  12.940  0.1488  1.8383  1.7260
  919MOL0     H24038   0.813   5.889  12.889 -2.3232 -1.0508 -0.8861
  919MOL0     H24039   0.686   5.670  12.735 -0.8482 -0.0367  0.3067
  919MOL0     H24040   0.667   5.837  12.708 -1.9778  1.3209  1.7444
  919MOL0     H24041   0.551   5.834  12.965 -0.7469 -0.2525  0.8978
  919MOL0     H24042   0.466   5.774  12.822  0.1269 -1.2890 -0.8623
  919MOL0     H24043   0.621   5.623  13.033 -1.4172 -0.1573  1.6100
  919MOL0     H24044   0.581   5.548  12.872 -0.2701  1.8243 -1.7753
  919MOL0     H24045   0.346   5.569  12.919 -2.2725 -1.5497  1.7213
  919MOL0     H24046   0.372   5.664  13.069 -0.2070 -3.6888  3.6466
  919MOL0     H24047   1.260   6.069  12.454  0.0567  0.4176 -0.6234
  919MOL0     H24048   1.411   6.046  12.285 -0.0425 -0.7373 -0.5241
  919MOL0     H24049   1.865   5.702  12.184 -0.2149 -0.9371 -0.2898
  919MOL0     H24050   2.038   5.743  12.033  0.7136  0.0067 -0.2711
  919MOL0     H24051   3.535   6.291  10.863 -1.4504 -4.8112 -0.9902
  919MOL0     H24052   3.766   6.236  10.806 -0.6475  1.5461 -0.1240
  919MOL0     H24053   4.195   6.134  10.895  0.3457  0.6731  1.3278
  919MOL0     H24054   4.431   6.047  10.844  2.5692 -0.6152  0.5657
  919MOL0     H24055   4.515   5.655  11.038 -1.1836  1.8641  0.4375
  919MOL0     H24056   4.483   5.598  10.877 -0.2719  0.7845  0.3885
  919MOL0     H24057   4.715   5.629  10.796  1.7258 -4.9091  0.9196
  919MOL0     H24058   4.718   5.559  10.948 -3.6603 -0.4591 -0.3609
  919MOL0     H24059   4.713   5.797  11.048  0.8122 -0.1038  1.0791
  919MOL0     H24060   4.775   5.854  10.892  0.6938  2.0651  2.0000
  919MOL0     H24061   4.924   5.653  11.067  1.3937  0.0385 -0.4219
  919MOL0     H24062   4.956   5.813  11.053  0.2555  0.7831  0.6879
  919MOL0     H24063   5.126   5.681  10.688  0.3639 -1.0620  0.1422
  919MOL0     H24064   4.303   5.661  10.978  2.2852 -0.4381 -1.7692
  919MOL0     H24065   4.079   5.750  11.012  0.9032  0.1440  0.1954
  920MOL0     O24066   9.770   9.326   7.592  0.3338 -0.0364 -0.5053
  920MOL0     C24067   9.878   9.289   7.544  0.2990  0.4832 -0.2983
  920MOL0     O24068   9.893   9.176   7.474  0.5147  0.7822  0.0054
  920MOL0     C24069   9.787   9.085   7.476 -1.3113  0.7261 -0.5627
  920MOL0     C24070   9.700   9.074   7.373  0.2634 -0.6053  0.6604
  920MOL0     C24071   9.595   8.985   7.381 -0.4718  0.2265  0.4949
  920MOL0     C24072   9.596   8.880   7.482 -0.1686  0.0358 -0.8758
  920MOL0     O24073   9.513   8.771   7.468 -0.2230 -0.8699 -0.2605
  920MOL0     C24074   9.476   8.707   7.596 -0.5234  0.5663  0.0719
  920MOL0     C24075   9.342   8.631   7.591 -1.5122  0.5267 -0.3861
  920MOL0     C24076   9.235   8.733   7.561  0.1755 -0.5358  1.1034
  920MOL0     C24077   9.093   8.654   7.532 -0.4320  0.1615 -0.1619
  920MOL0     C24078   8.974   8.756   7.518 -0.4900 -0.4143  0.4208
  920MOL0     C24079   8.844   8.690   7.481  0.0797 -0.0665  0.0860
  920MOL0     C24080   8.726   8.776   7.511  0.4959  0.0040 -0.2060
  920MOL0     C24081   8.720   8.890   7.404  0.7887  0.6010 -0.9712
  920MOL0     N24082   8.613   8.991   7.426  0.9073  0.1694  0.1844
  920MOL0     C24083   8.477   8.972   7.401 -0.0700 -0.2541 -0.0175
  920MOL0     C24084   8.420   9.052   7.491 -0.8705  0.8839 -0.0355
  920MOL0     C24085   8.275   9.062   7.512  0.2097 -0.4905  0.5517
  920MOL0     C24086   8.199   8.941   7.553 -0.7807 -0.2527  0.1968
  920MOL0     C24087   8.230   8.910   7.699 -0.8519  0.3383 -0.3274
  920MOL0     C24088   8.164   8.781   7.754  0.0275  0.2433  0.3650
  920MOL0     O24089   8.066   8.812   7.853  0.5344  0.1222 -0.4376
  920MOL0     C24090   7.940   8.851   7.814 -0.1258  0.1464  0.3289
  920MOL0     C24091   7.853   8.881   7.922  0.7206  0.3018  0.1968
  920MOL0     C24092   7.725   8.935   7.901  0.2681 -0.0986  0.0003
  920MOL0     C24093   7.648   8.959   8.026 -0.2126  0.1399 -0.4126
  920MOL0     C24094   7.667   8.947   7.770 -0.4246 -0.3932  0.2698
  920MOL0     C24095   7.534   8.981   7.739  0.4116  0.4641  0.3311
  920MOL0     O24096   7.448   9.019   7.836 -0.4200  0.6385 -0.2381
  920MOL0     C24097   7.324   9.061   7.823  0.0518  0.1831  0.0033
  920MOL0     C24098   7.281   9.173   7.747 -0.1225  0.5637 -0.0556
  920MOL0     C24099   7.140   9.195   7.741 -0.3993  1.1199  0.6653
  920MOL0     C24100   7.042   9.120   7.814  0.2879 -0.4602  0.1303
  920MOL0     O24101   6.915   9.156   7.793 -0.1111  0.5304  0.2374
  920MOL0     C24102   6.894   9.285   7.850  0.5813  0.1145  0.8810
  920MOL0     C24103   6.750   9.329   7.812 -0.6945 -0.6085  0.6984
  920MOL0     C24104   6.628   9.235   7.820 -0.2222  0.1902  0.3227
  920MOL0     C24105   6.589   9.165   7.686  0.1250 -0.1861 -0.3468
  920MOL0     C24106   6.455   9.100   7.691  0.0342  0.0754  0.9299
  920MOL0     C24107   6.428   9.034   7.558 -0.1212  0.3296 -0.1010
  920MOL0     C24108   6.290   8.983   7.550  0.3720 -0.0804  0.7640
  920MOL0     C24109   6.258   8.929   7.412  0.3702 -0.9109  0.3087
  920MOL0    Cl24110   6.227   9.049   7.279  0.1923 -0.4113 -0.0981
  920MOL0     C24111   7.092   9.033   7.908  0.6084 -0.5716 -1.1847
  920MOL0     C24112   7.228   9.006   7.916  0.0602 -0.3840 -0.4141
  920MOL0     O24113   7.492   8.974   7.626 -0.6110 -0.4219  0.6231
  920MOL0     C24114   7.757   8.911   7.669  0.5865  0.4023  0.2849
  920MOL0     C24115   7.882   8.860   7.692 -0.1832 -0.5339  1.0435
  920MOL0     N24116   8.514   9.121   7.561  0.5217  0.0049  0.2336
  920MOL0     N24117   8.629   9.090   7.515 -0.6731  0.0844  0.1772
  920MOL0     C24118   9.689   8.898   7.590  1.0673  0.8206 -0.2850
  920MOL0     C24119   9.787   8.996   7.588  0.2592  0.3977  0.2101
  920MOL0     C24120   9.996   9.371   7.567 -0.5114  0.8662  0.6897
  920MOL0     C24121  10.103   9.362   7.470  0.1031 -0.3340 -0.0870
  920MOL0     C24122  10.220   9.433   7.497  0.1086  0.7974  0.4430
  920MOL0     C24123  10.232   9.517   7.611  0.4151 -0.1448 -0.1365
  920MOL0     O24124  10.353   9.582   7.616 -0.5083  0.0561  0.2549
  920MOL0     C24125  10.362   9.681   7.717  0.6174  0.6721 -0.3896
  920MOL0     C24126  10.478   9.763   7.719 -1.2172  0.2083  0.3542
  920MOL0     C24127  10.608   9.674   7.719  0.6912  0.0455  0.0306
  920MOL0     C24128  10.733   9.756   7.701 -0.4365  0.3301  0.0097
  920MOL0     C24129  10.748   9.876   7.793  0.1990 -0.8406  0.4595
  920MOL0     C24130  10.753   9.995   7.828 -0.4736  0.0362  0.2546
  920MOL0     C24131  10.124   9.532   7.700  0.3874 -0.3336  0.7927
  920MOL0     C24132  10.007   9.462   7.672 -0.0517  0.0551  0.3743
  920MOL0     H24133   9.695   9.152   7.297 -0.7576 -2.9142 -1.8365
  920MOL0     H24134   9.528   8.970   7.297 -0.1956  2.0251 -0.0734
  920MOL0     H24135   9.549   8.631   7.628 -0.3240  0.5711 -0.3553
  920MOL0     H24136   9.470   8.785   7.672 -1.2327 -0.2853  0.9031
  920MOL0     H24137   9.355   8.551   7.517 -2.5200  1.0426 -1.1571
  920MOL0     H24138   9.331   8.580   7.687  1.7120 -1.5071 -0.9270
  920MOL0     H24139   9.218   8.802   7.644 -0.7949  0.8863 -0.1963
  920MOL0     H24140   9.256   8.786   7.467 -1.3254 -0.0113  1.0197
  920MOL0     H24141   9.105   8.603   7.437  0.0081  1.4499 -0.8184
  920MOL0     H24142   9.073   8.585   7.615  0.3685 -1.2105 -1.0881
  920MOL0     H24143   8.969   8.813   7.611 -0.7952 -1.8361  1.3104
  920MOL0     H24144   9.003   8.831   7.445 -1.1013  0.2561  0.8519
  920MOL0     H24145   8.849   8.659   7.376  1.1308  1.3393 -0.3132
  920MOL0     H24146   8.835   8.602   7.545 -0.5802 -0.4138 -0.4634
  920MOL0     H24147   8.644   8.704   7.505  2.2388 -2.0273 -1.4091
  920MOL0     H24148   8.735   8.806   7.616 -2.5406 -1.2801  0.5132
  920MOL0     H24149   8.703   8.841   7.307 -2.5039  0.1337 -0.2966
  920MOL0     H24150   8.813   8.947   7.398  1.2847  0.2130  1.7400
  920MOL0     H24151   8.424   8.909   7.331 -0.6428  2.2309 -1.9744
  920MOL0     H24152   8.264   9.137   7.590  2.7810  0.6819 -0.1071
  920MOL0     H24153   8.223   9.093   7.420 -0.9440  1.5645  1.8348
  920MOL0     H24154   8.231   8.852   7.497 -1.4628 -0.8151  0.6703
  920MOL0     H24155   8.092   8.955   7.537 -0.7716 -1.0139 -0.6908
  920MOL0     H24156   8.201   8.996   7.759 -1.6216  0.9454 -1.5179
  920MOL0     H24157   8.337   8.899   7.715 -0.9010  0.3697  0.0243
  920MOL0     H24158   8.240   8.721   7.804  1.2997  1.1373 -0.4453
  920MOL0     H24159   8.117   8.727   7.671 -0.3293 -1.3633  1.5621
  920MOL0     H24160   7.893   8.880   8.023  0.0717  2.3370  0.5260
  920MOL0     H24161   7.597   9.056   8.027 -0.9599 -0.2421  0.0566
  920MOL0     H24162   7.563   8.891   8.038  0.1330  0.1069  2.6900
  920MOL0     H24163   7.709   8.948   8.116 -2.4363 -0.6215  1.1063
  920MOL0     H24164   7.347   9.227   7.680 -1.6979  2.5961 -0.0519
  920MOL0     H24165   7.103   9.273   7.675 -0.0128  0.4716 -0.3464
  920MOL0     H24166   6.908   9.298   7.958 -1.3055  0.4544  1.1139
  920MOL0     H24167   6.960   9.356   7.799 -0.3136 -0.0445 -0.5426
  920MOL0     H24168   6.732   9.420   7.870 -0.9234 -0.5346  0.5160
  920MOL0     H24169   6.754   9.364   7.708  1.2046 -3.0887 -0.1784
  920MOL0     H24170   6.534   9.284   7.849 -0.2959  0.0724  0.2859
  920MOL0     H24171   6.660   9.161   7.894 -0.4682  0.7645  1.0155
  920MOL0     H24172   6.590   9.229   7.597 -1.9770 -0.6177 -0.7384
  920MOL0     H24173   6.675   9.098   7.675  0.7320 -0.0270  2.6394
  920MOL0     H24174   6.384   9.182   7.709  0.7281  0.4353  2.1073
  920MOL0     H24175   6.462   9.026   7.771  4.2871 -2.8107 -1.7053
  920MOL0     H24176   6.439   9.107   7.477  0.0019 -0.1259 -0.4991
  920MOL0     H24177   6.492   8.948   7.537  0.3970  0.9917 -1.3250
  920MOL0     H24178   6.214   9.057   7.577  0.8304  0.4143  0.7341
  920MOL0     H24179   6.275   8.901   7.621 -1.7776 -0.0491  0.4066
  920MOL0     H24180   6.170   8.864   7.415 -0.8551  0.5919  4.2562
  920MOL0     H24181   6.337   8.861   7.379  1.8817  1.3959 -1.1635
  920MOL0     H24182   7.022   8.985   7.977  1.0872 -0.7134 -0.7879
  920MOL0     H24183   7.266   8.927   7.980  1.4838 -0.8712 -1.7788
  920MOL0     H24184   7.731   8.934   7.566 -0.2780  2.0058  0.8211
  920MOL0     H24185   7.937   8.841   7.600  1.4718  1.7724  1.4818
  920MOL0     H24186   9.697   8.827   7.672  2.2895 -0.1653 -1.2232
  920MOL0     H24187   9.864   9.005   7.664 -1.2051  1.1413  1.6696
  920MOL0     H24188  10.096   9.314   7.373  2.5437 -0.0985 -0.4464
  920MOL0     H24189  10.299   9.441   7.423 -0.0066  0.5881  0.2933
  920MOL0     H24190  10.272   9.742   7.709 -1.7769 -2.2357  1.8524
  920MOL0     H24191  10.354   9.634   7.815  0.1081  0.0873 -0.7063
  920MOL0     H24192  10.475   9.827   7.807  0.6538  1.3257 -0.3432
  920MOL0     H24193  10.484   9.826   7.630  0.9182 -0.2826  0.0964
  920MOL0     H24194  10.608   9.600   7.638  1.7309 -2.3524  2.0945
  920MOL0     H24195  10.597   9.613   7.808 -0.6027 -0.6243 -0.5556
  920MOL0     H24196  10.737   9.787   7.596 -0.4519 -1.2566 -0.4797
  920MOL0     H24197  10.813   9.684   7.720 -0.5011  0.2286 -0.1010
  920MOL0     H24198  10.769  10.096   7.859  3.3703 -0.3444  0.0761
  920MOL0     H24199  10.123   9.587   7.794  1.1339 -0.8247  1.1049
  920MOL0     H24200   9.920   9.484   7.732 -2.2524 -1.1599 -2.1297
  921MOL0     O24201   3.024   9.210   1.470 -0.1216 -0.7868  0.1159
  921MOL0     C24202   2.943   9.123   1.445 -0.6325  0.4354 -0.2296
  921MOL0     O24203   2.942   9.053   1.324 -0.6609  0.1032  0.3187
  921MOL0     C24204   3.042   9.072   1.230  0.7675  0.2860  0.1660
  921MOL0     C24205   3.167   9.057   1.261 -0.3173  0.3049  0.3633
  921MOL0     C24206   3.269   9.065   1.167 -0.9239  0.6240  1.0684
  921MOL0     C24207   3.243   9.075   1.030 -0.6026 -0.3028 -0.2378
  921MOL0     O24208   3.354   9.082   0.942  0.2923  0.6454 -0.2231
  921MOL0     C24209   3.340   9.029   0.807 -0.1614  0.2959 -0.2989
  921MOL0     C24210   3.434   9.093   0.705  0.1689 -0.7545 -0.3195
  921MOL0     C24211   3.402   9.249   0.686 -0.6862  0.0788  0.0717
  921MOL0     C24212   3.253   9.294   0.680  0.5582 -0.1522 -0.8951
  921MOL0     C24213   3.245   9.432   0.628  0.7232 -0.6711 -1.3278
  921MOL0     C24214   3.100   9.486   0.630 -0.4585 -0.8209 -0.1641
  921MOL0     C24215   3.113   9.625   0.562 -1.0951  1.3416  0.2492
  921MOL0     C24216   2.976   9.691   0.546 -0.7735 -0.1204 -0.0092
  921MOL0     N24217   2.874   9.611   0.477 -0.1264 -0.9260  0.0364
  921MOL0     C24218   2.741   9.648   0.496 -0.2870  0.1899  0.7187
  921MOL0     C24219   2.678   9.613   0.379  0.6893 -0.5631 -0.0924
  921MOL0     C24220   2.525   9.612   0.361  0.8741  0.4275  0.6088
  921MOL0     C24221   2.458   9.519   0.462 -0.2077 -0.5594 -0.0840
  921MOL0     C24222   2.432   9.384   0.407  1.4524 -0.3137  0.2525
  921MOL0     C24223   2.374   9.286   0.509  0.3510  0.3567  0.2997
  921MOL0     O24224   2.236   9.309   0.544  0.0432  0.2404  0.5530
  921MOL0     C24225   2.186   9.248   0.659 -0.4722 -0.1301  0.0423
  921MOL0     C24226   2.213   9.123   0.695 -0.1318  0.9441 -1.0580
  921MOL0     C24227   2.151   9.059   0.807  0.0376 -0.4367 -0.3345
  921MOL0     C24228   2.195   8.919   0.849 -0.1341 -0.5905  0.2202
  921MOL0     C24229   2.049   9.134   0.878  0.0769 -0.6211  0.6116
  921MOL0     C24230   1.962   9.083   0.996  0.1939 -0.3692  0.5023
  921MOL0     O24231   1.852   9.159   1.012 -0.5194 -0.3838 -0.5095
  921MOL0     C24232   1.756   9.142   1.106  0.6256  0.3745 -0.3114
  921MOL0     C24233   1.758   9.057   1.218  0.3386 -0.2519 -1.0727
  921MOL0     C24234   1.652   9.045   1.304  0.5270  0.9634  0.2518
  921MOL0     C24235   1.536   9.121   1.291  0.1234  0.0931  0.0160
  921MOL0     O24236   1.447   9.121   1.394  0.0805 -0.1915 -0.2799
  921MOL0     C24237   1.312   9.144   1.358  0.8432  0.5848  1.2810
  921MOL0     C24238   1.209   9.127   1.465  1.2513  0.0195 -1.1556
  921MOL0     C24239   1.237   8.990   1.544 -0.0192  0.1259  0.1352
  921MOL0     C24240   1.133   8.939   1.646 -0.2718  0.2939  0.4630
  921MOL0     C24241   1.148   8.787   1.677 -0.4768 -0.9814  0.7560
  921MOL0     C24242   1.059   8.730   1.790 -0.3713 -0.7006 -0.1535
  921MOL0     C24243   0.919   8.771   1.769  0.1312 -0.2490 -0.5626
  921MOL0     C24244   0.815   8.686   1.847  0.0117 -0.6784  0.1308
  921MOL0    Cl24245   0.787   8.521   1.785  0.2400  0.5053 -0.2432
  921MOL0     C24246   1.530   9.210   1.182 -0.3200  0.5760  0.7562
  921MOL0     C24247   1.636   9.219   1.092  0.8369  0.4122 -0.3517
  921MOL0     O24248   1.992   8.978   1.054 -0.0270 -0.1090  0.3820
  921MOL0     C24249   2.022   9.264   0.831 -0.4497 -0.2999  0.2776
  921MOL0     C24250   2.088   9.316   0.722 -0.7221 -0.7697 -0.9437
  921MOL0     N24251   2.774   9.560   0.295  0.6561 -0.4494 -0.1878
  921MOL0     N24252   2.888   9.569   0.349 -0.2189 -0.3829  0.4721
  921MOL0     C24253   3.114   9.086   0.999  0.1796 -0.2572  0.8473
  921MOL0     C24254   3.006   9.071   1.095 -0.0668 -0.2196 -0.2295
  921MOL0     C24255   2.825   9.111   1.534 -0.0180 -0.3843 -0.6854
  921MOL0     C24256   2.707   9.059   1.483  0.2038 -0.3760  0.0754
  921MOL0     C24257   2.591   9.058   1.552  0.4858 -0.1855  0.0164
  921MOL0     C24258   2.584   9.090   1.693 -0.2946  0.2283  0.1371
  921MOL0     O24259   2.465   9.074   1.749  0.2217  0.1540  0.3935
  921MOL0     C24260   2.435   9.151   1.871  0.8449 -0.7816  0.4895
  921MOL0     C24261   2.450   9.306   1.853  0.7044  0.6585 -0.2098
  921MOL0     C24262   2.356   9.355   1.746  1.0398 -0.6537 -0.3254
  921MOL0     C24263   2.203   9.321   1.751 -0.8169  0.0513 -0.3544
  921MOL0     C24264   2.137   9.335   1.880 -0.8439  0.6177  0.3418
  921MOL0     C24265   2.090   9.326   1.992  0.2190 -0.3440  1.0218
  921MOL0     C24266   2.704   9.138   1.749 -0.3521  0.9451  0.0487
  921MOL0     C24267   2.824   9.149   1.672  0.3358  0.2515 -0.1590
  921MOL0     H24268   3.200   9.043   1.363 -0.4903  3.3431  0.9238
  921MOL0     H24269   3.375   9.053   1.190 -1.0602  0.4714  1.6385
  921MOL0     H24270   3.363   8.923   0.818 -1.5686  0.1190  1.3450
  921MOL0     H24271   3.237   9.039   0.771 -0.9236  3.6784  2.2510
  921MOL0     H24272   3.537   9.067   0.731  0.7003 -0.2738 -1.8431
  921MOL0     H24273   3.408   9.059   0.604  2.6784  1.6424 -1.8978
  921MOL0     H24274   3.439   9.295   0.777  0.7269  0.9512 -0.9151
  921MOL0     H24275   3.456   9.291   0.601 -4.5840 -0.1727 -2.8032
  921MOL0     H24276   3.200   9.224   0.615 -0.4886  1.1479 -1.5001
  921MOL0     H24277   3.215   9.297   0.783 -0.3106 -0.0896 -1.2106
  921MOL0     H24278   3.313   9.499   0.680 -1.4274 -1.2501  2.5853
  921MOL0     H24279   3.273   9.429   0.522  0.6687  1.0890 -1.4186
  921MOL0     H24280   3.047   9.425   0.556  0.7644  0.0891 -1.8391
  921MOL0     H24281   3.048   9.492   0.726  1.4414  3.9062  0.8604
  921MOL0     H24282   3.186   9.687   0.615 -1.7780  2.3995 -0.0166
  921MOL0     H24283   3.150   9.610   0.460  1.4918  0.2534  1.2660
  921MOL0     H24284   2.987   9.778   0.481  0.4658  0.4474  0.9145
  921MOL0     H24285   2.940   9.732   0.641 -0.5753 -0.1238  0.0682
  921MOL0     H24286   2.687   9.675   0.586 -1.9092 -2.1675  0.5419
  921MOL0     H24287   2.490   9.715   0.375 -1.0969 -0.0474 -0.4809
  921MOL0     H24288   2.494   9.580   0.261 -1.5838 -0.8347  1.6843
  921MOL0     H24289   2.355   9.551   0.481 -0.1702  0.1233 -0.9515
  921MOL0     H24290   2.505   9.505   0.560 -0.4558 -0.0345  0.1135
  921MOL0     H24291   2.525   9.344   0.364  0.9640 -2.3231  0.9188
  921MOL0     H24292   2.355   9.386   0.329  0.2381 -1.6345  1.3803
  921MOL0     H24293   2.436   9.285   0.599  0.7064 -2.3606  0.1122
  921MOL0     H24294   2.386   9.183   0.477 -1.3208  0.1345  0.2950
  921MOL0     H24295   2.285   9.064   0.639 -0.6551 -0.0548 -0.6993
  921MOL0     H24296   2.122   8.837   0.854 -1.0038  0.1250 -0.3571
  921MOL0     H24297   2.274   8.892   0.778 -1.0986  2.2903 -2.1790
  921MOL0     H24298   2.244   8.930   0.945  1.3154  0.5818 -0.6088
  921MOL0     H24299   1.847   9.002   1.246  1.5707  2.4828  0.7338
  921MOL0     H24300   1.663   8.984   1.393  3.3514  0.5160 -0.3085
  921MOL0     H24301   1.298   9.243   1.316  3.2371  0.4131 -0.0493
  921MOL0     H24302   1.287   9.062   1.290  0.0447 -1.1831  3.5455
  921MOL0     H24303   1.223   9.209   1.536  0.4421  0.3373 -1.3531
  921MOL0     H24304   1.107   9.140   1.428  0.5127  0.7874  0.9978
  921MOL0     H24305   1.336   8.977   1.589 -0.7988 -0.0343  1.8700
  921MOL0     H24306   1.250   8.913   1.467  1.0481 -0.0921  0.5192
  921MOL0     H24307   1.144   9.004   1.733  1.5717  0.4366  0.1664
  921MOL0     H24308   1.033   8.953   1.606  0.5445  3.1443 -0.8122
  921MOL0     H24309   1.252   8.773   1.707 -0.4646 -2.1113  0.2383
  921MOL0     H24310   1.138   8.730   1.585  0.0156 -1.3393  0.9160
  921MOL0     H24311   1.066   8.621   1.795 -1.4679 -0.7325  1.1503
  921MOL0     H24312   1.089   8.778   1.883 -3.3143 -0.1987  0.6363
  921MOL0     H24313   0.909   8.761   1.661 -1.4848  1.2200 -0.5857
  921MOL0     H24314   0.905   8.877   1.793  0.0310  0.4189 -3.2289
  921MOL0     H24315   0.716   8.733   1.850  0.3000 -0.1298  2.0780
  921MOL0     H24316   0.850   8.683   1.950  0.9365 -0.0801 -0.1577
  921MOL0     H24317   1.447   9.278   1.170  0.5137  1.4658 -0.1353
  921MOL0     H24318   1.628   9.286   1.007 -1.8834 -0.6987 -1.0563
  921MOL0     H24319   1.933   9.318   0.863  0.5671  0.9459  1.0913
  921MOL0     H24320   2.064   9.414   0.682  1.1846 -0.0697 -0.4807
  921MOL0     H24321   3.084   9.121   0.901 -0.1050 -1.4995  0.4642
  921MOL0     H24322   2.905   9.093   1.060  0.2115 -0.0164 -0.9214
  921MOL0     H24323   2.704   9.040   1.377 -0.3760 -0.0610  0.0313
  921MOL0     H24324   2.499   9.030   1.502  0.0723  1.4528 -0.2249
  921MOL0     H24325   2.334   9.126   1.905  0.4808  2.4421  2.1662
  921MOL0     H24326   2.497   9.124   1.957  1.1384  0.9997  0.8761
  921MOL0     H24327   2.551   9.335   1.826  0.1464  2.4325 -0.5501
  921MOL0     H24328   2.410   9.352   1.945 -0.8452 -0.2622 -0.3772
  921MOL0     H24329   2.391   9.332   1.645  2.3321  0.3923 -0.1393
  921MOL0     H24330   2.360   9.464   1.759 -0.6819 -0.8551  2.8712
  921MOL0     H24331   2.194   9.217   1.717  0.4219 -0.6072  1.1742
  921MOL0     H24332   2.160   9.398   1.687  3.8347  2.2199 -1.2731
  921MOL0     H24333   2.032   9.306   2.080  0.5204 -3.1466  0.6647
  921MOL0     H24334   2.710   9.155   1.856 -0.3225 -0.4315  0.2884
  921MOL0     H24335   2.909   9.183   1.730 -0.6297 -0.0177  1.4614
  922MOL0     O24336   9.142   2.479   2.109 -0.0658  0.7788 -0.0584
  922MOL0     C24337   9.090   2.470   1.998 -0.3991  0.4446  0.4060
  922MOL0     O24338   8.970   2.521   1.971 -0.0021 -0.2905  1.2039
  922MOL0     C24339   8.889   2.552   2.075  0.6170 -0.1555  0.1684
  922MOL0     C24340   8.820   2.675   2.065  0.0541  0.6707 -0.1073
  922MOL0     C24341   8.730   2.716   2.158  0.6006  0.4398 -0.3969
  922MOL0     C24342   8.696   2.623   2.263 -0.0909 -0.3269 -0.7289
  922MOL0     O24343   8.614   2.657   2.371 -0.0426 -1.1037  0.1064
  922MOL0     C24344   8.527   2.765   2.357 -0.0265  0.3185  0.4382
  922MOL0     C24345   8.410   2.773   2.459  0.2926  0.2623 -0.8476
  922MOL0     C24346   8.457   2.740   2.597 -0.1847  0.2610 -0.4403
  922MOL0     C24347   8.357   2.804   2.698  0.0724  0.0838 -0.3204
  922MOL0     C24348   8.372   2.772   2.851 -0.0475 -0.1004  1.0732
  922MOL0     C24349   8.264   2.850   2.931 -0.1838 -0.8321 -0.0326
  922MOL0     C24350   8.289   2.827   3.083 -0.0655  0.1412 -0.0623
  922MOL0     C24351   8.412   2.895   3.143  0.1318  0.6723  0.4654
  922MOL0     N24352   8.427   3.038   3.124 -0.0249 -0.1171  0.1489
  922MOL0     C24353   8.400   3.133   3.229  0.1268  0.4493 -0.5672
  922MOL0     C24354   8.434   3.247   3.161 -0.4535  0.2327 -0.3746
  922MOL0     C24355   8.415   3.378   3.240  0.5989  0.0230 -0.2822
  922MOL0     C24356   8.489   3.495   3.183  0.0987  0.4622 -0.0176
  922MOL0     C24357   8.489   3.627   3.268  0.7094  0.6466  0.7051
  922MOL0     C24358   8.373   3.718   3.223 -0.6799 -0.0538  0.2159
  922MOL0     O24359   8.253   3.659   3.272  0.0037 -0.1120  0.1616
  922MOL0     C24360   8.133   3.716   3.221  0.4024 -0.0571 -0.2831
  922MOL0     C24361   8.121   3.834   3.140 -0.7288  0.8636 -0.1528
  922MOL0     C24362   7.999   3.881   3.080  0.0722  0.4249 -0.6419
  922MOL0     C24363   8.005   4.007   2.989  0.3152  0.2958  0.2265
  922MOL0     C24364   7.878   3.824   3.131 -0.2242 -0.9882 -0.1591
  922MOL0     C24365   7.745   3.863   3.088  0.6595  0.0195  0.0854
  922MOL0     O24366   7.634   3.823   3.162  0.6382  0.3229  0.4211
  922MOL0     C24367   7.512   3.870   3.100 -0.5993 -0.1339 -0.4584
  922MOL0     C24368   7.434   3.775   3.046 -0.7686  0.0701  0.6440
  922MOL0     C24369   7.317   3.816   2.982  0.3616  0.6445 -0.7282
  922MOL0     C24370   7.273   3.943   2.982 -0.8162 -0.2674  0.3592
  922MOL0     O24371   7.143   3.975   2.938  0.1343 -0.5445  0.6578
  922MOL0     C24372   7.086   4.095   2.986  0.2946 -0.3825  0.0808
  922MOL0     C24373   6.943   4.108   2.934 -0.7756 -0.1841 -0.3293
  922MOL0     C24374   6.872   4.230   2.994  0.0257  0.6157  0.4303
  922MOL0     C24375   6.740   4.255   2.920  1.0100  0.1677  0.5742
  922MOL0     C24376   6.655   4.369   2.990  1.0753  0.5195  0.0338
  922MOL0     C24377   6.505   4.366   2.954 -0.3790  0.7719 -0.2571
  922MOL0     C24378   6.422   4.482   3.016 -0.3830  0.1941  0.1259
  922MOL0     C24379   6.279   4.475   2.967  0.9613 -0.0368 -0.7131
  922MOL0    Cl24380   6.204   4.627   3.049 -0.0612  0.6428  0.1728
  922MOL0     C24381   7.347   4.038   3.051  0.5537  0.7454  0.8484
  922MOL0     C24382   7.474   4.008   3.105 -0.1873 -0.8484  0.4533
  922MOL0     O24383   7.741   3.920   2.982 -0.3353 -0.0491  0.6850
  922MOL0     C24384   7.893   3.708   3.218  0.2573  0.9463 -0.1764
  922MOL0     C24385   8.011   3.651   3.248  0.5891  0.7923 -0.6027
  922MOL0     N24386   8.451   3.231   3.022  0.5302  0.4381  0.2049
  922MOL0     N24387   8.451   3.106   3.006  0.8264  0.2312  0.6308
  922MOL0     C24388   8.770   2.502   2.278  0.8761  0.5825  0.6555
  922MOL0     C24389   8.865   2.465   2.183  0.2614  0.2659 -0.8099
  922MOL0     C24390   9.172   2.401   1.890  0.9034 -0.7399 -0.5467
  922MOL0     C24391   9.294   2.339   1.920 -0.5513  0.0270  0.2674
  922MOL0     C24392   9.365   2.277   1.824 -0.3645  0.0297  0.5354
  922MOL0     C24393   9.317   2.260   1.683  0.6050  0.0952 -0.4180
  922MOL0     O24394   9.375   2.200   1.578 -0.3502 -0.0858 -0.3807
  922MOL0     C24395   9.511   2.160   1.601 -0.4801  0.5985  0.7422
  922MOL0     C24396   9.563   2.092   1.473  0.1278 -0.7078 -0.0989
  922MOL0     C24397   9.497   1.966   1.421 -0.7593  0.8459  0.3684
  922MOL0     C24398   9.505   1.964   1.267 -0.6325 -0.3084 -0.7162
  922MOL0     C24399   9.503   1.823   1.212  0.8623  0.2680 -0.2143
  922MOL0     C24400   9.493   1.727   1.146 -0.6133 -0.4158 -0.6496
  922MOL0     C24401   9.196   2.320   1.654  0.0472 -0.0475 -0.8629
  922MOL0     C24402   9.120   2.385   1.757  0.1122  0.6050  0.5382
  922MOL0     H24403   8.847   2.751   1.992  0.0650  0.2163 -0.5811
  922MOL0     H24404   8.701   2.821   2.152 -0.3127  0.1984 -0.4354
  922MOL0     H24405   8.590   2.854   2.361  1.7646 -0.8167 -0.8674
  922MOL0     H24406   8.492   2.764   2.254  0.0763 -2.2621  0.3506
  922MOL0     H24407   8.362   2.870   2.446  1.1132  0.3875 -3.6037
  922MOL0     H24408   8.342   2.693   2.431  0.4478 -1.7049  3.5481
  922MOL0     H24409   8.448   2.632   2.608 -2.1777  0.5414  1.4268
  922MOL0     H24410   8.559   2.775   2.615 -0.4093  1.4027 -1.2226
  922MOL0     H24411   8.365   2.913   2.698 -0.3507  0.1155  0.0973
  922MOL0     H24412   8.252   2.784   2.674 -0.3688  1.6626  0.1983
  922MOL0     H24413   8.366   2.663   2.861  1.4166 -0.5512 -1.7876
  922MOL0     H24414   8.474   2.801   2.879  0.1665 -2.3705  2.9638
  922MOL0     H24415   8.266   2.959   2.918 -2.7387 -0.4932  1.7813
  922MOL0     H24416   8.160   2.826   2.909 -0.8184  1.2783  0.4273
  922MOL0     H24417   8.205   2.871   3.137  0.4179 -1.7599  2.4472
  922MOL0     H24418   8.294   2.720   3.108 -0.3313  0.4768  1.5791
  922MOL0     H24419   8.502   2.843   3.108  0.0189 -1.3318  2.9234
  922MOL0     H24420   8.406   2.887   3.252 -2.4623 -1.4814  0.2829
  922MOL0     H24421   8.361   3.112   3.328  1.6610 -1.8954 -0.3619
  922MOL0     H24422   8.310   3.408   3.238  0.1397 -1.4898 -1.7449
  922MOL0     H24423   8.435   3.373   3.347  0.7436 -0.5363 -0.3338
  922MOL0     H24424   8.460   3.513   3.079  0.4830 -0.0804 -0.2214
  922MOL0     H24425   8.595   3.470   3.174 -0.0402  0.5202 -2.6520
  922MOL0     H24426   8.578   3.687   3.250  0.0196  0.9131 -2.3306
  922MOL0     H24427   8.481   3.610   3.376  0.9796  1.5139  0.8714
  922MOL0     H24428   8.375   3.738   3.115 -2.3690  0.3444  0.2218
  922MOL0     H24429   8.381   3.818   3.267 -2.4545  2.0380 -3.6677
  922MOL0     H24430   8.216   3.875   3.107  0.4060 -1.1429  0.4673
  922MOL0     H24431   7.933   4.083   3.020  1.3574  1.1731  0.5697
  922MOL0     H24432   8.107   4.046   2.988  0.1389  0.7416 -0.5460
  922MOL0     H24433   7.972   3.975   2.890 -0.3475  1.8810 -0.0933
  922MOL0     H24434   7.460   3.670   3.049  2.0518  0.6428  0.0313
  922MOL0     H24435   7.250   3.753   2.925 -2.1220  0.9254  1.6609
  922MOL0     H24436   7.076   4.093   3.095  3.0623 -2.0088  0.4036
  922MOL0     H24437   7.152   4.178   2.960 -1.2319  0.6999 -0.5179
  922MOL0     H24438   6.951   4.118   2.825 -0.2939 -2.3540 -0.5197
  922MOL0     H24439   6.879   4.020   2.944 -0.8141 -0.5766 -3.1917
  922MOL0     H24440   6.927   4.324   2.985  0.3329  0.3768 -0.2995
  922MOL0     H24441   6.860   4.205   3.100  2.2709  0.7799  0.7711
  922MOL0     H24442   6.766   4.290   2.820 -0.4278 -2.9969 -1.0379
  922MOL0     H24443   6.691   4.160   2.899  0.5545  0.1485  1.6867
  922MOL0     H24444   6.691   4.472   2.980  0.0975  0.9460  0.6309
  922MOL0     H24445   6.670   4.346   3.096  1.7904 -0.1423 -0.2081
  922MOL0     H24446   6.475   4.344   2.851 -0.3537 -0.8816  0.0559
  922MOL0     H24447   6.458   4.278   2.999  1.2606  0.7638  1.5710
  922MOL0     H24448   6.460   4.575   2.974 -0.6042 -0.0314 -0.5883
  922MOL0     H24449   6.429   4.487   3.125 -1.0483  0.6164  0.1553
  922MOL0     H24450   6.239   4.384   3.012 -1.5065  0.7699 -1.1576
  922MOL0     H24451   6.266   4.463   2.859 -1.9604 -1.8923 -0.2605
  922MOL0     H24452   7.329   4.144   3.037 -0.5223  0.5740  0.8880
  922MOL0     H24453   7.540   4.088   3.137 -0.5851  0.4646 -1.8125
  922MOL0     H24454   7.811   3.642   3.248  1.7837 -2.3048 -2.5232
  922MOL0     H24455   8.013   3.560   3.306 -0.4576  1.5749  0.7215
  922MOL0     H24456   8.750   2.437   2.363 -0.3939 -0.7964 -0.6340
  922MOL0     H24457   8.919   2.372   2.195 -0.1631  0.3111  2.2106
  922MOL0     H24458   9.336   2.339   2.020 -0.1877 -0.8607  0.1242
  922MOL0     H24459   9.462   2.237   1.853 -1.9196 -2.3480  3.0630
  922MOL0     H24460   9.575   2.247   1.617 -0.8832  0.9526  0.4559
  922MOL0     H24461   9.518   2.085   1.680 -1.6571 -0.3282  0.0039
  922MOL0     H24462   9.669   2.072   1.486  0.6899  0.5455 -2.2833
  922MOL0     H24463   9.567   2.168   1.394 -1.0425  1.1168  1.4921
  922MOL0     H24464   9.393   1.961   1.453  0.2135  0.8061  3.9230
  922MOL0     H24465   9.546   1.881   1.471 -0.8473  0.0410 -0.8549
  922MOL0     H24466   9.587   2.021   1.222  0.6115 -2.1416 -0.8764
  922MOL0     H24467   9.418   2.015   1.225 -0.5648 -0.9005 -1.5951
  922MOL0     H24468   9.476   1.654   1.069  0.8986  3.2418 -4.8938
  922MOL0     H24469   9.163   2.299   1.553 -0.0098 -0.3866 -0.7748
  922MOL0     H24470   9.027   2.425   1.715  1.2477 -0.0933 -3.0150
  923MOL0     O24471   3.984   9.950  10.767 -0.2491 -0.0371  0.4342
  923MOL0     C24472   3.908   9.856  10.752  0.1826  0.6295  0.4553
  923MOL0     O24473   3.940   9.742  10.694  0.6655 -0.5747  0.4361
  923MOL0     C24474   4.065   9.696  10.688 -0.5180  0.6830 -0.4775
  923MOL0     C24475   4.153   9.737  10.590 -0.0721 -0.8939  0.1107
  923MOL0     C24476   4.296   9.718  10.597  0.0547  0.0593  0.9394
  923MOL0     C24477   4.349   9.657  10.715  0.2347 -0.7541  0.2722
  923MOL0     O24478   4.485   9.636  10.730  1.0149 -0.3524 -0.2779
  923MOL0     C24479   4.573   9.724  10.662 -0.6973 -0.0955 -0.6555
  923MOL0     C24480   4.702   9.709  10.744  0.7294  0.9778 -0.4816
  923MOL0     C24481   4.807   9.796  10.678  0.0415 -0.2266 -0.9384
  923MOL0     C24482   4.918   9.793  10.779 -0.1324  0.0813 -0.6045
  923MOL0     C24483   5.025   9.885  10.722 -0.5385 -0.0902 -0.0306
  923MOL0     C24484   5.135   9.870  10.828  0.2133 -0.1456 -0.7817
  923MOL0     C24485   5.228   9.995  10.841 -0.4454  0.5989 -0.3081
  923MOL0     C24486   5.322   9.987  10.968 -0.0153  0.8905  0.9769
  923MOL0     N24487   5.253   9.979  11.094  0.3240  0.5246 -0.9920
  923MOL0     C24488   5.220  10.083  11.186 -0.5748  0.1971 -0.2176
  923MOL0     C24489   5.146  10.013  11.276 -0.2455  0.0541 -0.5266
  923MOL0     C24490   5.070  10.071  11.400  0.4576  0.5232 -0.0113
  923MOL0     C24491   4.932  10.133  11.353  0.1658 -0.2079 -0.2046
  923MOL0     C24492   4.824  10.031  11.307  0.3344 -0.4246 -0.0170
  923MOL0     C24493   4.682  10.104  11.306 -0.0580 -0.0188 -0.2493
  923MOL0     O24494   4.594   9.999  11.273 -0.3210  0.0613  0.1257
  923MOL0     C24495   4.465  10.031  11.257 -0.4696 -0.4527  0.2393
  923MOL0     C24496   4.392   9.956  11.166 -0.7693 -0.1753 -0.8708
  923MOL0     C24497   4.262   9.991  11.131  0.9681  0.6331 -0.1841
  923MOL0     C24498   4.203   9.906  11.024 -0.0592 -0.2374  0.4885
  923MOL0     C24499   4.193  10.103  11.198 -0.3787  0.3554  0.1593
  923MOL0     C24500   4.055  10.146  11.167  0.3251 -0.1047  1.0264
  923MOL0     O24501   4.017  10.258  11.222  0.0158 -0.1813 -0.6139
  923MOL0     C24502   3.892  10.292  11.227 -0.0104  0.3413  0.0963
  923MOL0     C24503   3.791  10.202  11.266  0.6024  0.6087 -0.0313
  923MOL0     C24504   3.655  10.251  11.268 -0.5704 -0.0442  0.1152
  923MOL0     C24505   3.618  10.383  11.230 -0.0721  0.7988 -0.3794
  923MOL0     O24506   3.502  10.451  11.238  0.3820  0.9822 -0.2541
  923MOL0     C24507   3.390  10.358  11.214  0.9717 -0.4260 -0.6346
  923MOL0     C24508   3.269  10.447  11.239 -0.2884 -0.5532 -0.1253
  923MOL0     C24509   3.140  10.366  11.208 -0.3254  0.1478  0.3726
  923MOL0     C24510   3.005  10.428  11.245 -0.2091 -0.0286 -0.5034
  923MOL0     C24511   2.996  10.568  11.188  0.0632  0.3424  0.2836
  923MOL0     C24512   2.849  10.613  11.195  0.3644 -1.1303 -0.1934
  923MOL0     C24513   2.815  10.760  11.151 -0.5978 -0.4075  0.8401
  923MOL0     C24514   2.839  10.793  10.998 -0.3301 -0.0853 -0.5867
  923MOL0    Cl24515   2.731  10.693  10.895 -0.0056 -0.1485  0.6810
  923MOL0     C24516   3.729  10.464  11.197  0.5049 -0.1667  0.9092
  923MOL0     C24517   3.858  10.423  11.196 -0.7455 -0.3370  0.4696
  923MOL0     O24518   3.985  10.072  11.093 -0.3425 -0.8945  0.0922
  923MOL0     C24519   4.270  10.178  11.292  0.4244 -0.5418  1.0850
  923MOL0     C24520   4.400  10.138  11.319 -0.1998 -0.3512  1.1706
  923MOL0     N24521   5.149   9.878  11.255 -0.4409  0.1914  0.1946
  923MOL0     N24522   5.208   9.861  11.144 -0.2612 -0.0378  1.0503
  923MOL0     C24523   4.262   9.633  10.821 -0.4263  1.0749  0.0245
  923MOL0     C24524   4.119   9.637  10.812  0.2764  0.7429 -0.4014
  923MOL0     C24525   3.765   9.889  10.783  0.0700 -0.2953 -0.4113
  923MOL0     C24526   3.722  10.002  10.863  0.6422 -0.3099 -0.0698
  923MOL0     C24527   3.586  10.022  10.894 -0.1437 -0.7377  0.1094
  923MOL0     C24528   3.487   9.939  10.839 -0.0863  0.7451  0.1600
  923MOL0     O24529   3.348   9.953  10.852  1.1400  0.3305  0.2704
  923MOL0     C24530   3.296  10.037  10.959  0.2993 -0.1072  0.1549
  923MOL0     C24531   3.289   9.979  11.096  0.0574 -0.2409  0.1545
  923MOL0     C24532   3.214   9.851  11.111 -0.2453  0.1326 -0.4854
  923MOL0     C24533   3.062   9.866  11.134 -0.2673  0.7037 -0.0213
  923MOL0     C24534   2.985   9.863  11.016  0.4398 -0.2748 -0.0775
  923MOL0     C24535   2.926   9.876  10.905 -1.1729  0.0862 -0.3504
  923MOL0     C24536   3.537   9.827  10.759 -0.6773  0.0023  0.0978
  923MOL0     C24537   3.669   9.800  10.738  0.1049 -0.0732 -0.5400
  923MOL0     H24538   4.108   9.794  10.510  2.9690 -1.9657 -2.6216
  923MOL0     H24539   4.356   9.764  10.519  0.1282 -2.5490 -0.6567
  923MOL0     H24540   4.595   9.695  10.559  0.0921 -2.6855  0.1816
  923MOL0     H24541   4.540   9.828  10.663  1.6823  0.7309  1.2658
  923MOL0     H24542   4.675   9.732  10.848 -1.6919  0.5905 -0.9681
  923MOL0     H24543   4.731   9.604  10.734  0.0256  0.8280 -1.0760
  923MOL0     H24544   4.845   9.756  10.583 -2.2699 -1.0765 -1.5653
  923MOL0     H24545   4.780   9.901  10.659 -0.6470 -0.1237  0.5223
  923MOL0     H24546   4.889   9.839  10.874  0.9273  0.1616 -0.3086
  923MOL0     H24547   4.949   9.689  10.793  2.0716  0.8133  0.4221
  923MOL0     H24548   5.061   9.856  10.623 -1.2858  1.9592 -0.9499
  923MOL0     H24549   4.997   9.991  10.718  0.5426  0.2109  0.0952
  923MOL0     H24550   5.090   9.875  10.928 -1.6226 -0.4267 -1.5414
  923MOL0     H24551   5.185   9.774  10.814  0.8014  0.1554 -0.7477
  923MOL0     H24552   5.291  10.008  10.752  0.9264 -0.0532  0.5361
  923MOL0     H24553   5.172  10.088  10.853  0.3680  1.0507  0.0666
  923MOL0     H24554   5.390  10.071  10.978  1.2708 -0.2453  2.2855
  923MOL0     H24555   5.376   9.894  10.946 -1.1548  0.6136 -0.8670
  923MOL0     H24556   5.258  10.185  11.191  0.9166 -0.3630  0.2578
  923MOL0     H24557   5.048   9.987  11.466  1.5058  0.8782  0.8231
  923MOL0     H24558   5.132  10.142  11.455 -1.6080  1.3336  1.3605
  923MOL0     H24559   4.939  10.213  11.279  1.8089  0.1449  0.3039
  923MOL0     H24560   4.886  10.180  11.440 -1.9010 -0.7272 -0.9503
  923MOL0     H24561   4.805   9.950  11.377 -3.8363  0.1881 -0.1492
  923MOL0     H24562   4.847   9.999  11.205  0.0686  3.1895 -1.3710
  923MOL0     H24563   4.666  10.177  11.226 -1.0748 -1.0026 -0.9568
  923MOL0     H24564   4.662  10.146  11.406 -0.5204  1.9864 -1.1276
  923MOL0     H24565   4.447   9.872  11.123 -0.1241  0.9471 -2.3315
  923MOL0     H24566   4.219   9.963  10.933 -4.7719  1.8439  0.6612
  923MOL0     H24567   4.255   9.809  11.026  1.6787  0.6184 -1.0685
  923MOL0     H24568   4.096   9.886  11.033 -0.1436 -1.6528 -2.4610
  923MOL0     H24569   3.813  10.098  11.290  0.3132  0.1359 -1.7190
  923MOL0     H24570   3.574  10.189  11.306 -0.6526 -0.9573 -1.4403
  923MOL0     H24571   3.390  10.308  11.116  0.1069  0.1403 -0.9423
  923MOL0     H24572   3.382  10.278  11.288  1.2807 -0.5443 -0.7296
  923MOL0     H24573   3.254  10.462  11.346 -0.6604 -0.0244 -0.2490
  923MOL0     H24574   3.274  10.544  11.188 -5.3235 -0.0694 -0.2059
  923MOL0     H24575   3.139  10.273  11.265  2.6996  1.9967  3.8561
  923MOL0     H24576   3.134  10.353  11.099 -0.2161  2.0957  0.1000
  923MOL0     H24577   2.931  10.364  11.196 -0.7049 -2.7210  3.3479
  923MOL0     H24578   2.992  10.423  11.353  0.1569  0.1457 -0.4470
  923MOL0     H24579   3.035  10.565  11.086  0.3383 -0.5267  0.4037
  923MOL0     H24580   3.059  10.633  11.248  1.2638 -0.9604  0.4928
  923MOL0     H24581   2.792  10.543  11.134 -2.8688  0.7716  0.3901
  923MOL0     H24582   2.826  10.611  11.302  0.6762 -1.5634 -0.1320
  923MOL0     H24583   2.877  10.826  11.212 -1.8117 -1.2069  3.0472
  923MOL0     H24584   2.712  10.777  11.183 -0.8662  1.1768 -0.6888
  923MOL0     H24585   2.944  10.769  10.980 -0.5840 -0.0111 -2.3743
  923MOL0     H24586   2.831  10.901  10.982 -1.9936 -0.2021 -0.6901
  923MOL0     H24587   3.711  10.571  11.187  1.5027  0.1012  1.8274
  923MOL0     H24588   3.938  10.494  11.176 -1.2400  1.2756  3.4800
  923MOL0     H24589   4.236  10.263  11.351  1.5302  0.0306  0.9085
  923MOL0     H24590   4.449  10.192  11.399  0.8210 -0.6677  0.7778
  923MOL0     H24591   4.306   9.575  10.901  1.7867  1.6650 -0.7001
  923MOL0     H24592   4.057   9.610  10.896  0.2617 -2.1968 -1.2596
  923MOL0     H24593   3.788  10.082  10.894 -1.2090  1.6012 -0.8043
  923MOL0     H24594   3.567  10.117  10.945 -0.0933 -0.5908 -0.1434
  923MOL0     H24595   3.343  10.135  10.961  0.4530 -0.1918  1.3700
  923MOL0     H24596   3.190  10.053  10.939  0.0919  0.4262  1.5745
  923MOL0     H24597   3.253  10.059  11.161 -1.1259 -0.1295 -0.6193
  923MOL0     H24598   3.395   9.966  11.119 -0.0553 -0.1901  0.7183
  923MOL0     H24599   3.262   9.816  11.203  0.0208 -1.0708 -1.0717
  923MOL0     H24600   3.231   9.788  11.024  3.2347  1.6736 -1.0921
  923MOL0     H24601   3.042   9.957  11.192 -4.5796 -1.1569  1.8187
  923MOL0     H24602   3.028   9.789  11.204 -0.4180  1.6783  1.0034
  923MOL0     H24603   2.872   9.895  10.815 -0.9939 -1.8422 -0.9059
  923MOL0     H24604   3.466   9.750  10.731 -1.0770  0.7912 -1.1334
  923MOL0     H24605   3.695   9.702  10.699  2.1540  0.2300 -0.0299
  924MOL0     O24606   4.368   9.529   3.709 -0.8981 -0.5597  0.0284
  924MOL0     C24607   4.403   9.595   3.616 -0.3777 -0.9470 -0.2788
  924MOL0     O24608   4.320   9.627   3.510 -1.0291 -0.0250 -0.0573
  924MOL0     C24609   4.188   9.586   3.513 -0.0356  0.4795 -0.0548
  924MOL0     C24610   4.101   9.655   3.598  0.0525  0.1945 -0.6970
  924MOL0     C24611   3.964   9.612   3.592 -0.3605 -0.4218 -0.8629
  924MOL0     C24612   3.911   9.517   3.510 -0.6394  0.1420 -0.3408
  924MOL0     O24613   3.776   9.490   3.524  0.0444 -0.5046  0.2461
  924MOL0     C24614   3.718   9.437   3.398 -0.2378  0.4586 -0.2464
  924MOL0     C24615   3.565   9.424   3.416  0.0743 -0.3873 -0.3750
  924MOL0     C24616   3.528   9.333   3.533  0.0152  0.6935 -0.3597
  924MOL0     C24617   3.373   9.301   3.546 -0.3726  0.9886  0.3538
  924MOL0     C24618   3.294   9.403   3.618 -0.2442  0.1347 -0.4111
  924MOL0     C24619   3.149   9.360   3.661 -0.2034  0.0333 -0.2179
  924MOL0     C24620   3.142   9.245   3.760  0.2199 -0.7220  0.1550
  924MOL0     C24621   3.197   9.269   3.900  0.3774 -1.0234 -0.3340
  924MOL0     N24622   3.101   9.345   3.983  0.4267 -0.1621 -0.3410
  924MOL0     C24623   3.058   9.311   4.111  1.3183  0.0705  0.1729
  924MOL0     C24624   3.007   9.419   4.164  1.6114  0.0884 -0.5717
  924MOL0     C24625   2.950   9.421   4.305  0.2614 -0.0616 -0.1869
  924MOL0     C24626   2.809   9.488   4.325 -1.1843  0.1342  0.4559
  924MOL0     C24627   2.798   9.627   4.274 -1.0178 -0.5982  0.4511
  924MOL0     C24628   2.667   9.696   4.319  0.2625 -0.6457  0.7657
  924MOL0     O24629   2.549   9.641   4.260 -0.7636 -0.1604 -0.1319
  924MOL0     C24630   2.432   9.697   4.309  0.0309  0.6565  0.4942
  924MOL0     C24631   2.315   9.625   4.288  0.0370 -0.4463  0.0409
  924MOL0     C24632   2.183   9.668   4.332 -0.2531 -0.2281  0.3279
  924MOL0     C24633   2.064   9.587   4.284  0.8212 -0.9837 -0.1552
  924MOL0     C24634   2.173   9.777   4.426  0.1646  0.2221  0.2541
  924MOL0     C24635   2.049   9.809   4.507 -0.3982  0.2273  0.8959
  924MOL0     O24636   2.042   9.932   4.579 -0.1219  0.8883 -0.7543
  924MOL0     C24637   1.940   9.950   4.667  0.0813  0.0531  0.4483
  924MOL0     C24638   1.851  10.055   4.645 -0.2317  0.5385  0.4790
  924MOL0     C24639   1.744  10.070   4.735  0.5067  0.1940 -0.8694
  924MOL0     C24640   1.726   9.986   4.839 -0.5666  0.1653  0.4235
  924MOL0     O24641   1.621  10.015   4.917  0.5052 -0.2279 -0.6176
  924MOL0     C24642   1.611   9.949   5.047 -0.1292  0.8859 -0.0464
  924MOL0     C24643   1.488   9.994   5.126 -0.2154  0.0875 -0.0678
  924MOL0     C24644   1.364  10.012   5.056  0.0529 -0.3440 -0.8562
  924MOL0     C24645   1.252  10.022   5.162 -0.1144  0.0740  0.4194
  924MOL0     C24646   1.124  10.049   5.088 -0.1877 -0.6010 -0.5758
  924MOL0     C24647   1.016  10.039   5.198 -0.2477  0.5167 -0.5913
  924MOL0     C24648   0.878  10.025   5.143 -0.6241  0.1251  0.0033
  924MOL0     C24649   0.835  10.156   5.082  0.7497  0.3471 -0.5811
  924MOL0    Cl24650   0.648  10.156   5.095  0.1439  0.3883 -0.0012
  924MOL0     C24651   1.824   9.888   4.872 -1.0921  0.0242  0.1151
  924MOL0     C24652   1.930   9.857   4.773 -0.8268 -0.5437 -0.2813
  924MOL0     O24653   1.956   9.736   4.497 -0.5274  0.1655  0.6001
  924MOL0     C24654   2.298   9.848   4.449  0.1474 -0.0128 -0.1122
  924MOL0     C24655   2.415   9.805   4.390 -1.0729 -0.0995  0.7989
  924MOL0     N24656   3.028   9.520   4.078  0.4385  0.0578  0.3561
  924MOL0     N24657   3.077   9.472   3.975  0.1828  0.1862  0.1381
  924MOL0     C24658   4.003   9.447   3.433  0.3249 -0.2636  0.4872
  924MOL0     C24659   4.136   9.482   3.427 -0.9507 -0.1290  0.5879
  924MOL0     C24660   4.541   9.646   3.609 -0.1756 -0.5736  0.1059
  924MOL0     C24661   4.581   9.746   3.517 -0.3896 -0.2761  0.0010
  924MOL0     C24662   4.712   9.789   3.534  0.2230 -0.2887  0.3244
  924MOL0     C24663   4.797   9.749   3.641  0.4925 -0.3493 -0.0380
  924MOL0     O24664   4.927   9.799   3.624 -0.4054  0.5337 -0.0987
  924MOL0     C24665   5.027   9.758   3.718 -0.7978  0.4277 -0.2057
  924MOL0     C24666   5.047   9.845   3.841 -0.4231  0.0512 -0.4752
  924MOL0     C24667   5.148   9.786   3.939  0.3722  0.0108  0.0935
  924MOL0     C24668   5.281   9.766   3.875 -0.1224  0.5963 -0.0893
  924MOL0     C24669   5.360   9.881   3.835  0.4613  0.5913  0.1042
  924MOL0     C24670   5.421   9.977   3.790 -1.0344 -0.2671 -0.1370
  924MOL0     C24671   4.754   9.651   3.728 -0.0150 -0.3204  0.5085
  924MOL0     C24672   4.631   9.597   3.708  0.3464  0.8276  0.2447
  924MOL0     H24673   4.122   9.734   3.669 -1.8334  0.1217 -0.0033
  924MOL0     H24674   3.894   9.671   3.651 -0.4506 -0.4304 -0.9591
  924MOL0     H24675   3.738   9.496   3.308 -2.5286  0.1232 -1.0374
  924MOL0     H24676   3.764   9.340   3.379  4.2729  1.8672  2.1030
  924MOL0     H24677   3.528   9.527   3.425  1.3535  0.4243 -3.2963
  924MOL0     H24678   3.524   9.392   3.320  0.8674 -1.9378 -0.2269
  924MOL0     H24679   3.569   9.232   3.522 -2.0001 -0.0043 -2.2530
  924MOL0     H24680   3.562   9.382   3.624 -2.1107 -0.3518  1.0721
  924MOL0     H24681   3.322   9.281   3.451  0.6302 -1.6265  0.2709
  924MOL0     H24682   3.368   9.211   3.609  0.2914 -0.3061 -1.3684
  924MOL0     H24683   3.348   9.438   3.706  0.2184 -0.1556 -0.5750
  924MOL0     H24684   3.285   9.491   3.555 -1.7489  1.1071  1.0793
  924MOL0     H24685   3.094   9.442   3.707 -2.2684 -1.3459 -0.1046
  924MOL0     H24686   3.092   9.331   3.572 -1.9117  1.6750  0.2848
  924MOL0     H24687   3.035   9.226   3.769 -0.4597  1.2964 -2.6134
  924MOL0     H24688   3.183   9.151   3.720 -0.0328 -0.1081 -1.5785
  924MOL0     H24689   3.285   9.334   3.902 -1.0447  0.9667  0.7777
  924MOL0     H24690   3.216   9.179   3.959 -1.3145 -0.2501  1.5006
  924MOL0     H24691   3.063   9.212   4.155  1.2582 -0.4394 -0.9334
  924MOL0     H24692   2.953   9.324   4.356  0.3482  1.6968  3.4633
  924MOL0     H24693   3.020   9.477   4.367  1.1138 -0.6224 -0.6268
  924MOL0     H24694   2.781   9.475   4.429  0.2238 -1.2101  0.7142
  924MOL0     H24695   2.736   9.433   4.264  0.3510 -0.2552 -1.1579
  924MOL0     H24696   2.806   9.634   4.165 -1.8383  0.5260  0.4414
  924MOL0     H24697   2.884   9.690   4.297  0.9342 -1.2554 -3.9937
  924MOL0     H24698   2.676   9.800   4.286 -1.9646 -1.0385 -1.2934
  924MOL0     H24699   2.672   9.701   4.428 -0.4477  1.6303  0.7428
  924MOL0     H24700   2.329   9.532   4.234  2.4625  0.0603 -0.3268
  924MOL0     H24701   2.089   9.528   4.196  0.8824 -1.4931  0.1996
  924MOL0     H24702   2.013   9.525   4.359  0.3633 -1.8466 -1.1557
  924MOL0     H24703   1.997   9.660   4.237  0.5508 -0.2238  1.3407
  924MOL0     H24704   1.866  10.113   4.554  2.2874  0.4140  0.7433
  924MOL0     H24705   1.672  10.150   4.721  0.8362  0.2354 -2.6302
  924MOL0     H24706   1.614   9.842   5.025  3.7740 -0.1527  4.1145
  924MOL0     H24707   1.698   9.975   5.108 -1.7267  0.9203  2.3514
  924MOL0     H24708   1.474   9.932   5.215  0.4536  1.1509  0.8199
  924MOL0     H24709   1.517  10.093   5.165 -1.0057  0.0853  0.5494
  924MOL0     H24710   1.358   9.925   4.990  2.2054 -1.2299  0.0134
  924MOL0     H24711   1.357  10.111   5.010  0.2351 -0.6909 -1.6454
  924MOL0     H24712   1.248   9.937   5.230 -0.6671 -1.0128 -0.9165
  924MOL0     H24713   1.280  10.105   5.228  1.0964  0.3380 -0.3844
  924MOL0     H24714   1.107   9.973   5.012 -0.6345  0.2057 -1.3125
  924MOL0     H24715   1.123  10.151   5.048 -1.0167 -0.3221  0.1258
  924MOL0     H24716   1.032   9.952   5.262 -0.3474  1.1812  0.3615
  924MOL0     H24717   1.017  10.124   5.266  1.5637 -2.9999  4.3623
  924MOL0     H24718   0.811   9.999   5.226 -2.0562 -0.1081 -1.1898
  924MOL0     H24719   0.876   9.945   5.068 -2.7972  0.9727 -0.9190
  924MOL0     H24720   0.874  10.153   4.979  2.1592 -0.6214 -0.0589
  924MOL0     H24721   0.880  10.238   5.138 -1.1002  0.7537  0.3785
  924MOL0     H24722   1.816   9.822   4.957 -1.0484 -0.6521 -0.4018
  924MOL0     H24723   2.002   9.776   4.781 -0.4409 -0.1504  0.4131
  924MOL0     H24724   2.301   9.932   4.518  1.1293  0.5601 -0.8401
  924MOL0     H24725   2.503   9.862   4.418 -0.0455 -0.2597 -1.8229
  924MOL0     H24726   3.980   9.355   3.379  1.1071  0.0922 -0.4917
  924MOL0     H24727   4.210   9.425   3.371 -0.1181 -2.0362  3.4025
  924MOL0     H24728   4.513   9.774   3.437  0.6425  1.9227 -0.1636
  924MOL0     H24729   4.750   9.862   3.463 -0.6021 -0.8969 -0.7698
  924MOL0     H24730   5.019   9.654   3.751  4.7992 -0.4932 -0.7961
  924MOL0     H24731   5.112   9.761   3.650 -1.0789  0.6813 -0.5500
  924MOL0     H24732   4.951   9.861   3.892 -0.2609  0.9692 -0.4289
  924MOL0     H24733   5.075   9.944   3.804 -3.3144  1.4631  0.7224
  924MOL0     H24734   5.107   9.697   3.987  1.3121  0.5293  1.9571
  924MOL0     H24735   5.165   9.846   4.028 -0.9809  1.8007 -0.8145
  924MOL0     H24736   5.273   9.698   3.790 -0.0803  0.1400  0.2634
  924MOL0     H24737   5.334   9.713   3.955 -0.9669  3.2953  2.4170
  924MOL0     H24738   5.474  10.058   3.745 -0.5101 -1.0860 -1.0466
  924MOL0     H24739   4.813   9.616   3.812  2.1963  3.5063  0.7757
  924MOL0     H24740   4.595   9.521   3.775  0.6724 -0.5139 -1.0421
  925MOL0     O24741   6.779   9.708   4.726  0.6250 -0.2882  0.4265
  925MOL0     C24742   6.798   9.613   4.648  0.3899  0.3026  0.5373
  925MOL0     O24743   6.745   9.603   4.523 -0.0457  0.5287  0.0150
  925MOL0     C24744   6.631   9.666   4.493 -0.0462 -0.0632 -0.3527
  925MOL0     C24745   6.525   9.585   4.449  0.3134  0.1693  0.0863
  925MOL0     C24746   6.403   9.652   4.419 -0.0627 -0.2933 -0.0907
  925MOL0     C24747   6.380   9.787   4.449 -0.0150  0.3299 -0.0105
  925MOL0     O24748   6.256   9.855   4.448  0.8994  0.4344  0.4762
  925MOL0     C24749   6.158   9.813   4.350  0.1757  0.6322  0.0383
  925MOL0     C24750   6.027   9.896   4.360  1.4323  0.2934 -0.1118
  925MOL0     C24751   5.900   9.827   4.303 -0.3602  0.0103  0.2921
  925MOL0     C24752   5.770   9.916   4.306  0.0044  0.5017  1.0203
  925MOL0     C24753   5.651   9.849   4.234  0.7179  0.7782 -0.8077
  925MOL0     C24754   5.529   9.948   4.225 -0.9880  0.7005 -0.5625
  925MOL0     C24755   5.540  10.035   4.092 -0.0017 -0.5879  0.7267
  925MOL0     C24756   5.600  10.176   4.106 -0.4402 -0.0105 -0.3768
  925MOL0     N24757   5.541  10.262   4.009 -0.3354  0.1930 -0.6367
  925MOL0     C24758   5.430  10.339   4.027  0.4286 -0.5887  0.4722
  925MOL0     C24759   5.428  10.418   3.921  0.2073  0.4370 -0.0216
  925MOL0     C24760   5.335  10.540   3.887  0.3571  0.1795  0.7086
  925MOL0     C24761   5.216  10.483   3.814 -0.1721  0.3507  0.1150
  925MOL0     C24762   5.141  10.597   3.738 -0.0252 -0.7587  0.2017
  925MOL0     C24763   4.993  10.560   3.703  0.0084  0.3523  0.2667
  925MOL0     O24764   4.938  10.660   3.629  0.5530  0.4181 -0.0595
  925MOL0     C24765   4.797  10.669   3.625 -0.4203 -0.1142  0.2469
  925MOL0     C24766   4.711  10.581   3.690  0.5681  0.7782  0.9772
  925MOL0     C24767   4.568  10.604   3.690  0.9233  0.2009  0.5107
  925MOL0     C24768   4.487  10.493   3.756 -0.2550 -0.0831  0.1650
  925MOL0     C24769   4.515  10.716   3.620  0.0180 -0.0809  0.1412
  925MOL0     C24770   4.372  10.751   3.621  0.1698  0.6685 -0.2939
  925MOL0     O24771   4.326  10.807   3.506  0.5184 -0.4463 -0.4793
  925MOL0     C24772   4.193  10.844   3.500 -0.8303 -0.7459 -0.4814
  925MOL0     C24773   4.079  10.775   3.547  0.4276 -0.6793  0.8087
  925MOL0     C24774   3.954  10.826   3.511 -0.5441  1.5708 -0.5287
  925MOL0     C24775   3.935  10.937   3.437  0.5649 -0.0332  0.4099
  925MOL0     O24776   3.812  10.981   3.394  0.1373  0.6889  0.0027
  925MOL0     C24777   3.714  10.874   3.384 -0.1939  0.5439  0.1292
  925MOL0     C24778   3.581  10.922   3.320  0.0787 -0.5618 -0.0732
  925MOL0     C24779   3.464  10.819   3.317 -0.2154  0.1712 -0.0045
  925MOL0     C24780   3.328  10.881   3.289 -0.1299  0.3268  0.3862
  925MOL0     C24781   3.224  10.764   3.291  0.0505 -0.1952 -0.2697
  925MOL0     C24782   3.072  10.796   3.307  0.3953  0.5184 -0.8101
  925MOL0     C24783   2.980  10.676   3.313 -0.0651  0.1608  0.8239
  925MOL0     C24784   2.968  10.594   3.188  0.2974 -0.6875  1.0750
  925MOL0    Cl24785   3.090  10.468   3.185 -0.0006  0.4893 -0.1403
  925MOL0     C24786   4.044  11.016   3.398 -0.2217  0.8448  0.2132
  925MOL0     C24787   4.170  10.966   3.428  0.3091 -0.1072 -0.2150
  925MOL0     O24788   4.304  10.723   3.723 -0.1387 -0.6774 -0.2103
  925MOL0     C24789   4.601  10.797   3.549 -0.2875  0.4342 -0.5813
  925MOL0     C24790   4.740  10.774   3.544  0.0049 -0.2053  0.3427
  925MOL0     N24791   5.528  10.377   3.836 -0.2235 -0.0774 -0.8965
  925MOL0     N24792   5.586  10.282   3.885  0.1807  0.0590  0.3435
  925MOL0     C24793   6.495   9.865   4.486  0.6926 -0.1547 -0.6162
  925MOL0     C24794   6.615   9.802   4.504 -0.0154 -0.5065  0.5679
  925MOL0     C24795   6.885   9.491   4.678 -0.4488 -0.0819 -0.7852
  925MOL0     C24796   6.947   9.493   4.797  0.3084  0.5408 -0.2288
  925MOL0     C24797   7.036   9.397   4.836  0.5366  0.0054 -0.5657
  925MOL0     C24798   7.053   9.282   4.756  0.0206  0.7660 -0.3944
  925MOL0     O24799   7.140   9.189   4.802  0.1232  0.0876 -0.3499
  925MOL0     C24800   7.272   9.183   4.754 -0.5586  0.7517  0.3509
  925MOL0     C24801   7.276   9.065   4.650  0.5475  0.1599  0.4364
  925MOL0     C24802   7.422   9.039   4.603  0.5727 -0.6454  0.1013
  925MOL0     C24803   7.429   8.925   4.502 -0.3090 -0.3404 -1.2553
  925MOL0     C24804   7.561   8.863   4.493  0.4557 -0.0451  0.2450
  925MOL0     C24805   7.678   8.840   4.494 -0.3401  0.1293 -0.8146
  925MOL0     C24806   6.981   9.275   4.633 -0.5854  0.0944  0.5195
  925MOL0     C24807   6.899   9.378   4.596  0.5699  0.2615 -0.4574
  925MOL0     H24808   6.535   9.478   4.433  1.9741  0.4944 -1.3864
  925MOL0     H24809   6.311   9.609   4.380  0.1477  1.2425 -2.5582
  925MOL0     H24810   6.197   9.809   4.248  0.0447 -0.6760  0.0203
  925MOL0     H24811   6.126   9.711   4.372 -3.0824  1.6520  0.6227
  925MOL0     H24812   6.002   9.907   4.466  0.8698  0.8639 -0.2930
  925MOL0     H24813   6.037   9.995   4.314  1.7373  0.9546  1.3202
  925MOL0     H24814   5.915   9.812   4.195 -0.6187 -0.6820  0.3452
  925MOL0     H24815   5.881   9.730   4.350  0.1403  0.7959  2.1736
  925MOL0     H24816   5.740   9.936   4.409  0.7861  0.7449  1.2118
  925MOL0     H24817   5.794  10.014   4.262 -0.1510  0.9975  2.0078
  925MOL0     H24818   5.686   9.815   4.136 -1.1866  1.4491 -1.7589
  925MOL0     H24819   5.623   9.754   4.280 -3.1998  1.2655 -1.7955
  925MOL0     H24820   5.437   9.889   4.223 -0.0061 -0.8620 -1.4778
  925MOL0     H24821   5.525  10.020   4.307 -2.1887 -0.9168  0.8727
  925MOL0     H24822   5.596   9.985   4.012  1.5814  1.9158  0.1863
  925MOL0     H24823   5.433  10.043   4.070  0.1304 -2.2307 -0.7651
  925MOL0     H24824   5.708  10.164   4.095 -0.3198 -0.1625  0.8049
  925MOL0     H24825   5.579  10.221   4.203 -1.7505  2.7900 -1.8369
  925MOL0     H24826   5.362  10.348   4.112 -4.5357  2.6248 -3.2624
  925MOL0     H24827   5.304  10.601   3.972 -0.1379  0.9582 -0.0219
  925MOL0     H24828   5.389  10.604   3.816 -0.6159  1.7782  1.3683
  925MOL0     H24829   5.155  10.438   3.892  0.4623  0.9230  0.9520
  925MOL0     H24830   5.245  10.404   3.744  0.1600 -0.6304  1.3451
  925MOL0     H24831   5.209  10.625   3.657  3.0945 -1.5059  2.3845
  925MOL0     H24832   5.134  10.684   3.803  2.7923 -0.3182  0.0236
  925MOL0     H24833   4.935  10.546   3.795  0.9472  0.8683  0.9548
  925MOL0     H24834   4.987  10.465   3.649 -0.7650  1.3019 -1.3994
  925MOL0     H24835   4.740  10.487   3.735 -0.7050 -0.1750 -0.0894
  925MOL0     H24836   4.544  10.452   3.840 -0.4838 -3.3051 -1.1216
  925MOL0     H24837   4.386  10.516   3.792 -0.4043 -1.2639  0.5424
  925MOL0     H24838   4.476  10.414   3.681 -1.0723  0.4212 -0.2541
  925MOL0     H24839   4.091  10.679   3.596  1.2203 -2.1022 -1.9585
  925MOL0     H24840   3.865  10.773   3.543  0.8827 -0.9616 -0.5133
  925MOL0     H24841   3.757  10.791   3.326  1.0357  0.4162  1.1593
  925MOL0     H24842   3.687  10.849   3.487 -2.7260  2.9345  0.1504
  925MOL0     H24843   3.551  11.011   3.376  1.3682  1.0224 -1.7845
  925MOL0     H24844   3.595  10.953   3.216 -0.9059 -2.8039 -0.9336
  925MOL0     H24845   3.459  10.769   3.414  1.0813  0.0050 -0.0157
  925MOL0     H24846   3.479  10.741   3.241  2.1783 -1.5556  2.0874
  925MOL0     H24847   3.314  10.964   3.358  1.6551  1.8724 -1.0216
  925MOL0     H24848   3.332  10.933   3.193 -2.2661 -1.0230 -0.5149
  925MOL0     H24849   3.260  10.709   3.378  0.2680 -2.0617 -1.4706
  925MOL0     H24850   3.234  10.698   3.204 -0.3255 -0.6943  0.0569
  925MOL0     H24851   3.058  10.847   3.403 -1.1153 -0.1911 -0.6301
  925MOL0     H24852   3.037  10.866   3.231 -1.1414 -1.0952 -1.6540
  925MOL0     H24853   2.886  10.714   3.353  0.5489  1.1097  1.4147
  925MOL0     H24854   3.009  10.596   3.382 -3.0203 -2.5121 -0.8232
  925MOL0     H24855   2.983  10.669   3.109 -2.6445  0.2687  1.2736
  925MOL0     H24856   2.868  10.550   3.183  0.3188 -0.6617  0.1119
  925MOL0     H24857   4.032  11.112   3.349  2.2013  0.3818 -1.4805
  925MOL0     H24858   4.261  11.019   3.401 -0.3032  1.4379  0.5884
  925MOL0     H24859   4.578  10.894   3.507 -1.1386 -0.0855 -1.3644
  925MOL0     H24860   4.807  10.844   3.496 -1.0774 -0.0445 -1.0104
  925MOL0     H24861   6.481   9.968   4.520  2.6328 -0.2668  0.6632
  925MOL0     H24862   6.698   9.857   4.546 -0.3885 -0.5275  1.3466
  925MOL0     H24863   6.937   9.583   4.858 -3.8540 -0.4280  0.8299
  925MOL0     H24864   7.092   9.421   4.926 -1.7098  1.2091  0.5948
  925MOL0     H24865   7.304   9.275   4.703  1.1855  0.0252  0.0614
  925MOL0     H24866   7.341   9.161   4.837  2.8444  0.9847 -2.1987
  925MOL0     H24867   7.206   9.094   4.571 -2.9873  0.9666  3.5911
  925MOL0     H24868   7.234   8.975   4.697  2.2747 -1.2187 -0.5006
  925MOL0     H24869   7.480   9.008   4.690 -0.0380  0.8523  1.0848
  925MOL0     H24870   7.458   9.122   4.542 -1.3539 -0.4283 -0.8490
  925MOL0     H24871   7.405   8.950   4.399  0.4626 -3.5081 -2.3281
  925MOL0     H24872   7.350   8.851   4.517 -1.4007  0.7480 -1.4685
  925MOL0     H24873   7.783   8.823   4.481 -0.3592  0.2689 -1.1729
  925MOL0     H24874   6.996   9.189   4.569 -0.8619 -0.0559  0.6584
  925MOL0     H24875   6.858   9.367   4.496  0.2498 -1.3212 -0.1831
  926MOL0     O24876   6.276   7.145   5.099  0.5321  0.2023  0.0869
  926MOL0     C24877   6.360   7.206   5.161  0.8414  0.5412  0.3137
  926MOL0     O24878   6.345   7.332   5.212 -1.0116  0.7035  0.0241
  926MOL0     C24879   6.220   7.393   5.201 -0.0259  0.8241 -0.1287
  926MOL0     C24880   6.096   7.326   5.212 -0.1285 -0.5340 -0.2398
  926MOL0     C24881   5.979   7.398   5.205 -0.5797 -0.1305  0.2658
  926MOL0     C24882   5.977   7.534   5.181  0.2985 -0.4413 -0.5728
  926MOL0     O24883   5.856   7.600   5.170 -0.2116 -0.1482 -0.5173
  926MOL0     C24884   5.851   7.734   5.229  0.1560  0.1602  0.1356
  926MOL0     C24885   5.712   7.798   5.204 -0.5211 -0.1110 -0.7160
  926MOL0     C24886   5.708   7.859   5.066 -0.2300 -0.2909 -0.1594
  926MOL0     C24887   5.586   7.829   4.991 -0.1603 -0.0177  0.6525
  926MOL0     C24888   5.465   7.915   5.023  0.6844 -0.9567  0.0375
  926MOL0     C24889   5.396   7.889   5.150  0.2671  0.9771 -0.9749
  926MOL0     C24890   5.313   7.762   5.152  0.2877 -0.1700 -0.0275
  926MOL0     C24891   5.218   7.769   5.269 -0.2554  0.2823 -1.0663
  926MOL0     N24892   5.102   7.865   5.264 -0.4182  0.2308 -0.5290
  926MOL0     C24893   5.003   7.849   5.172  0.6072 -0.5039  0.3505
  926MOL0     C24894   4.919   7.950   5.209 -0.1440 -1.0712  0.4607
  926MOL0     C24895   4.809   7.991   5.119 -0.3936 -0.0846 -1.2062
  926MOL0     C24896   4.725   7.876   5.072 -0.6027  0.6314 -0.4347
  926MOL0     C24897   4.615   7.932   4.979  0.3477  0.3809 -0.3733
  926MOL0     C24898   4.516   7.831   4.920  0.0964  0.1525 -0.2362
  926MOL0     O24899   4.441   7.903   4.822  0.3324 -0.2214  0.6750
  926MOL0     C24900   4.315   7.878   4.818 -0.4998  0.0949  0.2391
  926MOL0     C24901   4.267   7.817   4.699 -0.2749  0.3188 -0.0941
  926MOL0     C24902   4.126   7.790   4.680  0.4162  0.1332 -1.2884
  926MOL0     C24903   4.087   7.740   4.545  0.5405 -0.3349  0.6417
  926MOL0     C24904   4.037   7.824   4.786  0.5929 -0.0563  0.7346
  926MOL0     C24905   3.892   7.822   4.775 -0.7356  0.6906  0.2738
  926MOL0     O24906   3.833   7.736   4.691  0.3313 -0.3875  0.5077
  926MOL0     C24907   3.706   7.748   4.650 -0.1859  0.1321 -0.6536
  926MOL0     C24908   3.686   7.792   4.522  0.4908  1.2392 -0.0189
  926MOL0     C24909   3.562   7.814   4.475  0.3330  1.1662 -0.0423
  926MOL0     C24910   3.447   7.793   4.554 -0.0870  0.4043  0.0435
  926MOL0     O24911   3.330   7.818   4.491  0.4251  0.3046  0.3180
  926MOL0     C24912   3.222   7.743   4.526  0.9362  0.4331 -0.0368
  926MOL0     C24913   3.121   7.748   4.415 -1.0315 -0.0295 -0.3462
  926MOL0     C24914   2.980   7.700   4.466  0.4200 -0.1275 -0.1090
  926MOL0     C24915   2.964   7.555   4.513  0.4021  0.3444  0.0337
  926MOL0     C24916   2.816   7.508   4.556 -0.6777  1.1013  0.5061
  926MOL0     C24917   2.825   7.393   4.652 -0.1512 -0.7283 -0.8381
  926MOL0     C24918   2.862   7.438   4.796  0.3596  0.1605  0.4771
  926MOL0     C24919   2.865   7.328   4.903 -0.0652 -0.0625  0.6881
  926MOL0    Cl24920   2.870   7.376   5.072  0.0529  0.6810 -0.0180
  926MOL0     C24921   3.467   7.749   4.684  0.7080  0.3156  0.6654
  926MOL0     C24922   3.593   7.725   4.735 -1.0229  0.3653  0.4931
  926MOL0     O24923   3.827   7.909   4.834 -1.4356  0.2245  0.1463
  926MOL0     C24924   4.087   7.881   4.904 -0.4214 -0.1131 -1.2278
  926MOL0     C24925   4.229   7.902   4.923  0.7905 -0.3576 -0.0011
  926MOL0     N24926   4.960   8.010   5.320 -0.4978  0.3910  0.0859
  926MOL0     N24927   5.076   7.961   5.358 -0.4446  0.1047 -0.0534
  926MOL0     C24928   6.103   7.603   5.167 -0.2202  0.2179  0.1433
  926MOL0     C24929   6.222   7.531   5.176  0.0960 -0.1386 -0.0067
  926MOL0     C24930   6.500   7.154   5.154  0.2699  0.1569 -0.2143
  926MOL0     C24931   6.613   7.208   5.226  0.3144  0.6378  0.2395
  926MOL0     C24932   6.729   7.135   5.232 -0.0929  0.0861 -0.5103
  926MOL0     C24933   6.752   7.010   5.172 -0.8506 -0.2596 -0.0692
  926MOL0     O24934   6.874   6.966   5.203  0.0079 -0.2188 -0.2803
  926MOL0     C24935   6.909   6.844   5.132 -0.6160 -0.0752  0.6121
  926MOL0     C24936   7.056   6.802   5.160  0.4761 -0.0637  0.1438
  926MOL0     C24937   7.090   6.737   5.297 -0.2481 -0.2103 -0.1440
  926MOL0     C24938   7.225   6.663   5.302 -0.7555 -0.3123 -0.3197
  926MOL0     C24939   7.336   6.748   5.260  0.1263  0.3054  0.0688
  926MOL0     C24940   7.431   6.815   5.216  0.7382  0.5207 -0.0806
  926MOL0     C24941   6.650   6.957   5.099 -0.4402 -0.4453  0.0009
  926MOL0     C24942   6.530   7.031   5.084  0.1070  0.0184  0.1039
  926MOL0     H24943   6.085   7.222   5.243 -0.0861 -0.1342  1.2045
  926MOL0     H24944   5.891   7.336   5.216 -0.2111 -0.3147  2.6607
  926MOL0     H24945   5.868   7.736   5.337 -1.3495  2.9063  0.4204
  926MOL0     H24946   5.929   7.803   5.194  3.7735 -1.8175  3.4352
  926MOL0     H24947   5.629   7.727   5.214 -1.2913  0.8928  0.2835
  926MOL0     H24948   5.695   7.870   5.285 -1.3052 -1.6006  0.4849
  926MOL0     H24949   5.709   7.968   5.075 -1.0423 -0.2410 -0.5704
  926MOL0     H24950   5.795   7.816   5.016  0.8671 -2.6058  3.3072
  926MOL0     H24951   5.613   7.859   4.889  0.8084  0.2703  0.9812
  926MOL0     H24952   5.569   7.721   4.989  3.5859 -0.7629 -1.5359
  926MOL0     H24953   5.505   8.017   5.025  0.8223 -1.0243  1.0291
  926MOL0     H24954   5.397   7.901   4.939  0.6856  0.0480 -0.1430
  926MOL0     H24955   5.466   7.897   5.234 -0.5619  0.7908 -0.2461
  926MOL0     H24956   5.331   7.974   5.173  1.2804  1.5722 -0.2067
  926MOL0     H24957   5.256   7.739   5.062 -0.2796  1.2115 -0.0419
  926MOL0     H24958   5.382   7.677   5.159 -0.6563 -0.8449  1.9898
  926MOL0     H24959   5.278   7.792   5.358  0.4240  0.1455 -1.4789
  926MOL0     H24960   5.173   7.672   5.295  1.4088 -0.1727  0.3552
  926MOL0     H24961   4.998   7.795   5.078  0.9128 -2.2311  1.2931
  926MOL0     H24962   4.754   8.071   5.169  0.1694  0.7190 -1.8437
  926MOL0     H24963   4.852   8.043   5.033  0.6574  0.5987 -0.2953
  926MOL0     H24964   4.682   7.832   5.162 -1.2186 -0.3350 -1.1806
  926MOL0     H24965   4.778   7.798   5.016 -1.1663  0.8340 -1.2688
  926MOL0     H24966   4.675   7.976   4.900  0.4538 -0.5183 -0.8048
  926MOL0     H24967   4.546   8.000   5.030 -1.5734 -0.7276 -1.3568
  926MOL0     H24968   4.453   7.796   5.002 -0.4328  0.7660 -0.3683
  926MOL0     H24969   4.573   7.753   4.870  0.5402  0.3594 -0.0599
  926MOL0     H24970   4.345   7.786   4.630  3.4644  1.7308  3.1054
  926MOL0     H24971   4.045   7.639   4.549  1.2978 -0.7807 -1.2362
  926MOL0     H24972   4.008   7.803   4.501 -1.3780 -1.8945  1.7107
  926MOL0     H24973   4.176   7.733   4.481  0.6742  1.2173  0.6214
  926MOL0     H24974   3.764   7.807   4.447  0.5073 -0.1275 -0.2943
  926MOL0     H24975   3.559   7.856   4.376 -0.2506  1.3884  0.0673
  926MOL0     H24976   3.248   7.638   4.546 -0.3081  0.0816 -0.1850
  926MOL0     H24977   3.183   7.784   4.619  0.5246 -3.6578  1.8419
  926MOL0     H24978   3.095   7.850   4.385 -1.5618 -0.5995 -1.9728
  926MOL0     H24979   3.167   7.702   4.327  0.9254  2.2716 -0.6116
  926MOL0     H24980   2.912   7.726   4.384  2.3161  3.0823 -0.8554
  926MOL0     H24981   2.948   7.771   4.543  1.5198  0.6811 -0.3615
  926MOL0     H24982   3.003   7.482   4.441  0.6102  0.2855  0.2043
  926MOL0     H24983   3.031   7.539   4.599  2.9981  1.9241 -1.5763
  926MOL0     H24984   2.769   7.489   4.459  0.1995 -0.9980  0.4272
  926MOL0     H24985   2.777   7.602   4.596 -2.7724  0.6369 -0.2920
  926MOL0     H24986   2.724   7.350   4.653 -2.3077  3.4979  2.3431
  926MOL0     H24987   2.886   7.309   4.618  1.7961  0.0646  0.5247
  926MOL0     H24988   2.790   7.515   4.824 -3.6584 -2.7320 -1.0625
  926MOL0     H24989   2.962   7.482   4.791  0.2905  0.2296 -4.0971
  926MOL0     H24990   2.943   7.255   4.882 -0.1733 -0.1004  0.4180
  926MOL0     H24991   2.777   7.265   4.888  0.3513 -0.0885 -2.0465
  926MOL0     H24992   3.378   7.731   4.742 -0.0748  1.7098 -0.0610
  926MOL0     H24993   3.604   7.694   4.838  1.8583  0.0037  0.1497
  926MOL0     H24994   4.031   7.905   4.994  2.6765 -0.2336  0.9059
  926MOL0     H24995   4.270   7.932   5.018  2.2326 -1.8613 -0.1130
  926MOL0     H24996   6.105   7.712   5.168  3.3170  0.2994 -0.9174
  926MOL0     H24997   6.323   7.568   5.167  0.9700 -2.2897  0.2942
  926MOL0     H24998   6.617   7.303   5.277 -0.3201  0.2485  1.0426
  926MOL0     H24999   6.813   7.167   5.293  0.2922  0.2466 -1.1160
  926MOL0     H25000   6.839   6.764   5.158 -0.7648  0.1379  0.8649
  926MOL0     H25001   6.897   6.870   5.027 -1.1917  0.2115  0.7454
  926MOL0     H25002   7.115   6.893   5.148 -3.0101  2.3605  0.0578
  926MOL0     H25003   7.082   6.733   5.079  1.5173 -1.4325  1.5969
  926MOL0     H25004   7.011   6.663   5.314 -0.9306  0.8190  1.4221
  926MOL0     H25005   7.074   6.806   5.380 -2.7536  1.1506 -1.6556
  926MOL0     H25006   7.208   6.580   5.233  0.2620 -1.6647  0.9884
  926MOL0     H25007   7.244   6.626   5.404  1.0885 -0.0268 -0.5200
  926MOL0     H25008   7.510   6.858   5.158  0.6680  0.0701 -0.5206
  926MOL0     H25009   6.682   6.862   5.056  3.3662  1.1109 -0.9972
  926MOL0     H25010   6.448   6.974   5.040 -1.0801  1.5043  0.2975
  927MOL0     O25011   4.321   1.466   6.159  0.0555 -0.3461  0.4423
  927MOL0     C25012   4.294   1.345   6.165 -0.4902  0.8869  0.2934
  927MOL0     O25013   4.380   1.239   6.146  0.8033 -0.0798  0.1408
  927MOL0     C25014   4.516   1.265   6.131  0.5857 -0.0312  0.3301
  927MOL0     C25015   4.582   1.327   6.238 -0.5611 -0.6110  0.1562
  927MOL0     C25016   4.713   1.371   6.216 -0.0113 -0.2186 -0.1274
  927MOL0     C25017   4.778   1.363   6.091 -1.0392  0.1872  0.6351
  927MOL0     O25018   4.901   1.415   6.083 -0.1426  1.3098 -0.0586
  927MOL0     C25019   5.003   1.308   6.078  0.7573 -0.8108  0.1194
  927MOL0     C25020   5.064   1.298   5.941  0.1017 -0.5111  0.4704
  927MOL0     C25021   5.155   1.174   5.946  0.2883 -0.1275  0.0021
  927MOL0     C25022   5.293   1.214   6.002  0.4680 -0.8136  0.6981
  927MOL0     C25023   5.385   1.096   5.989  0.3913  0.1344 -0.7129
  927MOL0     C25024   5.519   1.127   6.055  0.1784  0.5569 -0.1136
  927MOL0     C25025   5.632   1.023   6.038 -0.1482  1.0960  0.1359
  927MOL0     C25026   5.654   0.979   5.898 -0.1532 -0.7188  0.3933
  927MOL0     N25027   5.764   0.880   5.899  0.6180 -0.1139  0.5977
  927MOL0     C25028   5.892   0.899   5.883 -1.2507  1.0129  0.6029
  927MOL0     C25029   5.939   0.782   5.834  0.3783  0.6191 -1.2519
  927MOL0     C25030   6.078   0.729   5.787 -0.5897  0.7680  0.0667
  927MOL0     C25031   6.128   0.803   5.658 -0.2136  0.6901 -0.3386
  927MOL0     C25032   6.036   0.790   5.537  0.0127 -0.9628  0.4533
  927MOL0     C25033   6.009   0.652   5.484 -0.1167  0.4422 -0.1543
  927MOL0     O25034   5.930   0.654   5.365 -0.1662 -0.5724  0.5922
  927MOL0     C25035   5.804   0.615   5.362 -0.2426  0.3334 -1.2620
  927MOL0     C25036   5.734   0.622   5.242  0.2659 -0.8216  0.5768
  927MOL0     C25037   5.599   0.583   5.233  0.4581 -0.2380 -0.4853
  927MOL0     C25038   5.536   0.581   5.098 -0.0141 -0.2144  0.1697
  927MOL0     C25039   5.521   0.548   5.350  1.2743 -0.8271 -0.9025
  927MOL0     C25040   5.372   0.518   5.337 -0.5374 -0.6431 -0.1739
  927MOL0     O25041   5.331   0.441   5.439 -0.3255 -0.7203  0.3528
  927MOL0     C25042   5.202   0.435   5.467 -0.0009  0.2862 -0.0211
  927MOL0     C25043   5.143   0.310   5.439  0.4361  0.0390  0.6019
  927MOL0     C25044   5.010   0.282   5.473 -0.6778 -0.1464  0.0718
  927MOL0     C25045   4.934   0.379   5.541 -0.3757  0.7016  0.5154
  927MOL0     O25046   4.820   0.343   5.609 -0.8208  0.2047 -0.5327
  927MOL0     C25047   4.728   0.249   5.558 -0.2145  0.3150  1.0547
  927MOL0     C25048   4.581   0.270   5.589  1.0532  0.2687 -0.5043
  927MOL0     C25049   4.549   0.249   5.733 -0.6652  0.0106 -0.0846
  927MOL0     C25050   4.415   0.311   5.779 -0.3896 -0.5729  0.4254
  927MOL0     C25051   4.403   0.313   5.931 -0.6241  0.3583 -0.8083
  927MOL0     C25052   4.467   0.440   5.999  0.1819  0.0573  0.6871
  927MOL0     C25053   4.406   0.469   6.140 -0.1963  0.6757 -0.3947
  927MOL0     C25054   4.428   0.357   6.245 -0.2926 -0.0783 -0.7630
  927MOL0    Cl25055   4.384   0.422   6.404  0.4067 -0.4468  0.3939
  927MOL0     C25056   4.993   0.494   5.580  0.0022 -0.9564 -0.0179
  927MOL0     C25057   5.129   0.527   5.546  0.7651 -0.1557  0.1045
  927MOL0     O25058   5.300   0.573   5.246 -0.5998 -0.3707 -0.2397
  927MOL0     C25059   5.588   0.551   5.476 -0.5949  0.1835  0.3761
  927MOL0     C25060   5.729   0.578   5.476  0.9711  0.4560  0.3080
  927MOL0     N25061   5.832   0.692   5.821  0.1223  0.1338 -0.1537
  927MOL0     N25062   5.727   0.755   5.849  0.4687 -0.4377  0.8572
  927MOL0     C25063   4.702   1.318   5.981  0.2866  0.7715 -0.2842
  927MOL0     C25064   4.578   1.260   6.007 -0.5569 -0.0430  0.3525
  927MOL0     C25065   4.155   1.315   6.193  0.3434 -1.0589  0.9703
  927MOL0     C25066   4.050   1.409   6.161  0.5452  0.6818 -0.7378
  927MOL0     C25067   3.918   1.375   6.203  1.0366  0.3844 -1.2751
  927MOL0     C25068   3.887   1.252   6.267 -0.1015 -0.2249 -0.2280
  927MOL0     O25069   3.756   1.238   6.299 -0.1733 -0.1076  0.0680
  927MOL0     C25070   3.715   1.108   6.324 -0.3367 -0.3328  0.5824
  927MOL0     C25071   3.562   1.094   6.289  0.4293 -0.5088  0.5714
  927MOL0     C25072   3.508   1.195   6.176  0.4843  0.0640 -0.3652
  927MOL0     C25073   3.368   1.165   6.126 -0.2429  0.2084  0.4048
  927MOL0     C25074   3.350   1.203   5.985  0.4350  0.1356  0.0869
  927MOL0     C25075   3.324   1.236   5.870  0.1266 -0.1708 -0.0528
  927MOL0     C25076   3.996   1.164   6.299 -0.7761  0.2977 -0.0105
  927MOL0     C25077   4.124   1.190   6.251 -0.0297 -0.5268  0.1019
  927MOL0     H25078   4.536   1.333   6.336 -1.6881 -2.3689 -0.2205
  927MOL0     H25079   4.766   1.422   6.296  1.0627  0.7766 -1.4142
  927MOL0     H25080   5.078   1.327   6.156  0.5169  1.0690 -0.0515
  927MOL0     H25081   4.953   1.215   6.105 -0.6108 -0.2143 -0.2863
  927MOL0     H25082   4.987   1.275   5.866  0.4340  1.5850 -0.6075
  927MOL0     H25083   5.120   1.390   5.925 -0.5082  0.0969  1.7141
  927MOL0     H25084   5.109   1.096   6.008 -2.0392  2.2651  1.5155
  927MOL0     H25085   5.175   1.131   5.847  2.3349 -2.2619  1.2119
  927MOL0     H25086   5.324   1.293   5.933 -1.1194 -1.2805 -0.6087
  927MOL0     H25087   5.278   1.249   6.105 -1.4373  2.0451 -0.4203
  927MOL0     H25088   5.339   1.008   6.036  1.5163  0.2093  0.5989
  927MOL0     H25089   5.398   1.078   5.882 -1.0060 -2.4788 -0.5260
  927MOL0     H25090   5.566   1.216   6.012 -0.8257  1.2099  0.0805
  927MOL0     H25091   5.500   1.139   6.163  0.6799  0.0499  0.0350
  927MOL0     H25092   5.725   1.053   6.086 -0.5253 -0.9971  2.3991
  927MOL0     H25093   5.603   0.935   6.098 -2.3169  0.0975 -2.1554
  927MOL0     H25094   5.674   1.070   5.842  1.5151 -1.1198  0.3016
  927MOL0     H25095   5.560   0.933   5.863  0.1276 -1.5222  0.6619
  927MOL0     H25096   5.949   0.991   5.881  1.7253 -0.6614 -2.1244
  927MOL0     H25097   6.141   0.725   5.877 -1.2765 -5.3606  0.7215
  927MOL0     H25098   6.071   0.622   5.763  0.8343  0.4469  0.9066
  927MOL0     H25099   6.221   0.749   5.635 -1.3149 -1.0136 -1.0064
  927MOL0     H25100   6.153   0.904   5.689  1.0896  0.7554 -1.4586
  927MOL0     H25101   6.064   0.850   5.450 -0.6328 -0.0614  0.8544
  927MOL0     H25102   5.937   0.823   5.569 -0.6533 -0.3929 -2.0250
  927MOL0     H25103   5.956   0.603   5.567 -0.9989  4.1026  1.6597
  927MOL0     H25104   6.102   0.595   5.478 -1.1541 -1.1916 -1.7663
  927MOL0     H25105   5.775   0.648   5.144 -0.7422  1.1700  0.6148
  927MOL0     H25106   5.477   0.673   5.086  2.4702  1.6116  1.0603
  927MOL0     H25107   5.611   0.576   5.019  1.0812 -2.6778  1.2867
  927MOL0     H25108   5.476   0.493   5.073 -1.3596  0.9158 -0.7335
  927MOL0     H25109   5.201   0.226   5.404  1.0897  0.7669 -0.0967
  927MOL0     H25110   4.972   0.181   5.462  0.5073 -0.3413 -4.3763
  927MOL0     H25111   4.721   0.246   5.449 -2.0084 -1.0003  1.1710
  927MOL0     H25112   4.754   0.149   5.594 -1.5354 -0.0497  1.0284
  927MOL0     H25113   4.556   0.374   5.565  0.1158  0.4220  1.0217
  927MOL0     H25114   4.524   0.196   5.532 -0.0185 -0.6708  1.6799
  927MOL0     H25115   4.628   0.300   5.789  0.5034 -0.1699 -1.4860
  927MOL0     H25116   4.554   0.141   5.750  2.7282 -0.1902 -1.5525
  927MOL0     H25117   4.419   0.416   5.748  0.7341 -0.7064  0.0452
  927MOL0     H25118   4.334   0.262   5.724 -0.8577  1.2089 -0.5586
  927MOL0     H25119   4.440   0.223   5.980 -2.1695  0.5941  0.9487
  927MOL0     H25120   4.295   0.316   5.950 -0.5392 -0.7784 -0.0859
  927MOL0     H25121   4.576   0.429   6.000  0.4094  1.5343 -1.2259
  927MOL0     H25122   4.456   0.532   5.940 -1.9271  0.0555  0.9961
  927MOL0     H25123   4.298   0.485   6.136 -0.4807 -1.0672 -0.1963
  927MOL0     H25124   4.450   0.562   6.178  0.5915  2.1330 -4.3519
  927MOL0     H25125   4.532   0.320   6.247  0.8133  2.7966 -0.7612
  927MOL0     H25126   4.364   0.271   6.223 -1.2102  0.8938 -2.0540
  927MOL0     H25127   4.941   0.550   5.656  1.3711 -0.6136  0.7013
  927MOL0     H25128   5.170   0.619   5.587  0.0639 -0.3484  1.3109
  927MOL0     H25129   5.543   0.530   5.572 -2.6380 -1.0322 -0.7917
  927MOL0     H25130   5.764   0.565   5.578  0.2693  1.8930  0.7622
  927MOL0     H25131   4.746   1.328   5.882  1.7297  2.4030  0.4586
  927MOL0     H25132   4.517   1.236   5.920 -0.5039 -1.9646  0.8130
  927MOL0     H25133   4.067   1.506   6.116  0.4470  0.5744 -1.0045
  927MOL0     H25134   3.837   1.442   6.177  2.0730  0.8382 -3.6000
  927MOL0     H25135   3.769   1.029   6.271  2.0367  0.8555  1.0756
  927MOL0     H25136   3.725   1.090   6.431  0.6985 -3.8769  0.0235
  927MOL0     H25137   3.495   1.106   6.375 -0.3893  2.6316 -0.3691
  927MOL0     H25138   3.545   0.989   6.264  0.7415 -0.9638  2.1633
  927MOL0     H25139   3.572   1.184   6.088 -1.4190  0.6860 -1.8855
  927MOL0     H25140   3.523   1.297   6.212 -0.4347  0.2478 -0.5019
  927MOL0     H25141   3.307   1.225   6.193  0.7816 -0.3525  1.8942
  927MOL0     H25142   3.331   1.063   6.141  2.1158 -0.8525 -0.3335
  927MOL0     H25143   3.310   1.255   5.766  3.7126 -1.5791 -0.9460
  927MOL0     H25144   3.972   1.073   6.353  2.2328 -0.2313  0.6176
  927MOL0     H25145   4.204   1.125   6.287 -0.1560 -0.6577  0.1467
  928MOL0     O25146  10.174   1.842   3.611 -0.3066 -0.3486  0.1036
  928MOL0     C25147  10.282   1.799   3.662  0.5445  0.8780  1.2164
  928MOL0     O25148  10.290   1.712   3.765 -0.4680 -1.1364 -0.0147
  928MOL0     C25149  10.187   1.654   3.831 -0.0987 -0.1272  0.3276
  928MOL0     C25150  10.193   1.639   3.965  0.0179  0.0716  0.5044
  928MOL0     C25151  10.116   1.547   4.022 -0.1904 -0.1902 -0.6330
  928MOL0     C25152  10.022   1.474   3.954  0.2220  0.8398 -0.1827
  928MOL0     O25153   9.954   1.368   4.013  0.8936  0.1198 -0.8383
  928MOL0     C25154   9.811   1.372   3.995 -1.6033  0.2294  0.1299
  928MOL0     C25155   9.743   1.293   4.102  0.2004 -0.3592  0.5249
  928MOL0     C25156   9.595   1.288   4.065  0.1896  0.3236  0.9282
  928MOL0     C25157   9.524   1.187   4.154  0.3616 -0.1570 -0.1003
  928MOL0     C25158   9.375   1.219   4.159 -0.7245  0.1639  0.9886
  928MOL0     C25159   9.303   1.220   4.026  0.7130 -0.4225  0.0561
  928MOL0     C25160   9.150   1.228   4.041  0.5334  0.0496 -0.0222
  928MOL0     C25161   9.075   1.182   3.914 -0.1482  0.1659  0.3814
  928MOL0     N25162   8.930   1.186   3.913 -0.5159 -0.0716  0.1770
  928MOL0     C25163   8.848   1.114   4.002  0.0086  0.8554  0.1259
  928MOL0     C25164   8.723   1.136   3.951 -0.2706 -0.2654 -1.1557
  928MOL0     C25165   8.596   1.079   4.009 -0.3962 -0.0062 -0.4599
  928MOL0     C25166   8.472   1.129   3.927 -0.2077 -0.1923 -0.1476
  928MOL0     C25167   8.339   1.074   3.991  0.3930 -0.6801 -0.6526
  928MOL0     C25168   8.211   1.105   3.916  0.1160  0.5351  0.2520
  928MOL0     O25169   8.096   1.075   3.993 -0.0810 -0.0921 -0.0354
  928MOL0     C25170   7.988   1.148   3.968  0.0703 -0.1937 -0.0810
  928MOL0     C25171   7.953   1.275   4.029 -0.4600  0.8792 -0.1161
  928MOL0     C25172   7.833   1.341   4.003  0.4623 -0.2296  0.5320
  928MOL0     C25173   7.825   1.466   4.085  0.8961  0.7716 -0.3647
  928MOL0     C25174   7.742   1.286   3.910  0.4621  0.1601  0.2410
  928MOL0     C25175   7.600   1.339   3.887 -0.2320 -0.0822 -0.0213
  928MOL0     O25176   7.551   1.315   3.760 -1.1792 -0.9724  0.1347
  928MOL0     C25177   7.428   1.355   3.737  1.1142  0.4655  0.1785
  928MOL0     C25178   7.382   1.484   3.731 -0.5203 -0.3121 -0.5141
  928MOL0     C25179   7.250   1.519   3.701  0.3343 -0.3150  0.7542
  928MOL0     C25180   7.155   1.419   3.692 -0.0873  0.2007 -0.5647
  928MOL0     O25181   7.022   1.459   3.670 -0.5480  0.5095  0.1199
  928MOL0     C25182   6.925   1.388   3.747 -0.0715 -0.5808 -0.4808
  928MOL0     C25183   6.784   1.436   3.721  0.5548  1.1385  0.1817
  928MOL0     C25184   6.679   1.367   3.807 -0.3720 -0.2044 -0.1275
  928MOL0     C25185   6.540   1.397   3.749  0.5040  0.1070  0.2300
  928MOL0     C25186   6.437   1.348   3.848 -0.5270 -0.1619  0.0630
  928MOL0     C25187   6.292   1.354   3.794 -1.1964  0.4213  0.0362
  928MOL0     C25188   6.244   1.483   3.720 -0.9404 -0.1580  0.5412
  928MOL0     C25189   6.104   1.481   3.684 -0.1330 -0.7144  1.0952
  928MOL0    Cl25190   6.084   1.354   3.555 -0.3737 -0.1138 -0.3051
  928MOL0     C25191   7.196   1.284   3.685  0.0026 -0.2409 -0.0611
  928MOL0     C25192   7.331   1.254   3.703 -0.7632  0.3278  0.3670
  928MOL0     O25193   7.538   1.381   3.983  1.1783  0.0720 -0.2273
  928MOL0     C25194   7.778   1.161   3.848 -0.0837 -0.5332  0.1923
  928MOL0     C25195   7.893   1.090   3.886  0.3247 -0.7814 -0.1735
  928MOL0     N25196   8.739   1.222   3.836 -0.2267 -0.1784 -0.1690
  928MOL0     N25197   8.863   1.235   3.806  0.2375 -0.1207 -0.2677
  928MOL0     C25198  10.009   1.496   3.817 -0.2858  0.9051 -0.3552
  928MOL0     C25199  10.092   1.588   3.760 -1.0211  0.2879 -0.1493
  928MOL0     C25200  10.419   1.848   3.597  0.3870 -0.6855 -0.7350
  928MOL0     C25201  10.543   1.800   3.634  0.4672 -0.0908 -0.2615
  928MOL0     C25202  10.660   1.856   3.586  0.8431  0.3578 -0.3664
  928MOL0     C25203  10.655   1.950   3.487  0.3111  0.3138  0.1984
  928MOL0     O25204  10.766   2.011   3.436 -0.6230  0.5835 -0.0040
  928MOL0     C25205  10.822   2.120   3.502  0.6388 -0.2282 -0.8122
  928MOL0     C25206  10.882   2.219   3.404 -0.0706  0.1735 -0.4149
  928MOL0     C25207  10.766   2.286   3.329  0.0256  0.4993 -0.1341
  928MOL0     C25208  10.817   2.400   3.235  0.3434 -0.0958 -0.4089
  928MOL0     C25209  10.914   2.347   3.145  0.0021 -0.6392  0.2443
  928MOL0     C25210  10.979   2.283   3.064 -0.4821  0.7604 -0.2230
  928MOL0     C25211  10.529   1.997   3.440 -0.3896 -1.0051 -0.8168
  928MOL0     C25212  10.415   1.952   3.498  0.1104  0.1793  0.1866
  928MOL0     H25213  10.271   1.694   4.016  2.2520 -3.5641  1.3354
  928MOL0     H25214  10.106   1.533   4.129  1.5144 -2.2537 -0.6804
  928MOL0     H25215   9.771   1.474   3.990 -1.2382  0.4208  0.9301
  928MOL0     H25216   9.793   1.328   3.896 -2.8817 -0.0849  0.4921
  928MOL0     H25217   9.786   1.194   4.121  0.0488 -0.1160  2.4089
  928MOL0     H25218   9.748   1.348   4.197 -0.3795  0.2814  0.1912
  928MOL0     H25219   9.564   1.392   4.077 -2.5744 -0.0977 -1.2868
  928MOL0     H25220   9.573   1.243   3.967 -1.5293 -0.6938  1.7413
  928MOL0     H25221   9.547   1.087   4.116 -0.1464 -0.8071  1.2508
  928MOL0     H25222   9.560   1.203   4.256  4.9761 -0.4323 -1.4864
  928MOL0     H25223   9.328   1.147   4.226  0.0897  0.6436  2.1003
  928MOL0     H25224   9.360   1.319   4.201  0.4385 -0.0006  1.8588
  928MOL0     H25225   9.330   1.312   3.974  0.4347  0.3090  1.1656
  928MOL0     H25226   9.333   1.134   3.966  0.8658 -1.0653  1.0344
  928MOL0     H25227   9.124   1.179   4.136  0.7054  1.9573  1.0625
  928MOL0     H25228   9.124   1.332   4.061  3.2760  0.4552  1.9454
  928MOL0     H25229   9.096   1.075   3.907  0.6308  0.3371 -0.0325
  928MOL0     H25230   9.100   1.240   3.824 -0.7514  2.4296  1.6034
  928MOL0     H25231   8.866   1.043   4.083 -1.7790 -0.1994 -0.3460
  928MOL0     H25232   8.608   0.970   4.006 -1.5815 -0.1468 -0.8021
  928MOL0     H25233   8.583   1.097   4.116 -1.0196 -1.3643 -0.2816
  928MOL0     H25234   8.465   1.105   3.821 -0.8984  1.6105 -0.5640
  928MOL0     H25235   8.468   1.238   3.937 -1.7166 -0.2305 -0.0363
  928MOL0     H25236   8.323   1.119   4.089 -0.6573 -1.4624 -0.4470
  928MOL0     H25237   8.356   0.967   4.001  2.0081 -0.5442 -1.4987
  928MOL0     H25238   8.218   1.038   3.830 -0.5649 -1.3016  1.5625
  928MOL0     H25239   8.216   1.209   3.884 -0.0094  0.8905  1.3327
  928MOL0     H25240   8.025   1.321   4.096 -1.3766 -0.6691  2.0589
  928MOL0     H25241   7.779   1.444   4.182  3.1249 -0.1581  0.5287
  928MOL0     H25242   7.920   1.508   4.118  0.8331  1.8599 -1.4726
  928MOL0     H25243   7.761   1.539   4.032 -0.1716 -0.8371 -1.4005
  928MOL0     H25244   7.457   1.559   3.754  0.7057 -2.0251  1.4349
  928MOL0     H25245   7.220   1.623   3.714 -0.3855 -0.4774  0.4287
  928MOL0     H25246   6.938   1.282   3.721  0.2980 -0.6394 -0.0638
  928MOL0     H25247   6.950   1.402   3.853 -0.0512 -0.0457 -0.5537
  928MOL0     H25248   6.796   1.543   3.742  0.4919  1.3973 -1.0133
  928MOL0     H25249   6.764   1.411   3.616 -0.6121  3.7138 -0.2851
  928MOL0     H25250   6.697   1.411   3.906  0.9404  3.5555 -1.8509
  928MOL0     H25251   6.696   1.260   3.820  1.9111  0.0844 -0.3272
  928MOL0     H25252   6.527   1.503   3.729 -1.5200 -0.1476 -0.1057
  928MOL0     H25253   6.530   1.342   3.655  2.1979  1.1446 -0.5824
  928MOL0     H25254   6.443   1.408   3.939 -2.0702  0.6021 -0.2935
  928MOL0     H25255   6.465   1.246   3.878  1.4847  0.2187 -0.3599
  928MOL0     H25256   6.285   1.282   3.711 -2.7503  0.7461 -0.1323
  928MOL0     H25257   6.223   1.308   3.864  2.8013 -3.1101  2.1344
  928MOL0     H25258   6.294   1.487   3.623  0.9922 -0.8532  1.4533
  928MOL0     H25259   6.268   1.573   3.778 -0.2876 -0.9018  1.4590
  928MOL0     H25260   6.071   1.572   3.632  0.3741 -2.1508 -2.0032
  928MOL0     H25261   6.047   1.470   3.777 -2.5115  1.7303  0.0898
  928MOL0     H25262   7.123   1.205   3.674  0.3206 -0.6083  0.4544
  928MOL0     H25263   7.367   1.153   3.686  2.2879  1.3441  0.2545
  928MOL0     H25264   7.712   1.124   3.770 -0.2232 -0.2335  0.1659
  928MOL0     H25265   7.905   0.994   3.838  1.6746  0.2919 -2.0910
  928MOL0     H25266   9.962   1.438   3.738 -0.9163  2.1020 -0.8794
  928MOL0     H25267  10.096   1.593   3.652 -1.4192 -2.0707 -0.3317
  928MOL0     H25268  10.551   1.721   3.708 -0.8873  0.2075  0.2316
  928MOL0     H25269  10.752   1.813   3.622  1.0583  1.1959  0.1224
  928MOL0     H25270  10.741   2.169   3.556  1.4873  0.0868  0.1991
  928MOL0     H25271  10.893   2.085   3.577 -0.9890 -0.8433  0.5189
  928MOL0     H25272  10.952   2.168   3.337 -0.0765 -0.0180 -0.2753
  928MOL0     H25273  10.932   2.297   3.462 -1.5709 -0.2286  1.5456
  928MOL0     H25274  10.700   2.342   3.396  0.5092 -0.5111  1.2414
  928MOL0     H25275  10.717   2.217   3.261  1.5599 -1.1142  0.3136
  928MOL0     H25276  10.859   2.480   3.297  1.2574 -0.8567 -0.0128
  928MOL0     H25277  10.739   2.450   3.178 -0.2474  0.4447  0.8379
  928MOL0     H25278  11.031   2.219   2.996 -0.7976 -0.6712  0.8559
  928MOL0     H25279  10.525   2.078   3.368 -1.6761  0.4087  0.7583
  928MOL0     H25280  10.317   1.989   3.471 -0.3797  0.7575  2.5122
  929MOL0     O25281   7.136   8.065   7.136  0.4897 -0.3129 -0.2700
  929MOL0     C25282   7.236   8.013   7.093 -0.2256  0.0021 -0.2673
  929MOL0     O25283   7.251   7.946   6.979  0.4113  0.0021 -0.7105
  929MOL0     C25284   7.154   7.931   6.885  1.3012  0.5581 -0.2193
  929MOL0     C25285   7.153   7.817   6.804  0.1037 -0.3804  0.0026
  929MOL0     C25286   7.066   7.800   6.705  0.7304 -0.0318  0.3219
  929MOL0     C25287   6.962   7.895   6.686  0.5005  0.1863 -0.5607
  929MOL0     O25288   6.864   7.873   6.596  0.3128  0.2789 -0.7543
  929MOL0     C25289   6.728   7.888   6.652  0.2071 -0.2926 -0.1337
  929MOL0     C25290   6.701   7.784   6.768 -0.6082  0.0491  0.4391
  929MOL0     C25291   6.555   7.786   6.808  0.5600  0.2409 -0.6101
  929MOL0     C25292   6.531   7.663   6.904  0.0375 -0.2180  0.2187
  929MOL0     C25293   6.400   7.671   6.989  0.4427 -1.0997  0.3259
  929MOL0     C25294   6.383   7.537   7.063 -0.2686  0.2461 -0.0935
  929MOL0     C25295   6.252   7.536   7.141 -0.0515 -0.7488 -0.2413
  929MOL0     C25296   6.234   7.405   7.225 -0.2055  0.1537  0.2419
  929MOL0     N25297   6.188   7.288   7.144 -0.0636  0.5888 -0.8112
  929MOL0     C25298   6.279   7.219   7.067  0.6131  0.0063  0.7297
  929MOL0     C25299   6.192   7.150   6.988  0.5972  0.3513  0.3304
  929MOL0     C25300   6.231   7.090   6.868 -0.6147  0.4303 -0.2295
  929MOL0     C25301   6.236   7.186   6.754 -0.3184 -0.5913 -0.5653
  929MOL0     C25302   6.255   7.111   6.623 -0.1428 -0.3671 -0.0591
  929MOL0     C25303   6.247   7.189   6.489  0.3043  0.0976  0.8808
  929MOL0     O25304   6.142   7.291   6.491  0.2509 -0.7795 -0.0968
  929MOL0     C25305   6.009   7.258   6.473  0.5043 -0.0973  0.1731
  929MOL0     C25306   5.956   7.132   6.447 -0.1620 -0.0917 -0.5890
  929MOL0     C25307   5.822   7.112   6.425  0.1301  0.0198 -0.2697
  929MOL0     C25308   5.771   6.972   6.405 -0.4553 -0.0968 -0.5436
  929MOL0     C25309   5.732   7.223   6.426 -0.9123 -0.3190 -0.6935
  929MOL0     C25310   5.579   7.214   6.422  0.2424 -0.3674 -0.1962
  929MOL0     O25311   5.526   7.332   6.396 -0.2076 -0.0779 -0.6607
  929MOL0     C25312   5.399   7.365   6.424 -0.7236  0.2368 -0.1428
  929MOL0     C25313   5.344   7.350   6.555 -0.4339  0.1056 -0.3824
  929MOL0     C25314   5.211   7.395   6.580 -0.3804  0.4806 -0.9068
  929MOL0     C25315   5.125   7.423   6.471 -0.3191 -0.3060  0.0820
  929MOL0     O25316   4.990   7.456   6.487  0.5342 -0.0411  0.5769
  929MOL0     C25317   4.958   7.573   6.548 -0.4574  0.0335 -0.3094
  929MOL0     C25318   4.994   7.690   6.454 -0.4150 -0.2962  0.3964
  929MOL0     C25319   5.064   7.812   6.521  0.6914  0.5519 -0.0604
  929MOL0     C25320   5.059   7.936   6.443  0.4218  0.5672  0.4210
  929MOL0     C25321   5.152   8.052   6.500 -0.2829 -0.1667  0.7764
  929MOL0     C25322   5.124   8.087   6.642  0.5794 -0.2201  1.3612
  929MOL0     C25323   5.193   8.215   6.679  0.4186 -0.3712 -1.0209
  929MOL0     C25324   5.156   8.265   6.826 -0.4715  0.4171  0.2066
  929MOL0    Cl25325   4.987   8.330   6.818 -0.1094  0.0936  0.4355
  929MOL0     C25326   5.172   7.414   6.342 -0.3740  0.3850  0.0947
  929MOL0     C25327   5.309   7.393   6.324  0.2059  0.6185 -0.1761
  929MOL0     O25328   5.519   7.111   6.441 -1.3550  0.0691 -0.1441
  929MOL0     C25329   5.783   7.349   6.456 -0.6362  0.1235 -0.2823
  929MOL0     C25330   5.919   7.366   6.480 -0.0196 -0.5477 -0.0681
  929MOL0     N25331   6.063   7.189   7.002  0.6870 -0.2147  1.2023
  929MOL0     N25332   6.061   7.277   7.097  0.7872 -0.0625  0.6537
  929MOL0     C25333   6.960   8.020   6.761 -0.9671  0.1067  0.4173
  929MOL0     C25334   7.057   8.036   6.859 -0.7058 -0.4331  0.6672
  929MOL0     C25335   7.353   8.029   7.165 -0.7613 -0.0048  0.0169
  929MOL0     C25336   7.367   8.142   7.255 -0.3059 -0.1479 -0.6926
  929MOL0     C25337   7.470   8.156   7.353  0.7096 -0.1302 -0.1454
  929MOL0     C25338   7.575   8.063   7.348 -0.1957 -0.5033 -0.5424
  929MOL0     O25339   7.692   8.084   7.417 -0.3823 -0.2305 -0.1212
  929MOL0     C25340   7.736   8.219   7.447 -0.2536 -0.2399  0.2581
  929MOL0     C25341   7.881   8.244   7.381 -0.3840  0.3435 -0.5946
  929MOL0     C25342   7.877   8.243   7.230  0.6376 -0.5846  0.8370
  929MOL0     C25343   7.984   8.149   7.173 -0.7147 -0.4745  0.4035
  929MOL0     C25344   8.121   8.205   7.195  0.4785 -0.4154  0.6378
  929MOL0     C25345   8.226   8.266   7.213  0.1903 -0.4536  0.2546
  929MOL0     C25346   7.563   7.955   7.263 -0.5463  0.1335 -0.5842
  929MOL0     C25347   7.459   7.938   7.162  0.0871  0.0623 -0.5106
  929MOL0     H25348   7.223   7.736   6.817 -1.3660 -2.1311 -2.1746
  929MOL0     H25349   7.068   7.707   6.648  1.6566  0.3183 -0.2377
  929MOL0     H25350   6.720   7.992   6.684  3.7326 -0.0256  0.2810
  929MOL0     H25351   6.655   7.885   6.571  1.3882  0.9239 -1.2892
  929MOL0     H25352   6.729   7.682   6.738  0.2116  0.8875 -1.8578
  929MOL0     H25353   6.766   7.799   6.854 -0.4500 -2.4523  0.8435
  929MOL0     H25354   6.543   7.885   6.855  1.0690 -0.3206  0.7685
  929MOL0     H25355   6.501   7.791   6.714  0.8754  0.3790 -0.7857
  929MOL0     H25356   6.510   7.578   6.838  0.3090 -0.3802  0.3383
  929MOL0     H25357   6.621   7.644   6.963  2.7149 -1.4601 -3.8360
  929MOL0     H25358   6.404   7.756   7.058 -1.7144 -1.8422  1.4638
  929MOL0     H25359   6.318   7.698   6.922  2.6912  0.3681 -2.0563
  929MOL0     H25360   6.387   7.449   6.998 -0.5617  1.1934 -1.4211
  929MOL0     H25361   6.464   7.536   7.136  1.1186 -4.6036 -1.3022
  929MOL0     H25362   6.259   7.615   7.216  0.0747 -1.2008  0.2266
  929MOL0     H25363   6.173   7.554   7.067  0.8990 -3.2819 -2.0270
  929MOL0     H25364   6.161   7.421   7.305 -0.8353 -3.3159  0.4873
  929MOL0     H25365   6.330   7.374   7.267  0.1031  2.6354  1.5500
  929MOL0     H25366   6.388   7.217   7.068  0.6395 -0.1805 -0.4971
  929MOL0     H25367   6.328   7.044   6.891 -0.7309  0.2652 -0.0743
  929MOL0     H25368   6.167   7.004   6.845 -0.6655  1.1427 -3.1794
  929MOL0     H25369   6.320   7.256   6.768  2.1280 -3.4091 -0.1418
  929MOL0     H25370   6.146   7.248   6.751  0.2539  0.2493 -1.1463
  929MOL0     H25371   6.172   7.040   6.611  1.0516 -1.7615 -0.3444
  929MOL0     H25372   6.353   7.063   6.623  1.8457  3.3697 -0.5330
  929MOL0     H25373   6.230   7.123   6.403 -1.2989 -0.6101  1.6949
  929MOL0     H25374   6.343   7.241   6.482 -0.7391  2.8113  4.2525
  929MOL0     H25375   6.017   7.043   6.445 -1.2366 -1.0298  2.4415
  929MOL0     H25376   5.692   6.974   6.329 -0.4367 -0.1596 -0.5649
  929MOL0     H25377   5.847   6.903   6.367  1.6141  1.7784 -0.0292
  929MOL0     H25378   5.731   6.946   6.504 -0.6370 -0.7764 -0.7900
  929MOL0     H25379   5.413   7.309   6.628  0.4533 -0.7558 -1.6522
  929MOL0     H25380   5.177   7.405   6.683  2.5908  2.1772  0.0397
  929MOL0     H25381   4.855   7.583   6.583 -1.1349  0.8661 -2.3976
  929MOL0     H25382   5.017   7.583   6.640  0.8291 -1.8814 -0.8660
  929MOL0     H25383   5.058   7.651   6.375 -1.4661 -0.5595 -0.3540
  929MOL0     H25384   4.898   7.718   6.410  0.9362  1.1275 -1.8321
  929MOL0     H25385   5.170   7.784   6.524  0.6923  0.2302 -1.8380
  929MOL0     H25386   5.024   7.822   6.622  2.0404 -3.2908  1.0379
  929MOL0     H25387   5.091   7.911   6.341  2.1498  1.4056  0.7070
  929MOL0     H25388   4.954   7.965   6.432 -0.0607 -0.9215  0.9321
  929MOL0     H25389   5.133   8.139   6.437  0.4574 -0.1980  0.4921
  929MOL0     H25390   5.258   8.026   6.487 -0.1860  1.0658 -1.3383
  929MOL0     H25391   5.017   8.107   6.644  1.2266  4.5218  2.1968
  929MOL0     H25392   5.153   8.010   6.714 -1.0675  0.2010  2.5381
  929MOL0     H25393   5.164   8.292   6.607 -1.1357  0.8175  0.7987
  929MOL0     H25394   5.302   8.206   6.681  0.4433 -0.2974 -1.6463
  929MOL0     H25395   5.223   8.344   6.860  0.2956 -0.8960  1.9199
  929MOL0     H25396   5.165   8.189   6.904 -1.0762  1.1908  1.0568
  929MOL0     H25397   5.115   7.439   6.253 -1.0416 -0.5345  0.2505
  929MOL0     H25398   5.352   7.379   6.226  1.7084 -2.9689  0.8633
  929MOL0     H25399   5.712   7.430   6.466 -1.0982 -0.1660 -1.1045
  929MOL0     H25400   5.963   7.464   6.495 -1.2950  0.3348 -1.7338
  929MOL0     H25401   6.884   8.094   6.737  0.0574  1.1588  0.3024
  929MOL0     H25402   7.055   8.123   6.925  1.5956 -1.2269  1.9042
  929MOL0     H25403   7.293   8.220   7.269  1.4347  1.3051  1.0228
  929MOL0     H25404   7.461   8.230   7.431  2.8607 -1.1035  1.1041
  929MOL0     H25405   7.664   8.298   7.427  2.1452  2.8062  2.5833
  929MOL0     H25406   7.739   8.226   7.557 -0.8812 -2.6837  0.4820
  929MOL0     H25407   7.950   8.170   7.421 -0.9932  0.1824  0.1960
  929MOL0     H25408   7.912   8.341   7.421  1.0886 -0.1501 -0.4832
  929MOL0     H25409   7.885   8.342   7.184  0.2955 -0.8478  0.2001
  929MOL0     H25410   7.778   8.201   7.213  2.3772 -4.1607 -2.0933
  929MOL0     H25411   7.969   8.116   7.070 -0.1155 -1.3132  0.5780
  929MOL0     H25412   7.969   8.061   7.236  1.5886 -0.5454  0.9447
  929MOL0     H25413   8.319   8.315   7.229 -0.6681  2.0902 -1.8391
  929MOL0     H25414   7.640   7.879   7.260  1.0446  1.7096 -0.9139
  929MOL0     H25415   7.458   7.855   7.092  1.1793 -0.4750  0.0859
  930MOL0     O25416  11.089   0.212   8.697  0.2660  0.2651  0.4342
  930MOL0     C25417  11.107   0.168   8.811 -0.0747  0.0210 -0.6665
  930MOL0     O25418  11.009   0.126   8.901 -0.3705  0.4889  0.0478
  930MOL0     C25419  10.875   0.132   8.878 -1.2183 -0.2648 -0.6024
  930MOL0     C25420  10.799   0.047   8.956  0.1669 -0.3742  0.1409
  930MOL0     C25421  10.656   0.040   8.948  0.5504  0.5574 -0.0948
  930MOL0     C25422  10.584   0.119   8.857 -0.3918 -0.1274 -0.5417
  930MOL0     O25423  10.447   0.122   8.837 -0.5598 -0.9722 -0.2495
  930MOL0     C25424  10.357   0.041   8.917  0.8798  0.6259 -0.8982
  930MOL0     C25425  10.220   0.068   8.855 -0.7564 -0.2630  0.5614
  930MOL0     C25426  10.111   0.004   8.925 -0.3939  0.1339  0.2665
  930MOL0     C25427   9.974   0.030   8.871 -0.2225  0.3257  0.7057
  930MOL0     C25428   9.875  -0.075   8.928  0.5256 -0.3920 -0.1387
  930MOL0     C25429   9.726  -0.058   8.879 -0.6672  0.3242  0.1143
  930MOL0     C25430   9.637  -0.169   8.939 -0.0298  0.3116  0.6593
  930MOL0     C25431   9.498  -0.167   8.864 -0.1045  0.1994  0.8983
  930MOL0     N25432   9.487  -0.282   8.762 -0.1818 -0.3155 -0.0064
  930MOL0     C25433   9.561  -0.283   8.644 -0.2358  0.1140 -1.2481
  930MOL0     C25434   9.504  -0.382   8.574 -0.8989 -0.2686  0.3063
  930MOL0     C25435   9.534  -0.427   8.434 -1.0739  0.5571 -0.7179
  930MOL0     C25436   9.400  -0.428   8.357  0.1849 -0.7491  0.9518
  930MOL0     C25437   9.344  -0.290   8.339  0.1882 -0.8095  0.6070
  930MOL0     C25438   9.187  -0.279   8.326  0.1490 -0.1035 -0.6650
  930MOL0     O25439   9.133  -0.354   8.213  0.1695 -0.0340  0.0648
  930MOL0     C25440   9.004  -0.361   8.187 -0.6255 -0.3868  0.3758
  930MOL0     C25441   8.907  -0.328   8.285  0.4631 -0.6697 -0.2624
  930MOL0     C25442   8.767  -0.333   8.253 -0.5689 -0.5518 -0.4326
  930MOL0     C25443   8.678  -0.317   8.374  0.5103  0.3566 -0.5071
  930MOL0     C25444   8.719  -0.359   8.120  0.5034 -1.3331 -0.0551
  930MOL0     C25445   8.579  -0.376   8.080 -0.3060  0.4264  0.6668
  930MOL0     O25446   8.488  -0.404   8.183  0.6339  1.0846 -0.5380
  930MOL0     C25447   8.358  -0.382   8.189  0.5234  0.4699  0.3206
  930MOL0     C25448   8.293  -0.301   8.095 -0.5418 -0.3903 -0.0034
  930MOL0     C25449   8.157  -0.277   8.075 -0.2555  0.9339 -0.1739
  930MOL0     C25450   8.071  -0.345   8.162 -1.2257 -0.7969  0.6902
  930MOL0     O25451   7.934  -0.342   8.164 -0.0148 -0.4087 -0.4597
  930MOL0     C25452   7.858  -0.283   8.058 -0.0887  0.0544  1.3435
  930MOL0     C25453   7.725  -0.338   8.038  0.5132  0.8299 -0.5551
  930MOL0     C25454   7.626  -0.225   7.989  0.0021  0.3575  0.0697
  930MOL0     C25455   7.492  -0.292   7.954 -0.4311  1.6119  0.5212
  930MOL0     C25456   7.366  -0.225   8.012 -0.6397  0.1319 -0.4195
  930MOL0     C25457   7.244  -0.305   7.998 -0.1429  0.3466  0.7525
  930MOL0     C25458   7.215  -0.331   7.846 -0.0860 -0.0467  0.0856
  930MOL0     C25459   7.063  -0.349   7.824 -1.0768  0.0923  0.6209
  930MOL0    Cl25460   7.037  -0.359   7.650 -0.2107  0.2514 -0.0243
  930MOL0     C25461   8.121  -0.427   8.260  0.3824 -0.1250  0.0323
  930MOL0     C25462   8.269  -0.449   8.277 -0.4814  0.1208  0.1552
  930MOL0     O25463   8.555  -0.364   7.958  0.1756 -0.8243 -0.0821
  930MOL0     C25464   8.824  -0.373   8.025 -0.6637  0.2546  0.2027
  930MOL0     C25465   8.961  -0.393   8.058  0.7056 -0.4101  0.2658
  930MOL0     N25466   9.409  -0.446   8.654 -0.3277 -0.0972 -0.4742
  930MOL0     N25467   9.397  -0.387   8.768 -0.1677 -0.4360 -0.2538
  930MOL0     C25468  10.663   0.213   8.782 -0.5138  0.4070 -0.7467
  930MOL0     C25469  10.806   0.216   8.791  0.3888  0.2809 -0.4955
  930MOL0     C25470  11.246   0.135   8.839 -0.6253  0.1465  0.2483
  930MOL0     C25471  11.279   0.081   8.963 -0.4754  0.3235 -0.5418
  930MOL0     C25472  11.411   0.039   8.994  0.2922 -0.4284  0.0825
  930MOL0     C25473  11.518   0.055   8.902 -0.9247 -0.0369 -0.0363
  930MOL0     O25474  11.635   0.010   8.939 -1.0387 -0.0161 -0.1084
  930MOL0     C25475  11.743   0.026   8.849 -0.2375  0.1363  0.1801
  930MOL0     C25476  11.825   0.159   8.853 -0.0238 -0.9938 -0.3886
  930MOL0     C25477  11.820   0.231   8.985  0.0905 -0.7572  0.4409
  930MOL0     C25478  11.898   0.365   9.004  0.2882  0.1676 -0.0366
  930MOL0     C25479  12.039   0.352   9.033  1.0702  0.5375  0.8137
  930MOL0     C25480  12.160   0.338   9.023 -1.2144  0.9132  0.2418
  930MOL0     C25481  11.485   0.113   8.781  0.2939  0.1407 -0.8253
  930MOL0     C25482  11.354   0.148   8.756 -0.8115 -0.5807  0.2522
  930MOL0     H25483  10.853  -0.014   9.027 -2.7605 -0.6558  2.3263
  930MOL0     H25484  10.602  -0.019   9.021 -0.0964  1.6532  0.3222
  930MOL0     H25485  10.372  -0.067   8.908  1.5295 -0.2832  5.8668
  930MOL0     H25486  10.347   0.064   9.024 -0.3335 -5.1900  0.6131
  930MOL0     H25487  10.198   0.175   8.859 -1.4442 -0.3782  0.0199
  930MOL0     H25488  10.232   0.028   8.754  0.5343  3.6271 -0.9937
  930MOL0     H25489  10.124  -0.105   8.924  4.0687  0.4794 -1.0585
  930MOL0     H25490  10.118   0.042   9.028 -0.7971  1.1792 -0.0840
  930MOL0     H25491   9.936   0.122   8.915 -2.8694 -0.2703 -0.1400
  930MOL0     H25492   9.961   0.036   8.762  0.4541  0.0219  0.5966
  930MOL0     H25493   9.896  -0.178   8.896  1.4103  0.5019 -2.6719
  930MOL0     H25494   9.879  -0.076   9.038  1.8425  1.7484 -0.1194
  930MOL0     H25495   9.695   0.038   8.923  2.5873  1.0657  1.0953
  930MOL0     H25496   9.729  -0.066   8.770  1.7992 -2.3451  0.2636
  930MOL0     H25497   9.674  -0.270   8.920 -1.3578 -0.1888  0.6053
  930MOL0     H25498   9.633  -0.154   9.048 -1.0087  0.6373  0.5932
  930MOL0     H25499   9.485  -0.074   8.808 -0.6217 -0.8012 -0.7265
  930MOL0     H25500   9.406  -0.162   8.923 -2.0450 -1.0988 -1.7780
  930MOL0     H25501   9.644  -0.220   8.614  0.6608 -0.3847  0.0496
  930MOL0     H25502   9.608  -0.356   8.395 -0.2569 -0.0885 -0.3731
  930MOL0     H25503   9.584  -0.524   8.427  0.1726  1.0688  0.5728
  930MOL0     H25504   9.326  -0.497   8.397 -0.7272 -1.0444 -1.1203
  930MOL0     H25505   9.427  -0.469   8.259  2.3826  1.0117  0.7305
  930MOL0     H25506   9.380  -0.250   8.244 -0.2234  1.9072  1.5238
  930MOL0     H25507   9.365  -0.222   8.421 -0.2611  0.4906 -0.3295
  930MOL0     H25508   9.157  -0.174   8.326 -0.3237 -0.2362 -0.6113
  930MOL0     H25509   9.148  -0.326   8.416 -0.1526  0.7429 -0.3516
  930MOL0     H25510   8.949  -0.289   8.377 -0.2682 -0.0896 -0.1590
  930MOL0     H25511   8.730  -0.265   8.455 -0.9982  2.6053 -0.8755
  930MOL0     H25512   8.587  -0.259   8.355  0.2442 -0.0092 -0.3566
  930MOL0     H25513   8.643  -0.419   8.395  1.0349  0.0679 -1.0434
  930MOL0     H25514   8.356  -0.247   8.026  0.2629  0.8800  1.6568
  930MOL0     H25515   8.125  -0.204   8.001 -0.7576  0.7525 -0.1362
  930MOL0     H25516   7.846  -0.179   8.090  2.0773  0.5963  0.5793
  930MOL0     H25517   7.918  -0.296   7.966  1.9968 -1.7722  2.8506
  930MOL0     H25518   7.737  -0.424   7.972  0.4297 -0.0265  0.5210
  930MOL0     H25519   7.691  -0.376   8.135  1.0345  0.8032 -0.3773
  930MOL0     H25520   7.669  -0.171   7.904  1.7826 -1.0978 -0.0000
  930MOL0     H25521   7.601  -0.153   8.068 -0.7162 -0.5655  0.7087
  930MOL0     H25522   7.484  -0.315   7.847  0.0692 -0.7923  0.9496
  930MOL0     H25523   7.495  -0.386   8.009  1.9219  0.5538 -1.2484
  930MOL0     H25524   7.339  -0.126   7.973  0.4030  0.3130 -0.7163
  930MOL0     H25525   7.371  -0.207   8.120 -2.7469 -0.0446 -0.2493
  930MOL0     H25526   7.242  -0.397   8.056  0.0731  0.5715  1.1157
  930MOL0     H25527   7.163  -0.239   8.033 -1.9405 -0.8148 -0.9708
  930MOL0     H25528   7.273  -0.417   7.813  1.3482  0.8930  0.0623
  930MOL0     H25529   7.250  -0.246   7.786 -0.4876 -0.0731 -0.1882
  930MOL0     H25530   7.010  -0.263   7.865 -0.6117  0.4630  0.4570
  930MOL0     H25531   7.029  -0.440   7.875 -1.5246 -0.5059 -0.6872
  930MOL0     H25532   8.048  -0.478   8.322 -1.5124  0.4079 -1.6235
  930MOL0     H25533   8.308  -0.521   8.348 -1.6375 -3.7100 -2.7172
  930MOL0     H25534   8.807  -0.388   7.919  1.5179  0.9829 -0.2974
  930MOL0     H25535   9.035  -0.399   7.979  0.6367 -1.1420  0.2488
  930MOL0     H25536  10.619   0.286   8.713  1.1235  1.3098 -0.8788
  930MOL0     H25537  10.854   0.282   8.720  2.0097  0.7970  0.9775
  930MOL0     H25538  11.195   0.067   9.031 -0.1261  2.6689  0.4656
  930MOL0     H25539  11.428   0.003   9.095  0.5534  0.1473  0.2477
  930MOL0     H25540  11.815  -0.051   8.879 -0.1959  0.6235  1.3514
  930MOL0     H25541  11.716   0.000   8.746  0.5459  0.2364 -0.0589
  930MOL0     H25542  11.775   0.210   8.770 -0.7313 -0.3720  0.4053
  930MOL0     H25543  11.927   0.125   8.837  0.5104 -0.9531  2.4433
  930MOL0     H25544  11.839   0.164   9.069  0.7580  2.2112  2.8609
  930MOL0     H25545  11.713   0.253   8.988  0.2932  0.6014 -1.0359
  930MOL0     H25546  11.854   0.426   9.083  1.3886  0.1960  0.5768
  930MOL0     H25547  11.876   0.419   8.911 -0.9206  2.2439  1.3751
  930MOL0     H25548  12.265   0.320   9.013 -1.4678 -0.7437  0.3971
  930MOL0     H25549  11.564   0.133   8.709  1.6741  1.2401  0.9234
  930MOL0     H25550  11.330   0.184   8.657  2.9832 -5.0647 -2.7111
  931MOL0     O25551   0.723   6.716   4.272 -0.0726  0.4022 -0.3999
  931MOL0     C25552   0.846   6.714   4.256 -0.3966 -0.7059  0.3817
  931MOL0     O25553   0.910   6.742   4.148 -0.4243  1.3976  0.7706
  931MOL0     C25554   0.847   6.778   4.025 -0.2521 -0.8256  0.1488
  931MOL0     C25555   0.759   6.893   4.020 -0.6736 -0.6405  0.0450
  931MOL0     C25556   0.713   6.936   3.896  0.6383  0.4342  0.1162
  931MOL0     C25557   0.727   6.862   3.777  0.4986 -0.1710  0.4990
  931MOL0     O25558   0.662   6.905   3.655 -0.4011 -0.2508 -0.5399
  931MOL0     C25559   0.688   6.833   3.529  0.3804  0.1496 -0.3108
  931MOL0     C25560   0.576   6.862   3.435  0.5358 -1.0320 -0.1710
  931MOL0     C25561   0.443   6.807   3.464 -0.9290  0.7173 -1.1846
  931MOL0     C25562   0.332   6.872   3.388 -1.1454  0.7817 -0.3500
  931MOL0     C25563   0.196   6.813   3.449  0.2241 -0.1894  0.1906
  931MOL0     C25564   0.085   6.921   3.429 -0.7695  0.7746  0.1267
  931MOL0     C25565  -0.045   6.886   3.501  0.3961  0.0732  0.0032
  931MOL0     C25566  -0.118   6.770   3.445 -0.7683 -0.2301  0.5045
  931MOL0     N25567  -0.238   6.744   3.527 -0.4430 -0.1173 -1.1503
  931MOL0     C25568  -0.250   6.660   3.636 -0.1538 -0.0946 -0.0137
  931MOL0     C25569  -0.380   6.670   3.678 -0.8427 -0.1393  0.0097
  931MOL0     C25570  -0.433   6.615   3.807 -0.6737 -0.4393  0.4219
  931MOL0     C25571  -0.439   6.718   3.902  0.6274 -0.1958  0.4397
  931MOL0     C25572  -0.518   6.674   4.036  0.2603  0.2993 -0.0860
  931MOL0     C25573  -0.668   6.679   4.022 -0.7583 -0.4543  0.1914
  931MOL0     O25574  -0.719   6.789   3.943 -0.4705  0.1398 -0.6110
  931MOL0     C25575  -0.852   6.812   3.928 -0.0606 -0.3777 -0.3842
  931MOL0     C25576  -0.894   6.881   3.812  0.4888  0.4089 -0.0290
  931MOL0     C25577  -1.032   6.921   3.792 -0.0003  1.4473 -0.0380
  931MOL0     C25578  -1.061   6.998   3.667  0.3603  0.3176 -0.1909
  931MOL0     C25579  -1.127   6.881   3.898 -0.5875  0.2943  0.6429
  931MOL0     C25580  -1.263   6.924   3.889  1.2198 -0.2387 -0.9143
  931MOL0     O25581  -1.352   6.844   3.957  0.2701  0.5913  0.1389
  931MOL0     C25582  -1.485   6.872   3.970 -1.0711 -0.1258  0.4486
  931MOL0     C25583  -1.516   6.989   4.022  0.4762  0.1231 -1.1662
  931MOL0     C25584  -1.647   7.025   4.061  0.0707  1.1208 -0.6603
  931MOL0     C25585  -1.754   6.931   4.035  1.0872 -0.3335 -0.1473
  931MOL0     O25586  -1.884   6.947   4.080  0.2226  0.2357  0.1882
  931MOL0     C25587  -1.921   7.061   4.153 -0.2397  0.7395 -0.6253
  931MOL0     C25588  -2.071   7.078   4.155  0.7265 -0.6205 -0.7326
  931MOL0     C25589  -2.146   6.982   4.254  0.1766  0.3660 -0.3857
  931MOL0     C25590  -2.287   6.964   4.205 -0.0584 -0.2327  0.2139
  931MOL0     C25591  -2.342   6.840   4.278 -0.3538 -0.5883  0.1497
  931MOL0     C25592  -2.494   6.801   4.250 -0.5965 -1.1986  0.1658
  931MOL0     C25593  -2.583   6.884   4.351  0.0136  1.1044 -0.3056
  931MOL0     C25594  -2.721   6.897   4.305  0.8415  0.1149  0.6109
  931MOL0    Cl25595  -2.815   6.967   4.445 -0.0130 -0.1016  0.2682
  931MOL0     C25596  -1.725   6.811   3.976 -0.2839 -0.1075 -0.3530
  931MOL0     C25597  -1.587   6.781   3.934  1.0727  0.4038 -0.5538
  931MOL0     O25598  -1.297   7.020   3.825  0.3962  0.0743  0.2840
  931MOL0     C25599  -1.086   6.804   4.006  0.6045  0.2815  0.9742
  931MOL0     C25600  -0.952   6.765   4.012  0.3367  0.2678 -0.5946
  931MOL0     N25601  -0.448   6.749   3.588 -0.0348 -0.4243  0.1369
  931MOL0     N25602  -0.362   6.800   3.509 -0.4209 -0.3344  0.0858
  931MOL0     C25603   0.803   6.751   3.784  0.1074 -0.3704 -0.1021
  931MOL0     C25604   0.862   6.710   3.904 -0.3233 -0.1437 -0.0275
  931MOL0     C25605   0.934   6.683   4.375  0.8393  0.0680  0.8087
  931MOL0     C25606   1.068   6.695   4.369  0.1067 -0.4615  0.2057
  931MOL0     C25607   1.152   6.695   4.475 -1.1280 -0.1597  0.6135
  931MOL0     C25608   1.104   6.682   4.604  0.5825 -0.0667  0.5642
  931MOL0     O25609   1.173   6.686   4.720 -0.5651  0.6819 -0.4273
  931MOL0     C25610   1.264   6.578   4.740  0.2842 -0.1443  0.2083
  931MOL0     C25611   1.199   6.444   4.770  0.5103 -0.1490 -0.4089
  931MOL0     C25612   1.221   6.338   4.666 -0.5567  0.7885  0.1123
  931MOL0     C25613   1.133   6.330   4.536 -0.1656  0.5743  0.0199
  931MOL0     C25614   0.988   6.309   4.561  0.3363 -0.4216 -0.0536
  931MOL0     C25615   0.864   6.276   4.572 -1.6174  0.3099 -0.6420
  931MOL0     C25616   0.966   6.676   4.618 -0.4446  0.0801  0.2720
  931MOL0     C25617   0.882   6.676   4.508 -0.7029  1.8000  0.5386
  931MOL0     H25618   0.743   6.944   4.115 -0.1014 -1.6763  0.7217
  931MOL0     H25619   0.673   7.037   3.896  0.9684  0.5792  1.1601
  931MOL0     H25620   0.782   6.866   3.483  0.0498  0.5717 -0.6947
  931MOL0     H25621   0.710   6.727   3.540  1.2032  0.3806  0.3356
  931MOL0     H25622   0.575   6.969   3.415 -2.0284 -0.9598 -0.0065
  931MOL0     H25623   0.595   6.812   3.340  0.2015 -0.3589 -0.5954
  931MOL0     H25624   0.444   6.701   3.441 -1.8293  0.3643  0.2467
  931MOL0     H25625   0.438   6.819   3.573  1.4329 -1.5821 -0.7343
  931MOL0     H25626   0.330   6.979   3.410 -0.3061  0.8455 -0.5612
  931MOL0     H25627   0.347   6.851   3.282 -1.4928 -0.1619 -0.2211
  931MOL0     H25628   0.177   6.718   3.398  3.8407  0.8619 -3.7236
  931MOL0     H25629   0.209   6.792   3.556  1.1083 -0.7986 -0.0279
  931MOL0     H25630   0.127   7.010   3.477  1.7153  0.1070 -0.6664
  931MOL0     H25631   0.070   6.935   3.322 -1.9539  0.7359  0.2790
  931MOL0     H25632  -0.026   6.869   3.608  0.4192  1.2285  0.1888
  931MOL0     H25633  -0.106   6.975   3.490 -2.1851 -1.7809 -1.9066
  931MOL0     H25634  -0.050   6.684   3.446  1.5304  1.4882  1.3565
  931MOL0     H25635  -0.145   6.797   3.342 -0.5717  1.4631  0.8581
  931MOL0     H25636  -0.169   6.608   3.686  0.7815  0.1661 -1.2317
  931MOL0     H25637  -0.534   6.576   3.791 -1.4734  2.0717 -1.3105
  931MOL0     H25638  -0.369   6.534   3.842  0.4499  0.4248  0.4413
  931MOL0     H25639  -0.488   6.806   3.858  1.0885 -1.1973 -2.2387
  931MOL0     H25640  -0.335   6.743   3.927  0.9460  0.6331 -1.5706
  931MOL0     H25641  -0.495   6.752   4.109  0.7922  1.3789 -1.3736
  931MOL0     H25642  -0.489   6.571   4.058 -2.1044 -1.4371 -4.0629
  931MOL0     H25643  -0.710   6.692   4.122 -1.6319  1.9452 -0.4215
  931MOL0     H25644  -0.702   6.579   3.994  0.0786 -1.5369  2.7253
  931MOL0     H25645  -0.807   6.890   3.748  2.2741  0.4404  2.2723
  931MOL0     H25646  -1.104   6.921   3.601 -0.9338  1.5171 -0.8035
  931MOL0     H25647  -1.128   7.083   3.685  1.8990  1.2491  1.4550
  931MOL0     H25648  -0.968   7.034   3.624  2.1021 -2.5548  0.8522
  931MOL0     H25649  -1.435   7.054   4.054  0.7809 -0.9829  0.4278
  931MOL0     H25650  -1.656   7.124   4.107 -0.1207  0.1349  1.5743
  931MOL0     H25651  -1.891   7.057   4.259 -2.1460  0.8452 -0.0414
  931MOL0     H25652  -1.868   7.148   4.113  0.8019  1.2922  1.7269
  931MOL0     H25653  -2.078   7.174   4.206  1.0597 -2.4234  3.1047
  931MOL0     H25654  -2.110   7.065   4.054  0.3077 -3.7836 -0.2665
  931MOL0     H25655  -2.152   7.010   4.360  2.3043 -1.1422  0.2009
  931MOL0     H25656  -2.088   6.890   4.253 -0.3446 -0.0195  1.5271
  931MOL0     H25657  -2.356   7.046   4.224 -1.9622 -1.8455  0.5234
  931MOL0     H25658  -2.289   6.944   4.097 -3.2632  0.1672  0.1242
  931MOL0     H25659  -2.342   6.857   4.386 -0.5579 -0.0848  0.0766
  931MOL0     H25660  -2.277   6.756   4.257  0.2465  0.4106 -2.3066
  931MOL0     H25661  -2.516   6.824   4.145 -1.4677  0.1216  0.6142
  931MOL0     H25662  -2.495   6.692   4.261  0.2691 -1.2014  0.2982
  931MOL0     H25663  -2.537   6.982   4.368  0.8994  1.2903 -3.1458
  931MOL0     H25664  -2.595   6.830   4.445 -0.2109 -0.6330 -1.2916
  931MOL0     H25665  -2.760   6.797   4.288  0.7055  0.7268 -4.0627
  931MOL0     H25666  -2.724   6.952   4.210 -1.7924 -0.6846  0.1322
  931MOL0     H25667  -1.810   6.748   3.951  0.3502 -1.7194  1.3600
  931MOL0     H25668  -1.559   6.686   3.890  0.8454 -0.6270  1.4024
  931MOL0     H25669  -1.148   6.771   4.089 -1.4856 -0.4323 -0.7677
  931MOL0     H25670  -0.936   6.699   4.097 -2.5394 -0.7675 -0.7168
  931MOL0     H25671   0.822   6.687   3.698 -1.6452 -1.4599  0.2768
  931MOL0     H25672   0.913   6.615   3.894  1.7456  1.0225 -1.3313
  931MOL0     H25673   1.112   6.708   4.271 -1.0167  0.6688 -0.1782
  931MOL0     H25674   1.258   6.685   4.455 -1.3485 -0.0929 -0.6788
  931MOL0     H25675   1.319   6.564   4.647 -2.0844 -0.1164 -1.2888
  931MOL0     H25676   1.335   6.598   4.821  0.3221 -2.0465  0.6799
  931MOL0     H25677   1.092   6.459   4.784  0.1773  0.6713 -3.1714
  931MOL0     H25678   1.231   6.389   4.859  0.9148  0.7550  0.0064
  931MOL0     H25679   1.211   6.239   4.710  3.1467 -0.1920 -0.9248
  931MOL0     H25680   1.326   6.341   4.635 -0.2369  1.7122  1.2024
  931MOL0     H25681   1.163   6.250   4.467 -2.5905 -0.7716  0.3779
  931MOL0     H25682   1.152   6.426   4.489 -2.3089  2.4195  2.6331
  931MOL0     H25683   0.765   6.236   4.580 -1.2065 -0.5665  0.2240
  931MOL0     H25684   0.925   6.682   4.718  0.7008  0.0050  0.7633
  931MOL0     H25685   0.776   6.681   4.531 -0.9946 -0.2995 -0.0990
  932MOL0     O25686   7.500   8.220   4.135  0.4677  0.1051 -0.6407
  932MOL0     C25687   7.465   8.108   4.172  0.2163 -0.6440  0.3034
  932MOL0     O25688   7.335   8.062   4.156  0.2872 -0.0609  0.2913
  932MOL0     C25689   7.243   8.135   4.083  0.4011 -0.6894 -0.1391
  932MOL0     C25690   7.145   8.204   4.147 -0.5629  0.5867 -0.2473
  932MOL0     C25691   7.052   8.270   4.071  0.1272  0.3269 -0.7069
  932MOL0     C25692   7.055   8.281   3.931  0.0994  0.0695  0.3161
  932MOL0     O25693   6.949   8.349   3.874  0.0427  0.0127  0.1674
  932MOL0     C25694   6.937   8.372   3.733  0.1667  1.0162  0.1222
  932MOL0     C25695   6.821   8.472   3.708  0.9650  0.2794 -0.0400
  932MOL0     C25696   6.702   8.384   3.743 -0.4315  0.9115 -0.6811
  932MOL0     C25697   6.569   8.452   3.736 -0.3533  0.6453  0.2183
  932MOL0     C25698   6.455   8.363   3.788  0.4368 -0.1220  0.2439
  932MOL0     C25699   6.427   8.238   3.715 -0.2460 -0.3337 -0.1140
  932MOL0     C25700   6.314   8.157   3.768 -0.5309  0.6169  0.1378
  932MOL0     C25701   6.299   8.032   3.677 -0.5948  0.5452  0.1103
  932MOL0     N25702   6.412   7.932   3.700  0.1046 -0.4188 -0.2195
  932MOL0     C25703   6.441   7.846   3.802 -0.4282  0.3652 -0.2959
  932MOL0     C25704   6.554   7.791   3.769 -0.2511  0.8016  0.6108
  932MOL0     C25705   6.634   7.696   3.852  0.1107  0.1658  0.7814
  932MOL0     C25706   6.705   7.760   3.977 -0.1805 -0.3059  0.3994
  932MOL0     C25707   6.828   7.837   3.940  0.6753  0.9083  0.8490
  932MOL0     C25708   6.892   7.896   4.056  0.4305  0.0597  0.0490
  932MOL0     O25709   6.959   7.800   4.143  0.6759  0.0754 -1.1346
  932MOL0     C25710   7.075   7.739   4.112 -0.7808  0.7849 -0.3734
  932MOL0     C25711   7.117   7.644   4.205 -1.0685 -0.2650 -0.0323
  932MOL0     C25712   7.240   7.583   4.202 -0.1911 -0.0874  0.8707
  932MOL0     C25713   7.279   7.501   4.322 -0.5969 -0.4986  0.1271
  932MOL0     C25714   7.320   7.603   4.082 -0.0437  0.4095 -0.0522
  932MOL0     C25715   7.461   7.560   4.080 -0.6713 -0.5779 -0.5616
  932MOL0     O25716   7.523   7.589   3.964 -0.9858  0.3848 -0.2271
  932MOL0     C25717   7.659   7.581   3.959  0.3414 -0.0470 -0.4475
  932MOL0     C25718   7.733   7.691   4.001 -0.1758 -0.0965  0.1889
  932MOL0     C25719   7.873   7.693   3.984  0.7579 -0.0513 -0.4070
  932MOL0     C25720   7.936   7.584   3.930 -0.3767 -0.4225 -0.3432
  932MOL0     O25721   8.070   7.602   3.904  0.3406  0.5152 -0.0617
  932MOL0     C25722   8.149   7.517   3.823  0.1640 -0.5107 -0.6050
  932MOL0     C25723   8.298   7.563   3.820  0.0510 -0.9702 -0.1806
  932MOL0     C25724   8.356   7.553   3.966  0.1969  0.1171  0.1320
  932MOL0     C25725   8.499   7.505   3.943  0.4868  0.4597 -0.1619
  932MOL0     C25726   8.589   7.553   4.060 -0.1714 -0.5636  0.5628
  932MOL0     C25727   8.739   7.519   4.027 -0.0855  0.4668 -0.3065
  932MOL0     C25728   8.848   7.545   4.130 -0.4947  0.1559 -0.0130
  932MOL0     C25729   8.989   7.509   4.078  0.0546  0.2819  0.1898
  932MOL0    Cl25730   9.025   7.331   4.069 -0.0715 -0.2581  0.5710
  932MOL0     C25731   7.863   7.468   3.893 -0.0127  0.4608 -0.1977
  932MOL0     C25732   7.722   7.459   3.914 -0.1132 -0.4228  0.1083
  932MOL0     O25733   7.515   7.504   4.180 -0.0644  0.3815 -0.2939
  932MOL0     C25734   7.274   7.683   3.977 -0.0175  0.0459  0.1395
  932MOL0     C25735   7.144   7.746   3.994 -0.5573  0.4329  0.3340
  932MOL0     N25736   6.590   7.831   3.642 -0.3558 -0.0715 -0.4447
  932MOL0     N25737   6.507   7.924   3.601 -0.3683  0.0760  0.1771
  932MOL0     C25738   7.151   8.200   3.861 -0.1569  0.2855 -0.3796
  932MOL0     C25739   7.248   8.131   3.941  0.3135  0.4195 -0.6633
  932MOL0     C25740   7.562   8.015   4.225 -0.6729 -0.1194  0.2337
  932MOL0     C25741   7.689   8.073   4.261  0.4769 -0.6271 -0.5896
  932MOL0     C25742   7.798   7.988   4.296  0.1146 -0.1581  1.1161
  932MOL0     C25743   7.776   7.852   4.298  0.1453 -0.0759  0.1744
  932MOL0     O25744   7.883   7.780   4.358  0.0467  0.2792  0.2549
  932MOL0     C25745   7.875   7.637   4.381  0.0790 -0.6343  0.0695
  932MOL0     C25746   7.800   7.586   4.501 -0.3624  0.2605 -0.7098
  932MOL0     C25747   7.850   7.656   4.633  1.2533  0.1752 -0.4972
  932MOL0     C25748   7.765   7.595   4.752  0.1592 -1.0857  0.0086
  932MOL0     C25749   7.796   7.465   4.794  0.4274  1.5492  0.5182
  932MOL0     C25750   7.817   7.354   4.842  0.7179  0.0551 -0.3007
  932MOL0     C25751   7.649   7.796   4.276  0.6599 -0.1340 -0.0678
  932MOL0     C25752   7.546   7.883   4.234  0.3625 -0.1018 -0.0233
  932MOL0     H25753   7.137   8.207   4.255 -2.6662  4.5061 -0.3303
  932MOL0     H25754   6.980   8.332   4.123  1.8158  3.0434 -1.4013
  932MOL0     H25755   7.028   8.414   3.690  1.1971 -0.4467  0.8030
  932MOL0     H25756   6.907   8.273   3.697  1.8215 -0.5661  2.8053
  932MOL0     H25757   6.830   8.553   3.780  0.1438  0.8853 -0.6059
  932MOL0     H25758   6.819   8.501   3.602 -0.1499 -0.9627 -0.3826
  932MOL0     H25759   6.708   8.287   3.691  1.3316  0.2473  0.6555
  932MOL0     H25760   6.711   8.355   3.848  0.2588  1.8732 -0.4645
  932MOL0     H25761   6.567   8.545   3.794 -0.3996  0.2374  0.8814
  932MOL0     H25762   6.554   8.468   3.629 -2.2630  1.9621  0.6163
  932MOL0     H25763   6.471   8.324   3.890 -0.1007 -1.4287 -0.1457
  932MOL0     H25764   6.363   8.421   3.796 -0.0576 -1.0262  1.5346
  932MOL0     H25765   6.418   8.257   3.607  1.9270 -3.5678 -1.0157
  932MOL0     H25766   6.521   8.182   3.718  1.9331  2.9853 -0.4923
  932MOL0     H25767   6.331   8.114   3.867 -3.2451  1.1923  0.9409
  932MOL0     H25768   6.217   8.208   3.766 -0.3487  1.0294  1.2843
  932MOL0     H25769   6.298   8.064   3.572  0.1239 -1.1549 -0.4529
  932MOL0     H25770   6.200   7.992   3.700 -0.1507  0.9681  3.1164
  932MOL0     H25771   6.389   7.824   3.895  0.1503 -1.1715 -0.2996
  932MOL0     H25772   6.567   7.618   3.888 -0.5398 -0.0877 -0.9108
  932MOL0     H25773   6.713   7.655   3.789 -1.3469  2.3920 -2.7497
  932MOL0     H25774   6.743   7.681   4.042 -0.3662  0.0374  0.9370
  932MOL0     H25775   6.640   7.822   4.040  1.7822  1.9508  0.3713
  932MOL0     H25776   6.807   7.928   3.884  2.1269  1.4828  1.1779
  932MOL0     H25777   6.892   7.768   3.883 -4.0914 -2.2813 -1.2812
  932MOL0     H25778   6.814   7.956   4.105 -0.0349  0.7103 -1.4064
  932MOL0     H25779   6.969   7.960   4.011  1.2213  0.9430  2.4800
  932MOL0     H25780   7.056   7.627   4.293  1.4445 -1.3243  1.6285
  932MOL0     H25781   7.350   7.566   4.375  0.6537 -1.0710 -0.7979
  932MOL0     H25782   7.200   7.485   4.396  0.7558  0.2045  1.8186
  932MOL0     H25783   7.327   7.409   4.289  3.1017  0.9478  0.9036
  932MOL0     H25784   7.684   7.785   4.024  1.1706  1.8558 -3.9621
  932MOL0     H25785   7.929   7.773   4.033 -0.3769 -0.1155  1.0747
  932MOL0     H25786   8.150   7.412   3.854  1.2688 -1.1853 -2.7798
  932MOL0     H25787   8.103   7.521   3.724  0.3928 -0.2371 -0.7035
  932MOL0     H25788   8.353   7.504   3.746  0.0056  0.8586 -1.7574
  932MOL0     H25789   8.309   7.666   3.785 -0.8196 -0.4663  0.9522
  932MOL0     H25790   8.295   7.478   4.018  0.3059 -0.5872 -0.7308
  932MOL0     H25791   8.359   7.642   4.030  0.8987 -0.5244  1.0083
  932MOL0     H25792   8.498   7.396   3.937  4.5115  0.3334 -1.4056
  932MOL0     H25793   8.542   7.545   3.851  0.5116  1.8445  0.4271
  932MOL0     H25794   8.545   7.491   4.138 -0.9180 -0.3282  0.3372
  932MOL0     H25795   8.572   7.659   4.081 -2.0839 -1.5782  5.3033
  932MOL0     H25796   8.737   7.409   4.024 -0.4436  0.4113  1.3406
  932MOL0     H25797   8.758   7.565   3.930  0.7809 -0.1704 -0.4456
  932MOL0     H25798   8.830   7.488   4.221 -2.9113 -0.3763 -0.7310
  932MOL0     H25799   8.850   7.646   4.174  1.2461  0.6335 -1.0942
  932MOL0     H25800   9.072   7.546   4.139  2.8827  1.7717 -4.1191
  932MOL0     H25801   9.003   7.556   3.981 -1.4846 -0.7638 -0.5855
  932MOL0     H25802   7.912   7.377   3.859  1.1824  2.0510 -3.1627
  932MOL0     H25803   7.660   7.377   3.879 -0.8380 -1.5638  3.5956
  932MOL0     H25804   7.329   7.699   3.885 -2.1505  0.8310 -1.0705
  932MOL0     H25805   7.112   7.817   3.918  0.4725  1.4127  0.7852
  932MOL0     H25806   7.169   8.204   3.754 -1.0097 -5.0319 -1.0099
  932MOL0     H25807   7.313   8.068   3.881  1.9451  0.1228  1.2709
  932MOL0     H25808   7.697   8.181   4.255 -0.8685 -0.4947 -0.4588
  932MOL0     H25809   7.891   8.039   4.316  0.0701  0.3330  0.1141
  932MOL0     H25810   7.819   7.594   4.297 -0.7329  2.2460 -0.9756
  932MOL0     H25811   7.980   7.612   4.396  0.4857  1.6115  1.4055
  932MOL0     H25812   7.817   7.478   4.514 -1.3937  0.0053 -1.3688
  932MOL0     H25813   7.693   7.601   4.486 -0.6818 -1.7038 -0.7160
  932MOL0     H25814   7.827   7.763   4.624 -0.7428  0.3167  3.5844
  932MOL0     H25815   7.954   7.635   4.660  0.1257 -3.2156  1.9258
  932MOL0     H25816   7.660   7.596   4.721  0.1870  2.8203 -0.3876
  932MOL0     H25817   7.772   7.657   4.842  1.3023 -2.8865  1.2163
  932MOL0     H25818   7.831   7.251   4.871 -1.0846 -0.4290 -0.9711
  932MOL0     H25819   7.629   7.692   4.299 -1.1420  0.8875  3.8752
  932MOL0     H25820   7.448   7.853   4.198 -0.4635  0.6364  1.5002
  933MOL0     O25821   5.934   2.445   5.249  0.0665 -0.1910  0.0273
  933MOL0     C25822   5.928   2.491   5.359 -0.4253 -0.3334  0.9456
  933MOL0     O25823   5.821   2.506   5.443 -0.3860 -0.1910 -0.4830
  933MOL0     C25824   5.689   2.519   5.397  0.2566  0.5571  0.7742
  933MOL0     C25825   5.594   2.557   5.494 -0.5291  0.5364 -0.3833
  933MOL0     C25826   5.462   2.591   5.457  0.0700  0.4812 -0.3230
  933MOL0     C25827   5.419   2.582   5.324 -0.0114  0.3669  0.9150
  933MOL0     O25828   5.291   2.637   5.309  0.0225 -0.2783 -0.2920
  933MOL0     C25829   5.230   2.630   5.181 -0.1223 -0.4223 -0.2852
  933MOL0     C25830   5.089   2.679   5.197  0.3015  0.3279  0.0654
  933MOL0     C25831   5.017   2.666   5.055  0.0337  0.1426  0.2321
  933MOL0     C25832   4.878   2.732   5.066  0.4350  0.1674  0.4423
  933MOL0     C25833   4.798   2.711   4.933 -0.1240 -0.2343 -0.9267
  933MOL0     C25834   4.661   2.771   4.946  0.1935 -0.1179  0.4819
  933MOL0     C25835   4.584   2.761   4.814  0.7717  0.6909  1.3074
  933MOL0     C25836   4.441   2.800   4.842 -0.3633  0.1091  0.4878
  933MOL0     N25837   4.365   2.716   4.933  0.2902 -0.1491  0.0882
  933MOL0     C25838   4.346   2.745   5.064 -0.4079 -0.1702  0.3398
  933MOL0     C25839   4.271   2.645   5.114 -0.4660 -0.9258  0.2945
  933MOL0     C25840   4.249   2.619   5.257 -0.3120  0.2885  0.1158
  933MOL0     C25841   4.124   2.696   5.308 -0.6320 -0.3087 -0.0314
  933MOL0     C25842   3.995   2.640   5.242  0.4059 -0.3720 -0.4243
  933MOL0     C25843   3.872   2.727   5.272 -1.0082 -0.0551 -0.6823
  933MOL0     O25844   3.856   2.856   5.199 -1.1118 -0.0018 -0.7813
  933MOL0     C25845   3.740   2.917   5.202 -1.2614  0.1307  0.7330
  933MOL0     C25846   3.728   3.046   5.151 -0.2188 -0.2673 -0.5240
  933MOL0     C25847   3.606   3.116   5.150 -0.2518 -0.3768  0.4714
  933MOL0     C25848   3.609   3.253   5.087 -0.1119  0.8043  0.5667
  933MOL0     C25849   3.493   3.059   5.203  0.3145 -0.2765  0.1479
  933MOL0     C25850   3.365   3.133   5.211  0.1827  0.0134 -0.7253
  933MOL0     O25851   3.253   3.059   5.235  0.4880 -0.0967  0.4273
  933MOL0     C25852   3.129   3.121   5.280 -0.8917 -0.2787  0.9180
  933MOL0     C25853   3.040   3.020   5.294  0.1194 -0.1317 -0.1914
  933MOL0     C25854   2.904   3.045   5.327  0.4231  0.0347  0.4592
  933MOL0     C25855   2.863   3.179   5.358 -0.9275  1.0089 -0.2085
  933MOL0     O25856   2.739   3.220   5.401  0.1623  0.4655 -0.2158
  933MOL0     C25857   2.625   3.128   5.382  0.5851  1.1706 -0.2923
  933MOL0     C25858   2.512   3.184   5.464  0.4568  0.8147  0.2182
  933MOL0     C25859   2.399   3.080   5.491 -0.7444  0.5384  0.9013
  933MOL0     C25860   2.302   3.135   5.603 -0.5829  0.7663 -0.3106
  933MOL0     C25861   2.181   3.030   5.618 -0.0466  0.4335  0.8864
  933MOL0     C25862   2.089   3.052   5.739 -0.3061 -0.1008 -0.0866
  933MOL0     C25863   1.952   2.997   5.714  0.0828  0.4777 -0.2072
  933MOL0     C25864   1.848   2.999   5.827 -0.2970  0.1320  0.0621
  933MOL0    Cl25865   1.690   2.922   5.793  0.3771  0.0996 -0.1733
  933MOL0     C25866   2.960   3.286   5.346  0.2328 -0.1393  0.7081
  933MOL0     C25867   3.093   3.257   5.307 -0.0845 -0.6809  1.1590
  933MOL0     O25868   3.374   3.254   5.238 -0.8374 -0.2182  0.2021
  933MOL0     C25869   3.500   2.919   5.233  0.3487 -0.4204  0.1172
  933MOL0     C25870   3.620   2.855   5.240 -0.0427 -0.2468  0.6776
  933MOL0     N25871   4.237   2.555   5.006 -0.1534 -0.0767  0.6792
  933MOL0     N25872   4.296   2.601   4.903 -0.4108 -0.3116 -0.1454
  933MOL0     C25873   5.512   2.535   5.228 -0.4965 -0.2178  0.0296
  933MOL0     C25874   5.649   2.508   5.261  0.8018 -0.2057  0.7174
  933MOL0     C25875   6.061   2.532   5.410 -0.1433  1.0038 -0.0623
  933MOL0     C25876   6.180   2.524   5.338 -0.0251  0.1111  0.3434
  933MOL0     C25877   6.306   2.564   5.395  0.4528  0.4106  0.1740
  933MOL0     C25878   6.312   2.621   5.519 -0.1319  0.2053  0.4650
  933MOL0     O25879   6.439   2.665   5.556  0.7126  0.0346 -0.0775
  933MOL0     C25880   6.450   2.764   5.655  0.4557 -0.3734  0.2110
  933MOL0     C25881   6.599   2.821   5.622  0.1070  0.0986 -0.0403
  933MOL0     C25882   6.603   2.972   5.660 -0.2202  0.9922 -0.7026
  933MOL0     C25883   6.601   3.000   5.810 -0.5007 -0.4304 -0.8824
  933MOL0     C25884   6.722   2.961   5.885  1.2376 -0.6786 -0.2929
  933MOL0     C25885   6.800   2.917   5.961 -0.3582 -0.7183 -0.0379
  933MOL0     C25886   6.190   2.630   5.587  0.4536 -0.4471 -0.9646
  933MOL0     C25887   6.068   2.599   5.529  0.4806  0.1333 -0.6830
  933MOL0     H25888   5.623   2.569   5.598 -1.4309 -1.2476  0.1095
  933MOL0     H25889   5.399   2.625   5.538  0.8797  1.4923 -0.0996
  933MOL0     H25890   5.280   2.693   5.108  0.0422 -0.1100  0.0933
  933MOL0     H25891   5.228   2.524   5.154 -1.2864 -0.9890  1.7477
  933MOL0     H25892   5.046   2.624   5.281  0.7431  1.8181  1.2978
  933MOL0     H25893   5.086   2.784   5.227 -0.6330  0.2095  0.4147
  933MOL0     H25894   5.083   2.705   4.977 -1.2796 -1.6113 -1.8536
  933MOL0     H25895   5.003   2.560   5.035  0.8156 -0.2649  1.7104
  933MOL0     H25896   4.832   2.684   5.152 -2.4110  0.2318 -0.9377
  933MOL0     H25897   4.881   2.840   5.077  0.3299  0.9842 -4.8266
  933MOL0     H25898   4.838   2.764   4.846  1.7149  3.5685  1.9345
  933MOL0     H25899   4.782   2.606   4.909  1.8446 -0.5523 -0.9973
  933MOL0     H25900   4.619   2.720   5.033  2.3888  0.4594  1.9457
  933MOL0     H25901   4.681   2.877   4.963  1.7859 -0.1867 -0.7471
  933MOL0     H25902   4.624   2.823   4.733 -0.9132 -2.1233 -1.9214
  933MOL0     H25903   4.587   2.659   4.777  7.0269  1.7628 -2.5086
  933MOL0     H25904   4.399   2.807   4.741  2.3290  1.1992 -0.6683
  933MOL0     H25905   4.437   2.905   4.872 -3.2805  0.2364 -0.0393
  933MOL0     H25906   4.391   2.827   5.119  2.2630  0.6606 -2.7887
  933MOL0     H25907   4.231   2.513   5.277 -0.2380  0.3155  0.3322
  933MOL0     H25908   4.340   2.647   5.311 -0.2662 -1.5959  1.1157
  933MOL0     H25909   4.140   2.803   5.290  1.4242  0.1724  3.6682
  933MOL0     H25910   4.123   2.686   5.417  4.7117  1.7569  0.5484
  933MOL0     H25911   3.969   2.542   5.282 -0.3135  0.1426  0.3981
  933MOL0     H25912   4.001   2.635   5.133 -1.8242 -0.9573 -0.5658
  933MOL0     H25913   3.870   2.751   5.378  0.0901  0.2711 -0.7184
  933MOL0     H25914   3.786   2.666   5.245 -0.3191 -1.1095 -0.5708
  933MOL0     H25915   3.813   3.097   5.107  0.4688  0.1051  1.1483
  933MOL0     H25916   3.536   3.248   5.006  0.7328  1.8325 -0.2806
  933MOL0     H25917   3.591   3.334   5.159  3.9856 -0.1654  3.0112
  933MOL0     H25918   3.703   3.268   5.034 -0.5790 -1.3152 -0.9852
  933MOL0     H25919   3.071   2.917   5.281 -2.4330 -1.0482  0.4537
  933MOL0     H25920   2.835   2.962   5.339  0.3794 -0.0893 -0.5935
  933MOL0     H25921   2.585   3.135   5.281 -1.0985 -2.5738 -0.0646
  933MOL0     H25922   2.657   3.025   5.398  0.8538  1.2554 -0.2776
  933MOL0     H25923   2.553   3.212   5.561 -0.9968 -0.5567  1.2849
  933MOL0     H25924   2.485   3.279   5.418  3.2761  1.8508  0.5491
  933MOL0     H25925   2.439   2.987   5.531 -2.0179 -0.7830 -0.7786
  933MOL0     H25926   2.342   3.053   5.401  0.5978  0.8471 -0.0733
  933MOL0     H25927   2.361   3.141   5.695 -1.5042  0.5954  0.3044
  933MOL0     H25928   2.269   3.236   5.578  1.3929  1.6110  0.2681
  933MOL0     H25929   2.223   2.930   5.630 -1.5595 -0.0029  3.0165
  933MOL0     H25930   2.124   3.036   5.524  2.4020  1.3078 -0.6357
  933MOL0     H25931   2.144   3.020   5.828 -1.3932  1.5889  1.2543
  933MOL0     H25932   2.071   3.159   5.749  0.1468 -0.1002  0.8636
  933MOL0     H25933   1.961   2.895   5.678  1.1391  0.4032  0.2286
  933MOL0     H25934   1.920   3.046   5.622  0.3794  2.8136  0.8315
  933MOL0     H25935   1.816   3.103   5.837 -1.3722  0.1265 -2.5241
  933MOL0     H25936   1.889   2.941   5.910  0.5547  1.2055  0.4219
  933MOL0     H25937   2.926   3.388   5.362  3.0617  0.9485  0.3424
  933MOL0     H25938   3.161   3.340   5.285 -1.2709 -0.4992 -2.6316
  933MOL0     H25939   3.416   2.864   5.276  0.3389  0.4010  1.1959
  933MOL0     H25940   3.611   2.758   5.288 -0.7524  0.7781  2.7393
  933MOL0     H25941   5.488   2.523   5.122 -1.4517 -2.6985  0.4539
  933MOL0     H25942   5.713   2.487   5.176  0.4208  0.8632  0.1583
  933MOL0     H25943   6.178   2.486   5.236  3.3556  1.0469 -0.1943
  933MOL0     H25944   6.397   2.546   5.339  1.1844  0.6936  1.2258
  933MOL0     H25945   6.376   2.844   5.639 -1.5328 -1.8433  1.5735
  933MOL0     H25946   6.450   2.730   5.759  3.2766 -2.7374 -0.4465
  933MOL0     H25947   6.621   2.797   5.517  1.0848 -0.6961  0.3314
  933MOL0     H25948   6.674   2.768   5.680  0.3154  1.9851  1.5098
  933MOL0     H25949   6.519   3.031   5.621 -1.1485 -1.2261 -2.2837
  933MOL0     H25950   6.696   3.008   5.615  0.4010  2.0029  1.2656
  933MOL0     H25951   6.511   2.955   5.853  0.5513 -1.8983 -0.1283
  933MOL0     H25952   6.596   3.109   5.817  2.2867 -0.2710 -0.2056
  933MOL0     H25953   6.872   2.863   6.019 -1.9494 -1.6091  1.1610
  933MOL0     H25954   6.185   2.676   5.685 -1.5972 -0.4448 -1.0347
  933MOL0     H25955   5.979   2.618   5.589  0.8999 -0.1570  0.0326
  934MOL0     O25956   1.184   1.991   2.763  0.3937 -0.1899  0.6370
  934MOL0     C25957   1.248   1.890   2.737 -1.2294 -0.5201  0.5212
  934MOL0     O25958   1.226   1.771   2.789 -0.3135  0.0360 -0.0583
  934MOL0     C25959   1.127   1.745   2.887 -0.2430  0.4772  0.6820
  934MOL0     C25960   1.043   1.837   2.959 -0.4816 -0.2258  0.2172
  934MOL0     C25961   0.948   1.780   3.046 -0.0534 -0.2917  0.1061
  934MOL0     C25962   0.941   1.642   3.063  0.6660  0.7814 -0.7766
  934MOL0     O25963   0.838   1.608   3.155  0.1541 -0.2549  0.2495
  934MOL0     C25964   0.843   1.469   3.189 -0.6227  0.8174  0.2984
  934MOL0     C25965   0.729   1.426   3.291 -0.1397  1.3489  0.3585
  934MOL0     C25966   0.591   1.461   3.252  0.3255  0.4433 -0.0650
  934MOL0     C25967   0.484   1.383   3.330  0.1426 -0.0590 -0.3477
  934MOL0     C25968   0.345   1.447   3.335  0.0609  0.2601  0.5311
  934MOL0     C25969   0.332   1.565   3.432  0.3784  0.4284 -0.2510
  934MOL0     C25970   0.213   1.651   3.395 -0.5905 -0.3055  0.1653
  934MOL0     C25971   0.218   1.792   3.460 -0.2926  0.2080  0.0476
  934MOL0     N25972   0.139   1.803   3.579  0.0025 -0.7937  0.2005
  934MOL0     C25973   0.022   1.863   3.574 -0.2147 -0.5316 -0.3147
  934MOL0     C25974  -0.007   1.898   3.708  0.0899 -0.0204  0.3849
  934MOL0     C25975  -0.123   1.977   3.760  0.2404 -0.6146 -0.0172
  934MOL0     C25976  -0.259   1.888   3.753 -0.7310 -0.3826  0.0075
  934MOL0     C25977  -0.229   1.747   3.795 -0.1870 -0.2867 -0.8818
  934MOL0     C25978  -0.352   1.661   3.777  0.6617 -0.2312  0.3095
  934MOL0     O25979  -0.448   1.701   3.881  0.1964 -0.1822  0.2384
  934MOL0     C25980  -0.532   1.608   3.925  0.5498  0.1007 -0.7554
  934MOL0     C25981  -0.547   1.478   3.876  0.8024 -0.6014 -1.0746
  934MOL0     C25982  -0.642   1.394   3.927  0.1271  0.4903  1.1127
  934MOL0     C25983  -0.627   1.256   3.876  0.1885 -0.2826  0.6094
  934MOL0     C25984  -0.737   1.426   4.021  1.1267 -0.5638 -0.0781
  934MOL0     C25985  -0.859   1.348   4.073  0.3876 -0.8692  0.3044
  934MOL0     O25986  -0.856   1.212   4.045 -0.3704 -0.5883 -0.4061
  934MOL0     C25987  -0.964   1.136   4.088  0.8544 -0.2532  0.1569
  934MOL0     C25988  -1.099   1.177   4.070  0.2895 -0.5507 -0.0650
  934MOL0     C25989  -1.204   1.099   4.126  0.7531 -0.7307  0.9048
  934MOL0     C25990  -1.183   0.990   4.203  0.5018 -0.0967  0.0213
  934MOL0     O25991  -1.282   0.907   4.240  0.8823 -0.0463 -0.3999
  934MOL0     C25992  -1.391   0.885   4.147 -0.6211 -0.2175  0.3361
  934MOL0     C25993  -1.514   0.809   4.195  0.4937 -0.1083 -0.2555
  934MOL0     C25994  -1.630   0.852   4.092  0.1678  0.4332 -0.5700
  934MOL0     C25995  -1.768   0.810   4.150  0.3592 -0.1263 -0.3696
  934MOL0     C25996  -1.896   0.819   4.056 -0.0374 -0.1968  0.1394
  934MOL0     C25997  -1.907   0.729   3.932  0.7090  0.4341  0.7760
  934MOL0     C25998  -2.037   0.737   3.855  0.3405  0.2050 -0.0830
  934MOL0     C25999  -2.153   0.688   3.942  0.0707  0.0173 -0.4126
  934MOL0    Cl26000  -2.223   0.829   4.047  0.1309 -0.0088 -0.0758
  934MOL0     C26001  -1.051   0.957   4.234 -0.0631  0.1565 -0.9360
  934MOL0     C26002  -0.948   1.022   4.166 -0.4532 -0.0389 -0.3895
  934MOL0     O26003  -0.950   1.411   4.133 -0.2039  0.5083 -0.0532
  934MOL0     C26004  -0.733   1.559   4.069 -0.0752  0.9391 -0.5570
  934MOL0     C26005  -0.626   1.644   4.028  0.8113  0.4869  0.0550
  934MOL0     N26006   0.102   1.851   3.783  0.3870  0.7444  0.1120
  934MOL0     N26007   0.189   1.796   3.704 -0.1333 -0.7101  0.5578
  934MOL0     C26008   1.034   1.555   3.011  0.1464  0.8017  0.6429
  934MOL0     C26009   1.128   1.611   2.919 -0.1888 -1.0175 -1.1258
  934MOL0     C26010   1.367   1.925   2.649 -0.8516 -0.6126 -0.5645
  934MOL0     C26011   1.373   2.042   2.569 -0.1034 -0.1248  0.3175
  934MOL0     C26012   1.481   2.055   2.480  0.4344  0.0545 -0.2044
  934MOL0     C26013   1.578   1.953   2.472  0.5626  0.7269  0.7065
  934MOL0     O26014   1.671   1.951   2.380  0.4407 -1.2571 -0.4277
  934MOL0     C26015   1.703   2.073   2.298 -0.7327 -0.5895 -0.1614
  934MOL0     C26016   1.845   2.049   2.234 -0.4189  0.1478 -0.5397
  934MOL0     C26017   1.958   2.003   2.326 -0.4465  0.8946  0.7121
  934MOL0     C26018   1.971   2.084   2.447 -0.6202 -0.3604 -0.1314
  934MOL0     C26019   2.102   2.101   2.491 -0.9092 -0.8082 -0.6340
  934MOL0     C26020   2.211   2.083   2.545 -0.3957 -0.5720  0.5808
  934MOL0     C26021   1.582   1.857   2.565  1.0843  0.6835  0.5484
  934MOL0     C26022   1.476   1.842   2.655 -0.0901 -0.7004 -0.6846
  934MOL0     H26023   1.049   1.945   2.954 -2.6823 -0.0832 -0.2137
  934MOL0     H26024   0.890   1.845   3.110 -2.8648 -1.9127 -0.6400
  934MOL0     H26025   0.825   1.402   3.105  0.4831 -1.5267  1.8165
  934MOL0     H26026   0.941   1.456   3.237 -0.0474  6.1678  1.2454
  934MOL0     H26027   0.751   1.321   3.312 -1.5606  0.6295 -1.4530
  934MOL0     H26028   0.755   1.483   3.380 -1.2684  0.4539  1.3060
  934MOL0     H26029   0.580   1.570   3.262 -0.9262  0.2252  1.2635
  934MOL0     H26030   0.579   1.434   3.146  2.2863 -3.7298  0.5947
  934MOL0     H26031   0.482   1.279   3.297 -0.0532 -1.1272  2.7313
  934MOL0     H26032   0.518   1.371   3.433 -0.3902  1.7520  0.0782
  934MOL0     H26033   0.321   1.468   3.230  0.6769 -3.1089 -0.4123
  934MOL0     H26034   0.271   1.372   3.363 -1.0112  1.1123  0.0589
  934MOL0     H26035   0.300   1.518   3.525  0.0457  1.9578  0.4342
  934MOL0     H26036   0.416   1.634   3.442  0.2760  1.0083 -2.6969
  934MOL0     H26037   0.208   1.669   3.287 -3.8916 -1.9956 -0.0969
  934MOL0     H26038   0.113   1.609   3.412 -0.6228 -0.4650 -0.4044
  934MOL0     H26039   0.193   1.867   3.384  1.0079  2.1422  1.4726
  934MOL0     H26040   0.322   1.806   3.490 -0.0940 -0.9840 -0.0146
  934MOL0     H26041  -0.028   1.888   3.481 -0.4201 -2.1673 -0.6689
  934MOL0     H26042  -0.112   2.011   3.863 -0.9506  1.7352 -0.5966
  934MOL0     H26043  -0.129   2.073   3.708  0.1163 -1.0311 -0.7873
  934MOL0     H26044  -0.293   1.889   3.649  1.0680 -1.3498 -0.6280
  934MOL0     H26045  -0.329   1.931   3.826  2.4560  1.1055  2.4665
  934MOL0     H26046  -0.196   1.735   3.899  1.4795 -0.5105 -1.4097
  934MOL0     H26047  -0.166   1.699   3.720 -0.5241 -1.0083 -0.7184
  934MOL0     H26048  -0.325   1.555   3.786  1.5196  0.0256  0.8503
  934MOL0     H26049  -0.401   1.673   3.680 -0.7615 -1.8740  0.7687
  934MOL0     H26050  -0.480   1.452   3.794  1.0398  0.8249 -1.3546
  934MOL0     H26051  -0.725   1.232   3.834 -0.8165  2.6402  1.0558
  934MOL0     H26052  -0.553   1.253   3.796 -1.7348 -0.9060 -1.2657
  934MOL0     H26053  -0.598   1.187   3.956  0.6939  0.4694  1.0882
  934MOL0     H26054  -1.119   1.259   4.002  1.2005 -0.6923 -0.5139
  934MOL0     H26055  -1.303   1.141   4.113  0.1967 -2.0910  0.5850
  934MOL0     H26056  -1.427   0.987   4.134  2.5604  1.3343  2.5810
  934MOL0     H26057  -1.361   0.837   4.053 -0.1407  0.8985 -0.0969
  934MOL0     H26058  -1.498   0.701   4.188  2.8788  0.2055 -0.2906
  934MOL0     H26059  -1.540   0.846   4.295 -0.0891 -0.8690 -0.1131
  934MOL0     H26060  -1.603   0.799   4.000  2.2708 -1.3351  0.9532
  934MOL0     H26061  -1.624   0.960   4.076  0.2018  0.3807 -0.9118
  934MOL0     H26062  -1.770   0.707   4.186 -4.5790 -0.4847 -0.9051
  934MOL0     H26063  -1.796   0.863   4.241 -1.6869 -1.3866 -0.1832
  934MOL0     H26064  -1.921   0.923   4.033  2.1520 -0.0462 -1.9007
  934MOL0     H26065  -1.978   0.788   4.122 -1.1761 -2.1835 -2.0552
  934MOL0     H26066  -1.827   0.763   3.866  0.7678 -0.5662  0.3011
  934MOL0     H26067  -1.886   0.630   3.974 -2.8029 -1.3485 -1.2291
  934MOL0     H26068  -2.036   0.672   3.767 -0.6137  0.3208 -0.1904
  934MOL0     H26069  -2.066   0.837   3.824 -0.4177 -0.0619 -0.2635
  934MOL0     H26070  -2.117   0.607   4.006  0.4972  0.7333  0.2676
  934MOL0     H26071  -2.234   0.648   3.880 -0.6937  1.6273 -0.4910
  934MOL0     H26072  -1.014   0.879   4.299 -0.3563 -1.1709 -2.3077
  934MOL0     H26073  -0.851   0.988   4.202 -1.6869 -1.5485  1.7702
  934MOL0     H26074  -0.799   1.598   4.145 -0.0918 -0.4585  0.1905
  934MOL0     H26075  -0.619   1.744   4.070 -0.9722  1.8767 -2.6925
  934MOL0     H26076   1.039   1.448   3.028  1.6898  1.0721  2.2664
  934MOL0     H26077   1.194   1.540   2.871  3.1820 -0.1340  1.7289
  934MOL0     H26078   1.299   2.122   2.577  2.1452  2.4022 -2.0635
  934MOL0     H26079   1.471   2.139   2.412  0.2928  0.9768  0.9130
  934MOL0     H26080   1.636   2.089   2.213  2.2410  0.7776 -2.4534
  934MOL0     H26081   1.714   2.167   2.353 -3.5306 -0.7485  0.8176
  934MOL0     H26082   1.887   2.136   2.183  3.6730 -2.6493 -2.4879
  934MOL0     H26083   1.819   1.979   2.155  0.0085 -0.2774 -0.3139
  934MOL0     H26084   2.051   2.016   2.271 -0.8448  2.2870  0.3402
  934MOL0     H26085   1.949   1.899   2.359  1.0402  0.4659 -0.1229
  934MOL0     H26086   1.910   2.043   2.528  0.1566  1.2286  1.3076
  934MOL0     H26087   1.926   2.182   2.428  1.9882  0.7934 -0.7544
  934MOL0     H26088   2.304   2.088   2.598 -0.8894  1.3492  1.3650
  934MOL0     H26089   1.668   1.790   2.559 -0.7990 -2.0118  1.9446
  934MOL0     H26090   1.469   1.753   2.717  0.2722 -0.1709  0.1346
  935MOL0     O26091   9.912   1.147   7.608 -0.7490 -0.6934 -0.1966
  935MOL0     C26092   9.941   1.109   7.493  0.6367  0.4807 -0.3792
  935MOL0     O26093   9.853   1.031   7.421  0.1037  0.1702 -0.3026
  935MOL0     C26094   9.752   0.974   7.493  0.1342  0.1022 -0.0558
  935MOL0     C26095   9.621   1.026   7.503 -0.4491 -0.4878  0.1962
  935MOL0     C26096   9.513   0.955   7.572  0.1833 -0.0441 -0.0882
  935MOL0     C26097   9.540   0.827   7.625  0.3189 -0.0339  0.4167
  935MOL0     O26098   9.452   0.756   7.687 -0.1086  0.2218 -0.1427
  935MOL0     C26099   9.328   0.812   7.741 -0.2674 -0.5460 -0.3560
  935MOL0     C26100   9.352   0.878   7.871 -0.0721 -0.3964  0.1266
  935MOL0     C26101   9.225   0.916   7.943  0.7501 -0.1085  1.0892
  935MOL0     C26102   9.246   1.022   8.059 -0.3624  0.5765  0.7244
  935MOL0     C26103   9.118   1.061   8.129 -0.6131  1.0152 -1.0548
  935MOL0     C26104   9.056   0.974   8.234  0.7547 -0.9295 -0.2522
  935MOL0     C26105   8.937   1.048   8.307 -0.6509  0.1811  0.2772
  935MOL0     C26106   8.891   0.942   8.399 -0.1407 -0.3026 -0.1454
  935MOL0     N26107   8.801   1.008   8.500  0.1362  0.0536 -0.2735
  935MOL0     C26108   8.655   1.011   8.495 -0.4798 -0.7570 -0.3650
  935MOL0     C26109   8.622   1.073   8.614  0.5033  0.2732 -0.1526
  935MOL0     C26110   8.493   1.118   8.666  0.7368  0.2471 -0.2986
  935MOL0     C26111   8.394   0.999   8.684 -0.1161  0.1430  0.1257
  935MOL0     C26112   8.259   1.032   8.758 -0.4107  0.3520 -0.2383
  935MOL0     C26113   8.174   0.908   8.775  0.5549 -0.7926 -0.5467
  935MOL0     O26114   8.078   0.930   8.882  0.0262 -0.6689 -0.3735
  935MOL0     C26115   7.942   0.926   8.853  0.7189  0.0040 -0.5994
  935MOL0     C26116   7.860   0.900   8.964 -0.3218  0.0483 -0.5542
  935MOL0     C26117   7.719   0.889   8.955 -0.2560 -0.5897  0.4200
  935MOL0     C26118   7.653   0.844   9.088  0.3211 -0.5656  0.7620
  935MOL0     C26119   7.661   0.909   8.823  0.1476  0.5290  0.8468
  935MOL0     C26120   7.515   0.899   8.797  0.1512  0.6145 -0.5724
  935MOL0     O26121   7.463   0.957   8.683  0.2679  0.2618  0.1317
  935MOL0     C26122   7.333   0.942   8.659 -0.0487  0.5556  0.7988
  935MOL0     C26123   7.289   0.827   8.595  0.3167  0.5661  0.5837
  935MOL0     C26124   7.166   0.819   8.532 -0.0455  0.2059 -0.1659
  935MOL0     C26125   7.068   0.919   8.551 -0.4283  0.6362  0.6536
  935MOL0     O26126   6.931   0.911   8.514 -0.7851 -0.0790 -0.5508
  935MOL0     C26127   6.872   0.786   8.477 -0.5316  1.2275 -0.5361
  935MOL0     C26128   6.713   0.791   8.499  0.0808  0.1382  0.1077
  935MOL0     C26129   6.652   0.911   8.427  0.1375  0.4903 -0.4766
  935MOL0     C26130   6.509   0.865   8.388 -0.6263 -0.1237 -0.2731
  935MOL0     C26131   6.430   0.980   8.334 -0.3596 -0.3268 -0.2175
  935MOL0     C26132   6.281   0.945   8.312  0.0447 -0.6572 -1.3031
  935MOL0     C26133   6.206   1.061   8.240  0.5276  0.7588 -0.4700
  935MOL0     C26134   6.072   1.010   8.191  0.1963  0.7688  0.4418
  935MOL0    Cl26135   5.972   1.145   8.150  0.3357  0.0077  0.6369
  935MOL0     C26136   7.105   1.038   8.612 -0.6264 -1.0346 -0.7596
  935MOL0     C26137   7.235   1.052   8.668  0.0293 -0.0253  0.2244
  935MOL0     O26138   7.444   0.840   8.886 -0.1416  0.2303  0.2423
  935MOL0     C26139   7.741   0.941   8.715  0.9406  0.4347 -0.4302
  935MOL0     C26140   7.879   0.946   8.730 -0.9090 -0.2849  0.4680
  935MOL0     N26141   8.737   1.103   8.691  1.0681  0.5429  0.0305
  935MOL0     N26142   8.839   1.073   8.619  0.3085  0.5624 -0.7120
  935MOL0     C26143   9.669   0.783   7.615 -0.4511 -0.4292  0.6804
  935MOL0     C26144   9.777   0.850   7.549  1.1751 -0.0185  0.2299
  935MOL0     C26145  10.072   1.144   7.439  0.0171 -0.4077  1.0820
  935MOL0     C26146  10.169   1.226   7.498 -0.1086  0.3278 -0.4482
  935MOL0     C26147  10.294   1.257   7.445  1.2523  0.1114 -0.6862
  935MOL0     C26148  10.333   1.202   7.320  0.1381  0.5629 -1.1987
  935MOL0     O26149  10.457   1.202   7.260  0.1110 -1.1004  0.1488
  935MOL0     C26150  10.557   1.292   7.316 -0.7187 -0.5984 -0.0022
  935MOL0     C26151  10.681   1.314   7.223  0.5135  0.7010 -0.6504
  935MOL0     C26152  10.654   1.339   7.070  0.2281 -0.5740 -0.5254
  935MOL0     C26153  10.623   1.216   6.978 -0.2527 -0.2812 -0.0691
  935MOL0     C26154  10.484   1.209   6.943  0.1052  0.3390  0.8535
  935MOL0     C26155  10.367   1.182   6.916  0.0902 -0.3787  0.3449
  935MOL0     C26156  10.231   1.127   7.257 -0.0959  0.2364 -0.1305
  935MOL0     C26157  10.105   1.099   7.310 -0.4551  0.6972  0.4317
  935MOL0     H26158   9.601   1.123   7.459  3.4165  1.7229  2.6729
  935MOL0     H26159   9.421   1.010   7.590  2.4660  3.3631  2.5845
  935MOL0     H26160   9.291   0.887   7.671  1.3240 -0.9543 -1.7019
  935MOL0     H26161   9.252   0.736   7.762 -0.6398  0.3496  1.8426
  935MOL0     H26162   9.414   0.808   7.927 -0.4195 -1.1295 -0.3867
  935MOL0     H26163   9.414   0.968   7.862 -1.5140  0.4950 -1.8885
  935MOL0     H26164   9.152   0.945   7.867 -0.4270 -3.3625  0.8316
  935MOL0     H26165   9.185   0.824   7.987  0.0781 -0.4031 -0.0859
  935MOL0     H26166   9.320   0.974   8.125 -1.2871 -1.6766  0.2148
  935MOL0     H26167   9.287   1.114   8.017  0.3223 -0.5481 -1.2107
  935MOL0     H26168   9.124   1.160   8.174  0.3433  0.0830  1.0451
  935MOL0     H26169   9.036   1.068   8.057 -1.4913  1.1911 -0.0542
  935MOL0     H26170   9.035   0.873   8.197  2.6031 -1.9963  1.4559
  935MOL0     H26171   9.131   0.957   8.311  0.4151  0.0604  0.3216
  935MOL0     H26172   8.962   1.135   8.368 -1.6492  0.5264  0.2070
  935MOL0     H26173   8.864   1.075   8.230 -1.0772 -0.1742  0.5572
  935MOL0     H26174   8.965   0.881   8.452  2.2452  2.2037 -0.3619
  935MOL0     H26175   8.841   0.871   8.333 -0.6480  0.2556 -0.3661
  935MOL0     H26176   8.585   0.978   8.419 -1.0238 -1.5298  0.4361
  935MOL0     H26177   8.509   1.156   8.767 -1.1902 -0.4087  0.2977
  935MOL0     H26178   8.439   1.184   8.597 -1.9307 -2.9224 -1.5140
  935MOL0     H26179   8.447   0.930   8.749  0.5699  0.1444 -0.4250
  935MOL0     H26180   8.381   0.945   8.590  2.9987 -0.7876  0.1270
  935MOL0     H26181   8.215   1.113   8.699 -0.3368  1.6742  1.4512
  935MOL0     H26182   8.284   1.075   8.856 -1.3259 -0.9295  0.5946
  935MOL0     H26183   8.236   0.828   8.816 -0.7982 -0.9438  1.3276
  935MOL0     H26184   8.128   0.871   8.683  1.3670  1.6300 -2.0207
  935MOL0     H26185   7.911   0.893   9.059 -0.4147 -0.4682 -0.5412
  935MOL0     H26186   7.730   0.809   9.158 -0.5401 -2.6503  0.7619
  935MOL0     H26187   7.595   0.931   9.120 -2.4622 -1.0705 -2.3577
  935MOL0     H26188   7.594   0.756   9.063  0.9091 -0.7420 -0.0534
  935MOL0     H26189   7.352   0.743   8.569 -0.1563  0.5302 -0.4657
  935MOL0     H26190   7.144   0.727   8.479  1.6530  0.4103 -1.2961
  935MOL0     H26191   6.884   0.776   8.369 -1.7077  0.4599 -0.6214
  935MOL0     H26192   6.918   0.699   8.525 -0.4835  0.8918 -1.1792
  935MOL0     H26193   6.677   0.697   8.457  1.5359  0.6423 -2.4730
  935MOL0     H26194   6.691   0.798   8.606 -0.2518 -1.0559  0.1329
  935MOL0     H26195   6.712   0.940   8.340  2.9415 -1.1457  0.7398
  935MOL0     H26196   6.644   0.996   8.495  0.0647  1.4284 -1.6199
  935MOL0     H26197   6.534   0.798   8.305  1.0443  2.6138 -2.1596
  935MOL0     H26198   6.456   0.812   8.467 -0.4839 -1.1311 -0.8321
  935MOL0     H26199   6.490   1.014   8.249 -1.0613  3.6755  0.7122
  935MOL0     H26200   6.438   1.064   8.403  2.2265  0.7091 -1.6230
  935MOL0     H26201   6.275   0.852   8.255 -0.7641 -1.6369  0.3149
  935MOL0     H26202   6.231   0.924   8.407  1.6044  0.1658 -0.2609
  935MOL0     H26203   6.273   1.094   8.160  1.4897  0.6856  0.2924
  935MOL0     H26204   6.201   1.141   8.315 -0.9074 -0.4399  0.7738
  935MOL0     H26205   6.006   0.961   8.263 -0.6487  0.9104 -0.2073
  935MOL0     H26206   6.096   0.954   8.100 -3.5884  2.6280 -2.0158
  935MOL0     H26207   7.038   1.123   8.622  4.8423  3.9301 -1.3816
  935MOL0     H26208   7.276   1.144   8.709  0.0159 -0.4307  1.1654
  935MOL0     H26209   7.705   0.963   8.615 -0.2882  0.4759 -0.0012
  935MOL0     H26210   7.944   0.975   8.647 -0.3117 -1.3400  0.5416
  935MOL0     H26211   9.685   0.686   7.662 -0.4627 -1.2175 -0.8884
  935MOL0     H26212   9.876   0.806   7.545  0.9480 -0.5829  0.6927
  935MOL0     H26213  10.137   1.267   7.593 -1.7426 -2.9368  0.5215
  935MOL0     H26214  10.351   1.323   7.510 -0.2973  0.7476  0.0881
  935MOL0     H26215  10.512   1.390   7.334  1.1001  0.6116 -1.6507
  935MOL0     H26216  10.590   1.244   7.409  2.4854 -0.2621 -0.8452
  935MOL0     H26217  10.738   1.221   7.226 -1.5114 -0.6003 -0.7133
  935MOL0     H26218  10.747   1.389   7.268  0.6242  0.2051  0.0408
  935MOL0     H26219  10.746   1.384   7.031 -1.1218  3.0131  0.0973
  935MOL0     H26220  10.578   1.418   7.067 -2.4609 -2.7793  2.4361
  935MOL0     H26221  10.666   1.125   7.020  1.3859  0.4765 -0.0399
  935MOL0     H26222  10.690   1.237   6.894 -0.2750 -2.2414 -0.6285
  935MOL0     H26223  10.264   1.168   6.890  0.0535 -1.2314  0.9165
  935MOL0     H26224  10.262   1.074   7.167  1.0142 -2.6713  1.8424
  935MOL0     H26225  10.039   1.034   7.253 -0.7350  0.9874  0.4207
  936MOL0     O26226   3.236   6.145   5.111 -0.5214  0.2899  0.0670
  936MOL0     C26227   3.282   6.044   5.169 -0.6102  0.4902 -0.6552
  936MOL0     O26228   3.222   5.973   5.268 -0.6600 -0.5744 -0.3586
  936MOL0     C26229   3.092   5.996   5.286  0.0105  0.4291  0.1063
  936MOL0     C26230   3.057   6.080   5.387  0.3663 -0.0287  0.0924
  936MOL0     C26231   2.929   6.142   5.387 -0.5665 -0.0357 -1.3231
  936MOL0     C26232   2.832   6.115   5.290 -1.7362  0.5078 -0.0178
  936MOL0     O26233   2.721   6.177   5.272 -0.1189 -0.7013  0.2382
  936MOL0     C26234   2.676   6.264   5.371  0.0941 -0.1465  0.1458
  936MOL0     C26235   2.547   6.335   5.321 -0.8018  0.4933  0.0503
  936MOL0     C26236   2.484   6.454   5.401  0.4558  0.3515  0.1739
  936MOL0     C26237   2.376   6.535   5.324  0.0226 -0.2967 -0.0795
  936MOL0     C26238   2.308   6.638   5.419 -0.0833  0.1599 -0.7913
  936MOL0     C26239   2.205   6.719   5.344  0.0890  0.1629 -0.7567
  936MOL0     C26240   2.094   6.792   5.436  0.3773  0.5365 -0.1494
  936MOL0     C26241   2.161   6.895   5.517  0.4875  0.9655 -0.0706
  936MOL0     N26242   2.076   6.925   5.631 -0.7213 -0.4568  0.0689
  936MOL0     C26243   2.098   6.872   5.756  0.1012 -0.0610 -0.5340
  936MOL0     C26244   2.002   6.935   5.832  0.4224 -0.3191 -0.1336
  936MOL0     C26245   2.014   6.922   5.982  0.9659  0.4748 -0.6883
  936MOL0     C26246   1.893   6.853   6.054  0.2753  0.9122 -0.0946
  936MOL0     C26247   1.772   6.940   6.034 -0.0122 -0.2274 -0.0097
  936MOL0     C26248   1.659   6.905   6.123  0.4704 -0.0695 -0.1571
  936MOL0     O26249   1.547   6.992   6.106  0.1944  0.1488 -0.0162
  936MOL0     C26250   1.425   6.958   6.164 -0.4157 -0.7200 -0.0746
  936MOL0     C26251   1.400   6.838   6.239 -0.1570 -0.2300  0.8197
  936MOL0     C26252   1.267   6.823   6.293 -0.2733  0.3986  0.4496
  936MOL0     C26253   1.240   6.673   6.341  0.1182  0.0776  0.1948
  936MOL0     C26254   1.173   6.930   6.293  0.6262 -0.2900  0.8477
  936MOL0     C26255   1.026   6.912   6.339 -0.3508 -0.7176  0.0354
  936MOL0     O26256   0.936   6.996   6.276 -0.4769  0.2564 -0.0790
  936MOL0     C26257   0.806   6.956   6.271  0.5078 -0.2386 -0.8579
  936MOL0     C26258   0.758   6.821   6.294 -0.7215 -0.4174 -0.3542
  936MOL0     C26259   0.621   6.793   6.301 -0.0804  0.7594  0.0999
  936MOL0     C26260   0.526   6.899   6.274 -0.4009 -0.2612  0.2900
  936MOL0     O26261   0.390   6.872   6.264 -0.3857  0.6575  0.7814
  936MOL0     C26262   0.346   6.823   6.140 -0.0921  0.6148 -0.0574
  936MOL0     C26263   0.189   6.843   6.144  0.0075  0.3681 -0.9439
  936MOL0     C26264   0.110   6.823   6.007 -0.9259 -0.3957 -0.1334
  936MOL0     C26265  -0.048   6.813   6.026 -0.6952 -0.3526 -1.0573
  936MOL0     C26266  -0.107   6.929   6.109  0.9743  0.3461  0.3015
  936MOL0     C26267  -0.260   6.907   6.116 -0.2609  0.3517 -0.0235
  936MOL0     C26268  -0.324   7.016   6.205 -0.1476 -0.2854  0.3613
  936MOL0     C26269  -0.475   7.022   6.193  0.0840 -0.4652  0.2421
  936MOL0    Cl26270  -0.525   6.887   6.294 -0.2078 -0.0311  0.5584
  936MOL0     C26271   0.571   7.026   6.237 -0.4522 -0.1063  0.3689
  936MOL0     C26272   0.706   7.051   6.244 -0.5344  0.1358  0.3543
  936MOL0     O26273   1.004   6.849   6.440  0.3541 -0.5890 -0.1732
  936MOL0     C26274   1.208   7.048   6.222 -0.5330  0.2254  0.3257
  936MOL0     C26275   1.329   7.053   6.153  0.2364 -0.2848  0.0086
  936MOL0     N26276   1.939   7.029   5.753  0.0862 -0.6973 -0.4663
  936MOL0     N26277   1.985   7.026   5.638  0.4507 -0.7803 -0.6222
  936MOL0     C26278   2.870   6.008   5.201  0.6085  0.1766 -0.4082
  936MOL0     C26279   2.996   5.954   5.205  0.2783  0.0144 -0.4995
  936MOL0     C26280   3.408   5.989   5.119  0.5336 -0.0087 -0.2515
  936MOL0     C26281   3.482   6.075   5.039 -0.3922  0.1109 -0.4336
  936MOL0     C26282   3.587   6.030   4.966 -0.6650 -0.3377 -0.3029
  936MOL0     C26283   3.638   5.899   4.989 -0.1300  0.9612  0.2314
  936MOL0     O26284   3.751   5.871   4.918  0.4844  0.3594 -0.1017
  936MOL0     C26285   3.823   5.741   4.937  0.4788  0.6944 -0.4286
  936MOL0     C26286   3.922   5.764   5.045 -0.0837  0.3300 -0.7632
  936MOL0     C26287   3.984   5.636   5.112  0.2558 -0.0667  0.5462
  936MOL0     C26288   4.104   5.680   5.194  0.3643  0.4627 -1.0379
  936MOL0     C26289   4.216   5.731   5.115 -0.3406 -0.2811 -0.6594
  936MOL0     C26290   4.297   5.778   5.039 -1.4617  0.1432  0.7331
  936MOL0     C26291   3.573   5.816   5.077  0.4809  0.3510  0.5893
  936MOL0     C26292   3.458   5.861   5.140  0.7016 -0.0359 -0.5527
  936MOL0     H26293   3.131   6.104   5.463  1.1693 -3.0299  0.3736
  936MOL0     H26294   2.922   6.214   5.468  1.7526  2.0518 -2.8290
  936MOL0     H26295   2.656   6.217   5.468  0.2869  2.1138  1.3490
  936MOL0     H26296   2.746   6.347   5.380 -0.8646  0.6062  0.7925
  936MOL0     H26297   2.577   6.390   5.231 -1.2047  1.2976  0.3982
  936MOL0     H26298   2.471   6.260   5.298  0.2858 -0.1552 -1.5386
  936MOL0     H26299   2.432   6.412   5.488  2.5945 -2.9231  0.0286
  936MOL0     H26300   2.551   6.528   5.446  0.2556 -0.0076  1.0735
  936MOL0     H26301   2.435   6.601   5.260  0.5217  0.3014  0.9779
  936MOL0     H26302   2.299   6.477   5.271  1.0753 -3.0609  1.2151
  936MOL0     H26303   2.260   6.578   5.496 -0.0879  0.1373 -0.8122
  936MOL0     H26304   2.379   6.709   5.464  0.3977 -0.7983  0.0064
  936MOL0     H26305   2.259   6.791   5.283 -0.7124 -0.1926 -1.9099
  936MOL0     H26306   2.152   6.663   5.267  0.3005  0.6469 -1.2598
  936MOL0     H26307   2.022   6.840   5.368  0.6512 -1.5814 -2.0736
  936MOL0     H26308   2.035   6.721   5.495  1.3007 -1.5539 -1.6193
  936MOL0     H26309   2.178   6.984   5.456 -3.1575  2.7658  1.2926
  936MOL0     H26310   2.258   6.861   5.556 -1.2211 -1.4041  2.4560
  936MOL0     H26311   2.167   6.793   5.785  0.6948  0.3113 -0.9039
  936MOL0     H26312   2.107   6.875   6.015 -0.9237 -0.6360  3.7880
  936MOL0     H26313   2.016   7.026   6.016  3.3929 -0.3019  1.8967
  936MOL0     H26314   1.915   6.844   6.161  2.9571  1.2929 -0.5421
  936MOL0     H26315   1.875   6.759   6.001 -2.3349  1.9839 -1.2498
  936MOL0     H26316   1.741   6.934   5.929 -3.1203 -0.7147  0.8218
  936MOL0     H26317   1.808   7.042   6.050  0.7452 -0.4300 -0.3934
  936MOL0     H26318   1.684   6.911   6.229  2.3816  0.6867 -0.6081
  936MOL0     H26319   1.626   6.805   6.091 -1.4200  0.9007 -1.4096
  936MOL0     H26320   1.471   6.757   6.244  1.0684  0.6071 -1.4506
  936MOL0     H26321   1.301   6.599   6.288  0.7608 -1.6571  3.1578
  936MOL0     H26322   1.275   6.654   6.443 -0.7669  2.5953  1.0476
  936MOL0     H26323   1.137   6.638   6.328  0.1529 -1.1847  2.8546
  936MOL0     H26324   0.832   6.741   6.301  0.1005  0.4604  1.7234
  936MOL0     H26325   0.582   6.693   6.315 -1.1681  0.7866 -2.1474
  936MOL0     H26326   0.384   6.893   6.064  1.5774  0.5400  0.6706
  936MOL0     H26327   0.369   6.719   6.117 -0.6580  0.8902 -2.0904
  936MOL0     H26328   0.146   6.772   6.214 -0.7008  0.9553 -0.7667
  936MOL0     H26329   0.161   6.943   6.179 -1.4731  0.2744 -1.7437
  936MOL0     H26330   0.141   6.731   5.956 -1.8605 -0.2244 -1.0552
  936MOL0     H26331   0.141   6.908   5.944 -0.4738  0.4609  1.2120
  936MOL0     H26332  -0.096   6.801   5.929 -1.0100 -0.3883 -0.8986
  936MOL0     H26333  -0.066   6.724   6.087 -1.5721 -0.9984 -2.2375
  936MOL0     H26334  -0.086   7.024   6.059  0.9243  0.8179  1.1666
  936MOL0     H26335  -0.061   6.933   6.208 -0.7012 -0.6701  1.1697
  936MOL0     H26336  -0.310   6.908   6.019 -0.2526 -1.6095 -0.1003
  936MOL0     H26337  -0.283   6.806   6.151 -1.6865  0.7796  0.3162
  936MOL0     H26338  -0.292   7.110   6.159 -0.6095 -1.4237 -2.4866
  936MOL0     H26339  -0.297   7.022   6.311  0.1018  0.4524  0.2619
  936MOL0     H26340  -0.512   7.008   6.091  0.3027  4.2961 -0.7176
  936MOL0     H26341  -0.505   7.121   6.228 -0.0902 -0.6377  0.5873
  936MOL0     H26342   0.506   7.111   6.218  1.3458  1.3343  0.3367
  936MOL0     H26343   0.730   7.155   6.220  0.9834 -0.3807 -0.5621
  936MOL0     H26344   1.130   7.123   6.216  0.5163  1.2672 -0.8620
  936MOL0     H26345   1.354   7.147   6.106  0.9201 -0.4315  0.0688
  936MOL0     H26346   2.789   5.984   5.133  1.1561 -1.5164 -0.5021
  936MOL0     H26347   3.019   5.877   5.132 -0.1881 -1.6356  1.0367
  936MOL0     H26348   3.461   6.182   5.038 -2.1905 -0.2241 -0.6043
  936MOL0     H26349   3.622   6.100   4.891 -2.2860  1.2756  0.3670
  936MOL0     H26350   3.759   5.665   4.984  2.1059 -2.0302 -2.3527
  936MOL0     H26351   3.853   5.696   4.842  0.5462 -4.3191  1.6748
  936MOL0     H26352   3.868   5.824   5.119 -0.0901  1.1538 -1.4233
  936MOL0     H26353   3.997   5.830   5.001 -0.2055  1.0908  0.1278
  936MOL0     H26354   4.016   5.573   5.029 -1.4159 -0.5363  0.2276
  936MOL0     H26355   3.912   5.571   5.163  0.1455 -0.6649 -0.3530
  936MOL0     H26356   4.127   5.594   5.257 -3.5198 -0.7900 -1.0489
  936MOL0     H26357   4.077   5.761   5.263  1.2761  0.2258 -0.3888
  936MOL0     H26358   4.372   5.821   4.976 -1.6710 -1.3806 -0.6065
  936MOL0     H26359   3.613   5.717   5.097 -1.3028 -0.6206 -0.4049
  936MOL0     H26360   3.396   5.806   5.210  0.1529 -0.0429 -1.0361
  937MOL0     O26361   3.998   9.355   1.171  0.1587  0.5422 -0.9140
  937MOL0     C26362   4.073   9.408   1.250 -0.1996 -0.1869 -0.4603
  937MOL0     O26363   4.034   9.486   1.357  0.1772 -0.6409  0.0202
  937MOL0     C26364   3.901   9.532   1.365  0.0038 -0.5413  0.3199
  937MOL0     C26365   3.778   9.487   1.311 -0.4790 -0.0153 -0.5078
  937MOL0     C26366   3.655   9.547   1.343  0.9161 -0.0177  1.1429
  937MOL0     C26367   3.650   9.651   1.431  0.7380 -0.2685  0.6544
  937MOL0     O26368   3.535   9.720   1.474  0.5786  0.0706 -0.2572
  937MOL0     C26369   3.400   9.649   1.459  0.4425 -0.3437  0.0305
  937MOL0     C26370   3.304   9.713   1.556  0.7213 -0.7447 -0.6992
  937MOL0     C26371   3.155   9.703   1.502 -1.1085 -0.2099  0.1549
  937MOL0     C26372   3.064   9.704   1.625  0.3400 -0.2461  0.2651
  937MOL0     C26373   2.921   9.736   1.590  0.8360 -0.7489  0.2032
  937MOL0     C26374   2.853   9.646   1.481 -0.7408 -0.3646  0.7750
  937MOL0     C26375   2.820   9.496   1.514  0.9721 -0.5777  0.2520
  937MOL0     C26376   2.698   9.479   1.598 -0.2150 -0.3351 -0.3017
  937MOL0     N26377   2.582   9.534   1.535  0.7532 -0.0333 -0.5086
  937MOL0     C26378   2.530   9.661   1.559  0.4083  0.2495  0.1383
  937MOL0     C26379   2.439   9.679   1.457 -0.0941  0.0856 -0.2369
  937MOL0     C26380   2.347   9.794   1.437  0.5758  0.4784 -0.1055
  937MOL0     C26381   2.227   9.792   1.526  0.1573  0.4602  0.2260
  937MOL0     C26382   2.119   9.694   1.473 -0.4165 -0.6036  1.0631
  937MOL0     C26383   2.017   9.657   1.578 -0.5418  0.1374  0.9065
  937MOL0     O26384   1.933   9.765   1.609  0.2433 -0.2860  0.6246
  937MOL0     C26385   1.846   9.753   1.711  0.3549 -0.7640  0.3817
  937MOL0     C26386   1.832   9.642   1.793 -0.0769  0.1030 -0.1030
  937MOL0     C26387   1.730   9.620   1.872  0.4279  0.0916 -0.1507
  937MOL0     C26388   1.722   9.490   1.935 -0.2390  0.7217  0.1135
  937MOL0     C26389   1.630   9.723   1.890 -0.4050 -0.3666  0.1596
  937MOL0     C26390   1.514   9.715   1.976  0.1833 -0.5566 -0.3116
  937MOL0     O26391   1.390   9.748   1.906 -0.2355  0.1026  0.4128
  937MOL0     C26392   1.285   9.758   1.990 -0.4770  0.1754  0.3377
  937MOL0     C26393   1.232   9.649   2.057  0.1993  0.4637  0.0584
  937MOL0     C26394   1.108   9.645   2.109  0.6512  0.1571 -0.1350
  937MOL0     C26395   1.022   9.763   2.119 -0.1617 -0.1906  0.0116
  937MOL0     O26396   0.899   9.760   2.192 -0.2341 -0.3261  0.7495
  937MOL0     C26397   0.790   9.833   2.126  0.7408 -0.9121  0.1404
  937MOL0     C26398   0.666   9.844   2.213 -0.0856  0.2173 -0.0282
  937MOL0     C26399   0.536   9.879   2.142 -0.1946 -0.5897 -0.4636
  937MOL0     C26400   0.537  10.003   2.052  0.0904 -0.6040  0.1257
  937MOL0     C26401   0.394  10.019   2.002  0.6778  0.4942  0.6494
  937MOL0     C26402   0.311   9.908   1.937 -1.0943 -0.9454 -0.5272
  937MOL0     C26403   0.363   9.856   1.802  0.7611  0.4703 -0.6643
  937MOL0     C26404   0.306   9.705   1.771 -0.4534 -0.2202  0.3699
  937MOL0    Cl26405   0.128   9.702   1.762  0.1863 -0.1832 -0.2921
  937MOL0     C26406   1.086   9.879   2.071 -0.3224 -0.2275  0.3687
  937MOL0     C26407   1.211   9.871   1.999  0.2812  0.1156 -1.2265
  937MOL0     O26408   1.524   9.719   2.098  0.3929  0.7643 -0.6582
  937MOL0     C26409   1.640   9.841   1.811 -0.6268  0.0311 -0.2822
  937MOL0     C26410   1.748   9.856   1.730  0.4226 -0.4312 -0.3354
  937MOL0     N26411   2.451   9.575   1.374 -0.1434 -0.1954  0.4187
  937MOL0     N26412   2.541   9.494   1.416 -0.3768 -0.3114 -0.3363
  937MOL0     C26413   3.771   9.696   1.483  0.4126 -0.3365 -0.6760
  937MOL0     C26414   3.896   9.640   1.455 -0.4102  0.5073 -0.3348
  937MOL0     C26415   4.215   9.393   1.226 -0.3862 -0.6534 -0.4893
  937MOL0     C26416   4.262   9.318   1.115  1.5195  0.0849 -0.2668
  937MOL0     C26417   4.395   9.301   1.095  0.2622  0.3365  0.2165
  937MOL0     C26418   4.492   9.354   1.181  0.4464  0.0321  0.1591
  937MOL0     O26419   4.627   9.339   1.155 -0.3765 -0.6460 -0.1617
  937MOL0     C26420   4.699   9.256   1.254  0.5564 -0.0926  0.3137
  937MOL0     C26421   4.699   9.114   1.207 -0.5140 -0.6593  0.3150
  937MOL0     C26422   4.790   9.016   1.289 -0.3547  0.5503 -0.3409
  937MOL0     C26423   4.759   8.872   1.258 -0.1107 -0.3372 -0.8110
  937MOL0     C26424   4.677   8.823   1.368  0.2938 -0.4335  1.0311
  937MOL0     C26425   4.603   8.792   1.460  0.0928  0.2249  0.3961
  937MOL0     C26426   4.450   9.435   1.288 -0.0982  0.2826 -0.1810
  937MOL0     C26427   4.312   9.449   1.315  0.5874  0.3979  0.0569
  937MOL0     H26428   3.784   9.409   1.236  1.0159  0.2515 -0.6986
  937MOL0     H26429   3.565   9.510   1.294  2.1814 -0.3291 -1.0982
  937MOL0     H26430   3.369   9.648   1.354  0.9569  0.3217 -0.1346
  937MOL0     H26431   3.420   9.543   1.481  2.4946 -0.1042 -0.4367
  937MOL0     H26432   3.311   9.673   1.658 -0.9604  1.1107  0.2150
  937MOL0     H26433   3.321   9.820   1.571 -2.4199 -0.5064  2.6888
  937MOL0     H26434   3.121   9.771   1.423 -0.7866 -1.9957 -1.6045
  937MOL0     H26435   3.150   9.608   1.447  0.2668 -1.6035  2.2869
  937MOL0     H26436   3.067   9.604   1.667 -0.3291  0.2018  1.4427
  937MOL0     H26437   3.098   9.771   1.705  2.5326  0.2229 -0.9683
  937MOL0     H26438   2.851   9.736   1.674 -0.4153 -1.4964 -0.8009
  937MOL0     H26439   2.920   9.830   1.536  0.8118 -3.1398 -4.4576
  937MOL0     H26440   2.767   9.693   1.433 -0.2060 -0.1201  0.0370
  937MOL0     H26441   2.923   9.646   1.397  0.4679 -1.5952  1.7202
  937MOL0     H26442   2.787   9.452   1.419 -0.0334 -0.8072  0.6952
  937MOL0     H26443   2.912   9.449   1.549  2.9250  0.7095 -2.7069
  937MOL0     H26444   2.715   9.526   1.696  4.4731  0.6079 -1.3324
  937MOL0     H26445   2.680   9.371   1.607  1.1738 -0.4439  2.1236
  937MOL0     H26446   2.562   9.728   1.638  3.4213  2.0445 -2.3972
  937MOL0     H26447   2.404   9.886   1.457 -1.0660  1.9097 -1.7084
  937MOL0     H26448   2.314   9.808   1.334 -1.6189 -0.0568  0.4771
  937MOL0     H26449   2.188   9.894   1.527 -1.7898 -0.2408  0.9599
  937MOL0     H26450   2.267   9.758   1.622  0.3791  0.6721  0.2090
  937MOL0     H26451   2.155   9.596   1.441 -0.4616 -0.8315  1.6916
  937MOL0     H26452   2.071   9.738   1.385 -0.1062  1.3508  1.8139
  937MOL0     H26453   2.072   9.628   1.669 -0.6490 -0.7140  0.7130
  937MOL0     H26454   1.969   9.572   1.529 -0.7707  1.4056 -1.1775
  937MOL0     H26455   1.905   9.562   1.783  0.4349  0.2358  2.0281
  937MOL0     H26456   1.757   9.500   2.038 -2.1080 -0.3835  0.9113
  937MOL0     H26457   1.615   9.467   1.943 -0.4219  1.7679  0.8841
  937MOL0     H26458   1.773   9.405   1.888 -0.9037 -0.4150  1.3637
  937MOL0     H26459   1.299   9.565   2.072  1.5184  1.7641  1.9552
  937MOL0     H26460   1.078   9.553   2.159 -0.3832  0.5128 -0.0675
  937MOL0     H26461   0.821   9.936   2.107 -2.2842 -0.0184 -0.4909
  937MOL0     H26462   0.762   9.784   2.032  0.1004  0.1980 -0.2632
  937MOL0     H26463   0.647   9.749   2.262  1.1721  1.3595  2.9445
  937MOL0     H26464   0.690   9.918   2.290  1.8413  2.1118 -2.2527
  937MOL0     H26465   0.463   9.889   2.224 -0.1402 -2.0439 -0.2116
  937MOL0     H26466   0.509   9.790   2.084 -0.1361 -1.8005  1.2773
  937MOL0     H26467   0.577  10.091   2.103 -0.5386 -1.0644  1.4559
  937MOL0     H26468   0.598   9.978   1.965  1.4228 -0.1706  0.9113
  937MOL0     H26469   0.382  10.112   1.946 -0.2644  0.4117  0.6996
  937MOL0     H26470   0.351  10.050   2.097  1.8268 -1.2157  1.7626
  937MOL0     H26471   0.324   9.819   2.000 -0.1472 -0.4894 -0.0457
  937MOL0     H26472   0.205   9.934   1.935 -1.0772 -0.1821  2.7840
  937MOL0     H26473   0.472   9.854   1.801  0.7664 -0.9510 -2.6954
  937MOL0     H26474   0.336   9.930   1.726  0.6514  0.9301 -0.1786
  937MOL0     H26475   0.338   9.637   1.850  2.4307 -2.2609 -2.3357
  937MOL0     H26476   0.357   9.670   1.681  0.4914 -0.0450  0.8221
  937MOL0     H26477   1.037   9.976   2.073  2.2245  1.1727 -0.6647
  937MOL0     H26478   1.251   9.964   1.959 -1.2633  1.9700  1.2351
  937MOL0     H26479   1.572   9.926   1.800  1.9901  2.0391 -2.2091
  937MOL0     H26480   1.756   9.944   1.667  1.7981 -0.2814  0.0198
  937MOL0     H26481   3.771   9.780   1.552 -0.7382 -1.3198  0.5781
  937MOL0     H26482   3.990   9.681   1.490  0.7134 -1.3059 -1.0824
  937MOL0     H26483   4.199   9.265   1.043 -0.3961  0.7279  0.8623
  937MOL0     H26484   4.421   9.248   1.004 -1.8973  2.7182 -1.9399
  937MOL0     H26485   4.803   9.289   1.248  0.6695 -0.5421 -0.3225
  937MOL0     H26486   4.652   9.272   1.352 -1.5067  3.8555 -1.0832
  937MOL0     H26487   4.735   9.122   1.104  1.7459 -0.1999  1.0724
  937MOL0     H26488   4.596   9.077   1.205 -0.6186 -0.4156  1.0011
  937MOL0     H26489   4.769   9.033   1.395 -1.3774 -1.1792 -0.2304
  937MOL0     H26490   4.896   9.030   1.265 -1.1018  2.7971 -2.8514
  937MOL0     H26491   4.848   8.809   1.256 -1.5839 -2.5398 -1.6709
  937MOL0     H26492   4.707   8.859   1.162 -0.4295 -2.1296 -0.4340
  937MOL0     H26493   4.541   8.770   1.544  1.3059  1.1453  1.5707
  937MOL0     H26494   4.523   9.476   1.357  3.0247 -4.2883 -0.2854
  937MOL0     H26495   4.281   9.499   1.406  0.1472 -0.3166  0.3148
  938MOL0     O26496   1.733   3.930   1.435  0.4600  0.3008  0.2558
  938MOL0     C26497   1.836   3.875   1.412 -0.2436  0.1531 -0.8812
  938MOL0     O26498   1.861   3.764   1.341  0.2015  0.2620  0.6115
  938MOL0     C26499   1.751   3.706   1.280 -0.6915  0.4739  0.0554
  938MOL0     C26500   1.751   3.705   1.134 -0.2146 -0.0343  0.1455
  938MOL0     C26501   1.639   3.659   1.071  0.8004  0.0004  0.6591
  938MOL0     C26502   1.539   3.592   1.145 -0.4014 -0.3508  0.0079
  938MOL0     O26503   1.434   3.539   1.082  0.2658  0.1251  0.0504
  938MOL0     C26504   1.343   3.646   1.035 -0.1303  0.2045 -0.1182
  938MOL0     C26505   1.263   3.588   0.913 -0.3971 -0.8382 -0.4555
  938MOL0     C26506   1.145   3.681   0.863  0.1219 -0.9137  0.4009
  938MOL0     C26507   1.064   3.610   0.755 -0.1251 -0.1218  0.8140
  938MOL0     C26508   0.958   3.531   0.817  0.5992  0.0461  0.4928
  938MOL0     C26509   0.886   3.458   0.703 -1.0735  0.9224 -0.5950
  938MOL0     C26510   0.773   3.371   0.762  0.3733  0.4998 -0.1419
  938MOL0     C26511   0.705   3.309   0.635 -0.5223  0.3223  0.4697
  938MOL0     N26512   0.590   3.227   0.675 -0.3179  1.0431  0.1500
  938MOL0     C26513   0.512   3.159   0.585  0.0221  0.2050 -0.4827
  938MOL0     C26514   0.402   3.109   0.652 -0.4646  0.5899  0.1114
  938MOL0     C26515   0.297   3.012   0.595 -0.1676 -0.3799 -0.6978
  938MOL0     C26516   0.170   3.015   0.675 -0.1339  0.5510 -0.4852
  938MOL0     C26517   0.067   3.113   0.616 -0.5005  0.2021  0.6486
  938MOL0     C26518  -0.070   3.088   0.672  1.4930  0.8909 -0.0293
  938MOL0     O26519  -0.163   3.186   0.621  0.6156  0.4254  0.6745
  938MOL0     C26520  -0.294   3.163   0.643  0.0204 -0.8683  1.1913
  938MOL0     C26521  -0.383   3.244   0.575  0.9706  0.0076 -0.8328
  938MOL0     C26522  -0.521   3.231   0.599  0.6315  0.3553  0.1960
  938MOL0     C26523  -0.619   3.321   0.526 -0.0183 -0.3465  0.3803
  938MOL0     C26524  -0.568   3.131   0.688 -0.2942 -0.1701 -0.0957
  938MOL0     C26525  -0.711   3.090   0.707  0.4378 -0.5622  0.8631
  938MOL0     O26526  -0.815   3.181   0.672 -0.1468  0.7064  0.7295
  938MOL0     C26527  -0.954   3.165   0.674  0.2650  0.5874 -0.5122
  938MOL0     C26528  -1.025   3.069   0.755 -0.2445  0.2120  0.7703
  938MOL0     C26529  -1.159   3.050   0.736 -0.5762 -0.0788 -0.2659
  938MOL0     C26530  -1.234   3.134   0.649  0.4807 -0.8718  0.3642
  938MOL0     O26531  -1.371   3.104   0.644 -0.0911 -0.3561 -0.2190
  938MOL0     C26532  -1.434   3.102   0.516 -0.2518  0.2966  0.1831
  938MOL0     C26533  -1.582   3.076   0.523  0.2569  0.2980  0.4685
  938MOL0     C26534  -1.661   3.089   0.394  0.1511  0.6404  0.8341
  938MOL0     C26535  -1.806   3.026   0.412 -0.7831 -0.3286  0.2493
  938MOL0     C26536  -1.889   3.041   0.286 -0.9937 -0.5758 -0.0402
  938MOL0     C26537  -2.030   2.971   0.285 -0.4446  0.0197 -0.8463
  938MOL0     C26538  -2.109   3.015   0.166  0.2048 -0.0173  0.5646
  938MOL0     C26539  -2.219   2.918   0.143 -0.0143  0.3307 -0.8586
  938MOL0    Cl26540  -2.345   2.929   0.270 -0.2418  0.0893  0.3526
  938MOL0     C26541  -1.173   3.232   0.576 -0.4913  0.1271 -0.4164
  938MOL0     C26542  -1.035   3.253   0.592 -1.0518 -0.2586 -0.4825
  938MOL0     O26543  -0.731   2.981   0.758  0.5732  0.9657  0.2877
  938MOL0     C26544  -0.475   3.060   0.759  0.0130  0.0285 -0.7521
  938MOL0     C26545  -0.342   3.076   0.736 -0.4165 -0.2486  0.4226
  938MOL0     N26546   0.426   3.137   0.783 -0.1660 -0.1359  0.1648
  938MOL0     N26547   0.534   3.207   0.801 -0.1603  0.0845 -0.0580
  938MOL0     C26548   1.550   3.585   1.287 -0.4047  0.4016  0.2322
  938MOL0     C26549   1.655   3.641   1.354  0.3264  0.0118  0.2408
  938MOL0     C26550   1.959   3.953   1.439  0.1442 -0.0483 -0.0757
  938MOL0     C26551   1.964   4.052   1.544 -0.3669  0.8210 -0.1849
  938MOL0     C26552   2.085   4.115   1.575  0.3189 -0.5201 -0.4532
  938MOL0     C26553   2.205   4.070   1.518  0.5627 -0.4015  0.3798
  938MOL0     O26554   2.316   4.138   1.559 -0.1947 -0.6403 -0.8860
  938MOL0     C26555   2.342   4.255   1.488  0.5064  0.5218  0.5811
  938MOL0     C26556   2.378   4.229   1.343  0.4956 -0.4248  0.2410
  938MOL0     C26557   2.388   4.358   1.260  0.7527  0.5556  0.7965
  938MOL0     C26558   2.419   4.335   1.105 -1.0261  0.1739  0.0246
  938MOL0     C26559   2.537   4.247   1.088 -0.2269  0.1898 -0.5882
  938MOL0     C26560   2.643   4.183   1.090  0.1737 -0.3635 -0.4835
  938MOL0     C26561   2.202   3.983   1.413 -0.9768  0.2112  0.3506
  938MOL0     C26562   2.083   3.924   1.367  0.3259 -0.0959  0.0597
  938MOL0     H26563   1.830   3.759   1.082 -0.6274  2.0959  1.5847
  938MOL0     H26564   1.628   3.675   0.964  0.6657 -2.3658  0.2684
  938MOL0     H26565   1.266   3.677   1.106  1.6492  0.6589  1.7192
  938MOL0     H26566   1.400   3.729   0.994  0.9152 -0.1238  0.6091
  938MOL0     H26567   1.337   3.576   0.833  2.5231  3.1474  1.3142
  938MOL0     H26568   1.219   3.493   0.946 -3.4958  0.1062 -1.5364
  938MOL0     H26569   1.080   3.725   0.939 -0.7338 -0.3797 -0.6110
  938MOL0     H26570   1.198   3.767   0.821 -1.7630  1.7639  3.0929
  938MOL0     H26571   1.020   3.683   0.687  0.5122 -0.4299  0.0457
  938MOL0     H26572   1.129   3.544   0.695  0.3745  0.7241  0.4131
  938MOL0     H26573   1.015   3.458   0.874 -1.2074 -1.2330  0.7314
  938MOL0     H26574   0.886   3.585   0.880 -0.5040 -1.3334  0.4598
  938MOL0     H26575   0.843   3.522   0.626 -0.9692  0.6132 -0.9155
  938MOL0     H26576   0.960   3.389   0.661 -1.8112 -1.1671  1.3384
  938MOL0     H26577   0.822   3.295   0.823 -0.1466  1.0274  0.9525
  938MOL0     H26578   0.711   3.430   0.830  3.9880  1.7545  2.3532
  938MOL0     H26579   0.774   3.238   0.589 -0.3438 -0.7584  2.3348
  938MOL0     H26580   0.668   3.385   0.565 -0.3141 -1.5305 -1.7411
  938MOL0     H26581   0.535   3.155   0.480  0.6510 -3.8222 -0.3588
  938MOL0     H26582   0.284   3.027   0.488  2.5731 -0.9177 -1.1646
  938MOL0     H26583   0.338   2.911   0.602 -0.1812 -0.3971 -0.8798
  938MOL0     H26584   0.191   3.040   0.779  0.8699  1.0664 -0.7962
  938MOL0     H26585   0.130   2.913   0.685 -0.3070  0.5445 -1.1654
  938MOL0     H26586   0.071   3.113   0.507 -0.6294  2.1606  0.6196
  938MOL0     H26587   0.096   3.213   0.647 -0.5909 -0.2977  2.5108
  938MOL0     H26588  -0.068   3.100   0.781  0.4771  1.0352 -0.0185
  938MOL0     H26589  -0.106   2.987   0.650  2.5404  0.4144  0.3800
  938MOL0     H26590  -0.339   3.308   0.500  0.2519 -1.8731 -2.9773
  938MOL0     H26591  -0.663   3.263   0.444  0.0042  1.8476 -1.2840
  938MOL0     H26592  -0.707   3.362   0.576 -1.5349 -2.1717 -0.6400
  938MOL0     H26593  -0.559   3.399   0.479  0.3247 -0.5412  0.4969
  938MOL0     H26594  -0.971   3.005   0.824  1.2417 -0.3546 -0.8447
  938MOL0     H26595  -1.207   2.979   0.802  0.4724  1.5366  2.4167
  938MOL0     H26596  -1.417   3.190   0.453 -0.5531 -1.0774 -1.9297
  938MOL0     H26597  -1.386   3.019   0.463  1.4089  0.3219  1.5510
  938MOL0     H26598  -1.599   2.974   0.558 -2.4717  0.5006 -0.0395
  938MOL0     H26599  -1.635   3.141   0.593 -0.0843  0.4471  0.0709
  938MOL0     H26600  -1.608   3.038   0.313 -0.4731  0.3309  0.6084
  938MOL0     H26601  -1.674   3.194   0.368 -1.8083  1.1751  3.5361
  938MOL0     H26602  -1.804   2.921   0.444  2.2195 -1.4064 -2.8596
  938MOL0     H26603  -1.867   3.078   0.486  1.1462  1.1775  0.8608
  938MOL0     H26604  -1.818   2.990   0.221  1.5359  1.5635  0.8990
  938MOL0     H26605  -1.901   3.144   0.253  2.4624 -0.8587 -2.7087
  938MOL0     H26606  -2.011   2.863   0.276  1.4157  0.3145 -0.7341
  938MOL0     H26607  -2.078   2.988   0.382  0.2294 -0.5053 -0.4072
  938MOL0     H26608  -2.045   3.018   0.077 -0.1993 -2.9838  0.0727
  938MOL0     H26609  -2.151   3.114   0.188  1.4288  1.2062 -2.1311
  938MOL0     H26610  -2.184   2.814   0.140 -0.6543 -0.1797  3.2633
  938MOL0     H26611  -2.267   2.939   0.047  0.8470  1.3443 -1.0860
  938MOL0     H26612  -1.235   3.300   0.519  0.2557  0.4516 -0.8537
  938MOL0     H26613  -0.988   3.335   0.540 -1.3556 -0.5518 -1.2446
  938MOL0     H26614  -0.505   2.989   0.836  0.9295  1.5317  1.0764
  938MOL0     H26615  -0.280   3.018   0.804 -0.3580  0.0823  0.6514
  938MOL0     H26616   1.465   3.535   1.333 -0.0808 -0.6452 -0.2653
  938MOL0     H26617   1.664   3.640   1.462  0.5930 -0.1077  0.2193
  938MOL0     H26618   1.873   4.085   1.594 -0.6358 -0.5522  0.2888
  938MOL0     H26619   2.081   4.204   1.637  0.0623 -0.7067 -0.1997
  938MOL0     H26620   2.249   4.311   1.502 -0.4175 -0.8351 -0.0402
  938MOL0     H26621   2.420   4.317   1.535 -2.6499  3.4047  2.5533
  938MOL0     H26622   2.305   4.165   1.292 -0.3730 -0.2807  1.2595
  938MOL0     H26623   2.479   4.187   1.338  1.3053  1.5442 -2.5137
  938MOL0     H26624   2.478   4.410   1.294  0.1338  2.9613 -0.9509
  938MOL0     H26625   2.299   4.421   1.270  0.8877  0.9743 -0.4130
  938MOL0     H26626   2.426   4.431   1.053  2.3399 -0.3284 -0.6261
  938MOL0     H26627   2.330   4.286   1.064  0.2624 -1.7464 -0.5839
  938MOL0     H26628   2.737   4.138   1.115  0.9713  1.2903 -0.3710
  938MOL0     H26629   2.301   3.965   1.371 -1.2059 -1.0969  0.3220
  938MOL0     H26630   2.086   3.852   1.285  1.6127  1.1940 -1.0951
  939MOL0     O26631   8.087   2.031   7.121 -0.4458  0.0623 -0.1795
  939MOL0     C26632   8.102   2.038   7.240  0.2375 -0.0246  0.7332
  939MOL0     O26633   8.004   2.074   7.328 -0.6327 -0.5018 -0.1731
  939MOL0     C26634   7.867   2.092   7.306  0.2118  0.0415  0.7565
  939MOL0     C26635   7.801   2.088   7.173 -0.3997  0.7002  0.1310
  939MOL0     C26636   7.673   2.135   7.162  0.4086  0.3489 -0.6677
  939MOL0     C26637   7.609   2.182   7.274  0.5651 -0.7080 -0.4619
  939MOL0     O26638   7.485   2.235   7.269  0.2542 -0.3216 -0.1213
  939MOL0     C26639   7.407   2.218   7.146 -0.2485  0.3498 -0.3726
  939MOL0     C26640   7.251   2.243   7.164  0.3998  0.2149  0.1389
  939MOL0     C26641   7.216   2.371   7.228  0.1706 -0.8536 -0.8645
  939MOL0     C26642   7.070   2.388   7.224  0.0575 -0.0675  0.1937
  939MOL0     C26643   7.018   2.505   7.298  0.7770  0.1567 -0.7039
  939MOL0     C26644   6.871   2.497   7.290 -0.1382 -0.1114 -0.2752
  939MOL0     C26645   6.806   2.595   7.385  0.0731  1.0562  0.0143
  939MOL0     C26646   6.817   2.535   7.524 -0.1835  0.3319 -0.0753
  939MOL0     N26647   6.720   2.610   7.614 -0.3714  0.6275 -0.7551
  939MOL0     C26648   6.607   2.683   7.584  0.4827  0.3444 -0.7100
  939MOL0     C26649   6.569   2.728   7.710  0.6700 -0.5138 -0.1277
  939MOL0     C26650   6.454   2.822   7.712  0.6606  0.6965 -0.2415
  939MOL0     C26651   6.390   2.824   7.850  0.2261  0.3329  1.0303
  939MOL0     C26652   6.271   2.923   7.854  0.1864  0.1517  0.9252
  939MOL0     C26653   6.193   2.886   7.978 -0.1132 -0.6071  0.2454
  939MOL0     O26654   6.089   2.985   8.013  0.1838 -0.5863  0.0028
  939MOL0     C26655   5.967   2.977   7.961 -0.4313 -0.4737 -0.0383
  939MOL0     C26656   5.890   3.092   7.974  0.6103 -0.5361  0.3535
  939MOL0     C26657   5.752   3.097   7.940 -0.0079 -1.8401  0.5122
  939MOL0     C26658   5.673   3.226   7.965 -0.5783 -0.1541 -0.0070
  939MOL0     C26659   5.695   2.982   7.891  0.3678  0.0346 -0.1091
  939MOL0     C26660   5.552   2.972   7.847 -0.3936  0.3602 -0.3536
  939MOL0     O26661   5.502   3.075   7.772 -0.7984 -0.2496  0.0348
  939MOL0     C26662   5.369   3.072   7.748 -0.4066 -0.0289  0.6192
  939MOL0     C26663   5.302   2.995   7.643 -0.4070 -0.2309 -0.3156
  939MOL0     C26664   5.160   2.983   7.647  0.2735 -0.3277  0.6727
  939MOL0     C26665   5.087   3.066   7.724  0.1812 -0.4425  0.3602
  939MOL0     O26666   4.952   3.072   7.737  0.2754 -0.7904  0.4082
  939MOL0     C26667   4.868   3.033   7.627  0.1139  0.2808  0.4119
  939MOL0     C26668   4.722   3.073   7.655 -0.4222  0.2806  0.5311
  939MOL0     C26669   4.627   3.039   7.539 -0.0931  0.3090 -0.3000
  939MOL0     C26670   4.599   2.893   7.519 -0.4975 -0.1464 -0.3398
  939MOL0     C26671   4.489   2.840   7.431 -0.0972 -0.3965 -0.2584
  939MOL0     C26672   4.537   2.800   7.293 -0.1294 -0.2638  0.1725
  939MOL0     C26673   4.417   2.733   7.220  0.9163 -0.1307 -0.9923
  939MOL0     C26674   4.446   2.653   7.098 -0.4443 -0.0549  0.1371
  939MOL0    Cl26675   4.287   2.590   7.032  0.0451  0.7638  0.2739
  939MOL0     C26676   5.153   3.143   7.820  0.0566 -0.0981  0.2337
  939MOL0     C26677   5.289   3.143   7.843  0.3692 -0.1071 -0.4336
  939MOL0     O26678   5.486   2.877   7.883  0.5535  0.2210  0.4547
  939MOL0     C26679   5.772   2.869   7.867 -0.2192  0.2094 -0.0971
  939MOL0     C26680   5.910   2.867   7.899  0.1797  0.6966  0.2917
  939MOL0     N26681   6.664   2.699   7.813 -0.8203 -0.3343  1.0437
  939MOL0     N26682   6.759   2.631   7.745  0.2201 -0.3593 -0.2613
  939MOL0     C26683   7.665   2.195   7.400 -0.8650  0.1144  0.5533
  939MOL0     C26684   7.794   2.141   7.415  1.4857 -0.5758 -0.2666
  939MOL0     C26685   8.229   2.010   7.308  0.3794  0.3060  0.1628
  939MOL0     C26686   8.326   1.916   7.240 -0.4877 -0.4619 -0.2685
  939MOL0     C26687   8.450   1.892   7.298 -0.4054 -0.0863 -0.1882
  939MOL0     C26688   8.487   1.944   7.423 -0.7091 -0.0172  0.1527
  939MOL0     O26689   8.599   1.895   7.477 -0.7621 -0.7330  0.4200
  939MOL0     C26690   8.664   1.968   7.582 -0.2745  0.3282 -0.7737
  939MOL0     C26691   8.808   1.908   7.610  1.0911  0.2710 -0.6887
  939MOL0     C26692   8.890   1.945   7.503 -0.3103 -0.9889  0.9136
  939MOL0     C26693   8.900   2.095   7.479  0.1401 -1.2941 -0.0248
  939MOL0     C26694   9.041   2.141   7.455  0.0672  0.5741 -0.3590
  939MOL0     C26695   9.156   2.166   7.436 -0.2102  0.1321 -0.2889
  939MOL0     C26696   8.407   2.033   7.486  0.6100 -0.3346  0.2468
  939MOL0     C26697   8.284   2.058   7.435  0.3475  0.3902  0.5290
  939MOL0     H26698   7.846   2.049   7.082 -0.1665 -3.1888  1.7180
  939MOL0     H26699   7.630   2.137   7.063  0.2392  0.3864 -0.5926
  939MOL0     H26700   7.438   2.291   7.071 -0.3145 -0.4326 -1.1733
  939MOL0     H26701   7.422   2.118   7.105 -1.0038 -0.2385  0.7449
  939MOL0     H26702   7.212   2.231   7.063  0.1422 -0.8491  0.3588
  939MOL0     H26703   7.213   2.165   7.231 -0.8026  1.2420  0.7025
  939MOL0     H26704   7.256   2.377   7.330 -0.4981 -0.6708 -0.6116
  939MOL0     H26705   7.255   2.460   7.178 -3.7457  0.8468 -1.2133
  939MOL0     H26706   7.045   2.405   7.119 -1.1975 -0.8454  0.3527
  939MOL0     H26707   7.017   2.306   7.274  2.0308 -0.3198  1.9866
  939MOL0     H26708   7.061   2.501   7.399  2.0412 -0.4239 -1.2405
  939MOL0     H26709   7.042   2.600   7.249  1.3557  0.8528  0.8492
  939MOL0     H26710   6.841   2.501   7.185  2.5404 -2.1758 -1.2437
  939MOL0     H26711   6.831   2.398   7.309  0.1808 -0.1573  0.1759
  939MOL0     H26712   6.844   2.697   7.383 -4.7764  3.1944  0.7720
  939MOL0     H26713   6.702   2.587   7.350  0.0416  3.0076 -0.4086
  939MOL0     H26714   6.921   2.526   7.557  0.3208  0.0840 -1.6641
  939MOL0     H26715   6.786   2.432   7.508  0.7034 -0.0063  0.3418
  939MOL0     H26716   6.554   2.687   7.490 -1.8879 -1.5509  0.4411
  939MOL0     H26717   6.490   2.921   7.679 -0.5139  0.5027 -2.2494
  939MOL0     H26718   6.377   2.800   7.639  0.6148 -0.0927  0.0412
  939MOL0     H26719   6.464   2.857   7.923  1.7515 -1.1155  0.2222
  939MOL0     H26720   6.351   2.724   7.871 -0.5957  0.2857 -0.5382
  939MOL0     H26721   6.213   2.908   7.762  2.0588  1.6717 -0.5985
  939MOL0     H26722   6.303   3.027   7.845 -2.8808  1.0276 -2.8517
  939MOL0     H26723   6.267   2.893   8.058 -0.2605 -0.9627  0.4142
  939MOL0     H26724   6.156   2.783   7.975  1.7771 -1.3790  1.5606
  939MOL0     H26725   5.938   3.176   8.022 -0.2814 -0.2234  0.7093
  939MOL0     H26726   5.694   3.293   7.881 -1.3746  2.4395  1.7473
  939MOL0     H26727   5.566   3.216   7.982 -0.7501  1.2255 -0.1314
  939MOL0     H26728   5.707   3.282   8.053 -0.2616 -1.1227  0.4997
  939MOL0     H26729   5.369   2.935   7.582 -0.5091 -0.9622  0.2896
  939MOL0     H26730   5.101   2.926   7.576  0.1152  0.5749  0.0544
  939MOL0     H26731   4.895   3.074   7.529  0.0432  2.3235  1.1893
  939MOL0     H26732   4.871   2.924   7.635  2.7747  0.3140  0.5437
  939MOL0     H26733   4.686   3.039   7.753 -0.2366 -0.9241  0.1964
  939MOL0     H26734   4.726   3.182   7.662 -0.8535  0.1886  3.5312
  939MOL0     H26735   4.666   3.088   7.449  1.3795  0.2535  0.2955
  939MOL0     H26736   4.536   3.097   7.557  0.0629  1.0242 -1.6581
  939MOL0     H26737   4.685   2.828   7.499 -0.7362 -0.2336 -1.1262
  939MOL0     H26738   4.567   2.875   7.622 -0.7091  0.8842 -0.2194
  939MOL0     H26739   4.405   2.909   7.422 -1.9520 -2.7155 -1.8649
  939MOL0     H26740   4.456   2.747   7.478 -0.3383  0.1325  0.6420
  939MOL0     H26741   4.570   2.886   7.233 -3.8854  0.3877 -1.2310
  939MOL0     H26742   4.617   2.726   7.303 -1.1826 -1.2970  1.2978
  939MOL0     H26743   4.340   2.807   7.198  1.3230  1.1452  1.4889
  939MOL0     H26744   4.373   2.660   7.288 -2.3489  2.0693 -0.5121
  939MOL0     H26745   4.518   2.573   7.117 -0.7191 -0.2299  0.4724
  939MOL0     H26746   4.486   2.725   7.026  0.8278  1.7187  2.4735
  939MOL0     H26747   5.101   3.203   7.894 -0.3732 -0.5032  0.2595
  939MOL0     H26748   5.331   3.207   7.920  4.1364 -2.9748  0.2019
  939MOL0     H26749   5.728   2.779   7.825 -2.6507  1.4163 -0.3058
  939MOL0     H26750   5.961   2.772   7.888 -0.6643  0.1236  1.1982
  939MOL0     H26751   7.604   2.243   7.475  0.2701  2.3910  0.1170
  939MOL0     H26752   7.833   2.154   7.515 -2.1109  1.0018  1.1199
  939MOL0     H26753   8.305   1.872   7.143 -1.4173 -0.5383 -0.0444
  939MOL0     H26754   8.531   1.851   7.238 -2.3647  0.5321 -3.5112
  939MOL0     H26755   8.665   2.075   7.562  1.6007  0.5932  0.5035
  939MOL0     H26756   8.607   1.968   7.675  0.8704 -0.5569 -0.0510
  939MOL0     H26757   8.799   1.799   7.601 -1.0308  0.3790 -0.4081
  939MOL0     H26758   8.845   1.942   7.707  1.2839  2.3579 -1.4534
  939MOL0     H26759   8.856   1.908   7.406  0.4372 -1.2476  0.7497
  939MOL0     H26760   8.993   1.913   7.517  0.0678  0.6322  2.2806
  939MOL0     H26761   8.865   2.151   7.566  1.4371  1.9385 -1.4167
  939MOL0     H26762   8.837   2.122   7.393  1.0518  0.3785 -0.2003
  939MOL0     H26763   9.258   2.197   7.427 -0.4017  0.8274 -0.0836
  939MOL0     H26764   8.437   2.088   7.575 -1.7901  0.0505  0.8773
  939MOL0     H26765   8.218   2.131   7.481 -0.7322 -0.4143  0.2827
  940MOL0     O26766   7.576   0.587   9.323 -0.3576  0.4964 -0.2874
  940MOL0     C26767   7.634   0.486   9.279 -1.0301  0.4454  0.7091
  940MOL0     O26768   7.573   0.380   9.210  0.3808  0.1297  0.9317
  940MOL0     C26769   7.448   0.412   9.153 -0.4353  1.1693 -0.0142
  940MOL0     C26770   7.326   0.373   9.207 -0.2562 -0.3344  0.1985
  940MOL0     C26771   7.200   0.407   9.143  0.0044 -0.2231 -0.0367
  940MOL0     C26772   7.199   0.500   9.040 -0.4696  0.3042 -1.1728
  940MOL0     O26773   7.094   0.555   8.973 -0.3309  0.1518 -0.3425
  940MOL0     C26774   6.967   0.482   8.980 -0.4283  0.3896 -0.0270
  940MOL0     C26775   6.892   0.522   9.110 -0.3833 -0.4078  0.6827
  940MOL0     C26776   6.779   0.426   9.125 -0.1484 -0.6581  0.4884
  940MOL0     C26777   6.704   0.442   9.249  0.3903 -0.1554 -0.5051
  940MOL0     C26778   6.610   0.563   9.242  0.2316  0.6043  0.5867
  940MOL0     C26779   6.572   0.613   9.381 -0.0150  0.2314 -1.0066
  940MOL0     C26780   6.484   0.738   9.370  1.4013 -0.0147 -0.0961
  940MOL0     C26781   6.333   0.707   9.332 -0.4356 -0.2149  0.2338
  940MOL0     N26782   6.255   0.824   9.353  0.1997 -0.1244 -0.7241
  940MOL0     C26783   6.220   0.900   9.243 -0.4275  0.0634 -0.1252
  940MOL0     C26784   6.151   1.001   9.300  0.4892  0.0770 -0.2648
  940MOL0     C26785   6.083   1.111   9.222 -0.1229  0.0727  0.3528
  940MOL0     C26786   5.946   1.060   9.175 -0.1648 -1.0296 -0.2576
  940MOL0     C26787   5.847   1.156   9.119  1.0116  0.5211 -0.0878
  940MOL0     C26788   5.703   1.117   9.116  0.0631  0.1709  0.1244
  940MOL0     O26789   5.676   1.017   9.012 -0.0261  0.1219  0.3385
  940MOL0     C26790   5.552   0.963   8.990  0.8739  0.3244  0.0138
  940MOL0     C26791   5.533   0.835   8.945  0.9124 -0.1256  0.0559
  940MOL0     C26792   5.409   0.781   8.917 -0.4803 -0.0746 -0.7396
  940MOL0     C26793   5.424   0.635   8.880  0.6062 -0.2060  0.2574
  940MOL0     C26794   5.295   0.864   8.939 -0.0487  0.2807 -0.2420
  940MOL0     C26795   5.161   0.819   8.906 -0.4798  0.1895  0.2329
  940MOL0     O26796   5.057   0.864   8.989 -1.2946 -0.0193  0.0089
  940MOL0     C26797   4.934   0.842   8.942  0.4067  0.1670 -0.1776
  940MOL0     C26798   4.882   0.708   8.936  0.1343  0.6181  0.3209
  940MOL0     C26799   4.750   0.686   8.905  0.3788 -0.0511  0.7702
  940MOL0     C26800   4.664   0.795   8.903 -0.1383  0.1238  0.4331
  940MOL0     O26801   4.535   0.772   8.886  0.1865 -0.0111  0.4818
  940MOL0     C26802   4.494   0.668   8.798 -0.7613  0.8118  0.9444
  940MOL0     C26803   4.357   0.701   8.742  0.2335 -0.7860 -0.1611
  940MOL0     C26804   4.248   0.676   8.840 -0.3432 -0.7082  1.0380
  940MOL0     C26805   4.112   0.743   8.793 -0.1099 -0.4191  0.3797
  940MOL0     C26806   4.045   0.642   8.697  0.4803  0.2845 -0.4460
  940MOL0     C26807   3.944   0.714   8.610 -0.5222  0.0643 -0.1530
  940MOL0     C26808   3.835   0.619   8.567 -0.2651 -0.0075 -0.1257
  940MOL0     C26809   3.751   0.669   8.460  0.9844 -0.1450  0.2758
  940MOL0    Cl26810   3.832   0.640   8.302 -0.0573  0.2358 -0.0623
  940MOL0     C26811   4.713   0.923   8.914  0.5257  0.2506 -0.1651
  940MOL0     C26812   4.844   0.947   8.929  0.0567  0.2591  0.7753
  940MOL0     O26813   5.146   0.736   8.810  0.3533 -0.6358 -0.0551
  940MOL0     C26814   5.310   0.992   9.000 -0.2135 -0.6950  0.2025
  940MOL0     C26815   5.437   1.039   9.024  0.3143 -0.5934  0.4390
  940MOL0     N26816   6.138   0.984   9.433  0.1532  0.0173 -0.0175
  940MOL0     N26817   6.204   0.885   9.466 -0.2690 -0.1840 -0.1149
  940MOL0     C26818   7.316   0.536   8.985  0.6591  0.2648 -0.5566
  940MOL0     C26819   7.442   0.496   9.040  1.4319 -0.3618  0.1933
  940MOL0     C26820   7.777   0.478   9.306 -0.4301 -0.2163 -0.7273
  940MOL0     C26821   7.844   0.581   9.367 -0.1262 -0.5417  0.3430
  940MOL0     C26822   7.981   0.573   9.399 -0.2560 -0.3581 -0.3601
  940MOL0     C26823   8.048   0.452   9.380 -1.1871  0.4069 -0.6441
  940MOL0     O26824   8.174   0.452   9.429 -0.1453  0.2042 -0.0065
  940MOL0     C26825   8.273   0.374   9.368  0.2903  0.2398 -0.5033
  940MOL0     C26826   8.307   0.249   9.448  0.5682  0.4423  0.8205
  940MOL0     C26827   8.406   0.153   9.378 -0.8357  0.0617 -0.3852
  940MOL0     C26828   8.407   0.025   9.458  0.5093  0.0337 -0.3641
  940MOL0     C26829   8.491  -0.072   9.385 -0.2342 -0.1757  0.6543
  940MOL0     C26830   8.576  -0.147   9.328  0.3018  0.7049 -0.8759
  940MOL0     C26831   7.982   0.339   9.326  0.3372  0.0345 -0.0060
  940MOL0     C26832   7.854   0.356   9.277  0.7421  0.1314  0.9524
  940MOL0     H26833   7.318   0.310   9.295  1.4619 -1.1649 -0.2044
  940MOL0     H26834   7.106   0.370   9.185  0.5727 -1.0508  0.5322
  940MOL0     H26835   6.906   0.509   8.893  1.0279 -1.2002 -1.6379
  940MOL0     H26836   6.982   0.374   8.979 -1.7965  0.0740 -3.6781
  940MOL0     H26837   6.952   0.513   9.201 -1.0452 -1.9601  1.0070
  940MOL0     H26838   6.861   0.624   9.087 -1.1714 -0.5562  1.0375
  940MOL0     H26839   6.712   0.430   9.039  0.2770  0.3989  0.1989
  940MOL0     H26840   6.818   0.324   9.128 -1.6156 -1.4922 -3.0841
  940MOL0     H26841   6.655   0.345   9.259  2.1327 -0.9101  1.7107
  940MOL0     H26842   6.780   0.456   9.327 -1.6000  1.2913  1.2913
  940MOL0     H26843   6.668   0.643   9.196  2.7855 -0.0775  2.4028
  940MOL0     H26844   6.523   0.555   9.175  1.2170  1.4406 -0.8465
  940MOL0     H26845   6.521   0.544   9.448  1.8058  1.1545  1.5046
  940MOL0     H26846   6.662   0.653   9.430 -1.3526  1.1444  0.7863
  940MOL0     H26847   6.477   0.791   9.465  0.8335 -0.1437 -0.0596
  940MOL0     H26848   6.532   0.797   9.291  1.9034 -0.8891 -0.4539
  940MOL0     H26849   6.286   0.629   9.392 -0.1698  0.4500  1.3311
  940MOL0     H26850   6.333   0.674   9.228 -0.6257  1.5352 -0.3568
  940MOL0     H26851   6.239   0.884   9.137 -2.9324  0.1248 -0.6401
  940MOL0     H26852   6.080   1.209   9.270 -1.3238  1.5508 -2.5030
  940MOL0     H26853   6.138   1.127   9.129 -0.7608 -0.0741 -0.0581
  940MOL0     H26854   5.897   1.025   9.266 -1.7201 -0.8268 -0.9835
  940MOL0     H26855   5.950   0.972   9.110 -2.8010  0.3687 -2.5531
  940MOL0     H26856   5.873   1.178   9.015 -0.6625  2.5242 -0.1522
  940MOL0     H26857   5.852   1.255   9.165 -0.4365  0.8618 -0.5878
  940MOL0     H26858   5.656   1.208   9.079 -1.4036 -0.3999  0.5178
  940MOL0     H26859   5.659   1.089   9.212 -0.4112 -0.1457 -0.1821
  940MOL0     H26860   5.622   0.774   8.929 -0.1647 -1.7593 -0.0004
  940MOL0     H26861   5.515   0.597   8.926  0.0513 -0.3171  1.3023
  940MOL0     H26862   5.352   0.575   8.936  1.2502 -2.6321 -1.3732
  940MOL0     H26863   5.407   0.614   8.774  1.0572  0.8390 -0.0402
  940MOL0     H26864   4.941   0.617   8.943  3.8645  2.6399 -1.2382
  940MOL0     H26865   4.707   0.587   8.895 -1.4769  0.4643  2.7174
  940MOL0     H26866   4.562   0.655   8.713 -0.9573  0.9887  0.7588
  940MOL0     H26867   4.486   0.571   8.849 -4.2757 -1.2890 -2.9479
  940MOL0     H26868   4.377   0.805   8.715  0.2211 -1.1434 -1.5959
  940MOL0     H26869   4.323   0.634   8.663 -1.4287  0.2270 -0.3504
  940MOL0     H26870   4.281   0.719   8.935 -0.0183  2.5286 -0.3893
  940MOL0     H26871   4.224   0.570   8.845 -3.0415 -0.3901 -1.7771
  940MOL0     H26872   4.051   0.761   8.881  0.9971 -1.2646  1.3578
  940MOL0     H26873   4.138   0.831   8.734  1.5271 -0.4620  0.9850
  940MOL0     H26874   4.004   0.562   8.759  1.0388  0.0278 -0.4009
  940MOL0     H26875   4.119   0.598   8.630  1.5037  1.8967 -0.4485
  940MOL0     H26876   3.898   0.786   8.679  0.2020 -0.0585  0.4705
  940MOL0     H26877   3.993   0.760   8.524 -0.9888  0.8842  0.0037
  940MOL0     H26878   3.773   0.611   8.656 -0.5218  2.7473  0.0294
  940MOL0     H26879   3.875   0.522   8.538 -3.0802 -1.5240  0.6877
  940MOL0     H26880   3.755   0.778   8.471  0.5756  0.0245 -0.9934
  940MOL0     H26881   3.649   0.629   8.451  0.0029  1.9479  1.3038
  940MOL0     H26882   4.647   1.009   8.903 -0.6037 -0.6851 -0.9771
  940MOL0     H26883   4.884   1.048   8.936 -0.4511  0.4035  1.9576
  940MOL0     H26884   5.214   1.040   9.015 -0.3808 -1.1667  0.6722
  940MOL0     H26885   5.447   1.142   9.056 -0.7787 -0.3995  0.1802
  940MOL0     H26886   7.315   0.603   8.900  2.7267  0.4161 -0.5002
  940MOL0     H26887   7.528   0.540   8.993  1.8085  0.4115  1.5495
  940MOL0     H26888   7.783   0.663   9.402 -0.3195 -0.9475  0.9814
  940MOL0     H26889   8.026   0.652   9.459 -3.5483 -0.7302  2.9117
  940MOL0     H26890   8.239   0.338   9.271  0.8082  1.6727 -1.2327
  940MOL0     H26891   8.362   0.435   9.354  1.1781 -1.3505 -2.3161
  940MOL0     H26892   8.207   0.206   9.461 -0.0142  1.9147  1.4784
  940MOL0     H26893   8.348   0.285   9.543 -1.0693  3.9034  0.3557
  940MOL0     H26894   8.506   0.196   9.369 -1.5305  1.9719  0.5586
  940MOL0     H26895   8.371   0.122   9.279  1.9018 -1.3523 -1.0069
  940MOL0     H26896   8.305  -0.014   9.469  0.3044  0.8137  0.6565
  940MOL0     H26897   8.434   0.051   9.560  1.3225 -3.1785  0.3532
  940MOL0     H26898   8.638  -0.222   9.284  0.9608  1.6135 -1.5237
  940MOL0     H26899   8.027   0.240   9.323 -1.6986 -1.0514  2.0553
  940MOL0     H26900   7.803   0.271   9.231  2.3236 -0.2726 -0.1187
  941MOL0     O26901   1.401   4.969   5.163  1.0055 -0.4488 -0.1033
  941MOL0     C26902   1.500   5.040   5.186 -0.4757  0.4012 -0.8578
  941MOL0     O26903   1.501   5.171   5.206 -0.0954  0.1968  0.1540
  941MOL0     C26904   1.390   5.245   5.182  1.0209  0.6644 -0.1944
  941MOL0     C26905   1.277   5.251   5.267 -0.7099 -0.0086  0.5205
  941MOL0     C26906   1.189   5.353   5.267 -0.0793 -0.0588  0.3019
  941MOL0     C26907   1.192   5.446   5.159 -0.2908  0.5277  0.9930
  941MOL0     O26908   1.089   5.538   5.145  0.0697 -0.5380  0.4604
  941MOL0     C26909   1.031   5.579   5.017 -0.0390  0.3776 -0.3261
  941MOL0     C26910   0.901   5.665   5.041 -0.5068  0.0963 -0.6498
  941MOL0     C26911   0.784   5.591   5.095 -0.0618  0.6395 -0.3543
  941MOL0     C26912   0.661   5.680   5.110  0.6041  0.3890  0.1301
  941MOL0     C26913   0.543   5.604   5.191 -0.4911 -0.3909 -0.6241
  941MOL0     C26914   0.424   5.688   5.158 -0.3664 -0.1570  0.1161
  941MOL0     C26915   0.307   5.665   5.253 -0.4446 -0.5889  0.0274
  941MOL0     C26916   0.264   5.521   5.251  0.3845  0.0987 -0.2061
  941MOL0     N26917   0.209   5.482   5.117 -0.1497 -0.6070 -0.1364
  941MOL0     C26918   0.091   5.536   5.067  0.3142 -0.1924 -0.8095
  941MOL0     C26919   0.075   5.488   4.944  0.2948 -0.4239  0.4181
  941MOL0     C26920  -0.038   5.499   4.849 -0.3851  0.0163  0.4369
  941MOL0     C26921  -0.178   5.480   4.900 -0.6255 -0.1988 -0.0884
  941MOL0     C26922  -0.221   5.344   4.959  0.1118  0.5985 -0.3801
  941MOL0     C26923  -0.370   5.329   4.993  0.1757  0.3991 -0.0218
  941MOL0     O26924  -0.446   5.336   4.874  0.8330  1.0355  0.1744
  941MOL0     C26925  -0.576   5.286   4.864 -0.2003  0.0530 -0.5473
  941MOL0     C26926  -0.657   5.325   4.974 -0.0405  0.3490  0.2040
  941MOL0     C26927  -0.794   5.290   4.969  0.2468  0.2700 -0.8925
  941MOL0     C26928  -0.876   5.330   5.086 -0.4702  0.3278 -0.5526
  941MOL0     C26929  -0.837   5.205   4.860 -0.0434 -0.5819 -0.3535
  941MOL0     C26930  -0.977   5.159   4.854 -0.4800 -0.4583 -0.1437
  941MOL0     O26931  -0.983   5.026   4.814 -0.0785 -0.2111  0.2778
  941MOL0     C26932  -1.101   4.972   4.844  0.1046  0.2694  0.0276
  941MOL0     C26933  -1.219   5.019   4.786  0.2054 -0.5010  0.1322
  941MOL0     C26934  -1.343   4.965   4.818  0.9107 -0.4599  0.0108
  941MOL0     C26935  -1.347   4.860   4.912 -0.4831  0.5450  0.0445
  941MOL0     O26936  -1.467   4.797   4.934 -0.7056 -0.9717 -0.3809
  941MOL0     C26937  -1.574   4.862   4.994 -0.3345 -0.4518  0.4944
  941MOL0     C26938  -1.711   4.798   4.952 -0.3433 -0.2295  0.4410
  941MOL0     C26939  -1.820   4.862   5.036 -0.3479  0.5460 -0.4995
  941MOL0     C26940  -1.838   4.771   5.162  0.6596  0.6618 -0.1938
  941MOL0     C26941  -1.947   4.819   5.257 -0.4358  0.8271  0.3037
  941MOL0     C26942  -2.081   4.819   5.181  0.2372  0.0317  0.2902
  941MOL0     C26943  -2.204   4.788   5.271  0.3138  1.0870  0.2752
  941MOL0     C26944  -2.344   4.807   5.194 -0.0942  0.1627 -0.0495
  941MOL0    Cl26945  -2.395   4.644   5.129  0.0718 -0.3318 -0.2024
  941MOL0     C26946  -1.229   4.812   4.970 -0.0116  0.3309 -0.4895
  941MOL0     C26947  -1.104   4.870   4.934  0.5746 -0.0105  0.8376
  941MOL0     O26948  -1.062   5.226   4.903  0.3079  0.0494  0.4002
  941MOL0     C26949  -0.746   5.153   4.766 -0.4384  0.1413  0.1440
  941MOL0     C26950  -0.614   5.209   4.759  0.1686  0.1461 -0.4162
  941MOL0     N26951   0.191   5.421   4.911 -0.2521  0.5285 -0.1915
  941MOL0     N26952   0.265   5.415   5.018 -0.1449 -0.2961 -0.4083
  941MOL0     C26953   1.295   5.437   5.070 -0.3444  0.0881 -0.2258
  941MOL0     C26954   1.395   5.335   5.076 -0.6996  0.7094 -0.3312
  941MOL0     C26955   1.632   4.969   5.199  0.1474  0.3181  0.0694
  941MOL0     C26956   1.641   4.831   5.226  0.0212  0.3775  0.2747
  941MOL0     C26957   1.764   4.768   5.245 -0.4610  0.4476  0.7164
  941MOL0     C26958   1.883   4.845   5.242  0.3536  0.3149  0.0775
  941MOL0     O26959   2.003   4.793   5.265 -0.0428 -0.2095 -1.0319
  941MOL0     C26960   2.010   4.648   5.282  0.2575 -0.8402  0.4123
  941MOL0     C26961   2.155   4.596   5.300 -0.0450  0.3970  0.0542
  941MOL0     C26962   2.216   4.636   5.429  0.0559  0.2697 -0.0450
  941MOL0     C26963   2.352   4.562   5.440  0.8431  0.6730 -1.0939
  941MOL0     C26964   2.442   4.633   5.353 -0.0225 -0.4919  0.5761
  941MOL0     C26965   2.521   4.683   5.271 -0.5544 -0.1226  0.0993
  941MOL0     C26966   1.869   4.982   5.225  0.1731 -0.8488 -0.9046
  941MOL0     C26967   1.742   5.047   5.200 -0.3425 -0.5172 -0.5516
  941MOL0     H26968   1.279   5.181   5.349  0.9499 -1.1880 -0.4729
  941MOL0     H26969   1.100   5.352   5.330  1.1237 -0.0099  2.0651
  941MOL0     H26970   1.103   5.642   4.964  1.5702  1.3817  2.8333
  941MOL0     H26971   0.997   5.489   4.964  0.6376 -0.1183  0.0689
  941MOL0     H26972   0.932   5.751   5.101 -1.7027  0.6302 -0.7634
  941MOL0     H26973   0.878   5.699   4.939 -0.2473 -0.5981 -0.9458
  941MOL0     H26974   0.766   5.511   5.023 -0.4705  1.2159 -0.9086
  941MOL0     H26975   0.804   5.545   5.192 -1.9379  0.7293  0.1201
  941MOL0     H26976   0.681   5.774   5.162  1.6463 -0.0960  0.6464
  941MOL0     H26977   0.631   5.702   5.007  0.2508 -0.8328 -0.0507
  941MOL0     H26978   0.533   5.500   5.160  0.8895 -1.2072  1.4220
  941MOL0     H26979   0.568   5.616   5.297  2.0218  0.8136 -1.2562
  941MOL0     H26980   0.444   5.795   5.167  0.9791 -0.5416  2.5171
  941MOL0     H26981   0.395   5.666   5.055  1.8449  2.4580 -1.1763
  941MOL0     H26982   0.335   5.681   5.358  0.2781 -0.1152 -0.2322
  941MOL0     H26983   0.236   5.745   5.230  0.9914  0.9468  0.7302
  941MOL0     H26984   0.184   5.515   5.325 -1.1371 -0.0931 -1.7952
  941MOL0     H26985   0.341   5.452   5.285 -0.4043 -0.0036  1.4874
  941MOL0     H26986   0.010   5.585   5.121  0.8165  1.6057 -1.6065
  941MOL0     H26987  -0.023   5.596   4.801 -1.0339 -0.3334 -0.4886
  941MOL0     H26988  -0.037   5.435   4.761 -3.7499 -1.0759  1.0486
  941MOL0     H26989  -0.244   5.499   4.815  0.6260 -2.1333 -1.5474
  941MOL0     H26990  -0.185   5.559   4.976  3.3537 -1.4750  1.9124
  941MOL0     H26991  -0.159   5.316   5.045 -0.7046  0.4254  0.1613
  941MOL0     H26992  -0.199   5.263   4.889  0.2987 -1.0769  1.4963
  941MOL0     H26993  -0.397   5.416   5.053 -2.1016  1.4872 -2.4363
  941MOL0     H26994  -0.371   5.234   5.048  2.2378  1.4787  2.0420
  941MOL0     H26995  -0.632   5.403   5.045  2.4421  0.1235 -0.3346
  941MOL0     H26996  -0.919   5.231   5.107  0.2323 -0.5251 -2.8771
  941MOL0     H26997  -0.814   5.372   5.165  0.8086  0.5607 -1.6524
  941MOL0     H26998  -0.951   5.406   5.062 -0.6274  0.4682  0.3278
  941MOL0     H26999  -1.222   5.106   4.720 -1.9978  1.0424  2.1141
  941MOL0     H27000  -1.433   5.008   4.776  1.7902  1.6776  0.2038
  941MOL0     H27001  -1.555   4.860   5.102  0.4571 -0.6965  0.3545
  941MOL0     H27002  -1.582   4.962   4.949  2.1731 -1.8486 -3.5218
  941MOL0     H27003  -1.745   4.818   4.850 -0.1649 -4.8766 -0.7765
  941MOL0     H27004  -1.712   4.688   4.955  1.3663 -0.4013 -1.9042
  941MOL0     H27005  -1.916   4.863   4.984 -0.8863  0.3761  0.4518
  941MOL0     H27006  -1.802   4.963   5.073  1.6111  0.3424 -0.8198
  941MOL0     H27007  -1.869   4.673   5.123 -1.1570  1.2488 -0.3148
  941MOL0     H27008  -1.751   4.761   5.228 -0.3322  4.8531  2.1294
  941MOL0     H27009  -1.917   4.919   5.287  0.6862  0.0923  1.7737
  941MOL0     H27010  -1.952   4.747   5.340 -1.6812  0.0151 -0.4403
  941MOL0     H27011  -2.083   4.899   5.107  2.2005 -0.9445 -0.9225
  941MOL0     H27012  -2.077   4.739   5.106  0.4702  1.6481 -1.4954
  941MOL0     H27013  -2.193   4.847   5.362 -1.6496  1.9240  0.0261
  941MOL0     H27014  -2.193   4.681   5.289  0.8671  0.8989 -1.0640
  941MOL0     H27015  -2.338   4.870   5.105  0.8360 -0.1496 -0.2236
  941MOL0     H27016  -2.418   4.864   5.250  0.3213 -0.1336  0.8236
  941MOL0     H27017  -1.248   4.733   5.043 -2.4797 -0.4002 -1.7919
  941MOL0     H27018  -1.010   4.823   4.960  0.0975 -1.3153  0.2589
  941MOL0     H27019  -0.774   5.078   4.693 -1.5645  1.2931 -0.6472
  941MOL0     H27020  -0.548   5.180   4.678 -1.8306 -1.4712 -1.5604
  941MOL0     H27021   1.306   5.501   4.982  0.2937  0.6772  0.2765
  941MOL0     H27022   1.490   5.328   5.026  1.8436 -3.6291  4.1191
  941MOL0     H27023   1.554   4.767   5.235 -0.5830  1.3547  1.9765
  941MOL0     H27024   1.756   4.660   5.249 -0.1720  0.4473  1.3816
  941MOL0     H27025   1.938   4.621   5.360 -1.7330  2.7947  0.0579
  941MOL0     H27026   1.958   4.603   5.197 -0.5106  1.5516 -0.4618
  941MOL0     H27027   2.207   4.635   5.213 -1.2858 -2.1144 -1.9431
  941MOL0     H27028   2.164   4.487   5.289  2.5714  0.4820  0.6859
  941MOL0     H27029   2.149   4.609   5.512  1.7033 -2.9767  0.3696
  941MOL0     H27030   2.239   4.743   5.422 -1.0192  0.4743 -0.6102
  941MOL0     H27031   2.337   4.454   5.428 -0.6525  0.9703 -2.1579
  941MOL0     H27032   2.384   4.570   5.544 -2.8193  1.0160  0.1598
  941MOL0     H27033   2.580   4.728   5.194  1.0242 -2.5052 -0.1758
  941MOL0     H27034   1.960   5.040   5.231  0.1442 -0.9568  0.8819
  941MOL0     H27035   1.743   5.155   5.194 -2.1068 -0.1705  2.9685
  942MOL0     O27036   5.271   6.032   5.881  0.3188 -0.4481 -0.1092
  942MOL0     C27037   5.326   5.935   5.827  0.0646 -0.9799 -0.3975
  942MOL0     O27038   5.335   5.809   5.876 -0.7194  0.1090 -0.1966
  942MOL0     C27039   5.250   5.767   5.972 -0.8088 -0.2449  0.9445
  942MOL0     C27040   5.116   5.808   5.979  0.4105 -0.3464  0.0092
  942MOL0     C27041   5.030   5.736   6.062  0.1652 -0.0953 -0.8068
  942MOL0     C27042   5.071   5.624   6.136 -0.8745 -0.9476 -0.0602
  942MOL0     O27043   4.990   5.539   6.208  0.4113  0.2954 -0.4246
  942MOL0     C27044   4.976   5.573   6.343  0.0669 -0.3530  0.4270
  942MOL0     C27045   4.863   5.497   6.406 -0.0644 -0.1407  0.2603
  942MOL0     C27046   4.728   5.533   6.337 -1.4141  0.0692 -0.6588
  942MOL0     C27047   4.685   5.676   6.370  0.3225  1.3855  0.4578
  942MOL0     C27048   4.534   5.688   6.318  0.1897  0.7661 -1.2093
  942MOL0     C27049   4.431   5.659   6.430 -0.4051 -0.1977 -0.7632
  942MOL0     C27050   4.289   5.702   6.394 -0.2433  0.0289 -0.0602
  942MOL0     C27051   4.186   5.638   6.489 -0.2746 -0.5413 -0.4368
  942MOL0     N27052   4.216   5.655   6.630 -0.1449 -0.3584 -0.1679
  942MOL0     C27053   4.167   5.752   6.716 -0.3179  0.6040 -0.6347
  942MOL0     C27054   4.189   5.701   6.840 -0.4681 -0.0986 -0.1432
  942MOL0     C27055   4.148   5.755   6.970 -0.4061 -0.1348 -0.2118
  942MOL0     C27056   4.019   5.684   7.002  0.9787 -0.7961 -0.2799
  942MOL0     C27057   3.905   5.722   6.910 -0.4673 -0.9932 -0.5246
  942MOL0     C27058   3.868   5.869   6.899 -0.1724 -0.1168 -0.2552
  942MOL0     O27059   3.735   5.870   6.845 -0.1175  0.3388 -0.0584
  942MOL0     C27060   3.625   5.918   6.906 -0.1941  0.7062 -0.1608
  942MOL0     C27061   3.615   5.930   7.049 -0.2744 -0.6339  0.0852
  942MOL0     C27062   3.499   5.985   7.113  0.7875  1.2137  0.1914
  942MOL0     C27063   3.517   6.035   7.252 -0.4020  0.0719 -1.3182
  942MOL0     C27064   3.385   5.999   7.030  0.0554 -0.0925 -0.6033
  942MOL0     C27065   3.251   6.049   7.083 -0.2020 -0.2148  0.4860
  942MOL0     O27066   3.226   6.024   7.213  0.3623  0.4024  0.2298
  942MOL0     C27067   3.126   6.087   7.279  0.6107 -0.5282  0.0234
  942MOL0     C27068   3.161   6.185   7.375  0.9363  0.2170 -0.4880
  942MOL0     C27069   3.064   6.237   7.456 -0.5670 -0.5925  0.4717
  942MOL0     C27070   2.933   6.196   7.454 -0.0087  0.1042 -1.2487
  942MOL0     O27071   2.845   6.240   7.547 -0.3697 -0.0546 -0.3102
  942MOL0     C27072   2.901   6.230   7.683 -0.2237  0.8472  0.0177
  942MOL0     C27073   2.794   6.208   7.794  0.3762  0.0023  0.1575
  942MOL0     C27074   2.852   6.186   7.937  0.4532 -0.8812  0.6211
  942MOL0     C27075   2.733   6.144   8.027 -0.7293 -0.4191 -1.8121
  942MOL0     C27076   2.788   6.140   8.172 -0.3664 -0.3371 -0.5772
  942MOL0     C27077   2.701   6.050   8.254  0.7630 -0.1017 -0.2252
  942MOL0     C27078   2.767   6.020   8.390 -0.1177  0.0994  0.7001
  942MOL0     C27079   2.664   5.958   8.479  0.1165  0.2225  0.9920
  942MOL0    Cl27080   2.719   5.935   8.648  0.4654  0.2879 -0.3684
  942MOL0     C27081   2.898   6.095   7.364  0.7299  0.4826  0.6947
  942MOL0     C27082   2.988   6.054   7.265 -0.8273 -0.1244 -0.0463
  942MOL0     O27083   3.175   6.107   7.005  0.5709  0.2478 -0.0373
  942MOL0     C27084   3.389   5.978   6.894 -0.8542 -0.8645  0.4018
  942MOL0     C27085   3.515   5.946   6.829 -0.2928 -0.6856 -1.0813
  942MOL0     N27086   4.263   5.584   6.835  0.0161 -0.8830 -0.3684
  942MOL0     N27087   4.278   5.561   6.708 -0.1286  0.3385 -0.2361
  942MOL0     C27088   5.211   5.600   6.134 -0.2304 -0.0799 -0.3183
  942MOL0     C27089   5.296   5.663   6.044  0.6408 -0.2627 -0.4475
  942MOL0     C27090   5.431   5.972   5.727  0.2228 -0.0161 -0.4922
  942MOL0     C27091   5.530   5.869   5.702  0.4913  0.7262  0.2539
  942MOL0     C27092   5.638   5.905   5.626 -0.3310 -0.1528  0.3942
  942MOL0     C27093   5.648   6.031   5.574  0.5137 -0.5832  0.0141
  942MOL0     O27094   5.757   6.075   5.497  0.1399 -0.4230  0.0664
  942MOL0     C27095   5.823   5.993   5.408 -0.4778 -0.0532  1.1868
  942MOL0     C27096   5.856   6.071   5.283  0.5242  0.5882  0.1968
  942MOL0     C27097   5.720   6.115   5.208  0.9733 -0.5597  0.5799
  942MOL0     C27098   5.675   6.262   5.256 -0.8952  0.1665  0.3953
  942MOL0     C27099   5.592   6.319   5.155 -0.2093  1.0805  0.7123
  942MOL0     C27100   5.525   6.350   5.055 -0.0640 -0.0099  0.2895
  942MOL0     C27101   5.552   6.132   5.599  0.5843  0.5232  1.1226
  942MOL0     C27102   5.441   6.101   5.677  0.0771 -0.2058  0.0196
  942MOL0     H27103   5.070   5.880   5.913  1.7930  0.0321 -0.5913
  942MOL0     H27104   4.926   5.764   6.065  0.0773 -0.4920  1.4753
  942MOL0     H27105   5.070   5.537   6.385 -0.2394  0.5920  2.0111
  942MOL0     H27106   4.966   5.682   6.349  2.8946  0.0448 -0.7973
  942MOL0     H27107   4.879   5.390   6.393  2.7966  0.3314 -0.8312
  942MOL0     H27108   4.857   5.524   6.512  1.8036 -0.6922  0.5367
  942MOL0     H27109   4.722   5.510   6.230 -0.2282  0.0729 -0.7398
  942MOL0     H27110   4.661   5.461   6.386 -0.4943 -2.0774 -2.3820
  942MOL0     H27111   4.686   5.686   6.479 -2.2253  0.9347  0.5848
  942MOL0     H27112   4.746   5.753   6.323 -0.4279  1.6081 -0.1616
  942MOL0     H27113   4.524   5.793   6.290  2.8899  2.2601  2.5416
  942MOL0     H27114   4.507   5.627   6.232 -1.7866 -1.1192  0.6090
  942MOL0     H27115   4.437   5.552   6.450  4.4260  0.0778  0.5441
  942MOL0     H27116   4.452   5.703   6.528 -2.3926  1.0525 -0.8462
  942MOL0     H27117   4.273   5.810   6.395 -0.0293  0.0584  0.0817
  942MOL0     H27118   4.271   5.659   6.295 -4.1091  2.4073 -0.6182
  942MOL0     H27119   4.179   5.531   6.468 -0.2365 -0.5862 -0.2174
  942MOL0     H27120   4.090   5.682   6.461  0.3576  1.9712  0.9801
  942MOL0     H27121   4.111   5.844   6.700 -1.0863  0.1733 -0.4714
  942MOL0     H27122   4.232   5.747   7.039 -0.8497  0.4408  0.4080
  942MOL0     H27123   4.132   5.863   6.961 -0.3190 -0.1762 -0.9813
  942MOL0     H27124   4.000   5.701   7.108  1.1327  0.4523 -0.4287
  942MOL0     H27125   4.021   5.576   6.989 -0.3838 -0.9660  0.7484
  942MOL0     H27126   3.810   5.676   6.939 -2.5127  2.2025 -1.5588
  942MOL0     H27127   3.928   5.682   6.811 -0.4949  1.4577 -1.5960
  942MOL0     H27128   3.926   5.927   6.827  0.5809 -2.0874 -1.2872
  942MOL0     H27129   3.881   5.919   6.995 -0.7463  0.2401 -0.3569
  942MOL0     H27130   3.688   5.916   7.129 -2.9796 -0.4568  2.7576
  942MOL0     H27131   3.617   6.041   7.296 -1.6874  0.2291  1.8908
  942MOL0     H27132   3.475   6.137   7.254 -1.6051 -0.4143 -0.1398
  942MOL0     H27133   3.456   5.977   7.322 -0.9618  0.5889 -1.3640
  942MOL0     H27134   3.265   6.215   7.380  1.5513 -1.5338 -1.7984
  942MOL0     H27135   3.106   6.315   7.518 -0.8562  0.1084 -0.1934
  942MOL0     H27136   2.957   6.136   7.686 -0.0377  0.9610  0.0829
  942MOL0     H27137   2.971   6.311   7.705  2.2792 -1.1606 -0.1393
  942MOL0     H27138   2.725   6.292   7.779  0.8764 -0.0373 -3.0019
  942MOL0     H27139   2.730   6.123   7.773 -3.1232  1.5804  3.2155
  942MOL0     H27140   2.895   6.281   7.970  1.2637 -1.7112  2.0908
  942MOL0     H27141   2.933   6.116   7.955 -0.2523 -1.0980  3.5042
  942MOL0     H27142   2.639   6.201   8.024 -1.7792 -2.0291 -0.7013
  942MOL0     H27143   2.692   6.049   7.993 -2.1179  0.4251 -2.6282
  942MOL0     H27144   2.785   6.238   8.220  2.5551  0.5511 -1.9555
  942MOL0     H27145   2.890   6.100   8.172 -0.3778 -0.3665 -0.9147
  942MOL0     H27146   2.607   6.101   8.277  1.0413  0.5596 -0.5212
  942MOL0     H27147   2.689   5.960   8.192  1.5330 -0.3883  0.0289
  942MOL0     H27148   2.811   6.111   8.430  0.3812  1.7153 -3.1542
  942MOL0     H27149   2.850   5.951   8.369  0.1632  0.2592  1.2504
  942MOL0     H27150   2.635   5.860   8.441 -4.1594  1.9103 -0.5947
  942MOL0     H27151   2.572   6.014   8.496  0.5945  1.1975  0.4328
  942MOL0     H27152   2.794   6.067   7.346  0.3875  0.2363  2.7980
  942MOL0     H27153   2.957   5.984   7.189 -0.5564 -1.0162  0.6454
  942MOL0     H27154   3.298   5.996   6.838 -1.5652  1.7134  2.2373
  942MOL0     H27155   3.510   5.909   6.727 -0.0637 -0.5101 -1.1570
  942MOL0     H27156   5.249   5.525   6.203  1.4903  2.1070  1.3174
  942MOL0     H27157   5.401   5.639   6.032  0.4386 -1.1376 -0.5536
  942MOL0     H27158   5.513   5.767   5.735 -0.3132  0.1639 -1.7356
  942MOL0     H27159   5.700   5.821   5.597 -2.6526 -0.9780 -2.7534
  942MOL0     H27160   5.904   5.935   5.453 -1.9579 -1.3330  2.3210
  942MOL0     H27161   5.750   5.917   5.379  0.3253 -1.2502  2.1718
  942MOL0     H27162   5.912   6.008   5.213  1.0471  2.2804 -0.9882
  942MOL0     H27163   5.920   6.157   5.308  1.0360 -0.4413  2.7186
  942MOL0     H27164   5.636   6.046   5.225  2.4002 -2.5502 -0.0867
  942MOL0     H27165   5.741   6.127   5.102 -0.8588  0.9484  0.3268
  942MOL0     H27166   5.760   6.330   5.267  0.1037 -0.7273 -1.4298
  942MOL0     H27167   5.624   6.267   5.353  1.2396  1.9605  1.5227
  942MOL0     H27168   5.470   6.369   4.965  1.3276  1.7631 -0.2560
  942MOL0     H27169   5.574   6.232   5.564  0.7983 -0.6039 -2.3005
  942MOL0     H27170   5.361   6.175   5.685 -1.3848 -1.4136 -2.1239
  943MOL0     O27171  10.971   8.866   6.233  0.3181  0.2761  0.8834
  943MOL0     C27172  11.039   8.856   6.134 -0.6612  0.2161 -0.4119
  943MOL0     O27173  10.999   8.879   6.005 -0.4647 -0.3308  0.1914
  943MOL0     C27174  10.873   8.867   5.955  0.5377 -0.4264 -0.3373
  943MOL0     C27175  10.841   8.931   5.838  0.0416  0.0544  0.2417
  943MOL0     C27176  10.717   8.931   5.779 -0.6099  0.1351 -0.1873
  943MOL0     C27177  10.617   8.858   5.840 -0.0579  0.5357 -0.2912
  943MOL0     O27178  10.500   8.862   5.767  0.6380 -0.3073  0.1590
  943MOL0     C27179  10.408   8.751   5.778 -0.5695  0.5850  0.8411
  943MOL0     C27180  10.285   8.776   5.689 -0.2115 -0.2818  0.4966
  943MOL0     C27181  10.306   8.748   5.542 -0.2702 -0.3364 -0.0237
  943MOL0     C27182  10.264   8.875   5.461  1.3696 -0.3940  0.2374
  943MOL0     C27183  10.287   8.856   5.311 -0.3828 -1.0723  0.1384
  943MOL0     C27184  10.204   8.952   5.226  0.2150  0.1894 -0.3061
  943MOL0     C27185  10.257   8.966   5.082  0.0800  0.2816 -1.0743
  943MOL0     C27186  10.196   9.076   5.002 -0.2211 -1.0143 -0.1495
  943MOL0     N27187  10.050   9.081   4.996 -0.4713 -0.4899 -0.8596
  943MOL0     C27188   9.967   9.136   5.091  0.9030  0.2425 -0.1415
  943MOL0     C27189   9.843   9.103   5.048  1.0180 -0.2817  0.4733
  943MOL0     C27190   9.710   9.124   5.122 -0.2996  0.1414 -0.4814
  943MOL0     C27191   9.596   9.169   5.024  0.2449 -0.2213 -0.3951
  943MOL0     C27192   9.646   9.293   4.943  0.4279 -0.3218  0.4264
  943MOL0     C27193   9.525   9.343   4.865 -0.0037  0.8229 -0.4333
  943MOL0     O27194   9.424   9.383   4.951 -0.7032 -0.6452  0.1268
  943MOL0     C27195   9.293   9.381   4.915  0.1239 -0.3168  0.8293
  943MOL0     C27196   9.250   9.337   4.791 -0.0124  0.5228  0.1985
  943MOL0     C27197   9.116   9.338   4.750  0.1200 -0.6435  0.2228
  943MOL0     C27198   9.087   9.300   4.602 -0.1509  0.6070 -0.0141
  943MOL0     C27199   9.023   9.395   4.839 -0.5201 -0.4614  0.5855
  943MOL0     C27200   8.895   9.451   4.793  0.2748  0.6953  0.2234
  943MOL0     O27201   8.795   9.454   4.891  0.5831  0.2147  0.1976
  943MOL0     C27202   8.669   9.510   4.868 -0.9997 -0.4188  0.3940
  943MOL0     C27203   8.644   9.626   4.803 -0.3670  0.6388  0.6621
  943MOL0     C27204   8.508   9.677   4.790 -0.8799  0.2934  0.1438
  943MOL0     C27205   8.404   9.603   4.843 -0.7484  0.0554 -0.1988
  943MOL0     O27206   8.274   9.639   4.829 -0.0010 -0.5092  0.0338
  943MOL0     C27207   8.232   9.779   4.821 -0.5776  0.4300 -0.2088
  943MOL0     C27208   8.080   9.784   4.827 -0.8485  0.0844 -1.0282
  943MOL0     C27209   8.027   9.748   4.972  0.9348  0.1270 -0.9524
  943MOL0     C27210   7.869   9.732   4.973 -0.0586  0.3596  0.7632
  943MOL0     C27211   7.790   9.760   5.102  0.1947 -0.6975 -0.4204
  943MOL0     C27212   7.641   9.734   5.083  0.0352 -0.4245 -0.6539
  943MOL0     C27213   7.569   9.732   5.219  0.7184  0.1436  0.4686
  943MOL0     C27214   7.419   9.744   5.214  0.6766  0.2579  0.6891
  943MOL0    Cl27215   7.365   9.581   5.137  0.0633  0.1934 -0.3276
  943MOL0     C27216   8.433   9.486   4.910  0.2302  0.2062  0.3213
  943MOL0     C27217   8.564   9.447   4.935  1.0037  0.4599 -0.9511
  943MOL0     O27218   8.880   9.481   4.678 -0.1096 -0.5280  0.1153
  943MOL0     C27219   9.060   9.436   4.970  0.4213  0.1577 -0.5785
  943MOL0     C27220   9.195   9.423   5.010  0.2383  0.4378  1.4086
  943MOL0     N27221   9.848   9.043   4.928 -0.4014 -0.0865  0.6796
  943MOL0     N27222   9.969   9.028   4.902  0.7543  0.7284 -1.2995
  943MOL0     C27223  10.636   8.786   5.956 -0.7349  0.8035 -0.1445
  943MOL0     C27224  10.767   8.792   6.012  0.1795 -0.0338 -0.0740
  943MOL0     C27225  11.186   8.823   6.150 -0.0785  0.1686  0.5322
  943MOL0     C27226  11.272   8.807   6.039  0.1217  0.0509  0.5427
  943MOL0     C27227  11.404   8.764   6.062 -0.5838  0.6130 -0.6817
  943MOL0     C27228  11.461   8.756   6.188  1.0523 -0.4718  0.3591
  943MOL0     O27229  11.588   8.713   6.192  0.1039  0.3441 -0.4618
  943MOL0     C27230  11.648   8.707   6.318  0.3189 -1.3625 -0.2531
  943MOL0     C27231  11.789   8.656   6.308 -0.1186  0.6465 -0.3606
  943MOL0     C27232  11.844   8.647   6.446  0.1787  0.0241 -0.4599
  943MOL0     C27233  11.999   8.626   6.449 -0.1754  0.6478  0.0164
  943MOL0     C27234  12.047   8.507   6.527 -0.4759 -0.2129  0.2627
  943MOL0     C27235  12.108   8.415   6.579  0.0309 -0.0798  0.6546
  943MOL0     C27236  11.380   8.791   6.294 -0.2432 -0.2287 -1.1267
  943MOL0     C27237  11.248   8.819   6.275 -0.4985 -0.6264  0.2537
  943MOL0     H27238  10.921   8.994   5.801  2.5216 -1.9557  1.8353
  943MOL0     H27239  10.704   8.974   5.680 -2.3906 -0.5200 -0.2839
  943MOL0     H27240  10.454   8.655   5.754 -3.1632 -0.7418  0.8409
  943MOL0     H27241  10.371   8.735   5.879  0.4336 -1.8982  0.8861
  943MOL0     H27242  10.196   8.717   5.712 -2.3518  2.3070 -0.5899
  943MOL0     H27243  10.257   8.879   5.714 -0.4323 -0.6872  2.0594
  943MOL0     H27244  10.414   8.732   5.528  0.0051  2.3391 -1.7620
  943MOL0     H27245  10.265   8.653   5.508  0.5231 -0.8725  0.4758
  943MOL0     H27246  10.156   8.891   5.475  1.3802  0.2213 -0.3519
  943MOL0     H27247  10.320   8.965   5.489  1.2234  0.1627 -1.1763
  943MOL0     H27248  10.393   8.864   5.288 -0.2295 -1.2757  0.7693
  943MOL0     H27249  10.258   8.756   5.278 -0.0323 -0.8105 -1.0031
  943MOL0     H27250  10.105   8.906   5.219  0.6419 -0.6930 -0.6764
  943MOL0     H27251  10.202   9.052   5.270  0.7560  0.1891 -0.2706
  943MOL0     H27252  10.362   8.992   5.095  0.1099 -0.0510 -0.6404
  943MOL0     H27253  10.271   8.874   5.024 -3.2029 -0.5246 -0.7633
  943MOL0     H27254  10.226   9.079   4.897 -0.6891  2.1374 -0.2873
  943MOL0     H27255  10.239   9.170   5.036  2.1004 -1.6952 -0.9876
  943MOL0     H27256   9.993   9.200   5.175 -2.4259  4.2970 -1.8959
  943MOL0     H27257   9.689   9.037   5.184  0.9408 -0.7961 -1.3144
  943MOL0     H27258   9.728   9.208   5.191  1.5034  1.4345 -2.3755
  943MOL0     H27259   9.504   9.188   5.078  1.5429  3.2352  0.8834
  943MOL0     H27260   9.580   9.086   4.955  2.1321 -0.7498 -0.2511
  943MOL0     H27261   9.729   9.265   4.878  1.3959 -2.6544  2.5015
  943MOL0     H27262   9.686   9.374   5.005 -0.7520  0.0150  0.7665
  943MOL0     H27263   9.506   9.270   4.786  0.8137  1.5062 -1.2841
  943MOL0     H27264   9.546   9.436   4.812 -0.5749  0.1832 -1.8389
  943MOL0     H27265   9.307   9.304   4.706 -3.2683 -1.8427 -1.2685
  943MOL0     H27266   9.121   9.373   4.528  2.9844 -0.2291  0.4366
  943MOL0     H27267   9.141   9.210   4.570  2.1386  1.3753  1.4628
  943MOL0     H27268   8.979   9.287   4.590  0.0016 -0.3028 -0.5504
  943MOL0     H27269   8.721   9.689   4.758 -0.2465  0.0341  0.0104
  943MOL0     H27270   8.485   9.765   4.730  1.5142  1.9039  1.4037
  943MOL0     H27271   8.277   9.833   4.905  1.5549 -0.3323 -0.8056
  943MOL0     H27272   8.263   9.812   4.722  1.0646 -3.3901 -1.1453
  943MOL0     H27273   8.040   9.884   4.814 -2.2720  0.1210  2.4544
  943MOL0     H27274   8.032   9.722   4.751 -4.2501  0.8003  0.3814
  943MOL0     H27275   8.058   9.824   5.044  1.3439 -1.6786  0.8826
  943MOL0     H27276   8.068   9.651   5.003 -0.0898  0.4291  1.6549
  943MOL0     H27277   7.832   9.799   4.895  0.4169  0.4719  0.6313
  943MOL0     H27278   7.836   9.629   4.956 -1.3211  0.6935  1.1062
  943MOL0     H27279   7.813   9.857   5.146  0.1003 -0.7021 -0.3583
  943MOL0     H27280   7.825   9.691   5.179  0.7231  0.4999  0.4331
  943MOL0     H27281   7.592   9.813   5.026  0.0467  1.6354  2.0064
  943MOL0     H27282   7.627   9.637   5.034 -3.8513 -0.0792 -0.5109
  943MOL0     H27283   7.598   9.809   5.292  4.0644 -1.1194  0.6681
  943MOL0     H27284   7.595   9.637   5.267 -0.0420 -0.0186  0.5623
  943MOL0     H27285   7.383   9.821   5.146 -0.3775 -1.9938 -1.4272
  943MOL0     H27286   7.379   9.753   5.316  1.8453  2.2813  1.0277
  943MOL0     H27287   8.355   9.419   4.946  0.3657  0.5344  1.2707
  943MOL0     H27288   8.591   9.356   4.988 -0.7936 -0.1564 -1.0236
  943MOL0     H27289   8.981   9.476   5.033 -0.0622  0.8155 -1.5886
  943MOL0     H27290   9.224   9.435   5.114 -1.0350 -1.5085  2.0356
  943MOL0     H27291  10.548   8.738   5.998 -1.9798  2.7126 -0.4392
  943MOL0     H27292  10.790   8.733   6.099  0.2943 -0.7755 -0.5968
  943MOL0     H27293  11.234   8.811   5.938 -0.7450  1.0641  0.8871
  943MOL0     H27294  11.466   8.746   5.974  0.3594 -0.2133  0.1289
  943MOL0     H27295  11.663   8.807   6.358 -1.7917 -0.8632 -0.6288
  943MOL0     H27296  11.588   8.645   6.386  1.6999  1.0295  3.4867
  943MOL0     H27297  11.851   8.726   6.252  2.0992  0.1722  1.3499
  943MOL0     H27298  11.786   8.556   6.264 -1.5534  1.1797 -1.5656
  943MOL0     H27299  11.792   8.562   6.492  0.7532 -0.5390 -0.8373
  943MOL0     H27300  11.813   8.729   6.511  0.6579 -0.6494  0.6429
  943MOL0     H27301  12.044   8.717   6.489 -1.9766  1.7851 -0.4314
  943MOL0     H27302  12.036   8.607   6.348 -0.2533 -0.4098  0.1820
  943MOL0     H27303  12.151   8.327   6.624  0.2669 -0.2826  0.0477
  943MOL0     H27304  11.427   8.782   6.391 -1.6310 -2.7238 -0.5884
  943MOL0     H27305  11.192   8.834   6.367  0.0686 -1.1876  0.6995
  944MOL0     O27306   6.940  10.644  10.994 -0.8330 -0.6467 -0.2060
  944MOL0     C27307   6.964  10.750  11.052  0.1001 -0.2297  0.2385
  944MOL0     O27308   7.087  10.792  11.080  0.2538 -0.1215  0.0064
  944MOL0     C27309   7.200  10.725  11.045  0.8288  0.1343  0.5777
  944MOL0     C27310   7.210  10.589  11.031  0.0169 -0.5010  0.4240
  944MOL0     C27311   7.339  10.533  10.999 -0.5584 -0.4043 -0.1067
  944MOL0     C27312   7.451  10.616  10.985  0.3675 -0.0471  0.3873
  944MOL0     O27313   7.575  10.560  10.950  0.4978 -0.5687  0.2962
  944MOL0     C27314   7.630  10.471  11.045 -0.8200 -0.0173 -0.5469
  944MOL0     C27315   7.689  10.553  11.152 -0.3264 -0.1504  0.2143
  944MOL0     C27316   7.834  10.597  11.107 -0.4586 -0.5159 -0.3401
  944MOL0     C27317   7.927  10.619  11.229  0.8416  0.3757  0.3785
  944MOL0     C27318   8.068  10.662  11.192  0.2104 -0.0201 -0.1613
  944MOL0     C27319   8.151  10.702  11.323  0.2389 -0.4691 -0.3984
  944MOL0     C27320   8.300  10.736  11.285  0.6205 -0.5976 -0.3058
  944MOL0     C27321   8.392  10.765  11.402  0.0470 -0.5045 -0.4014
  944MOL0     N27322   8.401  10.653  11.500 -0.3582 -0.5915 -0.5074
  944MOL0     C27323   8.453  10.536  11.449 -0.3702  0.3270 -0.4099
  944MOL0     C27324   8.410  10.439  11.535  0.8074 -0.7510  0.0505
  944MOL0     C27325   8.395  10.289  11.503 -0.1856 -1.0758  0.1955
  944MOL0     C27326   8.256  10.268  11.448 -0.2651 -0.1096  0.0901
  944MOL0     C27327   8.244  10.322  11.300 -0.2432  0.0562  0.3854
  944MOL0     C27328   8.123  10.262  11.228 -0.1916  0.0626 -0.4591
  944MOL0     O27329   8.006  10.269  11.308  0.2210  0.2387  0.7146
  944MOL0     C27330   7.886  10.212  11.257 -0.3583  0.6240  1.0075
  944MOL0     C27331   7.855  10.176  11.126  0.5224 -0.2798 -1.0048
  944MOL0     C27332   7.732  10.126  11.090  0.5583 -0.6456 -0.2940
  944MOL0     C27333   7.704  10.099  10.943 -0.2585  0.3388 -0.9619
  944MOL0     C27334   7.634  10.120  11.191  0.4284 -0.1362 -0.3380
  944MOL0     C27335   7.488  10.085  11.165 -0.2793  0.4783  0.1274
  944MOL0     O27336   7.435   9.983  11.240 -0.4470  0.2664 -0.4140
  944MOL0     C27337   7.308   9.938  11.222  0.1498  1.2180 -0.2005
  944MOL0     C27338   7.205  10.003  11.155  1.1215 -0.3562  1.1997
  944MOL0     C27339   7.083   9.931  11.135  0.4402 -0.0098  0.8220
  944MOL0     C27340   7.064   9.799  11.185 -0.0277  0.0040  0.3204
  944MOL0     O27341   6.942   9.739  11.156 -0.1069  0.4529  0.0774
  944MOL0     C27342   6.933   9.599  11.181 -0.6852  0.0574  0.6008
  944MOL0     C27343   6.798   9.575  11.134 -0.6159  0.2417  0.6560
  944MOL0     C27344   6.696   9.605  11.242  0.6335 -0.1482  0.0371
  944MOL0     C27345   6.559   9.620  11.181 -0.2675 -0.8570 -0.9794
  944MOL0     C27346   6.460   9.645  11.293  0.9120 -0.5112 -0.5209
  944MOL0     C27347   6.321   9.677  11.240  0.1735 -0.8743  0.0387
  944MOL0     C27348   6.238   9.727  11.360  0.7185 -0.6076 -0.5750
  944MOL0     C27349   6.091   9.740  11.321  1.2233 -0.2008  0.3038
  944MOL0    Cl27350   6.026   9.866  11.431 -0.0410  0.0205 -0.0278
  944MOL0     C27351   7.164   9.749  11.261 -0.5621  0.3761 -0.7584
  944MOL0     C27352   7.282   9.815  11.284 -0.0103 -0.2778  0.3906
  944MOL0     O27353   7.434  10.150  11.073 -0.1120  0.6416  0.2225
  944MOL0     C27354   7.665  10.159  11.320  0.9340 -0.1633  1.3878
  944MOL0     C27355   7.794  10.202  11.347 -0.0717  0.7744 -0.0533
  944MOL0     N27356   8.343  10.503  11.638  0.2676 -0.9848  0.4048
  944MOL0     N27357   8.346  10.633  11.618 -0.0286 -1.0295  0.1997
  944MOL0     C27358   7.441  10.753  10.991 -0.8346 -0.2195 -0.4851
  944MOL0     C27359   7.320  10.801  11.035  0.1725  0.5199  0.6328
  944MOL0     C27360   6.851  10.821  11.121  0.0179  0.1441  0.2841
  944MOL0     C27361   6.721  10.777  11.094  1.1411  0.0319  0.6191
  944MOL0     C27362   6.615  10.845  11.156 -0.5306 -0.0824  0.0401
  944MOL0     C27363   6.640  10.955  11.245 -0.4059  0.1173 -0.3909
  944MOL0     O27364   6.533  10.993  11.323  0.1731  0.1310 -0.3423
  944MOL0     C27365   6.540  11.109  11.404 -0.5392 -0.4592  0.6158
  944MOL0     C27366   6.584  11.064  11.547  0.2702  0.9975 -0.0618
  944MOL0     C27367   6.518  11.154  11.657 -0.8671  0.4864 -0.3798
  944MOL0     C27368   6.568  11.105  11.796 -0.2624  0.1284  0.1305
  944MOL0     C27369   6.533  10.967  11.838  0.0846 -0.5533 -0.4606
  944MOL0     C27370   6.520  10.850  11.877  0.5491  0.0515  0.2307
  944MOL0     C27371   6.772  11.002  11.264  0.0026  0.3627 -0.8023
  944MOL0     C27372   6.875  10.933  11.204 -0.6576  0.7656  0.5024
  944MOL0     H27373   7.136  10.509  11.034  1.6117 -2.0548  0.0812
  944MOL0     H27374   7.348  10.426  10.983  1.1834 -0.2362 -0.4907
  944MOL0     H27375   7.550  10.412  11.090 -1.2714  1.4542  0.6499
  944MOL0     H27376   7.704  10.401  11.005  0.5411  0.7729  0.4684
  944MOL0     H27377   7.631  10.643  11.179 -1.0560 -0.7356  0.6409
  944MOL0     H27378   7.696  10.493  11.243  3.7496  0.7475  0.6787
  944MOL0     H27379   7.875  10.526  11.035 -0.3497  0.5792 -1.3921
  944MOL0     H27380   7.826  10.699  11.070 -3.1593  0.6535  2.9127
  944MOL0     H27381   7.875  10.678  11.305 -3.6016 -2.9284  0.3371
  944MOL0     H27382   7.933  10.519  11.273  1.4885 -0.2952 -1.1396
  944MOL0     H27383   8.124  10.583  11.141  2.5489  2.4823 -1.7446
  944MOL0     H27384   8.066  10.747  11.123 -2.0387  1.1599  1.2012
  944MOL0     H27385   8.095  10.784  11.367 -3.0818 -2.0064 -1.4153
  944MOL0     H27386   8.148  10.614  11.388 -0.1097 -1.1286 -1.2873
  944MOL0     H27387   8.342  10.658  11.221  0.0693 -1.8799  0.8472
  944MOL0     H27388   8.301  10.829  11.227  2.7884 -1.9250 -2.5958
  944MOL0     H27389   8.351  10.847  11.461  0.9155 -1.7292  2.0264
  944MOL0     H27390   8.492  10.793  11.368  0.5470 -2.5510 -0.7727
  944MOL0     H27391   8.514  10.513  11.362  0.3497  0.6575 -0.0061
  944MOL0     H27392   8.473  10.259  11.433  0.6603 -0.7607  0.9764
  944MOL0     H27393   8.403  10.238  11.600  0.8750  0.6818  1.0911
  944MOL0     H27394   8.188  10.313  11.521 -1.5662  1.7581 -2.1622
  944MOL0     H27395   8.243  10.159  11.452 -0.6365 -0.1166 -1.0782
  944MOL0     H27396   8.330  10.315  11.233  0.1651 -1.7093  1.0132
  944MOL0     H27397   8.235  10.429  11.319  2.5226  0.5593 -0.6410
  944MOL0     H27398   8.140  10.154  11.218  0.9854  0.0287  1.4046
  944MOL0     H27399   8.100  10.309  11.132 -0.0892 -0.9953 -1.0218
  944MOL0     H27400   7.931  10.190  11.050  3.0299  0.4815  1.4473
  944MOL0     H27401   7.636  10.014  10.942  1.1186 -1.2780  4.9432
  944MOL0     H27402   7.670  10.188  10.888  1.5170  0.6802 -1.5683
  944MOL0     H27403   7.797  10.057  10.905 -0.6964 -1.6176 -0.0037
  944MOL0     H27404   7.201  10.099  11.105  0.0758 -0.8448  0.2798
  944MOL0     H27405   6.998   9.971  11.080 -1.8559 -1.1841  3.2533
  944MOL0     H27406   6.996   9.544  11.110  0.6952 -0.5494  2.2436
  944MOL0     H27407   6.953   9.578  11.287 -0.2624  4.4017  1.5554
  944MOL0     H27408   6.788   9.627  11.039  4.4957 -0.0852 -0.3661
  944MOL0     H27409   6.778   9.469  11.116 -0.0719  0.2449  0.0087
  944MOL0     H27410   6.734   9.698  11.287  1.6782  0.2028 -1.4725
  944MOL0     H27411   6.705   9.520  11.309 -1.1842  0.4584  1.1226
  944MOL0     H27412   6.551   9.710  11.120 -0.3107  0.5868  1.0671
  944MOL0     H27413   6.536   9.531  11.121  3.0375 -4.1044  2.0503
  944MOL0     H27414   6.502   9.729  11.349  1.3463  0.0389 -1.6545
  944MOL0     H27415   6.450   9.554  11.353 -1.6651  0.6657  1.0591
  944MOL0     H27416   6.325   9.757  11.166  0.9862  0.0384  1.0235
  944MOL0     H27417   6.273   9.593  11.189 -1.2968  0.2102 -0.4269
  944MOL0     H27418   6.276   9.821  11.400 -0.0924 -0.2794 -0.5476
  944MOL0     H27419   6.240   9.658  11.445 -1.5339 -1.0464 -0.8210
  944MOL0     H27420   6.035   9.649  11.346  1.1236 -0.6426 -1.4024
  944MOL0     H27421   6.088   9.773  11.217  0.4768  3.7387  1.4178
  944MOL0     H27422   7.154   9.656  11.315 -0.8113 -0.1354 -1.6756
  944MOL0     H27423   7.358   9.781  11.353 -0.6738 -0.7830  0.8875
  944MOL0     H27424   7.590  10.153  11.398  0.5268 -2.3786  0.8951
  944MOL0     H27425   7.825  10.226  11.448 -3.7209 -2.2987  2.0370
  944MOL0     H27426   7.528  10.813  10.966 -1.1816  0.2581 -0.5561
  944MOL0     H27427   7.308  10.909  11.043 -0.1078  0.5880 -0.4564
  944MOL0     H27428   6.696  10.697  11.025  1.9505 -0.7844  1.2323
  944MOL0     H27429   6.513  10.817  11.132  0.5213 -5.3623  0.3962
  944MOL0     H27430   6.598  11.190  11.359 -0.4807 -0.2584  1.0431
  944MOL0     H27431   6.438  11.148  11.400 -2.3483 -4.7001 -0.3095
  944MOL0     H27432   6.693  11.078  11.549  1.0591 -3.5986 -0.4520
  944MOL0     H27433   6.563  10.958  11.559  3.2234  0.3163 -0.2265
  944MOL0     H27434   6.412  11.132  11.644 -1.0489 -0.1293  1.7871
  944MOL0     H27435   6.542  11.259  11.637 -0.9483  0.4557 -0.6359
  944MOL0     H27436   6.518  11.171  11.868 -1.7066 -3.4606  2.7329
  944MOL0     H27437   6.677  11.109  11.796 -0.1377 -1.8823 -1.5081
  944MOL0     H27438   6.508  10.744  11.888  2.3433 -0.4280 -1.6838
  944MOL0     H27439   6.796  11.082  11.333  0.6529 -1.0662  0.7083
  944MOL0     H27440   6.978  10.966  11.204 -0.4500  0.1974  2.1689
  945MOL0     O27441   1.208   5.036   7.167 -0.9061 -0.3344  0.3533
  945MOL0     C27442   1.257   5.121   7.087 -0.0737  0.6233 -0.3022
  945MOL0     O27443   1.194   5.208   7.010 -0.2143 -0.0448 -0.0331
  945MOL0     C27444   1.061   5.221   7.038  0.6962 -0.4180  1.2575
  945MOL0     C27445   0.965   5.131   7.011 -0.4354 -0.0171  0.6000
  945MOL0     C27446   0.832   5.149   7.047 -0.8636  0.2198 -1.6714
  945MOL0     C27447   0.793   5.267   7.120  0.7106  0.5334 -0.1038
  945MOL0     O27448   0.663   5.299   7.150 -0.5329 -0.0169  0.8514
  945MOL0     C27449   0.548   5.252   7.087 -0.0417 -0.3044 -0.0874
  945MOL0     C27450   0.424   5.339   7.122 -0.6327  0.5152  0.0280
  945MOL0     C27451   0.302   5.261   7.074 -0.1471  0.4224 -0.2311
  945MOL0     C27452   0.178   5.351   7.057 -0.0647  0.5168 -1.1440
  945MOL0     C27453   0.124   5.389   7.202 -0.6787  0.5464 -0.2826
  945MOL0     C27454   0.025   5.504   7.193 -0.4412  0.7955  0.4557
  945MOL0     C27455  -0.018   5.560   7.324 -1.0394 -0.1376  0.0917
  945MOL0     C27456  -0.120   5.472   7.396 -0.0043  0.5870 -0.1399
  945MOL0     N27457  -0.254   5.451   7.336  0.1102 -0.2118  0.1353
  945MOL0     C27458  -0.299   5.344   7.260  0.4135  0.0900 -0.2581
  945MOL0     C27459  -0.430   5.394   7.234  0.1036  0.3506  0.7064
  945MOL0     C27460  -0.541   5.329   7.146  0.0316  0.0179  0.9407
  945MOL0     C27461  -0.684   5.359   7.193  0.5929 -0.0105  0.4117
  945MOL0     C27462  -0.759   5.226   7.214  1.3212  0.4828  0.0666
  945MOL0     C27463  -0.907   5.237   7.228 -0.3380 -1.0737  0.2669
  945MOL0     O27464  -0.966   5.116   7.261 -0.4125  0.2733 -0.2986
  945MOL0     C27465  -1.101   5.119   7.288  0.2801 -0.1557 -0.1654
  945MOL0     C27466  -1.181   5.242   7.278  0.4337 -0.3656 -1.0187
  945MOL0     C27467  -1.314   5.242   7.306 -0.1547  1.0759 -0.5753
  945MOL0     C27468  -1.386   5.376   7.302 -0.2881  0.7320 -0.4655
  945MOL0     C27469  -1.376   5.123   7.339 -0.1962 -0.4546 -0.7693
  945MOL0     C27470  -1.524   5.114   7.376  0.1897 -0.5016  0.7743
  945MOL0     O27471  -1.614   5.170   7.301 -0.4450 -0.1727 -0.1334
  945MOL0     C27472  -1.742   5.183   7.340  0.4600 -0.0161 -0.4974
  945MOL0     C27473  -1.849   5.138   7.261  0.9705 -0.2623  0.5389
  945MOL0     C27474  -1.982   5.169   7.309  0.0182 -0.7182  0.0694
  945MOL0     C27475  -2.001   5.231   7.442 -0.1817  0.3914 -0.5451
  945MOL0     O27476  -2.117   5.234   7.512  0.5074 -1.4962  0.2770
  945MOL0     C27477  -2.232   5.204   7.428  0.6351 -0.1756  0.5783
  945MOL0     C27478  -2.367   5.205   7.510  0.1467  0.2116 -0.0474
  945MOL0     C27479  -2.398   5.354   7.541 -0.7000  0.2076  0.7084
  945MOL0     C27480  -2.522   5.366   7.643 -0.0990  0.6698  0.2426
  945MOL0     C27481  -2.657   5.339   7.569 -0.2770  0.2533 -0.5074
  945MOL0     C27482  -2.766   5.324   7.677 -1.0817 -0.3620  0.2547
  945MOL0     C27483  -2.901   5.287   7.627  0.5289  0.0020  0.3137
  945MOL0     C27484  -3.016   5.307   7.716 -0.2308 -0.2972 -0.8400
  945MOL0    Cl27485  -2.989   5.216   7.875 -0.2075 -0.2473  0.2793
  945MOL0     C27486  -1.888   5.274   7.510  0.3271  0.3125 -0.3649
  945MOL0     C27487  -1.764   5.258   7.455  0.0591  0.8656  0.1227
  945MOL0     O27488  -1.549   5.044   7.474  0.2521 -0.1686  0.3263
  945MOL0     C27489  -1.300   4.997   7.341  0.5278 -0.6065 -0.2677
  945MOL0     C27490  -1.162   5.001   7.324  0.2456  0.4193 -0.3281
  945MOL0     N27491  -0.453   5.520   7.285  0.3519 -0.2614  0.0269
  945MOL0     N27492  -0.349   5.554   7.347 -0.8271  0.4800  0.1336
  945MOL0     C27493   0.886   5.360   7.148 -1.2090 -0.0588  0.4781
  945MOL0     C27494   1.024   5.332   7.112  0.6237  0.0178 -0.6283
  945MOL0     C27495   1.403   5.123   7.100  0.0108  0.2291  0.3414
  945MOL0     C27496   1.483   5.022   7.156  1.0111  0.7281  0.3220
  945MOL0     C27497   1.624   5.035   7.163 -0.7145  0.4865 -0.4912
  945MOL0     C27498   1.694   5.147   7.118 -0.6306  0.8651 -0.6331
  945MOL0     O27499   1.837   5.154   7.138 -0.1712 -0.0874  0.0980
  945MOL0     C27500   1.904   5.267   7.086 -0.3438 -0.0590  0.1906
  945MOL0     C27501   2.059   5.264   7.094 -0.1394 -0.4656  0.3091
  945MOL0     C27502   2.097   5.140   7.016  0.4489  0.8409  0.1904
  945MOL0     C27503   2.244   5.156   6.988 -0.3807  0.8903 -1.0634
  945MOL0     C27504   2.293   5.044   6.897  0.8727 -0.2112 -0.9620
  945MOL0     C27505   2.310   4.962   6.809 -0.5806 -0.5988  0.3100
  945MOL0     C27506   1.613   5.253   7.064 -0.1809 -0.6458 -0.0340
  945MOL0     C27507   1.477   5.236   7.050  0.1411  0.5207 -1.0911
  945MOL0     H27508   0.987   5.038   6.960 -3.5504 -0.0501 -0.9182
  945MOL0     H27509   0.758   5.072   7.028 -0.6885 -0.2398 -0.5604
  945MOL0     H27510   0.549   5.255   6.978 -1.1325 -0.2446 -0.1001
  945MOL0     H27511   0.540   5.147   7.117 -2.9793  0.1966  1.2765
  945MOL0     H27512   0.427   5.375   7.226  1.8337  0.5131  0.0341
  945MOL0     H27513   0.434   5.421   7.050 -0.6867 -1.7858 -2.8009
  945MOL0     H27514   0.319   5.212   6.978  1.9818  1.4284 -0.4119
  945MOL0     H27515   0.268   5.184   7.143  0.5236  1.4535  1.2853
  945MOL0     H27516   0.195   5.441   6.997  0.5567  0.4411 -1.0888
  945MOL0     H27517   0.106   5.283   7.011  0.4632 -0.6111 -0.3478
  945MOL0     H27518   0.084   5.294   7.239  2.9189 -0.7639  0.5911
  945MOL0     H27519   0.207   5.427   7.262 -0.6066  0.4015 -0.2919
  945MOL0     H27520   0.078   5.585   7.141 -0.9187  0.6444 -0.2878
  945MOL0     H27521  -0.064   5.473   7.138 -1.1187  0.8813  1.4877
  945MOL0     H27522   0.068   5.596   7.381 -0.4907  3.6848 -2.7272
  945MOL0     H27523  -0.076   5.651   7.308  0.2052  0.6050 -0.2954
  945MOL0     H27524  -0.147   5.509   7.496 -2.3041  0.9834 -0.8459
  945MOL0     H27525  -0.071   5.375   7.408 -0.9584 -0.0604 -1.2147
  945MOL0     H27526  -0.259   5.246   7.235 -0.9660 -0.5672  0.0075
  945MOL0     H27527  -0.530   5.354   7.040  0.1937 -3.3926  0.0159
  945MOL0     H27528  -0.536   5.220   7.149  3.8740 -0.1050 -2.2260
  945MOL0     H27529  -0.739   5.426   7.126 -0.8881 -0.8144  0.7714
  945MOL0     H27530  -0.692   5.402   7.293 -0.5301 -0.3197  0.4639
  945MOL0     H27531  -0.712   5.164   7.291 -0.3032  0.0339  0.7485
  945MOL0     H27532  -0.755   5.181   7.114  0.8511  2.0638 -0.6982
  945MOL0     H27533  -0.944   5.271   7.131  0.6181  2.3753  0.9476
  945MOL0     H27534  -0.929   5.313   7.304 -0.2492 -1.7286  0.9585
  945MOL0     H27535  -1.140   5.337   7.244  0.4804 -1.6298 -4.9579
  945MOL0     H27536  -1.461   5.370   7.223 -0.8481 -0.1469  0.1185
  945MOL0     H27537  -1.440   5.399   7.394 -0.6281  0.3385 -0.5610
  945MOL0     H27538  -1.326   5.465   7.280 -0.8220  0.9717 -0.9801
  945MOL0     H27539  -1.830   5.103   7.160  0.0249 -1.5153  0.7795
  945MOL0     H27540  -2.068   5.142   7.247  0.0061 -0.1090 -0.1845
  945MOL0     H27541  -2.239   5.278   7.347 -0.5422  0.4069  1.1886
  945MOL0     H27542  -2.218   5.105   7.384  2.7607  0.2397  0.2265
  945MOL0     H27543  -2.450   5.169   7.449  0.7989 -0.2033 -0.6992
  945MOL0     H27544  -2.360   5.146   7.602 -3.4517  0.1988  0.3581
  945MOL0     H27545  -2.422   5.412   7.452 -3.1962 -2.2416 -0.3654
  945MOL0     H27546  -2.309   5.401   7.584 -0.1962  0.2168 -0.3051
  945MOL0     H27547  -2.518   5.296   7.727 -1.6371  1.0752  0.6789
  945MOL0     H27548  -2.522   5.469   7.680 -0.3604  1.2778 -1.3766
  945MOL0     H27549  -2.659   5.243   7.516 -1.8315  0.6626 -1.2494
  945MOL0     H27550  -2.678   5.424   7.504  0.3921  0.1492 -0.8703
  945MOL0     H27551  -2.738   5.254   7.757 -0.9390 -1.1892 -0.5058
  945MOL0     H27552  -2.774   5.425   7.719  1.1413 -0.2612  0.5697
  945MOL0     H27553  -2.909   5.180   7.604 -1.6891  0.1697  0.1108
  945MOL0     H27554  -2.924   5.354   7.544 -0.0895  0.1679  0.6105
  945MOL0     H27555  -3.106   5.280   7.661 -2.2890  1.2348  1.5587
  945MOL0     H27556  -3.030   5.413   7.742 -0.2239 -0.0924 -1.6550
  945MOL0     H27557  -1.905   5.309   7.611 -1.7765 -1.3547 -0.0735
  945MOL0     H27558  -1.678   5.302   7.504  1.4190  1.2649 -2.4292
  945MOL0     H27559  -1.353   4.914   7.386  1.2215  0.5362  2.9435
  945MOL0     H27560  -1.099   4.914   7.336  0.0975  0.1680 -1.3180
  945MOL0     H27561   0.870   5.452   7.203  0.8993  1.1843 -0.8530
  945MOL0     H27562   1.105   5.402   7.134 -0.3159  0.9459 -0.0712
  945MOL0     H27563   1.436   4.931   7.192 -0.3978  2.5018  3.3647
  945MOL0     H27564   1.687   4.966   7.219  2.3331  2.1760 -1.5699
  945MOL0     H27565   1.866   5.292   6.987 -0.9134 -2.7594 -0.3459
  945MOL0     H27566   1.883   5.355   7.147  1.3202  1.0141 -0.6962
  945MOL0     H27567   2.093   5.254   7.198  0.1034 -1.0164  0.1759
  945MOL0     H27568   2.108   5.356   7.061 -0.3968 -0.1123  0.8838
  945MOL0     H27569   2.049   5.125   6.919 -1.3840 -2.8392  1.4717
  945MOL0     H27570   2.075   5.047   7.070  0.2226 -0.0068 -1.2947
  945MOL0     H27571   2.291   5.148   7.086 -1.2424  1.2476 -0.6126
  945MOL0     H27572   2.268   5.255   6.947 -2.8160  2.1860  0.4383
  945MOL0     H27573   2.338   4.885   6.740  1.0867 -0.2500  0.5583
  945MOL0     H27574   1.667   5.334   7.016 -0.4161  0.2501  1.1540
  945MOL0     H27575   1.423   5.319   7.005 -0.4164  0.3866 -0.6705
  946MOL0     O27576   9.110   6.003   1.163  0.2018 -0.0104  0.2321
  946MOL0     C27577   9.190   5.913   1.180  0.1306  0.4376 -0.5671
  946MOL0     O27578   9.160   5.785   1.161  0.1525 -0.4170  0.2158
  946MOL0     C27579   9.056   5.750   1.078 -0.6032  1.0231 -0.2135
  946MOL0     C27580   9.076   5.729   0.946  0.5795  0.8291  0.1932
  946MOL0     C27581   8.973   5.689   0.857  0.2770  0.8403  0.2145
  946MOL0     C27582   8.843   5.664   0.909  0.4274  0.3166  0.3233
  946MOL0     O27583   8.758   5.611   0.818  0.2222  0.7702  0.0441
  946MOL0     C27584   8.622   5.579   0.860 -0.0874 -0.2563 -0.1251
  946MOL0     C27585   8.549   5.468   0.781  0.3992 -0.4190 -0.5522
  946MOL0     C27586   8.625   5.340   0.794 -0.0842  0.9520  0.2459
  946MOL0     C27587   8.564   5.219   0.735  0.4098 -0.3680  0.4631
  946MOL0     C27588   8.653   5.091   0.750 -0.0423 -0.1800  0.1639
  946MOL0     C27589   8.573   4.970   0.704 -0.3082 -0.2256  0.0875
  946MOL0     C27590   8.663   4.841   0.681  0.5855 -1.0072 -0.5222
  946MOL0     C27591   8.579   4.735   0.603  0.6278 -0.6940  1.3246
  946MOL0     N27592   8.455   4.685   0.666 -0.0363 -0.0864  0.0646
  946MOL0     C27593   8.458   4.579   0.754 -0.4387  0.5913  0.0875
  946MOL0     C27594   8.332   4.575   0.799 -0.0967 -0.8931 -0.9514
  946MOL0     C27595   8.281   4.476   0.897 -0.4256  0.2429 -0.1158
  946MOL0     C27596   8.145   4.422   0.856  0.2531  0.2394  0.1036
  946MOL0     C27597   8.085   4.350   0.980 -0.0506 -0.0073  0.4034
  946MOL0     C27598   7.937   4.306   0.955  0.0145  0.5588  0.0217
  946MOL0     O27599   7.853   4.420   0.926  0.3751 -0.6884 -0.5391
  946MOL0     C27600   7.750   4.402   0.830 -0.0320  0.8809 -0.0113
  946MOL0     C27601   7.699   4.277   0.794  0.2492 -0.3883 -0.3780
  946MOL0     C27602   7.604   4.266   0.692 -0.2026 -0.4520  1.3211
  946MOL0     C27603   7.570   4.127   0.633  0.7306 -0.4618 -0.1182
  946MOL0     C27604   7.542   4.384   0.637 -0.0666 -0.3506 -0.2896
  946MOL0     C27605   7.452   4.384   0.525 -0.0618  0.3610  0.6056
  946MOL0     O27606   7.463   4.490   0.440 -0.1759  0.3555 -0.1169
  946MOL0     C27607   7.356   4.508   0.354  0.6660 -0.6649 -0.3337
  946MOL0     C27608   7.381   4.507   0.220  0.3675 -0.3479  0.0992
  946MOL0     C27609   7.274   4.525   0.131  0.2352 -0.2130 -0.1032
  946MOL0     C27610   7.145   4.550   0.177 -1.2260 -0.0907 -0.0993
  946MOL0     O27611   7.049   4.585   0.080  0.0995 -0.3187  0.0384
  946MOL0     C27612   6.948   4.679   0.103  0.0778 -0.3614  0.0085
  946MOL0     C27613   6.917   4.729  -0.028 -0.3919  0.3864 -0.4053
  946MOL0     C27614   6.840   4.628  -0.117  0.1573 -0.2549  0.2782
  946MOL0     C27615   6.809   4.677  -0.258  0.1854 -0.1020 -0.4733
  946MOL0     C27616   6.716   4.576  -0.337  0.6610 -0.2945  1.2401
  946MOL0     C27617   6.572   4.567  -0.276  0.0139  0.4434  0.5193
  946MOL0     C27618   6.477   4.496  -0.365 -0.6627 -0.7732  0.4861
  946MOL0     C27619   6.530   4.360  -0.390  0.4459 -0.5511  0.5457
  946MOL0    Cl27620   6.408   4.259  -0.475 -0.2025  0.0142  0.1755
  946MOL0     C27621   7.118   4.546   0.314  0.1907  0.0906 -0.0875
  946MOL0     C27622   7.223   4.530   0.408 -0.6826  0.0557  0.8063
  946MOL0     O27623   7.356   4.306   0.527  0.7647 -0.2394 -0.3097
  946MOL0     C27624   7.587   4.508   0.686 -0.2102 -0.1067  0.3557
  946MOL0     C27625   7.694   4.520   0.779  0.4681 -0.3230  0.8437
  946MOL0     N27626   8.264   4.690   0.754  0.1985  0.1533  0.5622
  946MOL0     N27627   8.341   4.756   0.677 -0.1915  0.1070 -0.5521
  946MOL0     C27628   8.823   5.674   1.051  0.1820  0.9916 -0.1493
  946MOL0     C27629   8.930   5.712   1.137  1.1626 -0.3725  0.5646
  946MOL0     C27630   9.328   5.946   1.232 -0.0735 -1.2608 -0.3539
  946MOL0     C27631   9.353   6.069   1.285 -0.1068  0.0962 -0.0722
  946MOL0     C27632   9.473   6.105   1.352 -0.1090  0.0580  0.4187
  946MOL0     C27633   9.574   6.010   1.373  0.1712 -0.2374  0.2730
  946MOL0     O27634   9.695   6.026   1.433  0.2465 -0.6418  0.1520
  946MOL0     C27635   9.753   6.153   1.394 -0.7153  0.4596 -0.1674
  946MOL0     C27636   9.909   6.146   1.418  0.1679 -0.1880  0.2431
  946MOL0     C27637   9.943   6.127   1.573  0.6044 -0.4906  0.3558
  946MOL0     C27638  10.087   6.076   1.596  1.1406  0.0329  0.5539
  946MOL0     C27639  10.196   6.156   1.539  0.0158  0.0885 -0.3899
  946MOL0     C27640  10.272   6.242   1.497 -0.5134  0.3300 -0.6155
  946MOL0     C27641   9.550   5.881   1.331  0.2466  0.2707 -0.1823
  946MOL0     C27642   9.425   5.852   1.260 -0.4079 -0.3078  0.9132
  946MOL0     H27643   9.178   5.741   0.910  0.0291 -2.0719 -2.7791
  946MOL0     H27644   8.988   5.660   0.754 -1.0294 -1.5322  0.6185
  946MOL0     H27645   8.608   5.555   0.966 -0.7415  2.5639  0.4936
  946MOL0     H27646   8.561   5.669   0.848  3.9444  2.3922 -2.8708
  946MOL0     H27647   8.454   5.449   0.831  1.3920 -0.2279  1.5328
  946MOL0     H27648   8.536   5.500   0.677 -0.9023 -2.3905 -1.0418
  946MOL0     H27649   8.715   5.358   0.736 -0.1967 -1.5025 -0.8123
  946MOL0     H27650   8.665   5.314   0.893  2.3857  0.9416 -0.7035
  946MOL0     H27651   8.465   5.201   0.777 -1.6051  1.4411 -3.0794
  946MOL0     H27652   8.541   5.233   0.629  2.0615 -2.2148 -0.2151
  946MOL0     H27653   8.748   5.099   0.697 -1.5174 -1.9777 -3.1178
  946MOL0     H27654   8.688   5.076   0.852  2.9037  4.8990  0.1762
  946MOL0     H27655   8.489   4.940   0.767 -1.1718  0.7024 -0.5824
  946MOL0     H27656   8.535   4.977   0.602 -1.2470 -1.7796  0.2929
  946MOL0     H27657   8.755   4.878   0.635  0.6780  0.8137  1.0052
  946MOL0     H27658   8.688   4.802   0.780  1.1068  2.9167  1.0595
  946MOL0     H27659   8.650   4.659   0.569 -0.1218 -0.6445 -0.4980
  946MOL0     H27660   8.546   4.787   0.512  3.7300  1.2178  1.1372
  946MOL0     H27661   8.535   4.503   0.763 -0.1063  0.8524 -0.4249
  946MOL0     H27662   8.348   4.390   0.894 -0.6315  0.0507  0.5833
  946MOL0     H27663   8.283   4.523   0.995 -4.4309 -2.1426  1.3709
  946MOL0     H27664   8.149   4.353   0.771 -2.2656 -0.2646  0.2994
  946MOL0     H27665   8.076   4.499   0.820 -1.7616 -1.4653  0.0804
  946MOL0     H27666   8.086   4.427   1.058  1.9712 -0.0417  0.4827
  946MOL0     H27667   8.137   4.260   1.013  2.1655  0.4504 -1.5334
  946MOL0     H27668   7.895   4.257   1.043 -0.1806 -2.3627 -1.5735
  946MOL0     H27669   7.939   4.239   0.869 -1.5008 -0.8271  1.0246
  946MOL0     H27670   7.723   4.179   0.834 -3.8332 -2.2308 -1.8789
  946MOL0     H27671   7.644   4.053   0.668  1.1681 -1.3473 -2.7328
  946MOL0     H27672   7.474   4.114   0.685  0.8360  1.6769  0.7138
  946MOL0     H27673   7.548   4.125   0.526 -2.7572  0.1712  0.4757
  946MOL0     H27674   7.484   4.486   0.193  1.5257 -2.1542  4.8297
  946MOL0     H27675   7.293   4.511   0.025 -1.1871 -0.8966 -0.2855
  946MOL0     H27676   6.852   4.635   0.132 -0.2441  1.2290  1.4983
  946MOL0     H27677   6.973   4.756   0.176 -0.4606 -0.2234  0.0492
  946MOL0     H27678   6.844   4.809  -0.009  0.1284  0.9832 -0.8785
  946MOL0     H27679   7.007   4.769  -0.075  0.5289 -0.6578  0.4160
  946MOL0     H27680   6.743   4.601  -0.074 -0.7975  0.7040 -1.1499
  946MOL0     H27681   6.911   4.546  -0.131  0.4615 -0.1184  0.9607
  946MOL0     H27682   6.770   4.780  -0.261  1.8311  0.5545 -0.5292
  946MOL0     H27683   6.902   4.686  -0.315  0.7407 -0.2719  0.3965
  946MOL0     H27684   6.761   4.477  -0.334 -1.7638 -1.5319 -0.4102
  946MOL0     H27685   6.708   4.618  -0.438  0.6770 -1.7110  0.6314
  946MOL0     H27686   6.577   4.524  -0.175  1.3649  1.7717  1.0631
  946MOL0     H27687   6.533   4.668  -0.257  1.9970  1.4582 -0.4899
  946MOL0     H27688   6.456   4.558  -0.452 -0.6417  0.0363  1.0474
  946MOL0     H27689   6.382   4.501  -0.312 -0.7142 -2.8186  0.6666
  946MOL0     H27690   6.560   4.320  -0.293  1.3766  1.8476  1.3240
  946MOL0     H27691   6.612   4.352  -0.461 -0.5103 -1.4530 -0.4948
  946MOL0     H27692   7.018   4.564   0.352  0.7425  1.0190  1.0244
  946MOL0     H27693   7.214   4.540   0.516 -3.0763 -0.8843  0.7477
  946MOL0     H27694   7.541   4.603   0.660 -2.4239 -1.2279 -0.1381
  946MOL0     H27695   7.709   4.620   0.818 -1.3589 -0.0210  0.8508
  946MOL0     H27696   8.724   5.664   1.095 -0.1223 -1.1207 -1.1267
  946MOL0     H27697   8.911   5.727   1.243  0.5774 -0.0679  0.4169
  946MOL0     H27698   9.261   6.126   1.286 -1.2790 -1.6868 -1.6754
  946MOL0     H27699   9.486   6.207   1.386  0.9874  0.2831 -0.6265
  946MOL0     H27700   9.740   6.171   1.287 -1.3224  0.3941 -0.1091
  946MOL0     H27701   9.708   6.234   1.452 -1.6283  1.7552 -2.5853
  946MOL0     H27702   9.961   6.234   1.379 -0.3696 -0.0512 -0.1795
  946MOL0     H27703   9.945   6.054   1.370  0.3294  0.3499 -0.6979
  946MOL0     H27704   9.874   6.056   1.620  0.6296 -0.9246 -0.2467
  946MOL0     H27705   9.940   6.226   1.620  0.3565 -0.8581  1.1248
  946MOL0     H27706  10.098   5.976   1.552 -1.7657 -2.0213  3.9277
  946MOL0     H27707  10.097   6.057   1.704 -1.2333  0.5257  0.9135
  946MOL0     H27708  10.338   6.322   1.470  0.2030  0.0082  0.1474
  946MOL0     H27709   9.629   5.808   1.347 -0.5285 -0.4369  0.6027
  946MOL0     H27710   9.402   5.754   1.218  1.1936  0.3607 -1.8085
  947MOL0     O27711   7.879   2.032   2.457 -0.3836  0.4961 -0.3237
  947MOL0     C27712   7.912   1.945   2.382 -0.8124  0.0925 -0.4164
  947MOL0     O27713   7.859   1.825   2.376 -0.8125  0.0757 -0.1234
  947MOL0     C27714   7.759   1.784   2.458 -0.9681 -0.0520 -0.0556
  947MOL0     C27715   7.638   1.747   2.400  0.1307  1.0815  0.1368
  947MOL0     C27716   7.535   1.690   2.481 -0.4640  0.3500 -0.3047
  947MOL0     C27717   7.545   1.679   2.620 -0.0485  0.3392  0.7405
  947MOL0     O27718   7.436   1.611   2.672 -0.4127  0.5525  0.1979
  947MOL0     C27719   7.453   1.541   2.796 -0.9216 -0.7326 -0.5479
  947MOL0     C27720   7.338   1.455   2.827 -0.3222  0.3463 -0.4718
  947MOL0     C27721   7.202   1.485   2.779  0.0454 -0.5386  0.8087
  947MOL0     C27722   7.119   1.355   2.777 -0.6509 -0.0824  0.2016
  947MOL0     C27723   6.969   1.372   2.733 -0.3198 -0.2493 -1.2866
  947MOL0     C27724   6.894   1.445   2.851 -0.1843  0.1898 -0.8199
  947MOL0     C27725   6.738   1.446   2.827 -0.6742 -0.6551 -0.3082
  947MOL0     C27726   6.672   1.312   2.828 -0.4332 -0.3256 -0.1867
  947MOL0     N27727   6.535   1.320   2.798 -0.2774 -0.1898  0.8183
  947MOL0     C27728   6.480   1.368   2.678 -0.0510 -0.3568 -0.0423
  947MOL0     C27729   6.345   1.367   2.695  0.2778  0.2237 -0.4417
  947MOL0     C27730   6.247   1.416   2.586 -0.0320  1.2805 -0.5336
  947MOL0     C27731   6.103   1.417   2.636 -1.6064 -0.0480  0.1451
  947MOL0     C27732   6.040   1.279   2.631 -0.3235  0.4632 -0.6546
  947MOL0     C27733   5.966   1.252   2.753 -0.2703 -0.0816 -0.0491
  947MOL0     O27734   5.850   1.323   2.751  0.6739  0.3839  0.1500
  947MOL0     C27735   5.741   1.295   2.844  0.3197 -0.0017 -1.3558
  947MOL0     C27736   5.761   1.202   2.950 -0.2419  0.3628  0.8777
  947MOL0     C27737   5.661   1.202   3.046  0.3632  0.3204  0.2805
  947MOL0     C27738   5.697   1.132   3.175  0.0770  0.3462 -0.0974
  947MOL0     C27739   5.535   1.279   3.036 -0.3814  0.4979  0.1666
  947MOL0     C27740   5.425   1.278   3.146 -0.2920 -0.4969  0.5261
  947MOL0     O27741   5.340   1.385   3.148  0.5041 -0.1236  0.4114
  947MOL0     C27742   5.203   1.366   3.160  0.0588 -0.0636  0.2591
  947MOL0     C27743   5.134   1.251   3.115 -0.0594  0.8174 -0.8558
  947MOL0     C27744   4.992   1.243   3.121 -0.3202 -0.7126 -0.0007
  947MOL0     C27745   4.916   1.351   3.167 -0.8227  0.3752  0.2058
  947MOL0     O27746   4.785   1.319   3.172 -0.0295  0.0165 -0.4925
  947MOL0     C27747   4.697   1.402   3.247  0.3464 -0.6030  0.5566
  947MOL0     C27748   4.626   1.495   3.146 -0.2375  0.4447  0.2822
  947MOL0     C27749   4.521   1.569   3.228 -0.6768  0.2009  0.2927
  947MOL0     C27750   4.412   1.623   3.135 -0.2381 -0.5131  0.2571
  947MOL0     C27751   4.306   1.697   3.211  0.7370 -0.3615 -0.8535
  947MOL0     C27752   4.186   1.603   3.260 -0.6708 -0.4550  0.3932
  947MOL0     C27753   4.075   1.694   3.315 -0.2299  0.1250 -0.6012
  947MOL0     C27754   3.951   1.611   3.346  0.3000  0.1541  0.2433
  947MOL0    Cl27755   3.832   1.740   3.384  0.0958 -0.1507 -0.2300
  947MOL0     C27756   4.984   1.472   3.211  0.6210 -0.2399  0.8877
  947MOL0     C27757   5.132   1.467   3.219 -0.2463  0.3962 -0.5536
  947MOL0     O27758   5.418   1.186   3.218  0.1135  0.6866 -0.3828
  947MOL0     C27759   5.521   1.367   2.927 -0.4568  0.3329 -0.2228
  947MOL0     C27760   5.625   1.381   2.836  0.1917 -0.5120 -0.5318
  947MOL0     N27761   6.331   1.291   2.807  0.1362 -0.6937 -0.8802
  947MOL0     N27762   6.433   1.267   2.868  0.6963 -0.2129 -0.0520
  947MOL0     C27763   7.662   1.729   2.681 -0.0472  0.2814  0.2211
  947MOL0     C27764   7.768   1.774   2.602 -0.4991  0.4212  0.6409
  947MOL0     C27765   8.011   1.988   2.281  0.7213  0.4554 -0.1093
  947MOL0     C27766   8.058   2.116   2.265 -0.1009  0.0033  1.0137
  947MOL0     C27767   8.155   2.148   2.174 -0.4292 -0.6469 -0.0678
  947MOL0     C27768   8.222   2.050   2.098 -0.8641 -0.8297 -0.1865
  947MOL0     O27769   8.324   2.082   2.016 -0.3008  0.9972 -0.2890
  947MOL0     C27770   8.290   2.114   1.882  0.4534 -0.1250  0.2383
  947MOL0     C27771   8.361   2.240   1.822 -0.1573 -0.3921 -0.0666
  947MOL0     C27772   8.353   2.258   1.665  0.6166 -0.8543 -0.2790
  947MOL0     C27773   8.202   2.259   1.622 -0.0874  0.1505  0.5057
  947MOL0     C27774   8.133   2.377   1.679 -0.8791  0.5597 -0.2054
  947MOL0     C27775   8.072   2.474   1.721  0.8454 -0.6178  0.4245
  947MOL0     C27776   8.179   1.917   2.111 -0.2221  1.0418  0.0398
  947MOL0     C27777   8.086   1.887   2.210  0.3656  0.3242  0.2372
  947MOL0     H27778   7.642   1.762   2.293 -0.2163  1.7915  0.2198
  947MOL0     H27779   7.445   1.655   2.433 -0.1946  0.6528 -1.0453
  947MOL0     H27780   7.536   1.474   2.774 -1.9715 -2.5353  0.7509
  947MOL0     H27781   7.469   1.611   2.879  0.0572 -0.3408 -1.0554
  947MOL0     H27782   7.368   1.352   2.803  2.8816  0.6702  1.5345
  947MOL0     H27783   7.327   1.442   2.935  0.3820 -3.2900 -0.6853
  947MOL0     H27784   7.145   1.547   2.849 -2.3959 -3.2389  1.3563
  947MOL0     H27785   7.196   1.532   2.680 -1.9083 -0.9630  0.6912
  947MOL0     H27786   7.147   1.276   2.707 -2.0068  1.2792 -2.0256
  947MOL0     H27787   7.118   1.317   2.880  3.0549  1.0170  0.7719
  947MOL0     H27788   6.949   1.435   2.646 -1.3702  2.1909  0.5932
  947MOL0     H27789   6.941   1.271   2.703 -0.2668 -0.6061 -0.2003
  947MOL0     H27790   6.918   1.406   2.950 -2.7499 -0.6177 -0.4348
  947MOL0     H27791   6.922   1.550   2.841 -2.4903  1.2167  2.0225
  947MOL0     H27792   6.693   1.502   2.909 -1.3207 -0.3280 -0.8751
  947MOL0     H27793   6.719   1.501   2.734  0.9391  0.8659  0.2054
  947MOL0     H27794   6.692   1.269   2.927  0.2103 -1.8791 -0.9569
  947MOL0     H27795   6.717   1.237   2.762  0.0240  0.6794 -1.0547
  947MOL0     H27796   6.531   1.423   2.600  1.1837  2.7092  2.6774
  947MOL0     H27797   6.279   1.519   2.565  3.0982  0.5515  0.2296
  947MOL0     H27798   6.251   1.351   2.499 -3.2059  0.6041 -0.3034
  947MOL0     H27799   6.047   1.491   2.578  1.0552  1.4813 -0.6314
  947MOL0     H27800   6.109   1.460   2.736 -3.6896 -1.9943  1.1928
  947MOL0     H27801   6.123   1.207   2.632  0.3329  1.1034 -3.2746
  947MOL0     H27802   5.967   1.261   2.551 -0.1154 -1.2375 -0.5086
  947MOL0     H27803   6.024   1.282   2.840 -1.6474 -0.6686  1.1011
  947MOL0     H27804   5.942   1.145   2.764 -1.5265  0.2863  0.9626
  947MOL0     H27805   5.851   1.142   2.964 -1.4030 -1.4173  1.0295
  947MOL0     H27806   5.698   1.205   3.257 -1.6597  1.3472 -0.9092
  947MOL0     H27807   5.614   1.065   3.200  0.5662 -0.5727 -0.9024
  947MOL0     H27808   5.794   1.081   3.171  0.7873  1.7327 -1.7826
  947MOL0     H27809   5.202   1.182   3.067  1.8826  2.7542 -1.0420
  947MOL0     H27810   4.937   1.161   3.076  0.0726 -1.1731  0.3306
  947MOL0     H27811   4.622   1.340   3.298  1.0737 -0.0670  2.3601
  947MOL0     H27812   4.747   1.468   3.319  1.3328 -0.5992 -0.1183
  947MOL0     H27813   4.693   1.561   3.091  0.7510 -0.1613  0.7314
  947MOL0     H27814   4.577   1.436   3.067  1.2173  0.1004 -0.3953
  947MOL0     H27815   4.564   1.656   3.279 -1.8246  0.7339  0.3970
  947MOL0     H27816   4.481   1.502   3.304  1.9252  0.7877  2.3171
  947MOL0     H27817   4.448   1.687   3.053  0.2514 -0.8733  0.1844
  947MOL0     H27818   4.369   1.536   3.085 -1.1731  1.0319 -1.7949
  947MOL0     H27819   4.251   1.773   3.155 -0.9729 -0.0810  1.0675
  947MOL0     H27820   4.346   1.753   3.296 -1.0195  0.2371 -0.3802
  947MOL0     H27821   4.139   1.564   3.169  0.0346  0.5993 -0.4330
  947MOL0     H27822   4.206   1.514   3.320  2.2067 -2.8961 -3.6705
  947MOL0     H27823   4.044   1.763   3.236 -0.3997 -0.5660 -1.1474
  947MOL0     H27824   4.120   1.750   3.399  2.1861 -0.6879 -1.2726
  947MOL0     H27825   3.981   1.544   3.427  1.4008  2.0930  1.5265
  947MOL0     H27826   3.928   1.557   3.254  2.9330  2.0082 -1.6602
  947MOL0     H27827   4.930   1.563   3.234  0.2566 -0.0348 -0.6384
  947MOL0     H27828   5.183   1.557   3.250  0.3111  0.1581 -0.7807
  947MOL0     H27829   5.437   1.431   2.902  0.1733  1.4058  0.3353
  947MOL0     H27830   5.635   1.456   2.758  0.4939 -0.6549 -0.6325
  947MOL0     H27831   7.668   1.714   2.789 -5.2266 -0.9007  0.6083
  947MOL0     H27832   7.858   1.819   2.643  1.1282 -0.8764 -1.3074
  947MOL0     H27833   8.034   2.200   2.329 -0.4195 -0.9181  2.1422
  947MOL0     H27834   8.206   2.243   2.169  1.6550 -1.7310 -4.9909
  947MOL0     H27835   8.314   2.018   1.836 -1.8009  0.1215 -1.6082
  947MOL0     H27836   8.185   2.140   1.865  0.5705  1.8105  2.0549
  947MOL0     H27837   8.468   2.228   1.842 -0.1242 -2.7955 -1.3679
  947MOL0     H27838   8.316   2.323   1.878 -0.6696 -1.4813  1.1950
  947MOL0     H27839   8.397   2.171   1.616  0.8302 -0.7347 -0.3029
  947MOL0     H27840   8.388   2.354   1.624 -0.4075 -0.3961 -0.1078
  947MOL0     H27841   8.162   2.165   1.661  4.4421 -1.4782  1.7746
  947MOL0     H27842   8.200   2.260   1.513  1.3469 -2.1593  0.4145
  947MOL0     H27843   8.018   2.564   1.740 -0.0432 -0.2567 -3.0883
  947MOL0     H27844   8.228   1.839   2.054 -1.4628  1.3542 -1.5193
  947MOL0     H27845   8.058   1.783   2.222 -1.1339  0.3569 -2.3150
  948MOL0     O27846   8.911   0.399   6.550  0.6852 -0.7355  0.1560
  948MOL0     C27847   8.891   0.376   6.432  0.0225  0.3357  0.6061
  948MOL0     O27848   8.769   0.379   6.364  0.3547 -0.1949  0.1235
  948MOL0     C27849   8.664   0.426   6.432  0.3965 -0.1267  0.5109
  948MOL0     C27850   8.672   0.562   6.488 -1.1596 -0.5518 -0.6937
  948MOL0     C27851   8.558   0.634   6.522  0.2511  0.0305  0.0330
  948MOL0     C27852   8.435   0.560   6.523 -0.2351  1.1961 -0.4256
  948MOL0     O27853   8.314   0.606   6.570  0.1703  0.4294 -0.1783
  948MOL0     C27854   8.310   0.742   6.618  0.1760 -0.7065 -0.5263
  948MOL0     C27855   8.268   0.844   6.505  0.3567  0.7629  0.1592
  948MOL0     C27856   8.132   0.810   6.446  0.1586  0.1014  0.7323
  948MOL0     C27857   8.018   0.840   6.537  0.1198 -0.4593 -0.6114
  948MOL0     C27858   7.889   0.883   6.459 -0.3529 -0.1247 -0.1171
  948MOL0     C27859   7.897   1.020   6.387 -0.7162 -0.5170 -0.3056
  948MOL0     C27860   7.746   1.073   6.357 -0.5983 -0.5042 -0.0982
  948MOL0     C27861   7.670   0.999   6.261  0.5034 -0.5407 -0.5137
  948MOL0     N27862   7.535   1.062   6.254  0.5081  0.9204  0.6658
  948MOL0     C27863   7.438   1.043   6.358  0.2346 -0.2965  0.7104
  948MOL0     C27864   7.331   1.112   6.311  0.7365  0.0592 -0.0827
  948MOL0     C27865   7.203   1.141   6.383  0.2870  0.0295  1.0368
  948MOL0     C27866   7.207   1.289   6.428 -0.4630 -0.0746  0.0240
  948MOL0     C27867   7.089   1.328   6.530  0.2686  0.5879  0.2106
  948MOL0     C27868   7.093   1.475   6.559  0.5903 -0.2753 -0.0758
  948MOL0     O27869   7.019   1.493   6.684 -0.3601 -0.2615  0.0443
  948MOL0     C27870   6.907   1.572   6.675 -0.2296 -0.5006 -0.0569
  948MOL0     C27871   6.904   1.694   6.603  0.2762  0.6303  0.4908
  948MOL0     C27872   6.787   1.770   6.592  0.6027 -0.5177 -0.4782
  948MOL0     C27873   6.793   1.907   6.530  0.8292 -0.5147  0.3448
  948MOL0     C27874   6.670   1.730   6.655 -0.1283  0.4168 -0.0798
  948MOL0     C27875   6.538   1.800   6.664 -0.3627  0.2495 -0.0016
  948MOL0     O27876   6.443   1.750   6.746 -0.0532 -0.4736 -0.3706
  948MOL0     C27877   6.337   1.835   6.773 -0.1736 -0.0826  0.2053
  948MOL0     C27878   6.256   1.866   6.671 -0.0765 -0.7282 -0.3703
  948MOL0     C27879   6.139   1.941   6.702 -0.2404  0.9070  1.3561
  948MOL0     C27880   6.101   1.978   6.821 -0.1881 -0.3508  0.0616
  948MOL0     O27881   5.976   2.038   6.841  0.2249 -0.4731  0.3346
  948MOL0     C27882   5.897   1.982   6.949 -0.2124 -0.3104 -0.1232
  948MOL0     C27883   5.766   2.066   6.962  1.0205  0.8996  0.4505
  948MOL0     C27884   5.779   2.221   6.959  0.4830  0.6655 -0.1044
  948MOL0     C27885   5.638   2.291   6.981 -0.5174  0.2346  0.2991
  948MOL0     C27886   5.551   2.271   6.855  0.9623  0.2393 -0.5672
  948MOL0     C27887   5.408   2.319   6.866  0.2422  0.2200  0.1989
  948MOL0     C27888   5.378   2.438   6.966 -0.2872 -0.4314 -0.2583
  948MOL0     C27889   5.239   2.497   6.930  0.8385  0.1352 -0.6214
  948MOL0    Cl27890   5.106   2.390   6.980  0.1006 -0.3887 -0.1462
  948MOL0     C27891   6.197   1.958   6.923  0.4140  0.1615 -0.3197
  948MOL0     C27892   6.314   1.890   6.899  0.0145 -0.9008  0.5236
  948MOL0     O27893   6.531   1.909   6.612  0.1457 -0.2923 -0.2017
  948MOL0     C27894   6.678   1.613   6.734  0.8002 -0.0746 -0.0294
  948MOL0     C27895   6.790   1.535   6.746  0.7189 -0.7328 -0.2543
  948MOL0     N27896   7.374   1.187   6.201  0.0787  1.1708  0.6653
  948MOL0     N27897   7.483   1.133   6.157 -0.6655  0.4082  0.1816
  948MOL0     C27898   8.431   0.427   6.482  0.2205 -0.1391 -0.0468
  948MOL0     C27899   8.542   0.371   6.422  0.1998  0.4278  0.0265
  948MOL0     C27900   9.003   0.326   6.354 -1.1640  0.2091 -0.0874
  948MOL0     C27901   9.136   0.344   6.394  0.0575  0.5186 -0.2228
  948MOL0     C27902   9.241   0.303   6.315 -0.3506 -0.5695  0.0783
  948MOL0     C27903   9.227   0.242   6.200  0.0548  0.4150 -0.1637
  948MOL0     O27904   9.338   0.191   6.144  0.0041  0.8493  0.1025
  948MOL0     C27905   9.334   0.096   6.031  0.2496 -0.9739 -0.6464
  948MOL0     C27906   9.479   0.064   5.999 -1.0834 -0.3428  0.0655
  948MOL0     C27907   9.536  -0.030   6.107  0.5126  0.5827 -0.2066
  948MOL0     C27908   9.679  -0.075   6.075  0.1671 -0.6613 -0.0753
  948MOL0     C27909   9.749  -0.154   6.174  0.1016 -0.8342 -0.9001
  948MOL0     C27910   9.818  -0.213   6.250 -0.0657  0.4778 -0.3034
  948MOL0     C27911   9.098   0.223   6.152 -0.4911  0.3788  0.0672
  948MOL0     C27912   8.982   0.263   6.233  0.3034 -0.3716  0.5259
  948MOL0     H27913   8.767   0.612   6.502 -0.0925 -2.5858 -0.3085
  948MOL0     H27914   8.560   0.738   6.553 -1.9381 -0.4820  2.2743
  948MOL0     H27915   8.228   0.735   6.690  1.3820 -0.5599  0.9064
  948MOL0     H27916   8.402   0.770   6.670 -0.0769  0.1332 -0.5204
  948MOL0     H27917   8.272   0.951   6.529 -0.2885  0.8554 -0.1134
  948MOL0     H27918   8.342   0.829   6.427  1.0649  0.8251  0.8072
  948MOL0     H27919   8.128   0.863   6.351  4.1563 -1.1802 -0.3442
  948MOL0     H27920   8.115   0.710   6.406 -1.2618  0.4534  0.3982
  948MOL0     H27921   8.007   0.745   6.591  1.2280  0.3957  1.1771
  948MOL0     H27922   8.051   0.916   6.608 -1.3352 -2.4371  2.3678
  948MOL0     H27923   7.871   0.808   6.381 -0.9733 -2.1710  1.8652
  948MOL0     H27924   7.806   0.873   6.529  2.2283 -2.8096  2.9184
  948MOL0     H27925   7.945   1.100   6.444 -1.2106 -0.0136 -0.5806
  948MOL0     H27926   7.967   1.006   6.303 -0.9273 -1.4942 -0.3256
  948MOL0     H27927   7.693   1.088   6.451 -0.0552 -2.4949  0.5769
  948MOL0     H27928   7.764   1.171   6.312 -0.3782 -1.7092 -2.8422
  948MOL0     H27929   7.670   0.896   6.297  1.5659 -0.0614  0.9698
  948MOL0     H27930   7.708   0.998   6.159  0.0098 -2.2235 -0.7142
  948MOL0     H27931   7.441   0.977   6.445 -0.9874 -2.3518 -0.7162
  948MOL0     H27932   7.122   1.121   6.312  1.5292  2.3992 -1.2067
  948MOL0     H27933   7.185   1.078   6.471 -0.6907 -1.7343 -0.3714
  948MOL0     H27934   7.206   1.351   6.338  0.6935 -2.8524 -2.0352
  948MOL0     H27935   7.307   1.306   6.469  0.0348  0.2851 -1.3116
  948MOL0     H27936   7.097   1.274   6.624  1.4131 -0.8633 -0.6861
  948MOL0     H27937   6.997   1.299   6.477  1.6968  0.8359 -2.6009
  948MOL0     H27938   7.060   1.535   6.475 -0.7433 -1.0955 -0.1616
  948MOL0     H27939   7.197   1.502   6.580  0.5609  0.2764 -0.6307
  948MOL0     H27940   6.989   1.733   6.548  1.2483 -1.3228  0.5436
  948MOL0     H27941   6.758   1.970   6.612  3.5051 -0.3478  1.4723
  948MOL0     H27942   6.891   1.940   6.496 -1.0586  2.9916 -2.4045
  948MOL0     H27943   6.726   1.913   6.444  2.6353 -1.7928 -1.2288
  948MOL0     H27944   6.261   1.816   6.575  0.1500 -0.9729 -0.2330
  948MOL0     H27945   6.078   1.950   6.613  3.4566 -0.1777 -1.5398
  948MOL0     H27946   5.870   1.877   6.929 -3.9849  0.6095 -0.6390
  948MOL0     H27947   5.946   1.996   7.045 -1.4749  3.3177  0.1404
  948MOL0     H27948   5.698   2.029   6.884  1.5261 -1.0373  0.8698
  948MOL0     H27949   5.717   2.032   7.053  0.0785 -1.1820 -0.7489
  948MOL0     H27950   5.833   2.262   6.874  3.3152 -0.1204  1.2012
  948MOL0     H27951   5.836   2.243   7.050  0.0632  1.4880 -0.0310
  948MOL0     H27952   5.592   2.255   7.073 -2.9624  1.6348 -0.2709
  948MOL0     H27953   5.659   2.398   6.992 -0.2375  0.3431 -1.0285
  948MOL0     H27954   5.550   2.170   6.813 -2.2733  0.1491 -0.5347
  948MOL0     H27955   5.600   2.330   6.777  2.0646  2.7721  1.8607
  948MOL0     H27956   5.368   2.333   6.766 -0.6777  2.1276  0.7947
  948MOL0     H27957   5.352   2.232   6.902  0.3042 -0.7680 -1.9209
  948MOL0     H27958   5.450   2.520   6.960 -1.6775  0.8955  0.2891
  948MOL0     H27959   5.383   2.409   7.071  3.1096 -1.3990 -0.5730
  948MOL0     H27960   5.224   2.515   6.823 -0.0890  0.8211 -0.3928
  948MOL0     H27961   5.229   2.593   6.981 -2.2817 -0.2162 -0.3407
  948MOL0     H27962   6.179   1.991   7.024  2.1681 -0.3654  0.1890
  948MOL0     H27963   6.391   1.878   6.974  2.2746  1.2847 -1.2924
  948MOL0     H27964   6.594   1.565   6.784  0.6930 -1.4851 -1.4716
  948MOL0     H27965   6.789   1.441   6.802 -0.0803  0.0403  1.0926
  948MOL0     H27966   8.342   0.367   6.502  0.4607  0.1019  1.9044
  948MOL0     H27967   8.523   0.268   6.397 -4.6625  0.3209  2.9929
  948MOL0     H27968   9.164   0.361   6.498  0.5678 -2.2481  0.1853
  948MOL0     H27969   9.341   0.326   6.351 -0.3495 -0.9693  0.3395
  948MOL0     H27970   9.278   0.004   6.051  1.8617 -2.2202 -1.5842
  948MOL0     H27971   9.283   0.130   5.941 -3.5839 -2.5904  0.7317
  948MOL0     H27972   9.551   0.146   5.994  1.0622 -2.0332  1.1964
  948MOL0     H27973   9.487   0.011   5.903 -0.5593  0.5093 -0.3721
  948MOL0     H27974   9.477  -0.122   6.103  1.0723  0.1567 -5.4599
  948MOL0     H27975   9.538   0.021   6.204 -1.1567 -1.5424  1.0331
  948MOL0     H27976   9.736   0.013   6.042  0.4309 -0.6732  0.3454
  948MOL0     H27977   9.673  -0.138   5.986  2.7237  0.3460 -1.0685
  948MOL0     H27978   9.878  -0.275   6.314  0.6968 -1.1832 -2.5142
  948MOL0     H27979   9.083   0.190   6.050  2.6877 -3.1886  0.5327
  948MOL0     H27980   8.884   0.253   6.188  2.1578 -0.4007 -4.1144
  949MOL0     O27981   1.553   4.767  11.268  0.2287  0.0099 -0.0424
  949MOL0     C27982   1.551   4.647  11.284  0.2062 -0.1271 -0.2441
  949MOL0     O27983   1.434   4.574  11.301  0.0753 -0.7645 -0.1284
  949MOL0     C27984   1.315   4.641  11.311 -0.2190 -0.2617  0.3910
  949MOL0     C27985   1.241   4.674  11.191  0.0613 -0.2113 -0.4927
  949MOL0     C27986   1.125   4.755  11.201  0.1034  0.2352  0.3785
  949MOL0     C27987   1.080   4.809  11.321 -0.1967  0.9485 -0.1980
  949MOL0     O27988   0.977   4.894  11.324  0.4298  0.2883 -0.0814
  949MOL0     C27989   0.866   4.871  11.408 -0.0248  0.0260 -0.6095
  949MOL0     C27990   0.757   4.968  11.361 -0.2644 -0.9586 -0.6549
  949MOL0     C27991   0.625   4.965  11.438 -0.3266 -0.3254 -0.1009
  949MOL0     C27992   0.642   4.955  11.595 -0.0067  0.4799 -0.2390
  949MOL0     C27993   0.509   4.967  11.681 -0.4931  0.7082  0.7862
  949MOL0     C27994   0.415   4.848  11.648 -0.5713  0.4084  0.5883
  949MOL0     C27995   0.320   4.803  11.757 -0.5850  0.2716  0.2670
  949MOL0     C27996   0.273   4.662  11.725 -0.6478 -0.1681  0.3410
  949MOL0     N27997   0.210   4.590  11.833  0.7576  0.2272 -0.5435
  949MOL0     C27998   0.076   4.566  11.847 -0.0886  0.3186 -0.1798
  949MOL0     C27999   0.078   4.481  11.956  0.0589  1.1592  0.8421
  949MOL0     C28000  -0.045   4.418  12.019 -0.1960  0.1485 -0.1745
  949MOL0     C28001  -0.086   4.501  12.137 -0.9213 -0.5096 -0.6815
  949MOL0     C28002  -0.173   4.414  12.228  0.0375  0.3353 -0.5875
  949MOL0     C28003  -0.224   4.498  12.353  0.0091  0.3454  0.0602
  949MOL0     O28004  -0.278   4.616  12.303  0.6782  0.3201  0.4182
  949MOL0     C28005  -0.410   4.637  12.281 -0.6859  0.4586 -0.8248
  949MOL0     C28006  -0.449   4.752  12.220  0.5395  0.0973  0.0519
  949MOL0     C28007  -0.581   4.791  12.205  0.3901 -1.3223 -0.5260
  949MOL0     C28008  -0.592   4.929  12.148  0.2983  0.1763  0.4229
  949MOL0     C28009  -0.684   4.711  12.256  0.3774 -0.3524 -0.4824
  949MOL0     C28010  -0.832   4.746  12.252 -0.3569 -0.0484  0.3469
  949MOL0     O28011  -0.915   4.650  12.286 -0.3286 -0.5887  0.0914
  949MOL0     C28012  -1.050   4.660  12.278  0.5614  0.7789  0.6223
  949MOL0     C28013  -1.139   4.758  12.231 -0.7771 -0.4247  0.4692
  949MOL0     C28014  -1.275   4.741  12.249 -0.3784 -0.5285 -0.2958
  949MOL0     C28015  -1.334   4.618  12.286  0.4809 -0.0735  1.0653
  949MOL0     O28016  -1.469   4.607  12.288  0.6271 -0.0913  0.1424
  949MOL0     C28017  -1.557   4.702  12.220  0.0017 -0.0749 -0.4182
  949MOL0     C28018  -1.601   4.806  12.330 -0.0396 -0.7901 -0.8868
  949MOL0     C28019  -1.675   4.930  12.266 -0.3442 -0.7133 -0.4062
  949MOL0     C28020  -1.817   4.887  12.237 -0.0980 -0.4555  0.5958
  949MOL0     C28021  -1.883   4.999  12.149 -0.2310  0.0006 -0.1480
  949MOL0     C28022  -2.017   4.956  12.081  0.1405  0.5909 -0.1328
  949MOL0     C28023  -2.124   4.903  12.180  0.9433 -0.2976 -0.1120
  949MOL0     C28024  -2.237   4.814  12.115  0.4245  0.0573 -0.1615
  949MOL0    Cl28025  -2.334   4.740  12.254  0.2679  0.4149 -0.4273
  949MOL0     C28026  -1.247   4.516  12.317  0.1431  1.0716  0.5177
  949MOL0     C28027  -1.106   4.539  12.321  0.4912  0.5599  0.0186
  949MOL0     O28028  -0.867   4.858  12.210 -0.3712  0.1701  0.0894
  949MOL0     C28029  -0.647   4.586  12.316 -0.8768  0.5783 -0.1412
  949MOL0     C28030  -0.511   4.557  12.329  0.2002  0.0922 -0.3978
  949MOL0     N28031   0.205   4.463  12.003  0.1534  0.3490 -0.5336
  949MOL0     N28032   0.286   4.514  11.924  0.6138 -0.4032  0.6589
  949MOL0     C28033   1.155   4.783  11.433 -0.0756  1.1227 -0.1581
  949MOL0     C28034   1.264   4.698  11.431 -0.4964  0.4330  0.0132
  949MOL0     C28035   1.682   4.584  11.301  0.7293  0.5575 -0.2007
  949MOL0     C28036   1.798   4.647  11.295 -0.4496  0.6104  0.0213
  949MOL0     C28037   1.921   4.588  11.332  0.5586  0.5883  0.1141
  949MOL0     C28038   1.921   4.454  11.374  0.3744 -0.2844 -0.3115
  949MOL0     O28039   2.034   4.387  11.413  0.5251 -0.3923 -0.5480
  949MOL0     C28040   2.165   4.433  11.375  0.6064 -0.3273  0.1247
  949MOL0     C28041   2.267   4.344  11.452  0.4225  0.0317 -0.4152
  949MOL0     C28042   2.415   4.367  11.416  0.4462  0.1389 -0.8352
  949MOL0     C28043   2.504   4.287  11.514  0.2783  0.3162 -0.0738
  949MOL0     C28044   2.544   4.368  11.625  0.2328  0.2504 -0.4240
  949MOL0     C28045   2.562   4.432  11.723 -0.4262  0.4186 -0.4785
  949MOL0     C28046   1.804   4.386  11.365  0.6022 -0.3535 -0.1474
  949MOL0     C28047   1.680   4.443  11.323 -0.5875 -0.4275 -0.2832
  949MOL0     H28048   1.261   4.635  11.091  2.0866  0.8689 -0.5659
  949MOL0     H28049   1.065   4.781  11.115 -1.6741 -0.5955  1.3230
  949MOL0     H28050   0.839   4.765  11.403  0.9531 -0.3903  1.5671
  949MOL0     H28051   0.894   4.896  11.511 -2.6421  0.4437  0.0704
  949MOL0     H28052   0.798   5.070  11.354 -0.7500 -0.8571 -2.9980
  949MOL0     H28053   0.735   4.936  11.259 -0.3205  1.9058 -1.6318
  949MOL0     H28054   0.566   5.054  11.414 -0.0782  0.2165  1.2226
  949MOL0     H28055   0.571   4.877  11.399 -2.6946  1.4170 -1.0063
  949MOL0     H28056   0.689   4.859  11.617  1.6573  1.0114 -1.3082
  949MOL0     H28057   0.715   5.033  11.618  0.0035  0.5126 -0.3827
  949MOL0     H28058   0.546   4.959  11.783  0.0488 -0.2884  0.5276
  949MOL0     H28059   0.457   5.060  11.659  0.8211  1.6180  1.4362
  949MOL0     H28060   0.350   4.875  11.564 -2.1120  1.8368  2.1616
  949MOL0     H28061   0.483   4.768  11.620  1.0284  2.0376 -0.4501
  949MOL0     H28062   0.371   4.812  11.853  0.1925 -2.2027  0.1355
  949MOL0     H28063   0.232   4.866  11.776 -1.9283 -1.5398  0.3663
  949MOL0     H28064   0.357   4.603  11.688 -0.1963  0.2516  0.6907
  949MOL0     H28065   0.207   4.678  11.639 -1.6540  1.7820  1.3981
  949MOL0     H28066  -0.006   4.596  11.783  0.8246  2.5326 -0.4231
  949MOL0     H28067  -0.126   4.426  11.945 -1.4548  0.8049  1.2027
  949MOL0     H28068  -0.044   4.311  12.041 -2.4969 -0.0672 -0.7629
  949MOL0     H28069  -0.123   4.595  12.097  2.3989  1.6701  0.8517
  949MOL0     H28070   0.003   4.523  12.198 -1.4215  1.2177 -0.5205
  949MOL0     H28071  -0.110   4.332  12.262  0.5272  0.3370 -1.4666
  949MOL0     H28072  -0.257   4.373  12.172 -2.0797  1.7124  1.3984
  949MOL0     H28073  -0.140   4.535  12.412  0.3991 -0.5255  0.0830
  949MOL0     H28074  -0.282   4.441  12.426 -4.6297  2.0311 -1.9460
  949MOL0     H28075  -0.374   4.824  12.190 -0.5038  1.0354 -0.4094
  949MOL0     H28076  -0.674   4.929  12.075  2.3154 -1.4292 -2.0641
  949MOL0     H28077  -0.607   5.007  12.223 -0.2803 -0.4016  0.9128
  949MOL0     H28078  -0.506   4.965  12.090  0.6301  1.2404  1.5517
  949MOL0     H28079  -1.096   4.850  12.190  2.7791 -2.5829 -1.1119
  949MOL0     H28080  -1.337   4.825  12.223 -0.2403  0.2884  1.8373
  949MOL0     H28081  -1.507   4.747  12.134  4.9274 -0.1179  2.0700
  949MOL0     H28082  -1.645   4.641  12.199 -1.9973  2.2699  0.5319
  949MOL0     H28083  -1.678   4.758  12.391 -1.7482  2.1162 -0.5705
  949MOL0     H28084  -1.516   4.834  12.392  0.4300 -2.1009 -0.9028
  949MOL0     H28085  -1.618   4.972  12.183 -0.0266  0.4157  0.3620
  949MOL0     H28086  -1.699   5.013  12.333 -0.0144  1.3773 -2.7120
  949MOL0     H28087  -1.814   4.788  12.191  0.8750 -1.6106  2.9483
  949MOL0     H28088  -1.862   4.874  12.336 -0.6765 -0.6727  0.3092
  949MOL0     H28089  -1.803   5.028  12.080 -2.2133  1.2565 -2.0463
  949MOL0     H28090  -1.898   5.084  12.217  1.2862  1.8714 -2.0390
  949MOL0     H28091  -2.063   5.038  12.025 -1.6530 -1.4590 -1.8537
  949MOL0     H28092  -2.001   4.874  12.010 -1.7212  0.8950 -0.9756
  949MOL0     H28093  -2.162   4.990  12.234 -0.0110 -0.7816  0.0064
  949MOL0     H28094  -2.074   4.835  12.249  1.0113 -1.9043 -1.6717
  949MOL0     H28095  -2.197   4.742  12.044  0.4320  1.8263 -2.0677
  949MOL0     H28096  -2.301   4.877  12.051  2.6546  0.2083 -2.3977
  949MOL0     H28097  -1.285   4.419  12.348  1.0078  0.4902 -0.1989
  949MOL0     H28098  -1.043   4.456  12.350 -3.5580 -4.2452 -3.0656
  949MOL0     H28099  -0.715   4.521  12.369  0.4276  1.2378  2.4896
  949MOL0     H28100  -0.488   4.458  12.368  1.4413  1.1398  1.7418
  949MOL0     H28101   1.121   4.837  11.521  0.9355  1.5135  0.0090
  949MOL0     H28102   1.319   4.678  11.522 -0.0434  1.2642 -0.0721
  949MOL0     H28103   1.806   4.751  11.264 -0.0080  1.0452  1.4934
  949MOL0     H28104   2.005   4.653  11.308  1.2571 -1.2479 -2.9510
  949MOL0     H28105   2.177   4.425  11.267  1.7312 -0.2053  0.2299
  949MOL0     H28106   2.182   4.536  11.407 -1.5152 -0.3132  1.4300
  949MOL0     H28107   2.242   4.240  11.429 -1.3553 -0.1710  2.0597
  949MOL0     H28108   2.265   4.356  11.561  0.3181 -2.0201 -0.1632
  949MOL0     H28109   2.437   4.474  11.425  0.3127  0.0820  0.4355
  949MOL0     H28110   2.436   4.335  11.314 -3.5881 -5.2315 -0.3970
  949MOL0     H28111   2.587   4.249  11.454  0.4659 -2.4338  1.7011
  949MOL0     H28112   2.452   4.202  11.560  1.2967  0.5065  1.5291
  949MOL0     H28113   2.565   4.507  11.800  0.8943 -0.6514  0.5681
  949MOL0     H28114   1.794   4.285  11.405 -0.9130 -0.5085 -0.8364
  949MOL0     H28115   1.585   4.391  11.325 -0.8765  0.1100  0.4496
  950MOL0     O28116   5.929  10.043   6.758 -0.6849 -0.1558  0.2278
  950MOL0     C28117   5.871  10.090   6.660 -0.2734 -0.0809  0.9046
  950MOL0     O28118   5.923  10.122   6.533  0.1662  0.5088  0.2981
  950MOL0     C28119   6.053  10.106   6.509  0.1780 -0.2306 -0.8904
  950MOL0     C28120   6.108   9.987   6.463  0.2144  0.1099  0.6821
  950MOL0     C28121   6.244   9.990   6.443  0.7966 -0.1993  0.5033
  950MOL0     C28122   6.323  10.100   6.466  0.6316  0.0718  0.1371
  950MOL0     O28123   6.453  10.085   6.444  0.1891 -0.3653 -0.0877
  950MOL0     C28124   6.526  10.209   6.414 -0.2792  0.0723  0.9420
  950MOL0     C28125   6.658  10.172   6.348 -0.6534  0.0405  0.5885
  950MOL0     C28126   6.762  10.279   6.328 -0.6685 -0.1558 -0.5406
  950MOL0     C28127   6.911  10.237   6.293  0.0247 -0.3095  1.3768
  950MOL0     C28128   7.010  10.350   6.324  0.0055 -0.8465  0.3211
  950MOL0     C28129   7.147  10.296   6.291 -0.1098 -0.5274  0.5055
  950MOL0     C28130   7.252  10.407   6.282  0.7815  0.2080  0.5383
  950MOL0     C28131   7.264  10.486   6.145  0.4481  0.3525 -1.1239
  950MOL0     N28132   7.379  10.574   6.145  0.8952  0.2509  0.2011
  950MOL0     C28133   7.501  10.521   6.137 -0.4223 -0.2020 -0.4862
  950MOL0     C28134   7.574  10.626   6.081  0.1010  0.6783 -0.2044
  950MOL0     C28135   7.723  10.609   6.040 -0.3167 -0.9867  0.3414
  950MOL0     C28136   7.741  10.498   5.926 -0.3851 -0.8320  1.1572
  950MOL0     C28137   7.654  10.531   5.798  0.2740 -0.3723  0.0396
  950MOL0     C28138   7.655  10.420   5.684 -0.1646 -0.2055 -0.1941
  950MOL0     O28139   7.661  10.292   5.753 -0.2097 -0.9964 -0.5267
  950MOL0     C28140   7.545  10.247   5.810 -0.4065 -0.2833 -0.8498
  950MOL0     C28141   7.412  10.297   5.800  0.2250 -0.1674  0.1532
  950MOL0     C28142   7.307  10.228   5.849  0.3004 -0.4070  0.4440
  950MOL0     C28143   7.168  10.278   5.804  0.2224  0.1329  0.3225
  950MOL0     C28144   7.340  10.115   5.929 -0.1001 -0.2264  0.0137
  950MOL0     C28145   7.241  10.041   6.004  0.4258 -0.0117 -0.2514
  950MOL0     O28146   7.276   9.916   6.048  0.0952  0.5783 -0.3801
  950MOL0     C28147   7.175   9.860   6.124 -0.2169  0.0169  0.5302
  950MOL0     C28148   7.153   9.898   6.260  0.0588 -0.2383 -0.2329
  950MOL0     C28149   7.039   9.840   6.327 -0.0358 -0.2717 -0.2389
  950MOL0     C28150   6.963   9.744   6.265  0.0890  0.2801 -0.1292
  950MOL0     O28151   6.862   9.682   6.336  0.2623  0.1872 -1.0436
  950MOL0     C28152   6.744   9.758   6.355  0.6660 -0.0033 -0.3640
  950MOL0     C28153   6.650   9.697   6.257  0.1679 -0.2231 -0.1975
  950MOL0     C28154   6.525   9.779   6.254 -0.0357 -0.0973  0.0167
  950MOL0     C28155   6.446   9.752   6.126 -0.5593  0.2494  0.4493
  950MOL0     C28156   6.347   9.858   6.091 -1.2338  0.3257 -0.4440
  950MOL0     C28157   6.259   9.793   5.989  0.0804 -0.2951 -0.3354
  950MOL0     C28158   6.147   9.896   5.962  0.8936  0.2585  0.7062
  950MOL0     C28159   6.045   9.823   5.864 -0.4291 -0.5689 -0.3274
  950MOL0    Cl28160   5.917   9.933   5.818  0.0966 -0.0377  0.1370
  950MOL0     C28161   6.985   9.704   6.135  1.0189 -0.3199  0.2400
  950MOL0     C28162   7.098   9.752   6.069 -1.2852 -0.3497  0.1140
  950MOL0     O28163   7.129  10.084   6.013  0.5047  0.2208 -0.4859
  950MOL0     C28164   7.470  10.076   5.963 -0.3512  0.9374 -0.0209
  950MOL0     C28165   7.572  10.139   5.893  0.7791 -0.4831 -0.0770
  950MOL0     N28166   7.493  10.740   6.072  0.1696 -0.3344  0.3105
  950MOL0     N28167   7.376  10.705   6.115 -0.8153  0.5745 -0.3220
  950MOL0     C28168   6.268  10.214   6.524 -0.0491  0.1760  0.4480
  950MOL0     C28169   6.131  10.214   6.543 -0.9260  0.1812 -0.2019
  950MOL0     C28170   5.729  10.103   6.685 -0.0666 -0.9061 -0.0787
  950MOL0     C28171   5.653  10.165   6.587  0.1710  0.2719  0.3450
  950MOL0     C28172   5.518  10.175   6.589  0.9382  0.5725 -0.2681
  950MOL0     C28173   5.443  10.107   6.691 -0.3370  0.1292  0.0595
  950MOL0     O28174   5.306  10.087   6.702 -0.0247  0.3706  0.1776
  950MOL0     C28175   5.231  10.156   6.601  0.6911 -0.4870 -0.0735
  950MOL0     C28176   5.073  10.125   6.622 -0.4890 -0.7759 -0.1798
  950MOL0     C28177   5.002  10.236   6.711 -0.3071  0.9118 -0.1123
  950MOL0     C28178   4.852  10.188   6.714 -0.2442 -0.0840 -0.2469
  950MOL0     C28179   4.780  10.209   6.844  0.4630  0.5390 -0.7085
  950MOL0     C28180   4.710  10.209   6.943 -0.3013  0.3223  0.1040
  950MOL0     C28181   5.523  10.056   6.796 -1.0669 -0.0338 -1.1155
  950MOL0     C28182   5.666  10.055   6.794  0.1707  0.0574 -0.2342
  950MOL0     H28183   6.052   9.894   6.459 -2.2962  1.5448  0.1962
  950MOL0     H28184   6.290   9.898   6.408  1.4543  0.1349  0.4796
  950MOL0     H28185   6.464  10.275   6.352  0.6093 -0.1585 -0.2462
  950MOL0     H28186   6.553  10.264   6.505 -0.8096 -0.2175  1.2768
  950MOL0     H28187   6.695  10.089   6.410  2.4709  0.9976  0.2053
  950MOL0     H28188   6.639  10.145   6.244  1.2438 -1.6277  0.6111
  950MOL0     H28189   6.717  10.357   6.266 -0.2285  1.4262  1.0372
  950MOL0     H28190   6.764  10.332   6.423 -3.6569  0.4268 -0.7101
  950MOL0     H28191   6.936  10.145   6.347  0.3726 -0.6728  0.6039
  950MOL0     H28192   6.913  10.204   6.189  1.4317  0.1380  1.2428
  950MOL0     H28193   6.988  10.432   6.254  1.2939  0.8766  1.8462
  950MOL0     H28194   6.988  10.384   6.426  1.3766  0.0744  0.3375
  950MOL0     H28195   7.180  10.225   6.368  1.5849 -1.4102 -0.9668
  950MOL0     H28196   7.135  10.232   6.203 -3.0627  2.0651 -1.1978
  950MOL0     H28197   7.230  10.478   6.362 -3.9110  1.3975 -1.4416
  950MOL0     H28198   7.347  10.359   6.306  0.6028  1.2148  3.7282
  950MOL0     H28199   7.177  10.552   6.146  0.5816  0.5275 -0.4966
  950MOL0     H28200   7.256  10.423   6.056 -1.4502  0.0904 -0.8182
  950MOL0     H28201   7.527  10.416   6.150 -3.1078 -1.0742 -1.5107
  950MOL0     H28202   7.760  10.702   5.995 -2.1816 -0.4504 -0.1822
  950MOL0     H28203   7.785  10.589   6.128 -1.2077 -1.7967  0.8061
  950MOL0     H28204   7.708  10.407   5.976  0.2079 -1.6012  0.1737
  950MOL0     H28205   7.843  10.486   5.889 -0.6538 -0.5455  0.3126
  950MOL0     H28206   7.693  10.617   5.744  1.4994 -1.1774 -0.3929
  950MOL0     H28207   7.549  10.544   5.828 -0.1897 -2.1811 -0.6663
  950MOL0     H28208   7.742  10.428   5.618 -0.3163 -1.3444 -0.5434
  950MOL0     H28209   7.579  10.433   5.606  2.9848 -0.2800 -3.5790
  950MOL0     H28210   7.395  10.376   5.728  1.6573  1.0031  1.0359
  950MOL0     H28211   7.127  10.341   5.884  0.4436  0.3728  0.2478
  950MOL0     H28212   7.171  10.333   5.709  0.0609 -0.8429 -0.2551
  950MOL0     H28213   7.105  10.189   5.802 -0.1626  0.2901  2.7254
  950MOL0     H28214   7.216   9.976   6.303  2.5184 -1.8752 -0.6660
  950MOL0     H28215   7.020   9.873   6.429  0.4838  1.9747 -0.8058
  950MOL0     H28216   6.707   9.750   6.458  0.4434 -3.2240 -0.5960
  950MOL0     H28217   6.766   9.863   6.332 -0.4669  0.3662  0.1570
  950MOL0     H28218   6.692   9.690   6.156  1.7220  0.8348  0.3401
  950MOL0     H28219   6.621   9.599   6.297 -1.5888 -0.1023 -1.0857
  950MOL0     H28220   6.554   9.885   6.248 -1.5754  0.5701  2.7448
  950MOL0     H28221   6.463   9.763   6.342 -1.3771 -2.5837 -1.2857
  950MOL0     H28222   6.513   9.740   6.040 -0.7114  4.0149 -0.3735
  950MOL0     H28223   6.400   9.654   6.144  1.3616 -0.5786  1.1184
  950MOL0     H28224   6.403   9.947   6.059  2.1051 -0.6530  2.0784
  950MOL0     H28225   6.296   9.883   6.184  0.4823  0.1063  0.6062
  950MOL0     H28226   6.319   9.759   5.904 -0.2687 -2.0286  0.0751
  950MOL0     H28227   6.211   9.710   6.041 -0.4803  0.5712  0.5681
  950MOL0     H28228   6.191   9.982   5.910  2.2953  1.1639  3.2345
  950MOL0     H28229   6.103   9.931   6.055 -0.0731  0.0213  0.3538
  950MOL0     H28230   6.014   9.733   5.919 -0.8875 -0.0545  0.2725
  950MOL0     H28231   6.101   9.804   5.773  0.1328 -0.4955 -0.0019
  950MOL0     H28232   6.929   9.620   6.097  0.7833 -0.8477  1.6820
  950MOL0     H28233   7.112   9.710   5.970 -0.9093 -0.4467  0.2073
  950MOL0     H28234   7.492   9.991   6.028 -1.2414 -0.2033 -1.1641
  950MOL0     H28235   7.678  10.123   5.911  0.7934 -2.7095 -1.8226
  950MOL0     H28236   6.333  10.297   6.549  1.8656 -0.1824 -2.7436
  950MOL0     H28237   6.086  10.307   6.576 -0.4451  1.4365 -2.8201
  950MOL0     H28238   5.698  10.201   6.495  0.3819 -1.2049 -0.1735
  950MOL0     H28239   5.474  10.227   6.504 -0.6389  2.4609  1.6126
  950MOL0     H28240   5.241  10.265   6.601 -0.5693 -0.2076 -4.1043
  950MOL0     H28241   5.262  10.128   6.500  1.6457 -1.3656  0.4390
  950MOL0     H28242   5.065  10.026   6.669 -1.2079  0.2032  1.8709
  950MOL0     H28243   5.026  10.127   6.523  0.7600 -1.4351 -0.8156
  950MOL0     H28244   5.017  10.339   6.677 -2.8661  1.8117  1.2106
  950MOL0     H28245   5.032  10.236   6.816  0.2576 -1.1265 -0.2221
  950MOL0     H28246   4.849  10.083   6.685  0.6495 -0.0818 -0.3700
  950MOL0     H28247   4.803  10.243   6.633 -0.8334 -0.7798 -0.3779
  950MOL0     H28248   4.658  10.218   7.036  0.9399 -3.9113  1.4224
  950MOL0     H28249   5.474  10.016   6.885 -0.9729 -1.0316 -1.4956
  950MOL0     H28250   5.718  10.000   6.871 -1.5763 -0.5952  0.5269
  951MOL0     O28251   8.901   6.612   7.285  0.3912  0.1173  0.1698
  951MOL0     C28252   8.817   6.564   7.357 -0.0320 -0.4463  0.4265
  951MOL0     O28253   8.842   6.495   7.475 -0.6142  0.4066 -0.0385
  951MOL0     C28254   8.976   6.486   7.526 -0.6759 -1.0253  0.3675
  951MOL0     C28255   9.057   6.597   7.542 -0.5753  0.4983  0.7045
  951MOL0     C28256   9.178   6.592   7.626  1.0476 -0.5732  0.2659
  951MOL0     C28257   9.222   6.473   7.678 -0.4525 -0.3217  0.4756
  951MOL0     O28258   9.350   6.477   7.737  0.3613  0.2889 -0.1786
  951MOL0     C28259   9.387   6.370   7.823  0.1919  0.2453 -0.7619
  951MOL0     C28260   9.502   6.402   7.923 -0.2305  0.5033  0.7975
  951MOL0     C28261   9.456   6.496   8.042  0.8852  0.6936  0.1622
  951MOL0     C28262   9.526   6.445   8.169 -0.6099 -0.4997  0.8448
  951MOL0     C28263   9.513   6.530   8.299  0.4313 -0.5159 -0.2752
  951MOL0     C28264   9.379   6.590   8.337  0.7087 -0.0768  0.2397
  951MOL0     C28265   9.282   6.492   8.403 -0.2697  0.1377  0.0494
  951MOL0     C28266   9.213   6.395   8.297  0.2265 -0.2657  0.0530
  951MOL0     N28267   9.154   6.270   8.356  0.1613 -0.8215 -0.2068
  951MOL0     C28268   9.055   6.279   8.455 -0.3618  0.9025 -0.1208
  951MOL0     C28269   9.011   6.155   8.461  0.4023  0.4506  0.3759
  951MOL0     C28270   8.910   6.084   8.548 -0.3617 -0.0052 -0.6064
  951MOL0     C28271   8.783   6.042   8.477 -0.0119 -0.0923 -0.1115
  951MOL0     C28272   8.702   5.949   8.570 -0.0339 -0.4666  0.7077
  951MOL0     C28273   8.598   5.869   8.484  0.4328  0.1992  0.0635
  951MOL0     O28274   8.519   5.797   8.575  0.3736 -0.8924  0.1149
  951MOL0     C28275   8.424   5.713   8.530  0.2408  0.0156 -0.6362
  951MOL0     C28276   8.410   5.592   8.591 -0.5704 -0.0237  0.0854
  951MOL0     C28277   8.314   5.495   8.559  0.0448 -0.5022  0.7551
  951MOL0     C28278   8.311   5.377   8.643  0.3080  0.4735  0.8715
  951MOL0     C28279   8.224   5.523   8.449 -0.6621 -0.1038 -0.3818
  951MOL0     C28280   8.146   5.426   8.373 -0.3983  0.4231 -0.1510
  951MOL0     O28281   8.069   5.485   8.270 -0.0805  0.6649 -0.4981
  951MOL0     C28282   8.005   5.410   8.177 -0.4639  0.9870 -0.0906
  951MOL0     C28283   8.071   5.310   8.105  0.1570 -0.2330 -0.7462
  951MOL0     C28284   7.995   5.241   8.006  0.0979 -0.4063 -0.3122
  951MOL0     C28285   7.862   5.263   7.981 -0.4057  0.4006  0.0032
  951MOL0     O28286   7.786   5.201   7.889  0.5390 -0.0653 -0.3643
  951MOL0     C28287   7.829   5.088   7.811 -0.9394  0.3773  0.2787
  951MOL0     C28288   7.724   4.972   7.811 -0.1493  0.1013  0.4374
  951MOL0     C28289   7.576   5.016   7.830 -0.0172  0.2779 -0.4096
  951MOL0     C28290   7.512   5.089   7.701  0.1388  0.7030 -0.2017
  951MOL0     C28291   7.363   5.086   7.689 -0.2955 -0.6081 -0.7034
  951MOL0     C28292   7.301   5.179   7.580  0.4360 -1.1074  0.0685
  951MOL0     C28293   7.146   5.185   7.590 -0.0386 -0.1888 -0.7083
  951MOL0     C28294   7.083   5.216   7.460  0.0414  0.3236  0.4194
  951MOL0    Cl28295   7.174   5.341   7.368  0.1269  0.1225  0.1689
  951MOL0     C28296   7.797   5.362   8.052 -0.0110  0.6130  0.1276
  951MOL0     C28297   7.868   5.429   8.161 -0.2539  0.0594  0.0379
  951MOL0     O28298   8.171   5.305   8.392  0.3530 -0.2518  0.0280
  951MOL0     C28299   8.237   5.652   8.396 -0.1903  0.0221 -0.4675
  951MOL0     C28300   8.337   5.742   8.426  0.5154 -0.5115 -0.7964
  951MOL0     N28301   9.071   6.076   8.362  0.8347  0.5850 -0.2482
  951MOL0     N28302   9.152   6.150   8.296 -0.4787 -0.6669  0.3172
  951MOL0     C28303   9.146   6.360   7.655  0.4567 -0.3680 -0.0367
  951MOL0     C28304   9.022   6.370   7.582 -0.6355 -0.1700 -0.4073
  951MOL0     C28305   8.673   6.573   7.319 -0.3057 -0.6745 -0.3198
  951MOL0     C28306   8.642   6.620   7.198  0.8068  0.6431  1.0244
  951MOL0     C28307   8.502   6.609   7.160 -0.3349  0.0015 -0.0116
  951MOL0     C28308   8.401   6.545   7.236  0.3872  0.2352 -0.7744
  951MOL0     O28309   8.283   6.532   7.170  0.7819 -0.0941  0.4821
  951MOL0     C28310   8.183   6.469   7.240 -0.4993  0.4859  0.5647
  951MOL0     C28311   8.057   6.476   7.154  0.8072 -0.5291 -0.5363
  951MOL0     C28312   7.945   6.425   7.240  0.3378  0.6632 -0.1465
  951MOL0     C28313   7.796   6.424   7.172 -0.1808  0.2302  0.0422
  951MOL0     C28314   7.697   6.386   7.273  0.0867  0.7033 -0.5242
  951MOL0     C28315   7.622   6.352   7.366  0.1242 -0.9369  0.3974
  951MOL0     C28316   8.440   6.515   7.366  0.3099  0.9353 -0.9414
  951MOL0     C28317   8.572   6.521   7.405  0.3214 -0.6051 -0.8526
  951MOL0     H28318   9.031   6.691   7.494  2.3239  0.9140 -0.2203
  951MOL0     H28319   9.229   6.685   7.647 -0.2881  0.7187 -1.8764
  951MOL0     H28320   9.304   6.340   7.887  0.3738 -2.0553 -1.5251
  951MOL0     H28321   9.412   6.284   7.761 -0.4567 -2.7585  2.8101
  951MOL0     H28322   9.545   6.308   7.959  1.2822 -1.4532 -5.0827
  951MOL0     H28323   9.587   6.445   7.869 -2.4839  2.2518 -1.6128
  951MOL0     H28324   9.478   6.601   8.017 -0.4838  0.6951 -1.1741
  951MOL0     H28325   9.348   6.486   8.042  0.8516  1.0204 -0.4743
  951MOL0     H28326   9.476   6.352   8.197 -1.4950  0.1526  1.5157
  951MOL0     H28327   9.630   6.422   8.147 -0.7897 -0.6964  0.1916
  951MOL0     H28328   9.546   6.460   8.377  1.6395 -0.0935 -0.3818
  951MOL0     H28329   9.584   6.613   8.299  1.7155 -1.5644  0.8312
  951MOL0     H28330   9.389   6.678   8.402 -2.3182  0.4945  0.0728
  951MOL0     H28331   9.333   6.638   8.251  1.1157 -0.9321 -0.4670
  951MOL0     H28332   9.340   6.431   8.473  1.1037  0.5815 -0.6732
  951MOL0     H28333   9.208   6.547   8.463  2.4730  1.9367  2.0308
  951MOL0     H28334   9.281   6.360   8.219  0.1851  1.4226 -0.7803
  951MOL0     H28335   9.133   6.450   8.247  0.1019  0.6277  1.1831
  951MOL0     H28336   9.027   6.364   8.516 -0.2611  0.6125  0.3399
  951MOL0     H28337   8.955   5.992   8.588 -1.5107  0.1313  1.1397
  951MOL0     H28338   8.883   6.151   8.630 -1.5220  1.0100 -1.7856
  951MOL0     H28339   8.803   5.978   8.390  0.0863 -0.0955 -0.0863
  951MOL0     H28340   8.738   6.134   8.437 -2.2502 -0.2723  1.7811
  951MOL0     H28341   8.639   6.013   8.634 -0.8914 -0.2642 -0.3141
  951MOL0     H28342   8.772   5.890   8.630 -1.0342 -0.0839  2.3232
  951MOL0     H28343   8.647   5.803   8.411  3.3035  1.2677  0.8908
  951MOL0     H28344   8.547   5.948   8.428  1.3431  0.6525 -0.1592
  951MOL0     H28345   8.486   5.572   8.666 -2.0700  0.6106  1.8413
  951MOL0     H28346   8.349   5.382   8.745 -1.3080 -0.0258  1.5336
  951MOL0     H28347   8.207   5.342   8.644 -0.2993  2.1872  1.5279
  951MOL0     H28348   8.373   5.308   8.585  1.0109  2.1202 -0.4129
  951MOL0     H28349   8.174   5.280   8.115  0.6861  0.7065 -2.9126
  951MOL0     H28350   8.041   5.162   7.946 -3.1192 -2.2681 -0.5418
  951MOL0     H28351   7.844   5.127   7.710 -1.9543  2.5749  0.9189
  951MOL0     H28352   7.918   5.040   7.852 -0.9775  0.1936  0.1455
  951MOL0     H28353   7.733   4.936   7.709 -3.9842 -2.1116  0.6665
  951MOL0     H28354   7.748   4.888   7.877 -1.4225 -1.0338 -0.4956
  951MOL0     H28355   7.560   5.061   7.928  0.0660  0.9627 -0.7049
  951MOL0     H28356   7.522   4.921   7.838  1.3446 -0.3248  2.9957
  951MOL0     H28357   7.551   5.192   7.700  0.6231  0.5192 -0.7711
  951MOL0     H28358   7.556   5.034   7.618  1.1195  1.8883 -0.5117
  951MOL0     H28359   7.330   5.114   7.790  3.2674 -0.1668  0.4735
  951MOL0     H28360   7.325   4.985   7.672 -1.9395 -0.7172  2.7010
  951MOL0     H28361   7.334   5.279   7.607  0.0792 -1.2051  0.8736
  951MOL0     H28362   7.330   5.148   7.479 -1.9564  0.3777 -1.1493
  951MOL0     H28363   7.111   5.257   7.664  0.5345 -0.7976  0.1729
  951MOL0     H28364   7.112   5.090   7.633 -2.1075  0.7412 -0.1582
  951MOL0     H28365   6.982   5.253   7.479 -0.9308 -0.5856 -2.4161
  951MOL0     H28366   7.072   5.128   7.396 -0.6608 -1.6840  3.1095
  951MOL0     H28367   7.694   5.381   8.021 -0.0732 -1.5910 -1.1822
  951MOL0     H28368   7.818   5.494   8.232  1.4360  1.2994  0.1624
  951MOL0     H28369   8.167   5.682   8.319  1.9954  0.8228 -2.2675
  951MOL0     H28370   8.326   5.840   8.380  2.0270  1.3574  2.4632
  951MOL0     H28371   9.163   6.260   7.694 -1.0584 -0.6859 -0.1349
  951MOL0     H28372   8.959   6.282   7.581 -1.7303  0.5743 -2.2758
  951MOL0     H28373   8.710   6.656   7.123 -0.4629  0.3476 -0.3176
  951MOL0     H28374   8.470   6.649   7.065 -3.0070  0.6752  1.0893
  951MOL0     H28375   8.212   6.368   7.270 -2.0740  0.0395  0.6713
  951MOL0     H28376   8.176   6.528   7.331  0.2712 -1.4955  1.9707
  951MOL0     H28377   8.075   6.413   7.066  1.6790 -2.4222  0.9337
  951MOL0     H28378   8.033   6.579   7.125  4.3908  1.1392  1.8409
  951MOL0     H28379   7.922   6.481   7.331  0.5537  1.5447 -0.6271
  951MOL0     H28380   7.977   6.326   7.274 -0.2868  0.3441 -0.4787
  951MOL0     H28381   7.791   6.357   7.086  0.3276  3.0058 -2.3141
  951MOL0     H28382   7.773   6.526   7.141  0.5297  0.8942  1.5980
  951MOL0     H28383   7.546   6.327   7.438 -2.5006  2.1419 -1.0257
  951MOL0     H28384   8.367   6.478   7.438  1.1235 -0.2185 -0.6805
  951MOL0     H28385   8.597   6.486   7.505  0.5324  0.1251 -0.6456
  952MOL0     O28386   7.757   7.750   0.664  0.4869 -0.1974 -0.4745
  952MOL0     C28387   7.860   7.807   0.630 -0.3814  0.7308  0.4197
  952MOL0     O28388   7.869   7.914   0.547 -0.0551 -0.7043 -0.7342
  952MOL0     C28389   7.768   7.977   0.479  0.4613  0.4879  0.1107
  952MOL0     C28390   7.796   8.097   0.430 -0.0317  0.2861 -0.2370
  952MOL0     C28391   7.706   8.177   0.361  0.1716  0.8615  0.7373
  952MOL0     C28392   7.583   8.118   0.318 -0.2537 -0.4036  0.2966
  952MOL0     O28393   7.501   8.184   0.225 -0.5323  0.0225  0.3463
  952MOL0     C28394   7.494   8.326   0.217  0.6226 -0.0210 -0.4162
  952MOL0     C28395   7.370   8.380   0.143  0.3723 -0.0663 -0.0737
  952MOL0     C28396   7.243   8.313   0.177 -0.5065  0.0572 -0.6178
  952MOL0     C28397   7.110   8.376   0.123  0.3877  0.2742 -0.0749
  952MOL0     C28398   6.982   8.308   0.178 -0.8950 -1.0759 -0.4706
  952MOL0     C28399   6.858   8.390   0.144 -0.2212  1.0895  0.5387
  952MOL0     C28400   6.735   8.309   0.149  0.0207 -0.1797  1.2091
  952MOL0     C28401   6.607   8.384   0.197  0.5618 -0.1924  0.2645
  952MOL0     N28402   6.617   8.448   0.325  0.3133 -0.2260 -0.4970
  952MOL0     C28403   6.665   8.386   0.435 -0.4975  0.1364 -0.2064
  952MOL0     C28404   6.698   8.489   0.513  0.5401  0.7388 -0.6692
  952MOL0     C28405   6.763   8.472   0.642  0.8157  0.0758  0.1413
  952MOL0     C28406   6.921   8.447   0.636  0.5629  0.1647  0.8586
  952MOL0     C28407   7.006   8.542   0.546 -0.8624  0.4038 -0.6602
  952MOL0     C28408   7.158   8.504   0.550  0.3063  0.4431 -0.5184
  952MOL0     O28409   7.204   8.511   0.689 -0.0090 -0.2439  0.4487
  952MOL0     C28410   7.331   8.463   0.716  0.6215  0.6720  0.4943
  952MOL0     C28411   7.383   8.482   0.848  0.0375 -0.1348 -0.5478
  952MOL0     C28412   7.513   8.441   0.890 -0.5620 -1.0167  0.0800
  952MOL0     C28413   7.552   8.476   1.035 -0.1763  0.0536 -0.1026
  952MOL0     C28414   7.587   8.363   0.798 -0.0392 -0.1442  0.3204
  952MOL0     C28415   7.723   8.321   0.822 -0.6303  0.4795 -0.2608
  952MOL0     O28416   7.792   8.264   0.717 -0.0056 -0.3338  0.2718
  952MOL0     C28417   7.931   8.270   0.724 -0.2977  0.5681 -0.0161
  952MOL0     C28418   8.017   8.182   0.790 -0.1634  0.1118  0.6593
  952MOL0     C28419   8.159   8.193   0.797 -0.7881 -0.7088 -0.0207
  952MOL0     C28420   8.227   8.299   0.731 -0.1643  0.5854  0.3459
  952MOL0     O28421   8.354   8.319   0.741 -0.0577  0.2904  0.2263
  952MOL0     C28422   8.387   8.429   0.832 -0.8119 -0.9761  0.0154
  952MOL0     C28423   8.523   8.492   0.796  0.0738  0.2080 -0.1171
  952MOL0     C28424   8.636   8.386   0.803  0.0430  1.0366 -0.8036
  952MOL0     C28425   8.670   8.347   0.954 -0.2372 -1.5147 -0.2484
  952MOL0     C28426   8.816   8.312   0.974  0.7894  0.3914 -0.8530
  952MOL0     C28427   8.836   8.164   0.939 -0.3048 -0.8476 -0.4724
  952MOL0     C28428   8.976   8.102   0.970 -0.0771  0.3319  0.2046
  952MOL0     C28429   9.038   8.141   1.105 -0.3026  0.9205 -0.3849
  952MOL0    Cl28430   9.198   8.068   1.120 -0.6751  0.3074 -0.5104
  952MOL0     C28431   8.149   8.379   0.658 -0.0306 -0.9192  0.2386
  952MOL0     C28432   8.006   8.382   0.663 -0.3747  0.5910 -0.1557
  952MOL0     O28433   7.785   8.353   0.928  0.6036  0.1046  0.2426
  952MOL0     C28434   7.533   8.344   0.673  0.7074  0.2234  0.5978
  952MOL0     C28435   7.412   8.391   0.627 -0.7126  0.1973  0.6964
  952MOL0     N28436   6.646   8.606   0.447  0.3389 -0.0431 -0.1875
  952MOL0     N28437   6.606   8.574   0.334  0.2962  0.2114 -1.1490
  952MOL0     C28438   7.555   7.992   0.367 -0.2531  0.3785  0.5247
  952MOL0     C28439   7.644   7.923   0.451 -0.2328  0.3684 -0.3531
  952MOL0     C28440   7.985   7.771   0.689 -0.4078 -0.2900  0.5064
  952MOL0     C28441   8.102   7.845   0.680  0.6722 -0.4028 -0.6640
  952MOL0     C28442   8.220   7.801   0.741  0.9115 -0.3003  0.1736
  952MOL0     C28443   8.228   7.670   0.801  0.2685 -0.6341 -0.5175
  952MOL0     O28444   8.331   7.600   0.851 -0.2937 -0.8556  0.9786
  952MOL0     C28445   8.463   7.659   0.833 -0.6234  0.3180 -0.6987
  952MOL0     C28446   8.514   7.673   0.685  0.1394 -0.1046  0.3529
  952MOL0     C28447   8.500   7.531   0.621 -1.0616 -0.0620 -0.1181
  952MOL0     C28448   8.513   7.553   0.467  0.4067 -0.1420  1.0594
  952MOL0     C28449   8.656   7.572   0.438 -0.2868 -0.6493  0.4179
  952MOL0     C28450   8.769   7.587   0.394 -0.0549 -0.0287 -0.1204
  952MOL0     C28451   8.112   7.595   0.805  0.1906  0.0269  0.1246
  952MOL0     C28452   7.995   7.650   0.751  0.7135 -0.2698 -0.5464
  952MOL0     H28453   7.894   8.144   0.437 -1.1124  2.3889  3.3695
  952MOL0     H28454   7.726   8.275   0.318  0.6482  0.0593 -0.9743
  952MOL0     H28455   7.489   8.374   0.315  1.4530  0.0870 -0.4223
  952MOL0     H28456   7.586   8.362   0.171 -0.2955 -0.1425 -2.4725
  952MOL0     H28457   7.345   8.485   0.163  0.0943  0.0113 -0.7917
  952MOL0     H28458   7.388   8.376   0.035 -0.3048  1.2555 -0.2508
  952MOL0     H28459   7.251   8.211   0.137 -0.1944 -0.0446 -0.3002
  952MOL0     H28460   7.227   8.312   0.285  0.1167 -0.1728 -0.5220
  952MOL0     H28461   7.106   8.483   0.143  1.3711  0.2869  0.1445
  952MOL0     H28462   7.111   8.368   0.014 -0.2574  0.8644 -0.1280
  952MOL0     H28463   6.968   8.208   0.137  1.3905 -0.5241 -2.8630
  952MOL0     H28464   6.992   8.310   0.287  1.8637  1.1312 -0.6444
  952MOL0     H28465   6.858   8.483   0.202 -0.6828  1.6884 -0.3908
  952MOL0     H28466   6.872   8.419   0.039  1.7865  3.3070  1.3408
  952MOL0     H28467   6.717   8.272   0.048  3.0665 -1.2515  0.9505
  952MOL0     H28468   6.753   8.227   0.219  0.7312 -1.1698 -0.0759
  952MOL0     H28469   6.532   8.306   0.216  1.2008 -0.8673  0.0783
  952MOL0     H28470   6.570   8.463   0.132  2.0774  3.4024  3.3797
  952MOL0     H28471   6.705   8.287   0.452  0.2231  0.6189  1.0387
  952MOL0     H28472   6.736   8.561   0.699  0.8800 -0.6687  1.3651
  952MOL0     H28473   6.714   8.396   0.704 -0.5341  0.9906  0.2448
  952MOL0     H28474   6.933   8.353   0.581  0.5542  0.7750 -0.2165
  952MOL0     H28475   6.960   8.454   0.737  1.0443  1.3156  0.6112
  952MOL0     H28476   6.992   8.643   0.585 -0.1585 -0.7608  3.0021
  952MOL0     H28477   6.970   8.532   0.443  0.0748 -0.4722 -0.9225
  952MOL0     H28478   7.221   8.573   0.493 -0.4547  0.9343 -0.7757
  952MOL0     H28479   7.171   8.401   0.514  4.3926  0.1603  1.2249
  952MOL0     H28480   7.313   8.533   0.914  0.5595 -0.7863  0.5306
  952MOL0     H28481   7.471   8.541   1.070  0.1005  1.6770 -2.2381
  952MOL0     H28482   7.552   8.380   1.087 -0.7648  0.8811  1.5092
  952MOL0     H28483   7.648   8.528   1.043  0.6803 -1.4960  0.1584
  952MOL0     H28484   7.981   8.087   0.828  3.1248 -0.6159  2.3399
  952MOL0     H28485   8.197   8.121   0.869  1.8028  1.3284  0.8136
  952MOL0     H28486   8.321   8.516   0.836  0.4973  0.0131  0.6707
  952MOL0     H28487   8.399   8.393   0.934  0.0125  0.4146  0.4342
  952MOL0     H28488   8.503   8.528   0.695 -2.3282  0.4166  0.3661
  952MOL0     H28489   8.554   8.570   0.866  0.7230 -1.5635  1.6622
  952MOL0     H28490   8.725   8.432   0.760  2.3780 -0.6273  1.8458
  952MOL0     H28491   8.625   8.295   0.743  3.6552  1.1139 -1.8176
  952MOL0     H28492   8.646   8.429   1.022  1.8505 -1.0894  0.0228
  952MOL0     H28493   8.601   8.273   0.997  0.0407 -0.6833  1.7399
  952MOL0     H28494   8.830   8.340   1.079 -0.2261  0.1082 -0.6328
  952MOL0     H28495   8.875   8.383   0.916  0.5142  2.2087  0.9768
  952MOL0     H28496   8.758   8.104   0.988  0.7187 -1.8416 -0.0086
  952MOL0     H28497   8.818   8.159   0.831 -0.2517 -1.7750 -0.4482
  952MOL0     H28498   9.048   8.119   0.890 -1.9350  0.7184 -1.4529
  952MOL0     H28499   8.963   7.993   0.974 -3.2254  0.6378  0.9966
  952MOL0     H28500   8.968   8.098   1.177 -1.0529  1.6036 -0.6994
  952MOL0     H28501   9.044   8.248   1.127  0.2435  0.1913  3.9822
  952MOL0     H28502   8.198   8.463   0.610 -2.5139  0.2591 -0.4180
  952MOL0     H28503   7.960   8.472   0.623 -1.9826  0.6972  1.7988
  952MOL0     H28504   7.588   8.288   0.598 -1.6381  0.1842 -1.1984
  952MOL0     H28505   7.380   8.369   0.526  2.4130  1.4771 -0.7120
  952MOL0     H28506   7.468   7.929   0.349  1.1288 -1.8623  1.2191
  952MOL0     H28507   7.608   7.828   0.487 -1.0039  0.6650 -0.3213
  952MOL0     H28508   8.109   7.936   0.621  0.3403  0.3818  0.4544
  952MOL0     H28509   8.307   7.866   0.748  1.4617 -1.0938  1.0030
  952MOL0     H28510   8.469   7.757   0.883  2.5546 -0.1841  0.1064
  952MOL0     H28511   8.537   7.603   0.890  2.3180  1.4004 -3.1857
  952MOL0     H28512   8.617   7.708   0.689  1.0254 -2.4862  0.2999
  952MOL0     H28513   8.449   7.742   0.632 -0.2383 -0.8985 -0.2361
  952MOL0     H28514   8.411   7.478   0.658  1.3344 -2.0816  3.3175
  952MOL0     H28515   8.585   7.469   0.651 -0.7892  0.4807  0.2500
  952MOL0     H28516   8.445   7.635   0.442 -3.1833 -2.6687  1.6564
  952MOL0     H28517   8.465   7.471   0.412  0.1666  0.2606  0.6634
  952MOL0     H28518   8.865   7.597   0.347 -0.7546  2.3772 -1.1992
  952MOL0     H28519   8.116   7.502   0.862  5.6503  1.0598  1.9940
  952MOL0     H28520   7.900   7.597   0.762 -1.0218  1.9850 -3.1971
  953MOL0     O28521   7.468   8.595   9.054  0.4130 -0.1207  0.0326
  953MOL0     C28522   7.488   8.481   9.009 -1.0121 -0.5529 -0.0959
  953MOL0     O28523   7.394   8.380   9.008 -0.3282  0.0521  0.3302
  953MOL0     C28524   7.258   8.402   9.033 -0.2697  0.8632 -0.3756
  953MOL0     C28525   7.175   8.511   9.009  0.5120  0.2452 -0.1889
  953MOL0     C28526   7.033   8.508   9.044  0.1382 -0.3929 -0.2658
  953MOL0     C28527   6.969   8.394   9.107 -0.4774  0.7378  0.1033
  953MOL0     O28528   6.836   8.367   9.132 -0.6002 -0.4304  0.9254
  953MOL0     C28529   6.749   8.473   9.090  0.0052  1.0717 -0.4177
  953MOL0     C28530   6.614   8.426   9.126  0.1919 -0.1265 -0.0383
  953MOL0     C28531   6.575   8.313   9.040 -0.7147 -0.1140  0.3879
  953MOL0     C28532   6.427   8.281   9.069  0.1380  0.1592 -0.2130
  953MOL0     C28533   6.383   8.175   8.976  0.7237 -0.1539 -0.0565
  953MOL0     C28534   6.228   8.140   8.999 -0.8180  0.3243  0.5690
  953MOL0     C28535   6.204   8.016   8.905 -0.6018  0.0375 -0.6447
  953MOL0     C28536   6.049   7.987   8.887 -0.0150 -0.3109  0.3575
  953MOL0     N28537   6.031   7.860   8.820  0.4929 -0.1438 -0.2692
  953MOL0     C28538   6.021   7.745   8.893  0.2369 -0.0591  0.0750
  953MOL0     C28539   6.056   7.640   8.807 -0.9055  1.0054  0.0700
  953MOL0     C28540   6.048   7.490   8.845 -0.0759 -0.2266  0.7624
  953MOL0     C28541   5.924   7.456   8.929 -0.2706 -1.0335  0.1734
  953MOL0     C28542   5.781   7.477   8.873  0.3715 -0.4315 -0.1093
  953MOL0     C28543   5.684   7.513   8.989 -0.6593  0.1583  0.0278
  953MOL0     O28544   5.563   7.539   8.920  0.0564  0.4282  0.7410
  953MOL0     C28545   5.456   7.541   8.996  0.1756 -0.8408  0.0771
  953MOL0     C28546   5.340   7.473   8.966  0.5342  0.5727  0.1173
  953MOL0     C28547   5.236   7.468   9.054  0.3347  0.2760 -0.0842
  953MOL0     C28548   5.107   7.404   8.998  0.0259  0.5187  0.4930
  953MOL0     C28549   5.237   7.539   9.175 -0.5134 -0.8794  0.0142
  953MOL0     C28550   5.116   7.546   9.268 -0.2229 -0.0391 -0.3019
  953MOL0     O28551   5.041   7.438   9.271  0.1474  0.6641 -0.3210
  953MOL0     C28552   4.942   7.438   9.363  0.0829  0.0475 -0.2541
  953MOL0     C28553   4.817   7.498   9.334  0.1306 -0.2321 -0.4649
  953MOL0     C28554   4.721   7.503   9.440  0.0870 -0.1236  0.3903
  953MOL0     C28555   4.741   7.446   9.571  0.0520  0.8129 -0.2398
  953MOL0     O28556   4.646   7.432   9.669 -0.0754  0.7156 -0.0301
  953MOL0     C28557   4.538   7.523   9.650 -0.3467  0.0724  0.1065
  953MOL0     C28558   4.443   7.528   9.772  1.7316  0.1445 -0.1911
  953MOL0     C28559   4.305   7.600   9.732  0.2965  0.1026  0.5054
  953MOL0     C28560   4.201   7.587   9.848  0.7996  0.1696 -1.0075
  953MOL0     C28561   4.239   7.658   9.976 -0.1812  0.0251 -0.4423
  953MOL0     C28562   4.132   7.668  10.088 -0.0081 -0.5170  0.4355
  953MOL0     C28563   4.202   7.723  10.216 -0.3463 -0.0217  0.7134
  953MOL0     C28564   4.103   7.742  10.327  0.0291 -0.6655 -0.6740
  953MOL0    Cl28565   4.193   7.804  10.468  0.1650 -0.0121  0.3945
  953MOL0     C28566   4.863   7.373   9.585  0.3339  0.2736 -0.0170
  953MOL0     C28567   4.961   7.377   9.482 -0.6337  0.2168  0.6315
  953MOL0     O28568   5.111   7.643   9.346 -0.0162 -0.3242  0.3197
  953MOL0     C28569   5.359   7.607   9.206 -0.5785 -0.8174  0.1873
  953MOL0     C28570   5.468   7.610   9.120 -0.0715  0.2823 -0.0018
  953MOL0     N28571   6.093   7.698   8.686  0.3262  0.1766  0.4708
  953MOL0     N28572   6.077   7.833   8.695  0.1464  0.7624  0.1833
  953MOL0     C28573   7.054   8.283   9.124 -0.1035 -0.0970 -0.2762
  953MOL0     C28574   7.193   8.286   9.087 -0.0865  0.0544  0.2238
  953MOL0     C28575   7.632   8.449   8.980 -0.4491  0.8070 -0.4954
  953MOL0     C28576   7.676   8.310   8.970 -0.5073  0.8805  1.0456
  953MOL0     C28577   7.812   8.274   8.948  0.6841 -0.3564 -0.1114
  953MOL0     C28578   7.907   8.374   8.946 -0.1303 -0.0919  0.7392
  953MOL0     O28579   8.041   8.330   8.938 -0.8801 -0.0011  0.0805
  953MOL0     C28580   8.148   8.420   8.955 -0.8491 -0.5748 -0.1234
  953MOL0     C28581   8.282   8.342   8.967  0.5172  0.3138  0.1631
  953MOL0     C28582   8.399   8.432   8.986 -0.7074 -0.2276 -0.5866
  953MOL0     C28583   8.525   8.355   9.010 -0.1851 -0.3725  0.1743
  953MOL0     C28584   8.636   8.452   8.995  0.8545  0.1771 -0.1531
  953MOL0     C28585   8.735   8.516   8.995 -0.0695  0.6614  0.0310
  953MOL0     C28586   7.871   8.510   8.962 -0.3100  0.7639  0.0840
  953MOL0     C28587   7.731   8.537   8.978  0.1464  0.0786  0.2422
  953MOL0     H28588   7.215   8.599   8.959 -1.3425  0.0410 -2.2003
  953MOL0     H28589   6.971   8.594   9.023 -1.2442 -1.4475 -0.6710
  953MOL0     H28590   6.772   8.564   9.146 -0.9016  1.2442 -0.2975
  953MOL0     H28591   6.756   8.495   8.983 -1.5101  0.5658 -0.6438
  953MOL0     H28592   6.625   8.388   9.228  1.5565  0.1561 -0.0554
  953MOL0     H28593   6.544   8.510   9.118  0.7081  0.2740 -0.4074
  953MOL0     H28594   6.597   8.334   8.935  2.2594  2.0084  1.2888
  953MOL0     H28595   6.641   8.227   9.057  1.1187  1.1260 -0.0488
  953MOL0     H28596   6.415   8.236   9.168  0.3874 -1.6219 -0.9565
  953MOL0     H28597   6.362   8.368   9.056 -1.8570 -1.4202 -1.2265
  953MOL0     H28598   6.408   8.185   8.870  1.5187 -1.3433  0.0046
  953MOL0     H28599   6.450   8.092   8.995  0.8071 -0.4295 -1.4097
  953MOL0     H28600   6.209   8.121   9.105 -0.3780  1.1874  0.8145
  953MOL0     H28601   6.162   8.220   8.963 -3.7568 -4.2330 -6.0476
  953MOL0     H28602   6.256   8.033   8.810  1.2905 -2.1851 -0.0730
  953MOL0     H28603   6.248   7.929   8.954  0.8924  2.1391  1.9297
  953MOL0     H28604   6.007   8.069   8.829 -0.2809 -0.3243  0.5326
  953MOL0     H28605   5.998   7.994   8.983 -1.8050 -0.0500 -0.5694
  953MOL0     H28606   5.997   7.733   8.999  1.3014 -0.2370  0.3039
  953MOL0     H28607   6.066   7.427   8.757  0.4141  2.7994 -1.4801
  953MOL0     H28608   6.130   7.467   8.915 -0.6354 -0.4034  1.3666
  953MOL0     H28609   5.924   7.513   9.023 -0.9681 -2.4355  1.0572
  953MOL0     H28610   5.929   7.350   8.953 -1.3567 -0.7365  1.8656
  953MOL0     H28611   5.755   7.389   8.814 -2.2202 -1.3457  2.2004
  953MOL0     H28612   5.792   7.570   8.816  1.3431  0.3194  1.2442
  953MOL0     H28613   5.733   7.597   9.038  2.4153 -0.7737 -1.1930
  953MOL0     H28614   5.682   7.433   9.064  0.1499  0.0036 -0.0984
  953MOL0     H28615   5.327   7.422   8.871 -0.3247  2.6086 -0.9320
  953MOL0     H28616   5.119   7.359   8.899 -0.5961  0.5079  0.4219
  953MOL0     H28617   5.071   7.323   9.062  0.6696 -1.2122 -1.2333
  953MOL0     H28618   5.024   7.476   8.995 -1.4584 -0.9450  3.0474
  953MOL0     H28619   4.789   7.543   9.240 -1.7459  2.7999  1.3797
  953MOL0     H28620   4.623   7.545   9.418 -0.0237 -0.6821 -0.2190
  953MOL0     H28621   4.576   7.625   9.635 -1.8828  0.6232 -0.2787
  953MOL0     H28622   4.478   7.487   9.565  1.7901 -1.2492 -0.9179
  953MOL0     H28623   4.425   7.427   9.811 -2.3954  1.5344  2.1263
  953MOL0     H28624   4.500   7.581   9.849  0.3429 -1.6589  2.2182
  953MOL0     H28625   4.264   7.558   9.640  1.6708  1.0124 -0.5810
  953MOL0     H28626   4.326   7.703   9.699  0.2490  0.3929  1.3556
  953MOL0     H28627   4.104   7.630   9.821  1.5045  1.2749 -1.8247
  953MOL0     H28628   4.191   7.480   9.868 -1.2038  0.5022  0.0070
  953MOL0     H28629   4.286   7.755   9.960 -2.3802  1.6047  1.8324
  953MOL0     H28630   4.317   7.600  10.025  0.4870  1.1546 -0.1308
  953MOL0     H28631   4.050   7.733  10.057  0.0219 -0.2791  0.8424
  953MOL0     H28632   4.079   7.575  10.111 -0.5868 -0.0002  1.2435
  953MOL0     H28633   4.235   7.821  10.182 -1.8170  0.0384 -0.6805
  953MOL0     H28634   4.285   7.655  10.239 -1.6408 -1.9380  0.0419
  953MOL0     H28635   4.058   7.646  10.354 -1.2425  0.1393  0.1732
  953MOL0     H28636   4.013   7.802  10.308 -0.2125  0.0997  2.3223
  953MOL0     H28637   4.877   7.325   9.681 -0.9691  0.7573  0.4402
  953MOL0     H28638   5.052   7.322   9.506  1.0564  2.1132 -1.0513
  953MOL0     H28639   5.357   7.660   9.300  1.3903  0.7763 -0.6121
  953MOL0     H28640   5.554   7.671   9.148  1.3221 -1.6401  0.1237
  953MOL0     H28641   7.009   8.196   9.172  1.9114 -0.2621  1.4784
  953MOL0     H28642   7.254   8.203   9.121 -2.2042 -1.7070 -0.0727
  953MOL0     H28643   7.605   8.227   8.971 -1.5854  1.7309 -0.4432
  953MOL0     H28644   7.839   8.172   8.923 -0.0038 -0.5383 -0.1147
  953MOL0     H28645   8.157   8.486   8.868  0.0658 -0.1786  0.2591
  953MOL0     H28646   8.131   8.479   9.046 -2.4213  1.2556 -1.5188
  953MOL0     H28647   8.305   8.276   8.883  2.0974  0.0115  0.7896
  953MOL0     H28648   8.270   8.274   9.052 -0.1777 -1.1857 -1.0830
  953MOL0     H28649   8.389   8.499   9.072  2.4487 -0.3175 -0.0430
  953MOL0     H28650   8.410   8.485   8.890  0.8362  0.5069 -0.0307
  953MOL0     H28651   8.538   8.278   8.933  0.2254  0.6140 -0.7752
  953MOL0     H28652   8.541   8.305   9.105  1.1943 -1.0420 -0.3786
  953MOL0     H28653   8.821   8.576   9.019 -0.6967  0.4377  3.3213
  953MOL0     H28654   7.947   8.587   8.960 -0.8405  1.3188  0.8919
  953MOL0     H28655   7.704   8.642   8.984 -0.9345 -0.2034  0.4387
  954MOL0     O28656   4.170   5.181   9.463 -0.1270  0.6124  0.1759
  954MOL0     C28657   4.215   5.246   9.558 -0.9901  0.1724  0.2595
  954MOL0     O28658   4.142   5.290   9.657  0.1427  0.3161 -0.1270
  954MOL0     C28659   4.006   5.328   9.650  1.3994  0.3321  0.4034
  954MOL0     C28660   3.933   5.328   9.769  0.6013  0.7525 -0.2216
  954MOL0     C28661   3.800   5.346   9.771 -0.4421 -0.3264 -0.6534
  954MOL0     C28662   3.719   5.375   9.657  0.3561  0.2426 -0.1468
  954MOL0     O28663   3.585   5.412   9.676  0.3757  1.0092 -0.5167
  954MOL0     C28664   3.499   5.455   9.573  0.4117  0.1624  0.0928
  954MOL0     C28665   3.375   5.528   9.640  0.2676  0.0108  0.1406
  954MOL0     C28666   3.247   5.529   9.551 -0.4669 -0.4406 -0.6724
  954MOL0     C28667   3.133   5.615   9.620 -0.3262  0.3562  1.0397
  954MOL0     C28668   3.002   5.611   9.537 -0.4258  0.7520  0.2133
  954MOL0     C28669   2.908   5.723   9.574 -0.2953 -1.5736  0.2070
  954MOL0     C28670   2.767   5.700   9.510 -0.1351 -0.5168 -0.7908
  954MOL0     C28671   2.696   5.842   9.495  0.4618  1.0753 -0.3251
  954MOL0     N28672   2.548   5.825   9.483 -0.2602  0.5374 -0.1864
  954MOL0     C28673   2.470   5.862   9.372  0.2309  0.6717  0.0661
  954MOL0     C28674   2.343   5.818   9.403 -0.1854  0.4564 -0.1386
  954MOL0     C28675   2.225   5.792   9.300 -0.3529 -0.5932 -0.4721
  954MOL0     C28676   2.233   5.664   9.216  0.1881 -0.0454  0.4005
  954MOL0     C28677   2.116   5.645   9.115 -0.0218  0.5266 -0.1352
  954MOL0     C28678   2.151   5.526   9.026 -0.0097 -0.1897 -0.1317
  954MOL0     O28679   2.163   5.408   9.110 -0.1966 -0.2319  0.0865
  954MOL0     C28680   2.280   5.339   9.081 -0.0608  0.7901  0.7583
  954MOL0     C28681   2.340   5.264   9.177  0.5189 -0.3435  0.1721
  954MOL0     C28682   2.453   5.174   9.156  0.3502 -0.1483  0.3060
  954MOL0     C28683   2.480   5.083   9.268  0.2948  0.0929  0.5607
  954MOL0     C28684   2.509   5.168   9.028 -0.3486  0.4739 -0.7487
  954MOL0     C28685   2.645   5.123   9.004 -0.2874 -0.3758 -0.3536
  954MOL0     O28686   2.702   5.139   8.890  0.0575 -0.0860 -0.3689
  954MOL0     C28687   2.820   5.081   8.864 -0.0232  0.3096 -0.4913
  954MOL0     C28688   2.820   4.944   8.840 -0.1956 -0.1814 -0.7982
  954MOL0     C28689   2.933   4.876   8.804  0.2786 -0.5630  0.5268
  954MOL0     C28690   3.051   4.946   8.790 -0.9346 -0.1860 -0.2158
  954MOL0     O28691   3.181   4.889   8.769  0.9720  0.5181 -0.7271
  954MOL0     C28692   3.293   4.955   8.706  0.2317 -0.2184 -0.3948
  954MOL0     C28693   3.374   4.868   8.609 -0.1404 -0.6720 -0.7264
  954MOL0     C28694   3.412   4.734   8.677 -0.7741  0.4355 -0.2488
  954MOL0     C28695   3.464   4.619   8.586 -0.3691  0.8428 -0.3566
  954MOL0     C28696   3.605   4.664   8.536  0.4659  0.3046 -0.7341
  954MOL0     C28697   3.673   4.538   8.476  0.6311 -0.0920  0.9767
  954MOL0     C28698   3.823   4.559   8.483 -0.8514 -0.2205  0.5241
  954MOL0     C28699   3.893   4.463   8.403  0.4042  1.0077 -1.4120
  954MOL0    Cl28700   3.931   4.312   8.490  0.0986  0.7792 -0.5320
  954MOL0     C28701   3.046   5.091   8.802  0.4821  0.0494 -0.6687
  954MOL0     C28702   2.932   5.153   8.848  0.6465 -0.4726 -0.3905
  954MOL0     O28703   2.701   5.065   9.098 -0.3038  0.1987  0.4393
  954MOL0     C28704   2.445   5.232   8.924 -0.1260  0.5508 -0.9409
  954MOL0     C28705   2.334   5.321   8.951 -0.3208  0.6571  0.8992
  954MOL0     N28706   2.340   5.758   9.527 -0.2118  0.0342  0.3339
  954MOL0     N28707   2.461   5.767   9.570  0.0131  0.1506 -0.4120
  954MOL0     C28708   3.786   5.365   9.539 -0.4736  1.0939  0.6553
  954MOL0     C28709   3.923   5.346   9.533 -0.2706  0.7237  0.8618
  954MOL0     C28710   4.362   5.262   9.570 -0.8007 -0.0763 -0.4591
  954MOL0     C28711   4.420   5.306   9.693  0.7609 -0.5828  0.4353
  954MOL0     C28712   4.556   5.309   9.716 -0.7817  0.5614 -0.2808
  954MOL0     C28713   4.642   5.258   9.620 -0.3462  0.2332 -0.3786
  954MOL0     O28714   4.779   5.275   9.625  0.4979 -0.1221 -1.1279
  954MOL0     C28715   4.829   5.265   9.754  0.3177 -0.4992 -0.1472
  954MOL0     C28716   4.968   5.203   9.762 -0.9477 -0.5700  0.0536
  954MOL0     C28717   5.067   5.284   9.681  0.4820 -0.2994  0.5279
  954MOL0     C28718   5.208   5.221   9.713 -0.2363  0.0694  0.3641
  954MOL0     C28719   5.313   5.267   9.618 -0.2570  0.0747  0.4675
  954MOL0     C28720   5.402   5.294   9.545  0.3663 -0.6682  0.3946
  954MOL0     C28721   4.585   5.221   9.498  0.2400 -0.2292  0.0829
  954MOL0     C28722   4.449   5.210   9.474  0.4429  0.4181  0.1331
  954MOL0     H28723   3.990   5.306   9.858  1.3289  0.5070 -0.7345
  954MOL0     H28724   3.750   5.354   9.867  0.6612  0.0673 -0.0995
  954MOL0     H28725   3.537   5.523   9.496 -1.2669  0.1890 -0.7583
  954MOL0     H28726   3.461   5.377   9.506  0.4348  0.9080 -0.8197
  954MOL0     H28727   3.348   5.453   9.715  1.8868 -0.6406  0.1154
  954MOL0     H28728   3.411   5.617   9.692 -0.1168 -0.9445  2.1387
  954MOL0     H28729   3.260   5.565   9.449 -0.1515 -0.7354 -0.7398
  954MOL0     H28730   3.216   5.424   9.547  2.9442 -1.6113  0.2251
  954MOL0     H28731   3.113   5.581   9.722  1.3353  3.2594  2.4677
  954MOL0     H28732   3.176   5.715   9.627 -0.9087  0.7440 -0.6342
  954MOL0     H28733   3.034   5.609   9.432  0.6424 -0.1910  0.5441
  954MOL0     H28734   2.959   5.512   9.553  1.5628 -0.2330 -0.2426
  954MOL0     H28735   2.889   5.731   9.681  0.5104  0.3581  0.2542
  954MOL0     H28736   2.953   5.818   9.544  2.8148 -3.1429 -0.4988
  954MOL0     H28737   2.771   5.658   9.409 -2.0104 -0.7766 -0.7977
  954MOL0     H28738   2.705   5.631   9.568  1.2055 -1.3883 -0.3657
  954MOL0     H28739   2.741   5.888   9.406  1.8014  2.1993  0.8910
  954MOL0     H28740   2.727   5.894   9.586  3.0419 -0.1131 -0.4471
  954MOL0     H28741   2.505   5.918   9.286 -0.1171  2.2602  0.9095
  954MOL0     H28742   2.136   5.794   9.363 -0.0273  2.9832  0.0933
  954MOL0     H28743   2.218   5.874   9.229  1.1290 -1.8597 -2.1679
  954MOL0     H28744   2.230   5.576   9.280  2.2608 -0.5916 -0.1719
  954MOL0     H28745   2.330   5.673   9.166 -0.4215 -0.6883 -0.9381
  954MOL0     H28746   2.104   5.737   9.057 -0.4261  0.3230 -0.3747
  954MOL0     H28747   2.025   5.632   9.175 -0.2089  1.9228 -0.0675
  954MOL0     H28748   2.246   5.540   8.973 -1.8623  1.6599 -3.2418
  954MOL0     H28749   2.065   5.514   8.960  0.3004 -0.1991 -0.5404
  954MOL0     H28750   2.293   5.256   9.275  1.1335 -1.7691  0.3798
  954MOL0     H28751   2.572   5.113   9.318  0.9109  1.8333 -1.4786
  954MOL0     H28752   2.399   5.093   9.342 -0.5455  1.1964 -0.4696
  954MOL0     H28753   2.489   4.984   9.223 -0.8503  0.7320 -1.1701
  954MOL0     H28754   2.732   4.886   8.867  0.6213 -1.1504 -0.1373
  954MOL0     H28755   2.927   4.769   8.791  0.7536 -0.9067  2.8544
  954MOL0     H28756   3.255   5.037   8.644  0.2797  0.2020  0.1267
  954MOL0     H28757   3.354   5.001   8.785  0.8689  0.2018 -1.1143
  954MOL0     H28758   3.316   4.855   8.518 -2.7878 -0.1042  0.7708
  954MOL0     H28759   3.462   4.926   8.578 -0.7498  0.0588 -1.1338
  954MOL0     H28760   3.337   4.692   8.744  2.4797 -0.2188  3.3245
  954MOL0     H28761   3.491   4.747   8.751 -1.0950 -1.4039  0.4672
  954MOL0     H28762   3.468   4.527   8.645  3.1714  0.6774 -0.6560
  954MOL0     H28763   3.395   4.603   8.503 -0.9988 -0.2361  0.3489
  954MOL0     H28764   3.672   4.693   8.617  1.5615 -0.4439 -1.3529
  954MOL0     H28765   3.582   4.741   8.461 -2.8922 -3.0285 -3.5659
  954MOL0     H28766   3.647   4.452   8.538  1.8973 -0.9617  0.3511
  954MOL0     H28767   3.648   4.527   8.370  3.1451 -1.5973  0.4437
  954MOL0     H28768   3.862   4.559   8.585  1.5088 -0.8062 -0.3266
  954MOL0     H28769   3.843   4.657   8.440 -0.9912  0.1788  1.3548
  954MOL0     H28770   3.992   4.505   8.380  0.8403  0.9371  0.2101
  954MOL0     H28771   3.838   4.433   8.314 -0.2559  0.1844 -0.7411
  954MOL0     H28772   3.134   5.152   8.791  1.8714 -1.7760 -0.2750
  954MOL0     H28773   2.918   5.259   8.869 -1.2540 -0.2328 -2.4942
  954MOL0     H28774   2.486   5.217   8.825  2.7989 -0.7473  0.3508
  954MOL0     H28775   2.280   5.368   8.870 -0.5686  1.2802  1.4148
  954MOL0     H28776   3.725   5.359   9.450  0.2745 -0.1801  0.1976
  954MOL0     H28777   3.969   5.332   9.436  1.8858 -0.8821  2.0393
  954MOL0     H28778   4.346   5.344   9.763  0.1955  0.5503 -0.7327
  954MOL0     H28779   4.580   5.360   9.809 -4.7397  0.0602  1.2470
  954MOL0     H28780   4.824   5.355   9.816 -0.0692 -1.0087  0.5971
  954MOL0     H28781   4.770   5.197   9.816  0.0406  0.4569  0.6657
  954MOL0     H28782   4.964   5.100   9.725  1.0405 -0.9635  0.8158
  954MOL0     H28783   5.008   5.203   9.863  1.6961  2.6412 -0.8098
  954MOL0     H28784   5.064   5.391   9.703  3.0449  0.3448 -1.7853
  954MOL0     H28785   5.031   5.265   9.580 -0.8083 -4.1985  1.5265
  954MOL0     H28786   5.208   5.113   9.701  2.2662 -0.2112  2.1934
  954MOL0     H28787   5.245   5.237   9.815 -2.0915 -1.1468  1.2811
  954MOL0     H28788   5.492   5.308   9.488 -0.7673  1.9666 -0.9524
  954MOL0     H28789   4.656   5.188   9.422  0.0369  0.5080 -0.4417
  954MOL0     H28790   4.412   5.162   9.385 -0.4471  0.4923  0.4528
  955MOL0     O28791   9.626   5.064   9.487  0.1922 -0.4665 -0.1709
  955MOL0     C28792   9.665   5.035   9.599 -0.5908  0.1143 -0.5193
  955MOL0     O28793   9.729   5.122   9.682 -0.1215  0.6622  0.7622
  955MOL0     C28794   9.768   5.242   9.630 -0.1798 -0.5079 -1.0110
  955MOL0     C28795   9.777   5.358   9.709  0.3689  0.9872  0.0763
  955MOL0     C28796   9.849   5.474   9.682 -0.1331  0.1996 -0.1863
  955MOL0     C28797   9.909   5.487   9.558  0.4881  0.2905 -0.7455
  955MOL0     O28798   9.966   5.606   9.528 -0.8794  0.1209  0.2364
  955MOL0     C28799  10.001   5.636   9.392  0.1816 -0.2254 -0.1223
  955MOL0     C28800  10.013   5.790   9.382  0.5362 -0.1265  0.2595
  955MOL0     C28801   9.883   5.865   9.398  0.4312 -0.1602 -0.0752
  955MOL0     C28802   9.891   6.013   9.384  1.1355 -0.3158 -0.7791
  955MOL0     C28803   9.760   6.079   9.427  0.0775 -0.3535  0.3033
  955MOL0     C28804   9.763   6.237   9.406  0.2238  1.0722  0.5047
  955MOL0     C28805   9.621   6.300   9.438 -0.0561 -0.4817 -0.0664
  955MOL0     C28806   9.625   6.453   9.448 -0.1272 -0.2884  1.0269
  955MOL0     N28807   9.498   6.517   9.410 -0.4527 -1.0898 -0.1648
  955MOL0     C28808   9.378   6.478   9.458 -0.3225  0.0514 -0.2792
  955MOL0     C28809   9.289   6.564   9.417 -0.8831  0.1740  0.1237
  955MOL0     C28810   9.140   6.561   9.442 -0.2396 -0.8512 -0.3172
  955MOL0     C28811   9.084   6.423   9.403 -0.2407  0.2201 -0.3125
  955MOL0     C28812   8.931   6.405   9.405 -0.8375  0.5462 -0.0249
  955MOL0     C28813   8.851   6.499   9.295 -0.5998  0.0196  0.3074
  955MOL0     O28814   8.706   6.500   9.323 -0.2280  0.6390 -0.1389
  955MOL0     C28815   8.625   6.396   9.290  0.1636 -0.7479 -0.4044
  955MOL0     C28816   8.489   6.411   9.311 -0.2788  0.4963  0.6660
  955MOL0     C28817   8.393   6.312   9.270 -0.0352 -0.2263  0.0151
  955MOL0     C28818   8.247   6.353   9.271 -0.0799 -0.3819  0.5615
  955MOL0     C28819   8.434   6.191   9.214  0.0026  0.3872 -1.0906
  955MOL0     C28820   8.359   6.080   9.154 -0.0712  0.1579  0.1030
  955MOL0     O28821   8.241   6.112   9.089 -0.4554 -0.5023  0.5702
  955MOL0     C28822   8.130   6.028   9.086  0.0306  0.1765  0.3623
  955MOL0     C28823   8.108   5.919   9.168  0.5952  0.2384 -0.2206
  955MOL0     C28824   7.999   5.835   9.152 -0.1312  0.5051  1.2195
  955MOL0     C28825   7.906   5.864   9.046 -1.0466 -0.4874  0.3305
  955MOL0     O28826   7.798   5.791   9.009  0.3125  0.2323  0.1736
  955MOL0     C28827   7.759   5.673   9.086  0.3715  0.4689  0.4506
  955MOL0     C28828   7.628   5.616   9.020 -0.1278  0.2771 -0.2478
  955MOL0     C28829   7.502   5.700   9.011 -1.0199 -0.2263 -0.0615
  955MOL0     C28830   7.383   5.625   9.057  0.4655  0.2711  0.4441
  955MOL0     C28831   7.255   5.699   9.039 -0.8604  0.4090  0.1149
  955MOL0     C28832   7.129   5.612   9.066 -0.7405 -0.3695  0.0530
  955MOL0     C28833   7.013   5.713   9.056  0.9277 -0.1671  0.5363
  955MOL0     C28834   6.884   5.635   9.015  0.1701 -0.0945  0.3098
  955MOL0    Cl28835   6.750   5.749   9.004 -0.0523 -0.5673 -0.2809
  955MOL0     C28836   7.925   5.966   8.966  0.0422 -0.7388 -1.0061
  955MOL0     C28837   8.036   6.053   8.986  0.5499  0.3222  0.5302
  955MOL0     O28838   8.395   5.963   9.167 -0.3539  0.2649  0.7450
  955MOL0     C28839   8.578   6.177   9.213 -0.0633  1.2167  0.2273
  955MOL0     C28840   8.665   6.272   9.248  0.5606 -0.0974  0.9481
  955MOL0     N28841   9.359   6.649   9.331 -0.2339 -0.5423 -0.2010
  955MOL0     N28842   9.487   6.624   9.325 -0.5773 -0.1667 -0.2774
  955MOL0     C28843   9.913   5.370   9.479  0.2581  0.1333 -0.2374
  955MOL0     C28844   9.846   5.250   9.519  0.2440 -0.1695 -0.0890
  955MOL0     C28845   9.621   4.899   9.655  0.4641 -1.2393 -0.1600
  955MOL0     C28846   9.546   4.805   9.584  0.5408 -0.6789 -0.4431
  955MOL0     C28847   9.502   4.684   9.643  0.3099 -0.5671  0.5431
  955MOL0     C28848   9.537   4.659   9.774  0.1982  0.6477 -0.0532
  955MOL0     O28849   9.505   4.539   9.840  0.1398 -0.2587  0.0031
  955MOL0     C28850   9.468   4.429   9.760 -0.8335 -0.0391  0.3430
  955MOL0     C28851   9.513   4.302   9.829 -0.3191  0.0553 -0.5745
  955MOL0     C28852   9.658   4.298   9.873 -1.0558 -0.5233  0.4815
  955MOL0     C28853   9.660   4.207   9.991  0.1224  0.1206 -0.9516
  955MOL0     C28854   9.629   4.070   9.973  0.8024  0.5044  0.3841
  955MOL0     C28855   9.595   3.954   9.968 -0.1391 -0.1687 -0.0620
  955MOL0     C28856   9.605   4.762   9.845 -0.0355  0.0681 -0.2461
  955MOL0     C28857   9.650   4.877   9.782 -0.6602  0.3024 -0.0795
  955MOL0     H28858   9.733   5.367   9.808 -0.6055 -1.8032 -0.0096
  955MOL0     H28859   9.866   5.541   9.766  1.4992 -0.0506 -0.2827
  955MOL0     H28860  10.094   5.598   9.349 -0.3865 -1.2606 -0.4673
  955MOL0     H28861   9.924   5.595   9.325  1.6569 -1.4313 -1.1379
  955MOL0     H28862  10.081   5.832   9.457 -0.2277  0.6355  0.5451
  955MOL0     H28863  10.049   5.808   9.280 -2.5608  1.1422 -0.7320
  955MOL0     H28864   9.812   5.835   9.320 -0.0751  1.2635 -0.1997
  955MOL0     H28865   9.841   5.839   9.495  0.7277  2.4835  0.8393
  955MOL0     H28866   9.965   6.050   9.455 -2.7427  1.4949  2.8264
  955MOL0     H28867   9.914   6.031   9.279  0.3734  1.5058 -0.6734
  955MOL0     H28868   9.680   6.031   9.369  0.6774 -3.3640  1.7554
  955MOL0     H28869   9.746   6.051   9.531 -1.6737 -0.3878  0.0816
  955MOL0     H28870   9.833   6.278   9.479  0.7791 -3.7205  3.1273
  955MOL0     H28871   9.794   6.270   9.307  0.5753 -0.6604  0.0012
  955MOL0     H28872   9.555   6.264   9.358 -0.4671 -1.1712  0.5727
  955MOL0     H28873   9.577   6.267   9.532  2.3957 -0.0590  1.3247
  955MOL0     H28874   9.707   6.495   9.390 -0.5973 -0.7592  0.0052
  955MOL0     H28875   9.649   6.483   9.551 -1.2783  0.6742  1.0328
  955MOL0     H28876   9.355   6.391   9.519  0.6394 -0.3467 -0.4691
  955MOL0     H28877   9.131   6.564   9.551  2.1849  0.4883 -0.0830
  955MOL0     H28878   9.083   6.642   9.396  3.2524  2.0028 -0.1304
  955MOL0     H28879   9.121   6.349   9.475  0.5194  0.8343 -0.0529
  955MOL0     H28880   9.116   6.391   9.303  2.0826 -1.3859  0.8560
  955MOL0     H28881   8.892   6.430   9.504  0.2749 -4.1346  1.9034
  955MOL0     H28882   8.903   6.301   9.387  0.1789  0.2001  0.3226
  955MOL0     H28883   8.866   6.453   9.197  0.9399  1.1962 -0.0442
  955MOL0     H28884   8.887   6.602   9.298 -3.2220  1.0230  2.5928
  955MOL0     H28885   8.453   6.509   9.342 -0.9034  1.2589 -2.1327
  955MOL0     H28886   8.175   6.276   9.300 -2.4697  2.3316  2.3491
  955MOL0     H28887   8.242   6.437   9.341  1.1232 -0.7000  1.0404
  955MOL0     H28888   8.228   6.391   9.170  2.1515  3.3938  1.3611
  955MOL0     H28889   8.172   5.893   9.252 -2.7241  0.1656  2.5079
  955MOL0     H28890   7.983   5.748   9.216 -1.8990 -1.8501 -2.1228
  955MOL0     H28891   7.822   5.584   9.080 -0.3930 -0.0661  0.2805
  955MOL0     H28892   7.738   5.696   9.190 -1.1341  0.8318  0.0901
  955MOL0     H28893   7.664   5.589   8.921  2.6011  1.2899  0.3821
  955MOL0     H28894   7.595   5.525   9.071 -0.3331 -0.7869 -2.1946
  955MOL0     H28895   7.484   5.749   8.915 -4.6789  2.0322  1.5597
  955MOL0     H28896   7.519   5.784   9.079  0.2503  0.3997 -1.1089
  955MOL0     H28897   7.383   5.532   8.999  1.2202 -0.0056  0.8703
  955MOL0     H28898   7.395   5.604   9.164  1.3526 -0.7306  0.1575
  955MOL0     H28899   7.252   5.744   8.939  0.6984 -2.7423 -1.4956
  955MOL0     H28900   7.253   5.779   9.113 -2.4545  2.3365 -1.8620
  955MOL0     H28901   7.130   5.543   8.982  0.3040 -1.0661  0.6186
  955MOL0     H28902   7.131   5.549   9.155 -0.6157 -1.8031 -0.9322
  955MOL0     H28903   7.037   5.794   8.986 -2.3955  2.2057  1.8789
  955MOL0     H28904   6.996   5.764   9.151 -1.9076  2.1041 -1.0246
  955MOL0     H28905   6.858   5.559   9.090 -2.9269  0.1168 -0.4375
  955MOL0     H28906   6.902   5.579   8.923  0.5675 -1.2382  1.0502
  955MOL0     H28907   7.849   5.991   8.893 -2.1514 -1.6531  0.8387
  955MOL0     H28908   8.047   6.145   8.929 -0.6619  0.9874  1.3132
  955MOL0     H28909   8.631   6.089   9.179  0.9454  0.8618  2.5782
  955MOL0     H28910   8.772   6.252   9.238  0.7899  1.7765 -0.9090
  955MOL0     H28911   9.977   5.365   9.392 -0.1264  0.1612 -0.5244
  955MOL0     H28912   9.854   5.158   9.461  1.2726 -0.1863  0.0589
  955MOL0     H28913   9.518   4.822   9.480 -0.3987 -0.6933 -0.2048
  955MOL0     H28914   9.443   4.611   9.589 -2.4031  1.6023  0.3484
  955MOL0     H28915   9.362   4.419   9.734 -1.4239 -0.0622  2.5727
  955MOL0     H28916   9.520   4.429   9.664  1.9717 -0.2145  1.7589
  955MOL0     H28917   9.507   4.224   9.753  0.8142 -1.3115  0.6770
  955MOL0     H28918   9.444   4.272   9.909  1.0935  2.4207  1.6841
  955MOL0     H28919   9.688   4.397   9.908  1.2337 -1.2293  0.7282
  955MOL0     H28920   9.723   4.267   9.790  1.1749 -1.6833  2.5468
  955MOL0     H28921   9.593   4.255  10.064 -1.5251  0.7940 -2.8169
  955MOL0     H28922   9.765   4.214  10.024 -0.3259  2.6363  0.2284
  955MOL0     H28923   9.548   3.858   9.960 -0.6732 -0.2413  2.8641
  955MOL0     H28924   9.651   4.741   9.941  1.6793 -0.1991 -1.0797
  955MOL0     H28925   9.711   4.944   9.841  2.3917 -2.4939  0.2617
  956MOL0     O28926   3.506   0.080   9.634 -0.0769 -0.1400 -0.1717
  956MOL0     C28927   3.571   0.038   9.538  0.0062 -0.2674 -0.0331
  956MOL0     O28928   3.545   0.064   9.406  0.4080 -0.0425 -0.1597
  956MOL0     C28929   3.424   0.114   9.364 -0.6393 -0.6656 -0.1616
  956MOL0     C28930   3.336   0.034   9.294  0.3110 -0.5355  0.0742
  956MOL0     C28931   3.214   0.082   9.254 -1.0161  0.6483  0.0411
  956MOL0     C28932   3.177   0.215   9.284  0.0966 -0.5116 -0.3570
  956MOL0     O28933   3.059   0.271   9.252 -0.0726 -0.4492 -0.2674
  956MOL0     C28934   2.952   0.180   9.244  0.1950  0.2954  0.6878
  956MOL0     C28935   2.836   0.264   9.191 -0.6163 -0.3051  0.6387
  956MOL0     C28936   2.700   0.196   9.202  0.0573  0.1018 -1.1092
  956MOL0     C28937   2.601   0.246   9.095  0.1147  0.1314  0.6182
  956MOL0     C28938   2.466   0.174   9.116 -0.2919  0.4503  0.3574
  956MOL0     C28939   2.352   0.212   9.025  0.2542 -1.0155  0.2988
  956MOL0     C28940   2.205   0.167   9.043  1.0981  0.8403 -0.2133
  956MOL0     C28941   2.179   0.022   8.984  0.5776 -1.1581 -0.6949
  956MOL0     N28942   2.048  -0.020   9.036  0.6334  0.2936  0.1379
  956MOL0     C28943   1.937  -0.007   8.953  0.2281  0.3721  0.1010
  956MOL0     C28944   1.832  -0.022   9.037  0.3529 -1.2018 -0.6171
  956MOL0     C28945   1.689  -0.002   8.996  0.2913 -0.2126 -0.1057
  956MOL0     C28946   1.584  -0.023   9.110 -0.0449  1.1543 -0.5604
  956MOL0     C28947   1.445  -0.006   9.045 -0.2035  0.0414 -0.0208
  956MOL0     C28948   1.337  -0.038   9.151 -0.4821  0.2787  0.1878
  956MOL0     O28949   1.321  -0.181   9.174 -0.0016 -0.2586 -0.4693
  956MOL0     C28950   1.207  -0.212   9.249 -0.6180 -0.2348 -0.0735
  956MOL0     C28951   1.133  -0.137   9.337  0.3293 -0.5596  0.2300
  956MOL0     C28952   1.016  -0.172   9.395 -0.5869  0.0786  1.1387
  956MOL0     C28953   0.938  -0.051   9.446  0.4245 -0.2258  0.0415
  956MOL0     C28954   0.967  -0.302   9.374 -0.2888  0.0992  0.1866
  956MOL0     C28955   0.854  -0.359   9.451  0.3025  0.1631  0.2305
  956MOL0     O28956   0.843  -0.503   9.444 -0.4040  0.0505 -0.5269
  956MOL0     C28957   0.747  -0.568   9.527  0.7957 -0.8020 -0.0181
  956MOL0     C28958   0.708  -0.691   9.485  0.2942 -0.2380  1.1859
  956MOL0     C28959   0.611  -0.767   9.552  0.5455 -0.7452  0.0023
  956MOL0     C28960   0.546  -0.714   9.668 -0.0442 -0.9810  0.3908
  956MOL0     O28961   0.461  -0.793   9.735 -0.0478  0.2108 -0.3956
  956MOL0     C28962   0.367  -0.725   9.825  0.5021  0.6300  0.0721
  956MOL0     C28963   0.271  -0.821   9.892  0.1206 -0.2299  0.3214
  956MOL0     C28964   0.221  -0.927   9.787 -0.2363 -0.1278 -0.3013
  956MOL0     C28965   0.123  -1.024   9.856 -0.5248 -0.0154 -0.4306
  956MOL0     C28966   0.039  -1.096   9.754  0.3306  0.0064  0.3766
  956MOL0     C28967  -0.066  -1.178   9.834  0.0737 -0.3198 -0.2551
  956MOL0     C28968  -0.122  -1.296   9.756  0.7747  0.5353  0.6775
  956MOL0     C28969  -0.010  -1.388   9.712  0.4486  0.0465 -0.0934
  956MOL0    Cl28970  -0.076  -1.522   9.611  0.5467  0.1358  0.0953
  956MOL0     C28971   0.581  -0.585   9.705 -0.2056  0.2087  0.2037
  956MOL0     C28972   0.684  -0.516   9.639 -0.0333  0.3590 -0.0192
  956MOL0     O28973   0.776  -0.289   9.512  0.2025  0.1264  0.1223
  956MOL0     C28974   1.041  -0.387   9.284  0.1994  0.5541  0.3762
  956MOL0     C28975   1.159  -0.342   9.219 -0.4817 -0.0753 -0.4944
  956MOL0     N28976   1.882  -0.062   9.164 -0.7219 -0.5066  0.2997
  956MOL0     N28977   2.013  -0.053   9.166 -0.0163 -0.0488 -0.3639
  956MOL0     C28978   3.276   0.292   9.359  0.2939 -0.6669  0.1071
  956MOL0     C28979   3.403   0.249   9.393 -0.4010 -0.7933 -0.4531
  956MOL0     C28980   3.698  -0.038   9.565 -0.3499 -0.2296 -0.1640
  956MOL0     C28981   3.770  -0.094   9.463 -0.2810  0.8872  0.7257
  956MOL0     C28982   3.896  -0.148   9.496 -0.0800 -0.0025  0.8404
  956MOL0     C28983   3.957  -0.147   9.617  0.1781  1.1107  0.7504
  956MOL0     O28984   4.087  -0.174   9.635  0.4830 -0.1331  0.0261
  956MOL0     C28985   4.115  -0.244   9.755  0.4451 -0.5937 -0.7098
  956MOL0     C28986   4.241  -0.325   9.736 -0.3180 -0.4466 -0.3543
  956MOL0     C28987   4.292  -0.391   9.867  0.8225 -0.3006 -0.4795
  956MOL0     C28988   4.192  -0.503   9.925  0.3865 -0.0181 -0.2453
  956MOL0     C28989   4.186  -0.489  10.074 -0.1448  0.9344 -0.4196
  956MOL0     C28990   4.171  -0.466  10.192  0.1521  0.2471  0.2932
  956MOL0     C28991   3.876  -0.091   9.714 -0.1283 -0.6355  0.4837
  956MOL0     C28992   3.745  -0.048   9.692  0.3153 -0.0297 -0.5149
  956MOL0     H28993   3.357  -0.066   9.257 -0.3981 -0.3559 -0.8863
  956MOL0     H28994   3.155   0.009   9.198  1.5779 -0.3584 -1.5554
  956MOL0     H28995   2.971   0.102   9.169  0.2117  2.7978 -2.1227
  956MOL0     H28996   2.931   0.133   9.340  2.0703 -0.4317  0.7960
  956MOL0     H28997   2.822   0.363   9.234 -0.0033  1.0192 -2.0310
  956MOL0     H28998   2.852   0.274   9.084 -0.6918  1.8595  0.8004
  956MOL0     H28999   2.723   0.089   9.190 -0.5121 -0.4241  1.7146
  956MOL0     H29000   2.654   0.206   9.301 -1.3881 -1.8472 -1.5267
  956MOL0     H29001   2.590   0.355   9.101 -1.6288  0.0231 -0.0016
  956MOL0     H29002   2.634   0.218   8.994 -0.1655  1.9052 -0.0053
  956MOL0     H29003   2.472   0.066   9.104 -1.8174  0.5051 -1.2358
  956MOL0     H29004   2.437   0.204   9.217  1.1582 -1.9755  1.5777
  956MOL0     H29005   2.357   0.321   9.025  0.4573 -0.9233  3.6080
  956MOL0     H29006   2.381   0.182   8.923  0.5992 -0.2234  0.1544
  956MOL0     H29007   2.187   0.171   9.151  1.5278  0.7388 -0.1364
  956MOL0     H29008   2.145   0.248   9.002  1.9602  1.5791 -0.0276
  956MOL0     H29009   2.264  -0.037   9.019  1.2734  0.1056 -0.1505
  956MOL0     H29010   2.171   0.032   8.876 -0.5044 -2.3250 -0.7417
  956MOL0     H29011   1.935   0.014   8.847  1.8672 -2.1740 -0.5283
  956MOL0     H29012   1.674   0.093   8.943 -1.4698 -0.4625 -0.0969
  956MOL0     H29013   1.663  -0.071   8.916 -1.7280 -0.2854  0.5643
  956MOL0     H29014   1.591   0.054   9.188 -2.1021  0.7981  0.0355
  956MOL0     H29015   1.583  -0.118   9.163 -1.0908  1.8229  0.6840
  956MOL0     H29016   1.437  -0.065   8.953  1.2991  1.8496 -1.3924
  956MOL0     H29017   1.431   0.097   9.012 -2.2047 -0.7213 -1.7256
  956MOL0     H29018   1.247  -0.000   9.101  0.2139 -2.0176 -3.1437
  956MOL0     H29019   1.358   0.015   9.244  1.1510 -0.0576  0.0469
  956MOL0     H29020   1.166  -0.036   9.358  0.4604 -0.5516 -0.0229
  956MOL0     H29021   0.849  -0.037   9.385 -0.2520  0.3414  1.1120
  956MOL0     H29022   0.907  -0.068   9.550  0.7938 -2.9417 -0.2122
  956MOL0     H29023   1.000   0.039   9.444 -1.3163  1.1928  2.5992
  956MOL0     H29024   0.755  -0.730   9.395  2.1641  1.1813  1.4790
  956MOL0     H29025   0.597  -0.870   9.520 -2.7597 -0.9187  1.5820
  956MOL0     H29026   0.410  -0.679   9.914 -0.9384 -0.1846  1.2313
  956MOL0     H29027   0.315  -0.650   9.764  0.6311 -0.5259 -1.5260
  956MOL0     H29028   0.323  -0.875   9.971  1.4681 -1.4815 -1.3269
  956MOL0     H29029   0.189  -0.755   9.922  0.0927  0.5252 -1.2900
  956MOL0     H29030   0.306  -0.983   9.746  0.5832  0.0558  1.0736
  956MOL0     H29031   0.164  -0.881   9.705 -0.4879  0.8316  0.3942
  956MOL0     H29032   0.183  -1.098   9.909 -0.2496  1.6436  1.6839
  956MOL0     H29033   0.056  -0.979   9.930 -2.1372 -1.5325 -0.9002
  956MOL0     H29034   0.106  -1.157   9.693 -0.3374 -0.6367  0.2634
  956MOL0     H29035  -0.007  -1.034   9.676  2.4019 -0.7048 -1.5181
  956MOL0     H29036  -0.026  -1.232   9.920 -2.0351 -1.7358 -0.0963
  956MOL0     H29037  -0.146  -1.113   9.870  0.5423 -0.4641  1.1085
  956MOL0     H29038  -0.187  -1.267   9.672 -0.5249  0.3551  1.5868
  956MOL0     H29039  -0.185  -1.356   9.823  1.2815  0.1988  0.8600
  956MOL0     H29040   0.036  -1.438   9.798 -1.6213  1.7084  2.1410
  956MOL0     H29041   0.059  -1.335   9.646 -0.5995 -0.3033 -1.5192
  956MOL0     H29042   0.535  -0.535   9.789  1.8298 -1.0662  2.1884
  956MOL0     H29043   0.727  -0.431   9.690 -3.1565  1.5094  0.9103
  956MOL0     H29044   0.992  -0.483   9.268  0.9896  0.2664 -0.3719
  956MOL0     H29045   1.200  -0.409   9.145  1.8944  0.3368  0.3520
  956MOL0     H29046   3.251   0.394   9.385 -4.0074 -1.6610  0.7268
  956MOL0     H29047   3.476   0.305   9.451  0.0515 -2.4645  0.6465
  956MOL0     H29048   3.734  -0.094   9.361 -1.0210  1.3177  0.9779
  956MOL0     H29049   3.945  -0.191   9.409  1.3839  0.7765  1.2419
  956MOL0     H29050   4.123  -0.160   9.824 -1.6422  0.2195 -1.4094
  956MOL0     H29051   4.031  -0.306   9.786 -0.8212  1.7804  0.8189
  956MOL0     H29052   4.313  -0.253   9.695 -0.8743 -0.1330 -0.7965
  956MOL0     H29053   4.220  -0.405   9.665  1.8535 -2.2103  0.8593
  956MOL0     H29054   4.306  -0.318   9.948 -2.1390 -0.2820  0.1384
  956MOL0     H29055   4.390  -0.433   9.847  1.0911  0.9135 -1.9021
  956MOL0     H29056   4.247  -0.597   9.911  0.5120 -0.2111  1.3362
  956MOL0     H29057   4.093  -0.520   9.880 -0.4460 -1.5358  1.9809
  956MOL0     H29058   4.134  -0.444  10.290 -0.8550  2.3134 -0.5027
  956MOL0     H29059   3.910  -0.088   9.817 -2.8628 -2.1383  1.5411
  956MOL0     H29060   3.701  -0.003   9.781  0.5710 -0.8557  0.0352
  957MOL0     O29061   5.734   0.599   1.363  0.5083 -0.2271 -0.3365
  957MOL0     C29062   5.707   0.553   1.472 -0.0141 -0.2818  0.1565
  957MOL0     O29063   5.592   0.560   1.536  1.2671  0.5878  0.1141
  957MOL0     C29064   5.480   0.624   1.493  0.7723  0.0157  0.0046
  957MOL0     C29065   5.466   0.747   1.426 -0.0851 -0.1662  0.4707
  957MOL0     C29066   5.341   0.794   1.368 -0.3163 -0.3527  0.0248
  957MOL0     C29067   5.223   0.729   1.397 -0.2014 -0.1356  0.3341
  957MOL0     O29068   5.114   0.794   1.350 -0.9989  0.0536 -0.4744
  957MOL0     C29069   4.990   0.748   1.409 -0.5769 -0.0171  0.1715
  957MOL0     C29070   4.876   0.829   1.347  0.3112  0.2962  0.0097
  957MOL0     C29071   4.751   0.838   1.449 -0.2042 -0.4241  0.0142
  957MOL0     C29072   4.626   0.888   1.375  0.1084  0.2064  0.4557
  957MOL0     C29073   4.515   0.927   1.479 -0.4695 -0.3632  0.0728
  957MOL0     C29074   4.406   1.008   1.395 -0.1832  0.5148  0.3422
  957MOL0     C29075   4.300   1.082   1.479  0.2979 -0.1650 -0.1826
  957MOL0     C29076   4.204   1.156   1.381 -1.7007  1.5843  0.0920
  957MOL0     N29077   4.126   1.254   1.449  0.4153 -0.6581  0.1630
  957MOL0     C29078   4.023   1.228   1.532  0.6913 -0.2025  0.3769
  957MOL0     C29079   3.960   1.350   1.549 -0.0032  0.3726  0.5553
  957MOL0     C29080   3.844   1.393   1.638 -0.2010 -0.1871  0.6793
  957MOL0     C29081   3.711   1.406   1.560  0.0307 -0.0240 -0.8587
  957MOL0     C29082   3.596   1.438   1.664  0.4937  0.2176  0.8058
  957MOL0     C29083   3.473   1.467   1.577  0.1837  0.2672 -0.5053
  957MOL0     O29084   3.417   1.341   1.550  0.7801  0.1810 -0.5055
  957MOL0     C29085   3.310   1.336   1.466  0.0677 -0.5209 -0.2692
  957MOL0     C29086   3.291   1.219   1.388  0.5712 -0.0984  0.1181
  957MOL0     C29087   3.175   1.208   1.314  0.4231  0.4459  0.2727
  957MOL0     C29088   3.155   1.078   1.231 -0.4157  0.1820 -0.0181
  957MOL0     C29089   3.064   1.300   1.335  0.2015  0.3938  0.7215
  957MOL0     C29090   2.928   1.290   1.269 -0.3650  0.3306 -0.4549
  957MOL0     O29091   2.818   1.300   1.354 -0.1596  0.1164 -0.2612
  957MOL0     C29092   2.711   1.358   1.292  0.1525 -0.3148 -0.7559
  957MOL0     C29093   2.702   1.435   1.170 -0.2374  0.3705 -0.3742
  957MOL0     C29094   2.589   1.495   1.129  0.1792 -0.1588  0.2370
  957MOL0     C29095   2.467   1.472   1.203 -0.2811  0.6338 -0.6398
  957MOL0     O29096   2.342   1.515   1.164 -0.2408 -0.6772  0.5162
  957MOL0     C29097   2.327   1.564   1.023 -0.0496  0.2228  0.4494
  957MOL0     C29098   2.181   1.579   0.977 -0.4690  0.1408 -0.8553
  957MOL0     C29099   2.094   1.674   1.067  0.6329 -0.4309 -0.5588
  957MOL0     C29100   1.950   1.659   1.033 -0.2396  0.1693  0.2294
  957MOL0     C29101   1.855   1.786   1.076 -0.2545  0.1370  0.6599
  957MOL0     C29102   1.709   1.773   1.039  0.6917  0.0943  0.7959
  957MOL0     C29103   1.643   1.906   1.081 -0.4677  0.6765 -0.2754
  957MOL0     C29104   1.493   1.908   1.064  0.5375  0.0602 -0.1588
  957MOL0    Cl29105   1.420   1.771   1.159  0.3433  0.5222  0.2672
  957MOL0     C29106   2.467   1.395   1.320  0.2370 -0.0897 -0.4341
  957MOL0     C29107   2.593   1.342   1.362 -0.0863 -1.2044  0.0568
  957MOL0     O29108   2.936   1.268   1.147  0.5035  0.1816  0.1362
  957MOL0     C29109   3.076   1.395   1.426  0.2820 -0.1212 -0.7172
  957MOL0     C29110   3.195   1.423   1.488 -0.7697 -0.1212  0.4017
  957MOL0     N29111   4.030   1.446   1.473 -0.2748 -0.2821  0.3928
  957MOL0     N29112   4.125   1.385   1.414 -0.1596 -0.2642 -0.1301
  957MOL0     C29113   5.231   0.613   1.472 -0.1948 -0.6623 -0.5777
  957MOL0     C29114   5.353   0.561   1.519 -0.0089  0.4300  0.4131
  957MOL0     C29115   5.810   0.476   1.537  0.8418  0.2873 -0.3471
  957MOL0     C29116   5.939   0.485   1.501  0.9768 -0.3727  0.1823
  957MOL0     C29117   6.041   0.408   1.564  0.1988 -0.5508  0.2694
  957MOL0     C29118   6.014   0.321   1.670  0.1868  0.9307  1.0275
  957MOL0     O29119   6.110   0.244   1.730 -0.8537  0.1671  0.0619
  957MOL0     C29120   6.214   0.314   1.811  0.8654 -0.2667 -0.2167
  957MOL0     C29121   6.327   0.226   1.853  0.0367 -0.1909 -0.2034
  957MOL0     C29122   6.299   0.081   1.882 -0.1198  0.6939 -0.4136
  957MOL0     C29123   6.226   0.043   2.017 -0.0150  0.0715 -0.1966
  957MOL0     C29124   6.085   0.088   2.025 -0.7087 -0.3769 -0.7193
  957MOL0     C29125   5.967   0.104   2.034  0.6470  0.2251 -0.0521
  957MOL0     C29126   5.877   0.313   1.710 -0.2542 -0.2531  0.5596
  957MOL0     C29127   5.778   0.394   1.649 -0.3423 -0.0948  0.5607
  957MOL0     H29128   5.553   0.809   1.408 -0.4741  0.3695  0.3895
  957MOL0     H29129   5.337   0.872   1.293  1.8656 -0.1519  0.0497
  957MOL0     H29130   4.967   0.644   1.385 -0.7512  0.1645 -0.4785
  957MOL0     H29131   4.990   0.764   1.517  0.3211  1.5237 -0.0263
  957MOL0     H29132   4.904   0.932   1.327  0.6753  0.5695  1.7423
  957MOL0     H29133   4.853   0.784   1.250 -0.3040  0.9609 -0.1630
  957MOL0     H29134   4.733   0.737   1.486  3.6535 -1.8604 -1.4853
  957MOL0     H29135   4.777   0.906   1.531  0.9083 -1.5849  0.6539
  957MOL0     H29136   4.662   0.973   1.316  3.7571  0.0841  2.2364
  957MOL0     H29137   4.586   0.810   1.309 -0.3371  0.5465  0.3181
  957MOL0     H29138   4.479   0.838   1.531  1.1591 -0.1951  1.5573
  957MOL0     H29139   4.560   0.991   1.556 -0.0473 -1.6701  0.9357
  957MOL0     H29140   4.464   1.079   1.335 -2.5893  1.3081 -1.1865
  957MOL0     H29141   4.351   0.942   1.327  0.9242  1.4838 -1.5856
  957MOL0     H29142   4.238   1.007   1.528 -1.2521  1.1155 -0.0931
  957MOL0     H29143   4.334   1.152   1.555 -2.4884  1.3013 -0.1510
  957MOL0     H29144   4.144   1.077   1.334 -3.3086  0.4622  3.6612
  957MOL0     H29145   4.263   1.220   1.315  0.6227  1.0375  1.5190
  957MOL0     H29146   3.985   1.135   1.574 -1.3228 -0.4973 -1.8842
  957MOL0     H29147   3.828   1.315   1.713 -1.7953 -0.2048  0.3488
  957MOL0     H29148   3.860   1.487   1.690  1.8775 -1.8521  3.3383
  957MOL0     H29149   3.692   1.306   1.521 -2.2797  0.2242 -0.5167
  957MOL0     H29150   3.712   1.473   1.473  0.1752  2.1903  0.7575
  957MOL0     H29151   3.626   1.521   1.728  0.1129  0.8495  0.1803
  957MOL0     H29152   3.575   1.348   1.724  0.7786  0.4755  1.2982
  957MOL0     H29153   3.484   1.534   1.491 -2.3973  2.0606  0.4701
  957MOL0     H29154   3.405   1.521   1.643  0.6679  1.5498 -1.0280
  957MOL0     H29155   3.373   1.148   1.381 -0.7550 -1.8546  1.3849
  957MOL0     H29156   3.162   1.116   1.129  0.4117 -1.2458 -0.5277
  957MOL0     H29157   3.227   0.997   1.249  0.4373  1.2451  1.6117
  957MOL0     H29158   3.057   1.034   1.253 -1.2574  2.3011  0.6966
  957MOL0     H29159   2.796   1.457   1.119 -0.4423  0.4705 -0.7130
  957MOL0     H29160   2.580   1.554   1.039  0.5174  1.0328  0.9504
  957MOL0     H29161   2.366   1.666   1.013  2.5626 -0.7150  0.0431
  957MOL0     H29162   2.398   1.509   0.959 -0.3018  0.5166 -0.0802
  957MOL0     H29163   2.173   1.598   0.870  0.9710 -1.9383 -1.3966
  957MOL0     H29164   2.137   1.479   0.972 -0.9318  0.3513 -1.0070
  957MOL0     H29165   2.134   1.771   1.035  4.5772 -1.5988  0.1969
  957MOL0     H29166   2.115   1.676   1.174 -1.2167  2.9782 -0.1182
  957MOL0     H29167   1.954   1.641   0.925  0.4797  1.5920  0.0010
  957MOL0     H29168   1.912   1.570   1.085 -0.8205 -0.6879 -1.5407
  957MOL0     H29169   1.902   1.873   1.029  2.9964 -1.7703  0.1102
  957MOL0     H29170   1.854   1.796   1.185 -1.6284 -0.9116  0.7857
  957MOL0     H29171   1.693   1.757   0.932 -2.3619 -1.1340  1.3360
  957MOL0     H29172   1.666   1.687   1.091  1.2916 -0.5941  0.1739
  957MOL0     H29173   1.687   1.989   1.025  0.9895 -1.8034 -3.0622
  957MOL0     H29174   1.658   1.914   1.189 -1.1346 -1.3355  0.0072
  957MOL0     H29175   1.463   1.896   0.960  0.1759  2.0542 -0.3252
  957MOL0     H29176   1.447   2.000   1.100 -0.8020  0.5827 -2.9241
  957MOL0     H29177   2.376   1.375   1.377 -0.7070 -0.2826 -1.9604
  957MOL0     H29178   2.605   1.281   1.451  1.3032 -2.8454 -1.1657
  957MOL0     H29179   2.998   1.467   1.452 -0.1528 -0.0507 -2.1116
  957MOL0     H29180   3.214   1.501   1.561 -0.3383 -0.1538  0.3264
  957MOL0     H29181   5.135   0.567   1.495 -1.7315  2.1561 -0.8803
  957MOL0     H29182   5.349   0.467   1.573  1.3836 -0.1677 -0.4809
  957MOL0     H29183   5.963   0.532   1.406  2.6476 -0.1239  0.6821
  957MOL0     H29184   6.137   0.402   1.515  1.1256 -1.3674  2.0685
  957MOL0     H29185   6.255   0.401   1.759 -2.3114  0.8831 -1.0292
  957MOL0     H29186   6.155   0.359   1.892  1.1730  0.8338 -0.5879
  957MOL0     H29187   6.392   0.274   1.927  0.7180  1.7270 -1.9414
  957MOL0     H29188   6.387   0.231   1.761  2.6298  0.2355  1.4265
  957MOL0     H29189   6.398   0.035   1.888 -0.3532  0.3390  2.1892
  957MOL0     H29190   6.252   0.036   1.794  1.4150 -2.4829  0.2220
  957MOL0     H29191   6.285   0.093   2.094 -0.9564  0.3403  0.3791
  957MOL0     H29192   6.225  -0.065   2.034  5.0936  0.0634  1.8650
  957MOL0     H29193   5.861   0.112   2.041  0.4621 -0.1338 -1.9201
  957MOL0     H29194   5.839   0.247   1.787 -0.3485  1.1495  1.7683
  957MOL0     H29195   5.679   0.386   1.693  0.6134 -1.0922  2.6842
  958MOL0     O29196   6.211   6.570   0.343 -0.2948 -1.2386 -0.0526
  958MOL0     C29197   6.216   6.544   0.224 -1.0338 -0.3266  0.1062
  958MOL0     O29198   6.106   6.520   0.144 -0.2991  0.0014  0.7379
  958MOL0     C29199   5.987   6.527   0.199  0.6191  0.2149  0.0167
  958MOL0     C29200   5.883   6.594   0.126 -0.1352  0.0416  0.9349
  958MOL0     C29201   5.755   6.607   0.177  0.7911  0.6462  1.3054
  958MOL0     C29202   5.717   6.550   0.300 -0.2539  0.0692  0.5536
  958MOL0     O29203   5.585   6.559   0.342  0.0156  0.1057 -0.5240
  958MOL0     C29204   5.530   6.692   0.349  0.2174 -0.1367  0.5665
  958MOL0     C29205   5.402   6.686   0.264 -0.0018  0.8843 -0.5302
  958MOL0     C29206   5.292   6.603   0.313 -0.1716 -0.0658  0.7297
  958MOL0     C29207   5.177   6.673   0.361 -0.3358  0.3031 -0.4124
  958MOL0     C29208   5.059   6.584   0.399  0.0628 -0.2103 -0.0729
  958MOL0     C29209   4.947   6.655   0.476 -0.0382 -0.1821  0.2375
  958MOL0     C29210   4.838   6.562   0.522  0.3880  0.8548 -0.7434
  958MOL0     C29211   4.716   6.635   0.581 -0.2620 -0.1732  0.2747
  958MOL0     N29212   4.618   6.531   0.618 -0.0472  0.7131 -0.1142
  958MOL0     C29213   4.505   6.514   0.546  0.4673  0.2184  0.3910
  958MOL0     C29214   4.457   6.400   0.592 -0.0745  0.0962  0.6426
  958MOL0     C29215   4.331   6.337   0.544 -0.0858  0.6919 -0.7725
  958MOL0     C29216   4.210   6.396   0.612 -0.1063  0.4079  0.2845
  958MOL0     C29217   4.087   6.310   0.575 -0.0268 -0.1054 -0.2383
  958MOL0     C29218   3.963   6.346   0.650  0.9044  0.0829 -0.1565
  958MOL0     O29219   3.939   6.490   0.642  0.2690 -0.2195 -0.0662
  958MOL0     C29220   3.825   6.526   0.716  0.1443  0.0708 -1.0307
  958MOL0     C29221   3.831   6.536   0.858  0.1705  0.7981 -0.7279
  958MOL0     C29222   3.718   6.580   0.940  0.2485 -0.5679  0.2536
  958MOL0     C29223   3.734   6.585   1.087  0.8593  1.0078 -0.4509
  958MOL0     C29224   3.589   6.610   0.875  0.0405 -0.2211 -0.2671
  958MOL0     C29225   3.462   6.663   0.943  0.0016  0.0306  0.2351
  958MOL0     O29226   3.373   6.729   0.860  0.3096 -0.3964 -1.0889
  958MOL0     C29227   3.249   6.767   0.912  0.3691 -0.0717  0.0325
  958MOL0     C29228   3.248   6.881   0.988 -0.1054  0.1555 -0.1778
  958MOL0     C29229   3.131   6.914   1.044  0.1003 -0.8834  1.1150
  958MOL0     C29230   3.011   6.836   1.026 -0.1487  0.6480  0.3143
  958MOL0     O29231   2.891   6.857   1.095 -0.2425 -0.0523 -0.0987
  958MOL0     C29232   2.866   6.991   1.149 -0.4568 -0.2538  1.0563
  958MOL0     C29233   2.710   7.014   1.161  0.0134 -0.5731  0.8000
  958MOL0     C29234   2.631   6.909   1.233  0.6773 -0.3313  0.4776
  958MOL0     C29235   2.477   6.941   1.219 -0.0638  0.0987  0.0125
  958MOL0     C29236   2.374   6.832   1.259  0.5806 -0.1349 -0.5842
  958MOL0     C29237   2.238   6.895   1.274 -0.1225 -0.8092 -0.1561
  958MOL0     C29238   2.129   6.801   1.330 -0.8691 -0.3128 -0.8233
  958MOL0     C29239   1.998   6.875   1.351  0.7507  0.3570 -0.2576
  958MOL0    Cl29240   1.857   6.763   1.330  0.2443  0.5076  0.4001
  958MOL0     C29241   3.020   6.723   0.949 -0.5146 -0.2609  0.4568
  958MOL0     C29242   3.139   6.694   0.886  0.1148 -0.1847 -0.2598
  958MOL0     O29243   3.440   6.638   1.059  0.3087  0.4403  0.0564
  958MOL0     C29244   3.591   6.601   0.732  0.0968  0.3189  0.0890
  958MOL0     C29245   3.699   6.557   0.656 -0.0668 -0.5638  0.3385
  958MOL0     N29246   4.536   6.356   0.699  0.1385 -0.6210  1.0104
  958MOL0     N29247   4.630   6.441   0.719 -0.7851 -0.3752 -0.7936
  958MOL0     C29248   5.814   6.467   0.362 -0.3189  0.2901 -0.7775
  958MOL0     C29249   5.951   6.453   0.317  0.8562 -0.1237  0.6113
  958MOL0     C29250   6.360   6.541   0.174  0.8174  0.3459  0.9518
  958MOL0     C29251   6.475   6.581   0.243  0.2490  0.0855 -0.0072
  958MOL0     C29252   6.607   6.561   0.196  0.2508  0.2129  0.3564
  958MOL0     C29253   6.616   6.503   0.062 -0.3197  0.0999  0.6870
  958MOL0     O29254   6.743   6.475  -0.000  0.8243 -0.8342 -0.6647
  958MOL0     C29255   6.832   6.407   0.085 -0.5229 -1.1762  0.3357
  958MOL0     C29256   6.943   6.336   0.008 -0.4362  0.0519 -0.1439
  958MOL0     C29257   7.043   6.269   0.111  0.4017 -0.1178 -0.9321
  958MOL0     C29258   7.129   6.369   0.203 -0.0662 -0.5039 -0.6604
  958MOL0     C29259   7.244   6.413   0.119 -0.2295 -0.1536  0.3357
  958MOL0     C29260   7.341   6.424   0.045  0.4105  0.1738 -0.4742
  958MOL0     C29261   6.512   6.452  -0.004 -0.1326 -0.0575  0.0175
  958MOL0     C29262   6.387   6.476   0.048  0.6745  0.0092  0.2184
  958MOL0     H29263   5.923   6.627   0.030  2.1710  3.1172  2.7627
  958MOL0     H29264   5.672   6.650   0.121  1.7749 -2.2578 -2.7961
  958MOL0     H29265   5.496   6.728   0.447 -0.1035  1.5900 -0.1494
  958MOL0     H29266   5.598   6.771   0.317  1.9842 -0.8293  2.3734
  958MOL0     H29267   5.370   6.783   0.224  1.2620  1.4800 -0.1398
  958MOL0     H29268   5.423   6.627   0.174 -3.3455 -0.8305 -0.3716
  958MOL0     H29269   5.265   6.543   0.226 -0.6226 -0.5672  1.2146
  958MOL0     H29270   5.337   6.532   0.383 -0.9695 -0.4520  0.8561
  958MOL0     H29271   5.203   6.747   0.437  0.3695  1.2326 -1.5159
  958MOL0     H29272   5.144   6.736   0.278  0.3819 -0.6284 -1.4371
  958MOL0     H29273   5.016   6.529   0.315  1.5626  0.5285 -1.3627
  958MOL0     H29274   5.104   6.506   0.461  0.4358 -0.3580 -0.5260
  958MOL0     H29275   4.985   6.718   0.557 -1.5318  1.4409 -0.2688
  958MOL0     H29276   4.900   6.730   0.412  2.7457  2.6762  1.3081
  958MOL0     H29277   4.791   6.509   0.439  3.9459 -0.0154 -2.4101
  958MOL0     H29278   4.893   6.499   0.593  0.1129  1.8561  0.4008
  958MOL0     H29279   4.674   6.693   0.499 -0.0864  1.8509  1.5265
  958MOL0     H29280   4.738   6.697   0.669 -0.3264 -2.1699  1.7547
  958MOL0     H29281   4.466   6.565   0.458 -4.5947 -0.1833  2.0338
  958MOL0     H29282   4.313   6.358   0.438  3.7913 -3.1231 -2.5573
  958MOL0     H29283   4.327   6.228   0.555 -1.3229  0.3317 -3.8390
  958MOL0     H29284   4.191   6.498   0.579 -1.3474  0.1401  0.0906
  958MOL0     H29285   4.229   6.392   0.720  1.8168  0.4315 -0.0226
  958MOL0     H29286   4.110   6.210   0.612 -0.9480 -0.9085 -1.7394
  958MOL0     H29287   4.071   6.315   0.467  2.9884 -1.5697 -0.8521
  958MOL0     H29288   3.984   6.307   0.751  0.2919 -0.7738 -0.3433
  958MOL0     H29289   3.874   6.288   0.624  1.6347 -1.7704  1.2098
  958MOL0     H29290   3.918   6.505   0.915 -0.1369  0.1051 -0.6193
  958MOL0     H29291   3.659   6.529   1.143 -2.3344  2.9606 -2.4610
  958MOL0     H29292   3.831   6.540   1.110  0.0809 -0.9810 -0.9043
  958MOL0     H29293   3.719   6.686   1.128  0.7510  0.1244  1.8128
  958MOL0     H29294   3.343   6.929   1.010 -1.0015  1.0473  2.0408
  958MOL0     H29295   3.128   7.006   1.102 -2.3234  1.4223 -2.2591
  958MOL0     H29296   2.901   6.987   1.252  0.9026  0.1808  0.6312
  958MOL0     H29297   2.910   7.075   1.093 -4.3449  3.4280  2.9444
  958MOL0     H29298   2.700   7.113   1.207 -1.0860  0.6341 -1.7884
  958MOL0     H29299   2.659   7.031   1.065 -0.0659  3.2119  1.3592
  958MOL0     H29300   2.660   6.910   1.338 -1.1098 -0.7868  1.0188
  958MOL0     H29301   2.657   6.809   1.196 -1.0501 -0.2523 -1.1045
  958MOL0     H29302   2.461   7.029   1.281 -1.1721 -1.3239  1.8471
  958MOL0     H29303   2.447   6.966   1.116  2.5377  1.1577 -0.5736
  958MOL0     H29304   2.411   6.792   1.354 -1.2677  0.5520  0.4661
  958MOL0     H29305   2.371   6.749   1.187  0.0098 -1.4727  0.9149
  958MOL0     H29306   2.249   6.986   1.334  2.4002 -2.2094  1.6959
  958MOL0     H29307   2.208   6.940   1.180 -0.0583  1.7732  0.9809
  958MOL0     H29308   2.166   6.761   1.425 -2.7598  2.4391  1.2408
  958MOL0     H29309   2.113   6.717   1.262  0.6821 -1.6091  0.3323
  958MOL0     H29310   1.979   6.957   1.282  2.3854  2.0733  1.2268
  958MOL0     H29311   2.011   6.926   1.446 -1.4104  1.3412 -0.4317
  958MOL0     H29312   2.936   6.660   0.921  0.5713 -0.3822 -3.0772
  958MOL0     H29313   3.138   6.615   0.812  1.5128  1.7824 -2.5414
  958MOL0     H29314   3.501   6.611   0.673 -0.4155 -0.9397  0.6004
  958MOL0     H29315   3.687   6.553   0.548 -2.6441 -1.2668  0.5805
  958MOL0     H29316   5.798   6.406   0.451 -1.7044  2.8027  0.7947
  958MOL0     H29317   6.027   6.391   0.363  0.4940  0.2703  1.7663
  958MOL0     H29318   6.463   6.636   0.336 -3.3431 -0.5736  0.0710
  958MOL0     H29319   6.695   6.600   0.247 -0.0951  1.7597 -0.1522
  958MOL0     H29320   6.868   6.478   0.160 -0.8943 -2.6417  1.9528
  958MOL0     H29321   6.777   6.333   0.144 -1.0839  1.1288  2.9069
  958MOL0     H29322   6.996   6.412  -0.050 -0.5421  0.6934  0.5826
  958MOL0     H29323   6.908   6.264  -0.066 -4.2071  2.3131 -0.7902
  958MOL0     H29324   7.113   6.205   0.056  2.4539  1.7213 -0.5934
  958MOL0     H29325   6.984   6.210   0.182  0.8048 -0.2589 -0.7112
  958MOL0     H29326   7.171   6.309   0.284  0.8043  0.7038 -0.1861
  958MOL0     H29327   7.071   6.452   0.246 -0.3688 -1.2604  0.4414
  958MOL0     H29328   7.433   6.441  -0.007  0.7130  2.5312  0.6743
  958MOL0     H29329   6.538   6.397  -0.094  2.4013 -0.9464  1.1738
  958MOL0     H29330   6.305   6.438  -0.011  0.7141  3.3706 -2.3491
  959MOL0     O29331   3.926   5.649   8.656  0.1877  0.1945  0.3158
  959MOL0     C29332   3.986   5.639   8.759  0.3028  0.0330 -0.2034
  959MOL0     O29333   3.942   5.650   8.891  0.0056 -0.3187  0.1773
  959MOL0     C29334   3.822   5.692   8.908  0.6315 -1.2710  0.8437
  959MOL0     C29335   3.738   5.622   8.994  0.3775  0.3641  0.1255
  959MOL0     C29336   3.607   5.663   9.013  0.0676 -0.4684 -0.1327
  959MOL0     C29337   3.557   5.783   8.950 -0.0609  0.6280  0.2765
  959MOL0     O29338   3.432   5.836   8.976  0.2839  1.4091 -0.1132
  959MOL0     C29339   3.327   5.737   8.992 -0.3589 -0.2166 -0.4489
  959MOL0     C29340   3.202   5.815   9.006  1.1526  0.7196 -0.4282
  959MOL0     C29341   3.073   5.727   9.002  0.4359 -0.1781 -0.4736
  959MOL0     C29342   2.956   5.817   8.958  0.2723  0.1419 -0.4757
  959MOL0     C29343   2.817   5.760   8.989  0.4125 -0.4642 -0.2975
  959MOL0     C29344   2.786   5.613   8.928  0.1453  0.6598  0.3547
  959MOL0     C29345   2.635   5.561   8.942  0.5428  0.2621  0.5888
  959MOL0     C29346   2.534   5.606   8.834 -1.1659  0.7890 -0.0771
  959MOL0     N29347   2.478   5.737   8.853 -0.2642  0.2113 -0.5194
  959MOL0     C29348   2.410   5.812   8.757 -1.0733 -0.2853  0.3854
  959MOL0     C29349   2.342   5.902   8.824  0.0948  0.4920  0.9415
  959MOL0     C29350   2.233   5.989   8.773 -0.0085 -0.5980  0.5383
  959MOL0     C29351   2.122   5.924   8.687  0.3616  1.1736 -0.0688
  959MOL0     C29352   2.056   5.808   8.773 -0.3138  0.1889 -0.2814
  959MOL0     C29353   1.938   5.737   8.704  0.1765  0.5146  0.1624
  959MOL0     O29354   1.856   5.658   8.794  0.4878 -0.5826  0.5651
  959MOL0     C29355   1.759   5.585   8.746  0.5423  0.4178 -0.3078
  959MOL0     C29356   1.682   5.527   8.837 -0.0359  0.4502 -0.3028
  959MOL0     C29357   1.572   5.440   8.801 -0.4726 -0.3355 -0.8459
  959MOL0     C29358   1.510   5.367   8.925  0.5300  0.1647  1.0430
  959MOL0     C29359   1.552   5.408   8.662  0.0443  0.3779  0.0954
  959MOL0     C29360   1.425   5.337   8.614 -0.3878  0.4075  0.2857
  959MOL0     O29361   1.388   5.360   8.480 -0.3932  0.2587 -0.0899
  959MOL0     C29362   1.264   5.310   8.444  0.4013 -0.1237 -0.0417
  959MOL0     C29363   1.243   5.189   8.383  0.6925  0.3625 -0.2591
  959MOL0     C29364   1.113   5.144   8.346  0.8689 -0.3701 -0.0901
  959MOL0     C29365   1.003   5.231   8.353 -0.4426  0.3342  0.4887
  959MOL0     O29366   0.884   5.181   8.306 -0.3815  0.6054 -0.0597
  959MOL0     C29367   0.763   5.252   8.326 -0.3320  0.2739  0.1350
  959MOL0     C29368   0.638   5.165   8.287  0.5266  0.2060  0.0171
  959MOL0     C29369   0.640   5.111   8.144  0.0650 -0.3270  0.3982
  959MOL0     C29370   0.526   5.011   8.119  0.1193  0.0858  0.2015
  959MOL0     C29371   0.540   4.948   7.975 -0.7374  0.7686 -0.5895
  959MOL0     C29372   0.408   4.894   7.913 -0.8038 -0.8831  1.4444
  959MOL0     C29373   0.362   4.771   7.974 -0.1795 -0.7569 -0.6860
  959MOL0     C29374   0.258   4.697   7.889  0.7549 -0.2293 -0.5393
  959MOL0    Cl29375   0.130   4.812   7.858 -0.0800  0.4798  0.1631
  959MOL0     C29376   1.021   5.350   8.430  0.4717  0.6598 -0.0570
  959MOL0     C29377   1.149   5.386   8.482  0.0076 -0.2088  0.0581
  959MOL0     O29378   1.353   5.284   8.698  0.2206 -0.5920  0.0180
  959MOL0     C29379   1.635   5.473   8.568 -0.0600 -0.4541 -0.0560
  959MOL0     C29380   1.729   5.569   8.611  0.3020  0.7418  0.3659
  959MOL0     N29381   2.365   5.880   8.957  0.5179  0.0005  0.3877
  959MOL0     N29382   2.442   5.791   8.977 -0.6090  0.8280  0.2139
  959MOL0     C29383   3.636   5.854   8.861 -1.8215 -0.3330  0.2792
  959MOL0     C29384   3.771   5.810   8.844  0.0761  0.0359 -0.2784
  959MOL0     C29385   4.128   5.596   8.757 -0.3394 -0.9767 -0.5123
  959MOL0     C29386   4.218   5.618   8.866  0.2287 -0.0960 -0.7487
  959MOL0     C29387   4.349   5.577   8.862  0.0649 -0.6579 -0.6406
  959MOL0     C29388   4.397   5.522   8.746  0.0955 -0.9916 -0.1163
  959MOL0     O29389   4.530   5.478   8.740  0.6978 -0.3801 -0.3509
  959MOL0     C29390   4.587   5.478   8.616  0.3211 -0.0756 -0.0405
  959MOL0     C29391   4.736   5.437   8.644  0.2893 -0.1129 -0.6822
  959MOL0     C29392   4.822   5.519   8.549  0.2913  0.6281 -0.6499
  959MOL0     C29393   4.972   5.502   8.589  0.4832  1.2521 -0.4759
  959MOL0     C29394   5.057   5.511   8.473 -0.5472  0.4304 -0.3729
  959MOL0     C29395   5.120   5.520   8.371 -0.0751 -0.0893 -0.4190
  959MOL0     C29396   4.314   5.523   8.630 -0.0568  0.1181  0.6454
  959MOL0     C29397   4.179   5.551   8.637 -0.1955  0.9760 -0.3068
  959MOL0     H29398   3.778   5.527   9.028 -2.0612 -1.0791 -0.7853
  959MOL0     H29399   3.547   5.597   9.075  0.3338 -1.1872 -0.6186
  959MOL0     H29400   3.319   5.662   8.914 -1.0409  1.8157 -2.4407
  959MOL0     H29401   3.340   5.702   9.095  1.2075  0.3295 -0.4389
  959MOL0     H29402   3.207   5.868   9.102 -1.3297 -0.5626  0.5120
  959MOL0     H29403   3.203   5.886   8.923  2.4007  0.7209 -0.4279
  959MOL0     H29404   3.072   5.652   8.922 -1.9359 -2.4928  1.5512
  959MOL0     H29405   3.044   5.686   9.099 -2.3392  2.8380  0.1506
  959MOL0     H29406   2.953   5.914   9.007 -0.7876  0.4344 -1.0781
  959MOL0     H29407   2.958   5.834   8.849  0.9003  0.1896 -0.4608
  959MOL0     H29408   2.809   5.757   9.098  0.6925  1.3634 -0.2032
  959MOL0     H29409   2.738   5.831   8.962  1.0879  0.6734  0.6375
  959MOL0     H29410   2.811   5.611   8.822 -0.2450  2.0825  0.2186
  959MOL0     H29411   2.845   5.537   8.980 -0.9542 -1.7207 -1.7045
  959MOL0     H29412   2.645   5.453   8.931 -1.5853  0.1795 -1.0639
  959MOL0     H29413   2.596   5.578   9.043 -2.2070 -3.0361  0.2558
  959MOL0     H29414   2.453   5.533   8.848 -5.1599  5.1298  2.4209
  959MOL0     H29415   2.573   5.592   8.733  2.8463  0.3251  1.3567
  959MOL0     H29416   2.421   5.793   8.650  1.6280  0.4727  0.4705
  959MOL0     H29417   2.180   6.051   8.847 -2.7985  0.4984 -2.1467
  959MOL0     H29418   2.287   6.062   8.712 -0.7492 -0.9919 -0.6222
  959MOL0     H29419   2.164   5.879   8.596 -2.4984 -0.5055 -0.6620
  959MOL0     H29420   2.045   5.998   8.664 -3.1525 -2.3771 -0.5849
  959MOL0     H29421   2.016   5.857   8.862  1.5825 -0.4655  0.9695
  959MOL0     H29422   2.129   5.729   8.791 -2.1171 -1.9513 -1.8425
  959MOL0     H29423   1.977   5.667   8.629 -1.4319  0.1512 -0.3844
  959MOL0     H29424   1.879   5.805   8.642 -2.3177  0.6026  2.4534
  959MOL0     H29425   1.693   5.551   8.943 -2.2612  0.4144 -0.0123
  959MOL0     H29426   1.401   5.355   8.924  0.3734  1.4131 -0.0594
  959MOL0     H29427   1.569   5.276   8.934  3.6289  1.9413  0.4260
  959MOL0     H29428   1.527   5.440   9.005 -3.2871  1.5505  0.7899
  959MOL0     H29429   1.323   5.119   8.360 -0.1922 -0.0910 -2.2621
  959MOL0     H29430   1.109   5.053   8.287  0.3075 -0.2791 -0.1910
  959MOL0     H29431   0.763   5.268   8.434  0.9278  3.3919 -0.2175
  959MOL0     H29432   0.768   5.350   8.279 -1.3943  0.6852  0.8515
  959MOL0     H29433   0.634   5.087   8.363  2.4176 -0.6528 -0.7225
  959MOL0     H29434   0.550   5.228   8.306 -1.6884 -2.6882 -0.0416
  959MOL0     H29435   0.731   5.054   8.118  0.0527 -0.1841  0.0393
  959MOL0     H29436   0.628   5.201   8.083 -0.5895  0.6469  1.9111
  959MOL0     H29437   0.531   4.940   8.202 -1.6429  0.8961  1.0400
  959MOL0     H29438   0.430   5.063   8.121 -0.8292 -1.5116 -1.1346
  959MOL0     H29439   0.609   4.863   7.983 -1.8208  0.0634  3.1889
  959MOL0     H29440   0.579   5.024   7.907 -0.9688  1.2844 -0.1463
  959MOL0     H29441   0.334   4.974   7.914 -0.8855 -0.8747 -0.5336
  959MOL0     H29442   0.430   4.871   7.808  4.8032  0.4426  2.0364
  959MOL0     H29443   0.331   4.789   8.078  1.8951  0.8732 -0.2962
  959MOL0     H29444   0.446   4.701   7.978 -1.1639 -1.9917  3.5820
  959MOL0     H29445   0.202   4.616   7.939  0.4078  1.3498  1.7721
  959MOL0     H29446   0.292   4.651   7.796 -6.6876 -2.9988 -2.6378
  959MOL0     H29447   0.942   5.422   8.448 -0.5364 -0.0461 -1.5056
  959MOL0     H29448   1.174   5.482   8.527 -1.6542 -0.3846  1.4642
  959MOL0     H29449   1.615   5.449   8.464 -0.2132 -0.0950 -0.1099
  959MOL0     H29450   1.778   5.600   8.518  2.5042  0.8319  1.4855
  959MOL0     H29451   3.603   5.949   8.820  2.3290  1.0043 -0.4628
  959MOL0     H29452   3.844   5.855   8.777 -1.3035 -0.5052 -2.2352
  959MOL0     H29453   4.202   5.688   8.947 -1.0375 -0.0941 -0.9890
  959MOL0     H29454   4.415   5.587   8.948 -1.0094 -2.6509  0.5102
  959MOL0     H29455   4.537   5.416   8.541 -1.5848  1.7832 -0.3922
  959MOL0     H29456   4.584   5.576   8.567 -1.6038 -0.7962 -1.4792
  959MOL0     H29457   4.739   5.328   8.630  1.5803 -0.1040 -0.5633
  959MOL0     H29458   4.754   5.459   8.749  2.4769  0.8354 -1.2011
  959MOL0     H29459   4.805   5.623   8.576 -0.6903 -0.3652  3.2066
  959MOL0     H29460   4.792   5.499   8.446 -1.5934  0.3690 -0.0992
  959MOL0     H29461   4.992   5.407   8.640  0.2546  1.3956 -0.1140
  959MOL0     H29462   4.982   5.585   8.660 -1.8063  0.7386  0.5516
  959MOL0     H29463   5.174   5.529   8.278 -1.0125 -0.9046 -1.0537
  959MOL0     H29464   4.342   5.476   8.536  0.6044  0.0741  0.8639
  959MOL0     H29465   4.121   5.518   8.552  0.7055 -0.2974 -0.4501
  960MOL0     O29466   8.144   2.468   2.485  0.4817 -0.4387  0.1405
  960MOL0     C29467   8.071   2.510   2.393  0.1793  0.3469 -0.1907
  960MOL0     O29468   7.934   2.503   2.392  0.3695  0.5432  0.6375
  960MOL0     C29469   7.868   2.450   2.509 -0.1315  0.6462 -0.9658
  960MOL0     C29470   7.811   2.320   2.515  0.5497 -0.6199 -1.0029
  960MOL0     C29471   7.764   2.283   2.636  1.3034  0.2733 -0.6600
  960MOL0     C29472   7.767   2.359   2.753  0.8580 -1.0228  1.0895
  960MOL0     O29473   7.723   2.301   2.871 -0.4083  0.5427 -0.4546
  960MOL0     C29474   7.639   2.376   2.957 -0.6585 -0.0870 -0.7010
  960MOL0     C29475   7.518   2.285   2.986 -0.2149 -0.3138 -0.7776
  960MOL0     C29476   7.419   2.386   3.046  0.7173  0.4117  0.0795
  960MOL0     C29477   7.282   2.322   3.081 -0.0247 -0.1054  0.1201
  960MOL0     C29478   7.198   2.306   2.944  1.0213  0.3947  0.3130
  960MOL0     C29479   7.123   2.429   2.901  0.2904  0.5327 -0.0487
  960MOL0     C29480   6.995   2.445   2.980  0.5258 -0.4476 -0.1306
  960MOL0     C29481   6.879   2.360   2.924  0.5775  0.1835  0.2175
  960MOL0     N29482   6.765   2.363   3.013  0.0586  0.9068  0.2873
  960MOL0     C29483   6.685   2.461   3.040  0.2641  0.5842 -0.0057
  960MOL0     C29484   6.587   2.420   3.127 -0.0937 -0.6817 -0.1247
  960MOL0     C29485   6.481   2.501   3.196  0.0516 -0.1305  0.3529
  960MOL0     C29486   6.345   2.449   3.149 -0.2391  0.4886 -0.0319
  960MOL0     C29487   6.231   2.523   3.224 -0.1713 -0.3301 -0.1906
  960MOL0     C29488   6.101   2.490   3.149  0.9674  0.1449 -0.3128
  960MOL0     O29489   5.995   2.533   3.243  0.3236 -0.8094  0.0435
  960MOL0     C29490   5.871   2.551   3.193 -0.3344  0.3020  0.0546
  960MOL0     C29491   5.802   2.464   3.102 -0.7018  0.0863 -0.5672
  960MOL0     C29492   5.668   2.479   3.075 -0.3519  0.8617  0.5941
  960MOL0     C29493   5.602   2.379   2.975 -0.1864 -0.2951 -0.6873
  960MOL0     C29494   5.598   2.586   3.132  1.0353  0.0086  0.6186
  960MOL0     C29495   5.451   2.610   3.109  0.3681 -0.0073  0.1170
  960MOL0     O29496   5.368   2.505   3.080  0.1976 -0.2463 -0.7197
  960MOL0     C29497   5.238   2.530   3.049  0.3556  0.7524 -0.7472
  960MOL0     C29498   5.186   2.529   2.920  0.3095 -0.5815  0.1916
  960MOL0     C29499   5.049   2.557   2.899  0.2580 -0.4514  0.0303
  960MOL0     C29500   4.963   2.587   3.005 -0.6931  0.3324 -0.0710
  960MOL0     O29501   4.836   2.630   2.972 -0.2104  0.2257  0.3055
  960MOL0     C29502   4.747   2.676   3.069  1.1922 -0.2891 -0.1799
  960MOL0     C29503   4.604   2.668   3.014 -0.3919 -0.1277  0.3852
  960MOL0     C29504   4.514   2.757   3.084  0.5993 -0.0020  0.3931
  960MOL0     C29505   4.384   2.780   3.014 -0.2116 -0.3469  0.3290
  960MOL0     C29506   4.290   2.839   3.110  1.0007  0.1464 -0.0313
  960MOL0     C29507   4.141   2.815   3.067 -1.1510 -0.3989  0.0127
  960MOL0     C29508   4.040   2.888   3.154  0.0639  0.1706  0.0260
  960MOL0     C29509   4.049   3.042   3.140  0.0791  0.0619 -0.2393
  960MOL0    Cl29510   4.016   3.097   2.975 -0.3149 -0.0357  0.1126
  960MOL0     C29511   5.012   2.585   3.133  0.4133 -0.3836 -1.0249
  960MOL0     C29512   5.145   2.553   3.158  0.0558 -0.5630  0.0867
  960MOL0     O29513   5.412   2.726   3.126 -0.5930 -0.0554 -0.0957
  960MOL0     C29514   5.669   2.674   3.214  0.7179  0.3798 -0.5167
  960MOL0     C29515   5.804   2.660   3.243  0.4438  0.4267  0.6492
  960MOL0     N29516   6.619   2.286   3.150 -0.7999 -0.3205 -0.2636
  960MOL0     N29517   6.735   2.262   3.102  0.1042 -0.2717  0.7417
  960MOL0     C29518   7.810   2.495   2.737 -0.5935 -0.3166 -0.7729
  960MOL0     C29519   7.863   2.534   2.622 -0.0555 -0.2503  0.9427
  960MOL0     C29520   8.127   2.548   2.267 -0.7114 -0.1629 -0.5851
  960MOL0     C29521   8.044   2.591   2.159 -0.9998  0.1803 -0.3478
  960MOL0     C29522   8.098   2.638   2.037  1.1705  0.1604 -0.3474
  960MOL0     C29523   8.236   2.633   2.019 -0.1134  1.5524  0.2113
  960MOL0     O29524   8.273   2.664   1.886  0.0226 -0.0379 -0.3320
  960MOL0     C29525   8.407   2.697   1.861  0.4826  0.0194 -0.3748
  960MOL0     C29526   8.447   2.593   1.753  0.2737 -0.4125  0.1934
  960MOL0     C29527   8.593   2.606   1.721  0.3127 -0.7988 -1.0582
  960MOL0     C29528   8.654   2.500   1.621 -0.4370  0.7411  0.0523
  960MOL0     C29529   8.687   2.375   1.701  0.4454  0.7943  0.2056
  960MOL0     C29530   8.722   2.274   1.760  0.6078  0.4710 -0.3210
  960MOL0     C29531   8.320   2.573   2.122  0.5969 -0.2008  0.9767
  960MOL0     C29532   8.271   2.537   2.250  0.0656 -0.0836  0.2890
  960MOL0     H29533   7.812   2.261   2.424  1.6032 -0.7557 -0.9137
  960MOL0     H29534   7.722   2.183   2.638  2.4598 -0.2372 -0.6951
  960MOL0     H29535   7.688   2.394   3.053  1.0222  0.1450 -1.5638
  960MOL0     H29536   7.611   2.466   2.902 -0.8589 -0.2916 -0.9346
  960MOL0     H29537   7.480   2.229   2.900 -0.3028 -0.4681 -0.6403
  960MOL0     H29538   7.541   2.202   3.053 -0.1023 -0.5867 -1.1504
  960MOL0     H29539   7.460   2.408   3.146  3.4960  0.4023 -0.9660
  960MOL0     H29540   7.405   2.473   2.982 -1.3088  0.4201  0.4858
  960MOL0     H29541   7.296   2.226   3.130 -0.0284 -0.0637  0.2032
  960MOL0     H29542   7.224   2.390   3.145  0.4297  0.2330  0.1822
  960MOL0     H29543   7.269   2.281   2.865  1.9910 -0.6314  1.4581
  960MOL0     H29544   7.122   2.229   2.959  0.7884  0.5375 -0.1220
  960MOL0     H29545   7.189   2.515   2.894 -0.4287  0.9158 -3.8930
  960MOL0     H29546   7.087   2.413   2.799 -0.3677 -0.3520  0.3004
  960MOL0     H29547   7.004   2.418   3.086 -2.2263  3.5841  1.3754
  960MOL0     H29548   6.967   2.551   2.973 -2.0199 -0.8070  2.5891
  960MOL0     H29549   6.909   2.255   2.912  0.3654  0.2917 -1.5355
  960MOL0     H29550   6.850   2.400   2.826  2.7328 -1.3759 -1.1666
  960MOL0     H29551   6.695   2.557   2.990 -2.0000  0.5087 -0.6900
  960MOL0     H29552   6.486   2.492   3.305 -1.5254  1.0853  0.5717
  960MOL0     H29553   6.493   2.608   3.174 -0.7090 -0.2675 -0.7782
  960MOL0     H29554   6.343   2.343   3.176  1.0306  0.4168 -0.1678
  960MOL0     H29555   6.329   2.458   3.041 -0.7356  0.6550  0.0484
  960MOL0     H29556   6.244   2.632   3.215  0.1273 -0.1081  2.2413
  960MOL0     H29557   6.216   2.496   3.329 -1.4091 -0.5089 -0.3982
  960MOL0     H29558   6.092   2.383   3.128  0.9568  0.1829 -0.5046
  960MOL0     H29559   6.088   2.543   3.054 -0.6626 -0.1774 -0.2810
  960MOL0     H29560   5.851   2.381   3.050  0.9086 -1.9415  3.7021
  960MOL0     H29561   5.672   2.308   2.928 -1.2618  0.1379 -3.0985
  960MOL0     H29562   5.544   2.306   3.032  3.4358 -2.1065  1.0745
  960MOL0     H29563   5.551   2.434   2.896 -0.3766  1.1853  0.4224
  960MOL0     H29564   5.242   2.494   2.835 -0.6452  0.8374 -1.0742
  960MOL0     H29565   4.994   2.552   2.806 -1.3801 -3.0280  1.0278
  960MOL0     H29566   4.740   2.621   3.164 -0.0109  1.6634  0.9426
  960MOL0     H29567   4.774   2.779   3.094 -1.1333  0.4789 -0.5138
  960MOL0     H29568   4.604   2.696   2.908  1.6242 -0.7471  0.1783
  960MOL0     H29569   4.565   2.566   3.024 -1.9444  0.4388  0.2207
  960MOL0     H29570   4.576   2.845   3.105  1.0842 -0.8895  3.1153
  960MOL0     H29571   4.492   2.692   3.169 -1.1823  0.1615  0.0834
  960MOL0     H29572   4.396   2.848   2.929 -2.2148 -1.6383 -1.0888
  960MOL0     H29573   4.340   2.689   2.971 -0.1781 -0.7758  1.1867
  960MOL0     H29574   4.317   2.944   3.117  0.2122  0.2758  1.5370
  960MOL0     H29575   4.304   2.803   3.213 -0.2251  0.3946  0.2437
  960MOL0     H29576   4.129   2.832   2.959  2.4414  0.4916 -0.3902
  960MOL0     H29577   4.128   2.707   3.075  1.8040 -0.7290  2.5406
  960MOL0     H29578   4.063   2.852   3.255 -0.5834 -1.0589 -0.2416
  960MOL0     H29579   3.937   2.865   3.126  0.2935  0.1023 -0.7666
  960MOL0     H29580   4.143   3.090   3.168 -1.9767  3.6944  1.1937
  960MOL0     H29581   3.978   3.090   3.209  0.3033 -2.7248  2.1640
  960MOL0     H29582   4.961   2.614   3.224  1.1902 -0.5614 -0.5287
  960MOL0     H29583   5.183   2.553   3.259 -2.0281 -0.4759  0.9367
  960MOL0     H29584   5.617   2.754   3.265 -0.1636  0.1656 -1.0774
  960MOL0     H29585   5.858   2.724   3.313  1.7795 -1.4324  1.4091
  960MOL0     H29586   7.818   2.554   2.828 -3.0992 -1.6180  0.4086
  960MOL0     H29587   7.909   2.632   2.626 -3.0443  1.2864  0.7163
  960MOL0     H29588   7.938   2.607   2.170 -1.3358 -2.1395  0.2657
  960MOL0     H29589   8.031   2.674   1.959  0.0292 -0.7170  0.2038
  960MOL0     H29590   8.416   2.799   1.822 -0.9543  0.7866  1.1960
  960MOL0     H29591   8.466   2.672   1.949 -3.0191  0.6359  2.3962
  960MOL0     H29592   8.376   2.613   1.673 -0.3748 -0.6735  0.6900
  960MOL0     H29593   8.415   2.493   1.785  0.3777 -0.7083 -0.6106
  960MOL0     H29594   8.641   2.592   1.818 -1.1880  2.3880  0.2740
  960MOL0     H29595   8.618   2.706   1.685  3.8156 -1.0198  0.3606
  960MOL0     H29596   8.737   2.547   1.567 -1.2713  1.3131 -0.7740
  960MOL0     H29597   8.580   2.493   1.540  1.9221 -1.7476 -2.0403
  960MOL0     H29598   8.755   2.182   1.804  1.4013  0.3244 -1.2070
  960MOL0     H29599   8.419   2.544   2.091 -0.6615 -2.0994 -1.6348
  960MOL0     H29600   8.348   2.498   2.316  0.2992  1.6888  1.1150
  961MOL0     O29601   7.608   1.460   5.169  0.4943  0.5825 -0.7299
  961MOL0     C29602   7.664   1.366   5.114 -0.6168 -0.6391 -0.1519
  961MOL0     O29603   7.607   1.246   5.071 -1.0988 -0.2383  0.2579
  961MOL0     C29604   7.476   1.224   5.111 -0.2905  0.2915  0.1903
  961MOL0     C29605   7.379   1.239   5.018  0.9643  0.0378  0.6644
  961MOL0     C29606   7.239   1.217   5.034 -0.1457  0.9293  0.2953
  961MOL0     C29607   7.207   1.169   5.169  0.4963 -0.2164  0.2785
  961MOL0     O29608   7.069   1.153   5.201 -0.2804 -0.1997 -0.0753
  961MOL0     C29609   7.041   1.173   5.342 -0.5268 -0.2350 -0.4698
  961MOL0     C29610   6.896   1.184   5.368 -1.0523  0.4684  0.2760
  961MOL0     C29611   6.827   1.046   5.330 -0.5005  0.0046  0.4816
  961MOL0     C29612   6.694   1.037   5.396  0.5760 -0.0967  0.6490
  961MOL0     C29613   6.593   1.132   5.327 -0.5082 -0.0537 -1.1451
  961MOL0     C29614   6.464   1.156   5.409  0.5468  0.1071 -0.5440
  961MOL0     C29615   6.368   1.238   5.325  0.6252  0.0368 -1.0248
  961MOL0     C29616   6.268   1.314   5.425  0.1288  0.0024  0.2993
  961MOL0     N29617   6.154   1.230   5.445  0.4516  0.2801 -0.3649
  961MOL0     C29618   6.070   1.169   5.344 -0.1761  0.0761 -0.2064
  961MOL0     C29619   5.970   1.115   5.418 -0.1249 -0.1376 -0.1764
  961MOL0     C29620   5.846   1.047   5.356 -0.0392  0.1225  0.5181
  961MOL0     C29621   5.717   1.058   5.432  0.9593 -0.0580  0.3078
  961MOL0     C29622   5.615   0.959   5.368 -0.3818  0.0304 -0.3488
  961MOL0     C29623   5.487   0.935   5.441 -0.0429 -0.3971  0.7141
  961MOL0     O29624   5.483   0.846   5.548  0.3023 -0.1675  0.0049
  961MOL0     C29625   5.373   0.846   5.623 -0.0285  0.6233  0.1254
  961MOL0     C29626   5.373   0.776   5.740  0.3944  0.5689 -0.4336
  961MOL0     C29627   5.277   0.774   5.842 -0.0954 -0.4894  0.4928
  961MOL0     C29628   5.300   0.673   5.954 -0.3392 -0.0489 -0.1346
  961MOL0     C29629   5.153   0.844   5.811  0.3287 -0.1238 -0.4834
  961MOL0     C29630   5.033   0.844   5.898 -0.0634  0.2640  0.2945
  961MOL0     O29631   4.917   0.887   5.839  0.0523 -0.5304  0.5976
  961MOL0     C29632   4.798   0.863   5.899  0.1216  0.7724 -0.2790
  961MOL0     C29633   4.694   0.954   5.885  0.3749 -0.0727 -0.3051
  961MOL0     C29634   4.569   0.936   5.950 -0.0233 -0.7673  0.2333
  961MOL0     C29635   4.547   0.820   6.024  0.1246  0.2833 -0.0344
  961MOL0     O29636   4.431   0.797   6.085  0.7006  0.2636  0.1770
  961MOL0     C29637   4.327   0.895   6.092 -0.0452  0.1294 -0.2044
  961MOL0     C29638   4.208   0.833   6.174  0.1940  0.1146  0.0755
  961MOL0     C29639   4.228   0.822   6.327 -1.0297 -0.1267  0.0435
  961MOL0     C29640   4.107   0.781   6.418 -0.6944  0.0610  0.3724
  961MOL0     C29641   4.076   0.633   6.396  0.0089 -0.0624  0.2544
  961MOL0     C29642   3.949   0.588   6.482 -0.7987  0.0517  0.5924
  961MOL0     C29643   3.964   0.604   6.632  0.6817 -0.2847  0.5995
  961MOL0     C29644   4.056   0.507   6.706  0.0825 -0.0110  0.1158
  961MOL0    Cl29645   3.960   0.381   6.779  0.1144 -0.2865 -0.0486
  961MOL0     C29646   4.649   0.726   6.028 -0.7346  0.2397  0.3812
  961MOL0     C29647   4.778   0.747   5.967  1.1924 -0.4533 -0.3671
  961MOL0     O29648   5.045   0.804   6.018 -0.3984  0.1147  0.2692
  961MOL0     C29649   5.144   0.903   5.686 -0.5581  0.2756  0.2338
  961MOL0     C29650   5.249   0.904   5.593 -0.0562 -0.0729  0.5734
  961MOL0     N29651   5.978   1.145   5.553 -0.4470 -0.1117 -0.3532
  961MOL0     N29652   6.085   1.205   5.565  1.0282 -0.6765  0.2715
  961MOL0     C29653   7.312   1.139   5.261 -0.3652 -0.0524  0.7111
  961MOL0     C29654   7.443   1.168   5.233  0.1496  0.5835  0.7185
  961MOL0     C29655   7.809   1.372   5.096 -0.5953  0.5028  0.2533
  961MOL0     C29656   7.885   1.482   5.138  0.4936 -0.3105  0.4451
  961MOL0     C29657   8.020   1.484   5.120 -0.6409  0.1626 -1.4666
  961MOL0     C29658   8.087   1.383   5.055  1.1248  0.1762  0.6766
  961MOL0     O29659   8.222   1.373   5.050  0.6283  0.1027  0.7724
  961MOL0     C29660   8.297   1.430   5.160 -0.0604  0.3872 -0.3558
  961MOL0     C29661   8.444   1.437   5.121 -0.5586  0.1524  0.2982
  961MOL0     C29662   8.455   1.540   5.008  0.0709 -0.2241 -0.4280
  961MOL0     C29663   8.599   1.598   4.989  0.3666 -0.0673 -0.2207
  961MOL0     C29664   8.682   1.508   4.922  0.2426  0.1181  1.0228
  961MOL0     C29665   8.774   1.451   4.864 -0.5351  0.2636 -0.0847
  961MOL0     C29666   8.011   1.273   5.011 -0.8055  0.2615 -0.2144
  961MOL0     C29667   7.878   1.266   5.040  0.2143  0.9014 -0.6741
  961MOL0     H29668   7.394   1.269   4.915 -1.4838  1.2216  0.5786
  961MOL0     H29669   7.161   1.231   4.960 -0.4265  0.1641  0.4346
  961MOL0     H29670   7.089   1.087   5.392 -1.6809 -0.5468  0.1407
  961MOL0     H29671   7.065   1.276   5.369 -3.1627  0.0868  0.9037
  961MOL0     H29672   6.885   1.207   5.474  0.6021 -0.9078  0.7877
  961MOL0     H29673   6.851   1.271   5.319  1.3476  2.4686  1.4113
  961MOL0     H29674   6.821   1.031   5.222 -0.8489 -2.7629  0.8158
  961MOL0     H29675   6.893   0.968   5.369 -0.3290 -0.9348 -1.5808
  961MOL0     H29676   6.643   0.942   5.382 -1.3979  0.9670  0.2491
  961MOL0     H29677   6.701   1.050   5.504 -2.0045  0.4136  0.8161
  961MOL0     H29678   6.643   1.227   5.306  1.7022 -1.3689 -2.2119
  961MOL0     H29679   6.573   1.085   5.230  0.2595  0.5621 -1.6118
  961MOL0     H29680   6.408   1.065   5.431 -0.2072  0.3267 -1.4898
  961MOL0     H29681   6.488   1.201   5.505  2.4463 -2.5963  0.3819
  961MOL0     H29682   6.426   1.315   5.273  0.0174 -0.5955 -2.6807
  961MOL0     H29683   6.309   1.182   5.252  0.6786  0.2295 -1.2175
  961MOL0     H29684   6.241   1.414   5.390  1.6540  0.6075  0.7756
  961MOL0     H29685   6.313   1.329   5.524 -1.1297 -0.7989  1.0272
  961MOL0     H29686   6.086   1.177   5.237 -2.2236 -0.0913 -0.5655
  961MOL0     H29687   5.830   1.099   5.261  0.6009 -2.5191 -1.1620
  961MOL0     H29688   5.873   0.942   5.336 -2.0510 -0.3066 -0.1617
  961MOL0     H29689   5.680   1.160   5.433 -0.6456 -0.6103  1.5097
  961MOL0     H29690   5.725   1.028   5.537  1.7828  2.9799  1.2175
  961MOL0     H29691   5.657   0.858   5.359  1.0437  0.5302  0.2632
  961MOL0     H29692   5.597   1.002   5.269  2.3443  4.0320  0.6196
  961MOL0     H29693   5.422   0.889   5.366 -0.3221  2.0288 -0.6699
  961MOL0     H29694   5.440   1.028   5.474 -0.1557 -1.2399  3.0969
  961MOL0     H29695   5.468   0.727   5.754 -0.7214 -2.1449 -1.6272
  961MOL0     H29696   5.306   0.731   6.047  0.6484 -0.9947  0.4208
  961MOL0     H29697   5.216   0.603   5.954  0.4694 -1.0512  0.4779
  961MOL0     H29698   5.394   0.621   5.933  1.0156  2.0069  0.4766
  961MOL0     H29699   4.694   1.035   5.812 -0.8304  1.8890  1.7474
  961MOL0     H29700   4.492   1.012   5.940  0.5966 -0.3420 -1.9454
  961MOL0     H29701   4.357   0.977   6.159 -1.1074  2.8600 -2.8144
  961MOL0     H29702   4.285   0.932   5.997  0.9797  3.5118  0.5197
  961MOL0     H29703   4.116   0.890   6.159  0.2101  0.6639  1.8749
  961MOL0     H29704   4.206   0.729   6.141  0.1275 -0.0791  0.6768
  961MOL0     H29705   4.264   0.921   6.358  2.8027 -0.9727 -1.2533
  961MOL0     H29706   4.314   0.760   6.353  1.2496  3.1115  0.9293
  961MOL0     H29707   4.130   0.790   6.525 -0.5237 -0.4351  0.3812
  961MOL0     H29708   4.019   0.835   6.381 -0.9032 -0.3956  0.1940
  961MOL0     H29709   4.163   0.571   6.420 -0.4279 -1.6730 -2.0035
  961MOL0     H29710   4.061   0.621   6.288 -1.6963  0.3568  0.4110
  961MOL0     H29711   3.861   0.643   6.449 -1.5354 -0.7304  1.2164
  961MOL0     H29712   3.942   0.480   6.466 -0.7881  0.4953 -3.3428
  961MOL0     H29713   3.863   0.585   6.668  1.0312 -1.6447  0.9079
  961MOL0     H29714   3.988   0.709   6.652 -1.3753  0.1537  0.9838
  961MOL0     H29715   4.107   0.566   6.783 -0.7684  1.8959 -0.7139
  961MOL0     H29716   4.137   0.480   6.638  0.4940  0.2227  0.5109
  961MOL0     H29717   4.636   0.638   6.090 -0.5880 -0.3565 -0.4209
  961MOL0     H29718   4.847   0.669   5.995  2.0691  0.3131 -0.3530
  961MOL0     H29719   5.054   0.957   5.658 -0.1015  0.5888 -0.6818
  961MOL0     H29720   5.235   0.962   5.502  0.7073  0.9069  1.0628
  961MOL0     H29721   7.286   1.080   5.349 -1.3094 -0.2601  0.3053
  961MOL0     H29722   7.514   1.139   5.310  1.5762 -0.8089 -1.0442
  961MOL0     H29723   7.834   1.569   5.179 -1.4822 -1.5323  0.7572
  961MOL0     H29724   8.078   1.568   5.158 -1.2143  0.2157 -0.6810
  961MOL0     H29725   8.259   1.526   5.196  0.6310  0.5988 -0.1676
  961MOL0     H29726   8.294   1.367   5.249  0.8785  1.0456  0.1672
  961MOL0     H29727   8.480   1.339   5.088 -0.2229 -0.2292  1.7377
  961MOL0     H29728   8.504   1.462   5.209  0.4367 -2.2172  0.3596
  961MOL0     H29729   8.378   1.618   5.016  0.3661 -0.1153  3.9195
  961MOL0     H29730   8.426   1.492   4.914 -2.1184  1.8929 -0.9396
  961MOL0     H29731   8.643   1.616   5.088 -1.8346 -1.0282  0.9878
  961MOL0     H29732   8.592   1.692   4.933 -1.2299 -0.2645 -0.3761
  961MOL0     H29733   8.850   1.423   4.794 -1.0232  2.8022 -1.7814
  961MOL0     H29734   8.067   1.188   4.972  2.5134  0.7778  2.9626
  961MOL0     H29735   7.830   1.169   5.037 -0.8445  1.4312 -2.8740
  962MOL0     O29736   0.919   3.995   9.460  0.0669 -0.1261 -0.3584
  962MOL0     C29737   1.001   3.945   9.384 -0.4359  0.0624 -0.7970
  962MOL0     O29738   0.972   3.874   9.266 -0.1403  0.3001  0.1870
  962MOL0     C29739   0.837   3.882   9.229 -0.7723  0.4264  0.5467
  962MOL0     C29740   0.793   3.999   9.169 -1.0729 -0.1167 -0.5751
  962MOL0     C29741   0.657   4.009   9.142  0.8316  0.4210  1.2191
  962MOL0     C29742   0.571   3.893   9.133 -0.1477 -0.0326  0.1514
  962MOL0     O29743   0.449   3.890   9.074  0.2749 -0.1284 -0.3478
  962MOL0     C29744   0.366   4.010   9.091  0.8652 -0.2759  0.5795
  962MOL0     C29745   0.353   4.057   8.943 -0.0144 -0.0714  0.3566
  962MOL0     C29746   0.268   3.942   8.870  0.4213 -0.5279  0.2514
  962MOL0     C29747   0.238   3.975   8.726  0.6993 -0.1964  0.1378
  962MOL0     C29748   0.137   3.879   8.675  0.0657  0.5018 -0.3034
  962MOL0     C29749   0.074   3.927   8.538 -1.7534 -0.4221 -0.5925
  962MOL0     C29750  -0.052   3.861   8.481 -0.4338 -0.3221  0.9670
  962MOL0     C29751  -0.031   3.722   8.425  0.6708  0.6625 -0.4150
  962MOL0     N29752  -0.156   3.634   8.434 -0.8515 -0.5342  0.6589
  962MOL0     C29753  -0.264   3.652   8.350 -0.0587 -0.2909  0.0608
  962MOL0     C29754  -0.352   3.559   8.390 -0.5443  0.0275 -0.0979
  962MOL0     C29755  -0.489   3.550   8.332 -0.3953 -0.8401 -0.3121
  962MOL0     C29756  -0.576   3.450   8.411 -0.1870  0.0454 -0.3789
  962MOL0     C29757  -0.725   3.462   8.384 -0.8079  0.1871  0.9000
  962MOL0     C29758  -0.793   3.341   8.443 -0.1416 -0.1240  0.0520
  962MOL0     O29759  -0.807   3.370   8.580 -0.4583  0.6329  0.1264
  962MOL0     C29760  -0.890   3.295   8.655  0.9801 -0.0634  0.3746
  962MOL0     C29761  -0.900   3.341   8.786  0.5565  0.2265  0.1526
  962MOL0     C29762  -1.002   3.293   8.876  1.2104 -0.2106  0.8072
  962MOL0     C29763  -1.001   3.350   9.011  0.2639  0.3938  0.8005
  962MOL0     C29764  -1.101   3.207   8.832  0.6473  0.5713  0.9833
  962MOL0     C29765  -1.214   3.163   8.919 -0.1912  0.0234  0.3031
  962MOL0     O29766  -1.332   3.146   8.846 -0.7404 -0.3915 -0.3647
  962MOL0     C29767  -1.442   3.082   8.890 -0.3958 -0.2912  0.4252
  962MOL0     C29768  -1.488   3.049   9.021  0.6447  0.4802  0.5668
  962MOL0     C29769  -1.619   2.994   9.040  0.6852  0.3213 -0.3507
  962MOL0     C29770  -1.699   2.968   8.934 -0.0520  0.4922  0.3673
  962MOL0     O29771  -1.821   2.915   8.961  0.0270  0.5081  0.5470
  962MOL0     C29772  -1.933   2.965   8.875  0.2728 -0.1740 -0.4891
  962MOL0     C29773  -2.057   2.934   8.954  0.0300 -0.5700 -0.1488
  962MOL0     C29774  -2.169   3.029   8.905 -0.5959 -0.1687 -0.1590
  962MOL0     C29775  -2.303   2.969   8.946  0.2992  0.3180 -0.4190
  962MOL0     C29776  -2.421   3.050   8.896 -0.3119  0.4637  0.6047
  962MOL0     C29777  -2.541   2.969   8.938 -0.1183  0.0539 -0.3561
  962MOL0     C29778  -2.670   3.017   8.864 -1.0843 -0.1881  0.3508
  962MOL0     C29779  -2.781   2.924   8.919 -0.6424 -0.2446 -0.6684
  962MOL0    Cl29780  -2.937   2.983   8.856  0.1162  0.1097 -0.0493
  962MOL0     C29781  -1.654   2.992   8.805 -0.2005 -0.1074  0.2386
  962MOL0     C29782  -1.527   3.054   8.779  1.4340 -0.3677 -0.6838
  962MOL0     O29783  -1.186   3.118   9.031  0.4726 -0.9930  0.2415
  962MOL0     C29784  -1.082   3.145   8.697 -0.5979 -0.6756  0.1576
  962MOL0     C29785  -0.977   3.198   8.615 -0.2052  0.6450 -0.1114
  962MOL0     N29786  -0.291   3.483   8.499  0.1637 -0.0881 -0.7962
  962MOL0     N29787  -0.172   3.527   8.515 -0.4560  0.5645  0.4341
  962MOL0     C29788   0.627   3.774   9.173 -0.3957  0.4897  0.8259
  962MOL0     C29789   0.763   3.769   9.223 -0.0573 -0.8570  0.3011
  962MOL0     C29790   1.148   3.957   9.413 -1.0528  0.9428  0.0195
  962MOL0     C29791   1.251   3.897   9.336  0.4330  0.3543  0.0751
  962MOL0     C29792   1.387   3.908   9.373  0.5359 -0.3378  0.9728
  962MOL0     C29793   1.431   3.982   9.479  0.6641 -0.0626 -0.8829
  962MOL0     O29794   1.566   4.003   9.499 -0.3066 -0.2718 -0.0098
  962MOL0     C29795   1.620   4.078   9.605 -0.7617  0.7746  0.4784
  962MOL0     C29796   1.761   4.015   9.636 -0.2179 -0.5295  0.7995
  962MOL0     C29797   1.789   3.872   9.612 -0.3820  0.2713 -0.6378
  962MOL0     C29798   1.940   3.842   9.602 -0.1807  0.6527 -0.1810
  962MOL0     C29799   1.958   3.716   9.527 -0.2153 -1.2641  0.2257
  962MOL0     C29800   1.981   3.612   9.469  0.0137 -0.8382 -0.2276
  962MOL0     C29801   1.339   4.045   9.556  0.6940 -0.7143 -0.5619
  962MOL0     C29802   1.198   4.026   9.533  0.2859  0.6343 -0.4553
  962MOL0     H29803   0.860   4.083   9.183  1.1158 -1.7215 -0.8708
  962MOL0     H29804   0.609   4.097   9.100 -0.8240 -1.8504 -2.1279
  962MOL0     H29805   0.270   3.981   9.135  1.5738 -1.0273  1.6883
  962MOL0     H29806   0.419   4.084   9.151  0.6355 -0.7836  1.4229
  962MOL0     H29807   0.302   4.153   8.928 -2.4836 -0.8604  2.7656
  962MOL0     H29808   0.447   4.066   8.888  0.2375 -3.4511 -0.0068
  962MOL0     H29809   0.303   3.838   8.875 -1.4718 -1.1665  2.0746
  962MOL0     H29810   0.175   3.930   8.927 -0.4841 -2.8880 -1.5184
  962MOL0     H29811   0.188   4.072   8.728  4.1226  1.7098  0.7120
  962MOL0     H29812   0.325   3.979   8.660 -0.2857  2.9022 -1.1769
  962MOL0     H29813   0.186   3.784   8.651  1.8161  1.5338 -0.9615
  962MOL0     H29814   0.055   3.876   8.747  0.4062  0.7266  0.0944
  962MOL0     H29815   0.035   4.024   8.570 -2.3777 -0.1228 -2.1830
  962MOL0     H29816   0.151   3.940   8.462 -1.4547 -1.2300 -0.4390
  962MOL0     H29817  -0.133   3.857   8.555  0.2106 -2.2102  1.6232
  962MOL0     H29818  -0.086   3.926   8.400 -1.7934  1.2882  2.7336
  962MOL0     H29819   0.047   3.667   8.479  0.1842 -1.6177 -1.9145
  962MOL0     H29820   0.003   3.725   8.321  1.5727 -1.5468 -0.2300
  962MOL0     H29821  -0.272   3.724   8.269  1.8989  0.1600  0.2232
  962MOL0     H29822  -0.536   3.648   8.339 -0.8846 -1.0572 -0.4479
  962MOL0     H29823  -0.489   3.526   8.225 -0.6942  2.5088 -1.1520
  962MOL0     H29824  -0.557   3.467   8.518  3.3152  1.1921 -1.0577
  962MOL0     H29825  -0.540   3.348   8.398 -1.3717 -0.4896  0.3467
  962MOL0     H29826  -0.738   3.462   8.276  0.4074  1.2960  0.7238
  962MOL0     H29827  -0.771   3.555   8.419  1.0846  0.8112  1.8610
  962MOL0     H29828  -0.736   3.250   8.425  0.0017  0.0997 -0.6525
  962MOL0     H29829  -0.886   3.320   8.389  0.0305  2.2278 -1.3411
  962MOL0     H29830  -0.828   3.408   8.833  0.5912  0.1575  0.1967
  962MOL0     H29831  -0.940   3.440   9.025  1.6781 -0.6427  1.4966
  962MOL0     H29832  -1.098   3.378   9.054 -1.6083  0.3269 -2.9084
  962MOL0     H29833  -0.974   3.267   9.076  0.4885 -0.7605 -0.7101
  962MOL0     H29834  -1.427   3.079   9.106  0.4169  0.5248  0.7167
  962MOL0     H29835  -1.645   2.994   9.145  0.2536  1.1332 -0.4527
  962MOL0     H29836  -1.927   3.073   8.868 -1.2938  0.1026  1.5169
  962MOL0     H29837  -1.931   2.931   8.771  1.8765  0.5458 -0.7184
  962MOL0     H29838  -2.088   2.830   8.939  1.0449 -1.1319  1.3681
  962MOL0     H29839  -2.043   2.946   9.062 -1.9191 -1.8059  0.2951
  962MOL0     H29840  -2.166   3.034   8.795  0.8919  0.7450 -0.1028
  962MOL0     H29841  -2.153   3.127   8.952 -0.0337 -0.2045 -0.2682
  962MOL0     H29842  -2.306   2.867   8.907  2.9457  0.3390 -0.8480
  962MOL0     H29843  -2.305   2.961   9.055  0.7495 -1.7877 -0.5184
  962MOL0     H29844  -2.403   3.054   8.788  0.3365 -0.6641  0.6521
  962MOL0     H29845  -2.423   3.146   8.947 -2.4923 -0.4797  2.4716
  962MOL0     H29846  -2.520   2.863   8.921  3.1097  0.2072  1.6758
  962MOL0     H29847  -2.550   2.970   9.047  0.1544 -1.9467 -0.2856
  962MOL0     H29848  -2.660   3.013   8.755 -3.1829 -0.9740  0.1417
  962MOL0     H29849  -2.682   3.119   8.901 -0.5172  0.5787 -1.4328
  962MOL0     H29850  -2.773   2.939   9.027  5.9522  1.4534 -0.9724
  962MOL0     H29851  -2.769   2.820   8.890  1.6144  0.4012 -2.3256
  962MOL0     H29852  -1.723   2.971   8.725 -0.6885 -1.3880  0.9731
  962MOL0     H29853  -1.487   3.084   8.683  1.5551 -0.8486 -0.7883
  962MOL0     H29854  -1.154   3.080   8.648 -0.7902 -0.3551  0.0122
  962MOL0     H29855  -0.971   3.144   8.522 -1.3632 -0.7425  0.5829
  962MOL0     H29856   0.573   3.682   9.150 -2.1832  1.4204  1.1087
  962MOL0     H29857   0.818   3.684   9.262  1.4702 -0.4633 -0.8925
  962MOL0     H29858   1.228   3.832   9.252 -0.3360  1.3848 -0.5272
  962MOL0     H29859   1.458   3.859   9.307 -1.6942  0.4583 -2.2667
  962MOL0     H29860   1.619   4.180   9.567 -0.5368  1.2559  1.7318
  962MOL0     H29861   1.560   4.076   9.697  0.4669 -0.8034  1.2933
  962MOL0     H29862   1.782   4.027   9.743  1.6938  1.3948  0.3041
  962MOL0     H29863   1.831   4.076   9.578  0.9183 -2.0933  0.4763
  962MOL0     H29864   1.751   3.847   9.512  0.2306 -0.3493 -0.7208
  962MOL0     H29865   1.729   3.818   9.686  0.5702  0.3904  0.2427
  962MOL0     H29866   1.988   3.827   9.699 -0.0008  1.6525 -0.1057
  962MOL0     H29867   1.984   3.925   9.545 -2.6706  1.2010 -1.4374
  962MOL0     H29868   1.995   3.516   9.424 -1.3072 -1.1740  0.0314
  962MOL0     H29869   1.375   4.109   9.635 -0.3140 -1.8115  0.8365
  962MOL0     H29870   1.118   4.058   9.599 -1.4018 -0.2219 -1.9906
  963MOL0     O29871   4.804   4.739   0.006 -0.6463 -0.4465  0.2341
  963MOL0     C29872   4.792   4.678  -0.103 -0.2066  0.2408  0.2346
  963MOL0     O29873   4.684   4.617  -0.156 -0.1705 -0.3026  0.0967
  963MOL0     C29874   4.561   4.607  -0.079 -0.3034  0.3542 -0.0578
  963MOL0     C29875   4.524   4.485  -0.028  0.2052 -0.0567 -0.1434
  963MOL0     C29876   4.410   4.475   0.050 -0.1553 -0.1095 -0.7747
  963MOL0     C29877   4.339   4.586   0.095 -0.0467 -0.1889  0.5963
  963MOL0     O29878   4.220   4.560   0.165  0.1490  0.3244 -0.0665
  963MOL0     C29879   4.181   4.661   0.259 -1.3836  0.5787 -0.6678
  963MOL0     C29880   4.095   4.597   0.361  0.5655  0.5055 -0.0350
  963MOL0     C29881   3.949   4.595   0.307  0.6888  0.1829  0.4009
  963MOL0     C29882   3.846   4.566   0.420 -0.2327 -0.2637  0.3881
  963MOL0     C29883   3.718   4.494   0.374  0.1643 -0.2711 -0.4957
  963MOL0     C29884   3.612   4.487   0.480 -0.0920 -0.7812 -0.1029
  963MOL0     C29885   3.481   4.434   0.436  0.6940  0.4227 -0.2253
  963MOL0     C29886   3.364   4.459   0.529 -1.3123  0.2624 -0.2412
  963MOL0     N29887   3.275   4.571   0.488 -0.6393  0.9382 -0.1983
  963MOL0     C29888   3.143   4.553   0.445 -0.2050 -0.8426 -1.0883
  963MOL0     C29889   3.108   4.680   0.410 -0.4316  0.2991  0.4702
  963MOL0     C29890   2.971   4.708   0.352  0.1325 -0.3984 -0.2336
  963MOL0     C29891   2.896   4.797   0.445 -0.0168 -0.8623 -0.0729
  963MOL0     C29892   2.850   4.706   0.560 -0.4614 -0.6483  0.4690
  963MOL0     C29893   2.757   4.783   0.657 -0.0060  0.6510  0.2955
  963MOL0     O29894   2.726   4.699   0.769 -0.3678 -0.6948  0.0167
  963MOL0     C29895   2.591   4.664   0.778 -0.3078  0.0755  0.8266
  963MOL0     C29896   2.548   4.533   0.755  0.0270  0.2548 -1.0585
  963MOL0     C29897   2.417   4.490   0.770 -0.1431  0.0479  0.3438
  963MOL0     C29898   2.376   4.356   0.722 -0.7535 -0.1498  0.3122
  963MOL0     C29899   2.325   4.586   0.820  0.1867 -0.2948 -0.0303
  963MOL0     C29900   2.187   4.559   0.855  0.2825 -0.1608 -0.1986
  963MOL0     O29901   2.099   4.663   0.821 -0.0586 -0.0885 -0.1350
  963MOL0     C29902   1.964   4.659   0.826 -0.1076 -0.1693 -0.7176
  963MOL0     C29903   1.883   4.562   0.878 -0.6227 -0.3240 -0.4319
  963MOL0     C29904   1.744   4.579   0.869 -0.2530 -0.2027 -0.2676
  963MOL0     C29905   1.675   4.694   0.827 -0.4226  0.6749  0.9920
  963MOL0     O29906   1.540   4.693   0.839 -0.1567 -0.4164 -0.3400
  963MOL0     C29907   1.497   4.804   0.922  0.7423  0.2311 -0.1465
  963MOL0     C29908   1.371   4.765   1.009 -0.1051 -0.9422  0.3973
  963MOL0     C29909   1.260   4.708   0.913 -0.7513 -0.5918 -1.2052
  963MOL0     C29910   1.151   4.639   1.002  0.1707 -0.4858 -0.6723
  963MOL0     C29911   1.048   4.548   0.932  0.5807  0.1856 -0.2927
  963MOL0     C29912   0.940   4.634   0.868 -0.2762  0.6041 -0.0363
  963MOL0     C29913   0.838   4.557   0.787 -0.4473 -0.8585  0.1221
  963MOL0     C29914   0.704   4.539   0.866 -0.5061 -0.6223 -0.2344
  963MOL0    Cl29915   0.720   4.393   0.962 -0.3501  0.1640 -0.0463
  963MOL0     C29916   1.755   4.785   0.764  0.1926 -0.7368 -0.3357
  963MOL0     C29917   1.898   4.766   0.769 -0.4714  0.1213  0.3861
  963MOL0     O29918   2.160   4.447   0.904  0.3667  0.2040 -0.1288
  963MOL0     C29919   2.369   4.721   0.833 -0.0453 -0.3020  0.3549
  963MOL0     C29920   2.496   4.757   0.812 -0.2438 -0.4241 -0.5386
  963MOL0     N29921   3.218   4.765   0.416 -0.1051 -0.5762 -0.8635
  963MOL0     N29922   3.318   4.697   0.461  0.7882 -0.5793 -0.2899
  963MOL0     C29923   4.381   4.710   0.050 -0.2565  0.3586 -0.3845
  963MOL0     C29924   4.498   4.722  -0.023  0.1732  0.8258  0.6333
  963MOL0     C29925   4.903   4.663  -0.194 -0.3489 -0.3709  0.2523
  963MOL0     C29926   5.001   4.758  -0.192  0.2079 -0.3678 -0.1186
  963MOL0     C29927   5.108   4.758  -0.279  0.1695 -0.3209 -0.4667
  963MOL0     C29928   5.126   4.654  -0.372  0.3701  0.1179 -0.7531
  963MOL0     O29929   5.243   4.659  -0.435 -0.1941  0.2630 -0.0734
  963MOL0     C29930   5.341   4.560  -0.408 -0.4743  0.4034 -0.0461
  963MOL0     C29931   5.419   4.602  -0.286  0.5665  0.2618  0.0834
  963MOL0     C29932   5.560   4.530  -0.279  0.1032  0.5465  0.7257
  963MOL0     C29933   5.649   4.537  -0.410 -0.1924  0.4234 -0.6384
  963MOL0     C29934   5.769   4.459  -0.381 -0.2669 -0.0886 -0.2273
  963MOL0     C29935   5.866   4.387  -0.354 -0.5743 -1.0056  0.3479
  963MOL0     C29936   5.029   4.545  -0.366  0.0005  0.3420  0.9187
  963MOL0     C29937   4.915   4.562  -0.285  0.1424  0.7871 -0.1356
  963MOL0     H29938   4.574   4.390  -0.047  0.3733 -0.1999  0.9319
  963MOL0     H29939   4.390   4.380   0.097  0.7178  1.1420  2.4084
  963MOL0     H29940   4.262   4.721   0.301 -1.2678  0.9376 -1.3950
  963MOL0     H29941   4.116   4.725   0.199 -1.5151  0.5333 -0.5752
  963MOL0     H29942   4.132   4.496   0.384 -3.2199 -0.4446  2.9079
  963MOL0     H29943   4.092   4.659   0.451 -3.5616  0.6784 -0.1067
  963MOL0     H29944   3.922   4.690   0.260  0.6280  0.9597  1.9310
  963MOL0     H29945   3.951   4.519   0.228  0.4630  0.9956 -0.3982
  963MOL0     H29946   3.889   4.492   0.488  0.0213 -0.2384  0.2562
  963MOL0     H29947   3.813   4.658   0.470  0.4229  0.2978 -0.1846
  963MOL0     H29948   3.678   4.524   0.277 -3.4506  0.0779  0.9569
  963MOL0     H29949   3.752   4.391   0.359 -0.8257 -0.4251 -1.8328
  963MOL0     H29950   3.647   4.443   0.574  0.4094  1.1039  0.6496
  963MOL0     H29951   3.593   4.592   0.505 -0.0752 -0.3713 -1.7104
  963MOL0     H29952   3.458   4.473   0.336  0.5315  2.3906  0.5441
  963MOL0     H29953   3.504   4.327   0.436  4.4653  0.9511  4.1796
  963MOL0     H29954   3.389   4.469   0.635 -0.5675  4.0761 -0.6549
  963MOL0     H29955   3.301   4.370   0.518 -2.2541  1.0304 -1.2014
  963MOL0     H29956   3.079   4.465   0.437 -0.4618 -0.5502 -2.5715
  963MOL0     H29957   2.979   4.738   0.247 -1.2744  0.4892 -0.0985
  963MOL0     H29958   2.916   4.614   0.343  0.4161 -0.7885  1.7309
  963MOL0     H29959   2.810   4.830   0.387 -0.5367 -1.1273  0.5426
  963MOL0     H29960   2.949   4.888   0.475  0.9950 -1.5014  0.1237
  963MOL0     H29961   2.930   4.683   0.631 -0.6939  0.2123  1.0280
  963MOL0     H29962   2.791   4.620   0.528  1.5326 -1.7480 -0.4414
  963MOL0     H29963   2.671   4.825   0.604 -2.1776 -2.1997  1.3035
  963MOL0     H29964   2.815   4.867   0.695  2.1975 -0.7867  0.2936
  963MOL0     H29965   2.622   4.459   0.727 -1.4160 -1.3349 -0.7812
  963MOL0     H29966   2.373   4.286   0.806  2.8964 -2.0313 -0.9115
  963MOL0     H29967   2.281   4.354   0.668  0.8377  0.2468 -2.7184
  963MOL0     H29968   2.451   4.323   0.649 -0.3659  1.7842 -0.2266
  963MOL0     H29969   1.918   4.464   0.910  0.9787 -0.1567 -1.5138
  963MOL0     H29970   1.686   4.492   0.896  0.8258 -0.0169  3.1205
  963MOL0     H29971   1.579   4.841   0.984  0.5996  0.6188 -0.1878
  963MOL0     H29972   1.453   4.888   0.868 -1.0005 -1.0173 -0.7779
  963MOL0     H29973   1.407   4.690   1.080  0.2548 -0.7638  0.4053
  963MOL0     H29974   1.335   4.855   1.061  0.1451  0.1292 -1.1963
  963MOL0     H29975   1.311   4.631   0.855  2.3362 -0.0674  0.5684
  963MOL0     H29976   1.213   4.780   0.846  0.0971 -0.0569 -1.2505
  963MOL0     H29977   1.200   4.576   1.077 -0.7066 -0.5079 -0.1043
  963MOL0     H29978   1.102   4.725   1.048  1.3229 -0.1720  0.0083
  963MOL0     H29979   0.995   4.479   0.997 -0.9282  0.0126 -1.6303
  963MOL0     H29980   1.108   4.490   0.861  0.2362  1.2036 -1.4539
  963MOL0     H29981   0.891   4.698   0.942 -3.3970 -3.2160  1.5939
  963MOL0     H29982   1.004   4.692   0.801  1.4500  1.1078  1.9333
  963MOL0     H29983   0.881   4.461   0.757  1.3287  0.1027 -0.5877
  963MOL0     H29984   0.805   4.608   0.696  0.7550  0.3201  0.3106
  963MOL0     H29985   0.627   4.530   0.789 -0.8796 -0.7667  0.1492
  963MOL0     H29986   0.684   4.619   0.938 -1.1446 -0.7319 -0.2842
  963MOL0     H29987   1.708   4.863   0.705  1.4542 -0.0916 -0.5161
  963MOL0     H29988   1.959   4.834   0.710  0.2877 -1.4565 -0.7028
  963MOL0     H29989   2.295   4.795   0.863 -0.4725  0.7666 -2.9390
  963MOL0     H29990   2.534   4.858   0.826 -0.0873 -0.1537 -2.5799
  963MOL0     H29991   4.342   4.808   0.077  2.6885  1.0676  1.8847
  963MOL0     H29992   4.521   4.822  -0.059  0.0033  0.6150 -0.0788
  963MOL0     H29993   4.999   4.843  -0.125  0.3924  1.2177 -2.0365
  963MOL0     H29994   5.179   4.840  -0.276  1.5425 -1.4933  0.9745
  963MOL0     H29995   5.295   4.462  -0.390  0.8751 -0.5339 -1.4067
  963MOL0     H29996   5.396   4.542  -0.501  0.1085 -0.5905  0.4691
  963MOL0     H29997   5.358   4.572  -0.200 -0.0973  1.0851 -0.0846
  963MOL0     H29998   5.431   4.710  -0.293 -2.2928  0.5787 -1.5806
  963MOL0     H29999   5.545   4.424  -0.259  0.8786  0.4809  0.9822
  963MOL0     H30000   5.624   4.579  -0.206  1.7618  2.5414 -1.8636
  963MOL0     H30001   5.680   4.636  -0.446 -1.8626 -0.5111 -5.3824
  963MOL0     H30002   5.596   4.500  -0.498  0.2207 -0.2183 -0.6165
  963MOL0     H30003   5.961   4.339  -0.350 -0.8783 -1.5309  2.4779
  963MOL0     H30004   5.048   4.469  -0.442 -0.7786  1.5984 -0.5848
  963MOL0     H30005   4.840   4.485  -0.294  1.1724 -0.7747  3.0801
  964MOL0     O30006   9.436   4.277  11.061  0.3285 -0.2700 -0.7152
  964MOL0     C30007   9.473   4.341  10.964 -0.0966 -0.4952 -0.9378
  964MOL0     O30008   9.397   4.367  10.864 -0.1225 -0.4825  0.1237
  964MOL0     C30009   9.259   4.397  10.882  0.5505  0.0659  0.8331
  964MOL0     C30010   9.205   4.453  10.993 -0.2164  0.2555  0.6633
  964MOL0     C30011   9.066   4.479  10.992  0.8105  0.5238  0.0412
  964MOL0     C30012   8.983   4.449  10.883 -0.2874  0.1242 -0.6310
  964MOL0     O30013   8.848   4.468  10.882 -0.5146 -0.7119  0.6379
  964MOL0     C30014   8.769   4.421  10.993  0.1891  0.4329 -0.4101
  964MOL0     C30015   8.701   4.299  10.948 -0.2669 -0.7514 -0.4816
  964MOL0     C30016   8.593   4.250  11.046 -0.0845 -0.1341 -0.3935
  964MOL0     C30017   8.528   4.113  11.002  0.9376  0.0005  0.3257
  964MOL0     C30018   8.459   4.032  11.118 -0.6941  0.4488  0.5975
  964MOL0     C30019   8.325   4.096  11.154  0.7684 -0.5542 -0.1185
  964MOL0     C30020   8.235   3.985  11.219 -0.8011  0.2786  0.8515
  964MOL0     C30021   8.107   4.058  11.275 -0.1866  0.9001  0.2326
  964MOL0     N30022   8.007   3.953  11.308 -0.3751 -0.3063  0.5953
  964MOL0     C30023   7.872   3.962  11.305  0.2737  0.1267  0.1659
  964MOL0     C30024   7.818   3.845  11.336 -0.5354  0.6402  0.0799
  964MOL0     C30025   7.667   3.824  11.331  0.1100  0.6265  0.0542
  964MOL0     C30026   7.601   3.813  11.471 -0.2363  0.1648  0.7722
  964MOL0     C30027   7.585   3.673  11.529 -0.1144  0.3520  0.3268
  964MOL0     C30028   7.598   3.673  11.684 -0.5924  0.1372 -0.5757
  964MOL0     O30029   7.515   3.775  11.739  0.1003  0.0331 -0.5820
  964MOL0     C30030   7.384   3.774  11.750 -0.6199 -0.4486 -0.1272
  964MOL0     C30031   7.315   3.893  11.791 -0.0836  0.2659  0.3525
  964MOL0     C30032   7.177   3.902  11.797  0.3150  0.8186  0.0232
  964MOL0     C30033   7.110   4.036  11.818  0.6419 -0.6796  0.6209
  964MOL0     C30034   7.093   3.785  11.770 -0.9849 -0.7355 -1.0090
  964MOL0     C30035   6.953   3.784  11.759  0.4379  0.6347  0.8822
  964MOL0     O30036   6.894   3.846  11.650  0.2268  0.5872 -0.6501
  964MOL0     C30037   6.753   3.826  11.638 -0.2189  0.4972  0.1024
  964MOL0     C30038   6.700   3.700  11.600  0.1554 -0.6979 -0.2349
  964MOL0     C30039   6.559   3.693  11.569  0.0219  0.7879 -0.2121
  964MOL0     C30040   6.476   3.794  11.588  0.2223 -0.0117 -0.6903
  964MOL0     O30041   6.350   3.782  11.540  0.6103 -0.1688  0.1323
  964MOL0     C30042   6.266   3.690  11.616 -0.6736 -0.7336  0.1252
  964MOL0     C30043   6.136   3.715  11.561 -0.3158 -0.0873  0.3730
  964MOL0     C30044   6.039   3.611  11.623 -0.2724 -0.3330 -0.2663
  964MOL0     C30045   5.894   3.649  11.587  0.1875  0.1696  0.1311
  964MOL0     C30046   5.798   3.560  11.672 -0.7786  0.4051 -0.0663
  964MOL0     C30047   5.650   3.591  11.630 -0.7228  0.1696 -0.2048
  964MOL0     C30048   5.561   3.490  11.701 -0.6788 -0.4756  0.6271
  964MOL0     C30049   5.414   3.493  11.639  0.0968  0.3711 -0.8079
  964MOL0    Cl30050   5.320   3.649  11.670 -0.6545 -0.3553  0.0506
  964MOL0     C30051   6.524   3.912  11.636 -0.0769 -0.2272 -0.2078
  964MOL0     C30052   6.663   3.929  11.666 -0.4873  0.8825  0.1674
  964MOL0     O30053   6.894   3.716  11.839 -0.1259 -0.5716 -0.2650
  964MOL0     C30054   7.161   3.667  11.737  0.4742 -0.0411  0.3257
  964MOL0     C30055   7.301   3.659  11.737  1.0084 -0.1857  0.5444
  964MOL0     N30056   7.930   3.759  11.344  0.4302  0.0923  1.0431
  964MOL0     N30057   8.042   3.823  11.331 -0.2104  1.4265 -0.2371
  964MOL0     C30058   9.045   4.385  10.780  0.9010  0.7570 -0.0604
  964MOL0     C30059   9.178   4.359  10.777  0.2341 -0.8027  0.7123
  964MOL0     C30060   9.611   4.372  10.951 -0.3660  0.0683 -0.2246
  964MOL0     C30061   9.674   4.411  10.829  0.6147  0.1240 -0.2982
  964MOL0     C30062   9.807   4.430  10.829 -0.6573  0.1376 -0.5071
  964MOL0     C30063   9.891   4.427  10.941 -0.1341  0.3704 -0.5294
  964MOL0     O30064  10.025   4.462  10.951 -0.2846  0.2705 -0.3765
  964MOL0     C30065  10.093   4.471  10.832 -1.0026 -0.3738  0.6341
  964MOL0     C30066  10.207   4.563  10.858  1.1338 -0.5164 -0.7231
  964MOL0     C30067  10.176   4.698  10.935 -0.1890 -0.5687  0.5244
  964MOL0     C30068  10.287   4.813  10.914 -0.0119  0.8491  0.8174
  964MOL0     C30069  10.419   4.788  10.985 -0.1165 -0.1720 -0.4097
  964MOL0     C30070  10.524   4.793  11.046 -0.7569  0.1100 -0.6463
  964MOL0     C30071   9.832   4.399  11.063  0.1943 -0.4801  0.4133
  964MOL0     C30072   9.690   4.374  11.072 -0.4441 -0.2828  0.6127
  964MOL0     H30073   9.273   4.486  11.071  0.9884  1.3017 -0.7568
  964MOL0     H30074   9.018   4.533  11.074 -0.4412  1.6081 -1.3342
  964MOL0     H30075   8.825   4.405  11.086 -2.9946  1.0583  1.7610
  964MOL0     H30076   8.701   4.505  11.012  2.5366  1.7689  3.2461
  964MOL0     H30077   8.659   4.321  10.849  1.0406  2.4073 -0.4592
  964MOL0     H30078   8.761   4.208  10.952 -1.5898 -1.6740  3.4058
  964MOL0     H30079   8.629   4.248  11.149  1.2168 -0.2087 -0.8366
  964MOL0     H30080   8.512   4.322  11.062  1.6358  1.4596  1.8704
  964MOL0     H30081   8.461   4.126  10.917  0.5618 -3.1757  0.0459
  964MOL0     H30082   8.601   4.046  10.956  2.3324  2.0290 -0.6014
  964MOL0     H30083   8.448   3.933  11.073 -0.5674  0.5581  0.3215
  964MOL0     H30084   8.525   4.009  11.202  0.3752  0.2418 -0.2691
  964MOL0     H30085   8.343   4.182  11.219 -0.8604  1.8385 -2.5888
  964MOL0     H30086   8.285   4.137  11.061 -0.5134 -1.4654  0.0059
  964MOL0     H30087   8.212   3.908  11.145  0.4697 -1.6356  2.3499
  964MOL0     H30088   8.293   3.932  11.295 -0.9750 -1.8619 -0.4247
  964MOL0     H30089   8.067   4.113  11.189 -0.2462 -0.4584 -0.6575
  964MOL0     H30090   8.120   4.121  11.363 -1.3907  2.0022 -0.3461
  964MOL0     H30091   7.816   4.049  11.273  2.4687  1.6613  0.3239
  964MOL0     H30092   7.631   3.912  11.278  0.6655  0.6626 -0.2623
  964MOL0     H30093   7.637   3.743  11.264  2.5388 -0.1431 -0.2124
  964MOL0     H30094   7.501   3.849  11.446  0.2301  0.9228 -0.0752
  964MOL0     H30095   7.661   3.879  11.535  1.3504 -0.7231  0.2761
  964MOL0     H30096   7.663   3.605  11.493  0.3842 -0.2771  2.4221
  964MOL0     H30097   7.488   3.626  11.509  0.4168 -0.7656  0.2693
  964MOL0     H30098   7.703   3.683  11.714  0.5544 -1.6502 -3.5528
  964MOL0     H30099   7.561   3.572  11.703 -0.3877 -0.6159 -3.6692
  964MOL0     H30100   7.383   3.977  11.805  0.5213  0.0164 -1.0038
  964MOL0     H30101   7.017   4.020  11.873 -0.8571 -1.1587 -1.8894
  964MOL0     H30102   7.178   4.098  11.877  0.7369  0.9014 -1.0512
  964MOL0     H30103   7.094   4.096  11.728  1.4149  0.4647  1.2223
  964MOL0     H30104   6.767   3.615  11.596  3.2086  1.5904 -1.7180
  964MOL0     H30105   6.516   3.598  11.539 -0.8955  0.6840  1.3442
  964MOL0     H30106   6.303   3.588  11.601  0.5356 -0.2122 -0.6205
  964MOL0     H30107   6.270   3.718  11.721 -2.9273  0.5254 -0.0682
  964MOL0     H30108   6.100   3.817  11.581  2.5063  0.5041  3.3534
  964MOL0     H30109   6.140   3.694  11.454  0.6889  1.1790  0.1238
  964MOL0     H30110   6.036   3.603  11.732 -0.4777  0.4071 -0.2081
  964MOL0     H30111   6.067   3.510  11.594  0.0346 -0.8127  1.5970
  964MOL0     H30112   5.868   3.750  11.619 -4.0919 -0.7381  0.1098
  964MOL0     H30113   5.880   3.638  11.479 -0.1729 -1.4298  0.3132
  964MOL0     H30114   5.816   3.560  11.780  1.9722  1.6669 -0.4385
  964MOL0     H30115   5.817   3.458  11.637 -5.1914 -0.8814  0.6949
  964MOL0     H30116   5.621   3.688  11.673 -1.3566 -0.9830  2.1372
  964MOL0     H30117   5.645   3.575  11.522  0.1068 -0.1585 -0.2021
  964MOL0     H30118   5.575   3.497  11.810 -2.9660  1.2472  0.9029
  964MOL0     H30119   5.579   3.384  11.683 -1.7003 -0.5562  0.0082
  964MOL0     H30120   5.361   3.402  11.668  0.8495  0.1655 -0.0150
  964MOL0     H30121   5.432   3.488  11.531  1.6988 -1.1899 -0.5190
  964MOL0     H30122   6.463   4.002  11.642 -0.1873 -0.0586 -2.7779
  964MOL0     H30123   6.701   4.029  11.684  1.0964  0.8490 -2.4575
  964MOL0     H30124   7.101   3.578  11.723  1.9624 -1.8180  3.9426
  964MOL0     H30125   7.362   3.571  11.720  0.6436  0.0183 -2.2549
  964MOL0     H30126   8.979   4.350  10.701 -0.8486  2.6323  0.5066
  964MOL0     H30127   9.227   4.304  10.697 -1.2199 -0.4468 -0.4610
  964MOL0     H30128   9.623   4.432  10.736  0.2292  0.4316 -0.0202
  964MOL0     H30129   9.844   4.464  10.733 -0.9058  1.7653 -0.0603
  964MOL0     H30130  10.117   4.370  10.796  0.1390 -0.5528  1.8545
  964MOL0     H30131  10.033   4.523  10.756  0.0757  0.3238  0.2314
  964MOL0     H30132  10.246   4.590  10.760 -1.6401  4.4623 -0.8237
  964MOL0     H30133  10.278   4.503  10.915 -1.8959 -2.5749  1.2324
  964MOL0     H30134  10.163   4.674  11.040  0.1955 -1.4433  0.3807
  964MOL0     H30135  10.084   4.743  10.898  0.8146  2.3298  1.2679
  964MOL0     H30136  10.248   4.908  10.953 -2.6233  0.5744 -0.9264
  964MOL0     H30137  10.313   4.830  10.810  0.9857 -0.3410  0.8423
  964MOL0     H30138  10.621   4.794  11.091 -0.8222  0.6596 -0.5139
  964MOL0     H30139   9.898   4.403  11.149  0.8612 -0.1626 -0.1007
  964MOL0     H30140   9.645   4.354  11.169 -0.7052  1.6224  0.9242
  965MOL0     O30141   4.961  10.370   6.131 -0.1785 -0.3335 -0.0862
  965MOL0     C30142   4.996  10.254   6.148  0.7748 -0.6975  1.0141
  965MOL0     O30143   4.917  10.148   6.187  0.0001 -0.6039 -0.1997
  965MOL0     C30144   4.788  10.169   6.219 -0.3911 -0.4770  1.1349
  965MOL0     C30145   4.684  10.105   6.136 -0.5427  0.0469 -0.0621
  965MOL0     C30146   4.552  10.114   6.168  0.0894 -0.2305  1.0333
  965MOL0     C30147   4.512  10.185   6.290 -1.2986  0.1776 -0.4630
  965MOL0     O30148   4.388  10.185   6.344 -0.6650  0.0152 -0.0808
  965MOL0     C30149   4.279  10.185   6.249  0.0994  0.0324  0.5044
  965MOL0     C30150   4.188  10.306   6.281 -0.5151  0.1940  0.8506
  965MOL0     C30151   4.116  10.283   6.413 -0.0089  1.0152 -1.0871
  965MOL0     C30152   4.019  10.398   6.438 -0.2223  0.6332  0.0108
  965MOL0     C30153   3.870  10.347   6.432  0.0370 -0.0223  0.5399
  965MOL0     C30154   3.775  10.463   6.446  0.6920 -0.7354 -1.1250
  965MOL0     C30155   3.636  10.433   6.388  0.3892  0.2340 -0.7153
  965MOL0     C30156   3.530  10.538   6.381 -0.9491 -0.5343  0.2012
  965MOL0     N30157   3.393  10.493   6.345  0.0754 -0.2283 -1.0488
  965MOL0     C30158   3.315  10.532   6.241  0.4542 -0.2839 -0.4741
  965MOL0     C30159   3.202  10.448   6.248 -1.2371  0.2108 -0.4349
  965MOL0     C30160   3.095  10.453   6.142 -1.0467 -0.6185  0.2496
  965MOL0     C30161   2.977  10.526   6.205 -0.6459  0.1175  0.3803
  965MOL0     C30162   2.881  10.572   6.093  0.0718  0.2559 -0.4777
  965MOL0     C30163   2.767  10.661   6.153  0.2878  0.3692  1.0711
  965MOL0     O30164   2.688  10.705   6.033  0.3017  0.4728  0.1299
  965MOL0     C30165   2.571  10.771   6.063 -0.4387 -0.9798  0.5828
  965MOL0     C30166   2.497  10.804   5.956  0.4935 -0.1302 -1.5084
  965MOL0     C30167   2.365  10.864   5.965  0.6693 -0.1781 -0.2980
  965MOL0     C30168   2.295  10.899   5.839 -0.0083  0.2895 -0.2523
  965MOL0     C30169   2.311  10.894   6.093  1.0175  0.8442 -0.4816
  965MOL0     C30170   2.171  10.925   6.128 -0.2279  0.2689  0.1237
  965MOL0     O30171   2.076  10.871   6.051 -0.1660  0.2481  0.3759
  965MOL0     C30172   1.940  10.884   6.081 -0.8207 -0.3323 -1.2076
  965MOL0     C30173   1.861  10.956   5.993 -0.0126  0.8706 -0.0457
  965MOL0     C30174   1.727  10.975   6.011  0.4325  0.3300 -0.0514
  965MOL0     C30175   1.667  10.918   6.127  0.5715 -0.2172 -0.5197
  965MOL0     O30176   1.528  10.938   6.147  0.9473  0.0987 -0.1031
  965MOL0     C30177   1.465  10.894   6.272  0.1116  0.1383  0.0914
  965MOL0     C30178   1.316  10.933   6.278  0.3696  0.4289  0.0785
  965MOL0     C30179   1.231  10.875   6.164 -0.3154 -0.6171  0.1433
  965MOL0     C30180   1.091  10.952   6.147 -0.1560  0.5664 -0.3546
  965MOL0     C30181   1.002  10.918   6.272 -0.3282 -0.7448 -0.2298
  965MOL0     C30182   0.846  10.946   6.234 -0.5752 -0.2541  0.2586
  965MOL0     C30183   0.818  11.095   6.238 -0.4170 -0.3998  0.3171
  965MOL0     C30184   0.670  11.125   6.208 -0.0374  0.8940 -0.2912
  965MOL0    Cl30185   0.627  11.294   6.239  0.6632 -0.3053  1.1809
  965MOL0     C30186   1.749  10.851   6.223 -0.2906  0.9977 -0.4754
  965MOL0     C30187   1.889  10.833   6.200  0.4054 -0.6407 -0.2550
  965MOL0     O30188   2.151  11.003   6.222 -0.2727 -1.2962  0.8005
  965MOL0     C30189   2.398  10.879   6.197 -0.3397  0.3224  0.1645
  965MOL0     C30190   2.521  10.815   6.180 -0.6138  0.4591 -0.2887
  965MOL0     N30191   3.232  10.347   6.342  0.2974  0.7077 -0.3160
  965MOL0     N30192   3.340  10.380   6.402 -0.5373  0.3989 -0.0298
  965MOL0     C30193   4.615  10.245   6.365 -0.0696 -0.2584  0.7223
  965MOL0     C30194   4.750  10.241   6.326 -0.8833  0.6871 -0.0585
  965MOL0     C30195   5.138  10.230   6.152 -0.5574 -0.4792 -0.0283
  965MOL0     C30196   5.230  10.306   6.076 -0.5244 -0.6391  0.4496
  965MOL0     C30197   5.370  10.277   6.087  0.2487 -0.9516 -0.0307
  965MOL0     C30198   5.416  10.171   6.166  0.2369 -0.6374 -0.1196
  965MOL0     O30199   5.554  10.142   6.156  0.2402  0.2284  0.4585
  965MOL0     C30200   5.610  10.048   6.249 -0.5003 -0.4688 -0.2210
  965MOL0     C30201   5.594   9.899   6.188 -0.3566 -0.6965 -0.1012
  965MOL0     C30202   5.719   9.822   6.245  0.2111 -0.5357  0.1102
  965MOL0     C30203   5.828   9.817   6.145 -0.9698  0.5096  0.0532
  965MOL0     C30204   5.942   9.751   6.210 -0.0481 -0.3426 -1.0260
  965MOL0     C30205   6.031   9.686   6.250 -0.0755  0.6387 -0.1230
  965MOL0     C30206   5.324  10.102   6.247  0.2777  0.5045  0.2910
  965MOL0     C30207   5.187  10.126   6.232 -0.2709 -0.5787 -1.0544
  965MOL0     H30208   4.704  10.045   6.048  2.1845 -0.4628  0.8331
  965MOL0     H30209   4.472  10.073   6.107  2.1911 -0.2858 -1.8762
  965MOL0     H30210   4.316  10.194   6.146 -0.8231  2.0425  0.2917
  965MOL0     H30211   4.227  10.089   6.253 -0.1340 -0.2789 -4.2015
  965MOL0     H30212   4.253  10.394   6.284  1.7756 -1.3552 -0.6628
  965MOL0     H30213   4.120  10.312   6.196  2.5307 -1.5934 -1.9369
  965MOL0     H30214   4.085  10.178   6.418  2.2284  0.3460  0.3619
  965MOL0     H30215   4.194  10.297   6.488  0.3260 -1.9470 -0.7344
  965MOL0     H30216   4.039  10.424   6.543 -0.6501 -0.4201  0.3560
  965MOL0     H30217   4.035  10.486   6.375 -2.7545  2.8992  2.2717
  965MOL0     H30218   3.860  10.309   6.330  1.7443  1.7667 -0.3582
  965MOL0     H30219   3.852  10.271   6.509 -2.2511 -0.0296  0.0778
  965MOL0     H30220   3.755  10.491   6.550 -1.6193  1.8961 -2.1450
  965MOL0     H30221   3.795  10.556   6.391 -5.3792  1.0479 -1.0737
  965MOL0     H30222   3.655  10.397   6.286 -0.7052 -0.5542 -0.6486
  965MOL0     H30223   3.604  10.348   6.448 -1.9619  0.1891 -1.9351
  965MOL0     H30224   3.557  10.618   6.312 -0.9393 -0.8961 -0.2184
  965MOL0     H30225   3.516  10.562   6.487  1.1545 -0.1443  0.4281
  965MOL0     H30226   3.338  10.610   6.169 -0.4621 -0.3074 -0.8005
  965MOL0     H30227   3.137  10.509   6.058  0.2115 -1.7981  0.0379
  965MOL0     H30228   3.074  10.355   6.098 -1.6491 -0.3102 -0.1497
  965MOL0     H30229   3.014  10.609   6.266 -3.9662  1.1010  1.2140
  965MOL0     H30230   2.942  10.456   6.281  2.9679 -1.6547  0.6476
  965MOL0     H30231   2.844  10.477   6.053  1.0829 -1.5769  2.6216
  965MOL0     H30232   2.936  10.624   6.014  0.1609 -0.1071 -0.6553
  965MOL0     H30233   2.803  10.757   6.191  1.4516  0.8113 -0.9759
  965MOL0     H30234   2.709  10.587   6.208  0.9280 -2.1125 -1.3469
  965MOL0     H30235   2.537  10.762   5.864 -0.2489 -1.8478 -1.0880
  965MOL0     H30236   2.268  11.005   5.835  0.8409  0.5289  0.0457
  965MOL0     H30237   2.368  10.876   5.760 -0.3487  1.4665 -0.9369
  965MOL0     H30238   2.203  10.844   5.816  0.7978  0.0425 -3.4115
  965MOL0     H30239   1.924  10.995   5.914  3.3787  2.8056  3.3102
  965MOL0     H30240   1.666  11.036   5.945  0.0064 -0.9339 -0.8634
  965MOL0     H30241   1.478  10.786   6.282  1.7500  0.2621 -0.5045
  965MOL0     H30242   1.514  10.942   6.357 -0.6450  0.4143  0.3860
  965MOL0     H30243   1.276  10.891   6.371 -1.0991 -0.0781 -0.7640
  965MOL0     H30244   1.314  11.042   6.278  1.8668  0.4922 -1.1215
  965MOL0     H30245   1.211  10.772   6.196 -0.0299 -0.1354  1.9657
  965MOL0     H30246   1.275  10.885   6.064 -0.3474 -0.4868  0.1422
  965MOL0     H30247   1.121  11.057   6.153  0.9687  0.2180  0.2600
  965MOL0     H30248   1.043  10.927   6.051 -2.6271  0.8384  0.7318
  965MOL0     H30249   1.027  10.977   6.361 -0.2804 -1.3467  0.1574
  965MOL0     H30250   1.007  10.815   6.308 -0.2513  0.2272  2.8688
  965MOL0     H30251   0.816  10.918   6.133 -2.3085 -0.0494  0.6905
  965MOL0     H30252   0.802  10.889   6.316  3.3339 -3.4062  0.4657
  965MOL0     H30253   0.880  11.148   6.166 -1.2755 -0.9259 -0.8464
  965MOL0     H30254   0.838  11.137   6.337  0.2474  1.2329 -0.4763
  965MOL0     H30255   0.602  11.064   6.267  0.7043  0.5534  0.2257
  965MOL0     H30256   0.647  11.109   6.102  2.3886  0.6857 -0.8595
  965MOL0     H30257   1.710  10.805   6.313  2.5312 -1.3015 -0.2709
  965MOL0     H30258   1.948  10.776   6.271  2.4609 -1.0893 -2.2287
  965MOL0     H30259   2.362  10.920   6.291 -3.9486  0.0669 -0.9502
  965MOL0     H30260   2.568  10.807   6.278 -2.7142  0.0258  0.7434
  965MOL0     H30261   4.587  10.289   6.460 -3.9730  0.5350 -0.6061
  965MOL0     H30262   4.818  10.306   6.380 -0.0160  2.2719 -2.8644
  965MOL0     H30263   5.214  10.380   5.998  1.2810 -0.6545  0.0050
  965MOL0     H30264   5.439  10.325   6.018 -0.0406 -2.2478 -1.2791
  965MOL0     H30265   5.712  10.082   6.266 -1.9912  3.5730  2.1102
  965MOL0     H30266   5.561  10.049   6.347  0.4651  1.3212  0.2855
  965MOL0     H30267   5.599   9.907   6.079  2.8846  0.7053  0.0401
  965MOL0     H30268   5.497   9.865   6.224 -1.1976  1.2480 -0.4316
  965MOL0     H30269   5.687   9.719   6.267 -0.5227 -0.2839  0.2444
  965MOL0     H30270   5.755   9.873   6.334  3.0916 -0.4728 -0.9727
  965MOL0     H30271   5.857   9.919   6.118  1.5733  0.1869  1.3010
  965MOL0     H30272   5.793   9.761   6.058  2.2015 -0.5446 -0.6649
  965MOL0     H30273   6.112   9.638   6.301 -0.2917 -2.1965 -2.2479
  965MOL0     H30274   5.348  10.020   6.314  0.2208 -0.0061 -0.3056
  965MOL0     H30275   5.124  10.057   6.286 -2.2795  1.6428 -0.4221
  966MOL0     O30276   5.928  10.299   1.857  0.8772 -0.6691 -0.4803
  966MOL0     C30277   5.929  10.227   1.757  1.7167  0.1211  0.3454
  966MOL0     O30278   5.848  10.249   1.646 -0.3049 -0.4325 -0.1941
  966MOL0     C30279   5.742  10.338   1.645  0.1793  0.3737 -0.2145
  966MOL0     C30280   5.658  10.341   1.746 -0.4260  0.6170  0.3525
  966MOL0     C30281   5.555  10.434   1.752  0.4532 -0.6310  0.1689
  966MOL0     C30282   5.530  10.515   1.641 -0.3061  1.6217  0.4996
  966MOL0     O30283   5.420  10.591   1.617 -0.1724  0.0161 -1.0456
  966MOL0     C30284   5.300  10.554   1.691  0.2560  0.8204  0.4974
  966MOL0     C30285   5.191  10.633   1.626  0.0772 -0.2248  0.7695
  966MOL0     C30286   5.057  10.611   1.687  0.9007 -1.4121  0.0336
  966MOL0     C30287   4.936  10.651   1.599  0.0766 -0.2568  0.5391
  966MOL0     C30288   4.798  10.635   1.677  0.3893  0.3516 -0.0595
  966MOL0     C30289   4.674  10.647   1.589 -0.0919  0.3319 -0.3568
  966MOL0     C30290   4.551  10.665   1.671 -0.0802 -0.4896  0.9655
  966MOL0     C30291   4.433  10.686   1.570  0.6817 -0.0859 -0.3122
  966MOL0     N30292   4.302  10.661   1.631  0.3437  0.6763 -0.7924
  966MOL0     C30293   4.243  10.738   1.731 -0.2252 -0.6635  0.3613
  966MOL0     C30294   4.123  10.679   1.751 -0.3698 -0.3065  0.1895
  966MOL0     C30295   4.020  10.740   1.835  0.1564  0.7533  0.1004
  966MOL0     C30296   3.985  10.887   1.794 -0.1151  0.0881  0.1510
  966MOL0     C30297   3.898  10.872   1.665 -0.2100 -0.0105 -0.6310
  966MOL0     C30298   3.905  10.992   1.580  0.1840  0.2383  1.2103
  966MOL0     O30299   3.815  11.106   1.606 -0.7562 -0.1083  0.3882
  966MOL0     C30300   3.689  11.114   1.561 -0.1662 -0.4999  0.1617
  966MOL0     C30301   3.613  11.025   1.483  0.6771 -0.4951  0.3401
  966MOL0     C30302   3.479  11.030   1.480  1.0058 -0.1315  0.4050
  966MOL0     C30303   3.420  10.927   1.384 -0.3075  0.0647 -0.2465
  966MOL0     C30304   3.406  11.133   1.550 -0.6393  0.2912 -0.2325
  966MOL0     C30305   3.256  11.151   1.565  0.4087 -0.7498 -0.6718
  966MOL0     O30306   3.215  11.273   1.611  0.6104 -0.2609 -0.2061
  966MOL0     C30307   3.080  11.290   1.621  0.1576  0.0135  0.9901
  966MOL0     C30308   3.021  11.361   1.519  0.2442  0.2176  0.9148
  966MOL0     C30309   2.884  11.381   1.518 -0.1137 -0.8227  0.4469
  966MOL0     C30310   2.807  11.336   1.625  0.7912  0.5847 -0.3821
  966MOL0     O30311   2.667  11.355   1.639 -0.8724  0.5132  0.3395
  966MOL0     C30312   2.587  11.394   1.525 -0.0466 -0.0709  0.4728
  966MOL0     C30313   2.438  11.369   1.547  0.0274 -1.4015 -0.2071
  966MOL0     C30314   2.394  11.482   1.640 -0.5697 -0.4142  0.8171
  966MOL0     C30315   2.256  11.456   1.689  0.4866  0.0321  0.2959
  966MOL0     C30316   2.189  11.581   1.751  0.3899 -0.2022  0.8050
  966MOL0     C30317   2.051  11.535   1.808 -0.1886 -1.3086 -0.1569
  966MOL0     C30318   1.998  11.646   1.898  1.2156 -0.4503  0.4242
  966MOL0     C30319   1.856  11.623   1.948  0.8898  0.0395  0.6101
  966MOL0    Cl30320   1.808  11.743   2.078 -0.0873  0.3809  0.1945
  966MOL0     C30321   2.867  11.266   1.735  0.3200  0.2504  0.9092
  966MOL0     C30322   3.003  11.240   1.723 -0.0706 -0.0336 -0.1482
  966MOL0     O30323   3.178  11.055   1.548 -0.1774  0.3726 -0.2926
  966MOL0     C30324   3.487  11.237   1.603 -0.3404  0.1164  0.6067
  966MOL0     C30325   3.627  11.230   1.611  0.8347  0.6473  0.2620
  966MOL0     N30326   4.115  10.563   1.682  1.2368  0.7587  0.4271
  966MOL0     N30327   4.221  10.549   1.608 -0.7070 -0.5412 -0.5476
  966MOL0     C30328   5.631  10.514   1.535 -0.2872  0.0028 -0.7265
  966MOL0     C30329   5.731  10.421   1.535 -0.0493  0.1894 -0.1908
  966MOL0     C30330   6.035  10.119   1.747  0.7074 -0.3167 -0.1920
  966MOL0     C30331   6.159  10.147   1.810 -0.1306 -0.0957 -0.3355
  966MOL0     C30332   6.263  10.054   1.808  0.2051 -0.3283  0.0230
  966MOL0     C30333   6.244   9.929   1.746 -0.0832  0.4746  0.5751
  966MOL0     O30334   6.337   9.829   1.739  0.1439 -0.2969  0.0380
  966MOL0     C30335   6.469   9.869   1.782 -0.9525 -0.0746 -0.3204
  966MOL0     C30336   6.551   9.743   1.779  0.6493  0.3580  0.0261
  966MOL0     C30337   6.695   9.773   1.793 -0.7541  0.4577  0.0003
  966MOL0     C30338   6.781   9.649   1.795 -0.8616 -0.7496 -0.5795
  966MOL0     C30339   6.923   9.682   1.797  0.7082 -0.8750  1.0324
  966MOL0     C30340   7.043   9.707   1.786 -0.3288 -0.4444  0.0604
  966MOL0     C30341   6.120   9.905   1.677  0.1678  0.4304 -0.2805
  966MOL0     C30342   6.029  10.003   1.666 -0.1428 -0.0800 -0.0402
  966MOL0     H30343   5.662  10.257   1.815 -2.8993  0.1897  0.0918
  966MOL0     H30344   5.480  10.430   1.831  1.0990  3.2349  1.2201
  966MOL0     H30345   5.279  10.447   1.684 -0.6935  1.0122  0.2200
  966MOL0     H30346   5.302  10.586   1.796 -2.6512 -2.0170  1.5971
  966MOL0     H30347   5.202  10.741   1.640 -1.4217  0.0793 -0.1374
  966MOL0     H30348   5.188  10.610   1.519  2.6147 -0.3335  0.6721
  966MOL0     H30349   5.044  10.510   1.728  0.2974 -0.1437  3.2540
  966MOL0     H30350   5.049  10.679   1.772 -0.2852 -1.1646 -0.2574
  966MOL0     H30351   4.945  10.754   1.563 -1.3109 -1.2595 -3.0716
  966MOL0     H30352   4.932  10.593   1.507 -2.0051 -1.5210  1.3608
  966MOL0     H30353   4.789  10.543   1.736 -0.2720  1.6616  2.0163
  966MOL0     H30354   4.810  10.719   1.746  0.6643 -0.0128  0.3431
  966MOL0     H30355   4.682  10.730   1.518 -1.1278  0.6422 -0.1389
  966MOL0     H30356   4.653  10.562   1.523 -0.9757  0.4973 -0.3047
  966MOL0     H30357   4.545  10.576   1.734  0.7086 -0.9387  0.4247
  966MOL0     H30358   4.559  10.748   1.742  0.4232  3.5478 -3.3120
  966MOL0     H30359   4.444  10.616   1.487  2.1404 -0.6443  0.3054
  966MOL0     H30360   4.439  10.787   1.528  1.7074  0.3196  0.7256
  966MOL0     H30361   4.281  10.826   1.780 -0.0148 -0.1853 -0.6431
  966MOL0     H30362   3.936  10.670   1.832  2.1579 -1.9022  1.6058
  966MOL0     H30363   4.048  10.732   1.940 -1.4228 -2.8774  0.3924
  966MOL0     H30364   4.079  10.941   1.786  0.3089 -0.3185  1.8785
  966MOL0     H30365   3.927  10.934   1.874  1.1529  1.1849  0.4447
  966MOL0     H30366   3.792  10.856   1.684 -0.3737  0.8053 -0.8040
  966MOL0     H30367   3.925  10.790   1.598  1.4116  0.6806 -0.8649
  966MOL0     H30368   3.894  10.945   1.481  1.7812  0.7223  0.7826
  966MOL0     H30369   4.006  11.034   1.581  0.9970 -1.2170 -2.4734
  966MOL0     H30370   3.664  10.939   1.440 -0.0489 -0.8402  0.1504
  966MOL0     H30371   3.393  10.831   1.429  2.2707 -0.3930  0.4993
  966MOL0     H30372   3.330  10.973   1.342 -0.7699  0.6114  1.2450
  966MOL0     H30373   3.490  10.901   1.305  0.7768  1.8602  0.0542
  966MOL0     H30374   3.082  11.391   1.434 -0.5382 -0.7152  0.0074
  966MOL0     H30375   2.832  11.426   1.434 -0.6201 -0.5171  0.9174
  966MOL0     H30376   2.598  11.500   1.502 -4.2816  0.0264 -2.1484
  966MOL0     H30377   2.612  11.343   1.432 -0.9746  3.9340 -2.2384
  966MOL0     H30378   2.386  11.371   1.451 -1.8350 -1.9028  0.7406
  966MOL0     H30379   2.403  11.272   1.583 -3.1691  0.6860  2.9140
  966MOL0     H30380   2.392  11.574   1.581 -1.1961 -1.5078 -0.9275
  966MOL0     H30381   2.459  11.483   1.728  0.1172 -1.0809  0.3358
  966MOL0     H30382   2.195  11.419   1.605  0.6864 -2.6377  1.2286
  966MOL0     H30383   2.265  11.385   1.771 -0.5219  1.4289  1.6671
  966MOL0     H30384   2.169  11.656   1.675 -2.8614  0.9339  2.5871
  966MOL0     H30385   2.260  11.626   1.822  2.5352 -0.1210 -1.2671
  966MOL0     H30386   1.984  11.498   1.729  2.5234 -3.2867 -1.6763
  966MOL0     H30387   2.064  11.451   1.877 -0.8633 -0.6843  0.7527
  966MOL0     H30388   1.994  11.736   1.837  2.2286 -0.3738  0.4610
  966MOL0     H30389   2.062  11.672   1.983 -1.1440  4.7023  0.9574
  966MOL0     H30390   1.851  11.527   2.001  0.5041 -1.1128 -1.3907
  966MOL0     H30391   1.782  11.636   1.868 -0.3505  1.9430  1.9980
  966MOL0     H30392   2.800  11.230   1.812 -1.2566 -0.1593 -0.5855
  966MOL0     H30393   3.055  11.188   1.803  1.3157  1.4105 -0.0551
  966MOL0     H30394   3.436  11.323   1.647  0.9351  1.4885 -0.5320
  966MOL0     H30395   3.686  11.306   1.660  0.7533  0.5583  0.5046
  966MOL0     H30396   5.625  10.581   1.451  0.0663  0.5202 -0.3463
  966MOL0     H30397   5.792  10.415   1.445 -0.1643  1.0716 -0.3311
  966MOL0     H30398   6.181  10.242   1.859 -1.2202 -0.4939  0.9919
  966MOL0     H30399   6.356  10.078   1.858 -0.4548  0.8503  0.7386
  966MOL0     H30400   6.511   9.942   1.713 -1.8254  1.5759  0.8269
  966MOL0     H30401   6.472   9.908   1.884 -0.8957  2.1793 -1.1197
  966MOL0     H30402   6.529   9.695   1.683 -2.8277  1.8088 -0.0391
  966MOL0     H30403   6.503   9.677   1.851 -2.4050  0.8983 -1.3308
  966MOL0     H30404   6.710   9.833   1.883 -0.4105  0.1638  0.1416
  966MOL0     H30405   6.739   9.836   1.715 -0.8992  3.2396  1.9845
  966MOL0     H30406   6.754   9.583   1.712  1.0004  0.4332 -2.2291
  966MOL0     H30407   6.775   9.594   1.890 -0.3208  0.2984  0.0753
  966MOL0     H30408   7.150   9.708   1.784 -0.2173  0.0209  2.6639
  966MOL0     H30409   6.106   9.807   1.632  3.8055 -0.1364 -0.4894
  966MOL0     H30410   5.934   9.990   1.615  1.2953  0.7916 -3.2122
  967MOL0     O30411   3.574   7.257   6.769  0.0065 -0.4294 -0.1064
  967MOL0     C30412   3.664   7.245   6.849 -0.2176 -0.6141  0.0274
  967MOL0     O30413   3.659   7.285   6.978 -0.4926  0.1392 -0.2924
  967MOL0     C30414   3.556   7.360   7.033  0.1814 -0.0365 -0.1209
  967MOL0     C30415   3.510   7.321   7.150 -0.6232 -1.0464 -0.0691
  967MOL0     C30416   3.400   7.391   7.211  0.2997  0.3971  0.0558
  967MOL0     C30417   3.330   7.492   7.138  0.3163  0.0724  0.5992
  967MOL0     O30418   3.213   7.550   7.183 -0.5916 -0.6872  0.7671
  967MOL0     C30419   3.174   7.547   7.321  1.2022 -0.1136 -0.1418
  967MOL0     C30420   3.064   7.656   7.346  0.2434  0.4882  0.5894
  967MOL0     C30421   3.022   7.683   7.494  0.4514 -0.7640  0.6518
  967MOL0     C30422   2.982   7.831   7.508  0.5814 -0.0135  0.5168
  967MOL0     C30423   2.905   7.849   7.643  0.1520  0.3984  0.4789
  967MOL0     C30424   2.842   7.983   7.670 -0.1252 -0.1953  0.2511
  967MOL0     C30425   2.722   8.011   7.579 -0.2350  1.0589 -0.5743
  967MOL0     C30426   2.689   8.154   7.601  0.8716 -0.5453 -0.0105
  967MOL0     N30427   2.566   8.170   7.538  0.4084 -0.6313  0.5412
  967MOL0     C30428   2.453   8.094   7.505 -0.2771 -0.5184 -0.8272
  967MOL0     C30429   2.347   8.173   7.471  0.5751 -0.5190  0.1215
  967MOL0     C30430   2.208   8.138   7.459 -0.2799 -0.0754 -0.6258
  967MOL0     C30431   2.149   8.090   7.595  0.7955  0.2532  0.2069
  967MOL0     C30432   2.126   8.205   7.687 -0.1193  1.1604 -0.4523
  967MOL0     C30433   2.045   8.161   7.806 -0.0170 -0.3225  0.1201
  967MOL0     O30434   1.929   8.073   7.776  0.3524  0.4449 -0.0369
  967MOL0     C30435   1.801   8.117   7.797 -0.8195 -0.2568  0.4261
  967MOL0     C30436   1.757   8.247   7.803  0.4050 -0.2007  1.3716
  967MOL0     C30437   1.628   8.275   7.835  0.7499 -0.8814 -0.1763
  967MOL0     C30438   1.597   8.422   7.835  0.2352 -0.6949 -0.3783
  967MOL0     C30439   1.534   8.172   7.847  0.5573  0.3158 -0.0486
  967MOL0     C30440   1.386   8.201   7.863 -0.3181 -0.8466 -0.3602
  967MOL0     O30441   1.305   8.095   7.830  0.6495 -0.6414 -0.1381
  967MOL0     C30442   1.172   8.116   7.847  0.5758  0.7823 -0.6195
  967MOL0     C30443   1.102   8.041   7.942  1.0379  0.1262  0.4356
  967MOL0     C30444   0.959   8.039   7.947  0.3878 -0.6404 -0.2800
  967MOL0     C30445   0.887   8.133   7.873  0.1105 -0.1138  0.0444
  967MOL0     O30446   0.751   8.152   7.885  0.0699  0.0848  0.2574
  967MOL0     C30447   0.657   8.048   7.923  0.6171  0.5852 -0.1254
  967MOL0     C30448   0.566   7.999   7.804 -0.2998  0.7056  0.1366
  967MOL0     C30449   0.478   8.113   7.746 -0.1488 -1.0441  0.0068
  967MOL0     C30450   0.382   8.054   7.634 -0.2731  0.3278 -0.0298
  967MOL0     C30451   0.268   8.145   7.598  0.3497  0.1642  0.1190
  967MOL0     C30452   0.156   8.080   7.520 -0.7083  0.4169 -0.2838
  967MOL0     C30453   0.041   8.179   7.503 -0.0393 -0.5735 -0.7434
  967MOL0     C30454  -0.048   8.134   7.394 -0.4421  0.6773 -0.2188
  967MOL0    Cl30455  -0.137   7.999   7.453  0.2106 -0.0828 -0.1253
  967MOL0     C30456   0.956   8.209   7.774  0.6185  0.6175  0.3806
  967MOL0     C30457   1.098   8.200   7.770 -1.2523 -0.2500 -0.5896
  967MOL0     O30458   1.352   8.313   7.909  0.4833  0.2810  0.8605
  967MOL0     C30459   1.574   8.041   7.836  0.2086  0.0497  0.0582
  967MOL0     C30460   1.705   8.014   7.821 -0.2151 -0.5354  0.5446
  967MOL0     N30461   2.395   8.302   7.472 -0.2066 -0.2019  0.7756
  967MOL0     N30462   2.521   8.295   7.506 -0.7483  1.1317  0.1954
  967MOL0     C30463   3.377   7.522   7.016  0.8346 -0.3113  0.4472
  967MOL0     C30464   3.483   7.457   6.960  0.2114  0.2620 -0.1628
  967MOL0     C30465   3.785   7.176   6.792  0.2987 -0.6384  0.2798
  967MOL0     C30466   3.893   7.135   6.869  0.1098 -0.7781  0.4575
  967MOL0     C30467   4.005   7.068   6.819  0.1073  0.5006 -0.2167
  967MOL0     C30468   4.017   7.044   6.685  0.7776 -0.5924  0.0460
  967MOL0     O30469   4.125   6.989   6.629  0.4364  0.1727 -0.2078
  967MOL0     C30470   4.209   7.067   6.545 -0.3091  0.4326 -0.7633
  967MOL0     C30471   4.357   7.012   6.554  0.1234  0.2300 -0.9295
  967MOL0     C30472   4.358   6.862   6.548  0.3201 -0.4063  0.3919
  967MOL0     C30473   4.493   6.810   6.508  0.1280 -0.3253 -0.0601
  967MOL0     C30474   4.594   6.783   6.614 -1.5194  0.4758  0.8394
  967MOL0     C30475   4.689   6.763   6.690 -0.3122  0.4153  0.7039
  967MOL0     C30476   3.910   7.092   6.602 -0.1760  0.2534  1.0670
  967MOL0     C30477   3.791   7.152   6.654  0.9843 -0.3165 -0.0799
  967MOL0     H30478   3.567   7.241   7.197  3.6086  2.1798  0.9419
  967MOL0     H30479   3.363   7.357   7.307 -2.0472  1.3185 -0.4642
  967MOL0     H30480   3.122   7.451   7.334  2.8704 -1.2398 -1.4036
  967MOL0     H30481   3.260   7.559   7.387  2.4816  0.7696 -1.8971
  967MOL0     H30482   3.104   7.749   7.305 -0.3264 -0.7979 -3.3280
  967MOL0     H30483   2.972   7.622   7.298  1.1158 -0.2981 -0.5918
  967MOL0     H30484   2.950   7.604   7.520  0.8387 -1.3551 -0.0404
  967MOL0     H30485   3.109   7.668   7.558  2.4681 -0.6833 -1.9189
  967MOL0     H30486   3.075   7.888   7.522  2.0440 -2.7071  2.8991
  967MOL0     H30487   2.913   7.860   7.429 -1.4672 -1.1800  1.7853
  967MOL0     H30488   2.826   7.774   7.654  2.7332 -2.5928  0.3712
  967MOL0     H30489   2.980   7.822   7.718  2.8355 -0.2880 -2.2626
  967MOL0     H30490   2.801   7.988   7.772  0.5843  0.6526  0.5092
  967MOL0     H30491   2.922   8.057   7.661  1.9278 -2.0966  1.8508
  967MOL0     H30492   2.733   7.984   7.474 -0.9692  2.0028 -0.9082
  967MOL0     H30493   2.640   7.953   7.622  0.2565  0.8070  0.0436
  967MOL0     H30494   2.757   8.229   7.560 -0.0162 -0.6089 -1.6905
  967MOL0     H30495   2.681   8.180   7.707  0.9553 -0.2514 -0.0760
  967MOL0     H30496   2.447   7.986   7.520 -1.5023 -0.4876 -1.0075
  967MOL0     H30497   2.150   8.224   7.425 -1.3887 -0.2958  0.6257
  967MOL0     H30498   2.190   8.062   7.382 -1.5483 -1.2802  0.7983
  967MOL0     H30499   2.210   8.010   7.638 -0.4449 -0.2754  1.0490
  967MOL0     H30500   2.050   8.049   7.570  1.2525 -2.7493  2.6831
  967MOL0     H30501   2.061   8.280   7.639 -1.5269  0.4591  0.2930
  967MOL0     H30502   2.227   8.236   7.714 -0.2454 -0.5349  2.2805
  967MOL0     H30503   2.006   8.253   7.851 -0.5345  0.1510 -1.2600
  967MOL0     H30504   2.114   8.112   7.876  0.0992  0.4193  0.5378
  967MOL0     H30505   1.823   8.327   7.773  0.1698  0.1718  1.8320
  967MOL0     H30506   1.677   8.484   7.794 -1.4559  0.6975 -1.7962
  967MOL0     H30507   1.506   8.443   7.778  1.8244  2.4899 -2.0194
  967MOL0     H30508   1.575   8.455   7.937  0.6439 -0.7832 -0.2619
  967MOL0     H30509   1.157   7.977   8.011 -0.0192 -1.6192 -0.2525
  967MOL0     H30510   0.910   7.982   8.025  0.3652  3.4580  3.0112
  967MOL0     H30511   0.710   7.960   7.962 -1.5480 -0.7867 -0.1329
  967MOL0     H30512   0.585   8.070   8.002  0.0891 -1.1410 -0.0904
  967MOL0     H30513   0.611   7.943   7.721 -2.6742  0.1284 -0.8757
  967MOL0     H30514   0.493   7.926   7.842 -1.3431  0.9279 -1.3399
  967MOL0     H30515   0.548   8.191   7.716 -0.7902  0.1090  1.3762
  967MOL0     H30516   0.424   8.162   7.828  1.6148  1.3135 -0.1340
  967MOL0     H30517   0.429   8.041   7.536  0.0444 -0.8450  0.2618
  967MOL0     H30518   0.338   7.963   7.677 -0.6801  0.9387  0.8664
  967MOL0     H30519   0.305   8.225   7.534 -1.4478  1.7491  0.9431
  967MOL0     H30520   0.224   8.187   7.689 -0.8239 -2.0816  0.6708
  967MOL0     H30521   0.196   8.033   7.430  2.2243 -1.4119  1.8173
  967MOL0     H30522   0.133   7.995   7.585  3.1291 -1.4950 -1.1200
  967MOL0     H30523   0.085   8.277   7.484  4.7577 -2.0009  1.5140
  967MOL0     H30524  -0.015   8.182   7.597  3.0927  0.7086  1.2244
  967MOL0     H30525   0.015   8.104   7.310 -0.0584 -2.6493  1.0800
  967MOL0     H30526  -0.114   8.212   7.356 -1.9971  0.0980  1.1741
  967MOL0     H30527   0.904   8.279   7.710 -1.0590 -0.9129 -0.0214
  967MOL0     H30528   1.150   8.257   7.694  0.6122  0.3445  1.0450
  967MOL0     H30529   1.502   7.960   7.832 -0.0922  0.2381  1.1999
  967MOL0     H30530   1.739   7.911   7.815  0.3008 -0.3071 -0.8521
  967MOL0     H30531   3.323   7.598   6.960  0.4130 -2.3628 -2.1211
  967MOL0     H30532   3.514   7.496   6.864  0.3100  1.3028  0.2773
  967MOL0     H30533   3.895   7.176   6.969 -1.2446  1.6734 -0.4455
  967MOL0     H30534   4.083   7.043   6.891 -0.4229 -0.8089 -0.0571
  967MOL0     H30535   4.162   7.068   6.446 -0.9577  1.4636 -0.4601
  967MOL0     H30536   4.204   7.170   6.581  1.5671  0.0496  0.7412
  967MOL0     H30537   4.409   7.051   6.641  0.3436 -1.3942 -0.2927
  967MOL0     H30538   4.416   7.058   6.474  1.4113  3.3241  1.6127
  967MOL0     H30539   4.289   6.831   6.470  2.7162  1.0527 -2.5103
  967MOL0     H30540   4.320   6.828   6.644 -3.6968  1.5632 -0.3089
  967MOL0     H30541   4.542   6.874   6.434  2.0549 -1.2320  0.3520
  967MOL0     H30542   4.473   6.713   6.462  1.9385 -0.6973 -0.1326
  967MOL0     H30543   4.771   6.778   6.758  2.8450  3.1272 -3.1643
  967MOL0     H30544   3.909   7.080   6.494  2.1092 -0.3303  1.0502
  967MOL0     H30545   3.705   7.176   6.592  0.2564 -1.4538  0.4635
  968MOL0     O30546   4.338   7.261   9.958 -0.0243  0.0830 -0.2577
  968MOL0     C30547   4.349   7.148   9.991  0.7611 -0.4282 -0.3845
  968MOL0     O30548   4.254   7.078  10.059 -0.2151 -0.0462 -0.3890
  968MOL0     C30549   4.138   7.150  10.088  0.6100 -0.0086  0.4688
  968MOL0     C30550   4.047   7.160   9.983  0.0076 -0.3183 -0.0066
  968MOL0     C30551   3.933   7.230  10.008  0.3068 -0.2337  0.1039
  968MOL0     C30552   3.900   7.282  10.144 -0.7398  0.2797 -0.3514
  968MOL0     O30553   3.781   7.342  10.169 -0.2920  0.2769  0.7060
  968MOL0     C30554   3.664   7.297  10.093  0.5991  0.2809  0.1568
  968MOL0     C30555   3.537   7.314  10.192 -0.4104 -0.1060 -0.3393
  968MOL0     C30556   3.407   7.292  10.128  0.0729  0.6305 -0.1511
  968MOL0     C30557   3.293   7.343  10.213 -0.3314 -0.0307  0.2882
  968MOL0     C30558   3.158   7.356  10.138 -0.0567 -0.1328  0.2365
  968MOL0     C30559   3.141   7.488  10.074  0.7875 -0.5554  0.6606
  968MOL0     C30560   2.990   7.518  10.041 -0.0205 -0.4194  0.5620
  968MOL0     C30561   2.963   7.656   9.984  0.5939  0.1398  0.1148
  968MOL0     N30562   2.820   7.683   9.981  0.4853  0.5954 -0.4881
  968MOL0     C30563   2.723   7.649   9.891  0.1539 -0.4556 -0.4715
  968MOL0     C30564   2.604   7.706   9.926 -0.5094  0.9307  0.3804
  968MOL0     C30565   2.476   7.697   9.837  0.2847  0.2643 -0.7521
  968MOL0     C30566   2.460   7.810   9.738 -0.3628  0.6578  0.3954
  968MOL0     C30567   2.316   7.813   9.679 -0.1216  0.6953 -0.0671
  968MOL0     C30568   2.298   7.960   9.632  0.0961  0.3059  0.0915
  968MOL0     O30569   2.170   8.005   9.581  0.0075  0.6400  0.6956
  968MOL0     C30570   2.095   7.934   9.490  0.7139  0.7425 -0.0946
  968MOL0     C30571   2.150   7.836   9.407  0.4628  0.7287  0.0242
  968MOL0     C30572   2.073   7.781   9.295 -0.3264 -0.4331 -0.4325
  968MOL0     C30573   2.145   7.682   9.205  0.5798  0.4986 -0.2635
  968MOL0     C30574   1.937   7.821   9.279  0.4277  0.4622  0.2493
  968MOL0     C30575   1.842   7.756   9.179 -0.3486 -0.1788 -0.0504
  968MOL0     O30576   1.712   7.741   9.222  0.2145  0.1959 -0.3730
  968MOL0     C30577   1.605   7.729   9.132 -0.4631 -0.1648  0.2909
  968MOL0     C30578   1.616   7.661   9.015  0.3028 -0.1159 -0.2145
  968MOL0     C30579   1.500   7.626   8.942 -0.6361  0.4424 -0.8365
  968MOL0     C30580   1.378   7.681   8.971  0.4495 -0.5151 -0.5075
  968MOL0     O30581   1.269   7.671   8.888 -0.9972 -0.5638 -0.4094
  968MOL0     C30582   1.135   7.679   8.935  0.0135  1.2018 -0.1063
  968MOL0     C30583   1.033   7.649   8.821  0.5578 -0.0500  0.7848
  968MOL0     C30584   1.039   7.756   8.717 -0.3801 -0.2264  0.2443
  968MOL0     C30585   0.916   7.732   8.617  1.1484  0.3995  0.2136
  968MOL0     C30586   0.796   7.828   8.659 -0.1475 -0.8214  0.8837
  968MOL0     C30587   0.665   7.781   8.609 -0.1905  0.0114 -0.1157
  968MOL0     C30588   0.620   7.648   8.675 -0.8565 -0.3686  0.2775
  968MOL0     C30589   0.476   7.626   8.640  0.7827 -1.2399  0.1181
  968MOL0    Cl30590   0.451   7.556   8.473 -0.3954 -0.6690 -0.0383
  968MOL0     C30591   1.366   7.747   9.094 -0.1838 -0.2600 -0.1069
  968MOL0     C30592   1.484   7.771   9.168  1.4715 -0.5592  0.1803
  968MOL0     O30593   1.895   7.730   9.066  0.2801 -0.1650 -0.8334
  968MOL0     C30594   1.880   7.909   9.374 -0.6565  0.0870  0.5685
  968MOL0     C30595   1.965   7.969   9.474 -0.0449  0.7844 -0.1033
  968MOL0     N30596   2.625   7.776  10.041 -0.0655  0.6844 -0.4943
  968MOL0     N30597   2.757   7.769  10.069 -0.6711  0.4106  0.6573
  968MOL0     C30598   4.001   7.277  10.246  0.0584 -0.7223 -0.5532
  968MOL0     C30599   4.119   7.202  10.215  0.0661  0.5980 -0.4424
  968MOL0     C30600   4.476   7.083   9.956  0.2533 -0.6048 -0.0315
  968MOL0     C30601   4.506   6.953   9.992  0.3091 -0.0459 -0.0144
  968MOL0     C30602   4.629   6.893   9.959  0.5755  0.0663  0.3414
  968MOL0     C30603   4.725   6.962   9.894  0.1957  1.0384  0.0275
  968MOL0     O30604   4.842   6.896   9.871  0.0906 -0.8312 -0.0990
  968MOL0     C30605   4.839   6.813   9.752 -0.2869 -0.5217  0.1657
  968MOL0     C30606   4.922   6.695   9.778 -0.0480  0.1693  1.3251
  968MOL0     C30607   5.066   6.728   9.748  0.3408  0.7105  0.5667
  968MOL0     C30608   5.159   6.615   9.789  0.8102  0.2383 -0.7485
  968MOL0     C30609   5.298   6.642   9.765 -0.6036  0.4514 -0.9446
  968MOL0     C30610   5.423   6.657   9.750 -0.4537  0.6520 -1.0458
  968MOL0     C30611   4.700   7.089   9.847 -0.2137  0.0940  0.0270
  968MOL0     C30612   4.573   7.145   9.877  0.6237  0.1446 -0.2560
  968MOL0     H30613   4.070   7.111   9.888  1.9576 -1.3676  0.9477
  968MOL0     H30614   3.861   7.242   9.928  0.5403  2.6679  0.1962
  968MOL0     H30615   3.655   7.368  10.010 -2.8414  1.9309  1.7354
  968MOL0     H30616   3.671   7.202  10.039  0.0203  0.2877  0.0599
  968MOL0     H30617   3.550   7.249  10.279 -3.1507  1.6683  1.5510
  968MOL0     H30618   3.540   7.413  10.238  0.8698 -1.0794  1.8018
  968MOL0     H30619   3.407   7.340  10.030 -2.5714  0.2158 -0.4460
  968MOL0     H30620   3.392   7.185  10.108 -0.8188  0.5264  0.9403
  968MOL0     H30621   3.280   7.277  10.299  2.0477 -0.2490  0.5440
  968MOL0     H30622   3.317   7.437  10.262  2.0259 -1.3924  1.9212
  968MOL0     H30623   3.138   7.272  10.070 -3.5540  0.1633  0.6785
  968MOL0     H30624   3.076   7.340  10.209 -1.8751 -0.0783 -1.7305
  968MOL0     H30625   3.170   7.572  10.138  2.3012 -1.4158  1.1318
  968MOL0     H30626   3.199   7.480   9.981 -2.1534 -1.6264 -1.2388
  968MOL0     H30627   2.949   7.444   9.972  2.1330 -0.6462 -0.5421
  968MOL0     H30628   2.938   7.510  10.137  1.0810  0.3372  1.2406
  968MOL0     H30629   3.001   7.658   9.881 -0.6570 -1.1546 -0.4041
  968MOL0     H30630   3.006   7.739  10.041 -0.6586  0.9673 -0.0948
  968MOL0     H30631   2.722   7.600   9.794 -1.6754 -0.7493 -0.3358
  968MOL0     H30632   2.483   7.595   9.799  1.1465  0.7292 -1.9037
  968MOL0     H30633   2.391   7.700   9.906  1.6477 -0.2442  1.0272
  968MOL0     H30634   2.540   7.820   9.664  0.7098 -0.4188  1.3612
  968MOL0     H30635   2.461   7.902   9.797 -0.9254  1.7181 -1.1814
  968MOL0     H30636   2.235   7.796   9.751  0.2697  1.5766  0.5998
  968MOL0     H30637   2.314   7.747   9.592 -0.9525  0.9083 -0.2166
  968MOL0     H30638   2.378   7.983   9.562  2.4200  1.2920  2.8718
  968MOL0     H30639   2.316   8.022   9.720  2.5293  0.2353 -0.2781
  968MOL0     H30640   2.257   7.816   9.417  0.0711 -2.3037 -0.8871
  968MOL0     H30641   2.077   7.600   9.180  1.2300  0.5155 -2.2304
  968MOL0     H30642   2.181   7.730   9.114  1.6587  0.2746  0.0285
  968MOL0     H30643   2.229   7.640   9.262  0.9176  2.2317  0.5888
  968MOL0     H30644   1.710   7.611   8.994  2.5468  2.8188  2.0421
  968MOL0     H30645   1.505   7.565   8.852 -0.8424 -0.5787 -0.1660
  968MOL0     H30646   1.130   7.607   9.017  3.4252 -0.0700 -0.8222
  968MOL0     H30647   1.106   7.775   8.978 -0.4575 -0.2621  3.1408
  968MOL0     H30648   1.031   7.549   8.778 -0.8923  1.0580 -1.9663
  968MOL0     H30649   0.931   7.649   8.863 -0.5163 -2.1446 -1.5369
  968MOL0     H30650   1.126   7.737   8.654 -0.0280  0.6060  0.4651
  968MOL0     H30651   1.050   7.858   8.754  0.8786 -0.2588 -0.0231
  968MOL0     H30652   0.955   7.770   8.522  2.6970  1.1733  1.1143
  968MOL0     H30653   0.888   7.627   8.609  0.0961  0.7621 -1.4331
  968MOL0     H30654   0.826   7.928   8.627  0.4632  0.1291  4.0884
  968MOL0     H30655   0.781   7.826   8.767  2.1066  2.2160  1.3810
  968MOL0     H30656   0.594   7.859   8.636 -1.2766 -1.5177  1.7114
  968MOL0     H30657   0.673   7.766   8.501  0.3657  0.5903 -0.1587
  968MOL0     H30658   0.644   7.659   8.782  0.7425  1.5051 -0.2343
  968MOL0     H30659   0.682   7.563   8.644 -0.0164 -0.9513  3.1669
  968MOL0     H30660   0.416   7.718   8.643 -3.8338 -3.9347  2.5560
  968MOL0     H30661   0.429   7.556   8.710 -0.8224  0.1157  0.4620
  968MOL0     H30662   1.269   7.793   9.111 -0.6847 -0.4951 -2.1084
  968MOL0     H30663   1.473   7.833   9.256 -3.6882  1.6327 -1.6635
  968MOL0     H30664   1.775   7.936   9.373 -1.3013 -2.1456  0.0415
  968MOL0     H30665   1.928   8.043   9.544 -1.1744 -0.2221  0.3886
  968MOL0     H30666   3.988   7.333  10.338 -0.3784 -0.9482 -0.4774
  968MOL0     H30667   4.201   7.192  10.285  0.1828  0.6749 -0.5684
  968MOL0     H30668   4.423   6.903  10.041 -0.3677  2.4313  1.5321
  968MOL0     H30669   4.649   6.788   9.982  0.8519 -0.4504 -2.0177
  968MOL0     H30670   4.740   6.791   9.712  0.2941 -1.1013 -1.0158
  968MOL0     H30671   4.890   6.880   9.682 -0.9454 -0.2802 -0.0882
  968MOL0     H30672   4.894   6.615   9.709  0.3271 -0.8983  2.3729
  968MOL0     H30673   4.905   6.658   9.880 -0.7856  0.1780  1.2131
  968MOL0     H30674   5.095   6.818   9.803 -3.1254  0.9048  2.3550
  968MOL0     H30675   5.084   6.756   9.644  0.3295  0.2293  0.4335
  968MOL0     H30676   5.133   6.522   9.738 -0.2909 -0.3964  0.8683
  968MOL0     H30677   5.153   6.587   9.895  0.4834  1.4737 -0.4288
  968MOL0     H30678   5.528   6.669   9.763 -0.5004 -0.9351  1.6300
  968MOL0     H30679   4.779   7.146   9.800  0.3419 -0.2714  0.4927
  968MOL0     H30680   4.552   7.240   9.829  1.6025  0.9718  0.8907
  969MOL0     O30681   3.385   5.192  10.341 -0.9522  0.8350 -0.3741
  969MOL0     C30682   3.415   5.159  10.226  0.9071  0.3569  0.4076
  969MOL0     O30683   3.324   5.166  10.121 -0.4801 -0.0829 -0.6446
  969MOL0     C30684   3.183   5.177  10.123 -0.8017  0.4630 -0.5888
  969MOL0     C30685   3.110   5.135  10.010 -0.4231  0.8394  0.1747
  969MOL0     C30686   2.971   5.130  10.002  0.1563 -0.0926  0.8400
  969MOL0     C30687   2.895   5.179  10.107 -0.6473 -1.3368  0.2340
  969MOL0     O30688   2.759   5.185  10.129  0.0034 -0.6230  0.0963
  969MOL0     C30689   2.679   5.203  10.011 -0.6916  0.1423 -0.3109
  969MOL0     C30690   2.526   5.251  10.021 -0.2100 -0.1402  0.3372
  969MOL0     C30691   2.493   5.385  10.079 -1.0273 -0.0972 -0.0794
  969MOL0     C30692   2.517   5.509   9.983  0.4479 -0.1171 -0.2485
  969MOL0     C30693   2.428   5.620  10.029  0.1147 -0.0960  0.1178
  969MOL0     C30694   2.451   5.734   9.932 -0.4994  0.4356  0.3936
  969MOL0     C30695   2.378   5.852   9.990 -0.3802 -0.3048 -0.7112
  969MOL0     C30696   2.415   5.983   9.919  0.4236  0.6863  0.0351
  969MOL0     N30697   2.357   6.104   9.980  0.0168  0.2611 -0.5690
  969MOL0     C30698   2.219   6.115   9.987 -0.5559  0.6702 -0.3311
  969MOL0     C30699   2.198   6.212  10.081  0.5070 -0.0219  0.3403
  969MOL0     C30700   2.065   6.290  10.100  0.3315 -0.9232 -0.1188
  969MOL0     C30701   2.049   6.396   9.980  0.4959 -0.8773  0.7885
  969MOL0     C30702   1.927   6.488  10.016  0.1960  0.3208 -0.6303
  969MOL0     C30703   1.940   6.585  10.139 -0.5016 -0.5302 -0.4718
  969MOL0     O30704   1.834   6.680  10.147  0.3958  0.1744 -0.8718
  969MOL0     C30705   1.707   6.645  10.161  0.2556  0.5340  0.5163
  969MOL0     C30706   1.670   6.524  10.229 -0.0628  0.7445  0.7526
  969MOL0     C30707   1.533   6.510  10.259 -0.4007  0.5255 -0.8353
  969MOL0     C30708   1.495   6.378  10.313  0.4306  0.9771 -0.1672
  969MOL0     C30709   1.437   6.610  10.228 -0.6472  0.2062 -0.1436
  969MOL0     C30710   1.294   6.597  10.250 -0.1922  0.0309  0.0133
  969MOL0     O30711   1.215   6.710  10.232  0.3775  0.4459  0.5382
  969MOL0     C30712   1.071   6.694  10.245 -0.2228  1.0068  0.0419
  969MOL0     C30713   1.007   6.627  10.343 -0.0172 -0.5820  0.7955
  969MOL0     C30714   0.867   6.612  10.336 -0.3839 -0.5545 -0.1569
  969MOL0     C30715   0.786   6.688  10.248 -0.1478 -0.5262  0.3336
  969MOL0     O30716   0.652   6.687  10.251  0.1876  0.3062 -0.5107
  969MOL0     C30717   0.577   6.633  10.138  0.3854  0.7216 -0.2552
  969MOL0     C30718   0.595   6.481  10.112  0.3543  0.2875  0.4158
  969MOL0     C30719   0.569   6.402  10.242 -0.2213 -1.0833 -0.2521
  969MOL0     C30720   0.567   6.253  10.245 -0.3121  0.0477 -0.9304
  969MOL0     C30721   0.591   6.206  10.397 -0.0417 -0.3557  0.1206
  969MOL0     C30722   0.513   6.070  10.422  0.7317 -0.2839 -0.4708
  969MOL0     C30723   0.359   6.085  10.406  0.7249  0.2410 -0.6055
  969MOL0     C30724   0.288   6.153  10.521 -0.9972  0.0928  0.9815
  969MOL0    Cl30725   0.115   6.113  10.503 -0.3999 -0.3142 -0.4398
  969MOL0     C30726   0.856   6.764  10.147  0.8449  0.5555  0.5296
  969MOL0     C30727   0.997   6.753  10.147 -0.0073  0.0557 -0.4346
  969MOL0     O30728   1.250   6.479  10.248 -0.5131  0.4293  0.9504
  969MOL0     C30729   1.483   6.724  10.150 -0.6056  0.3837  0.1507
  969MOL0     C30730   1.617   6.739  10.125  0.6231  0.6769  0.7465
  969MOL0     N30731   2.320   6.254  10.131  0.2547  0.0572  0.9601
  969MOL0     N30732   2.407   6.177  10.076 -0.4648 -0.0720  0.2175
  969MOL0     C30733   2.969   5.235  10.215  0.5639  0.6278  0.3578
  969MOL0     C30734   3.104   5.234  10.229 -0.2703  0.5207  0.4643
  969MOL0     C30735   3.552   5.113  10.186  0.0122  0.0031  0.0900
  969MOL0     C30736   3.583   5.081  10.058  0.0059 -0.0394  0.2189
  969MOL0     C30737   3.712   5.045  10.024 -0.0707  0.1789 -0.3681
  969MOL0     C30738   3.805   5.038  10.122  0.7159  0.5193  0.3459
  969MOL0     O30739   3.934   4.999  10.097  0.6672 -1.0770 -0.0299
  969MOL0     C30740   3.995   4.895  10.176  0.0948  0.1551  0.3327
  969MOL0     C30741   4.118   4.827  10.110  0.2201 -0.4013 -0.3735
  969MOL0     C30742   4.232   4.928  10.103 -0.3011 -0.1759  0.3088
  969MOL0     C30743   4.357   4.849  10.053  0.9209  0.6612 -0.6412
  969MOL0     C30744   4.470   4.927  10.030  0.2165 -0.3027  0.0452
  969MOL0     C30745   4.565   4.985   9.978  0.4401 -0.2182 -0.2654
  969MOL0     C30746   3.777   5.069  10.257 -1.0183  0.4076  0.4193
  969MOL0     C30747   3.650   5.107  10.285 -1.2485 -1.1596 -0.2365
  969MOL0     H30748   3.174   5.107   9.927  0.6513  0.0917  1.2204
  969MOL0     H30749   2.919   5.076   9.923  0.1022 -1.7527  1.9485
  969MOL0     H30750   2.731   5.283   9.957 -1.0306  0.4678 -0.1596
  969MOL0     H30751   2.694   5.118   9.945  0.3347 -0.7270  1.0017
  969MOL0     H30752   2.484   5.237   9.921  0.1077  0.0192  0.1802
  969MOL0     H30753   2.476   5.182  10.091  0.5487  1.2487  2.3511
  969MOL0     H30754   2.389   5.384  10.112 -0.2809  1.5482  2.5726
  969MOL0     H30755   2.550   5.400  10.170 -0.1267 -2.3086 -0.2140
  969MOL0     H30756   2.622   5.539   9.990 -0.2921  2.6880 -0.1635
  969MOL0     H30757   2.485   5.474   9.884 -0.3776 -0.8348  0.2564
  969MOL0     H30758   2.324   5.589  10.016 -0.2326  0.7888  0.6915
  969MOL0     H30759   2.428   5.651  10.134 -3.3033  1.0322 -0.1207
  969MOL0     H30760   2.555   5.764   9.921 -0.5480  2.0941  3.3369
  969MOL0     H30761   2.429   5.705   9.829 -1.0491 -0.2139  0.6842
  969MOL0     H30762   2.269   5.846   9.986 -0.5019 -0.0136  1.1890
  969MOL0     H30763   2.409   5.864  10.095  1.9572 -0.7266 -1.2901
  969MOL0     H30764   2.371   5.979   9.819  0.8639 -0.1157 -0.1349
  969MOL0     H30765   2.522   6.006   9.919 -0.0949  3.9320  2.6885
  969MOL0     H30766   2.147   6.060   9.928  1.7232 -0.6981 -2.0075
  969MOL0     H30767   1.975   6.230  10.114 -1.5349  1.5741 -0.7854
  969MOL0     H30768   2.070   6.351  10.190 -1.5183 -2.3951  1.0455
  969MOL0     H30769   2.025   6.334   9.893 -1.4938  0.8708  0.0016
  969MOL0     H30770   2.142   6.447   9.954  0.6271 -2.1151 -1.4538
  969MOL0     H30771   1.842   6.420  10.029 -0.0222  0.4668 -1.2816
  969MOL0     H30772   1.912   6.547   9.925  0.2466  2.2324  0.5338
  969MOL0     H30773   2.037   6.635  10.132  1.0596 -3.4557 -1.8191
  969MOL0     H30774   1.949   6.529  10.233 -1.4569  0.5050  0.2470
  969MOL0     H30775   1.752   6.456  10.250  1.5461  1.2137 -3.2625
  969MOL0     H30776   1.426   6.398  10.396 -1.2724 -0.8657 -1.0423
  969MOL0     H30777   1.434   6.332  10.234 -0.3508 -0.0417  0.9901
  969MOL0     H30778   1.572   6.311  10.352  0.6946  1.5384  0.2899
  969MOL0     H30779   1.060   6.589  10.430  1.2355 -0.8595 -0.0655
  969MOL0     H30780   0.823   6.547  10.410  1.7058 -0.8664  0.8830
  969MOL0     H30781   0.471   6.649  10.159  0.3165  1.4830 -1.1739
  969MOL0     H30782   0.608   6.686  10.048 -0.6992 -3.3717 -3.3585
  969MOL0     H30783   0.525   6.445  10.036 -4.0291  2.6782  2.9267
  969MOL0     H30784   0.695   6.450  10.078 -0.2839 -1.1786 -0.2067
  969MOL0     H30785   0.476   6.439  10.288 -0.2023 -1.3381 -0.0129
  969MOL0     H30786   0.646   6.439  10.310 -0.8766  2.7239 -1.3462
  969MOL0     H30787   0.468   6.213  10.220 -1.0216  0.2427  1.3293
  969MOL0     H30788   0.638   6.211  10.173 -1.5157 -1.5719 -1.2504
  969MOL0     H30789   0.564   6.280  10.472  0.4770 -0.8355  0.7841
  969MOL0     H30790   0.697   6.182  10.400 -0.4204 -3.7839 -3.9359
  969MOL0     H30791   0.540   5.992  10.351 -2.4077 -0.9162 -1.1098
  969MOL0     H30792   0.534   6.040  10.525 -2.6099 -0.0587  0.3838
  969MOL0     H30793   0.322   5.982  10.407 -1.2541  0.8987 -0.3032
  969MOL0     H30794   0.325   6.131  10.312 -0.9089 -0.2270 -0.2682
  969MOL0     H30795   0.295   6.261  10.532 -1.2845  0.3937 -1.4024
  969MOL0     H30796   0.333   6.121  10.615  1.8539  1.6618  0.2439
  969MOL0     H30797   0.796   6.822  10.077  2.2475 -0.4152 -1.5501
  969MOL0     H30798   1.049   6.805  10.067 -1.4923 -0.5877 -1.8967
  969MOL0     H30799   1.417   6.807  10.125  2.4272  2.9316 -0.0699
  969MOL0     H30800   1.642   6.839  10.091 -1.3398  1.0040  0.1699
  969MOL0     H30801   2.911   5.270  10.300  0.9076  3.7242 -0.5451
  969MOL0     H30802   3.150   5.262  10.323  3.0879 -2.7316 -0.0102
  969MOL0     H30803   3.503   5.080   9.985  0.7207  0.7119 -0.6009
  969MOL0     H30804   3.728   5.020   9.920 -3.8079  2.5854 -1.7194
  969MOL0     H30805   4.032   4.936  10.271  1.8562  2.7667 -1.3195
  969MOL0     H30806   3.913   4.824  10.187 -0.2692 -0.4029 -4.0578
  969MOL0     H30807   4.107   4.789  10.008 -0.7581  0.6370 -0.6781
  969MOL0     H30808   4.140   4.741  10.174  1.7892 -0.5550 -1.0634
  969MOL0     H30809   4.263   4.977  10.196  3.8696  1.1445 -1.5329
  969MOL0     H30810   4.213   5.008  10.030  1.4633  3.4835  3.4958
  969MOL0     H30811   4.326   4.800   9.960  1.2680  1.1319 -1.0091
  969MOL0     H30812   4.387   4.773  10.126 -2.0424  0.8186  0.9084
  969MOL0     H30813   4.652   5.031   9.936 -0.2048 -0.3586 -1.8538
  969MOL0     H30814   3.857   5.056  10.329 -0.3068  0.5238 -0.3295
  969MOL0     H30815   3.641   5.149  10.384  0.1954  1.6463 -1.1970
  970MOL0     O30816  10.736   6.994   5.791  0.4852  0.1306 -0.4035
  970MOL0     C30817  10.767   7.042   5.683 -0.2949 -1.1288 -0.0875
  970MOL0     O30818  10.678   7.073   5.577  0.2407 -0.3215 -0.3130
  970MOL0     C30819  10.546   7.068   5.607 -0.7040  0.8581 -0.3191
  970MOL0     C30820  10.478   7.159   5.697  0.8139 -0.3428  0.6817
  970MOL0     C30821  10.340   7.130   5.730  0.0400  0.0685 -0.4607
  970MOL0     C30822  10.279   7.021   5.683 -0.0821  1.2137  1.4032
  970MOL0     O30823  10.163   6.963   5.739  0.1556 -0.0680  0.0935
  970MOL0     C30824  10.063   7.056   5.790  0.2111 -0.1616  0.5971
  970MOL0     C30825   9.961   6.977   5.872  0.2857  0.4136 -0.0082
  970MOL0     C30826   9.848   6.912   5.789 -0.0374  0.1001 -0.6901
  970MOL0     C30827   9.729   6.865   5.872 -0.3917 -0.0652  0.1164
  970MOL0     C30828   9.626   6.812   5.764 -0.2987  0.2364  0.2678
  970MOL0     C30829   9.652   6.680   5.687 -0.2310 -0.6241  0.3357
  970MOL0     C30830   9.525   6.608   5.651 -0.1246  0.2937  0.4740
  970MOL0     C30831   9.448   6.690   5.550  0.2461  0.4933 -0.0351
  970MOL0     N30832   9.324   6.627   5.518  0.2059 -0.2104  0.3834
  970MOL0     C30833   9.209   6.619   5.596 -0.2339  0.7658  0.1340
  970MOL0     C30834   9.137   6.523   5.523 -0.8653 -0.8585 -0.4056
  970MOL0     C30835   9.013   6.465   5.583 -0.2268 -0.4089  0.7521
  970MOL0     C30836   8.906   6.422   5.477 -0.1108  0.5944  0.7765
  970MOL0     C30837   8.834   6.543   5.418 -0.2474  0.1118  0.1075
  970MOL0     C30838   8.748   6.521   5.294 -0.2520  1.0255 -0.1545
  970MOL0     O30839   8.648   6.418   5.301 -0.2799 -0.0179  0.0690
  970MOL0     C30840   8.524   6.444   5.258  0.2651 -0.3497 -0.7821
  970MOL0     C30841   8.467   6.574   5.246  0.0886  0.7156  0.3642
  970MOL0     C30842   8.332   6.591   5.206 -0.4877 -0.0671  0.1379
  970MOL0     C30843   8.276   6.721   5.188 -0.2675  0.0924  0.3398
  970MOL0     C30844   8.248   6.471   5.191 -0.2159 -1.2859 -0.4441
  970MOL0     C30845   8.110   6.484   5.169 -0.3395  0.3272  0.2139
  970MOL0     O30846   8.061   6.399   5.072  0.4449  1.0303 -0.5047
  970MOL0     C30847   7.930   6.369   5.088 -0.1867 -0.8594 -0.0445
  970MOL0     C30848   7.835   6.458   5.039  0.5825  1.1803 -0.0097
  970MOL0     C30849   7.697   6.437   5.045  0.1209  0.5238 -0.4155
  970MOL0     C30850   7.660   6.313   5.094  0.2720 -0.3701  0.4122
  970MOL0     O30851   7.525   6.281   5.078 -0.3006 -0.0361  1.2154
  970MOL0     C30852   7.470   6.173   5.150  0.1060 -0.3194  0.0307
  970MOL0     C30853   7.322   6.171   5.095 -0.5096 -0.3335  0.0799
  970MOL0     C30854   7.241   6.302   5.116 -0.0224  0.4522 -0.4578
  970MOL0     C30855   7.101   6.296   5.041  0.5367  0.0045  0.8041
  970MOL0     C30856   7.038   6.425   5.024  1.1546 -0.7715  0.0488
  970MOL0     C30857   6.905   6.412   4.952  0.6815 -0.0537  0.3578
  970MOL0     C30858   6.789   6.366   5.040 -0.0324 -0.3317 -0.2273
  970MOL0     C30859   6.657   6.400   4.966 -0.4226 -0.0549  0.4370
  970MOL0    Cl30860   6.637   6.329   4.803  0.3164 -0.2891 -0.1033
  970MOL0     C30861   7.754   6.227   5.156  0.5562 -0.1617 -0.5055
  970MOL0     C30862   7.889   6.255   5.153 -0.5360  0.0505 -0.0723
  970MOL0     O30863   8.041   6.544   5.258  0.0248  0.2247 -0.3050
  970MOL0     C30864   8.305   6.347   5.202 -1.0861 -0.0385  0.5454
  970MOL0     C30865   8.445   6.333   5.237  0.3914 -1.0103  0.3717
  970MOL0     N30866   9.211   6.470   5.420 -0.1124 -0.3509 -0.4181
  970MOL0     N30867   9.323   6.533   5.412  0.0013  0.1319 -0.3886
  970MOL0     C30868  10.348   6.942   5.575  0.8418 -0.1526 -0.5354
  970MOL0     C30869  10.481   6.967   5.549 -0.7049  0.1371  0.0852
  970MOL0     C30870  10.908   7.062   5.664 -0.3173  0.0677  0.1371
  970MOL0     C30871  10.965   7.061   5.534  0.4341 -0.4629 -0.4460
  970MOL0     C30872  11.099   7.098   5.516  0.7692 -0.0268  1.0838
  970MOL0     C30873  11.183   7.113   5.625  0.5762  0.5864 -0.0908
  970MOL0     O30874  11.316   7.127   5.595  0.0189  0.1088  0.1610
  970MOL0     C30875  11.392   7.192   5.701 -0.1811  0.2604 -0.4214
  970MOL0     C30876  11.540   7.201   5.645  0.6624 -0.1346 -0.4478
  970MOL0     C30877  11.611   7.312   5.725  0.1190  0.3112 -0.3261
  970MOL0     C30878  11.671   7.258   5.848 -1.2212 -0.5590 -0.5273
  970MOL0     C30879  11.570   7.223   5.953  0.3933  1.0168 -0.0238
  970MOL0     C30880  11.494   7.175   6.034  0.6985 -1.1234 -0.9596
  970MOL0     C30881  11.130   7.104   5.752  0.1389  0.1366 -0.1397
  970MOL0     C30882  10.996   7.070   5.770 -0.9689 -0.1741 -0.9135
  970MOL0     H30883  10.532   7.245   5.737  2.6083 -1.4992  0.8652
  970MOL0     H30884  10.286   7.173   5.813 -1.1501  2.5301 -2.3680
  970MOL0     H30885  10.109   7.126   5.860  1.5752  0.4498 -0.8474
  970MOL0     H30886  10.018   7.111   5.707  2.2284  0.3477 -0.2135
  970MOL0     H30887  10.010   6.902   5.934 -3.0675  0.3292  2.8416
  970MOL0     H30888   9.912   7.052   5.934 -0.4737  0.0734 -0.1821
  970MOL0     H30889   9.816   6.995   5.725  0.2450 -0.0492 -1.0299
  970MOL0     H30890   9.883   6.830   5.726  0.5733  0.2185 -0.5098
  970MOL0     H30891   9.767   6.786   5.937 -0.8956 -3.1192 -3.0157
  970MOL0     H30892   9.680   6.955   5.912 -0.9206 -0.3745  0.1753
  970MOL0     H30893   9.535   6.786   5.820 -0.8178 -0.2371 -0.7534
  970MOL0     H30894   9.589   6.892   5.699 -0.9870 -0.3090 -0.0346
  970MOL0     H30895   9.709   6.692   5.594 -0.8280 -0.0567  0.0304
  970MOL0     H30896   9.707   6.611   5.752 -0.8498 -3.0303 -1.5520
  970MOL0     H30897   9.558   6.516   5.602  1.3362  1.5830 -1.0773
  970MOL0     H30898   9.467   6.582   5.740 -0.9071 -0.2850 -0.1974
  970MOL0     H30899   9.517   6.710   5.467 -0.8543  2.3756 -0.5403
  970MOL0     H30900   9.425   6.786   5.596  5.0023  1.4942  0.8000
  970MOL0     H30901   9.179   6.677   5.683 -1.0606 -0.6462  0.8168
  970MOL0     H30902   9.046   6.379   5.642  2.7152  0.0271 -0.1155
  970MOL0     H30903   8.972   6.541   5.650 -2.4582 -1.6500  0.9085
  970MOL0     H30904   8.831   6.354   5.518  0.5883 -0.0832  0.9725
  970MOL0     H30905   8.960   6.360   5.404 -0.6555 -2.2281  2.6094
  970MOL0     H30906   8.917   6.611   5.398 -0.6248  1.4647  2.7059
  970MOL0     H30907   8.773   6.600   5.489  2.0919  2.1430  0.6297
  970MOL0     H30908   8.816   6.493   5.214 -0.5069  0.2013 -0.0862
  970MOL0     H30909   8.701   6.619   5.279 -3.0462 -0.1282  0.4131
  970MOL0     H30910   8.523   6.660   5.279  2.3743 -0.7962  0.7116
  970MOL0     H30911   8.209   6.723   5.101  1.9407 -0.4516 -1.4733
  970MOL0     H30912   8.221   6.752   5.277 -0.0321 -1.0682  0.9110
  970MOL0     H30913   8.359   6.788   5.164  1.0163 -1.9149 -1.1759
  970MOL0     H30914   7.866   6.550   4.989 -1.1055  1.0086 -1.4855
  970MOL0     H30915   7.612   6.502   5.026 -0.6241 -0.5256 -0.7553
  970MOL0     H30916   7.514   6.075   5.129  0.8921 -0.3515  1.6193
  970MOL0     H30917   7.482   6.200   5.256  2.1909 -1.8399  0.2423
  970MOL0     H30918   7.315   6.145   4.989 -2.8990 -0.7861  0.2956
  970MOL0     H30919   7.277   6.084   5.145  0.1183 -1.3439 -1.0667
  970MOL0     H30920   7.296   6.385   5.072  1.1489 -0.3957 -0.6385
  970MOL0     H30921   7.215   6.314   5.222 -1.6446  0.9215 -0.8874
  970MOL0     H30922   7.119   6.244   4.946  0.9357  1.8291 -0.1619
  970MOL0     H30923   7.032   6.232   5.096  0.9394 -1.1990 -0.0296
  970MOL0     H30924   7.112   6.482   4.967  0.2468  1.0216  0.5613
  970MOL0     H30925   7.022   6.479   5.118  0.8808 -1.1436  0.2165
  970MOL0     H30926   6.888   6.509   4.905 -0.8145 -0.4406  0.0758
  970MOL0     H30927   6.909   6.342   4.868  0.8876  0.9274 -0.4655
  970MOL0     H30928   6.785   6.413   5.138  0.8087  2.2793 -1.3530
  970MOL0     H30929   6.800   6.260   5.064  3.7129  0.2134  1.0828
  970MOL0     H30930   6.637   6.507   4.970  0.9866  0.2958 -0.9607
  970MOL0     H30931   6.577   6.355   5.026  1.1774 -0.6951  2.1965
  970MOL0     H30932   7.712   6.136   5.198 -0.5112  0.4344 -0.2357
  970MOL0     H30933   7.959   6.178   5.183  0.4758  0.9048 -0.1698
  970MOL0     H30934   8.259   6.255   5.168  0.3703  0.0334 -1.8344
  970MOL0     H30935   8.477   6.232   5.262 -0.4178 -0.9948  1.5760
  970MOL0     H30936  10.288   6.859   5.540 -4.0670  1.6241  2.5224
  970MOL0     H30937  10.546   6.911   5.482  0.9718  1.8501  0.2171
  970MOL0     H30938  10.902   7.046   5.447 -0.0938 -1.5751  0.1139
  970MOL0     H30939  11.135   7.121   5.416 -1.7867  1.1698  0.3430
  970MOL0     H30940  11.348   7.291   5.717  2.9868  2.4825 -3.7722
  970MOL0     H30941  11.385   7.128   5.789 -1.5824  0.9105 -0.0394
  970MOL0     H30942  11.524   7.232   5.542 -2.7672  2.4374  0.6868
  970MOL0     H30943  11.594   7.106   5.643 -0.9467 -1.0871 -0.6892
  970MOL0     H30944  11.550   7.388   5.773  3.5516  3.5568 -0.5923
  970MOL0     H30945  11.681   7.367   5.661  1.9850 -0.6016  0.8400
  970MOL0     H30946  11.728   7.340   5.894 -2.5705 -0.1469  0.4654
  970MOL0     H30947  11.746   7.182   5.827  2.4700  2.0654  1.9151
  970MOL0     H30948  11.417   7.149   6.104  1.1832 -5.0850 -1.6834
  970MOL0     H30949  11.188   7.093   5.844 -1.2443 -1.6634  0.5926
  970MOL0     H30950  10.953   7.062   5.869  0.8964  0.7631  0.0356
  971MOL0     O30951   3.056   2.238   0.809 -0.2081 -0.0665 -0.2204
  971MOL0     C30952   3.037   2.118   0.814  0.5930 -0.3148 -0.6871
  971MOL0     O30953   2.912   2.061   0.836  0.4691 -0.5920  0.4795
  971MOL0     C30954   2.809   2.152   0.841 -0.8175 -0.6202  0.4881
  971MOL0     C30955   2.767   2.179   0.972  1.2364  0.2327  0.5430
  971MOL0     C30956   2.665   2.267   0.987  0.4624 -0.3896  0.0849
  971MOL0     C30957   2.613   2.341   0.881  0.7051 -0.2862  0.1600
  971MOL0     O30958   2.526   2.439   0.908 -0.5641  0.0893 -0.0551
  971MOL0     C30959   2.395   2.386   0.942 -0.5511 -0.0448  0.5692
  971MOL0     C30960   2.284   2.481   0.901 -0.2831  0.3626  0.7235
  971MOL0     C30961   2.279   2.492   0.744 -1.0485 -0.4975  0.4121
  971MOL0     C30962   2.149   2.568   0.705 -0.7281  0.2297  0.5113
  971MOL0     C30963   2.125   2.557   0.549  0.0047  0.8670  0.1645
  971MOL0     C30964   2.005   2.639   0.503 -0.6790  0.0498 -0.3603
  971MOL0     C30965   2.009   2.681   0.352  0.7090 -0.0532 -0.2330
  971MOL0     C30966   1.876   2.750   0.316  0.8717 -1.9207  0.0717
  971MOL0     N30967   1.860   2.785   0.176 -0.2249  0.1868 -0.3334
  971MOL0     C30968   1.947   2.853   0.100  0.0144  0.3197 -0.0075
  971MOL0     C30969   1.893   2.861  -0.022  0.4382  0.1803 -0.2310
  971MOL0     C30970   1.947   2.944  -0.142  0.0696 -0.6484 -0.5479
  971MOL0     C30971   1.977   3.092  -0.110 -0.2424 -0.3540  0.0247
  971MOL0     C30972   2.130   3.110  -0.075  0.2894 -0.2842 -0.2372
  971MOL0     C30973   2.167   3.238  -0.005  0.1835  0.7598  0.2239
  971MOL0     O30974   2.078   3.257   0.111  0.3067 -1.0522  0.3538
  971MOL0     C30975   2.116   3.185   0.220 -0.1200 -0.2042 -1.5247
  971MOL0     C30976   2.244   3.153   0.258  0.0603 -0.4014  0.7379
  971MOL0     C30977   2.262   3.106   0.384 -0.4071  0.5516  0.3191
  971MOL0     C30978   2.412   3.110   0.432  0.2242 -1.3038 -0.2429
  971MOL0     C30979   2.162   3.061   0.478 -0.1580  0.5719  0.1350
  971MOL0     C30980   2.182   3.015   0.624  0.0547  0.3076 -0.6470
  971MOL0     O30981   2.295   3.046   0.698  0.4264 -0.2424  0.9458
  971MOL0     C30982   2.292   3.026   0.832 -0.5141  0.5509  0.9068
  971MOL0     C30983   2.196   3.077   0.923  0.4307  0.1246 -0.3773
  971MOL0     C30984   2.199   3.043   1.057 -0.3688 -0.6532 -1.4241
  971MOL0     C30985   2.314   2.986   1.115  0.5885 -0.0023 -0.5300
  971MOL0     O30986   2.326   2.969   1.253  0.7872 -0.1095 -0.1588
  971MOL0     C30987   2.344   2.838   1.302 -0.0373  0.6608  0.6024
  971MOL0     C30988   2.335   2.835   1.452  0.1616 -0.1853 -0.5885
  971MOL0     C30989   2.454   2.918   1.517  0.8732  0.1412  0.0893
  971MOL0     C30990   2.438   2.947   1.670  0.8223 -0.2951  0.0159
  971MOL0     C30991   2.391   2.841   1.758 -0.1250  0.0450 -0.2401
  971MOL0     C30992   2.363   2.900   1.898 -0.9248 -0.9356  0.4361
  971MOL0     C30993   2.270   2.800   1.978 -0.0124 -0.0030 -0.0971
  971MOL0     C30994   2.225   2.864   2.112 -0.3344  0.5170  1.0131
  971MOL0    Cl30995   2.104   2.751   2.191  0.0127 -0.3636  0.1745
  971MOL0     C30996   2.404   2.927   1.028 -0.1221  0.4443 -0.9559
  971MOL0     C30997   2.394   2.950   0.885  0.3394 -0.4313 -0.5323
  971MOL0     O30998   2.093   2.942   0.665  0.1421 -0.5866 -0.0753
  971MOL0     C30999   2.033   3.084   0.424 -0.4874 -0.1358 -0.1934
  971MOL0     C31000   2.009   3.146   0.304  0.4019  0.9448 -0.3884
  971MOL0     N31001   1.779   2.783  -0.019  0.1346 -0.2430 -0.3413
  971MOL0     N31002   1.759   2.742   0.096 -0.6089  0.5051 -0.3267
  971MOL0     C31003   2.651   2.314   0.744 -0.5783 -0.3932 -0.0011
  971MOL0     C31004   2.756   2.223   0.729 -0.7740  0.6166  0.8343
  971MOL0     C31005   3.162   2.040   0.805 -0.7364  0.0835  0.4946
  971MOL0     C31006   3.291   2.101   0.835  0.4058  0.4964  0.0486
  971MOL0     C31007   3.415   2.034   0.816  1.8506 -1.0250  0.8018
  971MOL0     C31008   3.410   1.900   0.780 -0.8125  0.1528 -0.5242
  971MOL0     O31009   3.530   1.829   0.790 -1.2093  0.0812 -0.6251
  971MOL0     C31010   3.545   1.702   0.725  0.5684 -0.3042  0.6089
  971MOL0     C31011   3.688   1.657   0.702  0.5292 -0.1897 -0.1261
  971MOL0     C31012   3.764   1.765   0.629 -0.7363 -0.5434  0.6250
  971MOL0     C31013   3.913   1.737   0.618 -0.4232  0.1192 -0.5499
  971MOL0     C31014   3.987   1.820   0.524  0.2642 -1.0850 -0.3122
  971MOL0     C31015   4.043   1.891   0.434 -0.2090  0.7632 -0.1206
  971MOL0     C31016   3.286   1.834   0.750 -0.1814 -0.6123 -0.0840
  971MOL0     C31017   3.164   1.913   0.758  0.4868  0.2371 -0.1892
  971MOL0     H31018   2.823   2.124   1.046 -0.1978  0.9321  2.1996
  971MOL0     H31019   2.629   2.292   1.087  2.7804  0.1839  0.8510
  971MOL0     H31020   2.386   2.288   0.894  1.6120  0.1948 -0.4035
  971MOL0     H31021   2.391   2.360   1.048  0.8341 -3.0584 -0.0139
  971MOL0     H31022   2.195   2.437   0.947 -0.3209  0.2685  0.5620
  971MOL0     H31023   2.297   2.580   0.946  0.2903  0.8288 -0.4281
  971MOL0     H31024   2.369   2.546   0.712 -0.3974 -1.3887  0.6763
  971MOL0     H31025   2.286   2.393   0.697  0.6381 -1.3722  2.3412
  971MOL0     H31026   2.065   2.533   0.765  0.5982 -0.8381  1.8505
  971MOL0     H31027   2.157   2.672   0.738 -1.5403  0.0293  1.3558
  971MOL0     H31028   2.213   2.592   0.493 -0.6010  0.1231 -1.3257
  971MOL0     H31029   2.098   2.454   0.525  0.4759  0.5499  0.9913
  971MOL0     H31030   1.917   2.574   0.508 -0.9106  0.4247  0.9300
  971MOL0     H31031   1.985   2.726   0.566  2.0601 -0.5739  1.5740
  971MOL0     H31032   2.095   2.746   0.334  1.6729 -0.8648  1.1575
  971MOL0     H31033   2.024   2.589   0.294  0.9799 -1.1757  1.5452
  971MOL0     H31034   1.864   2.844   0.370 -0.9473 -1.9319 -0.2563
  971MOL0     H31035   1.803   2.675   0.348 -1.2314 -1.0340 -2.3849
  971MOL0     H31036   2.042   2.889   0.136  2.2358 -3.7550 -1.2270
  971MOL0     H31037   2.041   2.899  -0.173  2.2481 -0.7384  5.0369
  971MOL0     H31038   1.864   2.951  -0.214 -2.1161 -1.2439  1.7681
  971MOL0     H31039   1.914   3.119  -0.024 -1.2936 -2.7837  0.0864
  971MOL0     H31040   1.967   3.156  -0.198  2.1156  2.0287  1.3251
  971MOL0     H31041   2.182   3.104  -0.171  0.0740  1.2838 -0.4766
  971MOL0     H31042   2.155   3.026  -0.009 -2.4053 -1.0214 -0.0165
  971MOL0     H31043   2.133   3.310  -0.079 -0.2573 -0.9873 -1.3429
  971MOL0     H31044   2.275   3.250   0.007  0.5259 -0.9808 -0.6821
  971MOL0     H31045   2.328   3.197   0.206 -1.3982 -0.4617 -1.8007
  971MOL0     H31046   2.439   3.015   0.479  3.4171  0.0164  0.8511
  971MOL0     H31047   2.477   3.113   0.344 -1.7004 -1.5916 -1.7409
  971MOL0     H31048   2.436   3.185   0.508 -2.3531  0.0387 -0.6232
  971MOL0     H31049   2.113   3.131   0.881 -0.5153 -1.5029 -0.7065
  971MOL0     H31050   2.123   3.067   1.130  1.1028 -1.1221  0.3338
  971MOL0     H31051   2.265   2.774   1.263 -1.4554  2.2683  0.7275
  971MOL0     H31052   2.436   2.794   1.262 -0.3355  0.6531 -0.0907
  971MOL0     H31053   2.246   2.890   1.485 -0.3536 -0.3829 -1.6185
  971MOL0     H31054   2.322   2.733   1.489 -0.3013  0.0809  0.0166
  971MOL0     H31055   2.473   3.014   1.468 -0.8275  0.9271  0.8890
  971MOL0     H31056   2.540   2.855   1.492  0.9828  0.6214 -0.7899
  971MOL0     H31057   2.534   2.994   1.697 -0.2240  1.0103  1.6633
  971MOL0     H31058   2.371   3.033   1.678 -1.7081 -2.2430  0.9005
  971MOL0     H31059   2.466   2.762   1.759 -0.0874  0.0801 -0.2347
  971MOL0     H31060   2.300   2.804   1.711 -1.2473 -0.0235  1.8752
  971MOL0     H31061   2.456   2.928   1.949 -0.2171 -1.4074 -0.5631
  971MOL0     H31062   2.303   2.990   1.882 -1.6860 -1.1336  1.9841
  971MOL0     H31063   2.320   2.705   1.999 -0.1775 -0.4404 -1.5201
  971MOL0     H31064   2.185   2.768   1.916 -0.6687  1.3033  0.0987
  971MOL0     H31065   2.177   2.957   2.082 -1.2570 -0.3203 -0.2167
  971MOL0     H31066   2.304   2.887   2.184 -0.6927  2.2787  0.8872
  971MOL0     H31067   2.489   2.868   1.061 -0.5570 -0.1436 -0.8547
  971MOL0     H31068   2.472   2.923   0.815  0.8168  2.5876 -1.3120
  971MOL0     H31069   1.946   3.056   0.482  0.0752 -0.7656  0.3677
  971MOL0     H31070   1.912   3.175   0.263 -0.4323  1.9290  2.1003
  971MOL0     H31071   2.611   2.365   0.657  2.1847  1.6927 -0.1716
  971MOL0     H31072   2.775   2.178   0.632  1.7221  1.8160  0.6926
  971MOL0     H31073   3.302   2.202   0.873  3.8989  0.6909 -1.1720
  971MOL0     H31074   3.500   2.097   0.842  0.9746  0.5405 -0.0168
  971MOL0     H31075   3.492   1.628   0.786  0.0613 -0.6078 -0.1819
  971MOL0     H31076   3.494   1.696   0.629  0.1763 -0.2964  0.8126
  971MOL0     H31077   3.686   1.562   0.649 -0.6058 -0.1502 -0.1711
  971MOL0     H31078   3.733   1.635   0.800 -0.5751 -1.1769  0.1752
  971MOL0     H31079   3.741   1.865   0.667 -1.4407  1.5642 -4.4686
  971MOL0     H31080   3.739   1.771   0.523 -1.7583 -2.1901  0.7502
  971MOL0     H31081   3.921   1.637   0.574 -3.3457  0.3081 -1.7222
  971MOL0     H31082   3.964   1.731   0.715 -2.8755 -2.8836  0.7055
  971MOL0     H31083   4.097   1.957   0.370 -0.6863  2.0052  0.7260
  971MOL0     H31084   3.296   1.727   0.730  1.0623 -1.2298  3.2616
  971MOL0     H31085   3.072   1.865   0.726  0.2756  1.2017 -1.1029
  972MOL0     O31086  10.849   7.444  10.617  0.1737 -0.3543  0.0961
  972MOL0     C31087  10.856   7.359  10.529  0.7025 -0.0504  0.4399
  972MOL0     O31088  10.803   7.381  10.403  0.5292 -0.5047  0.3283
  972MOL0     C31089  10.745   7.501  10.372 -0.3919  0.3395  0.6172
  972MOL0     C31090  10.799   7.632  10.376  0.7262 -0.3522  0.7723
  972MOL0     C31091  10.718   7.741  10.346 -0.0030  0.3836  0.1247
  972MOL0     C31092  10.586   7.733  10.314  0.0448 -0.1771 -0.3025
  972MOL0     O31093  10.521   7.854  10.271  0.0470  0.4982  0.0747
  972MOL0     C31094  10.405   7.853  10.191  0.5615  0.2489 -0.5582
  972MOL0     C31095  10.290   7.862  10.276  1.5831  0.0050  0.5028
  972MOL0     C31096  10.149   7.840  10.211  0.3534 -0.3191 -0.1226
  972MOL0     C31097  10.113   7.939  10.091 -0.4407 -0.3960  1.1041
  972MOL0     C31098   9.985   7.884  10.032 -1.0123 -0.1336 -0.1115
  972MOL0     C31099   9.930   7.981   9.931  0.3820  0.2588 -0.2979
  972MOL0     C31100   9.796   7.924   9.865 -0.9962  1.0930 -0.5015
  972MOL0     C31101   9.700   8.042   9.837  0.3940  0.3195  0.1532
  972MOL0     N31102   9.577   7.992   9.777  0.4747  0.3922 -0.3146
  972MOL0     C31103   9.464   7.940   9.843  0.1716  0.1770 -0.1257
  972MOL0     C31104   9.381   7.908   9.738 -0.0913 -0.4333 -0.6308
  972MOL0     C31105   9.247   7.858   9.731  0.6374 -0.3138 -0.1752
  972MOL0     C31106   9.140   7.943   9.799  0.2093  0.2017 -0.0736
  972MOL0     C31107   9.006   7.860   9.781 -0.5749 -0.0714  0.2600
  972MOL0     C31108   8.962   7.847   9.645 -0.6122 -0.1283  0.9959
  972MOL0     O31109   8.965   7.967   9.564  0.2978 -0.0528 -0.1306
  972MOL0     C31110   8.845   8.034   9.539 -0.1898  0.4117 -0.0900
  972MOL0     C31111   8.850   8.138   9.451  0.9491 -0.8998 -0.6045
  972MOL0     C31112   8.739   8.219   9.433 -0.0490  0.4130  0.8262
  972MOL0     C31113   8.765   8.340   9.348  0.2977  0.0972 -0.2699
  972MOL0     C31114   8.611   8.202   9.504 -0.7053 -0.8676  0.4741
  972MOL0     C31115   8.485   8.281   9.480  0.1186 -0.5320  0.2112
  972MOL0     O31116   8.375   8.213   9.512 -0.0774  0.0789 -0.0815
  972MOL0     C31117   8.244   8.260   9.490  0.2754 -0.5867 -0.0242
  972MOL0     C31118   8.184   8.285   9.370 -0.5294  0.2429  0.5916
  972MOL0     C31119   8.048   8.322   9.361 -1.0607 -0.2202  1.1523
  972MOL0     C31120   7.966   8.341   9.470 -0.8337  0.0743 -0.1055
  972MOL0     O31121   7.834   8.377   9.461 -0.3812  0.0477  0.9392
  972MOL0     C31122   7.753   8.340   9.346 -0.0955  0.6651 -0.0864
  972MOL0     C31123   7.604   8.374   9.366 -0.7782  0.8436 -0.7490
  972MOL0     C31124   7.530   8.239   9.382  0.1392  0.0884  0.5366
  972MOL0     C31125   7.381   8.265   9.412 -0.1825  0.0222 -0.3762
  972MOL0     C31126   7.368   8.320   9.556 -0.2253 -0.0173 -0.4369
  972MOL0     C31127   7.228   8.334   9.601  0.2146 -0.2721 -0.0350
  972MOL0     C31128   7.164   8.458   9.542 -0.0963  0.4095  0.1766
  972MOL0     C31129   7.021   8.433   9.561 -0.1354  0.5162  0.3905
  972MOL0    Cl31130   6.969   8.428   9.725  0.0971 -0.8124  0.0182
  972MOL0     C31131   8.027   8.328   9.597 -0.3324  0.4399 -0.1303
  972MOL0     C31132   8.162   8.276   9.601  0.4384  0.3380 -0.3873
  972MOL0     O31133   8.486   8.404   9.445  0.4295  0.8666  0.4094
  972MOL0     C31134   8.614   8.101   9.601  0.4096 -0.4981 -0.2319
  972MOL0     C31135   8.728   8.016   9.616 -0.2962  0.0809 -0.3826
  972MOL0     N31136   9.441   7.946   9.617  0.1229  0.1317  0.3893
  972MOL0     N31137   9.559   7.992   9.643 -0.0949  0.2340  0.8178
  972MOL0     C31138  10.525   7.601  10.332  0.2145 -0.2475  0.5094
  972MOL0     C31139  10.610   7.487  10.353  0.5508  0.3829  0.0358
  972MOL0     C31140  10.920   7.229  10.557 -1.2007 -0.2400 -0.4772
  972MOL0     C31141  10.918   7.130  10.461  0.1656  0.6768 -0.1331
  972MOL0     C31142  10.988   7.007  10.481  0.0774 -0.5282 -0.3131
  972MOL0     C31143  11.063   6.987  10.589  0.0781 -1.4876  0.1365
  972MOL0     O31144  11.131   6.877  10.588 -0.3082  0.0062 -0.7966
  972MOL0     C31145  11.069   6.787  10.676  0.0961  0.7624  0.7953
  972MOL0     C31146  11.140   6.649  10.693 -0.2826 -0.5510 -0.4419
  972MOL0     C31147  11.178   6.587  10.554  0.4428 -0.9682  0.2190
  972MOL0     C31148  11.058   6.542  10.469 -0.5157  0.4645 -0.3695
  972MOL0     C31149  10.987   6.441  10.540  0.7990 -0.2196  0.5523
  972MOL0     C31150  10.916   6.344  10.584  0.0841  0.7381  0.6146
  972MOL0     C31151  11.061   7.091  10.692 -0.7435 -0.4411  0.3359
  972MOL0     C31152  10.990   7.203  10.678  0.2118 -1.1596  0.0108
  972MOL0     H31153  10.904   7.658  10.393  0.8942  0.5744 -1.3547
  972MOL0     H31154  10.760   7.841  10.356 -0.3456  0.3602  2.3662
  972MOL0     H31155  10.407   7.945  10.131 -1.4407  1.1377  0.6324
  972MOL0     H31156  10.403   7.763  10.129  1.4975 -0.3492  0.2508
  972MOL0     H31157  10.292   7.790  10.358 -2.1587  0.7715  1.4401
  972MOL0     H31158  10.289   7.965  10.314  0.1684  1.4838 -3.0420
  972MOL0     H31159  10.143   7.734  10.187  0.1665 -0.3603  0.0972
  972MOL0     H31160  10.069   7.858  10.285  1.3621  0.1013  0.8997
  972MOL0     H31161  10.097   8.043  10.122 -1.6108  0.0089 -0.6826
  972MOL0     H31162  10.195   7.938  10.020 -1.1153  1.1745  0.2482
  972MOL0     H31163  10.004   7.783   9.995 -1.3019 -1.0655  2.1335
  972MOL0     H31164   9.920   7.859  10.117  0.1545 -3.9045 -0.1561
  972MOL0     H31165   9.910   8.076   9.983  1.4055  0.9893 -1.1963
  972MOL0     H31166   9.998   7.991   9.846  0.9947  0.9252  0.2461
  972MOL0     H31167   9.813   7.873   9.770 -0.8632  1.7010 -0.8025
  972MOL0     H31168   9.757   7.848   9.934  1.0537 -1.1380 -1.6491
  972MOL0     H31169   9.759   8.102   9.766  1.6100 -0.6783  0.2842
  972MOL0     H31170   9.675   8.097   9.928  1.0596  1.8858 -0.5507
  972MOL0     H31171   9.445   7.923   9.948 -2.8527  1.2772 -0.4018
  972MOL0     H31172   9.225   7.844   9.625 -0.0738 -0.7310  0.0156
  972MOL0     H31173   9.264   7.755   9.765  0.1123 -0.1427  0.6366
  972MOL0     H31174   9.133   8.043   9.755  1.9786  0.2052 -0.4271
  972MOL0     H31175   9.170   7.954   9.903 -2.9351  0.2800  0.9183
  972MOL0     H31176   8.931   7.908   9.845  0.3831  2.1379 -0.1728
  972MOL0     H31177   9.012   7.759   9.824  0.0063 -0.3868 -0.5381
  972MOL0     H31178   8.867   7.793   9.637  0.3228 -1.7878  0.6065
  972MOL0     H31179   9.029   7.784   9.585 -2.2039  0.6470 -1.7718
  972MOL0     H31180   8.939   8.160   9.394  0.8868 -0.5070 -0.5534
  972MOL0     H31181   8.694   8.358   9.267  0.7054  0.4750 -0.5492
  972MOL0     H31182   8.752   8.426   9.414  3.7723 -1.6135  2.9889
  972MOL0     H31183   8.870   8.346   9.317  0.3702 -1.6174 -0.4581
  972MOL0     H31184   8.256   8.272   9.290 -0.6640 -0.9774  0.6496
  972MOL0     H31185   8.010   8.344   9.262  0.7155 -0.0578  0.4574
  972MOL0     H31186   7.799   8.385   9.258  0.5803 -0.2979 -0.2354
  972MOL0     H31187   7.767   8.232   9.344  0.9431  0.6244  3.4125
  972MOL0     H31188   7.580   8.425   9.459  0.9860  1.3222 -0.5258
  972MOL0     H31189   7.562   8.435   9.285 -1.5486 -1.7852 -2.4598
  972MOL0     H31190   7.573   8.188   9.468 -2.0504 -0.8089  1.1604
  972MOL0     H31191   7.518   8.179   9.291 -3.3676  1.6633 -0.1847
  972MOL0     H31192   7.334   8.333   9.339 -2.5631 -1.6444 -0.5118
  972MOL0     H31193   7.321   8.173   9.410  0.6103 -0.5596 -3.3395
  972MOL0     H31194   7.413   8.420   9.566  1.0469 -0.5940 -0.0909
  972MOL0     H31195   7.421   8.259   9.630 -0.1171  1.3804  0.6966
  972MOL0     H31196   7.174   8.242   9.575  1.4107 -0.4136 -2.2569
  972MOL0     H31197   7.231   8.336   9.710  2.6450 -0.1267 -0.0529
  972MOL0     H31198   7.192   8.475   9.437  1.8345 -0.4067  0.5295
  972MOL0     H31199   7.195   8.547   9.597 -2.2011  2.7059 -2.0245
  972MOL0     H31200   6.997   8.338   9.512  2.6902 -0.7080  1.1638
  972MOL0     H31201   6.967   8.505   9.499  2.0133  1.4217 -0.5324
  972MOL0     H31202   7.959   8.337   9.680 -0.6209 -0.7376 -0.2235
  972MOL0     H31203   8.202   8.259   9.701  1.9079  1.0640 -0.8262
  972MOL0     H31204   8.530   8.089   9.669  1.3176  0.0949  1.0363
  972MOL0     H31205   8.728   7.949   9.701 -0.3142 -0.4834 -0.8162
  972MOL0     H31206  10.420   7.597  10.307  0.0033 -0.7220  1.4554
  972MOL0     H31207  10.563   7.389  10.362  0.9045  0.0300 -1.6380
  972MOL0     H31208  10.866   7.144  10.367 -2.0591 -1.6978  0.6214
  972MOL0     H31209  10.980   6.921  10.415 -0.9081  0.0298 -0.9512
  972MOL0     H31210  11.072   6.837  10.774  1.1580  0.3606  0.9904
  972MOL0     H31211  10.966   6.768  10.647  0.3307  2.5975 -1.5847
  972MOL0     H31212  11.088   6.578  10.757 -1.5314 -0.3599 -1.2047
  972MOL0     H31213  11.231   6.661  10.753 -0.8391 -0.2927  0.3599
  972MOL0     H31214  11.245   6.502  10.568  1.2877 -0.6131 -1.3840
  972MOL0     H31215  11.234   6.669  10.507  2.4516 -1.5373  1.5359
  972MOL0     H31216  11.100   6.510  10.374  0.0139  1.9005 -0.6513
  972MOL0     H31217  10.990   6.624  10.443 -2.0621 -0.8143 -0.5561
  972MOL0     H31218  10.855   6.266  10.624 -0.4398  1.5352  1.3948
  972MOL0     H31219  11.114   7.073  10.785 -3.1279  0.5566  1.9951
  972MOL0     H31220  11.005   7.269  10.762  1.8308  0.9212 -1.7822
  973MOL0     O31221   2.111   1.760   4.267 -0.4983 -0.0882  0.0680
  973MOL0     C31222   2.176   1.842   4.198  0.1474  0.9189 -0.2063
  973MOL0     O31223   2.129   1.935   4.111  0.4853  0.4934  0.0356
  973MOL0     C31224   1.995   1.971   4.113 -0.0715  0.1281 -0.8672
  973MOL0     C31225   1.904   1.954   4.222 -0.1774  0.7774  0.7009
  973MOL0     C31226   1.772   1.990   4.211 -0.3639 -0.0210  1.1739
  973MOL0     C31227   1.728   2.049   4.095 -0.4248 -0.0680  0.6567
  973MOL0     O31228   1.596   2.088   4.084 -0.0854  0.9256 -0.0519
  973MOL0     C31229   1.501   2.079   4.196  0.2675 -0.8302 -0.3033
  973MOL0     C31230   1.379   2.174   4.177 -1.0653 -0.8168 -0.5956
  973MOL0     C31231   1.257   2.125   4.260  0.1126 -0.0942 -0.5262
  973MOL0     C31232   1.135   2.211   4.238 -1.1311 -0.1827 -0.4500
  973MOL0     C31233   1.008   2.124   4.283  0.4033  0.2131  0.2382
  973MOL0     C31234   0.881   2.208   4.295 -0.0382 -0.7508 -0.6449
  973MOL0     C31235   0.836   2.236   4.149  0.5920 -0.1136 -0.8499
  973MOL0     C31236   0.688   2.284   4.171  0.6458 -0.0775  0.8910
  973MOL0     N31237   0.601   2.292   4.052 -0.2790 -0.3615 -0.0259
  973MOL0     C31238   0.479   2.226   4.063  0.2297  0.2056 -0.1090
  973MOL0     C31239   0.406   2.281   3.969 -0.0804 -0.5834 -0.4695
  973MOL0     C31240   0.269   2.246   3.946 -0.4680 -0.6107  0.1781
  973MOL0     C31241   0.187   2.305   4.070  0.0443 -0.0696 -0.1323
  973MOL0     C31242   0.042   2.251   4.070 -0.8152 -0.3360  0.3505
  973MOL0     C31243  -0.045   2.300   3.951 -1.5024  0.0556 -0.8347
  973MOL0     O31244  -0.180   2.256   3.965 -0.6039  0.6758 -0.1771
  973MOL0     C31245  -0.273   2.306   3.878 -0.0850  0.0706  0.6822
  973MOL0     C31246  -0.395   2.274   3.906  0.0147 -0.4524 -0.4367
  973MOL0     C31247  -0.507   2.319   3.836 -0.1269  0.4971 -0.2222
  973MOL0     C31248  -0.638   2.273   3.890 -0.4270 -0.1650 -0.2755
  973MOL0     C31249  -0.495   2.407   3.726 -0.1551  0.1378 -0.5107
  973MOL0     C31250  -0.611   2.460   3.653 -0.4055  0.2221  0.0904
  973MOL0     O31251  -0.741   2.417   3.684 -0.4829 -0.1906 -0.1384
  973MOL0     C31252  -0.837   2.487   3.618  0.0065 -0.3863 -1.1741
  973MOL0     C31253  -0.888   2.612   3.663  0.3507 -0.4224 -0.0922
  973MOL0     C31254  -0.983   2.686   3.587  0.0659  0.5360 -0.0497
  973MOL0     C31255  -1.043   2.634   3.470 -0.3779 -0.0305  0.0395
  973MOL0     O31256  -1.134   2.721   3.416 -0.3008  0.0441  0.5376
  973MOL0     C31257  -1.208   2.660   3.310  0.2384  0.8558 -0.0170
  973MOL0     C31258  -1.306   2.763   3.240  0.0747 -0.3010  0.0275
  973MOL0     C31259  -1.376   2.847   3.351  0.1386 -0.1769  0.4156
  973MOL0     C31260  -1.485   2.936   3.284 -0.1329  0.2606 -0.7099
  973MOL0     C31261  -1.547   2.997   3.410 -0.3668  0.0464  1.1276
  973MOL0     C31262  -1.672   3.080   3.380 -0.7095  0.2072 -0.5209
  973MOL0     C31263  -1.695   3.192   3.484 -0.8704  0.7887 -0.5561
  973MOL0     C31264  -1.730   3.147   3.628  0.5625  0.0169  0.9436
  973MOL0    Cl31265  -1.868   3.034   3.626 -0.2628 -0.1258  0.3215
  973MOL0     C31266  -1.001   2.511   3.429 -0.1234  0.0080  0.6395
  973MOL0     C31267  -0.901   2.437   3.500  0.1586  0.3676  0.9248
  973MOL0     O31268  -0.582   2.532   3.560  0.8431  0.2599  0.2727
  973MOL0     C31269  -0.363   2.439   3.693 -0.0003 -0.3787  0.2405
  973MOL0     C31270  -0.254   2.386   3.763  0.1133 -0.2914  0.0440
  973MOL0     N31271   0.485   2.380   3.907 -0.2186 -0.4694  0.2264
  973MOL0     N31272   0.594   2.397   3.960 -0.1643  0.6759  0.2791
  973MOL0     C31273   1.822   2.076   3.996  1.2246  0.8343 -0.0814
  973MOL0     C31274   1.953   2.037   4.003  0.1934 -0.1086  0.5512
  973MOL0     C31275   2.321   1.819   4.197 -0.3232 -0.4533 -0.2611
  973MOL0     C31276   2.386   1.733   4.292 -0.0791 -0.5425  0.1009
  973MOL0     C31277   2.526   1.736   4.304 -0.4746  0.0023 -0.6661
  973MOL0     C31278   2.609   1.805   4.220 -0.4220  0.1061 -0.1055
  973MOL0     O31279   2.743   1.807   4.211  0.1344 -0.2396  0.1429
  973MOL0     C31280   2.813   1.706   4.273 -0.0255  0.4084 -0.2506
  973MOL0     C31281   2.862   1.596   4.178 -0.6376  0.6333  0.7278
  973MOL0     C31282   2.754   1.509   4.120  0.2306 -0.5004 -1.0960
  973MOL0     C31283   2.800   1.392   4.037  0.0260 -0.1042  0.0500
  973MOL0     C31284   2.702   1.302   3.989  0.2885  0.4300  0.5328
  973MOL0     C31285   2.611   1.218   3.955 -0.2422 -1.0655 -0.1841
  973MOL0     C31286   2.543   1.890   4.123 -0.4931  1.3301  0.5253
  973MOL0     C31287   2.403   1.889   4.114 -0.1287  0.4542  0.9360
  973MOL0     H31288   1.921   1.895   4.312  1.3016 -0.1652 -0.1537
  973MOL0     H31289   1.712   1.966   4.298 -1.2586 -3.0105 -0.1293
  973MOL0     H31290   1.467   1.975   4.206  2.5659 -1.4963  1.6424
  973MOL0     H31291   1.545   2.107   4.292  1.3318 -4.0308  0.2838
  973MOL0     H31292   1.407   2.275   4.207  1.5410 -1.1953 -1.4746
  973MOL0     H31293   1.352   2.164   4.071  2.8149 -3.0078 -1.6046
  973MOL0     H31294   1.246   2.019   4.234  1.0862 -0.6654  1.2591
  973MOL0     H31295   1.286   2.129   4.365 -0.8338  0.4312 -0.2764
  973MOL0     H31296   1.158   2.301   4.295  0.2150 -1.8599  1.8626
  973MOL0     H31297   1.125   2.240   4.133 -0.7085  1.3273 -0.0883
  973MOL0     H31298   0.990   2.038   4.219  2.1829 -2.4935  3.0870
  973MOL0     H31299   1.035   2.082   4.381  0.1817  0.5016  0.4257
  973MOL0     H31300   0.806   2.156   4.356 -0.3728 -0.8591 -1.1388
  973MOL0     H31301   0.906   2.295   4.356 -0.3418 -2.3790  1.9712
  973MOL0     H31302   0.896   2.315   4.104  1.1048  0.0666  0.1344
  973MOL0     H31303   0.831   2.147   4.086  0.2696  0.1037 -1.1358
  973MOL0     H31304   0.700   2.386   4.209  1.0341  0.2206  0.0113
  973MOL0     H31305   0.644   2.214   4.242  2.4821  0.3945  2.6059
  973MOL0     H31306   0.442   2.164   4.143  0.1170  1.7796  1.1156
  973MOL0     H31307   0.232   2.295   3.856  2.8561 -0.5496 -1.2806
  973MOL0     H31308   0.246   2.142   3.922 -0.2193 -0.9851  1.4763
  973MOL0     H31309   0.196   2.414   4.063 -0.0187 -0.1338 -1.4750
  973MOL0     H31310   0.235   2.283   4.166 -0.8781  0.6890  0.5179
  973MOL0     H31311  -0.023   2.284   4.152  0.8577  2.3816  0.6781
  973MOL0     H31312   0.045   2.141   4.075  0.2941 -0.3313  0.0443
  973MOL0     H31313   0.000   2.265   3.858  0.9420 -4.9522  1.8540
  973MOL0     H31314  -0.032   2.409   3.951  1.2542 -0.2148 -0.9849
  973MOL0     H31315  -0.409   2.206   3.989 -4.2060 -0.0732 -0.6013
  973MOL0     H31316  -0.689   2.221   3.808  0.8979  0.2120 -1.3603
  973MOL0     H31317  -0.636   2.195   3.967  1.8279 -3.4031 -3.2877
  973MOL0     H31318  -0.715   2.345   3.920 -1.0618 -0.6410 -0.7170
  973MOL0     H31319  -0.843   2.649   3.754  2.5577 -3.3648  0.1560
  973MOL0     H31320  -1.016   2.788   3.603  2.9022  2.0628 -2.7146
  973MOL0     H31321  -1.133   2.616   3.243  1.7395  3.7156 -0.3422
  973MOL0     H31322  -1.262   2.574   3.350  1.3002  0.0152 -0.3201
  973MOL0     H31323  -1.235   2.833   3.197  0.1521  1.2083  2.4170
  973MOL0     H31324  -1.380   2.718   3.173  0.3770  1.0502 -1.2578
  973MOL0     H31325  -1.301   2.893   3.416  0.6036 -0.2556 -0.0530
  973MOL0     H31326  -1.423   2.769   3.411 -2.8778 -0.0088 -1.5198
  973MOL0     H31327  -1.434   3.007   3.219  1.7935 -0.9695 -0.6597
  973MOL0     H31328  -1.551   2.868   3.230 -0.0339 -0.4198 -0.0023
  973MOL0     H31329  -1.470   3.051   3.467  2.0620 -2.1693  0.1354
  973MOL0     H31330  -1.581   2.920   3.479  0.5976 -1.9834 -0.5561
  973MOL0     H31331  -1.649   3.138   3.291 -0.6552  1.6305  0.3897
  973MOL0     H31332  -1.757   3.011   3.373 -1.7386  1.4871 -1.0511
  973MOL0     H31333  -1.765   3.269   3.450  1.5857  1.7011 -4.1759
  973MOL0     H31334  -1.599   3.246   3.481 -0.1234 -0.3860  1.0772
  973MOL0     H31335  -1.767   3.233   3.684 -1.8718 -0.8393  0.8066
  973MOL0     H31336  -1.646   3.102   3.682  0.5439 -1.4933 -0.2276
  973MOL0     H31337  -1.036   2.449   3.347 -0.3601 -0.3038  0.9747
  973MOL0     H31338  -0.879   2.342   3.452  1.1020 -0.9641  3.7462
  973MOL0     H31339  -0.348   2.514   3.615 -0.6609  0.5383  0.9717
  973MOL0     H31340  -0.153   2.406   3.729  0.9678 -1.3835  1.7946
  973MOL0     H31341   1.794   2.132   3.907  0.2361 -0.7115 -0.7767
  973MOL0     H31342   2.021   2.059   3.922  4.4024 -2.2551  3.1739
  973MOL0     H31343   2.337   1.665   4.362  1.1281 -1.8741 -0.3023
  973MOL0     H31344   2.556   1.671   4.386 -0.7857  0.9686  0.2374
  973MOL0     H31345   2.899   1.749   4.324  1.3595 -1.3818 -0.9862
  973MOL0     H31346   2.759   1.662   4.358  0.4604  2.0604  0.9561
  973MOL0     H31347   2.940   1.534   4.223 -1.8491 -2.2578 -0.8678
  973MOL0     H31348   2.907   1.652   4.095 -1.4100 -1.0310 -0.8711
  973MOL0     H31349   2.686   1.579   4.070  1.7034  1.4091 -0.5174
  973MOL0     H31350   2.685   1.477   4.199  1.6376 -0.0634  0.3494
  973MOL0     H31351   2.866   1.335   4.103 -1.1403 -1.4270  0.1283
  973MOL0     H31352   2.861   1.408   3.948 -2.3021 -3.9217 -2.5324
  973MOL0     H31353   2.535   1.148   3.927  0.9909 -1.2058 -3.6634
  973MOL0     H31354   2.593   1.953   4.050  2.5715 -2.1786 -0.7410
  973MOL0     H31355   2.365   1.957   4.038  2.9312 -1.1770 -2.3222
  974MOL0     O31356   6.600   2.666  10.643  0.1798  0.3246  0.1913
  974MOL0     C31357   6.576   2.777  10.597  0.1029 -0.6399 -0.4331
  974MOL0     O31358   6.454   2.811  10.541 -0.4996  0.0448  0.3107
  974MOL0     C31359   6.350   2.731  10.559  0.5384  0.3189  0.4238
  974MOL0     C31360   6.332   2.647  10.679 -1.1857  0.5840  0.0821
  974MOL0     C31361   6.225   2.565  10.687  0.2508  0.3433 -0.2190
  974MOL0     C31362   6.125   2.551  10.588  0.7083 -1.2951  1.5629
  974MOL0     O31363   6.007   2.478  10.597  0.7506  0.1375  0.0603
  974MOL0     C31364   5.942   2.456  10.722 -0.0134 -0.3534 -0.3514
  974MOL0     C31365   5.807   2.384  10.700  0.2584  0.8635 -0.4037
  974MOL0     C31366   5.717   2.446  10.606  0.0554 -0.6525 -0.0367
  974MOL0     C31367   5.589   2.363  10.595 -1.2760  0.0147  0.4331
  974MOL0     C31368   5.495   2.414  10.492  0.5688 -0.4112  0.1683
  974MOL0     C31369   5.442   2.557  10.509  0.3423 -0.5380  0.4202
  974MOL0     C31370   5.338   2.594  10.403  0.7685 -0.8783 -0.3086
  974MOL0     C31371   5.196   2.544  10.432  0.5094  0.1441  0.6189
  974MOL0     N31372   5.136   2.618  10.546  0.2135 -0.5028  0.1021
  974MOL0     C31373   5.138   2.752  10.566 -0.4385 -0.6113 -0.4253
  974MOL0     C31374   5.095   2.770  10.696  0.1928  0.0134  0.6621
  974MOL0     C31375   5.100   2.898  10.779 -0.2251 -0.6576  0.4268
  974MOL0     C31376   4.979   2.986  10.749  0.0045  0.4785  0.1501
  974MOL0     C31377   4.970   3.088  10.862  0.1994 -0.1247  0.1079
  974MOL0     C31378   4.847   3.178  10.850  0.1594 -0.0091 -0.2629
  974MOL0     O31379   4.872   3.263  10.733  0.5767 -0.6818  0.5045
  974MOL0     C31380   4.778   3.370  10.706 -1.4268  0.4328 -0.0463
  974MOL0     C31381   4.789   3.451  10.590 -0.2019  0.6811 -1.0951
  974MOL0     C31382   4.696   3.547  10.562  0.0086  0.0821  0.9388
  974MOL0     C31383   4.701   3.610  10.423  0.2209 -0.0294 -0.1368
  974MOL0     C31384   4.582   3.567  10.645 -0.2300  0.8720  0.1229
  974MOL0     C31385   4.467   3.661  10.612 -0.5536 -0.1951 -0.1353
  974MOL0     O31386   4.380   3.667  10.715  0.4086 -0.1918 -0.0487
  974MOL0     C31387   4.291   3.773  10.719 -0.3162 -0.3604  0.5814
  974MOL0     C31388   4.153   3.758  10.674  0.3233  0.0365 -0.6930
  974MOL0     C31389   4.064   3.858  10.704 -0.1993 -0.2767  0.5308
  974MOL0     C31390   4.106   3.980  10.752  0.0790 -0.5422 -0.3068
  974MOL0     O31391   4.027   4.092  10.782  0.3306  0.2654  0.1867
  974MOL0     C31392   3.884   4.087  10.756 -0.3970  1.0256  0.0091
  974MOL0     C31393   3.813   4.207  10.790  0.2432 -0.2254  0.4865
  974MOL0     C31394   3.661   4.206  10.780 -0.6418 -0.0251 -0.6291
  974MOL0     C31395   3.604   4.348  10.779  0.7731 -0.0303  0.2406
  974MOL0     C31396   3.459   4.330  10.736 -0.4825 -0.4783  0.1149
  974MOL0     C31397   3.380   4.464  10.733 -0.5737 -0.1719  0.0035
  974MOL0     C31398   3.384   4.541  10.871 -0.3877  0.4633  0.4834
  974MOL0     C31399   3.332   4.448  10.979  0.4493  0.1200  0.2382
  974MOL0    Cl31400   3.155   4.430  10.945  0.1787 -0.3112 -0.3025
  974MOL0     C31401   4.244   3.995  10.783  0.2160  0.2835 -0.4715
  974MOL0     C31402   4.336   3.889  10.775  0.2866  0.0275  0.2760
  974MOL0     O31403   4.443   3.708  10.500  0.1538 -0.1465 -0.7008
  974MOL0     C31404   4.568   3.490  10.765 -0.3469  0.3821 -0.1015
  974MOL0     C31405   4.670   3.395  10.793 -0.7556 -0.0506 -1.0554
  974MOL0     N31406   5.058   2.641  10.748 -0.0262 -0.6059  0.9189
  974MOL0     N31407   5.086   2.550  10.655  0.1892 -0.1952  0.2206
  974MOL0     C31408   6.147   2.629  10.477  0.0960  0.0229 -0.8961
  974MOL0     C31409   6.248   2.725  10.463 -0.2683  0.3286  0.3020
  974MOL0     C31410   6.688   2.871  10.588 -0.1902  0.4968 -0.6577
  974MOL0     C31411   6.810   2.829  10.630 -0.1952 -0.6422 -0.4666
  974MOL0     C31412   6.909   2.926  10.616 -1.3056  0.4126 -0.1320
  974MOL0     C31413   6.895   3.059  10.588  0.8922  0.5233 -0.0153
  974MOL0     O31414   7.003   3.135  10.617  0.2298  0.5842 -0.3125
  974MOL0     C31415   6.983   3.259  10.674 -0.4400 -0.2148 -0.9269
  974MOL0     C31416   7.120   3.310  10.712 -0.3813 -0.4812 -0.1345
  974MOL0     C31417   7.206   3.336  10.580  0.4597  0.0128 -0.0726
  974MOL0     C31418   7.162   3.463  10.504 -0.3500  0.3575 -0.6508
  974MOL0     C31419   7.266   3.533  10.424 -0.4973 -0.3939  0.7595
  974MOL0     C31420   7.346   3.602  10.370 -0.8315 -0.2597 -0.2503
  974MOL0     C31421   6.770   3.098  10.550 -1.0391 -0.4029 -0.1967
  974MOL0     C31422   6.670   3.001  10.537 -0.1955 -0.4512 -0.6847
  974MOL0     H31423   6.407   2.652  10.757  2.8278 -2.0424 -3.2150
  974MOL0     H31424   6.210   2.504  10.775 -1.2803  0.3614 -0.4387
  974MOL0     H31425   5.995   2.396  10.796 -1.3129 -1.3139 -0.1552
  974MOL0     H31426   5.918   2.550  10.772 -2.0592  0.1569 -2.1561
  974MOL0     H31427   5.821   2.278  10.675  0.0814  0.7601 -0.0641
  974MOL0     H31428   5.770   2.377  10.802  1.7074 -1.0297  0.0397
  974MOL0     H31429   5.689   2.546  10.641  1.0485 -0.7978  1.2335
  974MOL0     H31430   5.772   2.447  10.512 -0.8053  0.0438 -0.5535
  974MOL0     H31431   5.614   2.258  10.575  1.5903  0.7832 -0.6194
  974MOL0     H31432   5.544   2.359  10.694  1.3196 -2.4555  1.6496
  974MOL0     H31433   5.554   2.412  10.400 -1.2728 -0.3898 -1.0690
  974MOL0     H31434   5.419   2.336  10.483  1.4858 -1.4877  1.3912
  974MOL0     H31435   5.401   2.572  10.610 -1.7743 -0.1455 -0.4528
  974MOL0     H31436   5.520   2.631  10.489 -0.3926  0.5460  1.3985
  974MOL0     H31437   5.336   2.703  10.389  3.0708 -0.8319 -0.7037
  974MOL0     H31438   5.370   2.549  10.308  2.5379  0.6555 -0.5073
  974MOL0     H31439   5.204   2.437  10.453 -4.1044 -1.0178 -2.1891
  974MOL0     H31440   5.129   2.554  10.347  3.5036 -0.0303 -1.9679
  974MOL0     H31441   5.181   2.826  10.501  0.0288  0.4902  1.0778
  974MOL0     H31442   5.105   2.879  10.887  2.3518 -0.3262  0.4267
  974MOL0     H31443   5.193   2.948  10.751  0.6450 -2.2501  0.3845
  974MOL0     H31444   4.887   2.930  10.731  0.8087 -0.5178 -1.0213
  974MOL0     H31445   4.999   3.036  10.654  1.4248  1.6125  0.9965
  974MOL0     H31446   5.058   3.153  10.866 -1.5339  2.3198  0.4031
  974MOL0     H31447   4.969   3.049  10.964  0.5987  0.8465  0.4935
  974MOL0     H31448   4.834   3.233  10.943  0.2703  0.3386 -0.4488
  974MOL0     H31449   4.759   3.116  10.829 -1.8708  1.9222  1.9830
  974MOL0     H31450   4.865   3.424  10.517  1.2376  2.9191 -0.5473
  974MOL0     H31451   4.680   3.717  10.434 -1.5096  0.0055 -2.9315
  974MOL0     H31452   4.803   3.602  10.384  0.3812 -0.6671  0.3952
  974MOL0     H31453   4.623   3.567  10.360  0.5116 -0.5724 -0.1314
  974MOL0     H31454   4.126   3.664  10.626  2.1825 -0.7911 -0.2307
  974MOL0     H31455   3.959   3.852  10.678  0.4186 -0.5660 -2.1779
  974MOL0     H31456   3.871   4.067  10.649 -0.5735 -0.8273  0.3383
  974MOL0     H31457   3.844   4.002  10.812  0.4521 -0.3327 -1.3739
  974MOL0     H31458   3.825   4.230  10.896 -3.8796 -1.4626  1.4316
  974MOL0     H31459   3.846   4.290  10.728 -1.8811 -0.1439 -0.6268
  974MOL0     H31460   3.615   4.147  10.861  1.3139 -0.4858  0.2100
  974MOL0     H31461   3.622   4.145  10.699 -1.8628 -1.8845  1.2402
  974MOL0     H31462   3.594   4.377  10.884 -2.1746  0.2306 -0.0083
  974MOL0     H31463   3.660   4.422  10.721  0.3939 -1.6930 -2.3817
  974MOL0     H31464   3.411   4.262  10.807 -0.0179  0.4959  1.3954
  974MOL0     H31465   3.467   4.299  10.632  0.9009  2.3357 -0.7130
  974MOL0     H31466   3.429   4.524  10.656  1.1021 -3.1213 -1.4013
  974MOL0     H31467   3.277   4.450  10.700 -0.3149 -0.9625 -0.5021
  974MOL0     H31468   3.312   4.622  10.880 -1.4866 -0.1350 -2.0463
  974MOL0     H31469   3.487   4.577  10.873 -0.0717 -0.1205 -2.1858
  974MOL0     H31470   3.348   4.477  11.083  2.2766 -2.2857  0.7221
  974MOL0     H31471   3.387   4.355  10.995  3.8207  2.4268  3.7095
  974MOL0     H31472   4.290   4.083  10.825 -1.3763  1.2997 -0.7649
  974MOL0     H31473   4.436   3.890  10.816  0.0292 -1.8874  1.0547
  974MOL0     H31474   4.496   3.491  10.847 -0.6896 -0.1279 -0.3904
  974MOL0     H31475   4.658   3.345  10.888 -1.5227 -1.0065 -1.6334
  974MOL0     H31476   6.069   2.634  10.402 -0.7138  3.3626 -0.0369
  974MOL0     H31477   6.255   2.786  10.374 -1.1826  1.2211  0.8186
  974MOL0     H31478   6.837   2.740  10.686 -0.4428 -0.6456 -0.3542
  974MOL0     H31479   7.007   2.896  10.651 -0.5883  1.5817 -1.0626
  974MOL0     H31480   6.921   3.321  10.610 -1.7562 -0.8245 -0.2975
  974MOL0     H31481   6.939   3.244  10.774  2.6655  3.3599  1.2341
  974MOL0     H31482   7.176   3.246  10.782  3.7133  1.8009 -0.9910
  974MOL0     H31483   7.110   3.406  10.764  0.5866  0.7734 -2.1562
  974MOL0     H31484   7.197   3.253  10.509 -0.6003  0.0160  0.0459
  974MOL0     H31485   7.307   3.351  10.619 -0.4408  0.0066  2.4445
  974MOL0     H31486   7.123   3.538  10.575 -2.3085  1.2210 -2.5217
  974MOL0     H31487   7.075   3.426  10.449 -0.0992 -1.8589  0.3315
  974MOL0     H31488   7.417   3.658  10.313  0.6179 -0.6419  1.0974
  974MOL0     H31489   6.740   3.201  10.536  0.4068  0.0016 -0.4234
  974MOL0     H31490   6.570   3.027  10.503 -0.8337 -0.4654  1.0772
  975MOL0     O31491   4.243   1.288   7.473  0.0719 -0.6267 -0.3540
  975MOL0     C31492   4.293   1.396   7.504 -0.6249  0.3489 -0.0790
  975MOL0     O31493   4.228   1.513   7.508  0.4064  0.0930 -0.1464
  975MOL0     C31494   4.095   1.507   7.500 -0.1569  0.0703  0.6531
  975MOL0     C31495   4.016   1.448   7.595 -0.1622  0.0253 -0.8561
  975MOL0     C31496   3.875   1.441   7.570 -1.2044 -0.4942 -0.6016
  975MOL0     C31497   3.814   1.491   7.454 -0.0498  0.0788  0.8865
  975MOL0     O31498   3.682   1.505   7.463  0.3222  0.1884 -0.0892
  975MOL0     C31499   3.605   1.581   7.355 -0.7885 -0.3829 -0.6891
  975MOL0     C31500   3.463   1.580   7.397  0.1995 -0.3568 -0.9494
  975MOL0     C31501   3.381   1.447   7.382  0.1966 -0.2653 -0.3426
  975MOL0     C31502   3.241   1.464   7.450 -1.5262  0.3334  0.2004
  975MOL0     C31503   3.210   1.341   7.538  0.0752 -0.3858  0.1837
  975MOL0     C31504   3.098   1.372   7.635 -0.6039  0.3685  0.0645
  975MOL0     C31505   2.965   1.349   7.557  0.1289  0.5488  0.4081
  975MOL0     C31506   2.852   1.443   7.597 -0.1623  0.2150 -0.3609
  975MOL0     N31507   2.720   1.422   7.523  0.2690  0.8445 -0.5502
  975MOL0     C31508   2.603   1.351   7.567  0.2656  0.2854 -0.1957
  975MOL0     C31509   2.517   1.360   7.468 -0.0307 -0.1916  0.2373
  975MOL0     C31510   2.377   1.320   7.453  0.0996 -0.1657 -0.6957
  975MOL0     C31511   2.293   1.429   7.527 -0.2027 -0.1605  1.0092
  975MOL0     C31512   2.139   1.381   7.524  0.0452  0.5548 -1.2637
  975MOL0     C31513   2.120   1.281   7.638 -0.5126  0.4405 -0.8836
  975MOL0     O31514   1.998   1.213   7.617  0.3116  0.6224 -0.5197
  975MOL0     C31515   1.889   1.296   7.620 -0.8891 -0.4402  0.2920
  975MOL0     C31516   1.792   1.285   7.515 -0.3579 -0.4004  0.2987
  975MOL0     C31517   1.679   1.371   7.512 -0.0218  0.5796  0.8320
  975MOL0     C31518   1.585   1.357   7.400 -0.8121  0.4287 -0.3235
  975MOL0     C31519   1.666   1.461   7.612  0.0716 -0.5224  0.1245
  975MOL0     C31520   1.548   1.563   7.617  0.0770 -0.0682 -1.1066
  975MOL0     O31521   1.582   1.676   7.685 -0.3404 -0.2692 -1.0231
  975MOL0     C31522   1.502   1.781   7.666 -0.3153  0.7618 -0.0172
  975MOL0     C31523   1.373   1.778   7.720 -0.9130 -0.1165 -0.6942
  975MOL0     C31524   1.285   1.888   7.714 -0.7465 -0.3796  0.1431
  975MOL0     C31525   1.319   1.991   7.640 -0.2436  0.9427  1.2760
  975MOL0     O31526   1.229   2.084   7.634  1.2436 -0.0193 -0.3597
  975MOL0     C31527   1.282   2.212   7.594  0.7939  0.0655  0.2795
  975MOL0     C31528   1.183   2.323   7.620  0.3428  0.1188  0.3949
  975MOL0     C31529   1.191   2.357   7.771 -0.6380  0.5148 -0.0070
  975MOL0     C31530   1.105   2.483   7.810  0.0114 -0.0483 -0.1859
  975MOL0     C31531   0.962   2.475   7.762 -0.2256 -0.6868 -0.8982
  975MOL0     C31532   0.876   2.364   7.826  0.3060  1.2442 -0.2088
  975MOL0     C31533   0.727   2.383   7.803 -1.0288 -0.2292 -0.3998
  975MOL0     C31534   0.700   2.321   7.666 -0.6932  0.5620 -0.4164
  975MOL0    Cl31535   0.531   2.341   7.623  0.4957  0.0277 -0.0603
  975MOL0     C31536   1.449   1.995   7.577  0.2271  0.1636  0.7305
  975MOL0     C31537   1.544   1.896   7.594  0.3958  0.1271  0.4537
  975MOL0     O31538   1.433   1.539   7.569  0.1369 -0.1677 -0.2675
  975MOL0     C31539   1.752   1.462   7.722  0.6894 -0.0582  0.2107
  975MOL0     C31540   1.863   1.382   7.729  0.3187 -0.1962 -0.2192
  975MOL0     N31541   2.577   1.439   7.368 -0.4581 -0.3173  0.6320
  975MOL0     N31542   2.695   1.483   7.404  0.6822  0.6851 -0.0549
  975MOL0     C31543   3.902   1.557   7.366  0.7837 -0.3436 -0.6098
  975MOL0     C31544   4.032   1.573   7.390 -0.1058  0.5529 -0.7186
  975MOL0     C31545   4.437   1.404   7.507 -0.0788 -0.5385 -0.0352
  975MOL0     C31546   4.526   1.294   7.477 -0.3126  0.2730 -1.0028
  975MOL0     C31547   4.664   1.307   7.482  0.0325 -0.0023  0.5764
  975MOL0     C31548   4.718   1.420   7.528 -0.2904 -0.5707  1.0779
  975MOL0     O31549   4.853   1.440   7.534 -0.5889 -1.3390 -0.3555
  975MOL0     C31550   4.948   1.353   7.464  0.0294 -1.0831 -0.7179
  975MOL0     C31551   5.088   1.405   7.468 -0.7753 -0.7621  0.2021
  975MOL0     C31552   5.088   1.557   7.427 -0.0400  0.0278 -0.4589
  975MOL0     C31553   5.040   1.582   7.283  0.5891 -0.7995 -0.5397
  975MOL0     C31554   5.124   1.520   7.190  0.2551  0.5490 -1.0440
  975MOL0     C31555   5.212   1.488   7.117 -0.9256  0.3983  0.0167
  975MOL0     C31556   4.638   1.527   7.559 -0.5641  0.3908 -0.1147
  975MOL0     C31557   4.498   1.524   7.547 -0.1010  0.9640 -1.3878
  975MOL0     H31558   4.060   1.406   7.685 -1.7324  1.8912  0.8534
  975MOL0     H31559   3.827   1.371   7.639 -0.0893  1.0311  1.8592
  975MOL0     H31560   3.636   1.685   7.347 -0.9451 -0.1837  0.9542
  975MOL0     H31561   3.625   1.536   7.257  0.0255 -1.7576  0.0865
  975MOL0     H31562   3.448   1.608   7.502 -4.0889 -1.9500 -0.9149
  975MOL0     H31563   3.402   1.647   7.335 -0.1028 -0.8128 -1.1499
  975MOL0     H31564   3.367   1.428   7.275 -1.0576 -0.0545 -0.2322
  975MOL0     H31565   3.441   1.374   7.436 -2.0959 -0.0395  2.8112
  975MOL0     H31566   3.250   1.555   7.509  2.8018  0.1233  0.2515
  975MOL0     H31567   3.174   1.485   7.367  2.5900 -1.6415 -4.1533
  975MOL0     H31568   3.181   1.255   7.476  0.4018 -0.5129  0.2073
  975MOL0     H31569   3.295   1.305   7.597 -0.7085 -1.2196  0.8320
  975MOL0     H31570   3.110   1.310   7.725  0.8902  0.5770  0.0269
  975MOL0     H31571   3.121   1.473   7.670  0.7412 -0.2465  1.0099
  975MOL0     H31572   2.982   1.375   7.453 -1.2573 -1.0576 -0.2706
  975MOL0     H31573   2.938   1.243   7.561 -1.2348  0.8299 -0.7708
  975MOL0     H31574   2.880   1.548   7.585 -1.5992  0.3493 -3.3254
  975MOL0     H31575   2.834   1.430   7.704  1.6882  1.9958  0.2224
  975MOL0     H31576   2.587   1.297   7.660 -2.1287  0.9595 -0.1555
  975MOL0     H31577   2.339   1.319   7.350 -1.8940 -0.5204 -0.0082
  975MOL0     H31578   2.361   1.222   7.499 -0.4304 -0.4271 -1.4035
  975MOL0     H31579   2.292   1.521   7.468 -1.4721 -0.8703 -0.1287
  975MOL0     H31580   2.329   1.459   7.626  0.4185  0.9915  0.4582
  975MOL0     H31581   2.103   1.352   7.425 -2.1843 -0.1398 -0.3342
  975MOL0     H31582   2.076   1.467   7.547 -0.3114 -0.2670  1.1546
  975MOL0     H31583   2.121   1.345   7.727  3.0275  2.8534 -2.4216
  975MOL0     H31584   2.204   1.212   7.643  0.2010  1.2186 -1.7970
  975MOL0     H31585   1.801   1.212   7.435  0.5534 -0.4658  0.4556
  975MOL0     H31586   1.600   1.256   7.359  3.0306 -0.0356  1.7439
  975MOL0     H31587   1.480   1.361   7.432 -1.5833  1.7291 -2.7875
  975MOL0     H31588   1.598   1.430   7.320  1.0688  1.3660  0.7835
  975MOL0     H31589   1.337   1.687   7.768 -3.0284  0.6847 -0.6608
  975MOL0     H31590   1.185   1.880   7.755  0.1707 -0.0392  2.6407
  975MOL0     H31591   1.379   2.232   7.642  0.9725  0.0234 -0.0579
  975MOL0     H31592   1.321   2.219   7.491  2.7596 -1.6519  0.8360
  975MOL0     H31593   1.199   2.406   7.550 -3.3602 -0.3351 -1.2049
  975MOL0     H31594   1.083   2.284   7.598 -0.2975  1.3717  0.9526
  975MOL0     H31595   1.293   2.363   7.810  0.2388 -0.2138 -2.0415
  975MOL0     H31596   1.151   2.271   7.824 -0.9221  0.5753 -0.1202
  975MOL0     H31597   1.110   2.480   7.919 -0.7052 -0.4459 -0.1600
  975MOL0     H31598   1.148   2.576   7.770  0.8636 -1.1033 -1.8294
  975MOL0     H31599   0.954   2.468   7.653 -0.4004  0.6749 -0.9817
  975MOL0     H31600   0.907   2.566   7.786 -1.0147 -1.3973  0.0960
  975MOL0     H31601   0.911   2.268   7.788 -2.0879 -1.2277  3.2035
  975MOL0     H31602   0.893   2.358   7.934  1.0407  3.3388 -0.1540
  975MOL0     H31603   0.686   2.484   7.799 -2.2921 -0.6963  0.1549
  975MOL0     H31604   0.667   2.330   7.878 -0.7200  0.9752  0.7222
  975MOL0     H31605   0.716   2.213   7.670  1.0123  0.8293  3.0514
  975MOL0     H31606   0.768   2.357   7.588  0.1564 -0.9731 -0.4240
  975MOL0     H31607   1.483   2.062   7.499  0.9180 -0.2409  0.6680
  975MOL0     H31608   1.642   1.909   7.550  0.9123  2.0752  2.0178
  975MOL0     H31609   1.735   1.531   7.804  1.1023  0.2289  0.0576
  975MOL0     H31610   1.920   1.380   7.821  1.7319  2.0983 -0.9576
  975MOL0     H31611   3.858   1.631   7.300 -1.5003 -0.2844  0.8490
  975MOL0     H31612   4.094   1.645   7.336 -1.0327  3.5751  1.9464
  975MOL0     H31613   4.480   1.201   7.444 -0.0896 -1.0153  2.0198
  975MOL0     H31614   4.714   1.216   7.451 -2.3247 -1.5125  0.9494
  975MOL0     H31615   4.947   1.255   7.511 -0.1242  1.2608  5.0077
  975MOL0     H31616   4.917   1.350   7.359 -0.0948  1.4436 -0.8296
  975MOL0     H31617   5.153   1.349   7.400 -2.0533 -1.6677 -0.3287
  975MOL0     H31618   5.133   1.383   7.565  1.2881  0.0263 -0.5328
  975MOL0     H31619   5.189   1.596   7.443  0.6199 -2.0706  0.9641
  975MOL0     H31620   5.025   1.611   7.499 -1.9716 -0.9735 -1.3124
  975MOL0     H31621   5.044   1.689   7.261 -0.8204 -1.0926 -2.5560
  975MOL0     H31622   4.936   1.547   7.280 -0.1253  0.6229  2.8786
  975MOL0     H31623   5.301   1.473   7.060  0.8262 -0.0647  2.6684
  975MOL0     H31624   4.688   1.617   7.591  1.1153 -0.5693  0.0646
  975MOL0     H31625   4.435   1.609   7.571 -0.3028  0.7152 -1.0283
  976MOL0     O31626   9.174   4.854  11.006  0.2449 -0.9613 -0.5188
  976MOL0     C31627   9.194   4.856  10.885 -0.5052 -0.8766  0.8160
  976MOL0     O31628   9.109   4.906  10.788  0.5995 -0.3642 -0.0766
  976MOL0     C31629   8.966   4.915  10.809 -0.5779  0.7887 -1.2652
  976MOL0     C31630   8.914   4.995  10.712  0.3875 -0.2923  0.3517
  976MOL0     C31631   8.778   5.027  10.724  0.6615 -0.0861  0.0260
  976MOL0     C31632   8.695   4.982  10.822  0.9974  0.4761  0.1742
  976MOL0     O31633   8.560   5.015  10.834  0.1186  0.7208 -0.2463
  976MOL0     C31634   8.485   5.014  10.714  1.4377 -0.0433  0.1759
  976MOL0     C31635   8.331   5.040  10.747 -0.1508  0.0897 -0.1454
  976MOL0     C31636   8.255   4.917  10.775  0.2143 -0.0918  0.1257
  976MOL0     C31637   8.108   4.949  10.796  0.7898 -0.2787  0.1377
  976MOL0     C31638   8.028   4.826  10.819  0.4234  0.1788  0.2167
  976MOL0     C31639   7.883   4.859  10.826 -0.7850  0.0938 -0.4080
  976MOL0     C31640   7.802   4.743  10.859 -0.4192 -0.0087 -1.0357
  976MOL0     C31641   7.663   4.789  10.919  0.4912  0.0408 -0.2068
  976MOL0     N31642   7.566   4.676  10.917 -0.5168 -0.1631  0.1154
  976MOL0     C31643   7.430   4.694  10.902  0.7836  0.3236  0.6630
  976MOL0     C31644   7.377   4.570  10.918  0.0565  0.0234  0.3365
  976MOL0     C31645   7.234   4.534  10.919  0.7787 -0.2351 -0.2934
  976MOL0     C31646   7.202   4.404  10.843 -0.0395 -0.0168 -0.2344
  976MOL0     C31647   7.049   4.393  10.834  0.0015  0.0676  0.2747
  976MOL0     C31648   7.019   4.250  10.802 -0.4607 -0.0429 -0.7703
  976MOL0     O31649   6.876   4.241  10.789  0.1430  0.2371  0.0115
  976MOL0     C31650   6.828   4.132  10.850 -0.1081  0.4250  0.5804
  976MOL0     C31651   6.731   4.069  10.770 -0.4210  0.6114 -0.1799
  976MOL0     C31652   6.655   3.964  10.830  0.5679  0.6348  0.4929
  976MOL0     C31653   6.552   3.903  10.746  0.8399 -0.7225  0.8431
  976MOL0     C31654   6.685   3.914  10.956  0.6101  0.4380 -0.2899
  976MOL0     C31655   6.607   3.802  11.025 -0.6387  0.5587 -0.5511
  976MOL0     O31656   6.684   3.735  11.129 -0.5404  0.1724 -0.2680
  976MOL0     C31657   6.621   3.625  11.174 -0.0527  0.2082 -0.3154
  976MOL0     C31658   6.506   3.638  11.255  0.3591  0.0458  0.1684
  976MOL0     C31659   6.419   3.529  11.275 -0.6449  0.6064 -0.2033
  976MOL0     C31660   6.458   3.404  11.212 -0.0934  1.3096 -0.0365
  976MOL0     O31661   6.401   3.277  11.215  0.0874 -0.0972  0.0184
  976MOL0     C31662   6.255   3.257  11.223 -1.2012 -0.3291  0.4830
  976MOL0     C31663   6.234   3.107  11.234 -0.3953 -0.3411  0.5536
  976MOL0     C31664   6.089   3.057  11.221  1.0917 -0.2722  0.1095
  976MOL0     C31665   6.001   3.111  11.335 -0.0029 -0.3925 -0.3060
  976MOL0     C31666   5.861   3.053  11.332  0.1855  0.5307  0.7359
  976MOL0     C31667   5.832   2.956  11.450 -0.3684 -0.3100  0.1106
  976MOL0     C31668   5.715   2.880  11.425 -0.1360  0.2530  0.0140
  976MOL0     C31669   5.680   2.781  11.536 -0.3070 -0.2872  0.3911
  976MOL0    Cl31670   5.572   2.859  11.653  0.2776 -0.2824  0.5375
  976MOL0     C31671   6.578   3.391  11.142 -0.1516 -0.1261  0.3360
  976MOL0     C31672   6.659   3.505  11.121  0.6846  0.4677  0.2779
  976MOL0     O31673   6.488   3.795  11.012 -0.1465 -0.2336  0.3941
  976MOL0     C31674   6.799   3.971  11.017  0.6555  0.6098 -0.6858
  976MOL0     C31675   6.866   4.081  10.970  0.1467 -0.1249  0.4338
  976MOL0     N31676   7.474   4.482  10.951 -1.0839 -0.6688 -0.4442
  976MOL0     N31677   7.589   4.545  10.951 -0.4315 -0.0359  0.0480
  976MOL0     C31678   8.751   4.893  10.915 -0.1718  0.6335  0.0548
  976MOL0     C31679   8.896   4.865  10.911 -0.0811 -0.6240 -0.0113
  976MOL0     C31680   9.327   4.811  10.834 -0.7490  0.1374  0.1511
  976MOL0     C31681   9.375   4.858  10.713 -0.5415  0.1388 -0.3289
  976MOL0     C31682   9.499   4.832  10.656  0.1357  1.0659  0.4087
  976MOL0     C31683   9.591   4.749  10.728  0.5280 -1.0494  0.4516
  976MOL0     O31684   9.726   4.729  10.698 -0.7312  0.0677 -0.5909
  976MOL0     C31685   9.772   4.796  10.582 -0.0657 -0.5504 -0.3547
  976MOL0     C31686   9.820   4.936  10.604  0.4932 -0.1285  0.0372
  976MOL0     C31687   9.948   4.925  10.690 -0.1521  0.2059 -0.7675
  976MOL0     C31688  10.008   5.065  10.722 -0.0558  0.2801  0.4784
  976MOL0     C31689  10.052   5.143  10.606  0.7339  0.1787  0.1203
  976MOL0     C31690  10.085   5.200  10.502  0.0936 -0.0687 -0.6153
  976MOL0     C31691   9.551   4.697  10.848 -0.5944 -0.6292 -0.0050
  976MOL0     C31692   9.424   4.726  10.899  0.0998  0.0667 -0.1672
  976MOL0     H31693   8.985   5.037  10.640  1.8456 -2.8301  0.1810
  976MOL0     H31694   8.738   5.109  10.665  2.8642  0.1874 -1.1864
  976MOL0     H31695   8.518   5.090  10.643 -0.1646  0.0122 -0.5670
  976MOL0     H31696   8.502   4.921  10.659  0.3125  0.3869 -0.9548
  976MOL0     H31697   8.314   5.122  10.817  2.0023  2.0259 -1.7296
  976MOL0     H31698   8.283   5.077  10.656 -2.9183 -1.5769  0.5300
  976MOL0     H31699   8.268   4.844  10.695  1.0853  1.2949 -1.0257
  976MOL0     H31700   8.286   4.866  10.867 -0.8560 -0.0083  0.5555
  976MOL0     H31701   8.090   5.018  10.878 -1.5738 -0.0629 -0.4935
  976MOL0     H31702   8.066   5.003  10.710 -0.5023  0.0323  0.9491
  976MOL0     H31703   8.047   4.755  10.737 -2.1649 -2.9062  2.0300
  976MOL0     H31704   8.060   4.785  10.915  0.4156 -2.5147 -0.8489
  976MOL0     H31705   7.866   4.936  10.902 -0.1848 -0.5578  0.4129
  976MOL0     H31706   7.856   4.902  10.729 -0.6633 -0.8287 -0.8621
  976MOL0     H31707   7.789   4.695  10.762  2.1649 -1.0728 -0.9327
  976MOL0     H31708   7.841   4.672  10.933 -1.2595  0.2319 -0.3358
  976MOL0     H31709   7.628   4.877  10.865 -1.1356  0.8154  1.9429
  976MOL0     H31710   7.676   4.837  11.017 -4.4963  0.5788  0.4363
  976MOL0     H31711   7.380   4.788  10.884  1.1290  1.1154  3.3809
  976MOL0     H31712   7.203   4.521  11.023 -2.0060 -1.5286 -1.1908
  976MOL0     H31713   7.168   4.615  10.889 -1.3080 -2.1908 -1.2624
  976MOL0     H31714   7.232   4.319  10.905 -1.2272  0.1883  0.6586
  976MOL0     H31715   7.263   4.396  10.752 -1.3705 -2.5798 -1.0034
  976MOL0     H31716   7.014   4.462  10.756  1.5980  0.0646 -0.4820
  976MOL0     H31717   7.017   4.417  10.936 -1.2534  0.9516 -0.2974
  976MOL0     H31718   7.071   4.182  10.871 -0.5011 -0.8337 -1.4933
  976MOL0     H31719   7.074   4.235  10.709  2.2510  1.4853  0.4702
  976MOL0     H31720   6.706   4.096  10.668  0.8328  0.7000 -0.4718
  976MOL0     H31721   6.454   3.948  10.760  1.5845  1.8622 -1.3898
  976MOL0     H31722   6.578   3.905  10.639  0.2853 -1.9561  0.6628
  976MOL0     H31723   6.548   3.795  10.767  1.5006 -1.0739 -0.6713
  976MOL0     H31724   6.491   3.736  11.299 -0.1971 -0.1802  0.4918
  976MOL0     H31725   6.326   3.544  11.329  0.5369  1.9162  1.5849
  976MOL0     H31726   6.211   3.315  11.304  0.9566  1.4733  0.4563
  976MOL0     H31727   6.216   3.297  11.129  2.1824 -1.1338 -1.4266
  976MOL0     H31728   6.290   3.059  11.154 -0.8327 -1.4887  0.9280
  976MOL0     H31729   6.270   3.071  11.331 -0.6886 -1.1443  0.3648
  976MOL0     H31730   6.106   2.949  11.230  0.7235 -0.3602 -0.2168
  976MOL0     H31731   6.043   3.081  11.124  0.8233 -2.2906 -0.3106
  976MOL0     H31732   6.049   3.118  11.433  0.6860  1.7134 -0.7393
  976MOL0     H31733   6.001   3.219  11.320  2.0664 -0.3827 -0.5262
  976MOL0     H31734   5.856   2.986  11.245  0.9386  0.4232  0.7671
  976MOL0     H31735   5.788   3.134  11.324  0.8861  1.4903  3.2962
  976MOL0     H31736   5.919   2.890  11.458 -1.1035 -1.7000 -2.3190
  976MOL0     H31737   5.822   3.009  11.545  1.1466 -2.1304  1.3647
  976MOL0     H31738   5.732   2.822  11.334  3.9215  1.1232  0.0363
  976MOL0     H31739   5.627   2.941  11.405 -0.5640 -0.0395  0.9352
  976MOL0     H31740   5.769   2.745  11.587 -1.1749 -1.2709  1.2642
  976MOL0     H31741   5.624   2.691  11.507 -3.1169  0.0358  4.0927
  976MOL0     H31742   6.602   3.298  11.092  1.5575  0.0124  0.8136
  976MOL0     H31743   6.747   3.506  11.057  1.8573  0.1479  1.8274
  976MOL0     H31744   6.835   3.927  11.110 -2.2641  1.2475  0.8586
  976MOL0     H31745   6.953   4.108  11.030 -0.3966 -1.2062  1.7882
  976MOL0     H31746   8.702   4.850  11.002  0.1039 -3.6603 -1.6451
  976MOL0     H31747   8.945   4.797  10.980  0.3853  2.4453  2.9575
  976MOL0     H31748   9.321   4.927  10.649 -0.0900  2.3607  1.5430
  976MOL0     H31749   9.526   4.872  10.558  1.0796 -2.1637 -0.7746
  976MOL0     H31750   9.851   4.735  10.538  0.4911 -1.1511  1.3718
  976MOL0     H31751   9.695   4.790  10.505 -1.0827 -1.7976  0.7053
  976MOL0     H31752   9.747   4.997  10.658 -0.3461 -0.4408 -0.7108
  976MOL0     H31753   9.850   4.983  10.510  1.8069 -1.5510 -0.2959
  976MOL0     H31754  10.020   4.863  10.636 -0.5764 -1.2425  0.2737
  976MOL0     H31755   9.936   4.876  10.787 -0.8303  2.4250  0.3338
  976MOL0     H31756  10.094   5.058  10.790 -0.2636 -0.0423  0.7114
  976MOL0     H31757   9.931   5.117  10.779 -3.0209 -3.4081  0.2226
  976MOL0     H31758  10.085   5.242  10.403 -2.5176  1.1871 -0.1697
  976MOL0     H31759   9.620   4.656  10.921  1.9412  3.5809  0.2962
  976MOL0     H31760   9.414   4.688  11.000  1.9218 -0.1259 -0.0291
  977MOL0     O31761   6.376   0.750  10.958 -0.6002 -0.5129  0.1359
  977MOL0     C31762   6.366   0.635  10.918  0.6372  0.2229  0.1401
  977MOL0     O31763   6.249   0.579  10.868 -0.1159  0.1895 -0.5418
  977MOL0     C31764   6.126   0.624  10.908  0.4295  0.1901 -0.6233
  977MOL0     C31765   6.030   0.634  10.806 -0.7834 -0.6088 -0.8323
  977MOL0     C31766   5.897   0.683  10.831 -0.0136 -0.0312 -0.1222
  977MOL0     C31767   5.866   0.700  10.968  0.3631 -0.1690  0.3792
  977MOL0     O31768   5.737   0.729  11.018 -0.2576  0.5113 -0.8685
  977MOL0     C31769   5.640   0.764  10.914 -0.8319 -0.0610 -0.3069
  977MOL0     C31770   5.505   0.822  10.977 -0.1614 -0.3709  0.0180
  977MOL0     C31771   5.423   0.900  10.875 -0.0064 -0.6916  0.6656
  977MOL0     C31772   5.366   0.827  10.755 -0.1480 -0.2023  0.2823
  977MOL0     C31773   5.255   0.906  10.683 -0.1754 -0.7106 -0.2467
  977MOL0     C31774   5.198   0.834  10.561 -0.4776 -0.1694  0.5914
  977MOL0     C31775   5.075   0.908  10.512  0.2168  0.3422  0.5935
  977MOL0     C31776   4.983   0.812  10.439 -0.2098  0.0085  0.2492
  977MOL0     N31777   4.891   0.874  10.348 -0.1663 -0.5853  0.5192
  977MOL0     C31778   4.805   0.984  10.377 -0.2794  0.2275  0.4999
  977MOL0     C31779   4.719   0.998  10.269  0.2618 -0.0307  0.5841
  977MOL0     C31780   4.608   1.095  10.245 -0.9891  0.1498 -0.8135
  977MOL0     C31781   4.470   1.055  10.300 -0.6177  0.0092  0.1211
  977MOL0     C31782   4.451   1.090  10.448 -0.4328 -0.1017  0.4256
  977MOL0     C31783   4.460   1.233  10.503  0.9968 -0.7614  0.6647
  977MOL0     O31784   4.354   1.312  10.439  1.0620  1.6047 -0.5464
  977MOL0     C31785   4.218   1.293  10.472  0.5166  0.2230  0.9672
  977MOL0     C31786   4.134   1.387  10.408 -0.2588 -0.3290 -0.3022
  977MOL0     C31787   4.000   1.397  10.432  0.7405 -0.6112 -0.7901
  977MOL0     C31788   3.918   1.495  10.346  0.0130 -0.0342 -0.2297
  977MOL0     C31789   3.940   1.306  10.532 -0.0795 -0.5219 -0.5071
  977MOL0     C31790   3.805   1.316  10.573 -0.0853 -0.4402  0.7475
  977MOL0     O31791   3.737   1.196  10.590 -0.7240 -0.0881  0.4464
  977MOL0     C31792   3.611   1.211  10.636 -0.6625 -0.7200 -0.1950
  977MOL0     C31793   3.509   1.271  10.570 -0.5791  0.4216  1.2641
  977MOL0     C31794   3.375   1.263  10.618  0.4010  0.2529 -0.4321
  977MOL0     C31795   3.344   1.179  10.726 -0.7970 -0.3854  0.4849
  977MOL0     O31796   3.213   1.145  10.740 -0.1498  0.1131 -0.3119
  977MOL0     C31797   3.184   0.998  10.727  0.6918 -0.6476 -0.3350
  977MOL0     C31798   3.037   0.969  10.753 -0.3278 -0.3610 -0.3053
  977MOL0     C31799   2.948   1.023  10.634 -0.4601  0.9521 -0.3814
  977MOL0     C31800   2.797   0.989  10.667  0.3444 -0.2541 -0.4029
  977MOL0     C31801   2.700   1.042  10.568 -0.1326  0.5128 -0.3232
  977MOL0     C31802   2.553   1.002  10.603  0.0065 -0.1232 -0.1252
  977MOL0     C31803   2.437   1.052  10.525 -0.5607 -0.0215 -0.2813
  977MOL0     C31804   2.419   0.997  10.389  0.5329 -0.5980 -0.2603
  977MOL0    Cl31805   2.565   1.029  10.277  0.1425  0.4333  0.3292
  977MOL0     C31806   3.446   1.122  10.790 -0.6782  0.0041 -0.3622
  977MOL0     C31807   3.583   1.138  10.755  0.4175  0.1011  0.4650
  977MOL0     O31808   3.756   1.425  10.597  0.4283 -0.0116  0.3915
  977MOL0     C31809   4.024   1.208  10.593 -0.1704  0.4647  0.3363
  977MOL0     C31810   4.163   1.210  10.567  0.4517  0.3004  0.1909
  977MOL0     N31811   4.751   0.899  10.173 -0.3647  0.5186 -0.2125
  977MOL0     N31812   4.852   0.827  10.220  0.3975 -0.0692 -0.7997
  977MOL0     C31813   5.970   0.689  11.073 -0.1177 -0.6637  0.2332
  977MOL0     C31814   6.100   0.653  11.041 -0.3405 -0.8248 -0.3553
  977MOL0     C31815   6.488   0.549  10.917 -0.3405  0.9365  0.1813
  977MOL0     C31816   6.612   0.588  10.958 -0.5395 -0.1959  0.2480
  977MOL0     C31817   6.727   0.511  10.947  0.3887  0.3813 -0.8702
  977MOL0     C31818   6.716   0.380  10.894  0.2428  0.3054 -0.0829
  977MOL0     O31819   6.819   0.288  10.868  0.0399 -0.2927 -0.8443
  977MOL0     C31820   6.951   0.328  10.861  0.5201  0.5590  0.3516
  977MOL0     C31821   6.979   0.419  10.742 -0.2263 -0.9945 -0.3796
  977MOL0     C31822   6.949   0.346  10.606  0.5390  0.1756  0.0053
  977MOL0     C31823   6.998   0.418  10.481 -0.3137 -0.4825  0.8003
  977MOL0     C31824   7.145   0.432  10.491  0.6840 -0.0516  0.2110
  977MOL0     C31825   7.264   0.446  10.499  0.4495  0.5259  0.4345
  977MOL0     C31826   6.590   0.330  10.856  0.7300  0.3150  0.9510
  977MOL0     C31827   6.481   0.416  10.871 -0.1011 -0.0610  0.0569
  977MOL0     H31828   6.053   0.574  10.719 -2.1355 -0.8444 -1.0501
  977MOL0     H31829   5.834   0.682  10.743 -0.0774  0.4397 -0.0842
  977MOL0     H31830   5.691   0.836  10.849 -1.2803 -1.5744 -2.4484
  977MOL0     H31831   5.619   0.675  10.853  1.6567 -1.8779  1.2865
  977MOL0     H31832   5.442   0.736  11.002 -0.4804 -0.4543 -1.0058
  977MOL0     H31833   5.534   0.881  11.064  1.5011 -0.6747 -0.2906
  977MOL0     H31834   5.338   0.948  10.925  0.1096  2.3304 -1.7372
  977MOL0     H31835   5.482   0.980  10.830 -0.5668  0.1664  1.4051
  977MOL0     H31836   5.445   0.811  10.681  2.5494 -0.0055  2.9340
  977MOL0     H31837   5.330   0.730  10.788  2.0897 -2.7875 -3.9145
  977MOL0     H31838   5.174   0.933  10.752 -0.0540  1.4370 -0.8790
  977MOL0     H31839   5.291   1.001  10.644 -0.0046  0.9563  3.5373
  977MOL0     H31840   5.268   0.828  10.477  0.0673 -1.8349  1.1248
  977MOL0     H31841   5.167   0.731  10.582 -1.3328 -0.0622 -0.1219
  977MOL0     H31842   5.017   0.956  10.592 -1.7252 -0.5522 -0.2074
  977MOL0     H31843   5.110   0.991  10.450  2.5477  0.9928  2.6343
  977MOL0     H31844   4.930   0.771  10.525  2.7620 -0.5277  1.9954
  977MOL0     H31845   5.040   0.729  10.396 -0.6560 -0.2434  0.1369
  977MOL0     H31846   4.814   1.055  10.459  2.0786  1.0590 -0.3892
  977MOL0     H31847   4.630   1.199  10.272 -0.2691  0.2176 -1.5951
  977MOL0     H31848   4.607   1.099  10.136  0.8313 -1.0892 -0.9325
  977MOL0     H31849   4.451   0.949  10.280  0.7512  0.0611 -1.7710
  977MOL0     H31850   4.395   1.110  10.242  0.0983 -2.0393 -2.9543
  977MOL0     H31851   4.528   1.029  10.496 -1.8854 -1.5153  1.0537
  977MOL0     H31852   4.354   1.052  10.482 -1.6567  3.0301  0.7548
  977MOL0     H31853   4.553   1.279  10.469 -2.1904  3.3338 -3.9776
  977MOL0     H31854   4.432   1.241  10.609  0.9274  1.2996  0.5405
  977MOL0     H31855   4.180   1.456  10.339 -0.2667  0.0859  0.1020
  977MOL0     H31856   3.976   1.588  10.338  0.7232 -0.4575 -0.1097
  977MOL0     H31857   3.913   1.458  10.243 -3.1711  0.9435 -0.5394
  977MOL0     H31858   3.816   1.513  10.379  0.0193  0.2033 -0.3385
  977MOL0     H31859   3.535   1.325  10.479 -2.9931 -1.1548 -0.4629
  977MOL0     H31860   3.301   1.312  10.556 -0.5972 -2.3927 -1.4349
  977MOL0     H31861   3.214   0.970  10.625  0.5928  1.3488 -0.9607
  977MOL0     H31862   3.245   0.945  10.801 -0.7879  2.5188  3.5101
  977MOL0     H31863   3.030   0.860  10.761 -0.6875 -0.2051  2.5015
  977MOL0     H31864   3.015   1.013  10.851 -1.0823 -1.0622 -0.1507
  977MOL0     H31865   2.976   0.974  10.540 -0.7662  0.9294 -0.4601
  977MOL0     H31866   2.952   1.131  10.619  1.5274  0.8682 -0.7597
  977MOL0     H31867   2.795   0.880  10.671  4.4904 -0.4892 -0.7607
  977MOL0     H31868   2.779   1.032  10.766  1.5992 -0.9342  0.1379
  977MOL0     H31869   2.739   0.993  10.478  2.2628  1.5127  0.0988
  977MOL0     H31870   2.713   1.149  10.547  2.7209  0.5579  1.1067
  977MOL0     H31871   2.553   0.892  10.599 -0.2406 -0.3742  3.4612
  977MOL0     H31872   2.532   1.043  10.702  0.3135  0.8792 -0.4628
  977MOL0     H31873   2.450   1.161  10.522 -3.2708  0.4942  2.2167
  977MOL0     H31874   2.346   1.042  10.584 -1.6075 -0.8207 -1.9602
  977MOL0     H31875   2.332   1.049  10.348  0.7395 -0.1216 -0.0969
  977MOL0     H31876   2.399   0.890  10.398  0.1339 -0.6146 -1.1604
  977MOL0     H31877   3.436   1.046  10.867 -0.0338 -2.5709 -2.6693
  977MOL0     H31878   3.661   1.100  10.820  0.2985  0.3475  0.7525
  977MOL0     H31879   3.997   1.132  10.664 -0.5858  0.1709 -0.1277
  977MOL0     H31880   4.226   1.135  10.614  0.6973  0.1422 -0.3746
  977MOL0     H31881   5.943   0.715  11.174 -0.1160 -0.9123  0.2999
  977MOL0     H31882   6.178   0.640  11.116 -0.0322 -1.2943 -0.7535
  977MOL0     H31883   6.621   0.691  10.994  0.3755 -1.4035  3.9191
  977MOL0     H31884   6.820   0.545  10.990  0.1554  1.1574 -0.9547
  977MOL0     H31885   6.984   0.380  10.951  0.8933 -1.5317  1.4951
  977MOL0     H31886   7.003   0.234  10.843 -3.1697 -2.3141  2.9862
  977MOL0     H31887   7.083   0.453  10.747 -1.1482  1.9402  2.0184
  977MOL0     H31888   6.919   0.508  10.759  0.5058 -0.9474  2.5431
  977MOL0     H31889   6.841   0.339  10.588  0.9502 -0.2309 -2.6944
  977MOL0     H31890   6.999   0.249  10.617 -0.2628 -0.0680  2.0660
  977MOL0     H31891   6.952   0.516  10.464 -0.6518 -0.8899 -0.8424
  977MOL0     H31892   6.976   0.361  10.390 -1.8957  1.5320 -0.1608
  977MOL0     H31893   7.363   0.485  10.510  0.4014  1.1325 -1.0157
  977MOL0     H31894   6.580   0.243  10.791 -2.6580  0.2677  1.3589
  977MOL0     H31895   6.387   0.363  10.854  1.2671 -1.9208 -2.4096
  978MOL0     O31896   7.255  11.219  10.354 -0.2766 -0.4053  0.9129
  978MOL0     C31897   7.212  11.265  10.457  1.0986 -0.1472 -0.6930
  978MOL0     O31898   7.074  11.266  10.490 -0.1937  0.0584 -0.4426
  978MOL0     C31899   6.977  11.205  10.410 -0.9373  0.3981 -0.7725
  978MOL0     C31900   6.977  11.186  10.267 -0.3949  0.3914  0.0750
  978MOL0     C31901   6.866  11.154  10.187 -0.3240  0.2627 -0.5092
  978MOL0     C31902   6.748  11.126  10.260 -0.2788 -0.2668  0.4888
  978MOL0     O31903   6.636  11.110  10.181  0.2314 -0.7454 -0.2692
  978MOL0     C31904   6.495  11.115  10.234 -0.6557 -0.0793 -0.5330
  978MOL0     C31905   6.404  11.063  10.130 -0.4128  0.1649  0.1980
  978MOL0     C31906   6.260  11.121  10.155 -0.1139 -0.2560  0.4773
  978MOL0     C31907   6.241  11.266  10.101 -0.2428  0.3971  0.0801
  978MOL0     C31908   6.106  11.326  10.128 -0.7855 -0.6215  0.5695
  978MOL0     C31909   6.081  11.471  10.076 -0.4088 -0.1941 -0.6993
  978MOL0     C31910   5.939  11.526  10.098  0.3961  1.0983 -0.3699
  978MOL0     C31911   5.918  11.600  10.233  1.3178  0.4436 -0.4197
  978MOL0     N31912   5.778  11.631  10.263 -0.1112 -0.5059  0.1832
  978MOL0     C31913   5.694  11.690  10.172  0.3789  0.3610 -0.0930
  978MOL0     C31914   5.582  11.703  10.242  0.0560  0.1578  0.0861
  978MOL0     C31915   5.451  11.755  10.198 -0.5750  0.0491  0.6946
  978MOL0     C31916   5.343  11.652  10.216 -0.6037  0.0345  1.0317
  978MOL0     C31917   5.212  11.714  10.203 -0.0930 -0.6302  0.1169
  978MOL0     C31918   5.093  11.618  10.199  0.6422  1.1326  0.6315
  978MOL0     O31919   4.966  11.693  10.193 -0.2343  0.2227  0.6058
  978MOL0     C31920   4.852  11.616  10.159  0.1923 -0.5279 -0.8726
  978MOL0     C31921   4.847  11.476  10.148  1.1009 -0.8946  0.6057
  978MOL0     C31922   4.726  11.409  10.118 -0.9107 -0.4634 -0.7726
  978MOL0     C31923   4.730  11.257  10.107 -0.5005  0.5916  0.1933
  978MOL0     C31924   4.609  11.483  10.109 -0.1816 -0.4932  0.3111
  978MOL0     C31925   4.474  11.428  10.082 -0.0062  0.9598  0.6089
  978MOL0     O31926   4.371  11.494  10.143  0.0242 -0.2757 -0.1162
  978MOL0     C31927   4.244  11.442  10.135  0.8570  1.1118 -0.0859
  978MOL0     C31928   4.143  11.518  10.077 -0.1594 -0.0438 -0.5025
  978MOL0     C31929   4.014  11.464  10.067 -0.5512 -0.3781 -0.1339
  978MOL0     C31930   3.972  11.343  10.124  0.5980  1.4496 -0.7105
  978MOL0     O31931   3.838  11.306  10.129 -0.6057 -0.1078 -0.0314
  978MOL0     C31932   3.794  11.175  10.162 -0.2056  0.2485  0.2842
  978MOL0     C31933   3.848  11.055  10.091 -0.0382  0.3011  0.3264
  978MOL0     C31934   3.739  10.933  10.103  0.0194  0.3903  0.3899
  978MOL0     C31935   3.808  10.792  10.062  0.5135  0.1239 -0.5484
  978MOL0     C31936   3.698  10.685  10.061 -0.1251  0.1543  0.3248
  978MOL0     C31937   3.615  10.699   9.931  0.9490 -0.0342 -0.0416
  978MOL0     C31938   3.512  10.585   9.910  0.4742 -0.1780  0.9486
  978MOL0     C31939   3.381  10.598   9.992 -0.3170  0.0928 -0.3378
  978MOL0    Cl31940   3.297  10.758   9.990 -0.1727 -0.1527  0.0023
  978MOL0     C31941   4.074  11.259  10.185 -0.5144  0.5946  0.1853
  978MOL0     C31942   4.210  11.309  10.180 -0.8611 -0.3035 -0.3847
  978MOL0     O31943   4.466  11.330  10.004 -0.1723  0.3265  0.0140
  978MOL0     C31944   4.615  11.623  10.124  0.2718 -1.0224 -0.7174
  978MOL0     C31945   4.732  11.695  10.152 -0.3711 -0.1942  0.6046
  978MOL0     N31946   5.600  11.653  10.369  0.1110  0.5913  0.6648
  978MOL0     N31947   5.719  11.607  10.384 -0.0629  0.1884 -0.3447
  978MOL0     C31948   6.744  11.143  10.401 -0.1570  0.9378 -0.5457
  978MOL0     C31949   6.862  11.177  10.481  1.1504  1.6593  0.0242
  978MOL0     C31950   7.311  11.340  10.544 -0.5559  0.6983  0.2588
  978MOL0     C31951   7.268  11.423  10.650 -0.0323 -0.9848  0.1253
  978MOL0     C31952   7.361  11.516  10.693  0.2388 -0.2524  0.1691
  978MOL0     C31953   7.496  11.502  10.667 -0.4294 -0.2268  1.0688
  978MOL0     O31954   7.572  11.601  10.723 -0.5727  0.6285 -0.3364
  978MOL0     C31955   7.710  11.622  10.685  0.6631  0.9162  0.1788
  978MOL0     C31956   7.787  11.707  10.791  0.4602  0.2417 -0.2489
  978MOL0     C31957   7.942  11.693  10.782 -0.6142  0.1165 -0.4032
  978MOL0     C31958   8.009  11.821  10.833 -0.3787 -0.6819  0.9761
  978MOL0     C31959   8.152  11.835  10.799 -0.6093 -0.2661  0.3868
  978MOL0     C31960   8.267  11.841  10.759 -0.1184 -1.2676 -0.5486
  978MOL0     C31961   7.544  11.397  10.580 -0.0271  0.1018  0.5578
  978MOL0     C31962   7.448  11.314  10.520 -0.3770 -0.7108 -0.2561
  978MOL0     H31963   7.069  11.197  10.212 -0.6238 -0.3599 -0.4617
  978MOL0     H31964   6.868  11.146  10.079 -0.6052  1.0767 -0.5790
  978MOL0     H31965   6.475  11.061  10.326  0.3381  0.7171  0.1664
  978MOL0     H31966   6.476  11.223  10.240 -2.3084 -0.2768 -1.4114
  978MOL0     H31967   6.444  11.088  10.031  0.8119 -0.5529  0.5045
  978MOL0     H31968   6.413  10.955  10.120  0.4194  0.3885 -2.0969
  978MOL0     H31969   6.187  11.057  10.104  0.8960 -0.9622 -0.0985
  978MOL0     H31970   6.239  11.118  10.263 -1.6051  2.1632  0.3368
  978MOL0     H31971   6.315  11.336  10.142 -1.1500  0.5399  1.5479
  978MOL0     H31972   6.261  11.258   9.994  1.9657 -2.1367  0.5587
  978MOL0     H31973   6.034  11.250  10.095  0.7038 -1.6072 -0.5378
  978MOL0     H31974   6.092  11.333  10.236 -0.5667  0.3333  0.5440
  978MOL0     H31975   6.147  11.543  10.126 -2.7674  1.5597  0.0812
  978MOL0     H31976   6.114  11.470   9.972  2.6649  0.6362  0.1664
  978MOL0     H31977   5.914  11.594  10.016  0.3306  1.0708 -0.3729
  978MOL0     H31978   5.870  11.443  10.082  0.6993  1.2321 -2.8057
  978MOL0     H31979   5.972  11.695  10.244 -0.5873  1.7883 -2.0067
  978MOL0     H31980   5.953  11.539  10.317 -0.9176  1.3116  1.2534
  978MOL0     H31981   5.716  11.718  10.070 -0.0479  1.7902  0.1839
  978MOL0     H31982   5.426  11.844  10.256 -3.1298  0.2991 -0.6479
  978MOL0     H31983   5.459  11.787  10.094 -1.4871  2.1010  1.2107
  978MOL0     H31984   5.362  11.604  10.313  0.2473  0.9060  1.3073
  978MOL0     H31985   5.344  11.575  10.138  0.0830  1.0819 -0.0305
  978MOL0     H31986   5.212  11.789  10.123 -1.0672 -0.6313  0.1085
  978MOL0     H31987   5.196  11.784  10.285 -1.3864  0.6562 -1.1638
  978MOL0     H31988   5.091  11.552  10.286  0.5424 -0.1493 -0.3279
  978MOL0     H31989   5.105  11.551  10.114 -0.8603 -0.6233  1.7309
  978MOL0     H31990   4.935  11.413  10.145  1.4906 -0.3073 -1.3091
  978MOL0     H31991   4.818  11.211  10.153  0.2160  0.2124 -1.4824
  978MOL0     H31992   4.645  11.214  10.160  0.0993  0.4868  1.1119
  978MOL0     H31993   4.717  11.226  10.003  0.1361 -1.2258  0.6295
  978MOL0     H31994   4.165  11.620  10.046  2.1522 -0.1398  0.5914
  978MOL0     H31995   3.932  11.527  10.033 -0.9086 -0.6604  0.2048
  978MOL0     H31996   3.809  11.170  10.270  1.2221  0.2549  0.1012
  978MOL0     H31997   3.686  11.174  10.144  0.2165  0.7714 -2.9483
  978MOL0     H31998   3.864  11.082   9.986 -0.6566  1.7679  0.5857
  978MOL0     H31999   3.947  11.027  10.130 -0.4648 -0.8087  0.6406
  978MOL0     H32000   3.647  10.950  10.045  0.6792 -0.8335 -1.0967
  978MOL0     H32001   3.710  10.923  10.208 -0.0432  3.0610  0.6917
  978MOL0     H32002   3.857  10.807   9.965  1.8578 -0.5436  0.0093
  978MOL0     H32003   3.886  10.757  10.130  1.2175  2.4322 -0.0996
  978MOL0     H32004   3.639  10.683  10.152  0.7304  0.1077  0.8895
  978MOL0     H32005   3.750  10.589  10.062  0.2741  0.3604  0.0229
  978MOL0     H32006   3.571  10.798   9.922  2.3987  0.5521 -1.1361
  978MOL0     H32007   3.685  10.699   9.847  3.2720  2.0945  1.7446
  978MOL0     H32008   3.549  10.484   9.931 -0.9140 -1.4599 -2.1744
  978MOL0     H32009   3.493  10.576   9.803  0.5518  1.3979  0.7789
  978MOL0     H32010   3.411  10.586  10.097 -0.0439 -1.1706 -0.5475
  978MOL0     H32011   3.304  10.521   9.981 -0.4281 -0.5393  3.4404
  978MOL0     H32012   4.045  11.172  10.243 -0.3164  0.9909  0.8843
  978MOL0     H32013   4.294  11.249  10.213  0.6999  1.3460 -1.1322
  978MOL0     H32014   4.521  11.677  10.124  2.2038  2.6735  0.6260
  978MOL0     H32015   4.742  11.803  10.157 -0.0206  0.0037 -2.3339
  978MOL0     H32016   6.653  11.135  10.459  0.1507  3.2241  0.3325
  978MOL0     H32017   6.848  11.195  10.587 -0.0642  1.4533 -0.0872
  978MOL0     H32018   7.163  11.424  10.677 -0.1779  0.2325 -0.3767
  978MOL0     H32019   7.324  11.586  10.768  1.9677 -0.0453  0.8641
  978MOL0     H32020   7.757  11.524  10.672 -1.6831 -0.4957  1.4488
  978MOL0     H32021   7.713  11.657  10.582  1.1486 -0.3034 -0.2293
  978MOL0     H32022   7.762  11.656  10.884  2.1633 -2.7724 -1.3008
  978MOL0     H32023   7.768  11.815  10.793  1.4088  0.4213 -0.5557
  978MOL0     H32024   7.961  11.683  10.675 -1.5429 -0.8149 -0.5025
  978MOL0     H32025   7.988  11.616  10.845 -3.0276 -0.7257  0.4420
  978MOL0     H32026   7.982  11.822  10.939 -1.6440 -0.9256  0.6682
  978MOL0     H32027   7.976  11.916  10.791 -0.5028 -0.8097  0.7847
  978MOL0     H32028   8.356  11.863  10.705  0.9720 -0.5991  1.4272
  978MOL0     H32029   7.647  11.394  10.548 -1.1927  2.2852 -4.4522
  978MOL0     H32030   7.481  11.247  10.441  0.2615  0.1858 -0.7716
  979MOL0     O32031   3.828   8.330   0.583  0.0882 -0.6860  0.2391
  979MOL0     C32032   3.896   8.438   0.585 -0.2252  0.0586 -0.2607
  979MOL0     O32033   3.842   8.560   0.623 -0.0850 -0.9422  0.7782
  979MOL0     C32034   3.709   8.575   0.640  1.1003 -1.0131 -0.3189
  979MOL0     C32035   3.633   8.656   0.555 -1.6487 -0.4233 -0.3921
  979MOL0     C32036   3.493   8.680   0.579  0.3219  0.2198  0.5140
  979MOL0     C32037   3.423   8.626   0.694 -0.0604  0.5499  0.0478
  979MOL0     O32038   3.294   8.655   0.722  0.0327 -0.4729 -0.2131
  979MOL0     C32039   3.214   8.588   0.823 -0.6070  0.2455 -0.0056
  979MOL0     C32040   3.160   8.464   0.777  0.1462 -0.2153 -0.2830
  979MOL0     C32041   3.052   8.475   0.671 -0.4902 -0.2355  0.3051
  979MOL0     C32042   2.932   8.558   0.709  0.3689 -0.6061 -0.6757
  979MOL0     C32043   2.826   8.574   0.600 -0.5218  0.4374 -0.6880
  979MOL0     C32044   2.695   8.627   0.664 -0.0662 -0.3733  0.0598
  979MOL0     C32045   2.599   8.655   0.546  0.2025 -0.1332  0.1816
  979MOL0     C32046   2.460   8.682   0.594 -0.8313 -0.1232  0.4123
  979MOL0     N32047   2.384   8.748   0.488 -0.1291 -0.0927  1.0723
  979MOL0     C32048   2.346   8.696   0.362  0.1926  0.2327 -0.1080
  979MOL0     C32049   2.303   8.803   0.290  0.1854 -0.3958  0.7971
  979MOL0     C32050   2.247   8.767   0.157  0.6104  0.4581 -0.1725
  979MOL0     C32051   2.088   8.752   0.168  0.0602 -0.8468  0.4781
  979MOL0     C32052   2.029   8.774   0.028 -0.3050  0.9048  0.7039
  979MOL0     C32053   1.873   8.759   0.038 -0.4159  0.4596  0.1499
  979MOL0     O32054   1.812   8.853   0.128 -0.1536 -0.7215  0.7820
  979MOL0     C32055   1.683   8.845   0.148  0.2596 -0.3714  0.3130
  979MOL0     C32056   1.583   8.764   0.092 -0.6044 -0.4008  0.5905
  979MOL0     C32057   1.452   8.772   0.132 -0.3532  0.8783  0.9532
  979MOL0     C32058   1.364   8.682   0.052  0.8815  0.2153  0.5254
  979MOL0     C32059   1.411   8.859   0.233  0.2096 -0.1398  0.1014
  979MOL0     C32060   1.272   8.881   0.273  0.0144  0.1372  0.0408
  979MOL0     O32061   1.182   8.777   0.267 -0.6161 -0.0575  0.0327
  979MOL0     C32062   1.066   8.791   0.341 -0.8344  0.6917  0.5361
  979MOL0     C32063   1.070   8.795   0.479 -0.5243 -0.3547  0.0399
  979MOL0     C32064   0.959   8.796   0.557  0.0167  0.4382 -0.1808
  979MOL0     C32065   0.832   8.803   0.495 -1.0914 -0.8951  0.1307
  979MOL0     O32066   0.710   8.794   0.558  0.5067  0.5962 -0.6580
  979MOL0     C32067   0.714   8.775   0.702 -0.6130 -0.3033  0.9854
  979MOL0     C32068   0.581   8.720   0.745 -0.0435  0.6599 -0.9161
  979MOL0     C32069   0.592   8.712   0.900 -0.1311 -0.2017 -0.2045
  979MOL0     C32070   0.456   8.710   0.976 -0.4358 -0.1510 -0.0026
  979MOL0     C32071   0.455   8.673   1.123  0.5932 -0.4268 -0.3579
  979MOL0     C32072   0.326   8.704   1.202 -0.3398  1.0312 -0.7903
  979MOL0     C32073   0.203   8.663   1.123 -0.3849 -0.7196 -1.1318
  979MOL0     C32074   0.091   8.629   1.218  0.4801  0.3473 -0.9993
  979MOL0    Cl32075   0.014   8.761   1.298 -0.3305 -0.0431  0.3996
  979MOL0     C32076   0.825   8.833   0.357 -0.0458  0.7439  0.1931
  979MOL0     C32077   0.941   8.809   0.277 -0.2755 -0.7565  0.8283
  979MOL0     O32078   1.242   8.999   0.305 -0.5595 -0.1365  0.1840
  979MOL0     C32079   1.503   8.942   0.291 -0.1512 -0.1338  0.7401
  979MOL0     C32080   1.639   8.938   0.249 -0.1674 -0.7156  0.5492
  979MOL0     N32081   2.327   8.913   0.365  0.0229 -0.0680 -0.5702
  979MOL0     N32082   2.387   8.885   0.479  0.6658  0.6885  1.3964
  979MOL0     C32083   3.502   8.530   0.767 -0.1361 -0.2635  0.3058
  979MOL0     C32084   3.638   8.501   0.737  0.1268  0.1901 -0.3037
  979MOL0     C32085   4.039   8.428   0.541  0.4660  0.1504  0.3817
  979MOL0     C32086   4.137   8.524   0.566  0.6105 -0.1786 -0.0633
  979MOL0     C32087   4.267   8.496   0.539 -0.3655 -1.1012  0.2279
  979MOL0     C32088   4.307   8.372   0.476 -0.6271 -0.2819 -0.5363
  979MOL0     O32089   4.442   8.352   0.430 -0.0148 -0.3367 -0.0364
  979MOL0     C32090   4.496   8.240   0.360  0.3704  0.1050  0.6952
  979MOL0     C32091   4.525   8.287   0.227 -0.6206  0.1378 -0.3980
  979MOL0     C32092   4.548   8.164   0.135  0.2256  0.3198  0.6591
  979MOL0     C32093   4.566   8.188  -0.012 -1.2616  0.5601 -0.3396
  979MOL0     C32094   4.705   8.248  -0.035  0.5575  0.1372 -0.1599
  979MOL0     C32095   4.809   8.312  -0.042 -0.1467  0.9496 -0.0893
  979MOL0     C32096   4.207   8.288   0.440  0.7470  0.2494  0.3449
  979MOL0     C32097   4.074   8.311   0.472 -0.9010 -0.3504  0.6991
  979MOL0     H32098   3.684   8.713   0.478  0.9214 -1.5895  0.3554
  979MOL0     H32099   3.444   8.752   0.514 -2.1686 -0.0198  1.9893
  979MOL0     H32100   3.281   8.562   0.906  0.3185 -0.4791 -0.9559
  979MOL0     H32101   3.143   8.648   0.880 -1.4286 -0.0184 -0.7404
  979MOL0     H32102   3.243   8.398   0.749 -1.0147 -2.5874  1.5530
  979MOL0     H32103   3.113   8.416   0.863 -0.2195 -0.6115 -0.6940
  979MOL0     H32104   3.079   8.510   0.571 -1.8771  1.3157  0.4427
  979MOL0     H32105   3.011   8.374   0.658 -5.1455  0.9560  3.1068
  979MOL0     H32106   2.886   8.532   0.804  0.1813 -1.4967 -1.0016
  979MOL0     H32107   2.975   8.659   0.713 -0.3787 -0.2966 -0.2097
  979MOL0     H32108   2.858   8.635   0.515  1.9157 -0.8670 -0.8093
  979MOL0     H32109   2.798   8.476   0.560  3.1425 -0.5764 -1.1295
  979MOL0     H32110   2.651   8.552   0.731  0.9257 -2.9746 -1.9898
  979MOL0     H32111   2.711   8.716   0.725  1.5228 -1.3145  1.1362
  979MOL0     H32112   2.636   8.743   0.492  1.3013  0.5158  1.9109
  979MOL0     H32113   2.589   8.566   0.484 -0.8444 -0.7853  1.2187
  979MOL0     H32114   2.476   8.736   0.687  0.0651 -1.1967  0.9027
  979MOL0     H32115   2.410   8.589   0.622 -0.6379  0.0936  1.5061
  979MOL0     H32116   2.348   8.594   0.324  1.7030  0.1441  0.1706
  979MOL0     H32117   2.270   8.853   0.092  0.7164  3.6064  3.6709
  979MOL0     H32118   2.287   8.674   0.116  2.2234  0.4030  1.4148
  979MOL0     H32119   2.061   8.821   0.248  2.9460  0.1369  0.7228
  979MOL0     H32120   2.073   8.649   0.202  3.3516 -2.1820 -1.5438
  979MOL0     H32121   2.058   8.703  -0.051 -0.9237  1.2599  0.1499
  979MOL0     H32122   2.061   8.872  -0.008 -2.6630  0.7276 -2.3166
  979MOL0     H32123   1.859   8.655   0.066  2.4328 -0.9421 -2.9571
  979MOL0     H32124   1.831   8.783  -0.060 -0.1327 -0.1689 -0.1287
  979MOL0     H32125   1.624   8.680   0.037  3.8125  0.6212  1.8911
  979MOL0     H32126   1.426   8.634  -0.024  0.6126  2.3034 -1.1070
  979MOL0     H32127   1.321   8.610   0.123 -2.0573  1.5980  0.3234
  979MOL0     H32128   1.283   8.736   0.001  0.8000 -0.0829  0.3377
  979MOL0     H32129   1.170   8.785   0.521 -0.2699 -5.1926 -1.1516
  979MOL0     H32130   0.965   8.781   0.664 -0.0015 -0.1253 -0.2582
  979MOL0     H32131   0.793   8.700   0.716 -1.5638 -1.2973  1.1205
  979MOL0     H32132   0.736   8.862   0.765  0.3084  0.8317 -0.8333
  979MOL0     H32133   0.489   8.769   0.713 -1.9036 -0.2078  2.5493
  979MOL0     H32134   0.582   8.616   0.710 -0.9565 -0.0973  1.1359
  979MOL0     H32135   0.647   8.795   0.944 -2.2079  1.8348 -1.2801
  979MOL0     H32136   0.649   8.621   0.923 -1.7087 -1.7098 -2.0011
  979MOL0     H32137   0.393   8.799   0.965  0.6393  0.6027 -0.2465
  979MOL0     H32138   0.395   8.636   0.924 -0.8859  0.7960 -0.8706
  979MOL0     H32139   0.546   8.720   1.160 -0.0442  2.3406 -2.0400
  979MOL0     H32140   0.461   8.564   1.132  1.8013 -0.2935  0.8305
  979MOL0     H32141   0.323   8.644   1.293 -0.2546 -2.7192 -3.0443
  979MOL0     H32142   0.324   8.809   1.232  0.3519  0.6385  0.7100
  979MOL0     H32143   0.230   8.571   1.070  0.2599 -0.7669 -0.7394
  979MOL0     H32144   0.182   8.741   1.050  1.8939  1.9669  0.8727
  979MOL0     H32145   0.132   8.571   1.302 -0.5230  0.0674 -0.6752
  979MOL0     H32146   0.015   8.568   1.168  0.2783  0.0847 -0.3879
  979MOL0     H32147   0.736   8.860   0.300 -1.1989  1.0643  2.0844
  979MOL0     H32148   0.938   8.836   0.172  1.3983  0.1132  0.9671
  979MOL0     H32149   1.481   9.020   0.363 -1.8243 -0.0106  0.1482
  979MOL0     H32150   1.702   9.019   0.285 -0.6433  0.2617 -0.7357
  979MOL0     H32151   3.460   8.491   0.859  0.5651  0.4286  0.9383
  979MOL0     H32152   3.698   8.438   0.802 -0.0603  1.5701  1.2711
  979MOL0     H32153   4.113   8.618   0.615  2.4598  2.5982 -3.8935
  979MOL0     H32154   4.345   8.566   0.566 -0.0317 -2.1615  2.2368
  979MOL0     H32155   4.580   8.201   0.419 -0.8747  1.1868  3.3513
  979MOL0     H32156   4.433   8.151   0.360  2.9843 -1.9227 -1.7493
  979MOL0     H32157   4.620   8.340   0.239  0.8883 -2.2828 -0.9131
  979MOL0     H32158   4.443   8.352   0.194  0.3794  1.1353 -0.9842
  979MOL0     H32159   4.459   8.101   0.142 -0.0243  0.1803 -2.4906
  979MOL0     H32160   4.636   8.111   0.173 -0.4815 -1.5759 -0.2145
  979MOL0     H32161   4.488   8.253  -0.052  1.3977  4.5544  0.3099
  979MOL0     H32162   4.555   8.095  -0.068  0.7213  1.4296 -2.3515
  979MOL0     H32163   4.900   8.364  -0.062 -0.5850  0.8977 -2.5816
  979MOL0     H32164   4.230   8.203   0.377 -0.2239  0.6334 -0.5580
  979MOL0     H32165   3.995   8.243   0.443 -3.7465  3.0836 -0.2979
  980MOL0     O32166   7.505   7.055   0.813  0.3633 -0.7601 -0.2379
  980MOL0     C32167   7.524   6.938   0.837  0.6696 -0.1024  0.5447
  980MOL0     O32168   7.424   6.844   0.843  0.3205 -0.5792 -0.3450
  980MOL0     C32169   7.297   6.896   0.818 -0.0257  0.9100  0.3480
  980MOL0     C32170   7.265   6.933   0.683 -0.4488  0.5654 -0.2381
  980MOL0     C32171   7.136   6.967   0.653 -0.1965 -0.3165 -0.9752
  980MOL0     C32172   7.037   6.951   0.748  0.8213  0.3948  0.7736
  980MOL0     O32173   6.905   6.988   0.716 -0.2879 -0.2862 -0.1875
  980MOL0     C32174   6.816   6.878   0.731 -0.1090 -0.1356  0.6489
  980MOL0     C32175   6.676   6.933   0.701 -0.5749  0.5266 -0.7911
  980MOL0     C32176   6.623   7.022   0.815  0.0375  0.2279  0.7067
  980MOL0     C32177   6.525   7.123   0.774 -0.4084  0.6841  0.7331
  980MOL0     C32178   6.486   7.218   0.893  0.0668 -0.4269  0.6889
  980MOL0     C32179   6.370   7.312   0.845 -0.9609  0.5777 -0.7251
  980MOL0     C32180   6.329   7.401   0.955  0.5488  0.2640 -0.2941
  980MOL0     C32181   6.191   7.464   0.930 -0.1027  0.0293 -0.2288
  980MOL0     N32182   6.057   7.390   0.951 -0.1174 -0.4210 -0.2753
  980MOL0     C32183   6.025   7.341   1.076  0.4004 -0.4468  1.3234
  980MOL0     C32184   5.898   7.308   1.054  0.8370 -0.1980 -0.2589
  980MOL0     C32185   5.800   7.260   1.162 -0.0740  0.1348  0.3173
  980MOL0     C32186   5.755   7.119   1.127 -0.3515  0.4326  0.9863
  980MOL0     C32187   5.626   7.084   1.204  0.0808 -0.1259  0.0513
  980MOL0     C32188   5.508   7.054   1.112 -0.6851  0.4790 -0.1262
  980MOL0     O32189   5.400   7.013   1.193 -0.0422  0.3804  0.4831
  980MOL0     C32190   5.272   7.005   1.135  0.1158  0.1514  0.8006
  980MOL0     C32191   5.249   6.975   1.000  0.1294  0.3026  0.1331
  980MOL0     C32192   5.125   6.994   0.937 -0.0142  0.0979  0.1166
  980MOL0     C32193   5.118   6.977   0.785  0.0809  0.0767  0.8669
  980MOL0     C32194   5.011   7.030   1.015  0.2411 -0.0524 -0.0358
  980MOL0     C32195   4.869   7.055   0.971  0.1695 -0.2614 -0.1456
  980MOL0     O32196   4.792   7.137   1.055  0.1476 -0.7244  0.0768
  980MOL0     C32197   4.684   7.182   1.001  0.8036  0.0213  0.2154
  980MOL0     C32198   4.571   7.106   1.032  0.2743 -0.0294  0.5611
  980MOL0     C32199   4.448   7.142   0.984  0.7613  0.3421 -0.1060
  980MOL0     C32200   4.433   7.264   0.921 -0.3700 -0.5147 -0.6844
  980MOL0     O32201   4.313   7.291   0.873  0.4348 -0.4043 -0.9191
  980MOL0     C32202   4.290   7.404   0.794  0.1728  0.2121  0.3511
  980MOL0     C32203   4.145   7.428   0.743 -0.4765 -0.1878 -0.4879
  980MOL0     C32204   4.050   7.441   0.860  0.3934  0.4263  0.0444
  980MOL0     C32205   3.902   7.420   0.816 -0.2239  0.2311  0.3287
  980MOL0     C32206   3.808   7.439   0.943 -0.3094 -0.6034 -0.0015
  980MOL0     C32207   3.830   7.573   1.003 -0.4603 -0.0277  0.1443
  980MOL0     C32208   3.731   7.594   1.117 -0.2117  1.1306 -0.1790
  980MOL0     C32209   3.740   7.739   1.159 -0.1339 -0.1306  0.1760
  980MOL0    Cl32210   3.657   7.842   1.053  0.0218  0.0487  0.1083
  980MOL0     C32211   4.548   7.340   0.884 -0.6016  0.5313 -0.5210
  980MOL0     C32212   4.681   7.295   0.923 -0.3289  0.9853 -0.0414
  980MOL0     O32213   4.835   7.005   0.861 -0.1437 -0.2596 -0.8722
  980MOL0     C32214   5.041   7.052   1.153  0.5441 -0.4465 -0.0422
  980MOL0     C32215   5.167   7.046   1.213 -0.3362  0.3574  0.6916
  980MOL0     N32216   5.859   7.327   0.927  0.4671 -0.2105 -0.6679
  980MOL0     N32217   5.954   7.380   0.865 -0.7515  0.1523  0.0606
  980MOL0     C32218   7.069   6.920   0.876  0.0109  0.7998  0.0843
  980MOL0     C32219   7.203   6.885   0.913  0.0905 -0.6710  0.3464
  980MOL0     C32220   7.661   6.886   0.821 -0.3394  0.1255  0.4241
  980MOL0     C32221   7.688   6.747   0.822 -0.1970 -0.6052 -0.0621
  980MOL0     C32222   7.822   6.698   0.844  0.0370  0.4426  0.4452
  980MOL0     C32223   7.926   6.789   0.858 -0.5111  0.9413 -0.3296
  980MOL0     O32224   8.053   6.742   0.873 -0.0397  0.0687  0.5084
  980MOL0     C32225   8.102   6.652   0.768 -0.2164 -0.5097 -0.6687
  980MOL0     C32226   8.258   6.654   0.761  0.3717  0.1088  0.2121
  980MOL0     C32227   8.329   6.575   0.872 -0.5353  0.0018 -0.1376
  980MOL0     C32228   8.483   6.588   0.870 -0.1175 -0.6026  0.0354
  980MOL0     C32229   8.548   6.484   0.787 -0.5542  0.6232 -0.3051
  980MOL0     C32230   8.610   6.395   0.733 -0.4934 -0.4448 -0.8549
  980MOL0     C32231   7.897   6.927   0.857 -0.4276 -0.3504 -0.4553
  980MOL0     C32232   7.765   6.971   0.847 -0.0317  0.4281  0.1643
  980MOL0     H32233   7.345   6.948   0.611  0.1092  1.3296  0.5186
  980MOL0     H32234   7.115   7.035   0.571 -1.1225  0.1238 -0.3937
  980MOL0     H32235   6.850   6.793   0.671 -0.9813  0.8028 -1.2928
  980MOL0     H32236   6.817   6.840   0.833  0.9550 -0.7049  0.4495
  980MOL0     H32237   6.687   6.984   0.605  1.7117 -0.9670 -1.4131
  980MOL0     H32238   6.618   6.842   0.686 -0.7495  0.6491 -0.8549
  980MOL0     H32239   6.570   6.959   0.887  2.2721  0.2602  2.5015
  980MOL0     H32240   6.704   7.061   0.878  1.3759 -1.9099  0.4328
  980MOL0     H32241   6.574   7.195   0.708 -0.9055 -0.8610 -1.4128
  980MOL0     H32242   6.442   7.065   0.734  1.8007 -2.7384  0.6450
  980MOL0     H32243   6.447   7.157   0.975 -2.7505 -1.7696 -1.4735
  980MOL0     H32244   6.573   7.281   0.914 -0.1505  1.3120 -2.9130
  980MOL0     H32245   6.397   7.367   0.755  2.7684 -1.4764 -1.0579
  980MOL0     H32246   6.283   7.250   0.820 -0.5048 -0.9931  1.2804
  980MOL0     H32247   6.315   7.359   1.055 -1.4681  1.4126 -0.0540
  980MOL0     H32248   6.406   7.477   0.973  0.1495  0.9335 -1.3223
  980MOL0     H32249   6.198   7.502   0.828  0.0974  4.4475  1.2285
  980MOL0     H32250   6.171   7.556   0.986  0.2619 -0.8428  1.4087
  980MOL0     H32251   6.092   7.333   1.161 -0.3032 -1.1428  1.8238
  980MOL0     H32252   5.846   7.260   1.261  0.9239  2.3129 -0.0973
  980MOL0     H32253   5.713   7.326   1.163 -1.8778 -2.0008 -2.1580
  980MOL0     H32254   5.824   7.044   1.166 -1.6901 -0.7219  1.2281
  980MOL0     H32255   5.751   7.094   1.021  1.0844 -2.4510  1.4936
  980MOL0     H32256   5.597   7.147   1.288 -2.2239 -0.8963 -0.0997
  980MOL0     H32257   5.651   6.986   1.246  0.2849 -0.3030 -0.4755
  980MOL0     H32258   5.535   6.974   1.042 -2.4399  0.0268 -0.3413
  980MOL0     H32259   5.494   7.147   1.056 -0.5285 -0.0411 -1.0686
  980MOL0     H32260   5.345   6.964   0.951  0.8944  0.7346  1.4807
  980MOL0     H32261   5.062   7.061   0.743 -3.2215 -1.8517  1.0991
  980MOL0     H32262   5.216   6.963   0.738 -1.2483  1.6996 -2.6487
  980MOL0     H32263   5.066   6.886   0.753  2.7920 -0.3997 -2.8381
  980MOL0     H32264   4.587   7.015   1.088  2.6685 -1.0406 -1.5364
  980MOL0     H32265   4.356   7.088   1.002  1.1637 -0.3443 -0.0784
  980MOL0     H32266   4.315   7.499   0.843 -2.9247  0.8858  0.8819
  980MOL0     H32267   4.351   7.395   0.704  1.1124 -0.4858  1.0431
  980MOL0     H32268   4.141   7.523   0.690  0.9495  1.4839  2.1902
  980MOL0     H32269   4.109   7.352   0.672 -0.9610 -0.7539  0.3500
  980MOL0     H32270   4.068   7.539   0.904 -1.0928  1.4964 -1.6186
  980MOL0     H32271   4.069   7.372   0.943  1.9992  2.9740  1.9598
  980MOL0     H32272   3.878   7.491   0.736 -1.8440 -1.7537 -1.0745
  980MOL0     H32273   3.888   7.316   0.783 -0.1772 -0.2937  1.8959
  980MOL0     H32274   3.829   7.356   1.011 -0.3167  0.0975  0.8722
  980MOL0     H32275   3.703   7.427   0.915 -0.1033 -0.5113 -0.8358
  980MOL0     H32276   3.929   7.590   1.045 -0.8814  3.9450 -0.1676
  980MOL0     H32277   3.811   7.652   0.931 -2.5759 -0.2482  0.3688
  980MOL0     H32278   3.761   7.539   1.207  0.9933 -1.0154 -1.7964
  980MOL0     H32279   3.629   7.572   1.084 -0.8277  1.4057  1.4605
  980MOL0     H32280   3.842   7.776   1.167  0.1872 -0.7051 -1.0022
  980MOL0     H32281   3.681   7.748   1.251 -0.1766 -0.9418  0.2326
  980MOL0     H32282   4.531   7.423   0.817 -0.7406 -0.1531 -1.3517
  980MOL0     H32283   4.768   7.354   0.894 -1.3169  3.3000  1.3327
  980MOL0     H32284   4.959   7.092   1.213  0.7064 -0.7027  0.3557
  980MOL0     H32285   5.181   7.052   1.320  1.0556 -0.7083  0.5928
  980MOL0     H32286   6.989   6.915   0.950 -0.5881 -0.6096 -0.6156
  980MOL0     H32287   7.225   6.854   1.015 -1.4504  0.7704  1.1847
  980MOL0     H32288   7.606   6.677   0.809  1.9965 -2.8091 -3.7446
  980MOL0     H32289   7.850   6.593   0.846  3.3370  1.2052 -0.5177
  980MOL0     H32290   8.087   6.546   0.790  0.8535 -0.1018  2.5631
  980MOL0     H32291   8.069   6.677   0.666 -1.2300 -0.4098 -0.3276
  980MOL0     H32292   8.295   6.757   0.769  0.6671 -0.0854  1.7317
  980MOL0     H32293   8.298   6.618   0.666  0.1912  4.6723 -1.8388
  980MOL0     H32294   8.311   6.467   0.872  0.2931 -0.1392 -0.2970
  980MOL0     H32295   8.295   6.606   0.971  1.4078  0.9079  0.3006
  980MOL0     H32296   8.520   6.582   0.972 -1.0194 -0.6945  0.3655
  980MOL0     H32297   8.502   6.690   0.837 -3.2096  0.3320  0.7792
  980MOL0     H32298   8.660   6.321   0.673  0.0661 -1.7994  1.1877
  980MOL0     H32299   7.969   7.001   0.891 -1.4656  0.3417  0.3054
  980MOL0     H32300   7.754   7.079   0.854 -2.8873  0.2147  0.3726
  981MOL0     O32301   8.191   7.077   4.062  0.6421 -0.4346 -0.2860
  981MOL0     C32302   8.173   7.155   4.157  0.7288 -0.9173  0.2030
  981MOL0     O32303   8.052   7.209   4.186 -0.0104 -0.6902  0.6016
  981MOL0     C32304   7.932   7.159   4.137  1.0601 -0.2300  0.1191
  981MOL0     C32305   7.816   7.235   4.145  0.1277  0.7329  0.4405
  981MOL0     C32306   7.683   7.180   4.126 -0.0342 -0.2685 -0.4907
  981MOL0     C32307   7.675   7.047   4.087  0.6866  0.3426  0.4681
  981MOL0     O32308   7.542   6.993   4.087  0.5807 -0.1716  0.1324
  981MOL0     C32309   7.531   6.841   4.103  0.0426 -0.8647 -0.5310
  981MOL0     C32310   7.511   6.772   3.968  0.4637  0.1882 -0.6226
  981MOL0     C32311   7.562   6.625   3.958 -0.5936 -0.4421  0.0855
  981MOL0     C32312   7.573   6.580   3.813  0.4288  0.1902 -0.0220
  981MOL0     C32313   7.433   6.578   3.739  0.2125 -0.2913  0.0098
  981MOL0     C32314   7.434   6.505   3.606 -0.5526  0.1592  0.5221
  981MOL0     C32315   7.294   6.478   3.556  0.0712  0.3180  0.0416
  981MOL0     C32316   7.190   6.591   3.544 -0.4091  1.0615 -0.1320
  981MOL0     N32317   7.057   6.548   3.501 -0.3287  0.3772  0.6085
  981MOL0     C32318   7.007   6.576   3.373 -0.1152 -0.3402 -0.5984
  981MOL0     C32319   6.908   6.490   3.355  0.4172 -0.0670  0.0548
  981MOL0     C32320   6.825   6.471   3.228 -0.3817 -0.4000 -0.8187
  981MOL0     C32321   6.712   6.572   3.219 -0.7339 -0.9184  0.7855
  981MOL0     C32322   6.591   6.513   3.298  0.0962 -0.6743  0.6123
  981MOL0     C32323   6.467   6.598   3.286  0.1609  0.0631 -0.1725
  981MOL0     O32324   6.368   6.552   3.380  0.4524  0.2472  0.2547
  981MOL0     C32325   6.235   6.592   3.366 -0.1549 -0.5875  0.4826
  981MOL0     C32326   6.130   6.537   3.433 -0.2972 -0.3438 -0.0538
  981MOL0     C32327   5.997   6.581   3.428 -0.4131  0.5872 -0.1916
  981MOL0     C32328   5.903   6.514   3.521  0.2496  0.0114  0.4413
  981MOL0     C32329   5.968   6.687   3.339 -0.2277  0.0200  0.1825
  981MOL0     C32330   5.835   6.753   3.328  0.5379 -0.2039 -0.1406
  981MOL0     O32331   5.762   6.768   3.446 -0.9008 -0.3066  0.2215
  981MOL0     C32332   5.628   6.820   3.450 -0.2435  0.4065 -0.4657
  981MOL0     C32333   5.537   6.818   3.345 -0.1154 -0.1777 -0.9481
  981MOL0     C32334   5.415   6.881   3.366  0.1715  0.4012  0.6122
  981MOL0     C32335   5.377   6.945   3.485  0.9776 -0.4147  0.0096
  981MOL0     O32336   5.257   7.006   3.498  0.7650 -0.2390  0.6695
  981MOL0     C32337   5.233   7.106   3.605 -0.1413  0.3852  0.5082
  981MOL0     C32338   5.113   7.206   3.574 -0.0377 -0.1666 -0.0248
  981MOL0     C32339   4.971   7.147   3.574 -0.7386 -0.4934 -0.3530
  981MOL0     C32340   4.933   7.114   3.719  0.4690  0.2534 -0.5927
  981MOL0     C32341   4.846   6.989   3.734  0.5648 -0.8332  0.6506
  981MOL0     C32342   4.720   7.001   3.647  0.2815  0.6358  0.0417
  981MOL0     C32343   4.607   7.099   3.694  0.0996 -1.0524 -0.2912
  981MOL0     C32344   4.471   7.093   3.625  0.1037  0.0238  0.1182
  981MOL0    Cl32345   4.396   6.957   3.703  0.2340  0.4272 -0.5590
  981MOL0     C32346   5.465   6.945   3.584 -0.7769  0.3880  0.0264
  981MOL0     C32347   5.591   6.877   3.568  0.2009 -0.8053  0.1633
  981MOL0     O32348   5.803   6.793   3.217  0.0701  0.0997 -0.3235
  981MOL0     C32349   6.079   6.742   3.261 -0.8845 -0.1407 -0.9485
  981MOL0     C32350   6.207   6.692   3.279  0.0452 -0.5698 -0.0941
  981MOL0     N32351   6.897   6.404   3.462 -0.3223  0.1902 -0.2235
  981MOL0     N32352   6.991   6.435   3.537 -0.1451  0.0267 -0.6751
  981MOL0     C32353   7.784   6.970   4.060  0.0391  0.4009 -0.1714
  981MOL0     C32354   7.913   7.026   4.090 -0.1444 -0.6453  0.4068
  981MOL0     C32355   8.300   7.212   4.216  0.1052 -0.2064  0.4033
  981MOL0     C32356   8.428   7.179   4.167  0.2309  0.8390  0.1998
  981MOL0     C32357   8.543   7.239   4.228  0.5634  0.6603 -0.0111
  981MOL0     C32358   8.532   7.335   4.327 -1.0145  0.3524 -0.2281
  981MOL0     O32359   8.651   7.386   4.370  0.7820 -0.3079  0.0280
  981MOL0     C32360   8.658   7.447   4.505 -0.1417 -0.0229 -0.8764
  981MOL0     C32361   8.713   7.340   4.597  0.2144  0.4441 -0.6161
  981MOL0     C32362   8.695   7.374   4.744 -0.8876  0.2013 -0.4526
  981MOL0     C32363   8.770   7.276   4.844  0.4871 -0.7118  0.3742
  981MOL0     C32364   8.777   7.332   4.980 -0.6463 -0.0777 -0.8320
  981MOL0     C32365   8.805   7.368   5.096  0.7295 -0.5009  0.7993
  981MOL0     C32366   8.402   7.364   4.378 -0.7877  0.0318  0.3017
  981MOL0     C32367   8.289   7.307   4.316 -0.2777 -0.0793  0.5510
  981MOL0     H32368   7.827   7.341   4.164  0.2638  0.9909 -0.9894
  981MOL0     H32369   7.592   7.239   4.135  1.4081  2.3006 -1.8220
  981MOL0     H32370   7.618   6.801   4.156  0.4629  0.1580 -0.4280
  981MOL0     H32371   7.445   6.835   4.170  1.4487  0.2322  1.4750
  981MOL0     H32372   7.403   6.776   3.948  0.2277  0.7984  0.5973
  981MOL0     H32373   7.568   6.829   3.895  1.3893  1.5930  1.1157
  981MOL0     H32374   7.663   6.614   3.999 -0.0280 -0.0907 -1.1672
  981MOL0     H32375   7.492   6.558   4.009 -0.3387 -1.0610 -0.3652
  981MOL0     H32376   7.645   6.639   3.756  1.2303 -1.6006 -0.9221
  981MOL0     H32377   7.610   6.477   3.813  1.7692  0.6453 -0.6853
  981MOL0     H32378   7.364   6.535   3.813  1.0125  1.3334  1.7616
  981MOL0     H32379   7.408   6.682   3.718  0.6258  0.4176  2.6622
  981MOL0     H32380   7.473   6.578   3.535 -1.2406  2.6390  2.5261
  981MOL0     H32381   7.496   6.415   3.601 -1.2257 -0.2600 -0.5987
  981MOL0     H32382   7.290   6.420   3.464 -1.4822 -0.9182  0.8315
  981MOL0     H32383   7.251   6.403   3.623 -4.1607  1.8458 -0.6752
  981MOL0     H32384   7.232   6.671   3.483  1.9728  1.0297  1.3411
  981MOL0     H32385   7.186   6.624   3.648  1.1411 -1.4473  0.8349
  981MOL0     H32386   7.041   6.646   3.296 -2.3697 -0.8644 -2.1464
  981MOL0     H32387   6.883   6.479   3.135 -2.5800 -4.3792 -2.8199
  981MOL0     H32388   6.785   6.369   3.227 -1.4707 -0.0266  0.8199
  981MOL0     H32389   6.685   6.580   3.113 -1.6112 -0.4737  1.0361
  981MOL0     H32390   6.748   6.674   3.239  0.8431 -1.2035 -0.3844
  981MOL0     H32391   6.619   6.495   3.402  0.3013 -1.8858  0.3611
  981MOL0     H32392   6.554   6.417   3.263 -1.2858 -0.8149  2.3048
  981MOL0     H32393   6.439   6.582   3.182  0.1369  2.4310 -0.5895
  981MOL0     H32394   6.470   6.707   3.298  0.8963  0.4406 -3.0393
  981MOL0     H32395   6.154   6.464   3.509 -1.4597 -0.7864 -0.0907
  981MOL0     H32396   5.956   6.427   3.561  0.6058 -0.9245 -1.9011
  981MOL0     H32397   5.860   6.580   3.598 -3.9964 -2.2274  0.3062
  981MOL0     H32398   5.820   6.465   3.468 -0.2967 -0.0989  1.3520
  981MOL0     H32399   5.570   6.774   3.252  1.4943  1.3994 -1.1872
  981MOL0     H32400   5.357   6.871   3.274  1.2064  0.3948 -0.0656
  981MOL0     H32401   5.226   7.055   3.702 -0.6517 -1.2858 -0.3599
  981MOL0     H32402   5.323   7.168   3.608  0.9839 -0.8996 -2.3884
  981MOL0     H32403   5.118   7.282   3.652 -0.0903  2.2285 -2.1959
  981MOL0     H32404   5.129   7.257   3.478 -2.0266  0.6704  0.0269
  981MOL0     H32405   4.963   7.058   3.511 -0.7661 -1.4987  1.0269
  981MOL0     H32406   4.905   7.222   3.527  0.4577 -0.2614 -1.7263
  981MOL0     H32407   5.021   7.093   3.780  1.9019 -0.8714 -2.9193
  981MOL0     H32408   4.877   7.196   3.765 -3.2316 -2.2136 -0.2659
  981MOL0     H32409   4.820   6.975   3.839 -2.6576 -0.0659  0.0565
  981MOL0     H32410   4.900   6.900   3.699  0.5353 -0.1387 -1.3014
  981MOL0     H32411   4.751   7.018   3.544  2.5254  4.9593  1.1860
  981MOL0     H32412   4.669   6.904   3.656 -1.5720  1.3744 -1.6815
  981MOL0     H32413   4.650   7.197   3.673 -1.3407 -0.2696  0.2869
  981MOL0     H32414   4.597   7.101   3.803 -2.8678 -0.0422 -0.4932
  981MOL0     H32415   4.481   7.064   3.520  2.6928 -3.0494  1.0677
  981MOL0     H32416   4.404   7.179   3.623  0.9652  0.7629 -3.3268
  981MOL0     H32417   5.440   6.985   3.682 -1.3566  0.9209 -0.3309
  981MOL0     H32418   5.654   6.873   3.657 -0.4257 -1.4426  0.5919
  981MOL0     H32419   6.062   6.822   3.190 -2.0072  3.0633  2.5699
  981MOL0     H32420   6.284   6.717   3.207 -1.2681 -2.3383 -2.2573
  981MOL0     H32421   7.777   6.870   4.019  1.7611  0.3564 -0.4271
  981MOL0     H32422   7.997   6.958   4.079  0.3543  0.2734 -1.8590
  981MOL0     H32423   8.437   7.099   4.095 -1.8748  0.2573  0.5122
  981MOL0     H32424   8.641   7.207   4.195 -0.4627  0.5326 -3.2540
  981MOL0     H32425   8.726   7.532   4.511  0.2367 -0.2866 -1.3619
  981MOL0     H32426   8.559   7.481   4.537 -0.1972 -1.6912  0.9224
  981MOL0     H32427   8.818   7.317   4.578  0.6873  0.4419  1.6758
  981MOL0     H32428   8.649   7.252   4.586 -1.3606  1.3859  0.4745
  981MOL0     H32429   8.589   7.372   4.772 -0.4712 -0.8403  1.1963
  981MOL0     H32430   8.740   7.472   4.763  0.6894 -0.4132 -0.8914
  981MOL0     H32431   8.873   7.257   4.811  0.1451 -2.4041  0.1808
  981MOL0     H32432   8.735   7.172   4.839  2.3977 -1.4321  1.1867
  981MOL0     H32433   8.820   7.378   5.201  1.2108  1.5220  0.5782
  981MOL0     H32434   8.374   7.431   4.459  0.3959 -2.0905  2.5781
  981MOL0     H32435   8.189   7.341   4.342 -0.1271  2.6720 -1.9668
  982MOL0     O32436   9.958   6.177   9.997  0.6445  0.0068 -0.4130
  982MOL0     C32437   9.980   6.136   9.888 -0.2023  0.2490  0.3582
  982MOL0     O32438   9.900   6.156   9.779  0.4566 -0.0269 -0.6333
  982MOL0     C32439   9.773   6.212   9.786 -0.4553  0.8654  0.8218
  982MOL0     C32440   9.661   6.138   9.768 -1.1840 -0.0710 -0.0208
  982MOL0     C32441   9.532   6.183   9.794  0.0937  0.3090 -0.3022
  982MOL0     C32442   9.514   6.316   9.830  0.5941  0.2404  0.9819
  982MOL0     O32443   9.395   6.379   9.831  0.0301 -0.3600  0.4417
  982MOL0     C32444   9.277   6.305   9.857  0.2157 -0.0824  0.0344
  982MOL0     C32445   9.156   6.399   9.827  0.8195 -0.0578  0.2463
  982MOL0     C32446   9.032   6.333   9.882 -0.5979  0.0259 -0.3139
  982MOL0     C32447   8.917   6.433   9.877 -0.1577 -0.1098 -0.6907
  982MOL0     C32448   8.792   6.364   9.890  0.8257  0.3714  0.5859
  982MOL0     C32449   8.734   6.319   9.756  0.6756  0.4233  0.8887
  982MOL0     C32450   8.588   6.265   9.782  0.4165 -0.0328  0.1936
  982MOL0     C32451   8.514   6.196   9.658 -0.5633 -0.3251 -0.1096
  982MOL0     N32452   8.580   6.073   9.605  0.5934  0.1641  0.3950
  982MOL0     C32453   8.556   5.941   9.628  0.3072  0.4342 -0.5957
  982MOL0     C32454   8.649   5.877   9.553 -0.1843  0.3715 -0.7221
  982MOL0     C32455   8.660   5.724   9.549  0.1159  0.2350  0.2750
  982MOL0     C32456   8.525   5.651   9.543 -0.0761  0.0464 -0.0407
  982MOL0     C32457   8.460   5.684   9.412 -0.2584  0.0114  0.2246
  982MOL0     C32458   8.330   5.599   9.384  0.8380 -0.6820 -0.6136
  982MOL0     O32459   8.219   5.638   9.469 -0.2928 -0.0387 -0.3351
  982MOL0     C32460   8.096   5.574   9.456  0.8016 -0.1124 -0.2097
  982MOL0     C32461   8.055   5.485   9.350  0.0973 -0.3395 -0.3322
  982MOL0     C32462   7.928   5.436   9.334 -1.2692  1.1393  0.2815
  982MOL0     C32463   7.901   5.335   9.226  0.1813 -0.3901 -0.4645
  982MOL0     C32464   7.837   5.483   9.431  0.4894  0.0904 -0.3835
  982MOL0     C32465   7.697   5.431   9.432  0.4239 -0.9979  0.2533
  982MOL0     O32466   7.636   5.394   9.317  0.0124  0.1125 -0.0060
  982MOL0     C32467   7.506   5.352   9.294  0.6479 -0.2791 -0.0849
  982MOL0     C32468   7.478   5.267   9.193 -0.1717  0.1607  0.2733
  982MOL0     C32469   7.351   5.213   9.173  0.2166 -0.0795  0.3312
  982MOL0     C32470   7.242   5.247   9.261 -0.1467  0.0946  0.2966
  982MOL0     O32471   7.115   5.195   9.256 -0.6794 -0.1477 -0.0199
  982MOL0     C32472   7.086   5.104   9.157  0.8985 -0.2664  0.9623
  982MOL0     C32473   6.937   5.097   9.142  0.0960  0.1234  0.1359
  982MOL0     C32474   6.858   5.236   9.151 -0.5181  0.1651 -0.0869
  982MOL0     C32475   6.711   5.218   9.167 -0.4094 -0.6945 -0.5992
  982MOL0     C32476   6.641   5.354   9.185 -0.5972 -0.8035 -0.4491
  982MOL0     C32477   6.484   5.339   9.194  0.0261  0.5962 -0.1213
  982MOL0     C32478   6.400   5.480   9.193 -0.2154 -0.1051  0.6681
  982MOL0     C32479   6.263   5.452   9.156  0.9645 -0.3125 -1.0046
  982MOL0    Cl32480   6.183   5.374   9.301  0.1333 -0.0520  0.1080
  982MOL0     C32481   7.274   5.337   9.356  0.6686 -0.0330 -0.7727
  982MOL0     C32482   7.403   5.378   9.379 -0.6926 -0.9979 -0.1302
  982MOL0     O32483   7.638   5.434   9.543 -0.7078 -0.7933 -0.0746
  982MOL0     C32484   7.876   5.559   9.543 -0.1848  0.0058 -0.3415
  982MOL0     C32485   8.001   5.604   9.555  0.3384 -0.2709  0.5388
  982MOL0     N32486   8.731   5.968   9.492  0.3312 -1.3663 -0.3743
  982MOL0     N32487   8.685   6.088   9.523 -1.0281 -0.6173 -1.3293
  982MOL0     C32488   9.628   6.391   9.854  0.5341  0.3590 -0.0162
  982MOL0     C32489   9.751   6.337   9.838 -0.4230 -1.3117  0.2501
  982MOL0     C32490  10.100   6.046   9.870  0.0385  0.7712 -0.6195
  982MOL0     C32491  10.082   5.944   9.773  0.2697 -0.1165 -0.9686
  982MOL0     C32492  10.190   5.859   9.749 -0.3634  0.5385 -0.0771
  982MOL0     C32493  10.314   5.868   9.825  0.0507  0.0711  0.3043
  982MOL0     O32494  10.409   5.779   9.783 -0.5906  0.0995  0.2775
  982MOL0     C32495  10.547   5.804   9.820  0.0701  0.4993  0.3740
  982MOL0     C32496  10.576   5.787   9.970 -0.4508  0.3012  0.0838
  982MOL0     C32497  10.693   5.680   9.988 -0.3477 -0.2575 -0.4722
  982MOL0     C32498  10.713   5.672  10.137  0.1026 -0.0450 -0.1600
  982MOL0     C32499  10.792   5.556  10.162 -0.3075 -0.1626  0.3934
  982MOL0     C32500  10.862   5.462  10.192  0.2238  0.3997  0.5393
  982MOL0     C32501  10.328   5.972   9.921 -0.5846  0.4099 -0.1504
  982MOL0     C32502  10.223   6.055   9.944  0.8286 -0.3549  0.2649
  982MOL0     H32503   9.670   6.034   9.740 -2.9144 -0.6460  1.3399
  982MOL0     H32504   9.448   6.116   9.786 -0.1787  0.1773  2.6587
  982MOL0     H32505   9.276   6.215   9.795 -5.2978  0.0345 -0.5388
  982MOL0     H32506   9.281   6.278   9.963  1.2202 -3.1323 -0.6901
  982MOL0     H32507   9.162   6.496   9.878 -2.0980  1.0008 -1.1593
  982MOL0     H32508   9.143   6.408   9.719 -1.9176 -0.5525  0.4455
  982MOL0     H32509   8.998   6.254   9.814  0.3604 -0.1758 -0.5649
  982MOL0     H32510   9.041   6.292   9.983 -0.9074  0.9110  0.0806
  982MOL0     H32511   8.932   6.515   9.948 -0.5352 -0.3079 -0.3779
  982MOL0     H32512   8.920   6.485   9.781  0.8687 -4.0677 -3.0323
  982MOL0     H32513   8.786   6.279   9.959 -2.5643 -0.2366 -0.2519
  982MOL0     H32514   8.727   6.443   9.930 -0.3163 -0.6378  0.7941
  982MOL0     H32515   8.719   6.416   9.707 -0.1623  0.1103  0.5077
  982MOL0     H32516   8.800   6.251   9.701  0.6348  1.3195 -0.3046
  982MOL0     H32517   8.591   6.183   9.854  0.2918  0.2329  0.5038
  982MOL0     H32518   8.533   6.346   9.831  0.6527  0.5969 -0.5487
  982MOL0     H32519   8.501   6.266   9.575  1.3852  0.9451  0.5751
  982MOL0     H32520   8.416   6.165   9.697 -0.6352 -1.6312 -1.2503
  982MOL0     H32521   8.487   5.897   9.698 -0.8687  0.6787 -1.5771
  982MOL0     H32522   8.711   5.703   9.455  0.3419  0.9359  0.2402
  982MOL0     H32523   8.709   5.693   9.642  0.0674  1.3755  0.6910
  982MOL0     H32524   8.456   5.693   9.616 -0.1552 -0.6040  0.2695
  982MOL0     H32525   8.530   5.542   9.555 -2.2689 -0.2339 -1.1167
  982MOL0     H32526   8.534   5.664   9.333 -0.3378 -1.8257  0.5818
  982MOL0     H32527   8.432   5.789   9.403 -2.9127 -0.3776  2.7243
  982MOL0     H32528   8.347   5.492   9.398  0.5400 -1.0632 -2.8779
  982MOL0     H32529   8.299   5.610   9.280  0.6812 -0.7778 -0.5772
  982MOL0     H32530   8.137   5.451   9.288  2.8718 -0.1909  2.9939
  982MOL0     H32531   7.839   5.259   9.273 -1.5671  0.7434 -0.8582
  982MOL0     H32532   7.838   5.374   9.146  1.4920  1.2716 -0.7294
  982MOL0     H32533   7.995   5.286   9.197  2.1039  2.2803  0.8292
  982MOL0     H32534   7.560   5.229   9.132  0.1378  0.2085  0.6564
  982MOL0     H32535   7.333   5.142   9.093  1.4333 -1.0094  0.8696
  982MOL0     H32536   7.125   5.137   9.060 -3.2448 -1.0927 -1.1889
  982MOL0     H32537   7.120   5.004   9.185 -0.7771 -0.2596  3.2607
  982MOL0     H32538   6.915   5.057   9.043 -0.4826  1.7985 -0.4570
  982MOL0     H32539   6.895   5.021   9.208  1.1921 -0.9001 -0.3203
  982MOL0     H32540   6.885   5.286   9.058  0.4297 -1.8729 -0.9803
  982MOL0     H32541   6.889   5.298   9.235  0.5953 -0.2841 -0.1579
  982MOL0     H32542   6.668   5.157   9.087  1.0099 -0.5045 -1.5459
  982MOL0     H32543   6.690   5.161   9.258 -2.6903 -0.3040 -0.8212
  982MOL0     H32544   6.686   5.421   9.110 -0.3146  0.7711  1.0640
  982MOL0     H32545   6.672   5.414   9.271  1.5222 -2.3057 -0.0798
  982MOL0     H32546   6.459   5.278   9.107  0.0270  1.7423 -0.9399
  982MOL0     H32547   6.453   5.286   9.285 -0.3972  1.3817  0.2040
  982MOL0     H32548   6.436   5.525   9.100  0.1092 -2.2753 -0.3235
  982MOL0     H32549   6.415   5.533   9.288  2.4962  0.0409  0.2344
  982MOL0     H32550   6.255   5.389   9.067 -0.0530 -1.3727 -0.1895
  982MOL0     H32551   6.198   5.538   9.141 -1.1299 -1.7385 -0.4586
  982MOL0     H32552   7.196   5.371   9.423  0.7874  1.0757 -1.1651
  982MOL0     H32553   7.418   5.448   9.460  0.6298  0.1156 -1.2799
  982MOL0     H32554   7.797   5.595   9.608 -0.2784  0.5387 -0.7456
  982MOL0     H32555   8.031   5.674   9.632  1.3082 -0.3838  0.2804
  982MOL0     H32556   9.621   6.499   9.869 -0.5369  0.5533 -1.6439
  982MOL0     H32557   9.837   6.391   9.878  0.0991 -2.0854  0.2055
  982MOL0     H32558   9.984   5.941   9.725 -0.2185  1.2990 -0.1163
  982MOL0     H32559  10.190   5.779   9.675  1.8211  0.8062 -0.4238
  982MOL0     H32560  10.609   5.731   9.767 -0.1514  0.5575  0.0285
  982MOL0     H32561  10.587   5.904   9.798  2.0970 -0.4838 -0.6861
  982MOL0     H32562  10.491   5.747  10.026 -1.5986  1.0854 -1.0629
  982MOL0     H32563  10.602   5.887  10.006  3.4434 -0.2349 -0.7908
  982MOL0     H32564  10.789   5.708   9.944 -0.1828 -1.0835 -0.6585
  982MOL0     H32565  10.660   5.582   9.953 -1.0900  0.5966 -2.2355
  982MOL0     H32566  10.619   5.661  10.191  0.1198  3.0240  0.6439
  982MOL0     H32567  10.763   5.752  10.192  1.4957 -2.2811  2.1062
  982MOL0     H32568  10.914   5.371  10.211  0.6318  0.6607  0.6717
  982MOL0     H32569  10.419   6.009   9.967 -0.2419 -0.4777 -0.1180
  982MOL0     H32570  10.245   6.135  10.014 -0.9013 -2.0254  2.9111
  983MOL0     O32571   3.887   6.197   4.242 -0.3505 -0.3293 -0.5321
  983MOL0     C32572   3.970   6.119   4.198 -0.4850  0.5602  0.1701
  983MOL0     O32573   3.938   5.990   4.170  0.2169 -0.4408 -0.1763
  983MOL0     C32574   3.809   5.941   4.164 -0.6132 -0.6351 -1.3278
  983MOL0     C32575   3.692   6.012   4.175  0.6522  0.2688  0.1353
  983MOL0     C32576   3.566   5.949   4.160 -0.7781  0.2759  0.2938
  983MOL0     C32577   3.565   5.812   4.136 -0.4699 -0.9356  1.0961
  983MOL0     O32578   3.446   5.749   4.124  0.4435  0.0943  0.1133
  983MOL0     C32579   3.416   5.634   4.035  1.0556  0.4997 -0.0476
  983MOL0     C32580   3.257   5.616   4.041 -0.6156  0.5896  0.4249
  983MOL0     C32581   3.169   5.735   3.998 -0.3667 -0.4464  0.3156
  983MOL0     C32582   3.152   5.829   4.120 -0.0085 -0.5699 -0.7371
  983MOL0     C32583   3.084   5.966   4.085  0.0507 -0.1689 -0.2963
  983MOL0     C32584   3.108   6.070   4.194 -0.5242  0.9574  1.0875
  983MOL0     C32585   3.079   6.217   4.145 -0.1383 -0.4054  0.5450
  983MOL0     C32586   3.148   6.274   4.026 -1.1679 -0.0702  0.3344
  983MOL0     N32587   3.136   6.417   4.011 -0.9013 -0.0339 -0.2564
  983MOL0     C32588   3.037   6.479   3.944  0.3331  0.7886  0.2679
  983MOL0     C32589   3.034   6.617   3.977 -0.8141  0.2743  0.0475
  983MOL0     C32590   2.934   6.720   3.937 -0.2751  0.1982 -1.2091
  983MOL0     C32591   2.959   6.800   3.807 -0.7078  0.2620  0.3906
  983MOL0     C32592   2.903   6.727   3.680  0.2201 -0.5967 -0.2122
  983MOL0     C32593   2.753   6.749   3.651 -0.1368  0.8888  0.1105
  983MOL0     O32594   2.674   6.685   3.759 -0.5132  0.7143 -0.1578
  983MOL0     C32595   2.553   6.734   3.780  0.4515 -0.3739 -0.1991
  983MOL0     C32596   2.510   6.743   3.913 -0.0994 -0.8393 -0.4079
  983MOL0     C32597   2.376   6.786   3.949  0.1219  0.8191  1.2030
  983MOL0     C32598   2.342   6.787   4.098  0.3805  0.3048  0.6855
  983MOL0     C32599   2.281   6.811   3.842  0.4792  0.3839 -0.0832
  983MOL0     C32600   2.135   6.848   3.863 -0.1430  0.0719 -0.8361
  983MOL0     O32601   2.049   6.805   3.767 -0.3460 -0.9453  0.3729
  983MOL0     C32602   1.925   6.869   3.762 -0.2902 -0.3880 -0.9717
  983MOL0     C32603   1.911   7.009   3.759  0.6587 -0.4504  0.1347
  983MOL0     C32604   1.782   7.071   3.750  0.3422 -0.2891  0.2370
  983MOL0     C32605   1.670   6.998   3.724  0.4805  0.1725  0.3526
  983MOL0     O32606   1.554   7.070   3.694 -0.2608 -0.2101  0.4551
  983MOL0     C32607   1.432   6.997   3.686 -0.3154  0.7564  0.8867
  983MOL0     C32608   1.301   7.069   3.661  0.8534 -0.5889 -0.2291
  983MOL0     C32609   1.294   7.123   3.519  0.2831 -1.3105  0.7045
  983MOL0     C32610   1.171   7.214   3.494  0.0912 -0.6152  0.4805
  983MOL0     C32611   1.045   7.137   3.521 -1.1491  0.2911 -0.1630
  983MOL0     C32612   0.914   7.200   3.462 -0.7073 -0.0848  0.1154
  983MOL0     C32613   0.893   7.352   3.502  0.3604  0.5467 -0.2467
  983MOL0     C32614   0.869   7.378   3.651  0.0317  0.1836 -0.0205
  983MOL0    Cl32615   0.727   7.288   3.706 -0.2732  0.0448  0.0857
  983MOL0     C32616   1.680   6.855   3.725  0.3158 -1.0447 -0.0802
  983MOL0     C32617   1.804   6.797   3.749  0.2678 -0.0685  0.6191
  983MOL0     O32618   2.102   6.916   3.958  0.8289  0.6414  0.3924
  983MOL0     C32619   2.329   6.798   3.709  0.7293  0.4588 -0.3714
  983MOL0     C32620   2.457   6.757   3.678  0.3910 -0.3756  0.4502
  983MOL0     N32621   3.147   6.634   4.059  0.4399 -0.1414  0.0518
  983MOL0     N32622   3.207   6.518   4.072  0.5472 -0.7055  0.0357
  983MOL0     C32623   3.680   5.740   4.133 -1.1986 -0.3167 -0.5794
  983MOL0     C32624   3.800   5.804   4.140  0.0144 -0.4026 -0.2431
  983MOL0     C32625   4.116   6.155   4.200 -0.1806  0.4437 -0.7738
  983MOL0     C32626   4.215   6.058   4.167 -0.1222 -0.3515  0.2551
  983MOL0     C32627   4.355   6.095   4.151 -0.9888 -0.6723  0.0459
  983MOL0     C32628   4.397   6.225   4.170 -0.2111  0.0153  0.4706
  983MOL0     O32629   4.534   6.249   4.171 -0.4314  0.5867  0.5194
  983MOL0     C32630   4.587   6.382   4.181  0.1049  0.2015  0.1493
  983MOL0     C32631   4.585   6.442   4.329  0.1801  0.4632  0.8712
  983MOL0     C32632   4.696   6.385   4.411 -0.0304  0.1073 -0.4400
  983MOL0     C32633   4.691   6.449   4.548  0.7328  0.3703 -0.0436
  983MOL0     C32634   4.571   6.418   4.623 -0.7311 -0.2819 -0.4166
  983MOL0     C32635   4.478   6.414   4.701 -0.3417 -0.0342 -0.1311
  983MOL0     C32636   4.309   6.323   4.200 -0.3879  0.7594 -0.1577
  983MOL0     C32637   4.171   6.287   4.220  0.2135  0.2005 -0.3255
  983MOL0     H32638   3.682   6.120   4.187  0.3519  0.4178 -1.2720
  983MOL0     H32639   3.475   6.007   4.168  1.8273  4.4909  3.8910
  983MOL0     H32640   3.453   5.652   3.934 -0.3455 -0.9378 -0.8556
  983MOL0     H32641   3.458   5.538   4.067  0.3713 -0.0138 -0.6613
  983MOL0     H32642   3.223   5.536   3.975 -0.7205  0.8790  0.1284
  983MOL0     H32643   3.226   5.575   4.138 -3.8623 -0.8617 -1.0645
  983MOL0     H32644   3.212   5.779   3.908  2.1900 -0.2755  1.5476
  983MOL0     H32645   3.073   5.689   3.971  0.6396 -1.3028 -2.0496
  983MOL0     H32646   3.082   5.770   4.181  1.9549 -1.8025  0.4257
  983MOL0     H32647   3.240   5.849   4.182 -1.0397 -0.6876  0.8533
  983MOL0     H32648   3.141   5.991   3.995 -1.0141  2.1401 -0.3933
  983MOL0     H32649   2.977   5.953   4.067  0.7479 -1.9171 -4.0535
  983MOL0     H32650   3.051   6.033   4.280 -2.1703 -2.3201 -1.1723
  983MOL0     H32651   3.209   6.068   4.238 -0.1829  0.0064  0.3012
  983MOL0     H32652   2.971   6.211   4.134 -0.0100 -2.5908  0.0635
  983MOL0     H32653   3.091   6.282   4.233 -2.0255  0.9144 -0.1123
  983MOL0     H32654   3.108   6.216   3.942  2.8055 -3.3308  0.3662
  983MOL0     H32655   3.256   6.261   4.032 -1.1008 -1.6088 -2.3140
  983MOL0     H32656   2.955   6.426   3.897  1.7202  0.8623 -2.4410
  983MOL0     H32657   2.839   6.666   3.933  0.2151 -0.6522 -1.7838
  983MOL0     H32658   2.940   6.791   4.020 -1.4084 -0.4691 -0.5427
  983MOL0     H32659   3.068   6.817   3.803 -0.3864 -1.1568  2.1571
  983MOL0     H32660   2.911   6.896   3.826 -0.4926  0.4347  0.0858
  983MOL0     H32661   2.930   6.621   3.678  0.2462 -0.6459  1.6727
  983MOL0     H32662   2.953   6.763   3.590  0.9459  0.6446  0.6596
  983MOL0     H32663   2.727   6.697   3.558  1.9220 -1.9643  0.9931
  983MOL0     H32664   2.722   6.854   3.644 -1.0575  0.5720 -0.8796
  983MOL0     H32665   2.588   6.719   3.985  0.0020 -0.8649 -0.5255
  983MOL0     H32666   2.416   6.728   4.153 -0.1626  0.1752  1.2927
  983MOL0     H32667   2.328   6.887   4.139 -0.0339 -0.3223  2.1411
  983MOL0     H32668   2.245   6.738   4.115 -0.5277  1.2970 -1.2896
  983MOL0     H32669   1.999   7.072   3.769  0.2456 -0.1404  2.5888
  983MOL0     H32670   1.773   7.179   3.756  1.0083 -0.2073 -0.1670
  983MOL0     H32671   1.444   6.923   3.607  0.3851  0.1983  1.4906
  983MOL0     H32672   1.427   6.934   3.776 -3.7055 -1.0791 -0.4251
  983MOL0     H32673   1.220   6.996   3.670  0.8797 -0.4720  1.0957
  983MOL0     H32674   1.276   7.145   3.735 -3.8348  0.0896 -2.1229
  983MOL0     H32675   1.299   7.038   3.450  1.5234 -0.8378  0.1823
  983MOL0     H32676   1.381   7.187   3.506 -1.8820  2.2110  2.0814
  983MOL0     H32677   1.177   7.298   3.564 -0.4522 -1.0854  1.0978
  983MOL0     H32678   1.184   7.239   3.388  3.9577 -0.8517  0.7446
  983MOL0     H32679   1.039   7.128   3.630  1.1328  1.1345  0.1030
  983MOL0     H32680   1.047   7.038   3.473  2.1831  0.4076 -0.5121
  983MOL0     H32681   0.925   7.188   3.354  0.3149 -2.1084  0.3926
  983MOL0     H32682   0.834   7.130   3.486 -1.0017  0.1068 -0.2882
  983MOL0     H32683   0.814   7.404   3.449  0.5557 -0.9297 -2.0823
  983MOL0     H32684   0.984   7.400   3.466  0.8676  1.4734  2.0448
  983MOL0     H32685   0.863   7.485   3.675 -1.6354 -0.2210  1.5971
  983MOL0     H32686   0.960   7.349   3.704  0.0053 -0.0505 -0.1021
  983MOL0     H32687   1.598   6.791   3.693 -0.8211  0.3830 -0.0801
  983MOL0     H32688   1.807   6.688   3.748  1.0643 -0.0530  0.2090
  983MOL0     H32689   2.257   6.816   3.630 -1.0844  2.4979  1.6014
  983MOL0     H32690   2.496   6.744   3.578  2.0998 -1.6297  1.2152
  983MOL0     H32691   3.698   5.633   4.134 -0.6044 -0.2177 -0.2923
  983MOL0     H32692   3.897   5.759   4.120  1.1275  0.9238  1.7953
  983MOL0     H32693   4.189   5.954   4.148 -0.8429 -0.1887  0.3228
  983MOL0     H32694   4.423   6.020   4.110 -1.5778 -0.6150 -1.0575
  983MOL0     H32695   4.684   6.381   4.131  0.1701 -0.7835  0.2724
  983MOL0     H32696   4.529   6.452   4.120 -1.8016 -0.8876  0.6116
  983MOL0     H32697   4.488   6.424   4.376 -1.4648  1.6013 -1.8430
  983MOL0     H32698   4.588   6.550   4.313  0.0860  0.1649 -1.5321
  983MOL0     H32699   4.789   6.393   4.354  0.4198 -0.8201  0.1506
  983MOL0     H32700   4.687   6.277   4.422  1.1535  0.0495  0.0212
  983MOL0     H32701   4.689   6.557   4.537  1.0114  0.2273 -1.8007
  983MOL0     H32702   4.781   6.418   4.601  1.2673 -0.4898 -1.3840
  983MOL0     H32703   4.397   6.426   4.770  0.1642  1.3298  0.2571
  983MOL0     H32704   4.346   6.425   4.208 -1.7877  1.1530  2.2410
  983MOL0     H32705   4.108   6.372   4.247  1.0348  1.1979 -1.4287
  984MOL0     O32706   2.375   4.227   4.371 -0.6518 -0.5413 -0.4078
  984MOL0     C32707   2.417   4.299   4.456  0.7478 -0.0537  0.3465
  984MOL0     O32708   2.339   4.381   4.539  0.2410  0.0073 -0.3544
  984MOL0     C32709   2.206   4.409   4.529 -0.7079  0.3760 -0.5345
  984MOL0     C32710   2.158   4.503   4.625 -0.8072  0.5196  0.2350
  984MOL0     C32711   2.025   4.546   4.621  0.6869  0.2163 -0.1011
  984MOL0     C32712   1.934   4.496   4.526 -0.6797  0.0953 -0.2691
  984MOL0     O32713   1.806   4.541   4.524  0.1463  0.7378  0.0121
  984MOL0     C32714   1.694   4.464   4.485  0.2727 -0.2491  0.4236
  984MOL0     C32715   1.580   4.564   4.471  0.0915  0.2445  0.1482
  984MOL0     C32716   1.440   4.488   4.498  0.9465  0.1523 -0.4867
  984MOL0     C32717   1.312   4.573   4.450 -0.2796  0.0947 -0.4576
  984MOL0     C32718   1.191   4.554   4.548 -0.5232  0.4583 -0.5976
  984MOL0     C32719   1.055   4.621   4.513  0.6186 -0.1985  0.8759
  984MOL0     C32720   1.058   4.772   4.545  0.7016  0.5697 -0.7952
  984MOL0     C32721   0.923   4.836   4.578  0.3999  0.2948  0.2686
  984MOL0     N32722   0.814   4.785   4.486 -0.6950  0.0054 -0.3625
  984MOL0     C32723   0.768   4.838   4.364 -0.2773 -0.0647 -0.9886
  984MOL0     C32724   0.655   4.772   4.342 -0.0114 -0.0266  0.3808
  984MOL0     C32725   0.564   4.821   4.228 -0.1226 -0.3173 -0.9846
  984MOL0     C32726   0.464   4.714   4.172 -0.0503 -0.2104  0.4867
  984MOL0     C32727   0.372   4.775   4.065 -0.4611 -0.1145 -0.2919
  984MOL0     C32728   0.274   4.660   4.019  0.4614  0.4524  0.1316
  984MOL0     O32729   0.170   4.712   3.930 -0.5779 -0.6723 -0.4393
  984MOL0     C32730   0.051   4.749   3.986  0.5173 -0.0445  0.3015
  984MOL0     C32731  -0.053   4.775   3.897  0.2238  1.0266  0.1506
  984MOL0     C32732  -0.177   4.812   3.936  0.0701  0.1268  0.3814
  984MOL0     C32733  -0.280   4.840   3.824  0.6016  0.9643 -0.4704
  984MOL0     C32734  -0.208   4.830   4.075  0.2080  0.3665  0.7263
  984MOL0     C32735  -0.339   4.859   4.138  0.6204 -1.0478 -0.2096
  984MOL0     O32736  -0.339   4.929   4.248 -0.2792  0.3411  0.1058
  984MOL0     C32737  -0.444   5.006   4.272  0.8433 -0.3593 -0.4591
  984MOL0     C32738  -0.455   5.132   4.222  0.6401 -0.5130  0.6166
  984MOL0     C32739  -0.573   5.210   4.245  0.6030 -0.6127  0.3943
  984MOL0     C32740  -0.676   5.159   4.331 -0.5322 -0.6006  0.4690
  984MOL0     O32741  -0.790   5.229   4.370 -0.0468  0.0783 -0.0281
  984MOL0     C32742  -0.791   5.367   4.331 -0.5232 -0.0804  0.7599
  984MOL0     C32743  -0.925   5.415   4.393 -0.3265  0.2973 -0.2352
  984MOL0     C32744  -1.047   5.344   4.335  0.8850 -0.1835  0.2288
  984MOL0     C32745  -1.142   5.459   4.298  0.7339  0.5776 -0.1542
  984MOL0     C32746  -1.266   5.399   4.231  0.7416 -0.8192  0.1091
  984MOL0     C32747  -1.349   5.308   4.325 -1.0284 -0.2660  0.3730
  984MOL0     C32748  -1.494   5.324   4.291  0.4163 -0.2413  0.2350
  984MOL0     C32749  -1.587   5.256   4.395 -1.1959  0.4136  0.2998
  984MOL0    Cl32750  -1.576   5.337   4.566 -0.3571  0.2071  0.2044
  984MOL0     C32751  -0.659   5.039   4.394  0.1254  0.1924 -0.2463
  984MOL0     C32752  -0.550   4.959   4.353 -0.1670  0.5300 -1.6233
  984MOL0     O32753  -0.441   4.818   4.078 -0.3158 -0.6408 -0.4253
  984MOL0     C32754  -0.109   4.810   4.168  0.4492  0.1184  0.1022
  984MOL0     C32755   0.024   4.768   4.122  0.2435  0.4746  0.5583
  984MOL0     N32756   0.636   4.679   4.443 -0.7606 -0.8160 -0.1275
  984MOL0     N32757   0.739   4.689   4.518  0.1231  0.8705  0.0424
  984MOL0     C32758   1.981   4.397   4.443 -0.2099 -0.1609  0.9370
  984MOL0     C32759   2.115   4.342   4.436  0.1352 -0.2251 -0.6983
  984MOL0     C32760   2.560   4.285   4.492 -0.2125 -0.1865 -0.9564
  984MOL0     C32761   2.660   4.248   4.403 -0.0312 -0.6465 -0.5074
  984MOL0     C32762   2.795   4.251   4.445 -0.7401 -0.4247  0.6131
  984MOL0     C32763   2.828   4.284   4.577 -0.0097 -0.4135 -0.3125
  984MOL0     O32764   2.962   4.270   4.613 -0.0417  0.3200  0.0679
  984MOL0     C32765   3.059   4.367   4.575  0.8291  0.3816 -0.7062
  984MOL0     C32766   3.217   4.329   4.563  0.0833  0.0934  0.4967
  984MOL0     C32767   3.312   4.449   4.526  0.9343 -0.2852  0.0814
  984MOL0     C32768   3.442   4.454   4.602 -0.2968 -0.7669  0.0406
  984MOL0     C32769   3.543   4.549   4.551 -0.7086 -0.6033  0.4947
  984MOL0     C32770   3.621   4.635   4.508 -0.4171 -0.5557  0.3019
  984MOL0     C32771   2.725   4.313   4.670 -0.3330  1.5289 -0.2939
  984MOL0     C32772   2.595   4.310   4.627  0.9602  1.0507 -0.4275
  984MOL0     H32773   2.232   4.553   4.685 -0.4595  0.4729 -0.1510
  984MOL0     H32774   1.979   4.613   4.693  2.3956 -1.0366  2.2715
  984MOL0     H32775   1.703   4.421   4.385  0.2983  0.4423  0.1198
  984MOL0     H32776   1.664   4.392   4.562 -0.2899  0.5202  0.9381
  984MOL0     H32777   1.586   4.637   4.551 -1.5422  2.4070 -1.5807
  984MOL0     H32778   1.574   4.611   4.373  1.2560  0.5180  0.1988
  984MOL0     H32779   1.442   4.387   4.457 -2.6604 -0.5706  0.7758
  984MOL0     H32780   1.443   4.483   4.607 -0.5827 -0.3411 -0.4475
  984MOL0     H32781   1.345   4.676   4.438 -0.9528  0.0348 -4.5265
  984MOL0     H32782   1.278   4.541   4.350 -0.8252 -0.2014 -0.1821
  984MOL0     H32783   1.177   4.445   4.545  0.9032  0.1900  0.8878
  984MOL0     H32784   1.225   4.574   4.651  1.5626  0.1340 -1.1645
  984MOL0     H32785   1.019   4.595   4.413 -0.5103 -0.6780  1.3914
  984MOL0     H32786   0.974   4.573   4.568 -1.0590  0.6798 -0.6952
  984MOL0     H32787   1.125   4.787   4.629 -1.6936 -1.0528  1.5699
  984MOL0     H32788   1.092   4.810   4.448  0.8578 -0.6040 -1.2111
  984MOL0     H32789   0.919   4.945   4.569 -0.8958  0.1313 -1.8780
  984MOL0     H32790   0.902   4.799   4.678  1.7987  1.8682  1.1939
  984MOL0     H32791   0.808   4.922   4.308 -0.7940  0.0866 -1.1332
  984MOL0     H32792   0.512   4.899   4.285  0.3871 -0.4829 -0.2794
  984MOL0     H32793   0.615   4.869   4.144 -2.8073  1.4605 -1.7301
  984MOL0     H32794   0.416   4.679   4.264 -0.4554 -3.2030 -0.7293
  984MOL0     H32795   0.519   4.626   4.138  0.6977 -0.3621  1.9861
  984MOL0     H32796   0.418   4.824   3.979 -1.3395  2.7484  0.7329
  984MOL0     H32797   0.313   4.854   4.114  1.4990  2.4677 -1.8576
  984MOL0     H32798   0.243   4.603   4.108  0.1898  0.2699 -0.0778
  984MOL0     H32799   0.336   4.589   3.965  1.9811  1.3684  0.6220
  984MOL0     H32800  -0.024   4.748   3.796 -0.4558  1.0153 -0.0442
  984MOL0     H32801  -0.315   4.743   3.789 -0.8148  0.9889  0.7879
  984MOL0     H32802  -0.356   4.907   3.866  1.8805  0.4771  2.9308
  984MOL0     H32803  -0.230   4.883   3.736  1.3153  1.1801  0.0324
  984MOL0     H32804  -0.396   5.174   4.142 -0.8798  1.7906  0.6110
  984MOL0     H32805  -0.582   5.310   4.204 -0.2707 -1.5430 -1.8543
  984MOL0     H32806  -0.712   5.434   4.366 -0.0609  0.4473 -1.1365
  984MOL0     H32807  -0.790   5.387   4.223  0.8833 -1.6644  0.4338
  984MOL0     H32808  -0.915   5.399   4.501 -0.2577  4.0977  0.4596
  984MOL0     H32809  -0.927   5.524   4.384 -1.0081  0.2709 -0.4841
  984MOL0     H32810  -1.096   5.284   4.412 -0.3083  0.0657 -0.3264
  984MOL0     H32811  -1.016   5.287   4.247  3.3311  0.8150  0.3575
  984MOL0     H32812  -1.171   5.524   4.381  0.2864 -0.4380  0.5149
  984MOL0     H32813  -1.095   5.521   4.221  0.6317 -1.7096 -2.2023
  984MOL0     H32814  -1.226   5.355   4.140  3.1743  2.1085 -0.3945
  984MOL0     H32815  -1.329   5.482   4.198  3.1913  1.0924 -0.0603
  984MOL0     H32816  -1.320   5.203   4.319  1.5379  0.3590  0.7811
  984MOL0     H32817  -1.331   5.336   4.429 -1.0779  2.1753 -0.2166
  984MOL0     H32818  -1.518   5.272   4.198 -2.2546 -0.9640  1.2261
  984MOL0     H32819  -1.527   5.428   4.287 -0.2953 -0.3737  1.8758
  984MOL0     H32820  -1.557   5.154   4.418 -0.1099  1.2356  2.8995
  984MOL0     H32821  -1.689   5.250   4.357 -0.9297 -2.7912 -0.1912
  984MOL0     H32822  -0.732   5.007   4.467  2.8223  0.1544  2.6316
  984MOL0     H32823  -0.528   4.868   4.409  5.1532  2.9918  1.0877
  984MOL0     H32824  -0.126   4.833   4.273 -1.6903 -0.7763  0.0042
  984MOL0     H32825   0.109   4.750   4.187 -0.2237 -0.6130  0.8983
  984MOL0     H32826   1.911   4.358   4.370 -0.6713 -1.8864  2.2433
  984MOL0     H32827   2.143   4.258   4.373 -0.5603 -0.9602 -0.0514
  984MOL0     H32828   2.645   4.230   4.297 -0.2691  1.3136 -0.8465
  984MOL0     H32829   2.875   4.228   4.376 -0.5682 -0.3681  0.7923
  984MOL0     H32830   3.038   4.394   4.471 -1.6914  3.6642  0.4622
  984MOL0     H32831   3.043   4.456   4.638 -1.2228  0.3159 -1.0669
  984MOL0     H32832   3.227   4.240   4.500 -1.9561 -1.3882  2.0957
  984MOL0     H32833   3.237   4.296   4.666 -0.3809  1.1973  0.9603
  984MOL0     H32834   3.259   4.543   4.549  0.3292 -0.2055 -1.5129
  984MOL0     H32835   3.338   4.441   4.420 -0.8539  0.7014 -0.4801
  984MOL0     H32836   3.490   4.356   4.596 -1.9506 -1.5402 -3.5914
  984MOL0     H32837   3.421   4.486   4.704  3.7737  2.2583  0.1683
  984MOL0     H32838   3.690   4.700   4.459 -1.7401  0.2685 -0.5533
  984MOL0     H32839   2.749   4.322   4.775  0.1348 -0.6546 -0.1628
  984MOL0     H32840   2.516   4.337   4.696 -1.2245  1.3654 -2.9015
  985MOL0     O32841   1.931   2.806   5.259 -0.3904  0.0899  0.0066
  985MOL0     C32842   1.982   2.694   5.246  0.2027  0.0669  0.5387
  985MOL0     O32843   1.910   2.579   5.247 -0.0904 -0.0710 -1.2868
  985MOL0     C32844   1.776   2.596   5.276 -0.0044  0.6847 -0.1208
  985MOL0     C32845   1.684   2.538   5.191  0.1338 -0.4760 -0.3911
  985MOL0     C32846   1.544   2.545   5.214  0.2542  0.1767  0.0535
  985MOL0     C32847   1.492   2.600   5.336 -0.2941 -0.8991 -0.2398
  985MOL0     O32848   1.360   2.596   5.361  0.1327  0.6654  0.4179
  985MOL0     C32849   1.302   2.707   5.419 -0.2045  0.0609 -0.0768
  985MOL0     C32850   1.157   2.707   5.379  0.5641  0.0798  0.1632
  985MOL0     C32851   1.094   2.850   5.370 -0.0873 -0.1379 -0.1002
  985MOL0     C32852   0.940   2.837   5.352  0.1427 -0.2087  0.0863
  985MOL0     C32853   0.896   2.778   5.214  0.0027  0.2188  0.7550
  985MOL0     C32854   0.975   2.816   5.093 -0.1767  0.4981 -0.2178
  985MOL0     C32855   0.903   2.766   4.971  0.3571  0.2353 -0.9555
  985MOL0     C32856   0.938   2.834   4.841 -0.0003  0.0007 -0.5415
  985MOL0     N32857   0.821   2.822   4.754 -0.1877  0.4688 -0.3482
  985MOL0     C32858   0.714   2.907   4.744  0.3444  0.0227 -0.0824
  985MOL0     C32859   0.645   2.855   4.641 -0.9302  0.0755 -0.3499
  985MOL0     C32860   0.510   2.907   4.593 -0.5570 -0.0179  0.4569
  985MOL0     C32861   0.517   2.934   4.445 -0.5532  0.4044 -0.3649
  985MOL0     C32862   0.385   2.979   4.387  0.1649 -0.6241  0.2033
  985MOL0     C32863   0.335   3.116   4.439 -0.0782 -0.0848  0.8109
  985MOL0     O32864   0.207   3.156   4.376 -0.2617  0.1704 -0.2066
  985MOL0     C32865   0.088   3.080   4.405 -0.0184  0.4620 -0.3567
  985MOL0     C32866   0.071   3.030   4.529  0.4594  1.1487 -0.4630
  985MOL0     C32867  -0.053   2.966   4.563 -0.5839 -0.0603  0.1793
  985MOL0     C32868  -0.072   2.915   4.706  0.2805 -0.0919  0.7675
  985MOL0     C32869  -0.142   2.938   4.455 -0.0368  0.1681 -0.1385
  985MOL0     C32870  -0.271   2.866   4.467 -0.1982 -0.4321 -0.2179
  985MOL0     O32871  -0.333   2.876   4.590  0.2693 -0.5066  0.3841
  985MOL0     C32872  -0.459   2.819   4.588  0.5523  0.2510  0.2664
  985MOL0     C32873  -0.564   2.893   4.547 -0.3610  0.1670 -0.5290
  985MOL0     C32874  -0.689   2.835   4.538 -0.1060  0.7434 -0.1339
  985MOL0     C32875  -0.715   2.704   4.581 -1.3415  0.5677 -0.1476
  985MOL0     O32876  -0.842   2.658   4.557 -0.7033  0.6132 -0.3305
  985MOL0     C32877  -0.873   2.519   4.592  0.0726 -0.2513 -0.2602
  985MOL0     C32878  -1.022   2.508   4.582  0.0509  0.4581  0.2466
  985MOL0     C32879  -1.064   2.364   4.631  0.8271 -0.5352 -0.0531
  985MOL0     C32880  -1.135   2.388   4.768 -1.0785  0.5162  0.3402
  985MOL0     C32881  -1.176   2.249   4.825 -0.6547  1.0281  0.6396
  985MOL0     C32882  -1.300   2.179   4.762 -0.5177 -0.2380 -0.6381
  985MOL0     C32883  -1.428   2.262   4.785  0.1962 -0.1840  0.5730
  985MOL0     C32884  -1.479   2.286   4.928 -0.4406 -0.1411  0.3029
  985MOL0    Cl32885  -1.633   2.378   4.915 -0.4199 -0.2067 -0.1755
  985MOL0     C32886  -0.602   2.628   4.633  0.0172 -0.9124  0.5500
  985MOL0     C32887  -0.482   2.690   4.639 -0.6063  0.0931 -0.0556
  985MOL0     O32888  -0.319   2.816   4.364  0.0866 -0.5967  0.9084
  985MOL0     C32889  -0.121   2.988   4.330 -0.1476 -0.0697  0.9312
  985MOL0     C32890  -0.006   3.062   4.308  0.6493 -0.2915  0.4198
  985MOL0     N32891   0.701   2.737   4.595  0.0986  0.2811 -0.4019
  985MOL0     N32892   0.803   2.721   4.673  0.5607  0.3383 -0.2575
  985MOL0     C32893   1.586   2.656   5.430  0.4016 -0.0255 -0.2267
  985MOL0     C32894   1.723   2.649   5.402  0.1608  0.2856  0.4266
  985MOL0     C32895   2.128   2.680   5.245 -0.2330 -0.3642  0.6390
  985MOL0     C32896   2.218   2.793   5.242  0.3591  0.0839 -0.6449
  985MOL0     C32897   2.355   2.773   5.250  0.1529 -0.1678  0.4645
  985MOL0     C32898   2.421   2.643   5.254 -0.0805  0.0152 -0.0201
  985MOL0     O32899   2.558   2.645   5.241 -0.2099 -0.5194 -0.9142
  985MOL0     C32900   2.624   2.516   5.242  0.0486  0.0816 -0.0685
  985MOL0     C32901   2.776   2.543   5.232 -0.2841 -0.4965  0.2597
  985MOL0     C32902   2.827   2.600   5.370 -0.0921  0.1921 -0.3275
  985MOL0     C32903   2.960   2.665   5.350 -0.2050  0.9220  0.3729
  985MOL0     C32904   2.991   2.732   5.478  0.1835  0.6305  0.4392
  985MOL0     C32905   3.022   2.779   5.582  0.1862  1.0251 -0.0147
  985MOL0     C32906   2.336   2.531   5.246  0.8046  0.0254  1.1299
  985MOL0     C32907   2.196   2.553   5.244 -0.7390 -0.1911 -0.0922
  985MOL0     H32908   1.717   2.489   5.101 -0.9072  1.1198 -1.7059
  985MOL0     H32909   1.479   2.496   5.142  1.2636  0.4127 -1.0349
  985MOL0     H32910   1.324   2.699   5.526  1.0462 -0.8431 -0.3663
  985MOL0     H32911   1.345   2.800   5.381  0.7433 -0.6493 -0.8040
  985MOL0     H32912   1.152   2.658   5.282 -2.2462  1.2669 -0.4149
  985MOL0     H32913   1.098   2.644   5.446  2.2895 -1.4956  0.2645
  985MOL0     H32914   1.107   2.893   5.470  0.9547 -2.8184  1.0288
  985MOL0     H32915   1.149   2.922   5.309  0.5846  1.4309  2.2044
  985MOL0     H32916   0.892   2.777   5.430  2.1767  0.7673  2.2229
  985MOL0     H32917   0.893   2.935   5.357 -1.8426 -1.1527  1.3330
  985MOL0     H32918   0.899   2.668   5.211  2.7167  0.2022  1.4371
  985MOL0     H32919   0.795   2.818   5.197 -0.3086  0.3934  2.7556
  985MOL0     H32920   0.989   2.924   5.083 -1.5481  0.6538 -0.6888
  985MOL0     H32921   1.079   2.781   5.094 -0.0587  0.7959 -1.2073
  985MOL0     H32922   0.930   2.661   4.953  1.0134  0.3236 -0.5188
  985MOL0     H32923   0.796   2.778   4.991  0.8958  0.7527  2.1027
  985MOL0     H32924   1.025   2.783   4.799 -0.9693 -1.6450 -0.6424
  985MOL0     H32925   0.948   2.939   4.871  2.2429 -0.3037 -0.0538
  985MOL0     H32926   0.701   2.999   4.799  1.4601  1.7921 -2.5988
  985MOL0     H32927   0.437   2.825   4.601 -1.4949  0.9527  2.4584
  985MOL0     H32928   0.480   2.987   4.661 -0.9454 -1.9662  2.7272
  985MOL0     H32929   0.544   2.843   4.391  0.4749  1.1557 -1.1587
  985MOL0     H32930   0.607   2.990   4.418  0.5836  0.2731  2.7178
  985MOL0     H32931   0.309   2.900   4.385  0.8227 -1.2482 -1.4180
  985MOL0     H32932   0.408   3.010   4.285 -1.0220  1.1440  0.4371
  985MOL0     H32933   0.417   3.185   4.420  0.7099 -0.8585  1.3212
  985MOL0     H32934   0.323   3.110   4.548  0.1773 -4.4702  0.7920
  985MOL0     H32935   0.149   3.032   4.605  1.1665  2.1558 -1.1980
  985MOL0     H32936  -0.171   2.946   4.738 -0.9138  0.7008 -3.1960
  985MOL0     H32937  -0.064   2.806   4.716 -2.8171 -0.3329  1.6158
  985MOL0     H32938   0.006   2.967   4.763  2.8228 -1.6051 -1.1128
  985MOL0     H32939  -0.550   2.996   4.514 -0.3028 -0.3624 -2.3031
  985MOL0     H32940  -0.764   2.901   4.495 -1.5225 -0.7368 -0.0247
  985MOL0     H32941  -0.827   2.445   4.525 -0.6804 -0.1239 -0.9274
  985MOL0     H32942  -0.836   2.489   4.690 -1.3979  0.0080  0.3973
  985MOL0     H32943  -1.070   2.595   4.627 -1.0414  2.0677 -3.5754
  985MOL0     H32944  -1.034   2.521   4.474  0.0398  0.0413  0.1981
  985MOL0     H32945  -0.984   2.290   4.636  2.8192  1.4297 -1.2182
  985MOL0     H32946  -1.131   2.335   4.549  0.2977  1.6600 -0.4735
  985MOL0     H32947  -1.072   2.443   4.839 -0.6551  0.5005 -0.0221
  985MOL0     H32948  -1.220   2.457   4.770 -1.7012 -0.1632 -1.0974
  985MOL0     H32949  -1.192   2.266   4.932 -3.7641 -1.4945  0.7094
  985MOL0     H32950  -1.091   2.180   4.827  0.9762  2.8917 -0.4809
  985MOL0     H32951  -1.290   2.167   4.654 -1.5245  1.0518 -0.9148
  985MOL0     H32952  -1.312   2.081   4.810 -0.9397  1.6485  3.6336
  985MOL0     H32953  -1.503   2.214   4.721 -0.6549  0.2535  1.2061
  985MOL0     H32954  -1.405   2.363   4.752  1.7915 -0.5613  0.4588
  985MOL0     H32955  -1.402   2.334   4.989 -0.6150  3.5751 -2.0937
  985MOL0     H32956  -1.506   2.190   4.974 -0.5444 -0.1191  0.2871
  985MOL0     H32957  -0.624   2.526   4.664 -0.7413 -0.5590  1.2191
  985MOL0     H32958  -0.388   2.643   4.666 -0.4816 -1.3541 -2.6995
  985MOL0     H32959  -0.174   2.990   4.235  0.4319  0.1531  0.6128
  985MOL0     H32960   0.027   3.109   4.216 -0.3585 -2.1355 -0.9500
  985MOL0     H32961   1.549   2.692   5.525 -0.6470 -1.6595  0.0269
  985MOL0     H32962   1.790   2.688   5.478  2.7701  0.4024 -1.8130
  985MOL0     H32963   2.186   2.895   5.226  0.4438  0.1929 -0.1369
  985MOL0     H32964   2.421   2.859   5.257 -0.8207  0.4597  2.6742
  985MOL0     H32965   2.596   2.460   5.332 -0.1932 -0.3635 -0.4154
  985MOL0     H32966   2.584   2.456   5.159  0.4299 -2.1635  1.2838
  985MOL0     H32967   2.794   2.622   5.159 -0.3055 -1.5508 -0.9181
  985MOL0     H32968   2.839   2.458   5.205  1.1523  0.0408  1.7439
  985MOL0     H32969   2.823   2.519   5.444 -0.2515  1.3163  0.9246
  985MOL0     H32970   2.757   2.674   5.409  0.5739  0.8380 -0.3343
  985MOL0     H32971   2.948   2.735   5.267 -1.5393 -0.2201 -0.4242
  985MOL0     H32972   3.029   2.585   5.325 -1.8443 -1.1864  2.1689
  985MOL0     H32973   3.046   2.828   5.674  1.4729  3.2133 -1.4331
  985MOL0     H32974   2.371   2.428   5.241 -2.4862 -1.1713 -0.8167
  985MOL0     H32975   2.134   2.464   5.238  0.0618 -0.7350 -0.4006
  986MOL0     O32976   2.741   6.651   7.391 -0.1710 -0.0500 -0.4475
  986MOL0     C32977   2.790   6.558   7.318  0.1631 -0.5868 -0.4501
  986MOL0     O32978   2.731   6.444   7.283 -0.5445 -0.6393 -0.2379
  986MOL0     C32979   2.595   6.444   7.298 -0.4085 -0.0407  0.4807
  986MOL0     C32980   2.544   6.350   7.389 -0.1972 -0.0157  0.8057
  986MOL0     C32981   2.408   6.340   7.405 -0.8093  0.6511  0.2724
  986MOL0     C32982   2.323   6.428   7.327 -0.0222  0.4937  0.1234
  986MOL0     O32983   2.191   6.424   7.335  0.2006 -0.3135  0.5484
  986MOL0     C32984   2.124   6.550   7.367  0.0232  0.3575 -0.4702
  986MOL0     C32985   1.977   6.551   7.332 -0.0267 -0.5583  0.0383
  986MOL0     C32986   1.905   6.421   7.381  0.7143  0.6248  0.6763
  986MOL0     C32987   1.756   6.426   7.350 -0.4257  0.6108 -0.0461
  986MOL0     C32988   1.681   6.293   7.371  0.3679  0.3748 -1.2976
  986MOL0     C32989   1.530   6.295   7.349  1.1888 -0.5011 -0.0755
  986MOL0     C32990   1.476   6.157   7.376 -0.7458  0.5145 -0.1698
  986MOL0     C32991   1.328   6.147   7.366 -0.3025  0.0940  0.3950
  986MOL0     N32992   1.249   6.209   7.474  0.0375  0.6057  0.2032
  986MOL0     C32993   1.218   6.349   7.491 -0.5897  0.4950  1.4638
  986MOL0     C32994   1.101   6.346   7.566 -0.1648 -0.9746  0.2134
  986MOL0     C32995   1.028   6.461   7.636  0.3816  0.3087 -0.6574
  986MOL0     C32996   0.882   6.462   7.595  0.2952 -0.1592  0.4053
  986MOL0     C32997   0.863   6.523   7.451  0.3936  0.2909 -0.5446
  986MOL0     C32998   0.713   6.540   7.431  0.3311  0.9490  0.3759
  986MOL0     O32999   0.648   6.646   7.512  0.0765 -0.4544  0.1325
  986MOL0     C33000   0.512   6.663   7.492  0.3565  0.2341  1.0772
  986MOL0     C33001   0.460   6.790   7.477 -0.1632  0.5589 -0.2795
  986MOL0     C33002   0.330   6.822   7.457  0.3212  0.0549  0.1810
  986MOL0     C33003   0.289   6.967   7.446  0.7577  0.4131 -0.3967
  986MOL0     C33004   0.239   6.720   7.436  0.0177 -0.4265 -0.1617
  986MOL0     C33005   0.098   6.742   7.414 -0.1359  0.7256  0.4114
  986MOL0     O33006   0.021   6.637   7.459  0.1351 -0.1206 -0.4160
  986MOL0     C33007  -0.111   6.636   7.440  0.0686  0.3974 -0.5314
  986MOL0     C33008  -0.169   6.658   7.314  0.9253 -0.0105  0.2047
  986MOL0     C33009  -0.306   6.637   7.298  0.4889  0.5162 -0.3343
  986MOL0     C33010  -0.392   6.618   7.409 -0.1773  0.1271 -1.5778
  986MOL0     O33011  -0.526   6.607   7.383 -0.7705  0.0334  0.6427
  986MOL0     C33012  -0.620   6.672   7.464  0.7636  0.3835  0.0367
  986MOL0     C33013  -0.755   6.613   7.428 -0.4092  0.3097  0.2361
  986MOL0     C33014  -0.868   6.657   7.526 -0.2853  0.4341 -0.1975
  986MOL0     C33015  -1.006   6.607   7.481  0.2419  0.5407  0.6771
  986MOL0     C33016  -1.125   6.671   7.550 -0.0197 -0.3803 -0.9696
  986MOL0     C33017  -1.267   6.625   7.504  0.3772  0.0160  0.4455
  986MOL0     C33018  -1.302   6.690   7.357  0.3468  0.3391 -0.7466
  986MOL0     C33019  -1.415   6.627   7.293 -0.4908  0.2777 -0.9548
  986MOL0    Cl33020  -1.422   6.713   7.130 -0.3601  0.3778 -0.4845
  986MOL0     C33021  -0.334   6.607   7.536 -0.0039 -1.0055  0.1484
  986MOL0     C33022  -0.194   6.610   7.551  0.4863 -0.8537 -0.2672
  986MOL0     O33023   0.054   6.848   7.374  0.2231 -0.3626  0.0885
  986MOL0     C33024   0.287   6.585   7.462  0.1607  0.1213  0.3061
  986MOL0     C33025   0.426   6.557   7.491 -0.0287 -0.9348  0.4548
  986MOL0     N33026   1.063   6.218   7.585  0.1646 -0.1313  0.3304
  986MOL0     N33027   1.139   6.139   7.517 -0.5952 -0.3394 -0.0231
  986MOL0     C33028   2.382   6.513   7.232 -0.2259  0.6009  0.3030
  986MOL0     C33029   2.518   6.527   7.224 -0.1075 -0.2671  0.2982
  986MOL0     C33030   2.927   6.572   7.282 -1.1264  0.2509  0.3178
  986MOL0     C33031   2.990   6.469   7.208 -0.1732  0.8317 -0.6877
  986MOL0     C33032   3.127   6.480   7.166 -0.2528  0.8551 -0.8541
  986MOL0     C33033   3.200   6.590   7.203  0.1561 -0.2519 -0.2891
  986MOL0     O33034   3.330   6.604   7.181  0.3514 -0.3458  0.0466
  986MOL0     C33035   3.405   6.474   7.176  0.5586 -0.7756  0.0400
  986MOL0     C33036   3.546   6.514   7.155 -0.5838 -0.5233  0.3387
  986MOL0     C33037   3.642   6.392   7.152  0.0442 -0.0128  0.4874
  986MOL0     C33038   3.788   6.427   7.121  0.0188 -0.4024  1.1851
  986MOL0     C33039   3.863   6.305   7.139 -0.3993  0.6060 -0.2508
  986MOL0     C33040   3.902   6.191   7.157 -0.1171  0.0065 -0.3465
  986MOL0     C33041   3.142   6.692   7.281  0.4717 -0.0987  0.1369
  986MOL0     C33042   3.009   6.684   7.314 -0.2194 -0.4051 -0.1923
  986MOL0     H33043   2.598   6.268   7.435  2.3631  0.7924 -0.5471
  986MOL0     H33044   2.362   6.273   7.476 -0.4226  0.3523  0.2443
  986MOL0     H33045   2.140   6.572   7.473 -0.7881  1.1137 -0.4965
  986MOL0     H33046   2.174   6.633   7.317  1.0708  0.5575  0.8483
  986MOL0     H33047   1.934   6.640   7.378 -0.2619  0.5379 -2.1493
  986MOL0     H33048   1.967   6.552   7.223 -2.4815  0.0815  0.2054
  986MOL0     H33049   1.949   6.326   7.351 -0.3484  0.1868  0.4759
  986MOL0     H33050   1.907   6.410   7.490 -0.5860 -1.4506  0.5448
  986MOL0     H33051   1.720   6.496   7.427 -0.6697  1.5205 -0.9657
  986MOL0     H33052   1.742   6.458   7.246  0.9292  1.2901 -0.0351
  986MOL0     H33053   1.730   6.220   7.305  0.5936 -0.9821  0.3001
  986MOL0     H33054   1.692   6.263   7.476 -3.5029  0.8191 -0.6410
  986MOL0     H33055   1.483   6.368   7.415 -0.4164  0.3794 -2.0861
  986MOL0     H33056   1.507   6.329   7.248 -0.9097 -1.8268 -0.1092
  986MOL0     H33057   1.522   6.083   7.309 -2.2173 -1.1415  0.5612
  986MOL0     H33058   1.513   6.136   7.476  1.9912  1.3785 -0.9268
  986MOL0     H33059   1.295   6.044   7.354  2.4203 -0.6981 -1.2443
  986MOL0     H33060   1.296   6.189   7.270 -1.3210 -0.4080  0.5078
  986MOL0     H33061   1.276   6.441   7.485 -2.7545  1.8818  0.8015
  986MOL0     H33062   1.023   6.443   7.744  1.1947 -1.6442 -0.8997
  986MOL0     H33063   1.083   6.552   7.611 -0.6209  1.2167  0.3571
  986MOL0     H33064   0.819   6.524   7.659 -1.9363 -1.5453 -0.3346
  986MOL0     H33065   0.836   6.364   7.580 -1.8783  1.0521 -1.4338
  986MOL0     H33066   0.904   6.462   7.371 -0.0532 -2.3552  1.1022
  986MOL0     H33067   0.905   6.622   7.433  0.9679 -0.1983 -1.9799
  986MOL0     H33068   0.684   6.441   7.467  1.6143  1.1206  2.0249
  986MOL0     H33069   0.700   6.564   7.325 -0.2406  1.3442  0.5337
  986MOL0     H33070   0.533   6.871   7.479  0.2742  0.1651 -0.0816
  986MOL0     H33071   0.209   6.973   7.521  1.3702  1.5480  0.1800
  986MOL0     H33072   0.371   7.038   7.461  2.6629 -1.3515 -1.8232
  986MOL0     H33073   0.245   6.987   7.348 -0.3311 -2.2207 -0.5459
  986MOL0     H33074  -0.107   6.679   7.227  2.2279 -1.1366  0.8253
  986MOL0     H33075  -0.346   6.659   7.199  0.2688 -0.3990 -0.4509
  986MOL0     H33076  -0.604   6.666   7.572 -1.3740  1.2902  0.4703
  986MOL0     H33077  -0.621   6.780   7.449 -1.1921  0.2725 -0.9530
  986MOL0     H33078  -0.773   6.650   7.327  4.0333 -2.1294 -1.7284
  986MOL0     H33079  -0.760   6.504   7.434  0.6620  0.3282  2.1411
  986MOL0     H33080  -0.879   6.765   7.540  0.1563  0.4106  0.3122
  986MOL0     H33081  -0.840   6.623   7.626  1.4511  2.8269  0.2206
  986MOL0     H33082  -1.012   6.627   7.373  0.2588  0.4177  0.6529
  986MOL0     H33083  -1.019   6.500   7.497 -0.5407  0.3773 -0.8932
  986MOL0     H33084  -1.114   6.777   7.528  0.6354 -0.4325 -0.9108
  986MOL0     H33085  -1.114   6.653   7.657  0.4902 -2.8965 -1.3754
  986MOL0     H33086  -1.276   6.516   7.493 -1.9884  0.0482  1.5893
  986MOL0     H33087  -1.352   6.646   7.569  0.7590 -1.8995  1.6490
  986MOL0     H33088  -1.213   6.686   7.294  0.7126 -2.0701 -0.1885
  986MOL0     H33089  -1.306   6.798   7.374  5.4066  0.4885  1.5151
  986MOL0     H33090  -1.508   6.644   7.348  0.9529  0.1649  1.6737
  986MOL0     H33091  -1.412   6.517   7.292 -0.8100  0.1612  2.2549
  986MOL0     H33092  -0.407   6.598   7.616 -2.2435 -0.0520 -1.6864
  986MOL0     H33093  -0.155   6.595   7.651  1.7581 -3.7954 -1.0939
  986MOL0     H33094   0.222   6.498   7.463  2.1284 -1.5875  4.4305
  986MOL0     H33095   0.471   6.461   7.511  0.6869 -0.5282  0.8653
  986MOL0     H33096   2.317   6.557   7.156  1.2124  0.5607 -0.9988
  986MOL0     H33097   2.553   6.600   7.152 -0.8118 -1.0636 -0.9115
  986MOL0     H33098   2.940   6.377   7.180  3.0998 -0.6996 -1.9132
  986MOL0     H33099   3.164   6.394   7.112  0.7281  0.2842  0.6887
  986MOL0     H33100   3.391   6.422   7.271  3.1258  0.8885  1.4612
  986MOL0     H33101   3.369   6.419   7.089 -2.7895  2.4150 -0.8624
  986MOL0     H33102   3.572   6.584   7.234  0.9522 -2.4130  1.6024
  986MOL0     H33103   3.546   6.571   7.062  1.3394  0.4506  0.8821
  986MOL0     H33104   3.611   6.320   7.076  3.2189 -2.9853  1.7355
  986MOL0     H33105   3.642   6.347   7.252 -0.2418  2.2288  1.5796
  986MOL0     H33106   3.825   6.508   7.184  0.7157 -0.1932  0.5199
  986MOL0     H33107   3.786   6.468   7.020 -2.7130  1.2095  1.8154
  986MOL0     H33108   3.944   6.096   7.183  2.2847  1.3306  0.8978
  986MOL0     H33109   3.206   6.777   7.302  0.5999 -0.5007  1.4405
  986MOL0     H33110   2.964   6.767   7.368 -3.1859 -2.3441  0.5908
  987MOL0     O33111   7.126  10.623   1.073  0.2676  0.1746 -0.2627
  987MOL0     C33112   7.185  10.701   1.002 -0.1391  0.3587 -0.2089
  987MOL0     O33113   7.128  10.779   0.915 -0.2662  0.3546  0.2434
  987MOL0     C33114   7.006  10.825   0.935  0.3356 -0.6881 -0.1924
  987MOL0     C33115   6.922  10.823   0.825  0.7490 -0.8934  0.3843
  987MOL0     C33116   6.788  10.842   0.829  0.1359  0.4495  0.4994
  987MOL0     C33117   6.734  10.888   0.949 -0.0882 -0.4341 -0.3146
  987MOL0     O33118   6.600  10.910   0.956  0.1798  0.0210 -0.2790
  987MOL0     C33119   6.529  10.923   1.084 -0.3306  0.0252  0.0526
  987MOL0     C33120   6.393  10.982   1.043  0.1678 -0.2961 -0.3093
  987MOL0     C33121   6.391  11.119   0.980  0.2442 -0.2315 -0.4427
  987MOL0     C33122   6.254  11.189   0.981  0.2533 -0.3094  0.6011
  987MOL0     C33123   6.242  11.337   0.939  0.0005  0.2670 -0.2502
  987MOL0     C33124   6.350  11.386   0.848  0.3916 -0.5341  0.6552
  987MOL0     C33125   6.330  11.521   0.788  0.0036  0.0160 -0.3380
  987MOL0     C33126   6.183  11.522   0.714 -0.4036  0.7836 -0.3572
  987MOL0     N33127   6.169  11.624   0.617 -0.0758 -0.1011 -0.2189
  987MOL0     C33128   6.101  11.743   0.645 -0.6472  0.6056 -0.2736
  987MOL0     C33129   6.140  11.812   0.540 -0.0107 -0.7603  0.4868
  987MOL0     C33130   6.098  11.956   0.502 -0.1301 -0.5384  0.4467
  987MOL0     C33131   6.020  11.971   0.372  0.4766  0.6660 -0.1570
  987MOL0     C33132   5.882  11.888   0.367  0.8285 -0.1455 -0.7638
  987MOL0     C33133   5.812  11.851   0.501  0.0383 -0.0231  0.6367
  987MOL0     O33134   5.683  11.790   0.476  0.3981  0.2123  0.2344
  987MOL0     C33135   5.578  11.871   0.427  0.2686  0.6470  0.6668
  987MOL0     C33136   5.563  12.006   0.458 -0.0652  0.1302  0.7924
  987MOL0     C33137   5.442  12.072   0.428 -0.4247  0.2089 -0.6502
  987MOL0     C33138   5.436  12.221   0.466  1.0514  0.6734  0.4846
  987MOL0     C33139   5.326  12.004   0.366 -0.2110  0.6441  0.0010
  987MOL0     C33140   5.185  12.057   0.334 -0.3546 -0.1234 -0.0834
  987MOL0     O33141   5.090  11.967   0.284 -0.0991  0.5274 -0.6565
  987MOL0     C33142   4.952  11.989   0.282 -0.0922  0.2462 -0.2210
  987MOL0     C33143   4.869  11.907   0.364 -0.0026 -0.7496 -0.3688
  987MOL0     C33144   4.737  11.943   0.389  1.4275  0.3807  0.3244
  987MOL0     C33145   4.683  12.040   0.302  1.1774  0.0361 -0.7825
  987MOL0     O33146   4.549  12.073   0.292  0.1043 -0.5505  0.4110
  987MOL0     C33147   4.471  12.044   0.398 -0.5489 -0.0264 -0.0102
  987MOL0     C33148   4.489  12.147   0.508  0.8041 -0.7279  0.1842
  987MOL0     C33149   4.403  12.267   0.477 -0.0531  0.2966  0.5724
  987MOL0     C33150   4.252  12.247   0.516 -0.3498  0.2108  0.9095
  987MOL0     C33151   4.168  12.378   0.490 -0.4765 -0.3621  0.3363
  987MOL0     C33152   4.027  12.376   0.559 -0.2908  0.4880 -0.6045
  987MOL0     C33153   3.964  12.514   0.560  0.2171 -0.6698  0.0089
  987MOL0     C33154   3.855  12.511   0.658  0.3203 -0.3419  0.2212
  987MOL0    Cl33155   3.899  12.496   0.838 -0.2425  0.0934 -0.0426
  987MOL0     C33156   4.758  12.109   0.205 -0.3888  0.5377  0.0381
  987MOL0     C33157   4.894  12.089   0.204 -0.5785 -0.4196 -0.6124
  987MOL0     O33158   5.166  12.175   0.356  0.2457  0.3658  0.1284
  987MOL0     C33159   5.357  11.875   0.330  0.2178  0.2349  0.8391
  987MOL0     C33160   5.475  11.804   0.361  0.3295  0.3604 -0.1490
  987MOL0     N33161   6.219  11.740   0.450  0.6914  0.1424  0.1764
  987MOL0     N33162   6.235  11.624   0.499 -0.0361 -0.4889 -0.3969
  987MOL0     C33163   6.815  10.901   1.056  0.3699  0.6607 -0.6322
  987MOL0     C33164   6.946  10.857   1.054  0.4276 -0.1787  0.3949
  987MOL0     C33165   7.337  10.692   0.992 -0.3068 -0.0127 -0.6999
  987MOL0     C33166   7.413  10.587   1.056  0.9102 -0.9803 -0.4914
  987MOL0     C33167   7.555  10.595   1.073 -0.0132 -0.0715 -0.4544
  987MOL0     C33168   7.627  10.696   1.006 -1.3740  0.5605  1.0228
  987MOL0     O33169   7.761  10.693   1.015 -0.3647 -0.5147  0.1720
  987MOL0     C33170   7.845  10.801   0.957  0.5815  0.1726  0.0963
  987MOL0     C33171   7.990  10.758   0.972  0.3051 -0.1606  0.9014
  987MOL0     C33172   8.096  10.858   0.930  0.2197 -0.7413 -0.5757
  987MOL0     C33173   8.212  10.792   0.855  0.1536 -0.3651  0.0045
  987MOL0     C33174   8.162  10.729   0.730  0.1457 -0.4245 -0.8266
  987MOL0     C33175   8.127  10.662   0.639 -0.2410 -0.4062 -0.2333
  987MOL0     C33176   7.553  10.804   0.944  0.2541  0.5676  0.8162
  987MOL0     C33177   7.416  10.799   0.935 -0.3024 -0.1181  1.0594
  987MOL0     H33178   6.956  10.791   0.727 -0.4788 -0.8683 -0.0605
  987MOL0     H33179   6.720  10.831   0.745 -0.1659  1.1015  0.6535
  987MOL0     H33180   6.512  10.828   1.135 -3.4774 -0.0838 -0.9597
  987MOL0     H33181   6.584  10.993   1.148  1.3449 -0.1703 -1.1196
  987MOL0     H33182   6.333  10.919   0.976 -1.2463  2.7315 -2.1254
  987MOL0     H33183   6.344  11.007   1.138  2.1742  0.4140  0.5731
  987MOL0     H33184   6.467  11.181   1.029  1.2975 -2.6249  1.1572
  987MOL0     H33185   6.432  11.108   0.880  3.2070  2.4824  0.2945
  987MOL0     H33186   6.178  11.135   0.923  1.0034 -1.7851  0.9434
  987MOL0     H33187   6.210  11.189   1.081  0.1582  1.9947  0.6212
  987MOL0     H33188   6.139  11.345   0.902 -0.1479  0.6288  0.2151
  987MOL0     H33189   6.254  11.400   1.028  0.5688 -0.5723  0.2746
  987MOL0     H33190   6.445  11.392   0.902  0.8170  1.2323 -0.2088
  987MOL0     H33191   6.350  11.317   0.762 -3.5377 -0.7485  0.6669
  987MOL0     H33192   6.339  11.590   0.873  1.9131 -2.4027  1.5586
  987MOL0     H33193   6.400  11.548   0.708 -2.9210  3.6985 -2.0311
  987MOL0     H33194   6.103  11.540   0.786  0.1908  1.7436  0.0809
  987MOL0     H33195   6.151  11.426   0.672 -2.7026  1.0373  0.6857
  987MOL0     H33196   6.054  11.778   0.736 -3.0103 -0.5864 -0.9489
  987MOL0     H33197   6.042  11.989   0.589 -1.1056 -1.3585  0.1515
  987MOL0     H33198   6.188  12.016   0.485  0.1256 -0.5785  1.6274
  987MOL0     H33199   6.082  11.943   0.287  0.7353 -1.0416  0.5640
  987MOL0     H33200   5.982  12.072   0.354 -1.4636 -0.1446 -0.8275
  987MOL0     H33201   5.890  11.795   0.309  2.5160 -1.1742  0.9967
  987MOL0     H33202   5.809  11.949   0.314  1.8008  0.8725 -0.9706
  987MOL0     H33203   5.801  11.944   0.558 -0.7889  1.0005 -1.0814
  987MOL0     H33204   5.870  11.785   0.565  0.2742  1.1516  1.6707
  987MOL0     H33205   5.649  12.058   0.497 -1.3945  2.2547  1.0148
  987MOL0     H33206   5.352  12.240   0.533 -1.5807 -1.0888 -2.0744
  987MOL0     H33207   5.529  12.251   0.516  0.8264  1.4485  0.4487
  987MOL0     H33208   5.420  12.276   0.373  1.9226 -0.7650 -0.5600
  987MOL0     H33209   4.917  11.828   0.421 -0.2464 -0.2122  0.6004
  987MOL0     H33210   4.683  11.901   0.473 -1.2473  4.0748  0.6829
  987MOL0     H33211   4.369  12.037   0.359 -1.1642 -1.9546  1.7515
  987MOL0     H33212   4.487  11.947   0.446  2.6139  1.9002  3.3460
  987MOL0     H33213   4.441  12.109   0.599 -1.6511  0.8041 -0.3905
  987MOL0     H33214   4.592  12.179   0.522  0.6352  1.9015 -3.3650
  987MOL0     H33215   4.428  12.285   0.372  1.4558 -3.4343  0.1244
  987MOL0     H33216   4.431  12.347   0.545 -1.8606  1.0832  0.4656
  987MOL0     H33217   4.203  12.174   0.452 -0.4020 -0.0805  1.2806
  987MOL0     H33218   4.238  12.233   0.623  1.2950 -0.4983  1.0634
  987MOL0     H33219   4.154  12.397   0.383 -0.4682  1.9758  0.6986
  987MOL0     H33220   4.228  12.459   0.532  0.4143 -0.9248  0.1733
  987MOL0     H33221   3.965  12.308   0.500  0.0971 -1.4381  1.0775
  987MOL0     H33222   4.040  12.337   0.661  0.0877 -1.4285 -1.3410
  987MOL0     H33223   3.929  12.543   0.461 -2.8236 -0.9609  0.9068
  987MOL0     H33224   4.029  12.594   0.599 -2.9378  2.2650 -0.2960
  987MOL0     H33225   3.776  12.448   0.615  1.1505 -1.2045 -0.0661
  987MOL0     H33226   3.816  12.613   0.655 -0.8885 -0.8041 -1.2453
  987MOL0     H33227   4.708  12.187   0.149 -1.7985  0.0832  0.6050
  987MOL0     H33228   4.944  12.163   0.141  0.4292 -2.6427 -2.5821
  987MOL0     H33229   5.283  11.817   0.277  0.5256  0.9705 -0.4407
  987MOL0     H33230   5.491  11.708   0.314 -0.2058  1.2303 -2.2102
  987MOL0     H33231   6.777  10.932   1.153 -0.4606 -1.2139 -0.3203
  987MOL0     H33232   6.989  10.874   1.152 -2.1471  2.2443  1.2659
  987MOL0     H33233   7.360  10.507   1.108  0.3847 -0.5631 -0.3817
  987MOL0     H33234   7.606  10.512   1.121  0.5562  0.7439  0.3892
  987MOL0     H33235   7.828  10.820   0.850 -1.3645 -0.9485  0.1595
  987MOL0     H33236   7.823  10.892   1.015 -4.6953 -0.4758 -0.4489
  987MOL0     H33237   7.994  10.667   0.912 -1.9205 -0.6398  1.4148
  987MOL0     H33238   8.020  10.730   1.074 -0.1411  0.6881  1.2679
  987MOL0     H33239   8.146  10.902   1.017  1.9297 -3.9081  0.1795
  987MOL0     H33240   8.046  10.937   0.873  0.6388 -0.3257 -0.3767
  987MOL0     H33241   8.266  10.720   0.917 -0.0842 -0.6498 -0.1164
  987MOL0     H33242   8.281  10.872   0.823  0.1467 -0.2702  0.2256
  987MOL0     H33243   8.090  10.593   0.567 -2.7073  1.9606 -1.4249
  987MOL0     H33244   7.609  10.885   0.899 -0.5516  0.8849  0.3736
  987MOL0     H33245   7.365  10.882   0.888 -0.5901 -0.2404  1.1520
  988MOL0     O33246   0.079   4.527   4.338  0.0276 -0.0889 -0.1831
  988MOL0     C33247   0.068   4.416   4.397  0.8417  0.2212 -0.0037
  988MOL0     O33248  -0.042   4.370   4.463  0.1014  0.9541  0.6144
  988MOL0     C33249  -0.161   4.434   4.467  0.7835  0.5294 -0.1857
  988MOL0     C33250  -0.180   4.576   4.488  0.2767  0.6401  0.5576
  988MOL0     C33251  -0.305   4.628   4.502  0.1058  0.0036 -0.1576
  988MOL0     C33252  -0.417   4.556   4.474  0.4012 -0.3590  0.5668
  988MOL0     O33253  -0.527   4.635   4.469  0.4112  0.2643 -0.6453
  988MOL0     C33254  -0.657   4.578   4.478  0.1252 -0.3509  0.2936
  988MOL0     C33255  -0.760   4.679   4.530 -0.3097  0.1789  0.9641
  988MOL0     C33256  -0.888   4.611   4.572  0.5635 -0.0610 -0.5497
  988MOL0     C33257  -0.984   4.717   4.628 -0.0713 -0.3638  1.3735
  988MOL0     C33258  -1.129   4.680   4.626  0.2091  0.6146  0.0759
  988MOL0     C33259  -1.150   4.550   4.707 -0.0796  0.1598  0.4557
  988MOL0     C33260  -1.298   4.515   4.723 -0.4462 -0.2672  0.4455
  988MOL0     C33261  -1.370   4.480   4.593  0.0730 -0.6535 -0.1703
  988MOL0     N33262  -1.505   4.413   4.614 -1.2402  0.2620  0.9306
  988MOL0     C33263  -1.608   4.473   4.685 -0.0386  0.2168  0.6855
  988MOL0     C33264  -1.691   4.367   4.716  0.4525 -0.3612 -0.4548
  988MOL0     C33265  -1.791   4.362   4.830 -0.4818 -0.7768  0.1646
  988MOL0     C33266  -1.945   4.344   4.795 -0.0054  0.7776  0.3886
  988MOL0     C33267  -1.970   4.279   4.666  0.4590  0.4599 -0.0294
  988MOL0     C33268  -1.990   4.369   4.544 -0.3816  0.4873 -0.3917
  988MOL0     O33269  -2.102   4.460   4.570 -0.0850 -0.2725  0.8936
  988MOL0     C33270  -2.222   4.399   4.573 -0.1235  0.5815  0.1009
  988MOL0     C33271  -2.286   4.377   4.692  0.6776 -0.0936 -0.1228
  988MOL0     C33272  -2.412   4.312   4.699 -0.4722  0.1869 -0.4910
  988MOL0     C33273  -2.468   4.302   4.842 -0.1402  0.1518 -1.2218
  988MOL0     C33274  -2.472   4.273   4.577  0.9964  0.3853  0.0972
  988MOL0     C33275  -2.597   4.203   4.559  0.4581  0.0508  0.7189
  988MOL0     O33276  -2.641   4.173   4.427  0.1747 -0.4889 -0.6930
  988MOL0     C33277  -2.760   4.103   4.420 -0.5326 -0.2535  0.8364
  988MOL0     C33278  -2.881   4.167   4.401  0.0266  0.5556  0.7234
  988MOL0     C33279  -2.993   4.095   4.357 -0.1655  0.3725  0.1307
  988MOL0     C33280  -2.996   3.956   4.354 -0.5106 -0.1993 -0.8833
  988MOL0     O33281  -3.106   3.880   4.337 -0.1990 -0.1185  0.5615
  988MOL0     C33282  -3.234   3.932   4.377 -0.3266 -0.0904 -0.4159
  988MOL0     C33283  -3.337   3.823   4.345  0.2820 -0.2249 -0.6671
  988MOL0     C33284  -3.336   3.706   4.443 -0.4237  0.4778 -0.0095
  988MOL0     C33285  -3.459   3.629   4.409 -0.8384  0.5443 -0.4868
  988MOL0     C33286  -3.478   3.515   4.509  0.0176  0.7049 -0.7928
  988MOL0     C33287  -3.600   3.435   4.467 -0.2099  0.0694 -0.0684
  988MOL0     C33288  -3.647   3.348   4.586  0.1827 -0.0304  0.4114
  988MOL0     C33289  -3.797   3.317   4.576 -0.3736  0.3351 -0.7564
  988MOL0    Cl33290  -3.856   3.166   4.635 -0.1901  0.1453  0.0622
  988MOL0     C33291  -2.876   3.891   4.368  0.0234 -0.4749  1.5052
  988MOL0     C33292  -2.757   3.962   4.403  0.5909  1.1651  0.3402
  988MOL0     O33293  -2.650   4.167   4.659  0.1213 -0.0494 -0.2415
  988MOL0     C33294  -2.405   4.309   4.462  0.4406  0.1787  0.3597
  988MOL0     C33295  -2.288   4.383   4.459  0.0901  0.2651  1.3968
  988MOL0     N33296  -1.647   4.254   4.650 -0.2543 -0.4497  0.0376
  988MOL0     N33297  -1.527   4.279   4.600  0.1113  0.3397  0.4681
  988MOL0     C33298  -0.408   4.419   4.471 -0.2989 -0.3357  0.8353
  988MOL0     C33299  -0.285   4.362   4.455 -0.0486 -0.5387  0.7241
  988MOL0     C33300   0.188   4.335   4.416  0.2958 -0.5198  0.3169
  988MOL0     C33301   0.311   4.395   4.385 -0.8012 -0.1840  0.5602
  988MOL0     C33302   0.430   4.318   4.380 -0.8174  0.4171 -1.1582
  988MOL0     C33303   0.432   4.181   4.423 -0.7100 -0.3779 -0.7461
  988MOL0     O33304   0.545   4.118   4.426  0.2990  0.0751  0.6630
  988MOL0     C33305   0.536   3.969   4.433  0.0132  0.4935 -0.4162
  988MOL0     C33306   0.679   3.913   4.434  0.0449 -0.1036  0.1917
  988MOL0     C33307   0.745   3.942   4.298 -0.3228  0.0901  0.1566
  988MOL0     C33308   0.888   3.893   4.299  0.0166  0.5022 -0.3433
  988MOL0     C33309   0.977   3.938   4.196  0.6329  0.0268  0.4618
  988MOL0     C33310   1.055   3.986   4.118  0.7547 -0.5867  0.9864
  988MOL0     C33311   0.308   4.132   4.477 -0.3985 -0.4289  0.0646
  988MOL0     C33312   0.187   4.201   4.465 -0.2547 -0.3856 -0.2729
  988MOL0     H33313  -0.090   4.636   4.495  1.4650 -1.2065  2.0599
  988MOL0     H33314  -0.312   4.735   4.521  3.7390  0.6009 -1.3931
  988MOL0     H33315  -0.684   4.551   4.376 -2.7544  1.6559  0.4118
  988MOL0     H33316  -0.665   4.492   4.546 -1.8031 -0.7003 -0.3053
  988MOL0     H33317  -0.710   4.729   4.613  0.0250  1.4688  0.0246
  988MOL0     H33318  -0.796   4.747   4.452 -0.8719  1.2462  2.1248
  988MOL0     H33319  -0.939   4.571   4.484 -0.5570 -0.1165  0.0951
  988MOL0     H33320  -0.873   4.529   4.644 -1.9324 -1.0589 -1.0582
  988MOL0     H33321  -0.956   4.738   4.732 -0.7068  0.4145  1.3948
  988MOL0     H33322  -0.987   4.810   4.571 -1.3472 -0.7767  0.7284
  988MOL0     H33323  -1.190   4.764   4.660 -2.1321 -1.3067  0.9122
  988MOL0     H33324  -1.174   4.656   4.529  0.2060  0.2521  0.1630
  988MOL0     H33325  -1.100   4.467   4.656  0.9629  0.2769  1.2414
  988MOL0     H33326  -1.105   4.560   4.806 -1.8791 -1.6644  1.5355
  988MOL0     H33327  -1.303   4.423   4.782  1.5443 -0.3330  0.5661
  988MOL0     H33328  -1.343   4.601   4.773  0.8644 -0.4125  1.9468
  988MOL0     H33329  -1.305   4.411   4.539  2.1091  0.3445  0.8851
  988MOL0     H33330  -1.392   4.568   4.532 -3.5017 -0.7646  0.7483
  988MOL0     H33331  -1.605   4.574   4.724 -3.0348  2.0093 -3.0546
  988MOL0     H33332  -1.763   4.280   4.897  0.5222 -0.3745  0.2470
  988MOL0     H33333  -1.784   4.457   4.884 -3.4125  0.6830 -1.7271
  988MOL0     H33334  -2.004   4.435   4.802  0.2440  1.2894 -2.7887
  988MOL0     H33335  -1.986   4.265   4.859 -3.6528  1.0775 -1.3524
  988MOL0     H33336  -2.060   4.217   4.678  1.1826 -0.9612 -1.6280
  988MOL0     H33337  -1.887   4.213   4.640  1.7447  2.3102 -0.7621
  988MOL0     H33338  -2.005   4.306   4.456  1.5628 -0.9949  0.2652
  988MOL0     H33339  -1.892   4.416   4.532 -0.1285 -0.5008 -2.6360
  988MOL0     H33340  -2.235   4.406   4.784 -3.3189 -0.5736  2.5269
  988MOL0     H33341  -2.572   4.335   4.852 -0.4578 -1.4123  2.2018
  988MOL0     H33342  -2.461   4.199   4.879 -4.1311 -0.2180 -1.0175
  988MOL0     H33343  -2.412   4.362   4.915  0.0515  0.4551 -1.6182
  988MOL0     H33344  -2.880   4.275   4.401  4.4577  0.7018  0.2399
  988MOL0     H33345  -3.085   4.145   4.328 -1.6481 -1.6948  1.0277
  988MOL0     H33346  -3.231   3.974   4.478  0.8759  0.5853 -0.7095
  988MOL0     H33347  -3.269   4.009   4.307  0.5626  0.0809 -0.6802
  988MOL0     H33348  -3.437   3.868   4.339  0.2184  0.0874  1.7165
  988MOL0     H33349  -3.318   3.776   4.248 -0.4092  2.2990 -2.0971
  988MOL0     H33350  -3.348   3.746   4.544  1.6291  1.1927  0.0088
  988MOL0     H33351  -3.247   3.642   4.435 -0.4452  0.4191  0.2304
  988MOL0     H33352  -3.548   3.692   4.424 -0.1876  1.2845  0.4102
  988MOL0     H33353  -3.462   3.597   4.305  0.1138 -0.1136 -0.3238
  988MOL0     H33354  -3.481   3.542   4.615 -1.2699 -0.6037 -0.4573
  988MOL0     H33355  -3.393   3.449   4.488 -0.5712  0.3412 -2.1962
  988MOL0     H33356  -3.685   3.487   4.424 -1.0614 -0.9685  0.3192
  988MOL0     H33357  -3.559   3.373   4.387 -3.1532  1.1946 -2.6410
  988MOL0     H33358  -3.626   3.404   4.678  4.0077 -0.4856 -0.0062
  988MOL0     H33359  -3.592   3.254   4.592  0.5275  0.1617  0.3149
  988MOL0     H33360  -3.830   3.321   4.472 -2.8755  0.9218 -0.0287
  988MOL0     H33361  -3.855   3.396   4.625 -0.9894 -0.5406 -0.0203
  988MOL0     H33362  -2.881   3.786   4.342 -2.2741 -0.3893  1.3846
  988MOL0     H33363  -2.665   3.904   4.399 -0.3701 -0.3406 -1.4032
  988MOL0     H33364  -2.434   4.262   4.368 -1.8775 -1.1047  1.6208
  988MOL0     H33365  -2.245   4.414   4.365 -3.8152  3.8903  0.5380
  988MOL0     H33366  -0.497   4.359   4.457 -0.9862  0.8441 -0.0485
  988MOL0     H33367  -0.271   4.257   4.431  1.6496  0.0948 -1.4410
  988MOL0     H33368   0.318   4.501   4.364  0.7198  0.4101  3.5157
  988MOL0     H33369   0.522   4.372   4.362 -0.4684  0.2326  0.0115
  988MOL0     H33370   0.480   3.938   4.522 -1.5987  1.4233 -1.0668
  988MOL0     H33371   0.484   3.930   4.345 -0.6187  1.5797 -0.5381
  988MOL0     H33372   0.690   3.805   4.448 -2.7616 -1.0175 -3.0789
  988MOL0     H33373   0.736   3.961   4.513  0.0665  0.4790 -0.1788
  988MOL0     H33374   0.742   4.051   4.289 -1.0136  0.4585  3.3819
  988MOL0     H33375   0.701   3.890   4.213  0.0854 -1.2450  0.7276
  988MOL0     H33376   0.874   3.785   4.287  0.9628  0.2955  0.2510
  988MOL0     H33377   0.936   3.919   4.394  2.5932 -3.8490 -0.1999
  988MOL0     H33378   1.123   4.058   4.076  0.6786  0.4583  2.5887
  988MOL0     H33379   0.296   4.049   4.546 -1.0559  1.8100  2.8512
  988MOL0     H33380   0.096   4.157   4.506  0.7565 -3.2290 -0.8931
  989MOL0     O33381  10.449   8.189  10.065 -0.1371  0.2988  0.0395
  989MOL0     C33382  10.486   8.227   9.955 -0.9061 -0.8477 -0.2014
  989MOL0     O33383  10.621   8.243   9.908  0.3004  0.5248 -0.0508
  989MOL0     C33384  10.731   8.191   9.975  1.1601 -0.7510 -0.2455
  989MOL0     C33385  10.860   8.231   9.934  0.7867  1.1685 -0.4967
  989MOL0     C33386  10.972   8.183  10.001 -0.3281 -0.6676 -0.5129
  989MOL0     C33387  10.965   8.109  10.117  0.2888 -0.5054  0.7711
  989MOL0     O33388  11.077   8.062  10.179  0.3948  0.2988 -0.2477
  989MOL0     C33389  11.175   8.008  10.087 -0.1750  0.3875 -1.4843
  989MOL0     C33390  11.275   7.933  10.178  0.4143 -0.3440  0.0505
  989MOL0     C33391  11.213   7.812  10.236  0.4008  0.6672 -0.7111
  989MOL0     C33392  11.323   7.731  10.314 -0.3769 -0.6680  0.2393
  989MOL0     C33393  11.276   7.607  10.387  0.0715 -1.3604  0.2794
  989MOL0     C33394  11.261   7.482  10.300  0.3573 -0.6597  0.3074
  989MOL0     C33395  11.176   7.384  10.360  0.3132 -0.5926 -0.0448
  989MOL0     C33396  11.179   7.256  10.273 -0.3111  0.9071  0.6017
  989MOL0     N33397  11.116   7.257  10.140 -0.0302  0.2968 -0.1456
  989MOL0     C33398  11.009   7.333  10.099  0.4261  1.4477  0.3115
  989MOL0     C33399  10.973   7.294   9.970 -0.6792  0.2277  0.9134
  989MOL0     C33400  10.875   7.359   9.874 -0.3914 -0.4626 -0.3258
  989MOL0     C33401  10.741   7.397   9.955 -0.0229 -0.1130  0.1393
  989MOL0     C33402  10.628   7.425   9.854 -0.0100 -0.2514 -0.9398
  989MOL0     C33403  10.498   7.444   9.932 -0.8706 -0.5726  0.2557
  989MOL0     O33404  10.393   7.494   9.847 -0.3530  0.0419  0.7735
  989MOL0     C33405  10.267   7.493   9.892  0.0108  0.5741  0.4723
  989MOL0     C33406  10.224   7.494  10.021  0.3692  0.3561 -1.0015
  989MOL0     C33407  10.091   7.492  10.056 -0.2835 -0.6673  0.0869
  989MOL0     C33408  10.051   7.471  10.201 -0.3184  0.8474 -0.3723
  989MOL0     C33409   9.988   7.493   9.960  0.4791 -0.2774  0.3915
  989MOL0     C33410   9.843   7.515   9.975 -0.4627 -1.0664 -0.7644
  989MOL0     O33411   9.759   7.464   9.884  0.0938 -0.4017  0.2000
  989MOL0     C33412   9.617   7.491   9.902 -0.3921 -0.5882 -0.2403
  989MOL0     C33413   9.546   7.606   9.954 -0.1012 -0.0837  0.2120
  989MOL0     C33414   9.413   7.609   9.955 -0.7015 -0.1441 -0.4787
  989MOL0     C33415   9.337   7.507   9.889  0.5415  0.2724  0.3107
  989MOL0     O33416   9.196   7.527   9.875 -0.0125  0.4557 -0.1365
  989MOL0     C33417   9.117   7.435   9.804 -0.1027  0.4155 -0.5822
  989MOL0     C33418   8.975   7.472   9.821 -0.8222 -0.1244 -0.1915
  989MOL0     C33419   8.892   7.387   9.728 -0.0049  0.4718  0.9066
  989MOL0     C33420   8.748   7.393   9.771 -0.8757  0.9085  0.4936
  989MOL0     C33421   8.680   7.297   9.682  0.1566 -0.2894 -0.6149
  989MOL0     C33422   8.526   7.292   9.703 -0.5980  0.5642  0.0665
  989MOL0     C33423   8.440   7.243   9.584  0.0495 -0.0348 -0.2250
  989MOL0     C33424   8.298   7.285   9.600  0.2262 -0.2920  0.3891
  989MOL0    Cl33425   8.216   7.202   9.731  0.1711  0.0438 -0.0728
  989MOL0     C33426   9.400   7.394   9.850 -0.5488 -0.2932  0.7266
  989MOL0     C33427   9.544   7.384   9.858 -0.1434  0.5889  0.0767
  989MOL0     O33428   9.805   7.567  10.083 -0.0552 -0.1215 -0.2464
  989MOL0     C33429  10.038   7.486   9.827 -0.2848 -1.6202  0.1626
  989MOL0     C33430  10.174   7.491   9.799  0.6089  0.2565 -0.1963
  989MOL0     N33431  11.076   7.201   9.942  0.4729  0.5224  0.4460
  989MOL0     N33432  11.150   7.175  10.040  0.2027  0.4317 -0.0417
  989MOL0     C33433  10.841   8.071  10.160 -0.0454  0.0786  0.1792
  989MOL0     C33434  10.726   8.110  10.092  0.1232 -0.3304 -0.0375
  989MOL0     C33435  10.385   8.281   9.865 -0.1067  1.0530  0.4512
  989MOL0     C33436  10.416   8.387   9.771 -1.2157 -0.5885 -0.2344
  989MOL0     C33437  10.318   8.451   9.695 -0.1022  0.2057 -0.5112
  989MOL0     C33438  10.178   8.417   9.710  0.2767 -0.4042 -0.4794
  989MOL0     O33439  10.075   8.475   9.641 -0.2509 -0.4676  0.0397
  989MOL0     C33440   9.939   8.421   9.635 -0.1553  0.2456  0.0357
  989MOL0     C33441   9.881   8.459   9.497 -0.6937 -0.0106  0.3960
  989MOL0     C33442   9.759   8.374   9.453 -0.3387 -0.2949  0.2119
  989MOL0     C33443   9.807   8.257   9.376 -0.2471  0.4767  0.2282
  989MOL0     C33444   9.702   8.189   9.306 -0.0081  0.0978 -0.7304
  989MOL0     C33445   9.618   8.134   9.230 -1.0070  0.3929 -1.3650
  989MOL0     C33446  10.150   8.310   9.795  0.7373 -0.0222 -0.6305
  989MOL0     C33447  10.251   8.243   9.866  0.0995  0.4420 -0.0324
  989MOL0     H33448  10.889   8.295   9.852  1.9042  1.8604  0.4040
  989MOL0     H33449  11.060   8.212   9.944 -1.2948 -2.3460 -3.0544
  989MOL0     H33450  11.119   7.941  10.021 -0.5068  0.1879 -1.0049
  989MOL0     H33451  11.232   8.086  10.035  1.8609  1.0781  1.5226
  989MOL0     H33452  11.362   7.917  10.114  1.7502  0.2859  1.6338
  989MOL0     H33453  11.315   7.999  10.256  2.5587 -0.8248 -0.5736
  989MOL0     H33454  11.143   7.831  10.319 -0.9204 -1.4574 -1.2541
  989MOL0     H33455  11.165   7.744  10.165 -1.6163  0.2002  0.9991
  989MOL0     H33456  11.395   7.689  10.243  1.1364  0.4468  1.0673
  989MOL0     H33457  11.379   7.796  10.382  1.0909 -0.4834 -1.0662
  989MOL0     H33458  11.358   7.587  10.457  0.8488 -0.9829 -0.4983
  989MOL0     H33459  11.186   7.638  10.441  0.5833  1.3835 -0.2835
  989MOL0     H33460  11.217   7.533  10.213 -1.3002  2.0749  2.5517
  989MOL0     H33461  11.356   7.439  10.268  1.2338  1.1515  0.3263
  989MOL0     H33462  11.204   7.340  10.457 -2.9394 -0.0170  1.2973
  989MOL0     H33463  11.073   7.418  10.373  0.8943  2.1907 -1.9364
  989MOL0     H33464  11.122   7.179  10.324 -1.2359  1.5404  0.5420
  989MOL0     H33465  11.284   7.228  10.258 -0.0665  0.3452  3.0789
  989MOL0     H33466  10.959   7.408  10.160 -0.6379  0.2021  1.0226
  989MOL0     H33467  10.919   7.447   9.827 -0.2698 -0.0538  0.5194
  989MOL0     H33468  10.848   7.291   9.793 -0.3777 -1.6494  0.6413
  989MOL0     H33469  10.766   7.484  10.016  2.8615  1.4702 -2.9861
  989MOL0     H33470  10.718   7.311  10.018  2.6823 -1.1856 -0.2000
  989MOL0     H33471  10.615   7.344   9.781 -0.7543 -0.0362 -1.0475
  989MOL0     H33472  10.658   7.512   9.795 -1.9848  1.2522  0.1604
  989MOL0     H33473  10.522   7.511  10.016  2.4650 -2.2994  0.8548
  989MOL0     H33474  10.475   7.347   9.977 -1.3624  0.5832  2.6774
  989MOL0     H33475  10.298   7.520  10.096 -0.7722 -0.4319  0.4493
  989MOL0     H33476   9.986   7.385  10.215  0.4260  0.2964 -0.2017
  989MOL0     H33477  10.140   7.449  10.262 -2.5472  2.0962  3.7157
  989MOL0     H33478  10.010   7.564  10.242 -0.5000 -0.1690  1.8894
  989MOL0     H33479   9.612   7.683   9.993  1.8332 -0.5966 -1.8162
  989MOL0     H33480   9.362   7.697   9.992  1.4311  1.6836 -1.6464
  989MOL0     H33481   9.145   7.439   9.699 -0.7025 -1.5212 -0.8533
  989MOL0     H33482   9.118   7.334   9.847  0.4383  0.5886 -0.1720
  989MOL0     H33483   8.953   7.472   9.928 -0.5611 -0.4098 -0.1362
  989MOL0     H33484   8.961   7.573   9.783  0.8330  0.1183 -0.1932
  989MOL0     H33485   8.923   7.282   9.727  1.1190  0.7987  0.1218
  989MOL0     H33486   8.908   7.438   9.633 -0.2714  0.3079  0.7736
  989MOL0     H33487   8.738   7.363   9.875 -0.2763  0.1850  0.3532
  989MOL0     H33488   8.712   7.494   9.749  2.0627  1.3311 -3.6016
  989MOL0     H33489   8.717   7.194   9.689 -1.1917 -0.8978 -1.9043
  989MOL0     H33490   8.696   7.337   9.582 -0.1698 -2.6489 -1.6910
  989MOL0     H33491   8.511   7.215   9.780  1.9131 -0.5019 -0.4445
  989MOL0     H33492   8.492   7.389   9.741 -0.2763  1.0115 -0.7765
  989MOL0     H33493   8.449   7.134   9.579 -0.7001 -0.1719  1.0417
  989MOL0     H33494   8.474   7.289   9.491  2.1230 -2.0494 -0.5419
  989MOL0     H33495   8.235   7.265   9.514  1.3960 -2.0058 -0.1247
  989MOL0     H33496   8.296   7.393   9.614 -2.3967  0.1032 -2.1649
  989MOL0     H33497   9.339   7.311   9.816 -2.4190  1.5428 -0.5815
  989MOL0     H33498   9.598   7.304   9.809 -2.1403 -0.0018 -1.2620
  989MOL0     H33499   9.961   7.474   9.751 -0.0363 -0.1038 -0.3602
  989MOL0     H33500  10.202   7.490   9.694 -1.7449  0.2740 -0.8991
  989MOL0     H33501  10.832   8.022  10.257 -0.8652 -0.2938 -0.0793
  989MOL0     H33502  10.637   8.073  10.142  0.9516 -0.1200  1.6704
  989MOL0     H33503  10.516   8.427   9.754 -2.0219  1.6543 -0.1213
  989MOL0     H33504  10.349   8.534   9.633  2.1037  0.4365  0.8202
  989MOL0     H33505   9.940   8.312   9.644 -3.2031 -0.3078 -3.6468
  989MOL0     H33506   9.878   8.473   9.710  0.2493 -1.9334  1.9607
  989MOL0     H33507   9.962   8.445   9.424 -0.1681  0.3980  0.8942
  989MOL0     H33508   9.855   8.565   9.495 -0.7709 -0.0362 -0.0727
  989MOL0     H33509   9.688   8.439   9.402 -0.5318  1.4672  2.5293
  989MOL0     H33510   9.700   8.350   9.542  0.0555 -0.5013  0.4238
  989MOL0     H33511   9.855   8.188   9.445  2.1219  4.0616  2.5000
  989MOL0     H33512   9.879   8.281   9.298 -0.5557 -0.5256 -0.3832
  989MOL0     H33513   9.548   8.099   9.156  0.8384 -0.8068 -2.6294
  989MOL0     H33514  10.052   8.276   9.828  2.2935 -4.0903  0.4482
  989MOL0     H33515  10.224   8.161   9.932  0.3248  2.4374  2.6891
  990MOL0     O33516  10.284   3.813   0.075  0.1866 -0.0095 -0.4747
  990MOL0     C33517  10.282   3.932   0.041 -0.6973  1.2491 -0.0449
  990MOL0     O33518  10.165   4.007   0.031  0.0551 -0.1657 -0.3591
  990MOL0     C33519  10.047   3.951   0.045  0.0230  0.6844 -0.0687
  990MOL0     C33520  10.000   3.864  -0.049  0.8440  1.1394 -0.2019
  990MOL0     C33521   9.870   3.807  -0.046 -0.5410  0.2027  0.6096
  990MOL0     C33522   9.785   3.842   0.063 -0.0863 -0.2193 -0.5954
  990MOL0     O33523   9.661   3.772   0.095 -0.6029  0.4203  0.2049
  990MOL0     C33524   9.685   3.644   0.163  0.7604 -0.5489  0.8153
  990MOL0     C33525   9.612   3.647   0.297 -0.9999 -0.0343  0.2615
  990MOL0     C33526   9.459   3.661   0.294 -0.1270  0.0587  0.5987
  990MOL0     C33527   9.390   3.539   0.246 -0.3276 -0.5280 -0.0204
  990MOL0     C33528   9.234   3.561   0.230 -0.1952  0.1338  0.4239
  990MOL0     C33529   9.184   3.440   0.133  0.3728  0.4566 -0.5743
  990MOL0     C33530   9.045   3.474   0.086  0.5462  0.4885 -0.4770
  990MOL0     C33531   8.973   3.354   0.018  0.1364 -0.1457  0.0569
  990MOL0     N33532   8.856   3.401  -0.059 -0.3838 -0.1947  0.7818
  990MOL0     C33533   8.770   3.491  -0.009 -0.1850  0.6554  0.2836
  990MOL0     C33534   8.701   3.511  -0.117  1.0063 -0.6040  0.0195
  990MOL0     C33535   8.575   3.600  -0.111  0.0122  0.1072  0.7674
  990MOL0     C33536   8.455   3.513  -0.139  0.1223 -0.0218  0.3842
  990MOL0     C33537   8.325   3.581  -0.125  0.0984 -0.1848  0.1508
  990MOL0     C33538   8.223   3.482  -0.178 -0.0700  0.1423  0.5730
  990MOL0     O33539   8.224   3.362  -0.101  0.1955  0.2404 -0.1241
  990MOL0     C33540   8.118   3.354  -0.010 -0.3643  0.3881  0.4290
  990MOL0     C33541   8.099   3.230   0.042  0.0004  0.0246  0.3076
  990MOL0     C33542   7.992   3.199   0.130  0.5863  0.6787 -0.1357
  990MOL0     C33543   7.971   3.053   0.167 -0.0388 -0.3707  0.1311
  990MOL0     C33544   7.919   3.305   0.191  0.0128  0.2684  1.0341
  990MOL0     C33545   7.798   3.292   0.267 -0.3578  0.2038 -0.7677
  990MOL0     O33546   7.731   3.176   0.239 -0.0002 -0.3276  0.4364
  990MOL0     C33547   7.615   3.168   0.305 -0.1016 -0.3430 -0.9716
  990MOL0     C33548   7.497   3.230   0.244 -0.2367  0.1747 -0.2754
  990MOL0     C33549   7.379   3.227   0.306 -0.0125  0.2557 -0.2542
  990MOL0     C33550   7.357   3.154   0.424 -0.0522 -0.1229  0.3815
  990MOL0     O33551   7.243   3.143   0.496 -0.2622  0.0331 -0.3810
  990MOL0     C33552   7.137   3.239   0.480  0.5465  0.0042  0.1712
  990MOL0     C33553   7.024   3.220   0.580 -0.2835  0.2629 -0.6492
  990MOL0     C33554   6.935   3.337   0.563 -0.4024 -0.0339 -0.9905
  990MOL0     C33555   6.813   3.329   0.659 -0.9079 -0.1415 -0.6391
  990MOL0     C33556   6.714   3.432   0.616 -0.1428 -0.6348 -0.0617
  990MOL0     C33557   6.609   3.458   0.715  0.2723 -0.1941 -0.4361
  990MOL0     C33558   6.509   3.571   0.659 -0.0423  0.3642 -1.0434
  990MOL0     C33559   6.581   3.705   0.669  0.2105  0.3244  0.5867
  990MOL0    Cl33560   6.462   3.835   0.672  0.6819  0.3682 -0.0688
  990MOL0     C33561   7.464   3.079   0.473  0.0421 -0.6334  0.2552
  990MOL0     C33562   7.589   3.085   0.414 -0.0973 -0.0510 -0.2692
  990MOL0     O33563   7.751   3.378   0.346  0.1646 -0.2190  0.2153
  990MOL0     C33564   7.954   3.437   0.147 -0.1660 -0.9662 -0.6411
  990MOL0     C33565   8.046   3.465   0.051 -0.3042  0.0971  0.1312
  990MOL0     N33566   8.737   3.432  -0.223  0.2951 -0.9401  0.1281
  990MOL0     N33567   8.834   3.362  -0.187 -0.1425 -0.0069  0.1814
  990MOL0     C33568   9.834   3.931   0.164  0.0443 -0.4643 -0.2837
  990MOL0     C33569   9.959   3.988   0.156  0.1303  0.5192  0.7482
  990MOL0     C33570  10.414   3.990   0.004  0.4024 -0.4141 -0.4091
  990MOL0     C33571  10.422   4.113  -0.053  0.8379 -0.1133  0.3586
  990MOL0     C33572  10.537   4.180  -0.061 -0.3880  0.4155  0.6064
  990MOL0     C33573  10.655   4.112  -0.045  0.1190 -0.2461 -0.4359
  990MOL0     O33574  10.765   4.187  -0.066 -0.1530 -0.1563  0.2013
  990MOL0     C33575  10.890   4.118  -0.044 -0.0007  0.1205  0.3487
  990MOL0     C33576  11.000   4.206  -0.085 -0.4426  0.4902 -0.1520
  990MOL0     C33577  11.138   4.132  -0.080  0.6622  0.0648  1.2905
  990MOL0     C33578  11.179   4.065   0.061  0.2049  0.7651  0.8677
  990MOL0     C33579  11.320   4.037   0.062  0.4182 -0.3531  0.9752
  990MOL0     C33580  11.434   4.014   0.045  0.2792  0.8517  0.2154
  990MOL0     C33581  10.649   3.977  -0.010  0.3804  0.3738 -0.0680
  990MOL0     C33582  10.532   3.916   0.028  0.8179  0.1611  0.6317
  990MOL0     H33583  10.058   3.836  -0.136 -1.1696 -1.0847 -0.9587
  990MOL0     H33584   9.832   3.736  -0.119 -1.7445 -0.4149  1.7863
  990MOL0     H33585   9.654   3.570   0.088 -1.4828 -0.1825  1.2912
  990MOL0     H33586   9.792   3.636   0.182  0.5268 -0.5534  2.1795
  990MOL0     H33587   9.634   3.549   0.341 -1.3570 -0.6047 -0.7834
  990MOL0     H33588   9.645   3.731   0.357 -1.9305  0.9981 -0.6259
  990MOL0     H33589   9.438   3.682   0.399  1.2993  1.4127  0.6438
  990MOL0     H33590   9.437   3.748   0.233 -1.7610 -0.0049  1.0623
  990MOL0     H33591   9.419   3.528   0.141 -1.3454 -0.7855 -0.2935
  990MOL0     H33592   9.423   3.453   0.304  0.7347  0.9748  1.6795
  990MOL0     H33593   9.170   3.579   0.318  0.2590  0.3058  0.7227
  990MOL0     H33594   9.225   3.655   0.174  0.8821 -0.8872 -1.5463
  990MOL0     H33595   9.244   3.430   0.041 -1.8369 -0.2571 -2.0092
  990MOL0     H33596   9.202   3.342   0.180  2.0302  0.9912 -0.0095
  990MOL0     H33597   8.979   3.512   0.165  1.8902  0.3390  0.7621
  990MOL0     H33598   9.051   3.552   0.010 -1.2092 -0.8552 -2.0792
  990MOL0     H33599   8.936   3.287   0.096 -0.5820  1.6341  1.3083
  990MOL0     H33600   9.043   3.304  -0.050 -1.8468 -3.3834  0.1773
  990MOL0     H33601   8.762   3.534   0.091 -1.1622 -0.1939  0.5926
  990MOL0     H33602   8.565   3.654  -0.017  2.4414  2.5916 -0.2622
  990MOL0     H33603   8.570   3.679  -0.187 -0.6425 -1.3467 -0.7762
  990MOL0     H33604   8.436   3.432  -0.068 -2.1246  2.1694  2.4478
  990MOL0     H33605   8.465   3.477  -0.242  2.4681  2.4090 -0.3566
  990MOL0     H33606   8.319   3.673  -0.184 -2.8857  0.7238  1.6878
  990MOL0     H33607   8.304   3.603  -0.020 -0.9476 -0.9048  0.1014
  990MOL0     H33608   8.230   3.459  -0.284 -3.4167 -0.4981  0.3950
  990MOL0     H33609   8.127   3.532  -0.189 -0.2016 -0.3461 -0.5819
  990MOL0     H33610   8.150   3.146  -0.004 -1.1991 -1.2484  1.2390
  990MOL0     H33611   7.933   3.045   0.270 -0.7504 -0.6511 -0.1444
  990MOL0     H33612   7.903   2.997   0.103 -1.2154  2.1602 -0.9364
  990MOL0     H33613   8.067   3.002   0.182 -1.3231 -2.4912  1.6532
  990MOL0     H33614   7.515   3.295   0.159 -1.8748 -0.9977 -1.5896
  990MOL0     H33615   7.290   3.267   0.259  1.2737  2.1685 -1.1869
  990MOL0     H33616   7.174   3.342   0.489  1.5417 -0.0403 -2.4686
  990MOL0     H33617   7.098   3.239   0.378  5.7391 -2.2422 -2.1809
  990MOL0     H33618   6.975   3.125   0.558 -0.9554  0.6242 -0.7450
  990MOL0     H33619   7.071   3.216   0.679 -1.2057 -3.1481 -0.2285
  990MOL0     H33620   6.899   3.339   0.459 -3.3548  0.0233 -0.0434
  990MOL0     H33621   6.993   3.428   0.581  1.7630 -1.3346 -1.1093
  990MOL0     H33622   6.766   3.231   0.652 -0.7055 -0.3697  0.8785
  990MOL0     H33623   6.840   3.355   0.762  0.7886  2.2443 -1.5603
  990MOL0     H33624   6.657   3.394   0.531  1.1811 -1.3386 -0.6593
  990MOL0     H33625   6.767   3.526   0.600 -0.5497 -0.5082 -0.6974
  990MOL0     H33626   6.552   3.365   0.724  0.3050 -0.2487 -0.7864
  990MOL0     H33627   6.646   3.499   0.809  1.2557  0.2957 -1.0243
  990MOL0     H33628   6.422   3.566   0.726 -0.7478 -2.0012 -2.0250
  990MOL0     H33629   6.468   3.541   0.562 -0.8331 -2.3429  0.0201
  990MOL0     H33630   6.639   3.712   0.577  2.3800 -0.5919  1.8181
  990MOL0     H33631   6.638   3.715   0.762 -1.0315  0.0596  1.4108
  990MOL0     H33632   7.457   3.021   0.564 -0.4135  1.0823  1.3756
  990MOL0     H33633   7.670   3.038   0.470  0.3227  0.1579 -0.6907
  990MOL0     H33634   7.885   3.512   0.184  1.0030  0.1892 -0.7234
  990MOL0     H33635   8.080   3.568   0.038  1.0079 -0.4577 -1.0944
  990MOL0     H33636   9.755   3.957   0.234  0.6896  2.0141 -0.3882
  990MOL0     H33637  10.002   4.050   0.234  1.4234 -1.5618  1.7811
  990MOL0     H33638  10.332   4.164  -0.085  2.4307  1.7254 -1.4570
  990MOL0     H33639  10.537   4.282  -0.098  0.1833  0.8201  1.6645
  990MOL0     H33640  10.906   4.102   0.063  0.5823 -3.1539 -0.1369
  990MOL0     H33641  10.895   4.025  -0.100  0.6030  0.1770  0.3019
  990MOL0     H33642  10.997   4.296  -0.023  1.2657 -0.3466  1.2234
  990MOL0     H33643  10.983   4.233  -0.190  0.9913  1.5084 -0.1462
  990MOL0     H33644  11.217   4.201  -0.111  0.8146 -0.4924  0.4173
  990MOL0     H33645  11.147   4.049  -0.150  3.5505 -0.8569  2.6107
  990MOL0     H33646  11.132   3.966   0.057  0.8018  0.5115 -0.7278
  990MOL0     H33647  11.142   4.126   0.144  1.1592  0.2084  1.7163
  990MOL0     H33648  11.535   3.991   0.018  0.7077  0.2089  2.2458
  990MOL0     H33649  10.733   3.914   0.016 -1.7422 -1.6660  2.4665
  990MOL0     H33650  10.534   3.820   0.077 -0.0490  0.5350  1.4258
  991MOL0     O33651   7.999   4.294   4.948 -0.3821  0.4007  0.3819
  991MOL0     C33652   7.941   4.228   5.038  0.7764  1.1112  0.7428
  991MOL0     O33653   7.818   4.166   5.020  0.5441  0.2655 -0.1299
  991MOL0     C33654   7.720   4.193   4.922  1.0067 -0.3337  0.5229
  991MOL0     C33655   7.724   4.314   4.842 -0.2067 -0.3426 -0.2121
  991MOL0     C33656   7.641   4.342   4.729 -0.1935  0.6545  0.2431
  991MOL0     C33657   7.536   4.249   4.711  0.6781 -0.6712 -0.3466
  991MOL0     O33658   7.452   4.253   4.599 -0.4511 -0.5480  0.0775
  991MOL0     C33659   7.435   4.379   4.550  1.2085 -0.3582 -0.3877
  991MOL0     C33660   7.291   4.395   4.492  0.3216 -0.1306  0.0941
  991MOL0     C33661   7.274   4.537   4.428  0.2102  0.2268 -0.0785
  991MOL0     C33662   7.134   4.542   4.357  0.1207  0.1414  0.6114
  991MOL0     C33663   7.121   4.453   4.236 -0.4051  0.3423 -0.8595
  991MOL0     C33664   7.180   4.497   4.097  0.8151  0.0254 -0.2469
  991MOL0     C33665   7.334   4.460   4.083 -0.4228 -0.2595 -0.7507
  991MOL0     C33666   7.386   4.510   3.948  0.3904 -0.5035 -0.6481
  991MOL0     N33667   7.335   4.433   3.838  0.1792  0.1565 -0.0681
  991MOL0     C33668   7.356   4.299   3.807  0.0004  0.9406 -1.0903
  991MOL0     C33669   7.315   4.284   3.678  0.2288  0.4991 -0.0042
  991MOL0     C33670   7.301   4.159   3.599  0.5661  0.1014 -0.7647
  991MOL0     C33671   7.160   4.164   3.544 -0.6237 -0.2142  0.3607
  991MOL0     C33672   7.132   4.043   3.454 -0.4155 -0.0867 -1.0075
  991MOL0     C33673   7.013   4.051   3.372 -0.0222  0.9555 -0.0134
  991MOL0     O33674   7.002   3.931   3.297 -0.2871  0.0943  0.0464
  991MOL0     C33675   6.888   3.907   3.228  0.7041  0.2030 -0.2839
  991MOL0     C33676   6.893   3.787   3.155 -0.1259  0.3347  0.7405
  991MOL0     C33677   6.782   3.738   3.085 -0.5008 -0.2284  1.1695
  991MOL0     C33678   6.797   3.607   3.019 -0.0555 -0.2731 -0.1637
  991MOL0     C33679   6.670   3.822   3.080 -0.0500  0.2929 -0.2210
  991MOL0     C33680   6.551   3.794   2.997  0.7672 -0.1840  1.0044
  991MOL0     O33681   6.478   3.898   2.970  0.3205  0.2055 -0.0666
  991MOL0     C33682   6.353   3.874   2.912  0.2128  0.7652  0.2466
  991MOL0     C33683   6.308   3.950   2.801 -0.7158  0.3875  0.3010
  991MOL0     C33684   6.176   3.939   2.740 -0.5353  0.6121  0.3631
  991MOL0     C33685   6.092   3.845   2.790 -0.2053  0.3604  0.2660
  991MOL0     O33686   5.963   3.853   2.742  0.1871 -0.0425  0.5865
  991MOL0     C33687   5.870   3.744   2.763 -0.2881 -0.1041 -0.4046
  991MOL0     C33688   5.735   3.791   2.708  0.0160 -0.5037  0.8458
  991MOL0     C33689   5.635   3.695   2.689  0.7264  0.2209 -0.2770
  991MOL0     C33690   5.510   3.764   2.650  0.6098 -0.5177 -0.1018
  991MOL0     C33691   5.403   3.664   2.606 -0.0883 -0.5144  0.2220
  991MOL0     C33692   5.265   3.735   2.566 -0.4927  0.2288 -0.4180
  991MOL0     C33693   5.179   3.631   2.492  0.0702  0.6306 -0.8866
  991MOL0     C33694   5.041   3.688   2.463  0.4661 -0.3815 -0.7740
  991MOL0    Cl33695   5.076   3.786   2.326 -0.3352  0.1988 -0.2133
  991MOL0     C33696   6.132   3.767   2.906 -0.3097  0.4296 -0.1316
  991MOL0     C33697   6.258   3.781   2.965  0.3120  0.1855  0.1849
  991MOL0     O33698   6.532   3.676   2.957  0.5473 -0.3219  0.2148
  991MOL0     C33699   6.663   3.945   3.152  0.3775 -0.3143  0.5069
  991MOL0     C33700   6.769   3.978   3.231  0.4934  1.4608  0.3109
  991MOL0     N33701   7.284   4.415   3.633 -0.2449  0.2005  0.2404
  991MOL0     N33702   7.291   4.499   3.725  0.1397 -0.2937  0.2203
  991MOL0     C33703   7.527   4.132   4.794  0.4487 -0.0692 -0.4433
  991MOL0     C33704   7.621   4.103   4.893  0.2833  0.0035  0.5810
  991MOL0     C33705   8.020   4.211   5.164 -0.1848 -0.1096 -0.3016
  991MOL0     C33706   8.140   4.289   5.185  0.5975  0.0442  0.4098
  991MOL0     C33707   8.204   4.287   5.309  0.1159  0.1961  0.2026
  991MOL0     C33708   8.162   4.200   5.411 -0.7967  0.2833  0.5299
  991MOL0     O33709   8.219   4.197   5.529  0.2783 -0.3365 -0.3130
  991MOL0     C33710   8.319   4.301   5.553 -0.7636 -0.2389 -0.0116
  991MOL0     C33711   8.377   4.288   5.695  0.3063 -0.3269  0.1811
  991MOL0     C33712   8.463   4.163   5.698 -0.8638  0.7030 -0.6807
  991MOL0     C33713   8.568   4.176   5.817 -0.5240 -0.3166  0.7850
  991MOL0     C33714   8.658   4.061   5.830 -0.8295  0.2433 -0.3035
  991MOL0     C33715   8.725   3.957   5.844  0.3984 -0.1627 -0.9469
  991MOL0     C33716   8.055   4.110   5.386 -0.5736 -0.8809 -0.0704
  991MOL0     C33717   7.981   4.123   5.268 -0.8150  0.5425 -0.4241
  991MOL0     H33718   7.789   4.393   4.878 -0.1580 -0.2299 -0.5420
  991MOL0     H33719   7.636   4.434   4.673 -1.6722 -0.4234 -1.5265
  991MOL0     H33720   7.439   4.449   4.634 -0.3192 -1.0583  0.3092
  991MOL0     H33721   7.503   4.401   4.466  0.3608 -1.9289 -1.5399
  991MOL0     H33722   7.265   4.318   4.419 -0.2058  0.8638 -0.7848
  991MOL0     H33723   7.234   4.377   4.583  2.8852 -2.6897  1.3803
  991MOL0     H33724   7.269   4.591   4.523 -2.2475 -2.2763  1.3782
  991MOL0     H33725   7.364   4.565   4.372  0.4603  1.6014  0.9543
  991MOL0     H33726   7.063   4.518   4.437 -0.6219  0.8418  0.1816
  991MOL0     H33727   7.106   4.647   4.339 -1.7940 -0.1765  1.4893
  991MOL0     H33728   7.156   4.353   4.264 -1.1263  0.3036 -0.0482
  991MOL0     H33729   7.013   4.448   4.222 -0.4657 -1.6659 -0.0812
  991MOL0     H33730   7.125   4.449   4.016  0.0885  1.4094 -0.6057
  991MOL0     H33731   7.161   4.604   4.094  2.4254  0.6429  4.0689
  991MOL0     H33732   7.389   4.515   4.160 -0.3828  0.2712 -1.1571
  991MOL0     H33733   7.354   4.352   4.089 -1.5853 -0.5716 -1.9891
  991MOL0     H33734   7.496   4.508   3.941  0.5661  0.8865  1.0865
  991MOL0     H33735   7.358   4.615   3.952  0.8435 -0.2030 -3.3886
  991MOL0     H33736   7.382   4.217   3.873 -0.9032 -0.3270 -2.2617
  991MOL0     H33737   7.381   4.168   3.525  2.4367  0.1819  1.1658
  991MOL0     H33738   7.314   4.068   3.659  2.5133 -0.1255 -1.4400
  991MOL0     H33739   7.139   4.256   3.488 -3.5105 -0.2113  1.2836
  991MOL0     H33740   7.087   4.178   3.624 -1.6395  1.7215 -0.8147
  991MOL0     H33741   7.113   3.956   3.518 -1.0977 -0.2016 -1.3543
  991MOL0     H33742   7.224   4.034   3.395 -0.9081 -3.3502 -1.4684
  991MOL0     H33743   7.018   4.134   3.301  0.3542  2.0699  1.2909
  991MOL0     H33744   6.921   4.061   3.431 -0.0958 -1.2767  0.3306
  991MOL0     H33745   6.990   3.740   3.143 -1.1035 -1.2419 -1.7173
  991MOL0     H33746   6.751   3.614   2.920  2.9461  1.3932 -1.5695
  991MOL0     H33747   6.901   3.575   3.003 -0.3631 -1.2101 -0.3621
  991MOL0     H33748   6.755   3.529   3.083 -0.7854  2.2086  2.6023
  991MOL0     H33749   6.379   4.021   2.761 -0.3822 -1.0417 -1.7443
  991MOL0     H33750   6.157   4.003   2.655  1.5397  1.2962  0.3595
  991MOL0     H33751   5.906   3.655   2.711 -4.1560 -1.7833 -0.5302
  991MOL0     H33752   5.870   3.716   2.869  0.5838  0.3376 -0.2742
  991MOL0     H33753   5.705   3.870   2.777 -0.6338 -0.1453  0.1745
  991MOL0     H33754   5.758   3.838   2.612 -2.1879 -0.4657  0.2802
  991MOL0     H33755   5.614   3.643   2.783  0.4437  1.2329  0.2337
  991MOL0     H33756   5.663   3.618   2.617  2.9591  0.2270  0.5101
  991MOL0     H33757   5.469   3.817   2.736 -1.1020  0.5455 -1.5089
  991MOL0     H33758   5.526   3.843   2.575 -0.5034  0.3235  0.5140
  991MOL0     H33759   5.388   3.596   2.690 -0.3147 -2.6431 -1.4594
  991MOL0     H33760   5.438   3.606   2.521 -3.5300 -2.6834  0.0848
  991MOL0     H33761   5.214   3.778   2.653  1.2994  1.8263 -0.0860
  991MOL0     H33762   5.277   3.824   2.503 -0.9674  2.2145  2.1501
  991MOL0     H33763   5.169   3.548   2.563  0.2509  1.5113  0.1869
  991MOL0     H33764   5.220   3.598   2.395 -1.4011 -1.3490 -0.8902
  991MOL0     H33765   4.999   3.744   2.547 -1.3925 -2.3672 -0.2870
  991MOL0     H33766   4.968   3.609   2.447  1.1851 -1.2752  0.1664
  991MOL0     H33767   6.076   3.684   2.948  0.5944 -0.6534 -0.9634
  991MOL0     H33768   6.276   3.727   3.057  1.4611  1.2923  0.6468
  991MOL0     H33769   6.576   4.009   3.161  1.6864  1.5603  0.4404
  991MOL0     H33770   6.757   4.058   3.304 -0.3970  1.6416 -0.0272
  991MOL0     H33771   7.443   4.062   4.794  0.2289 -0.2119  5.2968
  991MOL0     H33772   7.622   4.008   4.945 -0.1822  0.0470  0.6749
  991MOL0     H33773   8.181   4.357   5.111 -0.5877 -0.0366 -0.3588
  991MOL0     H33774   8.286   4.357   5.317 -0.1888  0.7992 -1.5293
  991MOL0     H33775   8.396   4.279   5.479 -1.1051  0.9549 -0.7349
  991MOL0     H33776   8.274   4.401   5.549 -2.8049 -1.0812  0.3565
  991MOL0     H33777   8.305   4.277   5.777  0.8055 -0.4780  0.6056
  991MOL0     H33778   8.437   4.377   5.714 -1.7373  1.0179  0.6489
  991MOL0     H33779   8.519   4.139   5.607 -0.0764 -2.1722  0.4553
  991MOL0     H33780   8.401   4.078   5.727 -0.2496  0.6595  0.5800
  991MOL0     H33781   8.515   4.194   5.911 -2.1243  0.9542 -0.2955
  991MOL0     H33782   8.619   4.272   5.804 -4.1252  1.8575  1.1843
  991MOL0     H33783   8.765   3.858   5.857 -0.4276 -0.2126  1.6521
  991MOL0     H33784   8.016   4.046   5.465  0.7068 -1.8559 -0.1989
  991MOL0     H33785   7.890   4.067   5.250 -1.2328  1.1052 -0.0815
  992MOL0     O33786   4.013   5.880   5.647  0.0997 -0.0063  0.0109
  992MOL0     C33787   4.084   5.791   5.601 -0.7297  0.0819  0.6050
  992MOL0     O33788   4.040   5.669   5.567 -0.0019  0.0789 -0.1834
  992MOL0     C33789   3.906   5.666   5.526 -0.4705  0.2310  0.1169
  992MOL0     C33790   3.830   5.551   5.555  0.4218 -0.4797  0.2620
  992MOL0     C33791   3.701   5.543   5.512 -0.8857  0.6418  0.0254
  992MOL0     C33792   3.645   5.645   5.438 -0.6999  0.1829 -0.1216
  992MOL0     O33793   3.521   5.647   5.382  0.4018 -0.2484 -0.4867
  992MOL0     C33794   3.423   5.543   5.396  0.7160  0.7346 -0.1459
  992MOL0     C33795   3.302   5.538   5.298 -0.0673  0.6415  0.0293
  992MOL0     C33796   3.190   5.631   5.353 -0.1944  0.5724  0.1857
  992MOL0     C33797   3.107   5.553   5.441  0.0986  0.0326 -0.1170
  992MOL0     C33798   2.975   5.620   5.480 -0.3267 -0.5577 -0.0652
  992MOL0     C33799   2.894   5.512   5.552  0.3794  0.0473  0.4726
  992MOL0     C33800   2.762   5.551   5.616  0.4228 -0.8300 -0.5725
  992MOL0     C33801   2.648   5.549   5.519  0.4591 -0.1725 -0.6401
  992MOL0     N33802   2.512   5.526   5.578  0.0244  0.2458 -0.8330
  992MOL0     C33803   2.440   5.623   5.637 -0.1127  0.0929  0.1021
  992MOL0     C33804   2.323   5.569   5.661  0.2487 -0.5431 -0.0766
  992MOL0     C33805   2.204   5.641   5.719 -0.3629  0.1439 -0.3688
  992MOL0     C33806   2.134   5.541   5.814  0.0450 -0.4449  0.0608
  992MOL0     C33807   2.006   5.599   5.876  0.5555 -0.0076  0.9068
  992MOL0     C33808   1.932   5.492   5.953 -0.3265  0.1218  0.1854
  992MOL0     O33809   1.858   5.543   6.057 -0.0045 -0.3809 -0.6959
  992MOL0     C33810   1.734   5.596   6.028 -0.2571 -0.2628 -1.2643
  992MOL0     C33811   1.702   5.716   6.097 -1.0091  0.0860  0.1321
  992MOL0     C33812   1.580   5.768   6.104  0.1781 -0.8786 -0.8168
  992MOL0     C33813   1.562   5.882   6.200 -0.7873  0.5076  0.3225
  992MOL0     C33814   1.476   5.707   6.024  0.0535  0.0500 -0.4534
  992MOL0     C33815   1.325   5.744   6.017 -0.2837 -0.5869  1.0285
  992MOL0     O33816   1.297   5.870   6.049 -0.2453 -0.5875 -0.1767
  992MOL0     C33817   1.171   5.908   6.082  0.1017  0.4890 -0.2925
  992MOL0     C33818   1.130   6.035   6.039 -0.3175  0.2407  0.9680
  992MOL0     C33819   0.998   6.073   6.056  1.1245  0.3173  0.3463
  992MOL0     C33820   0.904   6.003   6.127 -0.3088  0.1560  0.8252
  992MOL0     O33821   0.780   6.063   6.131  0.1621  0.6556  0.6038
  992MOL0     C33822   0.676   6.009   6.211  1.0673  0.8581 -0.3713
  992MOL0     C33823   0.608   5.897   6.127 -1.1344  0.0467  0.2669
  992MOL0     C33824   0.455   5.867   6.160  0.4045  0.5006 -0.0936
  992MOL0     C33825   0.361   5.980   6.121  0.0581 -0.1953  0.2667
  992MOL0     C33826   0.216   5.942   6.152 -0.2826 -0.8559 -0.3860
  992MOL0     C33827   0.186   5.920   6.294 -0.3745  0.3422  0.2897
  992MOL0     C33828   0.041   5.923   6.335 -0.3632 -0.7914 -0.2759
  992MOL0     C33829   0.005   6.060   6.395  0.7324 -0.6511  0.3357
  992MOL0    Cl33830   0.078   6.102   6.556  0.0104  0.1217  0.0527
  992MOL0     C33831   0.943   5.883   6.186 -0.1118 -0.4638  0.1313
  992MOL0     C33832   1.077   5.835   6.160  0.1734 -0.8923  0.6314
  992MOL0     O33833   1.244   5.656   5.990 -0.3100  0.3910 -0.8089
  992MOL0     C33834   1.512   5.597   5.948  1.0154  0.0275  0.0030
  992MOL0     C33835   1.636   5.540   5.947  1.1678 -0.3874 -0.3951
  992MOL0     N33836   2.328   5.428   5.627 -0.3984 -0.4970  0.2749
  992MOL0     N33837   2.444   5.406   5.579 -0.3592 -0.2833 -0.4481
  992MOL0     C33838   3.721   5.760   5.416  0.5283 -0.1658  0.0829
  992MOL0     C33839   3.848   5.762   5.451 -0.6323 -0.7887  0.3487
  992MOL0     C33840   4.226   5.820   5.565  0.5395 -0.7817  0.1526
  992MOL0     C33841   4.282   5.945   5.608  1.1288 -0.0993  0.4569
  992MOL0     C33842   4.418   5.980   5.579  0.4807  0.2782 -0.3260
  992MOL0     C33843   4.493   5.891   5.505 -0.2747  0.6299  0.0802
  992MOL0     O33844   4.624   5.931   5.492 -0.4395 -0.4529  0.0975
  992MOL0     C33845   4.698   5.908   5.368  0.4058 -0.1879 -0.1128
  992MOL0     C33846   4.847   5.921   5.398  0.7343  0.4591 -0.2836
  992MOL0     C33847   4.903   5.814   5.497 -0.1481 -0.3952 -0.1442
  992MOL0     C33848   5.020   5.855   5.589  0.4808  0.3619 -1.4156
  992MOL0     C33849   5.152   5.843   5.521  0.2991 -0.7977 -0.8860
  992MOL0     C33850   5.260   5.845   5.469  0.1351 -1.0014  0.2878
  992MOL0     C33851   4.444   5.770   5.464  0.5228  0.5344 -0.6919
  992MOL0     C33852   4.308   5.734   5.490  0.8474  0.6108  0.2076
  992MOL0     H33853   3.882   5.465   5.595  1.3576 -0.2052 -0.3485
  992MOL0     H33854   3.654   5.446   5.529  0.9968  0.1693  3.6526
  992MOL0     H33855   3.468   5.444   5.381 -2.0664 -0.1854 -3.7870
  992MOL0     H33856   3.392   5.549   5.501  3.9501  1.8455  0.8702
  992MOL0     H33857   3.324   5.577   5.199  0.4736 -0.6386 -0.3692
  992MOL0     H33858   3.264   5.437   5.282 -0.2439  0.9362 -1.5326
  992MOL0     H33859   3.226   5.721   5.403 -1.5012  2.8130 -2.6196
  992MOL0     H33860   3.123   5.661   5.272  1.4478  1.0209 -1.0569
  992MOL0     H33861   3.069   5.466   5.388 -2.8888 -0.2996  2.2685
  992MOL0     H33862   3.171   5.523   5.525  1.2617 -2.1805 -1.6998
  992MOL0     H33863   2.998   5.708   5.539  0.6257  0.1818 -1.4863
  992MOL0     H33864   2.927   5.647   5.385  1.6112  2.7593 -0.2301
  992MOL0     H33865   2.864   5.446   5.471  1.7158  1.4803 -1.2627
  992MOL0     H33866   2.959   5.456   5.619  1.8714 -1.2645 -1.9345
  992MOL0     H33867   2.735   5.485   5.699 -0.3042  1.8370  1.4529
  992MOL0     H33868   2.770   5.650   5.663 -1.4378 -0.9459  0.0698
  992MOL0     H33869   2.664   5.461   5.455 -2.7770 -1.2728 -0.1052
  992MOL0     H33870   2.633   5.634   5.452 -3.8188 -0.3756 -0.1946
  992MOL0     H33871   2.470   5.727   5.649  0.9831  0.2632 -3.0589
  992MOL0     H33872   2.246   5.724   5.777 -0.0932 -1.4546  1.8899
  992MOL0     H33873   2.133   5.675   5.644 -1.1317 -1.6510 -0.5168
  992MOL0     H33874   2.204   5.494   5.883  2.3117 -0.0902 -1.8817
  992MOL0     H33875   2.095   5.460   5.753  0.5828 -0.4126 -0.3269
  992MOL0     H33876   1.946   5.638   5.794  2.3763  0.1480 -0.4311
  992MOL0     H33877   2.035   5.679   5.944  3.5547 -2.0597  2.2700
  992MOL0     H33878   2.003   5.421   5.997  0.3770 -0.1116 -1.2487
  992MOL0     H33879   1.868   5.441   5.880 -1.0174 -0.0442  0.8954
  992MOL0     H33880   1.786   5.753   6.155 -1.0186 -2.1083  1.6759
  992MOL0     H33881   1.511   5.849   6.291  0.1759 -1.8954  0.0718
  992MOL0     H33882   1.659   5.913   6.240 -0.3634 -0.6733  0.2630
  992MOL0     H33883   1.501   5.957   6.149 -3.5510 -0.7567  1.6188
  992MOL0     H33884   1.198   6.100   5.985  2.7510 -2.6528  1.0429
  992MOL0     H33885   0.958   6.169   6.024  0.3518  0.2790  1.1450
  992MOL0     H33886   0.716   5.971   6.306 -0.9759 -0.3154  0.0752
  992MOL0     H33887   0.603   6.087   6.232  0.4516  0.4387 -0.9519
  992MOL0     H33888   0.609   5.935   6.025 -3.2475 -0.9413 -0.1767
  992MOL0     H33889   0.661   5.801   6.119 -0.0218  0.8267 -2.9501
  992MOL0     H33890   0.449   5.843   6.266  5.3769  0.3291  0.3632
  992MOL0     H33891   0.426   5.773   6.112  1.0222 -0.8105  1.9509
  992MOL0     H33892   0.383   6.070   6.180 -1.2919  1.9393 -2.2746
  992MOL0     H33893   0.369   6.006   6.015 -1.6387 -0.7009 -0.0188
  992MOL0     H33894   0.179   5.861   6.087  2.1000 -0.5669 -2.2579
  992MOL0     H33895   0.150   6.025   6.126 -0.9260 -1.2100  0.0825
  992MOL0     H33896   0.233   5.830   6.335 -1.1733  0.7912  2.2953
  992MOL0     H33897   0.239   6.000   6.347 -0.0855  0.5300 -0.2819
  992MOL0     H33898   0.028   5.840   6.405 -0.1128  0.2670  1.0495
  992MOL0     H33899  -0.020   5.900   6.247  1.0537  1.0220 -1.8248
  992MOL0     H33900  -0.102   6.058   6.417  0.8029  1.4356  1.0802
  992MOL0     H33901   0.033   6.138   6.323  1.7251  1.3001  2.6944
  992MOL0     H33902   0.874   5.823   6.244 -0.2438 -3.1416 -2.5822
  992MOL0     H33903   1.100   5.737   6.202 -0.8329 -1.3330  0.1845
  992MOL0     H33904   1.435   5.536   5.901  0.2595  1.2369 -0.3698
  992MOL0     H33905   1.656   5.445   5.899  1.9613 -0.7062  0.5280
  992MOL0     H33906   3.677   5.854   5.383 -1.2848 -0.8710  0.3785
  992MOL0     H33907   3.904   5.848   5.416  0.0332 -1.5017 -0.4041
  992MOL0     H33908   4.211   6.007   5.661  3.0273  3.3571 -0.7484
  992MOL0     H33909   4.470   6.065   5.623 -0.0743  1.8680 -2.5403
  992MOL0     H33910   4.681   5.804   5.340  3.3739 -1.2658  1.6439
  992MOL0     H33911   4.652   5.966   5.287 -3.6771 -2.5176  0.2443
  992MOL0     H33912   4.853   6.022   5.439 -3.1496  1.3458 -1.5012
  992MOL0     H33913   4.911   5.907   5.310  1.5278 -0.4159  0.4036
  992MOL0     H33914   4.932   5.726   5.438  1.0520 -2.7146  3.5051
  992MOL0     H33915   4.819   5.770   5.553  0.5201 -2.7762 -0.8801
  992MOL0     H33916   5.036   5.789   5.675  0.3416 -0.0768 -1.7239
  992MOL0     H33917   5.004   5.959   5.619 -0.2135  0.4684 -2.1093
  992MOL0     H33918   5.353   5.868   5.421 -0.7301  1.6117 -0.2448
  992MOL0     H33919   4.505   5.700   5.407 -1.2374  0.7530 -2.9825
  992MOL0     H33920   4.277   5.633   5.465 -1.7980  1.6831 -1.2606
  993MOL0     O33921   6.039   7.955  10.705  0.1412 -0.1340  0.3283
  993MOL0     C33922   6.105   7.929  10.805  0.2828 -0.2275  0.2593
  993MOL0     O33923   6.047   7.927  10.928  0.1949  0.0701 -0.0438
  993MOL0     C33924   5.912   7.958  10.930 -0.1150  0.0715  0.0409
  993MOL0     C33925   5.859   8.092  10.956  0.7906  1.7382  0.0005
  993MOL0     C33926   5.724   8.119  10.968  0.6483 -0.0744  0.3469
  993MOL0     C33927   5.630   8.016  10.964  0.3357  0.4102  0.0016
  993MOL0     O33928   5.500   8.028  10.995  0.0248  0.5511 -0.2713
  993MOL0     C33929   5.442   8.154  10.987 -0.7587 -0.2342  0.9623
  993MOL0     C33930   5.296   8.154  11.009  0.0238  0.4207  0.4328
  993MOL0     C33931   5.245   8.079  11.128 -0.3967 -0.6045  0.6490
  993MOL0     C33932   5.307   8.140  11.250  0.5942 -0.3225 -0.7013
  993MOL0     C33933   5.223   8.102  11.374  0.2842  0.3401  0.3462
  993MOL0     C33934   5.093   8.169  11.395  0.5780 -0.6336  0.0166
  993MOL0     C33935   5.044   8.192  11.539  0.1378 -0.9855 -0.7305
  993MOL0     C33936   5.037   8.067  11.626  0.9712  0.1989 -0.2592
  993MOL0     N33937   4.970   8.098  11.756  0.1685  1.2676 -0.6881
  993MOL0     C33938   5.031   8.080  11.880  0.7265  0.0427  0.6080
  993MOL0     C33939   4.932   8.090  11.968  0.3298 -0.3786  0.0613
  993MOL0     C33940   4.958   8.059  12.117  0.8273  0.3708  0.0109
  993MOL0     C33941   4.845   7.986  12.191  1.1845  0.3465  1.1630
  993MOL0     C33942   4.747   8.083  12.251 -0.0919  0.2294  0.1442
  993MOL0     C33943   4.638   8.007  12.321 -0.5993 -0.5098 -0.6515
  993MOL0     O33944   4.544   8.099  12.372 -1.0366 -0.8493 -0.0017
  993MOL0     C33945   4.450   8.047  12.466 -0.1300 -0.1914  0.3933
  993MOL0     C33946   4.413   7.913  12.487 -0.4721 -0.5245  0.4648
  993MOL0     C33947   4.309   7.878  12.571 -0.3290  0.4498 -0.0594
  993MOL0     C33948   4.283   7.730  12.584 -0.1487  0.6239  0.1955
  993MOL0     C33949   4.233   7.975  12.643 -0.5506  0.1678  0.3786
  993MOL0     C33950   4.106   7.950  12.722 -0.4337  0.1644 -0.2600
  993MOL0     O33951   4.055   8.062  12.770 -0.1417 -0.4458 -0.9077
  993MOL0     C33952   3.957   8.045  12.866  0.3175  0.1852 -0.0722
  993MOL0     C33953   3.837   7.975  12.846 -0.1457 -0.2251 -0.1980
  993MOL0     C33954   3.748   7.951  12.949  0.1898 -0.4317 -0.6221
  993MOL0     C33955   3.774   8.008  13.083  0.0184  0.8550  0.5413
  993MOL0     O33956   3.680   7.996  13.190 -0.5069 -0.1835 -0.0269
  993MOL0     C33957   3.597   7.874  13.187 -0.4229 -1.0402 -0.3912
  993MOL0     C33958   3.503   7.878  13.315 -0.4012  0.6265  0.0554
  993MOL0     C33959   3.405   7.760  13.323  1.0556  0.3345  0.9339
  993MOL0     C33960   3.341   7.763  13.460  0.4246 -0.1441  0.3329
  993MOL0     C33961   3.190   7.757  13.435  0.3482 -0.3360  0.3110
  993MOL0     C33962   3.136   7.769  13.577 -0.0678  0.5287 -0.3856
  993MOL0     C33963   2.993   7.828  13.564  0.5066 -0.0790 -0.7578
  993MOL0     C33964   2.918   7.801  13.689 -0.4200  1.1074 -0.4269
  993MOL0    Cl33965   2.914   7.622  13.738 -0.1434  0.2324 -0.0206
  993MOL0     C33966   3.904   8.067  13.103  0.1513  0.6537  0.2246
  993MOL0     C33967   3.984   8.094  12.995 -0.1722 -0.5200 -0.0129
  993MOL0     O33968   4.073   7.839  12.744  0.0082 -0.3046  0.3215
  993MOL0     C33969   4.273   8.111  12.626 -0.0906 -0.3556 -0.6437
  993MOL0     C33970   4.372   8.146  12.536  0.0984 -0.9288  0.3587
  993MOL0     N33971   4.804   8.121  11.902 -0.1199 -0.3430  0.0335
  993MOL0     N33972   4.838   8.131  11.782  0.8925 -0.8321 -0.1284
  993MOL0     C33973   5.673   7.891  10.937 -1.2665  1.1204 -0.4321
  993MOL0     C33974   5.808   7.863  10.921  0.5655  0.3413  0.2785
  993MOL0     C33975   6.242   7.887  10.798  0.7002 -0.0374 -0.4744
  993MOL0     C33976   6.316   7.941  10.690 -0.7762 -0.6192 -0.3992
  993MOL0     C33977   6.454   7.934  10.692  0.0297 -0.5190  0.6871
  993MOL0     C33978   6.522   7.875  10.795 -0.8074  0.8760  0.1637
  993MOL0     O33979   6.661   7.853  10.807  0.0994 -0.4324  0.0388
  993MOL0     C33980   6.760   7.903  10.708  1.1756 -0.5304  0.3425
  993MOL0     C33981   6.895   7.834  10.727 -0.4544 -0.4644 -0.2915
  993MOL0     C33982   6.895   7.699  10.669  0.5795 -0.7438  0.4690
  993MOL0     C33983   6.856   7.576  10.753 -0.4077 -0.8775 -0.3840
  993MOL0     C33984   6.958   7.556  10.858  0.3379  1.1179 -0.6036
  993MOL0     C33985   7.055   7.529  10.925 -1.3273  0.7864 -0.0227
  993MOL0     C33986   6.452   7.827  10.906  0.1038  1.3379  0.2738
  993MOL0     C33987   6.311   7.828  10.907  0.3665  0.3731  0.6097
  993MOL0     H33988   5.934   8.170  10.969  2.2630  0.7068 -1.8341
  993MOL0     H33989   5.690   8.222  10.976 -0.8732 -0.6416  1.7865
  993MOL0     H33990   5.500   8.219  11.054  1.6124 -0.7646 -0.4432
  993MOL0     H33991   5.458   8.193  10.886  0.0530 -1.1054  0.7341
  993MOL0     H33992   5.253   8.254  10.998  1.7641  0.9907 -2.3170
  993MOL0     H33993   5.246   8.100  10.928 -1.0137 -0.5432  1.6668
  993MOL0     H33994   5.137   8.081  11.118 -0.4120  0.8756  0.8178
  993MOL0     H33995   5.266   7.972  11.120 -0.0948 -0.4784 -0.2710
  993MOL0     H33996   5.403   8.088  11.257  0.0602 -1.6757 -2.6202
  993MOL0     H33997   5.328   8.247  11.245 -0.6915  0.2235  2.7360
  993MOL0     H33998   5.214   7.993  11.374  0.6927  0.2192  3.0492
  993MOL0     H33999   5.285   8.128  11.461  1.6078 -0.1749 -0.4022
  993MOL0     H34000   5.100   8.267  11.349  0.1683  0.2222  1.6894
  993MOL0     H34001   5.014   8.126  11.332 -0.4286  1.2085 -0.0540
  993MOL0     H34002   5.107   8.258  11.600 -0.2839  0.3519 -1.7083
  993MOL0     H34003   4.947   8.242  11.534  0.4148 -0.0238  1.9185
  993MOL0     H34004   5.137   8.031  11.654  1.1661  1.7765  1.2712
  993MOL0     H34005   4.988   7.987  11.570 -1.1679 -0.2454  2.0575
  993MOL0     H34006   5.129   8.047  11.911  0.8268  0.8630  1.1721
  993MOL0     H34007   5.048   7.998  12.121  2.4664  2.7079  2.2422
  993MOL0     H34008   4.993   8.153  12.162  0.7397  1.3352 -1.8336
  993MOL0     H34009   4.888   7.929  12.274  0.3383 -0.2996  1.1760
  993MOL0     H34010   4.803   7.916  12.117 -0.3363  2.1963  0.1999
  993MOL0     H34011   4.699   8.144  12.174 -0.3109 -0.4841 -0.2888
  993MOL0     H34012   4.796   8.150  12.322  1.3803 -1.4326  0.7654
  993MOL0     H34013   4.679   7.952  12.406 -2.6163  0.4227  0.9935
  993MOL0     H34014   4.595   7.938  12.248 -1.4960 -2.8671  1.9133
  993MOL0     H34015   4.465   7.839  12.427 -3.4086 -1.7744 -0.7608
  993MOL0     H34016   4.297   7.712  12.691 -1.0150  2.1352  0.5972
  993MOL0     H34017   4.179   7.703  12.564  0.1600  0.0038 -0.6215
  993MOL0     H34018   4.353   7.670  12.525 -0.4395 -0.9006  1.3198
  993MOL0     H34019   3.819   7.940  12.745  0.9891  2.4106 -1.4130
  993MOL0     H34020   3.661   7.890  12.927 -1.0578  1.7350 -2.0918
  993MOL0     H34021   3.536   7.866  13.096  0.7894 -4.8545 -1.0383
  993MOL0     H34022   3.653   7.780  13.198  1.3689  0.2144  2.3695
  993MOL0     H34023   3.570   7.874  13.402  0.9817 -0.7464 -0.9932
  993MOL0     H34024   3.449   7.973  13.315 -1.1946  0.1834 -0.6591
  993MOL0     H34025   3.451   7.663  13.302  1.1490  0.4937  0.3810
  993MOL0     H34026   3.324   7.768  13.249  0.8851 -0.3246  1.0489
  993MOL0     H34027   3.378   7.687  13.530  3.6597  0.5658 -0.4374
  993MOL0     H34028   3.358   7.862  13.503  0.0250 -0.7638  1.9789
  993MOL0     H34029   3.160   7.668  13.380 -0.9202  2.0855 -3.2523
  993MOL0     H34030   3.150   7.836  13.371 -0.5266 -0.8579  0.1999
  993MOL0     H34031   3.128   7.674  13.630  0.6474 -0.1380 -1.4450
  993MOL0     H34032   3.179   7.844  13.644 -0.1325  0.6999 -0.5334
  993MOL0     H34033   2.940   7.781  13.481 -0.1161 -1.5416  0.4044
  993MOL0     H34034   2.994   7.937  13.558 -0.1257  0.2451  2.6476
  993MOL0     H34035   2.813   7.825  13.673 -0.5595  0.9466  0.2310
  993MOL0     H34036   2.960   7.860  13.771 -1.3744  0.0780  0.8441
  993MOL0     H34037   3.921   8.105  13.203 -0.0659 -3.4923  2.0319
  993MOL0     H34038   4.088   8.123  13.004 -0.9099  1.7849  2.2046
  993MOL0     H34039   4.224   8.194  12.674 -1.1697 -1.2741 -0.0980
  993MOL0     H34040   4.387   8.251  12.511 -0.4225 -1.3393 -1.9510
  993MOL0     H34041   5.595   7.816  10.926  1.3356 -1.8716  0.2762
  993MOL0     H34042   5.839   7.760  10.906  0.1169  0.1559  0.5937
  993MOL0     H34043   6.266   7.993  10.610 -1.2821 -0.4591  0.0122
  993MOL0     H34044   6.507   7.976  10.607 -0.5126  0.7188  0.9399
  993MOL0     H34045   6.716   7.891  10.609 -1.5806  2.8676  0.9490
  993MOL0     H34046   6.775   8.011  10.713 -0.6462 -0.1888 -0.6823
  993MOL0     H34047   6.929   7.840  10.831 -2.4260 -1.6387  0.4755
  993MOL0     H34048   6.971   7.890  10.672  1.0072 -1.1627  0.9493
  993MOL0     H34049   6.998   7.685  10.633  1.1888  1.4049  1.2078
  993MOL0     H34050   6.842   7.705  10.573  1.2761 -0.6832  0.0726
  993MOL0     H34051   6.852   7.481  10.699 -1.3345 -2.3131  2.0418
  993MOL0     H34052   6.764   7.589  10.810 -0.6862 -0.9273 -0.8252
  993MOL0     H34053   7.140   7.513  10.988 -0.5942  1.8034 -0.7247
  993MOL0     H34054   6.518   7.802  10.989 -2.5550  0.5761  2.3115
  993MOL0     H34055   6.263   7.800  11.001 -1.0109  2.7354  0.6786
  994MOL0     O34056   3.449   6.302   1.331  0.0689  0.1098 -0.3192
  994MOL0     C34057   3.490   6.399   1.395  0.5987 -0.6442  0.2229
  994MOL0     O34058   3.417   6.503   1.441  0.4799  0.9989  0.2111
  994MOL0     C34059   3.281   6.496   1.427 -0.8318 -0.5433  0.3524
  994MOL0     C34060   3.210   6.564   1.324 -0.2246 -1.7550 -0.7194
  994MOL0     C34061   3.069   6.565   1.316 -0.6637 -0.4540 -0.4411
  994MOL0     C34062   2.993   6.490   1.414 -0.6663  0.4100  0.5595
  994MOL0     O34063   2.854   6.483   1.417  0.3419  0.0182 -0.5873
  994MOL0     C34064   2.779   6.538   1.306 -0.8320  0.3413  0.1293
  994MOL0     C34065   2.634   6.551   1.348  0.3617 -0.4150  0.4899
  994MOL0     C34066   2.559   6.425   1.388  0.5669 -0.4500  0.1259
  994MOL0     C34067   2.423   6.455   1.434  0.2773 -0.1937 -1.0054
  994MOL0     C34068   2.340   6.328   1.456 -0.3403 -0.6883 -0.5677
  994MOL0     C34069   2.216   6.363   1.537 -0.3582  0.4956 -0.3681
  994MOL0     C34070   2.156   6.237   1.606 -1.2907  0.4091 -0.9471
  994MOL0     C34071   2.092   6.140   1.502 -0.1439  0.6382  0.5751
  994MOL0     N34072   2.063   6.011   1.555  0.4378 -0.3739 -0.3511
  994MOL0     C34073   1.951   5.976   1.627 -0.2767  0.9530 -0.6617
  994MOL0     C34074   1.935   5.839   1.617 -0.0864  1.2621 -0.2829
  994MOL0     C34075   1.817   5.755   1.675  0.3962 -0.2314 -0.4093
  994MOL0     C34076   1.678   5.812   1.642  0.9869 -0.5761 -0.2088
  994MOL0     C34077   1.561   5.750   1.715  1.5099 -0.4815  0.5764
  994MOL0     C34078   1.424   5.826   1.699 -0.0326 -0.5878 -0.6299
  994MOL0     O34079   1.317   5.765   1.777 -0.5491  0.1749 -0.5456
  994MOL0     C34080   1.211   5.841   1.823  0.0212  0.0953  0.1753
  994MOL0     C34081   1.167   5.959   1.768  0.4868  1.2160 -0.4857
  994MOL0     C34082   1.046   6.030   1.805 -0.0820 -1.0389 -0.6601
  994MOL0     C34083   1.009   6.137   1.708 -0.2340  0.8940 -0.6983
  994MOL0     C34084   0.956   5.974   1.898 -0.1701 -0.5885  0.0054
  994MOL0     C34085   0.811   6.016   1.926  0.2831 -1.7328  0.3268
  994MOL0     O34086   0.726   5.936   1.989 -0.3752 -0.3922  0.0930
  994MOL0     C34087   0.596   5.964   2.009 -0.6810  1.2679  0.0221
  994MOL0     C34088   0.495   5.909   1.925 -0.4137 -0.2840  0.1302
  994MOL0     C34089   0.358   5.932   1.954 -0.2764  0.3712 -0.4548
  994MOL0     C34090   0.319   6.026   2.049  0.3221 -0.1850 -0.2692
  994MOL0     O34091   0.195   6.066   2.077  0.0905  0.3049 -1.0534
  994MOL0     C34092   0.097   5.955   2.066 -0.2041  0.7580  0.8123
  994MOL0     C34093  -0.034   6.012   2.109  0.3932 -0.7273 -0.2250
  994MOL0     C34094  -0.139   5.899   2.114 -1.3342  0.0835 -0.0561
  994MOL0     C34095  -0.274   5.939   2.154 -0.5519 -0.4828 -0.3889
  994MOL0     C34096  -0.358   5.831   2.216 -0.6817 -0.1373 -0.5179
  994MOL0     C34097  -0.488   5.883   2.269  0.1565 -0.9071 -0.3039
  994MOL0     C34098  -0.593   5.896   2.155  0.4142  0.5234  0.6122
  994MOL0     C34099  -0.728   5.934   2.217 -0.6627  0.4218  0.0249
  994MOL0    Cl34100  -0.831   5.974   2.081  0.4067  0.0575 -0.6131
  994MOL0     C34101   0.421   6.078   2.121 -0.5558  0.6300  0.5016
  994MOL0     C34102   0.557   6.048   2.113 -0.8523  0.3512 -0.5319
  994MOL0     O34103   0.787   6.140   1.905  0.5126  0.7984  1.0062
  994MOL0     C34104   1.017   5.861   1.968  0.0321  0.5927 -0.1390
  994MOL0     C34105   1.135   5.791   1.927  0.9316 -0.0812  0.3748
  994MOL0     N34106   2.049   5.790   1.559  0.3419  0.3658  0.7247
  994MOL0     N34107   2.120   5.890   1.520  0.7489  0.0327 -0.1279
  994MOL0     C34108   3.058   6.402   1.502  0.0339 -0.0921  0.2487
  994MOL0     C34109   3.197   6.405   1.502  0.7190 -0.1188  0.0633
  994MOL0     C34110   3.634   6.418   1.414 -0.1271 -0.2049 -0.1296
  994MOL0     C34111   3.732   6.317   1.395 -0.3590 -0.4530 -0.0047
  994MOL0     C34112   3.867   6.345   1.382 -0.6485  0.0247  0.3725
  994MOL0     C34113   3.920   6.476   1.408 -0.2131  0.7283 -0.2591
  994MOL0     O34114   4.053   6.509   1.411 -0.3829 -0.1404 -0.1861
  994MOL0     C34115   4.165   6.424   1.383 -0.1044  0.3579  0.0837
  994MOL0     C34116   4.179   6.311   1.491  0.1092 -0.0142 -0.1143
  994MOL0     C34117   4.213   6.380   1.623 -0.4985  0.2414  0.0855
  994MOL0     C34118   4.224   6.281   1.738 -0.2118 -0.4373  0.3617
  994MOL0     C34119   4.359   6.218   1.726 -0.3514  0.3010  0.1241
  994MOL0     C34120   4.468   6.175   1.740 -0.2582 -0.7836 -0.3278
  994MOL0     C34121   3.827   6.569   1.447 -0.0664 -0.6294  0.2261
  994MOL0     C34122   3.688   6.545   1.446  0.4983  0.4567  0.9839
  994MOL0     H34123   3.274   6.607   1.247 -0.3450 -4.0447 -2.2181
  994MOL0     H34124   3.024   6.624   1.238  2.2982 -0.3299 -2.2184
  994MOL0     H34125   2.816   6.640   1.288  0.2386 -0.1169 -0.3765
  994MOL0     H34126   2.790   6.473   1.219  0.8604 -1.6420  1.7018
  994MOL0     H34127   2.635   6.625   1.429 -3.5001  0.2979  0.0981
  994MOL0     H34128   2.577   6.594   1.264 -0.1873  0.0037  1.0677
  994MOL0     H34129   2.545   6.366   1.296 -1.4106  1.1940 -0.7170
  994MOL0     H34130   2.618   6.367   1.459  1.1913 -0.8206 -0.6764
  994MOL0     H34131   2.426   6.508   1.530 -0.7865 -2.4979  0.3914
  994MOL0     H34132   2.366   6.525   1.373 -1.9976 -0.9838  0.0926
  994MOL0     H34133   2.305   6.293   1.358 -1.9848 -1.6477  0.3115
  994MOL0     H34134   2.400   6.249   1.502  0.8818  0.5585  0.0427
  994MOL0     H34135   2.251   6.426   1.620 -0.8560 -1.4442  1.3959
  994MOL0     H34136   2.140   6.415   1.479 -1.5614  0.1166  0.8287
  994MOL0     H34137   2.232   6.188   1.666 -3.6605  0.5287  2.4730
  994MOL0     H34138   2.080   6.282   1.671 -1.0947  0.6596 -0.8886
  994MOL0     H34139   2.168   6.128   1.424  0.1346  1.5632  0.6897
  994MOL0     H34140   2.006   6.176   1.444 -0.1834  1.3168  1.0320
  994MOL0     H34141   1.883   6.045   1.677 -0.4350 -0.5654  1.3648
  994MOL0     H34142   1.828   5.652   1.640 -0.1424 -0.3578 -0.2091
  994MOL0     H34143   1.826   5.755   1.784  1.0772 -1.8068 -0.4476
  994MOL0     H34144   1.652   5.796   1.537 -2.8968 -0.0825  0.5083
  994MOL0     H34145   1.672   5.921   1.654  0.8176 -0.5162 -0.8039
  994MOL0     H34146   1.576   5.751   1.823 -2.7351 -2.4453  1.3898
  994MOL0     H34147   1.553   5.649   1.674  1.3443  0.5411 -2.1057
  994MOL0     H34148   1.403   5.838   1.592 -0.2258  0.8541 -0.4401
  994MOL0     H34149   1.443   5.922   1.747  0.3581 -0.5504 -0.8509
  994MOL0     H34150   1.230   5.992   1.686  2.9024 -0.3004  0.6571
  994MOL0     H34151   1.102   6.160   1.655  1.1039  0.8470  1.4869
  994MOL0     H34152   0.932   6.107   1.637  0.1727  0.4707 -0.9662
  994MOL0     H34153   0.979   6.229   1.759 -0.8727 -0.3523  1.3092
  994MOL0     H34154   0.512   5.831   1.851 -3.7721 -2.6824  1.6372
  994MOL0     H34155   0.283   5.897   1.883 -1.3175  0.8373  0.3865
  994MOL0     H34156   0.101   5.923   1.961  2.5014 -0.6853  1.2767
  994MOL0     H34157   0.114   5.871   2.134 -1.4035  0.2733  0.5453
  994MOL0     H34158  -0.027   6.058   2.207  0.5605 -0.0875 -0.5313
  994MOL0     H34159  -0.061   6.091   2.039 -0.8604  1.7226  2.8149
  994MOL0     H34160  -0.100   5.822   2.181  0.0581  0.1442 -0.7740
  994MOL0     H34161  -0.150   5.844   2.020  2.7319  0.1729 -0.7369
  994MOL0     H34162  -0.268   6.021   2.227 -0.0146  0.6169 -1.6212
  994MOL0     H34163  -0.325   5.986   2.070 -0.3856 -2.6938 -1.8107
  994MOL0     H34164  -0.293   5.785   2.290  0.7354  1.9405 -0.3761
  994MOL0     H34165  -0.370   5.753   2.140  2.3215  1.8821 -3.3584
  994MOL0     H34166  -0.518   5.822   2.355  0.6382  0.6942  1.0637
  994MOL0     H34167  -0.478   5.985   2.308 -0.9316 -0.1620 -1.8951
  994MOL0     H34168  -0.601   5.802   2.099  0.7397  1.7112 -1.5359
  994MOL0     H34169  -0.554   5.982   2.099  2.3070 -0.0274  0.9945
  994MOL0     H34170  -0.715   6.023   2.279 -0.7535  2.5094 -2.7589
  994MOL0     H34171  -0.770   5.851   2.275 -2.3236  0.3157 -1.2569
  994MOL0     H34172   0.389   6.140   2.204 -0.3447  1.8943 -0.3451
  994MOL0     H34173   0.626   6.089   2.186 -0.9719  0.0374 -0.2414
  994MOL0     H34174   0.951   5.810   2.038  1.5617 -0.3745  0.6369
  994MOL0     H34175   1.155   5.692   1.965  0.6827 -0.4474 -0.4378
  994MOL0     H34176   2.999   6.339   1.568  0.1103  0.2139  0.6107
  994MOL0     H34177   3.239   6.339   1.577 -0.2812  0.6684  1.3535
  994MOL0     H34178   3.701   6.213   1.387 -1.8259 -0.0246 -0.2060
  994MOL0     H34179   3.942   6.272   1.352 -2.6728 -1.7251 -0.6612
  994MOL0     H34180   4.149   6.387   1.281 -1.8434  2.5015 -0.4930
  994MOL0     H34181   4.254   6.488   1.383  1.0230 -1.0767 -2.1089
  994MOL0     H34182   4.263   6.242   1.473  0.6052  0.3494  0.7319
  994MOL0     H34183   4.087   6.255   1.506  0.9223 -0.7075  3.2422
  994MOL0     H34184   4.136   6.455   1.645  0.4837  1.1283  0.5657
  994MOL0     H34185   4.313   6.423   1.618 -0.3987  0.1791  1.2265
  994MOL0     H34186   4.142   6.208   1.742 -3.4725  2.7857 -1.8173
  994MOL0     H34187   4.210   6.341   1.828  1.8340 -1.4486  1.4349
  994MOL0     H34188   4.566   6.144   1.768  0.1609 -2.0207 -2.8662
  994MOL0     H34189   3.865   6.664   1.482 -0.5328  0.2397 -1.5537
  994MOL0     H34190   3.634   6.635   1.472 -0.3425  0.5951 -1.1048
  995MOL0     O34191   0.368   2.981   3.638 -0.2204 -0.5232 -0.4404
  995MOL0     C34192   0.364   3.030   3.750 -0.0499  0.1364 -0.5541
  995MOL0     O34193   0.261   3.043   3.832  0.5582 -0.2023 -0.0949
  995MOL0     C34194   0.124   3.033   3.787 -0.0946  0.4504  0.5038
  995MOL0     C34195   0.026   3.045   3.888 -0.3639  1.3867  0.6179
  995MOL0     C34196  -0.111   3.046   3.850  0.3145 -0.3616  0.6927
  995MOL0     C34197  -0.165   3.019   3.724 -0.0971 -0.4419  0.1002
  995MOL0     O34198  -0.300   3.019   3.693 -0.1873 -0.0860 -0.5234
  995MOL0     C34199  -0.401   3.055   3.798 -0.0011  0.2119 -0.0439
  995MOL0     C34200  -0.529   3.062   3.716  0.7745  0.1824 -0.4590
  995MOL0     C34201  -0.641   3.141   3.793 -0.2708  0.0913  0.0719
  995MOL0     C34202  -0.768   3.149   3.702 -0.0097  0.2222 -0.1080
  995MOL0     C34203  -0.890   3.199   3.789  0.3229 -0.0774 -0.0278
  995MOL0     C34204  -0.875   3.341   3.846  0.7099  0.7229 -0.2809
  995MOL0     C34205  -1.006   3.390   3.904  0.4888  0.0278  0.0658
  995MOL0     C34206  -0.997   3.537   3.955 -1.0614  0.2499 -0.7300
  995MOL0     N34207  -0.863   3.582   3.993 -0.0027  0.1545  0.3166
  995MOL0     C34208  -0.779   3.633   3.901  0.0880 -0.2861 -0.0455
  995MOL0     C34209  -0.669   3.658   3.965 -0.0028  0.3532 -0.6140
  995MOL0     C34210  -0.537   3.689   3.901  1.2321  0.5666  0.8038
  995MOL0     C34211  -0.546   3.798   3.795  0.1323 -0.0714  0.5873
  995MOL0     C34212  -0.566   3.920   3.865  0.8396 -0.4341  0.0252
  995MOL0     C34213  -0.575   4.036   3.762 -0.5839  0.3299 -0.7290
  995MOL0     O34214  -0.678   4.025   3.665  0.3420  0.3833  0.3030
  995MOL0     C34215  -0.802   4.013   3.724 -0.7362  0.3384 -0.0943
  995MOL0     C34216  -0.885   3.930   3.658 -0.0575 -0.3579  0.5704
  995MOL0     C34217  -1.014   3.906   3.704  0.5172 -0.8788  0.5821
  995MOL0     C34218  -1.106   3.825   3.618  1.0634  0.7059 -0.5856
  995MOL0     C34219  -1.057   3.964   3.827  0.7080  0.0876  0.3501
  995MOL0     C34220  -1.194   3.932   3.895  0.5802 -0.2135  0.0899
  995MOL0     O34221  -1.230   4.008   4.004 -0.0580  0.2832  0.3175
  995MOL0     C34222  -1.360   4.022   4.046 -1.4977  0.5327 -0.3886
  995MOL0     C34223  -1.393   4.031   4.181  0.1280  0.2979 -0.0944
  995MOL0     C34224  -1.524   4.033   4.229  0.7065 -0.2847 -0.5014
  995MOL0     C34225  -1.628   4.012   4.141 -0.1216  0.5603 -0.1250
  995MOL0     O34226  -1.762   4.004   4.176  0.7317 -0.3334 -0.9090
  995MOL0     C34227  -1.799   4.011   4.318  0.0489 -0.0899 -0.2516
  995MOL0     C34228  -1.951   4.009   4.333  0.1078  0.1955  0.0749
  995MOL0     C34229  -2.034   4.091   4.230  0.4334  0.0384  0.2264
  995MOL0     C34230  -2.179   4.030   4.224  0.7156  0.4349  0.3826
  995MOL0     C34231  -2.272   4.122   4.140  0.7495 -0.7385  0.4436
  995MOL0     C34232  -2.418   4.084   4.146  0.7302 -0.2040 -0.3536
  995MOL0     C34233  -2.446   3.971   4.059  0.0934 -0.3739  0.2333
  995MOL0     C34234  -2.591   3.922   4.065 -0.3368 -0.1974 -0.3902
  995MOL0    Cl34235  -2.700   4.011   3.949 -0.3522 -0.2779  0.3913
  995MOL0     C34236  -1.598   4.006   4.010  0.1098  0.0273 -0.3159
  995MOL0     C34237  -1.464   4.005   3.961 -0.1849  0.3765 -0.4337
  995MOL0     O34238  -1.255   3.829   3.857 -0.2878  0.3735 -0.6146
  995MOL0     C34239  -0.968   4.043   3.899  0.0183 -0.4933  0.0649
  995MOL0     C34240  -0.846   4.070   3.844  0.1621 -0.0786 -0.9458
  995MOL0     N34241  -0.686   3.642   4.102 -0.0134  0.9695 -1.3507
  995MOL0     N34242  -0.809   3.588   4.117 -0.4616  0.2755 -0.3362
  995MOL0     C34243  -0.073   3.003   3.628 -0.7113  0.5194  0.0952
  995MOL0     C34244   0.070   3.007   3.656 -0.7228  0.1105  1.0571
  995MOL0     C34245   0.504   3.056   3.804  0.1779  0.0078 -0.0813
  995MOL0     C34246   0.523   3.095   3.940 -0.1433  0.4661 -0.0901
  995MOL0     C34247   0.654   3.129   3.988  0.1137 -0.5065 -0.4316
  995MOL0     C34248   0.770   3.105   3.912  0.8504 -0.4757 -0.1659
  995MOL0     O34249   0.893   3.128   3.957 -1.0383  0.2031  0.1215
  995MOL0     C34250   1.009   3.162   3.876  0.2119 -0.1614  0.4498
  995MOL0     C34251   1.105   3.243   3.964 -0.0075 -0.3591 -0.4357
  995MOL0     C34252   1.162   3.146   4.069 -0.1553  0.2802 -0.2547
  995MOL0     C34253   1.259   3.198   4.172  0.1009  0.2077 -0.1654
  995MOL0     C34254   1.379   3.269   4.122  0.5073  0.2328 -0.5077
  995MOL0     C34255   1.466   3.330   4.065 -0.2670  0.3984 -0.3965
  995MOL0     C34256   0.756   3.066   3.775  0.6015  0.4325 -0.0915
  995MOL0     C34257   0.619   3.047   3.727 -0.2647 -0.2316  0.6675
  995MOL0     H34258   0.063   3.048   3.990  1.0064 -0.1825  0.2138
  995MOL0     H34259  -0.179   3.060   3.934  1.0344  0.7160  1.1133
  995MOL0     H34260  -0.424   2.981   3.875  0.7659 -1.0287 -0.9619
  995MOL0     H34261  -0.375   3.149   3.848  1.7922 -0.9253  1.3087
  995MOL0     H34262  -0.517   3.104   3.616  0.6541  0.9479 -0.1580
  995MOL0     H34263  -0.557   2.957   3.700 -0.0259 -0.0757  2.0942
  995MOL0     H34264  -0.664   3.104   3.893 -2.4690 -0.4026 -0.5569
  995MOL0     H34265  -0.605   3.244   3.799  0.8643 -0.3456  1.0443
  995MOL0     H34266  -0.731   3.211   3.620  3.1254 -1.2206  0.0631
  995MOL0     H34267  -0.791   3.049   3.664  1.9878 -0.6785  0.8778
  995MOL0     H34268  -0.987   3.201   3.739 -0.5287  1.9797  1.5382
  995MOL0     H34269  -0.901   3.124   3.867  1.2685  0.6110  0.7983
  995MOL0     H34270  -0.803   3.334   3.928  1.6438  0.0868 -1.1286
  995MOL0     H34271  -0.842   3.401   3.761 -1.8359  2.2200 -0.2989
  995MOL0     H34272  -1.083   3.387   3.827 -0.6455 -0.1261  1.1683
  995MOL0     H34273  -1.043   3.320   3.979 -1.0682  1.0247  0.2840
  995MOL0     H34274  -1.071   3.548   4.035  0.3095  1.6436  0.4104
  995MOL0     H34275  -1.040   3.603   3.879 -2.3881  1.1162  0.7157
  995MOL0     H34276  -0.800   3.634   3.795 -2.1055 -1.5790  0.3172
  995MOL0     H34277  -0.462   3.726   3.971  3.2207  0.2297 -1.0466
  995MOL0     H34278  -0.505   3.593   3.860  0.1037 -0.4878  2.2783
  995MOL0     H34279  -0.634   3.772   3.736  0.9289  0.4878 -0.8844
  995MOL0     H34280  -0.461   3.802   3.727 -0.4044  1.3778 -0.0351
  995MOL0     H34281  -0.488   3.942   3.938 -2.8874  1.9159  3.7721
  995MOL0     H34282  -0.660   3.911   3.921  1.4497 -0.0411  1.1402
  995MOL0     H34283  -0.483   4.042   3.702  1.5717 -3.4374  1.7977
  995MOL0     H34284  -0.573   4.124   3.827  0.8230 -1.8912  2.5025
  995MOL0     H34285  -0.847   3.908   3.559  3.0568  3.8708  0.5556
  995MOL0     H34286  -1.091   3.718   3.636  0.5789  1.0540  2.1792
  995MOL0     H34287  -1.213   3.844   3.630  0.8363  0.2439 -1.7024
  995MOL0     H34288  -1.082   3.858   3.516  0.6408 -0.9784 -1.2660
  995MOL0     H34289  -1.316   4.039   4.256 -2.1328  1.8074  2.2508
  995MOL0     H34290  -1.554   4.044   4.333  0.6731 -2.0164 -0.3077
  995MOL0     H34291  -1.761   3.935   4.387  1.6262  1.9681  1.2778
  995MOL0     H34292  -1.763   4.110   4.348  0.4341 -0.1749 -0.4223
  995MOL0     H34293  -1.994   3.909   4.323 -4.3240  1.7502  1.2673
  995MOL0     H34294  -1.982   4.038   4.434 -2.1009 -2.5130  0.3130
  995MOL0     H34295  -1.999   4.086   4.127 -1.0277  0.5954 -0.3170
  995MOL0     H34296  -2.040   4.194   4.265  0.2875  0.4264 -0.9117
  995MOL0     H34297  -2.182   3.940   4.162  0.7583  2.7190 -3.2274
  995MOL0     H34298  -2.218   4.017   4.326 -0.6734  2.5550  0.1921
  995MOL0     H34299  -2.244   4.124   4.034  0.0128 -1.2054  0.2368
  995MOL0     H34300  -2.268   4.222   4.184 -0.6923 -2.0652  3.8614
  995MOL0     H34301  -2.448   4.050   4.245  1.0848  1.8351  0.5147
  995MOL0     H34302  -2.479   4.172   4.122  4.3561  2.9446  0.8623
  995MOL0     H34303  -2.376   3.890   4.081 -0.3770 -0.7158  0.4960
  995MOL0     H34304  -2.432   4.001   3.954 -0.3209  1.2704  0.6205
  995MOL0     H34305  -2.632   3.937   4.166 -2.8949  1.1776 -1.5467
  995MOL0     H34306  -2.597   3.818   4.031  2.1606  0.4182 -3.1192
  995MOL0     H34307  -1.681   4.010   3.940 -0.4787  0.7804  0.3931
  995MOL0     H34308  -1.455   4.007   3.853 -3.2259 -0.2123 -0.7819
  995MOL0     H34309  -0.996   4.078   3.998 -1.8638 -1.4799 -0.0751
  995MOL0     H34310  -0.785   4.140   3.900 -0.3302 -0.5790  0.2558
  995MOL0     H34311  -0.106   2.991   3.525  0.3458  0.0514 -0.2095
  995MOL0     H34312   0.138   2.974   3.579 -0.4786  0.2912  1.1937
  995MOL0     H34313   0.430   3.100   3.997  0.4584 -4.3035  1.7939
  995MOL0     H34314   0.666   3.169   4.088  3.1801  1.7017 -1.5374
  995MOL0     H34315   1.065   3.076   3.837  2.8691 -0.1983  3.8379
  995MOL0     H34316   0.978   3.220   3.789  1.4275 -0.8256 -0.4652
  995MOL0     H34317   1.047   3.325   4.007 -0.1702 -0.4135 -0.5530
  995MOL0     H34318   1.190   3.292   3.915 -0.1076  1.8411  1.4146
  995MOL0     H34319   1.206   3.058   4.021  2.3666  1.2869  0.0385
  995MOL0     H34320   1.084   3.102   4.132  1.2610 -1.7609  0.1836
  995MOL0     H34321   1.293   3.111   4.229  1.8438 -0.8007 -2.5616
  995MOL0     H34322   1.204   3.254   4.248  1.7898  0.5725  0.8354
  995MOL0     H34323   1.545   3.374   4.008 -0.4406  2.3024  0.7576
  995MOL0     H34324   0.843   3.052   3.713  1.7367 -1.7926  1.8544
  995MOL0     H34325   0.609   3.010   3.625 -3.0986  2.6394 -0.2786
  996MOL0     O34326   8.874  10.158   4.736  0.5606  0.0820 -0.5272
  996MOL0     C34327   8.888  10.040   4.745 -0.2065 -0.6010 -0.6314
  996MOL0     O34328   8.798   9.944   4.710  0.2206  0.4307  0.1231
  996MOL0     C34329   8.675   9.998   4.687  0.2565 -0.8472  0.1961
  996MOL0     C34330   8.601  10.050   4.796 -0.8226  0.1177  1.1683
  996MOL0     C34331   8.463  10.086   4.785 -0.4545  0.4920 -0.3575
  996MOL0     C34332   8.386  10.076   4.671 -1.2445 -0.1647  0.7214
  996MOL0     O34333   8.255  10.077   4.676 -0.1987 -0.7362 -0.1917
  996MOL0     C34334   8.178  10.111   4.561 -0.0342 -0.2439  0.0191
  996MOL0     C34335   8.032  10.074   4.579  0.4818  0.6231 -0.7592
  996MOL0     C34336   7.933  10.078   4.467 -0.2917  0.4144  0.1718
  996MOL0     C34337   7.789  10.071   4.519 -0.2514 -0.1214  0.2191
  996MOL0     C34338   7.685  10.064   4.406 -0.5838 -0.0068  0.0044
  996MOL0     C34339   7.553  10.071   4.467  0.1274 -0.0826 -0.2104
  996MOL0     C34340   7.453  10.063   4.347  0.0505 -0.1170 -0.1990
  996MOL0     C34341   7.307  10.058   4.396 -0.0668  0.0046  0.7663
  996MOL0     N34342   7.266  10.194   4.406  0.0823  0.0496  0.3079
  996MOL0     C34343   7.287  10.277   4.517 -0.0795 -0.8433  0.8878
  996MOL0     C34344   7.224  10.394   4.480 -0.3765  0.7489 -0.8913
  996MOL0     C34345   7.199  10.503   4.590  0.3593 -0.3986  0.9124
  996MOL0     C34346   7.054  10.516   4.632  0.2623  0.2866  0.2226
  996MOL0     C34347   7.004  10.388   4.700 -0.2853  1.3662 -1.1964
  996MOL0     C34348   6.853  10.376   4.716  0.0801  0.0037 -0.7655
  996MOL0     O34349   6.822  10.243   4.774  0.3984 -0.3712  0.0634
  996MOL0     C34350   6.689  10.200   4.783 -0.0354 -0.5525 -0.0546
  996MOL0     C34351   6.576  10.284   4.766  0.3797 -0.1203  0.4994
  996MOL0     C34352   6.440  10.236   4.765  0.0588 -0.2222  0.3843
  996MOL0     C34353   6.332  10.336   4.740  0.8464 -0.8250  0.1555
  996MOL0     C34354   6.425  10.096   4.781  0.0553 -0.3544  0.3071
  996MOL0     C34355   6.285  10.046   4.765 -0.1330 -0.0313 -0.0709
  996MOL0     O34356   6.240   9.962   4.866  0.5807  0.3297  0.3517
  996MOL0     C34357   6.119   9.897   4.844 -0.7122 -0.0121  0.4265
  996MOL0     C34358   6.124   9.776   4.783  0.2639 -0.0304  0.5879
  996MOL0     C34359   6.010   9.711   4.745  0.4875  0.1078 -0.3822
  996MOL0     C34360   5.889   9.754   4.782 -0.0800  0.0513  0.0367
  996MOL0     O34361   5.781   9.671   4.765  0.4497  0.2223 -0.1745
  996MOL0     C34362   5.656   9.743   4.738  0.0428  0.0815 -0.6629
  996MOL0     C34363   5.573   9.659   4.645 -1.2493  0.9642  0.4738
  996MOL0     C34364   5.439   9.720   4.625  0.4326 -0.1808  0.3995
  996MOL0     C34365   5.361   9.649   4.511 -0.0946  0.1072 -0.0592
  996MOL0     C34366   5.249   9.729   4.445  0.1221 -0.2211  0.9931
  996MOL0     C34367   5.134   9.754   4.536  0.9914 -0.7943  0.6542
  996MOL0     C34368   5.010   9.772   4.447  0.2779  0.4339 -0.5298
  996MOL0     C34369   5.008   9.899   4.359 -0.5982  0.2008 -0.6956
  996MOL0    Cl34370   4.845   9.918   4.291 -0.1051  0.4225 -0.1628
  996MOL0     C34371   5.883   9.874   4.868  0.5500  0.5705  0.2335
  996MOL0     C34372   6.001   9.945   4.895 -1.0423 -0.1122  0.2830
  996MOL0     O34373   6.227  10.069   4.659  0.4700  0.2435  0.2653
  996MOL0     C34374   6.536  10.018   4.817  0.8064 -0.1178  1.7168
  996MOL0     C34375   6.670  10.065   4.812  0.7826 -0.2069 -0.3348
  996MOL0     N34376   7.166  10.378   4.356  0.2389 -0.4799 -0.2185
  996MOL0     N34377   7.197  10.264   4.308  0.0519 -0.3196 -0.3114
  996MOL0     C34378   8.464  10.040   4.558  0.0073 -0.0379  0.1697
  996MOL0     C34379   8.600  10.004   4.567  0.0300 -0.0698  0.7634
  996MOL0     C34380   9.028   9.998   4.789  0.2045 -0.4639  0.7565
  996MOL0     C34381   9.137  10.092   4.789 -0.4973 -0.7745 -0.4852
  996MOL0     C34382   9.264  10.043   4.811  0.7070 -0.0706  0.2695
  996MOL0     C34383   9.293   9.909   4.845 -0.5415  0.4510  0.4318
  996MOL0     O34384   9.420   9.864   4.862  0.2256 -0.6497 -0.8519
  996MOL0     C34385   9.530   9.950   4.870 -0.2065 -0.4847  0.1863
  996MOL0     C34386   9.652   9.876   4.926 -0.0262 -0.3126 -0.1475
  996MOL0     C34387   9.707   9.777   4.818  0.6210 -0.2626 -0.7855
  996MOL0     C34388   9.850   9.726   4.862 -0.6160  1.1137 -0.0619
  996MOL0     C34389   9.874   9.611   4.774 -0.1822  0.9094 -0.0218
  996MOL0     C34390   9.907   9.518   4.699 -1.0157 -0.0095  0.2994
  996MOL0     C34391   9.188   9.821   4.845  0.1687  0.1489 -0.3627
  996MOL0     C34392   9.059   9.865   4.814  0.5226  0.2168 -0.6882
  996MOL0     H34393   8.659  10.060   4.887  0.6512  0.9337  0.1725
  996MOL0     H34394   8.415  10.114   4.878  2.8068  0.6818  1.4408
  996MOL0     H34395   8.179  10.218   4.538 -1.0972 -0.5133 -1.3838
  996MOL0     H34396   8.222  10.053   4.479  4.5041 -0.7844  2.5371
  996MOL0     H34397   8.026   9.974   4.624 -0.1417  0.2751 -1.5851
  996MOL0     H34398   7.992  10.144   4.653 -2.6634  1.0807 -2.6986
  996MOL0     H34399   7.941  10.168   4.405  0.4407 -1.9566 -3.4879
  996MOL0     H34400   7.946   9.995   4.397  0.1912 -0.4273  1.2308
  996MOL0     H34401   7.783   9.979   4.579 -2.3930 -0.8583 -1.0402
  996MOL0     H34402   7.768  10.157   4.582  0.7852  1.0950 -1.0432
  996MOL0     H34403   7.708  10.147   4.340 -0.7373  1.7812  2.0966
  996MOL0     H34404   7.700   9.973   4.347  0.0058 -2.4178  3.5415
  996MOL0     H34405   7.527   9.986   4.531 -2.8478  0.9376  0.0862
  996MOL0     H34406   7.527  10.163   4.519 -1.0535  0.1329 -1.1431
  996MOL0     H34407   7.467  10.154   4.287  1.3170  0.4714  0.9117
  996MOL0     H34408   7.470   9.965   4.302  1.8658  0.1272 -0.1540
  996MOL0     H34409   7.301   9.998   4.487  3.1945  0.8899  1.6992
  996MOL0     H34410   7.240  10.011   4.324  1.4381 -1.2789  0.1526
  996MOL0     H34411   7.329  10.256   4.615  0.1292 -0.1456  0.9550
  996MOL0     H34412   7.269  10.480   4.670 -1.7154 -3.4209  2.0016
  996MOL0     H34413   7.236  10.599   4.550 -0.6828 -0.1722  0.4431
  996MOL0     H34414   6.997  10.525   4.539 -1.4209 -0.2250  1.1594
  996MOL0     H34415   7.035  10.602   4.697 -0.5995  2.2462 -2.4732
  996MOL0     H34416   7.050  10.372   4.798 -3.1478  1.3093  0.2514
  996MOL0     H34417   7.037  10.304   4.637 -1.5682  0.5631 -0.8373
  996MOL0     H34418   6.800  10.393   4.622  0.1227 -1.6905 -1.1240
  996MOL0     H34419   6.817  10.453   4.785 -3.6053 -0.3089 -2.1114
  996MOL0     H34420   6.597  10.389   4.749 -1.1476  0.4820  2.0457
  996MOL0     H34421   6.369  10.412   4.671  0.8485  1.8617  2.9506
  996MOL0     H34422   6.235  10.305   4.699 -1.3538  0.2766  4.0464
  996MOL0     H34423   6.297  10.398   4.822 -1.3889  2.1916 -2.7852
  996MOL0     H34424   6.219   9.728   4.763  1.0723  1.3493  1.0158
  996MOL0     H34425   6.033   9.618   4.693 -0.0909  0.0313 -0.5040
  996MOL0     H34426   5.596   9.760   4.827 -0.9288 -1.4170 -0.9811
  996MOL0     H34427   5.680   9.835   4.684  2.3808 -1.4817 -2.4966
  996MOL0     H34428   5.636   9.645   4.557 -1.6281 -1.1331  0.4864
  996MOL0     H34429   5.559   9.561   4.692  0.1518  0.2148 -0.6078
  996MOL0     H34430   5.455   9.824   4.595  1.7753 -1.1075 -2.5070
  996MOL0     H34431   5.377   9.726   4.715 -0.4124  2.0721 -0.2651
  996MOL0     H34432   5.431   9.636   4.427 -2.4124  1.9866 -2.4435
  996MOL0     H34433   5.335   9.548   4.543 -0.3306  1.0634  3.1786
  996MOL0     H34434   5.219   9.662   4.364 -0.3680  0.8055  0.3046
  996MOL0     H34435   5.282   9.828   4.412 -0.0885 -0.6159 -0.4836
  996MOL0     H34436   5.129   9.670   4.606 -1.2763 -0.1273  1.3718
  996MOL0     H34437   5.160   9.839   4.599  1.0355  1.3121 -1.9749
  996MOL0     H34438   4.925   9.788   4.514  0.8211  2.5878 -0.2694
  996MOL0     H34439   4.986   9.680   4.394  3.3680 -1.2905  0.7658
  996MOL0     H34440   5.079   9.884   4.278 -0.3840 -0.2215 -0.4366
  996MOL0     H34441   5.043   9.992   4.405 -0.1892  0.3492 -1.3025
  996MOL0     H34442   5.784   9.902   4.903  0.3558 -2.6358  2.6923
  996MOL0     H34443   5.993  10.044   4.940  1.5633 -0.9955  3.0038
  996MOL0     H34444   6.519   9.910   4.813 -0.1503  0.0164  1.8957
  996MOL0     H34445   6.753   9.996   4.799  0.5708 -0.5641  0.1751
  996MOL0     H34446   8.414  10.030   4.462 -0.5352  1.4023  0.2745
  996MOL0     H34447   8.636   9.964   4.473 -0.9311 -0.3758  0.5199
  996MOL0     H34448   9.117  10.196   4.767  0.5647 -0.3372  0.5542
  996MOL0     H34449   9.342  10.117   4.791 -1.3736  2.4772  1.0005
  996MOL0     H34450   9.547   9.988   4.769 -0.0586  1.9780  1.0653
  996MOL0     H34451   9.516  10.043   4.926  0.0182  1.0172 -2.1425
  996MOL0     H34452   9.626   9.819   5.015  0.8742 -1.8258 -0.8205
  996MOL0     H34453   9.727   9.953   4.945 -0.6224 -0.2967  2.4135
  996MOL0     H34454   9.701   9.816   4.716 -4.7546  3.2151  0.4424
  996MOL0     H34455   9.651   9.683   4.819 -0.8268  0.5577  1.1433
  996MOL0     H34456   9.864   9.704   4.968  7.5536 -2.2939 -1.0834
  996MOL0     H34457   9.918   9.808   4.837 -1.2885  2.4777  2.2509
  996MOL0     H34458   9.938   9.440   4.633  0.4420  2.1278 -1.6885
  996MOL0     H34459   9.205   9.721   4.883  1.0376  0.7424  0.8914
  996MOL0     H34460   8.982   9.788   4.818 -0.0098  0.8130  1.1031
  997MOL0     O34461   7.984   0.869   7.673  0.3406  0.1663 -0.0996
  997MOL0     C34462   8.050   0.780   7.608 -0.3245 -0.4801  0.4064
  997MOL0     O34463   7.999   0.711   7.504 -0.0740 -0.7106  0.0041
  997MOL0     C34464   7.872   0.744   7.450  0.3225  0.0121  0.6846
  997MOL0     C34465   7.860   0.861   7.381 -0.6019 -0.1697 -0.6461
  997MOL0     C34466   7.737   0.913   7.356  0.4343  0.4118  0.2260
  997MOL0     C34467   7.626   0.847   7.398  0.0660  0.1525  0.3923
  997MOL0     O34468   7.503   0.909   7.364  0.1056  0.3166  0.3791
  997MOL0     C34469   7.428   0.855   7.249  0.2714 -0.5488 -0.4079
  997MOL0     C34470   7.299   0.928   7.221 -0.6424  0.2672 -0.4360
  997MOL0     C34471   7.197   0.919   7.340 -0.2498  0.3007  0.2911
  997MOL0     C34472   7.090   1.024   7.330  0.1810  0.1152  0.3747
  997MOL0     C34473   6.973   1.021   7.443  0.1874  0.5645  0.5474
  997MOL0     C34474   6.883   1.139   7.420  1.0091  0.0331  0.0510
  997MOL0     C34475   6.799   1.168   7.545 -0.4301 -0.8944  0.0359
  997MOL0     C34476   6.712   1.293   7.531 -0.6920 -0.0733  0.1714
  997MOL0     N34477   6.589   1.281   7.460 -0.5343 -0.2300 -0.0387
  997MOL0     C34478   6.574   1.238   7.328  0.2772 -0.3942 -0.0627
  997MOL0     C34479   6.446   1.261   7.300  0.8398 -0.7934  0.6880
  997MOL0     C34480   6.381   1.253   7.163  0.0169 -0.5515  1.0358
  997MOL0     C34481   6.345   1.391   7.114 -0.8318  0.2294 -0.7457
  997MOL0     C34482   6.332   1.396   6.967  0.2563  0.2942  0.8008
  997MOL0     C34483   6.299   1.531   6.916  0.1588  0.0987 -0.0012
  997MOL0     O34484   6.186   1.590   6.976 -0.1495  0.2927  0.3643
  997MOL0     C34485   6.061   1.541   6.965 -0.4662  0.0988  0.7328
  997MOL0     C34486   6.021   1.464   6.857 -0.4182  0.0686 -0.5060
  997MOL0     C34487   5.889   1.427   6.833  0.0390  1.1527 -0.9350
  997MOL0     C34488   5.873   1.342   6.706  0.1435 -0.2397  0.0886
  997MOL0     C34489   5.794   1.454   6.932 -0.1393  0.3095  0.1573
  997MOL0     C34490   5.656   1.411   6.921 -0.2766  0.4875  0.3292
  997MOL0     O34491   5.598   1.409   6.793  0.2003  0.1893  0.4763
  997MOL0     C34492   5.475   1.371   6.786 -0.1904 -0.1380  0.3472
  997MOL0     C34493   5.444   1.236   6.780 -0.2382  0.4814  0.0395
  997MOL0     C34494   5.309   1.196   6.776 -0.0946  0.7009  0.3324
  997MOL0     C34495   5.203   1.290   6.784 -0.6442  1.0384  0.1538
  997MOL0     O34496   5.074   1.251   6.811 -0.4256 -0.2584  0.1049
  997MOL0     C34497   5.056   1.119   6.859 -0.1487  0.4058  0.0076
  997MOL0     C34498   4.913   1.094   6.886  0.3690 -0.8824 -0.0706
  997MOL0     C34499   4.837   1.190   6.977 -0.6412  0.0983  0.0449
  997MOL0     C34500   4.691   1.151   6.991 -0.2064  0.4307 -0.2686
  997MOL0     C34501   4.611   1.272   7.049 -0.3841  0.4317  0.3194
  997MOL0     C34502   4.467   1.241   7.055  0.3934 -0.3421  0.0769
  997MOL0     C34503   4.387   1.367   7.087 -0.4237 -0.0697  0.0349
  997MOL0     C34504   4.240   1.337   7.117  0.4826  0.5077 -0.3681
  997MOL0    Cl34505   4.137   1.292   6.980 -0.3184  0.0762 -0.1212
  997MOL0     C34506   5.238   1.429   6.770  0.0684 -0.2895  0.7768
  997MOL0     C34507   5.374   1.465   6.770  0.3416 -0.1112 -0.0030
  997MOL0     O34508   5.608   1.375   7.028 -0.1810 -1.0224  0.1672
  997MOL0     C34509   5.829   1.528   7.047 -0.5520  1.1730 -0.1836
  997MOL0     C34510   5.961   1.578   7.056  0.9249 -0.6128 -0.0291
  997MOL0     N34511   6.386   1.318   7.407  0.0743 -1.4447 -0.0781
  997MOL0     N34512   6.466   1.321   7.506 -0.2510  0.8954  0.4866
  997MOL0     C34513   7.637   0.718   7.453 -0.4844 -0.9101 -0.6474
  997MOL0     C34514   7.760   0.662   7.478  0.3054 -0.4258 -0.2612
  997MOL0     C34515   8.190   0.770   7.622 -0.6758 -0.0352 -0.8016
  997MOL0     C34516   8.252   0.834   7.729 -0.0604  1.0185 -0.6449
  997MOL0     C34517   8.389   0.825   7.754 -0.6924 -0.6068 -0.3726
  997MOL0     C34518   8.469   0.735   7.677 -0.6190 -0.1027 -0.7669
  997MOL0     O34519   8.601   0.717   7.710  1.1193  0.1614  0.6592
  997MOL0     C34520   8.647   0.581   7.716  0.6571 -0.4662 -0.3450
  997MOL0     C34521   8.756   0.562   7.823  0.0179 -0.0824 -0.7203
  997MOL0     C34522   8.865   0.664   7.827 -0.4725 -0.4723  0.6510
  997MOL0     C34523   8.835   0.798   7.910  0.4643 -0.6761  1.0331
  997MOL0     C34524   8.716   0.804   8.005  0.3126  0.2451  0.3112
  997MOL0     C34525   8.637   0.800   8.091 -0.2010 -0.0561 -1.2406
  997MOL0     C34526   8.408   0.679   7.563 -0.3368 -0.0979  0.4072
  997MOL0     C34527   8.270   0.695   7.534 -0.3881 -0.2977  0.5716
  997MOL0     H34528   7.950   0.916   7.352 -0.2546 -0.5903 -0.3812
  997MOL0     H34529   7.723   0.998   7.291 -1.5017 -1.5409 -2.0938
  997MOL0     H34530   7.492   0.869   7.162  0.8180  0.9254  0.1885
  997MOL0     H34531   7.405   0.752   7.277  1.4505 -0.7017  0.0553
  997MOL0     H34532   7.328   1.030   7.195  4.1563 -1.0169 -0.9695
  997MOL0     H34533   7.247   0.874   7.141 -1.3364  0.5482 -0.1833
  997MOL0     H34534   7.142   0.824   7.341 -1.1276  0.7628  2.7521
  997MOL0     H34535   7.244   0.917   7.438  0.8598 -1.9522 -0.2154
  997MOL0     H34536   7.133   1.124   7.341 -0.1971  0.5559 -1.7322
  997MOL0     H34537   7.038   1.020   7.234  0.9339 -0.4255 -0.0151
  997MOL0     H34538   6.921   0.925   7.437  0.5554  0.4557 -1.9823
  997MOL0     H34539   7.018   1.032   7.542  0.0892  4.8056  0.2858
  997MOL0     H34540   6.944   1.230   7.409  0.0522  0.6448 -0.2868
  997MOL0     H34541   6.816   1.123   7.335 -0.8569  3.9166  0.5649
  997MOL0     H34542   6.740   1.079   7.567  1.8295 -3.0527 -1.9059
  997MOL0     H34543   6.874   1.187   7.622 -0.3537 -1.1660  0.0305
  997MOL0     H34544   6.775   1.369   7.482  1.1664  0.1273  2.6881
  997MOL0     H34545   6.695   1.320   7.635 -2.1932 -2.4292  0.6145
  997MOL0     H34546   6.647   1.209   7.253  2.2296  2.6921  0.4812
  997MOL0     H34547   6.450   1.217   7.086  1.8736  0.5232  2.1177
  997MOL0     H34548   6.286   1.199   7.166 -1.7029  1.6522 -3.4372
  997MOL0     H34549   6.422   1.461   7.146 -1.8085 -0.0856  2.7243
  997MOL0     H34550   6.255   1.412   7.173  1.7704  0.6265  3.4778
  997MOL0     H34551   6.245   1.337   6.936 -2.2994  3.0690  2.2575
  997MOL0     H34552   6.424   1.366   6.916  1.1112  3.1561  0.5208
  997MOL0     H34553   6.278   1.533   6.809 -2.3743  0.9331  0.4377
  997MOL0     H34554   6.392   1.588   6.927  1.1935 -1.6271  0.5045
  997MOL0     H34555   6.085   1.424   6.779 -1.8327 -2.7639 -0.3384
  997MOL0     H34556   5.836   1.397   6.619  0.1503 -2.2052 -1.2303
  997MOL0     H34557   5.961   1.304   6.653 -1.5154 -1.9756 -1.5910
  997MOL0     H34558   5.803   1.258   6.717  1.2021 -1.8844 -3.7573
  997MOL0     H34559   5.532   1.172   6.780 -0.1005  0.6165  1.7476
  997MOL0     H34560   5.290   1.090   6.790 -0.4800  0.5569 -1.1341
  997MOL0     H34561   5.094   1.050   6.784 -1.8137  1.0482 -1.5125
  997MOL0     H34562   5.107   1.102   6.954 -0.1520  0.2927 -0.0114
  997MOL0     H34563   4.858   1.098   6.791 -1.8002  0.4767  1.1717
  997MOL0     H34564   4.901   0.997   6.935 -2.3616 -0.6159 -0.0793
  997MOL0     H34565   4.837   1.291   6.935  1.4401  0.5323  0.9525
  997MOL0     H34566   4.884   1.196   7.075 -1.5760  1.1669  0.4485
  997MOL0     H34567   4.653   1.139   6.890 -1.2204  2.4060 -0.1633
  997MOL0     H34568   4.677   1.064   7.056  1.0077  2.5184  3.0571
  997MOL0     H34569   4.626   1.352   6.976  1.1171 -1.1283 -1.1849
  997MOL0     H34570   4.655   1.296   7.146  3.8423  1.2738 -1.6078
  997MOL0     H34571   4.431   1.198   6.961 -0.9911 -0.1865  0.4993
  997MOL0     H34572   4.451   1.162   7.129 -0.1109 -0.0796  0.2572
  997MOL0     H34573   4.407   1.437   7.006  1.4354  2.0145  2.1344
  997MOL0     H34574   4.424   1.410   7.181 -0.5396 -0.4415  0.2532
  997MOL0     H34575   4.197   1.422   7.171 -1.5400  0.6851 -2.1405
  997MOL0     H34576   4.232   1.255   7.189 -0.5796 -1.0591 -2.1889
  997MOL0     H34577   5.167   1.509   6.782 -0.2636 -0.8060  2.6234
  997MOL0     H34578   5.411   1.567   6.767  1.2655 -0.4542 -1.2189
  997MOL0     H34579   5.751   1.544   7.121 -0.2283 -0.5700  0.5955
  997MOL0     H34580   5.981   1.642   7.141  0.0793  1.2724 -1.1737
  997MOL0     H34581   7.552   0.658   7.486 -0.4268 -0.0869  1.1230
  997MOL0     H34582   7.774   0.564   7.523 -2.3593 -0.8570 -0.2059
  997MOL0     H34583   8.196   0.894   7.800  0.0500 -0.1410  0.4629
  997MOL0     H34584   8.437   0.863   7.844  0.3576 -1.5477 -0.5285
  997MOL0     H34585   8.560   0.518   7.737 -0.7183  1.6664  0.7069
  997MOL0     H34586   8.687   0.551   7.619  1.3370 -0.5747 -0.0314
  997MOL0     H34587   8.804   0.466   7.802  2.0213  0.7769 -0.3510
  997MOL0     H34588   8.707   0.553   7.921  1.5343  0.7452  0.1533
  997MOL0     H34589   8.891   0.681   7.722  0.2982 -0.3660  0.8463
  997MOL0     H34590   8.957   0.629   7.876 -0.9533 -1.6537  0.7362
  997MOL0     H34591   8.815   0.876   7.836  1.9220 -0.7744  0.5107
  997MOL0     H34592   8.923   0.837   7.962 -1.3776  2.6673  1.9135
  997MOL0     H34593   8.577   0.789   8.178 -0.8311 -1.5508 -1.8275
  997MOL0     H34594   8.478   0.624   7.502  0.7394  0.5746  1.0077
  997MOL0     H34595   8.239   0.638   7.447  2.3455  1.4206 -1.7136
  998MOL0     O34596   6.917   4.456   2.521 -0.1685  0.2096  0.3392
  998MOL0     C34597   6.920   4.342   2.546 -0.8736  0.4182  0.8713
  998MOL0     O34598   6.812   4.256   2.550 -0.7796 -0.2011  0.2676
  998MOL0     C34599   6.697   4.293   2.486 -0.4556  0.4806 -0.3880
  998MOL0     C34600   6.578   4.224   2.521 -0.1203  0.4800 -0.0579
  998MOL0     C34601   6.449   4.234   2.459  0.0735 -0.3587  0.3351
  998MOL0     C34602   6.440   4.322   2.352 -0.3343  0.5908  0.3759
  998MOL0     O34603   6.321   4.322   2.286  0.0913  0.6273 -0.1198
  998MOL0     C34604   6.246   4.442   2.297 -0.3759 -0.5818 -0.3327
  998MOL0     C34605   6.185   4.481   2.428 -0.4241  0.2305  0.2281
  998MOL0     C34606   6.105   4.370   2.498  0.1555  0.0214 -0.6347
  998MOL0     C34607   6.032   4.414   2.629  0.9040 -0.0800  0.0459
  998MOL0     C34608   5.989   4.296   2.707 -0.0215  0.4354 -0.1378
  998MOL0     C34609   5.905   4.194   2.633 -0.1667  0.2107 -0.0764
  998MOL0     C34610   5.762   4.246   2.596 -0.3307 -0.6792 -0.1526
  998MOL0     C34611   5.666   4.130   2.568  0.8532 -0.4439  0.4036
  998MOL0     N34612   5.525   4.177   2.587 -0.7712  0.9061 -0.0534
  998MOL0     C34613   5.473   4.300   2.549 -0.1025  0.3099 -0.6869
  998MOL0     C34614   5.342   4.300   2.584 -0.3796  0.4936  0.0136
  998MOL0     C34615   5.234   4.395   2.546  0.5326 -0.6419  0.1139
  998MOL0     C34616   5.102   4.355   2.612 -0.4645  0.6729  0.2127
  998MOL0     C34617   4.999   4.452   2.575 -0.4488  0.4199 -0.2860
  998MOL0     C34618   4.863   4.425   2.622 -0.6951  0.2361  0.9238
  998MOL0     O34619   4.787   4.547   2.641  0.9933  0.9346  1.3853
  998MOL0     C34620   4.660   4.532   2.694  0.7070  0.2144  0.5641
  998MOL0     C34621   4.596   4.411   2.725 -0.7031  0.6498  0.1886
  998MOL0     C34622   4.468   4.400   2.785  0.0948  0.2759  0.2644
  998MOL0     C34623   4.411   4.265   2.788  0.4270  0.1051 -0.2017
  998MOL0     C34624   4.404   4.520   2.816 -0.7660  1.3007  0.1171
  998MOL0     C34625   4.269   4.525   2.869 -0.3671 -0.2042  0.1895
  998MOL0     O34626   4.201   4.632   2.827  0.0614  0.6433  0.3732
  998MOL0     C34627   4.074   4.663   2.868  0.0172 -0.5340  0.4802
  998MOL0     C34628   3.997   4.595   2.957  0.1123  0.4978 -0.0466
  998MOL0     C34629   3.868   4.648   2.994  0.8399 -0.4387 -0.3049
  998MOL0     C34630   3.817   4.765   2.939 -0.1958 -0.7059 -0.5615
  998MOL0     O34631   3.699   4.829   2.972 -0.6780 -0.9184  0.0694
  998MOL0     C34632   3.588   4.774   2.900  0.5618 -0.1566  0.1379
  998MOL0     C34633   3.467   4.871   2.924  0.4344 -0.1822 -0.2654
  998MOL0     C34634   3.330   4.805   2.898 -1.1424 -0.3693 -0.4008
  998MOL0     C34635   3.216   4.863   2.999  0.4021  0.6812  0.0659
  998MOL0     C34636   3.087   4.791   2.983 -0.2407  0.1402  0.8960
  998MOL0     C34637   2.971   4.835   3.064  0.7077 -0.3777 -0.6179
  998MOL0     C34638   2.966   4.792   3.210  1.0217  0.8498 -0.5060
  998MOL0     C34639   2.813   4.776   3.247 -0.2929 -0.3261  0.2918
  998MOL0    Cl34640   2.805   4.674   3.389  0.1325  0.1791 -0.2991
  998MOL0     C34641   3.900   4.838   2.851  0.2358 -0.4207  1.1976
  998MOL0     C34642   4.027   4.786   2.820  0.2826  0.2517 -0.0701
  998MOL0     O34643   4.252   4.459   2.964  1.2275 -0.2078 -0.8605
  998MOL0     C34644   4.462   4.646   2.786  0.0257 -0.0434 -0.2731
  998MOL0     C34645   4.595   4.648   2.730 -0.5294 -0.0795 -0.5853
  998MOL0     N34646   5.318   4.184   2.651  0.7965  0.6319 -0.0268
  998MOL0     N34647   5.426   4.105   2.645  0.6442  0.1821 -0.2778
  998MOL0     C34648   6.556   4.393   2.306 -0.0724  0.8758 -0.2988
  998MOL0     C34649   6.680   4.382   2.370  0.0409  0.2031  0.0968
  998MOL0     C34650   7.057   4.278   2.566  0.3172  0.6126 -0.0958
  998MOL0     C34651   7.072   4.140   2.592 -0.0169  0.7922  1.0517
  998MOL0     C34652   7.201   4.083   2.609  1.0945 -0.0204 -0.2933
  998MOL0     C34653   7.313   4.145   2.603 -1.3086 -0.4755 -0.4488
  998MOL0     O34654   7.435   4.085   2.627  0.2601  0.9420  0.3913
  998MOL0     C34655   7.534   4.163   2.698  0.9094 -0.2067  0.2792
  998MOL0     C34656   7.661   4.174   2.614  0.6903  0.5607  0.8645
  998MOL0     C34657   7.789   4.149   2.695 -0.9647 -0.1979 -0.1992
  998MOL0     C34658   7.905   4.206   2.617  0.6417 -0.4671  0.3416
  998MOL0     C34659   8.034   4.161   2.679 -0.0215 -0.6483  0.5001
  998MOL0     C34660   8.146   4.127   2.718 -1.1396 -0.7785 -0.3446
  998MOL0     C34661   7.297   4.286   2.573 -0.6195 -0.4626  0.2690
  998MOL0     C34662   7.171   4.350   2.559  0.2374 -0.3286 -0.8787
  998MOL0     H34663   6.593   4.147   2.596  2.6440  1.1698  0.2138
  998MOL0     H34664   6.370   4.168   2.496  1.0676 -0.6500  2.0557
  998MOL0     H34665   6.321   4.518   2.274 -1.2951  0.7795  0.9309
  998MOL0     H34666   6.165   4.437   2.224  1.0455 -0.0618 -2.0024
  998MOL0     H34667   6.272   4.503   2.490  0.1770  2.3033 -1.2202
  998MOL0     H34668   6.137   4.579   2.420  0.5979  0.7221  0.0024
  998MOL0     H34669   6.029   4.336   2.426 -1.1869 -1.0638  1.1950
  998MOL0     H34670   6.168   4.282   2.515  0.7723  0.6583  0.5101
  998MOL0     H34671   6.093   4.492   2.676  0.5008  1.2133 -1.4863
  998MOL0     H34672   5.940   4.466   2.601  0.5931 -0.9666 -0.5708
  998MOL0     H34673   6.073   4.249   2.757 -0.5377  0.8550  1.1790
  998MOL0     H34674   5.930   4.332   2.793 -0.6963 -0.1347 -0.3460
  998MOL0     H34675   5.957   4.160   2.543 -1.2984  1.3760 -1.2176
  998MOL0     H34676   5.893   4.101   2.689 -0.3089 -0.4021 -1.0848
  998MOL0     H34677   5.719   4.297   2.683 -1.7612  1.4154 -2.0056
  998MOL0     H34678   5.769   4.311   2.509  0.2904  0.6417  0.8586
  998MOL0     H34679   5.683   4.045   2.636  0.0564 -0.9299  0.0162
  998MOL0     H34680   5.664   4.089   2.467 -0.1692 -0.4850  0.4332
  998MOL0     H34681   5.520   4.381   2.493 -1.1388  0.9298 -0.6967
  998MOL0     H34682   5.267   4.492   2.584 -2.4563  0.3638  0.4473
  998MOL0     H34683   5.226   4.411   2.438 -0.5783 -0.8583  0.1511
  998MOL0     H34684   5.114   4.355   2.720  2.5029 -1.5452  0.0312
  998MOL0     H34685   5.074   4.257   2.570 -1.3564  1.5918 -1.4274
  998MOL0     H34686   4.994   4.483   2.470 -2.9340 -0.8204 -0.6188
  998MOL0     H34687   5.035   4.528   2.645 -2.0038 -0.0394  1.0795
  998MOL0     H34688   4.861   4.372   2.718 -0.4922 -0.1124  0.7379
  998MOL0     H34689   4.810   4.368   2.544  2.1376 -0.2301 -0.7849
  998MOL0     H34690   4.638   4.319   2.687  0.1119  1.3988 -0.7669
  998MOL0     H34691   4.321   4.237   2.734 -0.9641  0.3120  1.8857
  998MOL0     H34692   4.476   4.183   2.758 -0.3338  0.0634 -1.8234
  998MOL0     H34693   4.389   4.270   2.895  1.4727  0.8374 -0.0036
  998MOL0     H34694   4.029   4.498   2.993  1.7911  1.7348  2.0403
  998MOL0     H34695   3.819   4.597   3.077 -0.0473 -2.2398 -1.8596
  998MOL0     H34696   3.620   4.757   2.797  5.4713  0.3266  1.3498
  998MOL0     H34697   3.562   4.678   2.944 -2.7623  0.1260 -0.9302
  998MOL0     H34698   3.479   4.900   3.029  1.4214 -3.1330  0.5240
  998MOL0     H34699   3.484   4.962   2.865 -0.0358 -1.1406 -1.9302
  998MOL0     H34700   3.341   4.697   2.908 -0.2803 -0.1676  1.0962
  998MOL0     H34701   3.286   4.831   2.801 -2.2645  2.6881  0.7837
  998MOL0     H34702   3.258   4.859   3.100 -0.8856  1.8311  0.6697
  998MOL0     H34703   3.194   4.968   2.980  0.1967  0.7921  0.8742
  998MOL0     H34704   3.093   4.683   2.999  0.6821  0.2426  1.3388
  998MOL0     H34705   3.066   4.812   2.878 -1.1166 -1.2074  0.7814
  998MOL0     H34706   2.955   4.943   3.056  2.3601  0.0162  0.6857
  998MOL0     H34707   2.887   4.794   3.007  0.5748 -1.7629  0.5101
  998MOL0     H34708   3.018   4.859   3.279  3.7324 -0.6346 -0.9652
  998MOL0     H34709   3.003   4.689   3.209  0.8299  0.7811 -1.1086
  998MOL0     H34710   2.764   4.726   3.163  0.3579 -0.7315  0.1396
  998MOL0     H34711   2.775   4.873   3.278 -2.3529 -1.8766  3.0728
  998MOL0     H34712   3.868   4.936   2.817  4.1566 -0.3552 -3.3058
  998MOL0     H34713   4.086   4.835   2.743 -1.5958  1.5603 -0.7529
  998MOL0     H34714   4.420   4.741   2.815  2.2198  0.7746  0.4716
  998MOL0     H34715   4.648   4.743   2.724 -1.3753  0.5595  1.3091
  998MOL0     H34716   6.545   4.458   2.220  1.0426  1.1379 -0.2645
  998MOL0     H34717   6.771   4.425   2.332 -0.0738  1.4583  1.1770
  998MOL0     H34718   6.987   4.074   2.608  0.6860 -0.7573 -1.1488
  998MOL0     H34719   7.203   3.981   2.645  1.3163  0.4217  1.0076
  998MOL0     H34720   7.500   4.267   2.701  4.3494  1.1353 -1.6798
  998MOL0     H34721   7.541   4.134   2.804 -0.8703 -1.6765  0.0552
  998MOL0     H34722   7.671   4.267   2.557  2.5475  0.6093  1.2231
  998MOL0     H34723   7.647   4.097   2.537  2.0711 -0.6557  1.8008
  998MOL0     H34724   7.797   4.044   2.724 -1.7900 -0.6541 -1.4994
  998MOL0     H34725   7.788   4.194   2.794  0.5102  0.4938 -0.4746
  998MOL0     H34726   7.894   4.314   2.630 -3.5673 -0.9165  2.0894
  998MOL0     H34727   7.901   4.165   2.515  0.6718 -0.7678  0.4612
  998MOL0     H34728   8.247   4.102   2.744 -1.9021 -2.6460  1.0129
  998MOL0     H34729   7.383   4.350   2.564 -2.6642  2.6096  1.1289
  998MOL0     H34730   7.167   4.451   2.519 -0.7972 -0.9079 -2.3051
  999MOL0     O34731   2.136   2.880   7.336  0.1586 -0.2346 -1.0744
  999MOL0     C34732   2.200   2.829   7.249 -0.3475  0.5529  0.9126
  999MOL0     O34733   2.149   2.770   7.135  0.0745  0.4931  0.4394
  999MOL0     C34734   2.012   2.765   7.090 -0.6764  0.1120 -0.5971
  999MOL0     C34735   1.991   2.775   6.955  0.4834 -0.1988 -0.6530
  999MOL0     C34736   1.859   2.760   6.910  0.6502 -0.1216  0.4044
  999MOL0     C34737   1.756   2.772   6.998 -0.0482 -0.2360 -0.0702
  999MOL0     O34738   1.621   2.759   6.950 -0.4742 -0.6760 -0.2241
  999MOL0     C34739   1.503   2.752   7.042  0.0997 -0.8963 -0.5581
  999MOL0     C34740   1.365   2.732   6.973  0.5150 -0.5113  0.7369
  999MOL0     C34741   1.240   2.749   7.062  0.5302 -0.9310 -0.2235
  999MOL0     C34742   1.120   2.766   6.978 -0.6089  0.4706 -0.0094
  999MOL0     C34743   0.996   2.782   7.059  0.4536  0.1306 -0.0824
  999MOL0     C34744   0.874   2.780   6.974  0.2562  0.2306  1.4853
  999MOL0     C34745   0.855   2.902   6.882 -0.7526 -0.7350 -0.9706
  999MOL0     C34746   0.723   2.891   6.807 -0.6549 -0.2070  0.3370
  999MOL0     N34747   0.718   2.994   6.707  0.6750  0.1325 -0.1041
  999MOL0     C34748   0.722   3.125   6.733  0.2635 -0.0997  0.6867
  999MOL0     C34749   0.730   3.188   6.619 -1.0099  0.2871 -0.0173
  999MOL0     C34750   0.747   3.335   6.595 -0.6310 -0.1986  0.1272
  999MOL0     C34751   0.620   3.407   6.524  0.1046 -0.2329  0.3601
  999MOL0     C34752   0.615   3.556   6.556 -0.3034 -0.0762  0.2065
  999MOL0     C34753   0.529   3.636   6.449 -0.6232 -0.3874 -0.4702
  999MOL0     O34754   0.393   3.598   6.475  0.0760 -0.5876 -0.2567
  999MOL0     C34755   0.301   3.657   6.402  0.7752  0.2761  0.1534
  999MOL0     C34756   0.171   3.617   6.434  0.5199 -0.3912 -0.7213
  999MOL0     C34757   0.056   3.663   6.357 -0.5505 -0.2423 -0.9502
  999MOL0     C34758  -0.079   3.616   6.407  0.2139  1.2596 -0.6538
  999MOL0     C34759   0.075   3.752   6.249  0.7921  0.3148 -0.1918
  999MOL0     C34760  -0.035   3.797   6.162 -0.2287 -0.5163  0.6197
  999MOL0     O34761  -0.163   3.774   6.204  0.0120 -0.4747 -0.1563
  999MOL0     C34762  -0.264   3.819   6.126  0.5406  0.0166  0.0006
  999MOL0     C34763  -0.277   3.934   6.049 -0.4756  0.0413  0.0709
  999MOL0     C34764  -0.403   3.969   5.994 -0.6374 -0.1066  0.0489
  999MOL0     C34765  -0.508   3.884   6.007  0.8964  0.1371  0.3290
  999MOL0     O34766  -0.633   3.928   5.960  0.1304 -0.1888  1.5015
  999MOL0     C34767  -0.736   3.837   5.961  0.1671  0.2332 -0.0028
  999MOL0     C34768  -0.842   3.903   5.877 -0.2568  0.4161 -0.1957
  999MOL0     C34769  -0.974   3.821   5.870 -0.7253 -0.0064 -0.4279
  999MOL0     C34770  -1.085   3.915   5.831  0.7346  0.5983  0.5773
  999MOL0     C34771  -1.226   3.851   5.838  0.5488  0.6075  0.2371
  999MOL0     C34772  -1.336   3.939   5.783  0.3916 -0.9865  0.6434
  999MOL0     C34773  -1.484   3.888   5.805  0.1767  0.0194  0.0779
  999MOL0     C34774  -1.532   3.763   5.727  0.5670  0.3491  0.3747
  999MOL0    Cl34775  -1.521   3.789   5.544 -0.2423 -0.2489 -0.0664
  999MOL0     C34776  -0.499   3.774   6.090  0.1121  1.1326 -0.1541
  999MOL0     C34777  -0.383   3.743   6.145 -0.3233 -0.0775  0.0944
  999MOL0     O34778  -0.001   3.847   6.057 -0.1740 -0.1894  0.3154
  999MOL0     C34779   0.207   3.776   6.212 -0.3270  0.2356 -0.1728
  999MOL0     C34780   0.317   3.737   6.292 -0.0436 -0.8914  0.0983
  999MOL0     N34781   0.722   3.091   6.519  0.4260 -0.3737  0.2965
  999MOL0     N34782   0.723   2.980   6.569  0.1631  0.2526 -0.1957
  999MOL0     C34783   1.777   2.755   7.132  0.0590 -1.3795 -0.4675
  999MOL0     C34784   1.910   2.754   7.179  0.8151  0.4813 -0.4548
  999MOL0     C34785   2.354   2.821   7.255 -0.1258  0.8197  0.5517
  999MOL0     C34786   2.425   2.854   7.369  0.6380  0.0825 -0.1951
  999MOL0     C34787   2.560   2.872   7.363 -1.0331 -1.0967  0.3316
  999MOL0     C34788   2.635   2.855   7.238  0.2980  0.5785 -0.9077
  999MOL0     O34789   2.771   2.870   7.232 -0.0264  0.1511  0.0199
  999MOL0     C34790   2.822   2.926   7.108 -0.0671  0.1606 -0.8832
  999MOL0     C34791   2.939   3.015   7.146  0.4766 -0.4037  0.5126
  999MOL0     C34792   2.879   3.143   7.220 -0.5078  0.8993 -0.2717
  999MOL0     C34793   2.853   3.118   7.373 -1.0926 -0.1288  0.0078
  999MOL0     C34794   2.789   3.237   7.422 -1.2598 -0.3365 -0.2406
  999MOL0     C34795   2.746   3.345   7.447 -0.3886 -0.3721  0.0379
  999MOL0     C34796   2.559   2.810   7.129  0.1838 -0.2251  0.8845
  999MOL0     C34797   2.425   2.800   7.132 -0.5589 -0.4355 -0.2528
  999MOL0     H34798   2.077   2.766   6.889 -0.0051 -2.3870 -1.0908
  999MOL0     H34799   1.846   2.751   6.803  2.1252 -0.8203  0.2618
  999MOL0     H34800   1.507   2.658   7.099 -1.1546  0.1459  1.3721
  999MOL0     H34801   1.511   2.839   7.108  2.5071 -1.7487  0.3874
  999MOL0     H34802   1.355   2.802   6.890 -2.3375  0.4981  1.7939
  999MOL0     H34803   1.360   2.632   6.929  1.3434 -1.2078  2.1499
  999MOL0     H34804   1.221   2.661   7.124  0.7448 -0.9882 -0.2376
  999MOL0     H34805   1.259   2.843   7.115 -2.3068  0.8392 -2.0259
  999MOL0     H34806   1.139   2.854   6.916 -0.1139  1.1981  1.1563
  999MOL0     H34807   1.105   2.673   6.920 -0.1907  2.0537 -2.8646
  999MOL0     H34808   0.993   2.701   7.133 -2.7591  0.6751  0.5407
  999MOL0     H34809   0.993   2.878   7.111 -0.1904 -0.6835  1.4816
  999MOL0     H34810   0.860   2.681   6.928 -1.2556  1.2601 -0.4201
  999MOL0     H34811   0.792   2.795   7.045 -0.8190  1.9633 -0.0479
  999MOL0     H34812   0.845   2.985   6.952 -2.3170 -1.8594  0.1966
  999MOL0     H34813   0.938   2.911   6.811 -1.4391  1.6429 -1.5686
  999MOL0     H34814   0.639   2.896   6.876 -1.1543 -1.3383 -0.1576
  999MOL0     H34815   0.715   2.792   6.761 -2.8366  0.4419 -0.8334
  999MOL0     H34816   0.738   3.172   6.830  0.9185 -0.6927  0.8716
  999MOL0     H34817   0.762   3.383   6.692  0.0994 -2.8133  1.4027
  999MOL0     H34818   0.836   3.344   6.533 -1.3102  1.1856 -0.6791
  999MOL0     H34819   0.528   3.349   6.535 -0.7896  0.5500 -2.2625
  999MOL0     H34820   0.636   3.408   6.416  1.1784  2.1993  0.4734
  999MOL0     H34821   0.718   3.592   6.547  0.0142 -1.2270 -1.0039
  999MOL0     H34822   0.582   3.576   6.658 -0.6355 -2.8579  0.7211
  999MOL0     H34823   0.563   3.594   6.354 -1.9870 -1.5556 -0.4757
  999MOL0     H34824   0.552   3.742   6.464 -3.7228  0.4962 -1.1792
  999MOL0     H34825   0.154   3.554   6.521  1.1705  2.8146  1.9406
  999MOL0     H34826  -0.126   3.550   6.333  2.6000  0.0634 -1.2163
  999MOL0     H34827  -0.066   3.563   6.502 -2.7821  3.4784  1.1475
  999MOL0     H34828  -0.146   3.697   6.436  0.4958  0.8152  1.4264
  999MOL0     H34829  -0.195   4.002   6.031 -1.0021  0.6947  0.0883
  999MOL0     H34830  -0.407   4.069   5.950  2.0241 -0.4175 -1.0814
  999MOL0     H34831  -0.702   3.741   5.922  1.8794  1.3297 -1.4411
  999MOL0     H34832  -0.769   3.810   6.061  2.0402 -1.7657  0.1551
  999MOL0     H34833  -0.862   3.998   5.927  0.0418  1.1961 -1.5213
  999MOL0     H34834  -0.794   3.924   5.781 -1.4179 -0.5247 -1.0119
  999MOL0     H34835  -1.003   3.799   5.973 -0.3004 -0.6619 -0.4404
  999MOL0     H34836  -0.959   3.731   5.810 -0.8522 -1.6216  1.7977
  999MOL0     H34837  -1.086   4.004   5.895  2.5550  0.8119  0.3816
  999MOL0     H34838  -1.059   3.943   5.728  1.4695  0.9333  0.8458
  999MOL0     H34839  -1.247   3.820   5.941  0.7119  1.4426  0.5282
  999MOL0     H34840  -1.224   3.756   5.783  0.6560 -0.5297  2.1010
  999MOL0     H34841  -1.333   4.042   5.820 -3.4235  0.1750 -1.7326
  999MOL0     H34842  -1.317   3.946   5.675 -0.3603 -1.8245  0.4426
  999MOL0     H34843  -1.548   3.972   5.775 -1.9216 -1.5473 -0.0695
  999MOL0     H34844  -1.513   3.876   5.909  1.2155 -0.5520  0.3134
  999MOL0     H34845  -1.637   3.748   5.754  0.0305  0.4734 -1.5167
  999MOL0     H34846  -1.465   3.681   5.756  3.4665  1.7931 -1.7068
  999MOL0     H34847  -0.576   3.701   6.112  1.0558  0.7808  2.2916
  999MOL0     H34848  -0.358   3.659   6.210  3.5379 -0.4031 -1.5514
  999MOL0     H34849   0.224   3.829   6.118  1.4214  1.7120  0.9165
  999MOL0     H34850   0.417   3.744   6.250 -0.5452 -0.8707 -1.1410
  999MOL0     H34851   1.693   2.754   7.201  1.1999  2.7608  1.3099
  999MOL0     H34852   1.922   2.737   7.286 -0.5287 -0.2182 -0.3858
  999MOL0     H34853   2.378   2.867   7.466  1.0412  1.3379 -0.1564
  999MOL0     H34854   2.615   2.886   7.456 -0.5299  1.5607 -0.2941
  999MOL0     H34855   2.876   2.851   7.050  0.5472  0.9853 -1.4145
  999MOL0     H34856   2.752   2.982   7.044  0.9998  2.2880 -0.2745
  999MOL0     H34857   2.994   3.039   7.055 -2.2519 -2.5245 -1.8847
  999MOL0     H34858   3.007   2.968   7.218 -1.3584 -1.4105  1.6738
  999MOL0     H34859   2.782   3.163   7.173 -0.7383  0.5784  0.0631
  999MOL0     H34860   2.943   3.231   7.212 -1.2194  1.5140  0.5942
  999MOL0     H34861   2.944   3.106   7.433 -0.0199  3.0689 -0.7808
  999MOL0     H34862   2.788   3.032   7.392  1.6696 -2.3844 -0.0900
  999MOL0     H34863   2.713   3.440   7.482 -0.0208 -0.7442  1.4772
  999MOL0     H34864   2.606   2.797   7.032 -1.4392 -2.2046  0.2809
  999MOL0     H34865   2.364   2.771   7.046 -1.5124  2.3674 -0.6353
 1000MOL0     O34866   6.701  10.726   1.376 -0.3117 -0.5806  0.2172
 1000MOL0     C34867   6.768  10.625   1.375 -0.1633 -0.4472 -1.0560
 1000MOL0     O34868   6.770  10.524   1.286 -0.1636  0.0368 -0.6277
 1000MOL0     C34869   6.667  10.523   1.200  0.4589  0.4602  0.5756
 1000MOL0     C34870   6.533  10.509   1.241  0.1382 -0.2044  0.3788
 1000MOL0     C34871   6.437  10.521   1.143 -0.4395  0.1767  0.5602
 1000MOL0     C34872   6.459  10.546   1.011  0.6158  0.8803  0.3487
 1000MOL0     O34873   6.356  10.543   0.919 -0.0259 -0.6288  0.4407
 1000MOL0     C34874   6.340  10.651   0.823  0.1507 -0.0923  0.2478
 1000MOL0     C34875   6.225  10.600   0.739  0.6514  0.3419 -0.6123
 1000MOL0     C34876   6.167  10.697   0.640  0.4394 -0.7609  0.5154
 1000MOL0     C34877   6.019  10.660   0.607  0.4038 -0.3919  0.1443
 1000MOL0     C34878   5.962  10.759   0.504 -0.0101 -0.7844  0.1414
 1000MOL0     C34879   5.812  10.731   0.466 -0.2987 -0.3655  1.0247
 1000MOL0     C34880   5.741  10.849   0.395  0.1960  0.6159 -1.1277
 1000MOL0     C34881   5.788  10.858   0.251 -0.3647 -0.0041 -0.8233
 1000MOL0     N34882   5.693  10.933   0.172  0.3518 -0.0656  0.2951
 1000MOL0     C34883   5.633  11.049   0.202  0.1247 -0.0650  0.7714
 1000MOL0     C34884   5.565  11.087   0.091  0.2051  0.3977 -0.3566
 1000MOL0     C34885   5.484  11.208   0.085 -0.0646  0.4535 -0.4443
 1000MOL0     C34886   5.347  11.187   0.156  0.1680 -0.0231  0.0177
 1000MOL0     C34887   5.280  11.317   0.167 -0.9616 -0.7469  0.7325
 1000MOL0     C34888   5.139  11.291   0.211 -0.0406  0.4524 -0.0818
 1000MOL0     O34889   5.074  11.396   0.151  0.1917  0.4513 -0.1178
 1000MOL0     C34890   4.940  11.415   0.183 -0.1767  1.1981  0.2423
 1000MOL0     C34891   4.871  11.526   0.132 -0.4714  0.3883 -0.8813
 1000MOL0     C34892   4.740  11.548   0.157  0.1869 -0.8135 -0.0486
 1000MOL0     C34893   4.686  11.677   0.096  0.1200 -0.6632 -0.4658
 1000MOL0     C34894   4.667  11.465   0.241  0.5477 -0.5146 -0.3747
 1000MOL0     C34895   4.527  11.486   0.288 -0.3348  0.1132 -0.3679
 1000MOL0     O34896   4.484  11.613   0.294 -0.3937 -0.9172 -0.3990
 1000MOL0     C34897   4.369  11.645   0.362 -0.1950 -0.8136  0.2890
 1000MOL0     C34898   4.309  11.573   0.467  0.9382 -0.9353  0.3181
 1000MOL0     C34899   4.184  11.626   0.523 -0.5846  1.1362  0.8932
 1000MOL0     C34900   4.127  11.744   0.469 -1.3418  0.4409  0.2296
 1000MOL0     O34901   4.025  11.811   0.514 -0.0403 -0.7018  0.2195
 1000MOL0     C34902   3.933  11.745   0.611  0.1278  0.8184  0.0430
 1000MOL0     C34903   3.803  11.821   0.610 -0.2122  0.0803  0.4598
 1000MOL0     C34904   3.801  11.950   0.696 -0.2780  0.5640  0.5934
 1000MOL0     C34905   3.658  11.996   0.697 -0.4338  0.1654  0.4054
 1000MOL0     C34906   3.654  12.148   0.727  0.6133  0.6878  0.4603
 1000MOL0     C34907   3.513  12.190   0.777  0.1041 -0.2120  0.5722
 1000MOL0     C34908   3.395  12.191   0.675 -0.7919  0.6889 -0.4858
 1000MOL0     C34909   3.263  12.199   0.753  0.2730  0.5095 -1.0586
 1000MOL0    Cl34910   3.243  12.370   0.811 -0.3918  0.4298  0.4329
 1000MOL0     C34911   4.189  11.806   0.364  0.1362 -0.7128  0.0850
 1000MOL0     C34912   4.300  11.756   0.310 -0.8261  0.2839  0.0819
 1000MOL0     O34913   4.460  11.385   0.314 -0.1702 -0.5918 -0.2406
 1000MOL0     C34914   4.730  11.340   0.275  0.3019  0.0163  0.0659
 1000MOL0     C34915   4.866  11.315   0.241 -0.3493 -0.2575  0.2048
 1000MOL0     N34916   5.569  10.984   0.001  0.3106 -0.8273 -1.0079
 1000MOL0     N34917   5.642  10.893   0.048 -0.6772  0.3616 -0.1320
 1000MOL0     C34918   6.588  10.568   0.973  0.2872  0.0305  0.7399
 1000MOL0     C34919   6.693  10.549   1.060 -0.3969  0.3045  0.1580
 1000MOL0     C34920   6.872  10.608   1.475 -0.7288 -0.5123 -0.8340
 1000MOL0     C34921   6.851  10.627   1.608 -0.3871  0.1290 -0.0770
 1000MOL0     C34922   6.947  10.616   1.709  0.7741 -0.2038 -0.2615
 1000MOL0     C34923   7.079  10.576   1.672 -0.0149 -0.0537 -0.5910
 1000MOL0     O34924   7.182  10.550   1.771  0.1896 -0.6536  0.7269
 1000MOL0     C34925   7.199  10.639   1.880  0.3463  0.0626 -1.0829
 1000MOL0     C34926   7.214  10.789   1.851  0.0049 -0.3801 -0.0863
 1000MOL0     C34927   7.341  10.818   1.772  0.1211  0.7412  0.2801
 1000MOL0     C34928   7.473  10.772   1.844  0.7561  0.0960 -0.1989
 1000MOL0     C34929   7.508  10.861   1.957  0.0214  0.6020  0.2404
 1000MOL0     C34930   7.537  10.926   2.054 -0.1643 -0.4518  0.3714
 1000MOL0     C34931   7.099  10.545   1.533 -0.6020 -0.1086  0.2937
 1000MOL0     C34932   7.006  10.581   1.433  0.3490 -0.5538 -0.0833
 1000MOL0     H34933   6.508  10.478   1.342  1.1986 -0.6108  0.5302
 1000MOL0     H34934   6.334  10.500   1.170 -0.8538  0.9581 -0.3448
 1000MOL0     H34935   6.321  10.745   0.876 -0.5384 -0.5619  0.8530
 1000MOL0     H34936   6.428  10.662   0.759  0.0203 -1.7760 -0.2743
 1000MOL0     H34937   6.238  10.502   0.692  1.4142 -0.5283  1.2866
 1000MOL0     H34938   6.144  10.580   0.811  2.4416  0.6003  1.5806
 1000MOL0     H34939   6.168  10.795   0.688  5.1587 -1.1461  1.6773
 1000MOL0     H34940   6.235  10.706   0.555 -0.3680  0.2018 -0.0418
 1000MOL0     H34941   6.007  10.556   0.577 -1.9219 -0.2110  0.2695
 1000MOL0     H34942   5.960  10.662   0.699 -1.1000  4.8939 -0.5771
 1000MOL0     H34943   5.974  10.859   0.547 -0.2721  1.7423 -4.9122
 1000MOL0     H34944   6.019  10.755   0.411 -0.3489  1.2818 -0.2010
 1000MOL0     H34945   5.794  10.647   0.398  3.1319  1.0519 -1.9671
 1000MOL0     H34946   5.765  10.727   0.565  0.9933  1.9934  1.8210
 1000MOL0     H34947   5.633  10.832   0.393  0.0772  0.2685  2.2131
 1000MOL0     H34948   5.757  10.934   0.461 -1.0637 -1.3708  1.9930
 1000MOL0     H34949   5.781  10.755   0.214 -1.7833 -0.6678  1.0970
 1000MOL0     H34950   5.890  10.895   0.241  0.7177 -2.0848  1.5125
 1000MOL0     H34951   5.654  11.104   0.294 -0.2653  0.8587  0.3246
 1000MOL0     H34952   5.538  11.285   0.142  1.4257 -1.5364  0.9488
 1000MOL0     H34953   5.458  11.240  -0.016  0.4251  1.1632 -0.3576
 1000MOL0     H34954   5.352  11.135   0.253  0.4152 -3.4492 -1.6724
 1000MOL0     H34955   5.283  11.130   0.088 -3.3275  0.0453  2.9356
 1000MOL0     H34956   5.287  11.352   0.064  0.9117 -3.4761 -0.2034
 1000MOL0     H34957   5.333  11.384   0.235 -0.0826 -3.2913  2.7161
 1000MOL0     H34958   5.125  11.288   0.320  0.9906 -2.6497  0.0586
 1000MOL0     H34959   5.101  11.198   0.168 -0.4713  0.4156  0.3682
 1000MOL0     H34960   4.924  11.610   0.089 -0.7918  3.0298  3.2486
 1000MOL0     H34961   4.700  11.671  -0.012  1.1036  1.2914 -0.4999
 1000MOL0     H34962   4.578  11.692   0.104  0.2416 -0.0181  0.1021
 1000MOL0     H34963   4.725  11.767   0.145  2.6512 -1.6883 -0.4271
 1000MOL0     H34964   4.373  11.503   0.520 -0.3453 -2.3254  0.0775
 1000MOL0     H34965   4.139  11.582   0.611 -1.9547 -1.5012 -0.9756
 1000MOL0     H34966   3.923  11.641   0.578 -0.7803  0.4451  1.4401
 1000MOL0     H34967   3.985  11.733   0.706  0.2117  0.8466  0.0009
 1000MOL0     H34968   3.785  11.848   0.505  1.5061 -0.7707 -0.1036
 1000MOL0     H34969   3.720  11.762   0.648 -1.0256  0.8415 -0.1104
 1000MOL0     H34970   3.862  12.030   0.653 -0.6645  1.0430  0.9232
 1000MOL0     H34971   3.812  11.928   0.803 -0.5983  0.6775  0.6479
 1000MOL0     H34972   3.614  11.987   0.597 -0.4262 -0.0752  0.4223
 1000MOL0     H34973   3.599  11.935   0.765 -1.1221  1.0819  0.6469
 1000MOL0     H34974   3.689  12.205   0.641 -1.9693 -1.7483 -2.4375
 1000MOL0     H34975   3.715  12.153   0.818  0.6446 -0.8094  0.5452
 1000MOL0     H34976   3.490  12.124   0.861  1.8927  0.0215  1.2887
 1000MOL0     H34977   3.525  12.295   0.803 -0.3911 -0.0243  0.0673
 1000MOL0     H34978   3.396  12.107   0.605  1.2228 -0.1270  0.4667
 1000MOL0     H34979   3.405  12.277   0.607 -3.5786  0.3731 -1.4239
 1000MOL0     H34980   3.272  12.135   0.841  1.9151  2.1416  0.0389
 1000MOL0     H34981   3.178  12.169   0.690 -0.7766 -2.9653  1.7201
 1000MOL0     H34982   4.134  11.881   0.308  1.1576  1.0538  1.3622
 1000MOL0     H34983   4.336  11.796   0.216  0.8352 -0.6243  0.2952
 1000MOL0     H34984   4.679  11.269   0.339 -0.2469  0.5617  0.2378
 1000MOL0     H34985   4.905  11.221   0.279  0.1417  0.0158  0.3802
 1000MOL0     H34986   6.603  10.592   0.868  2.5800 -1.3715  0.6642
 1000MOL0     H34987   6.793  10.560   1.020 -0.7567 -1.5465 -1.4246
 1000MOL0     H34988   6.751  10.638   1.650 -0.1525  0.1753  0.4716
 1000MOL0     H34989   6.921  10.616   1.815 -0.3547 -0.4755 -0.5212
 1000MOL0     H34990   7.113  10.626   1.946  1.1759  0.8132  0.1985
 1000MOL0     H34991   7.287  10.613   1.939 -0.0154 -0.8899 -0.9467
 1000MOL0     H34992   7.226  10.861   1.932  1.0020 -0.4286 -0.1749
 1000MOL0     H34993   7.124  10.821   1.797  1.3949 -0.4097 -2.5872
 1000MOL0     H34994   7.361  10.925   1.764  1.8130  0.4415 -0.0629
 1000MOL0     H34995   7.326  10.777   1.672 -2.2018  1.3069  0.3413
 1000MOL0     H34996   7.553  10.787   1.770  1.1519  0.4983  0.3092
 1000MOL0     H34997   7.467  10.668   1.875 -0.3945  1.1344  3.4697
 1000MOL0     H34998   7.564  10.978   2.144 -2.1290 -0.4606  1.0168
 1000MOL0     H34999   7.198  10.516   1.500  0.7476  1.4280  2.7164
 1000MOL0     H35000   7.034  10.582   1.329 -1.3354  2.6501 -0.6342
 1001MOL0     O35001   4.120   9.890   1.169 -1.4749  0.2167 -0.4093
 1001MOL0     C35002   4.110   9.805   1.070 -0.0837  0.7555 -0.1233
 1001MOL0     O35003   3.995   9.765   1.013  0.4206 -0.0110 -0.3905
 1001MOL0     C35004   3.888   9.849   1.029  0.5357  0.0636 -0.4001
 1001MOL0     C35005   3.844   9.950   0.941 -0.6904 -0.0601 -0.1002
 1001MOL0     C35006   3.735  10.035   0.972  0.1128  0.8700  0.2109
 1001MOL0     C35007   3.670  10.016   1.092 -0.0679 -0.4560 -0.6055
 1001MOL0     O35008   3.566  10.092   1.131  0.0990  0.6427 -0.2134
 1001MOL0     C35009   3.601  10.231   1.104  0.0511  0.4192 -0.0487
 1001MOL0     C35010   3.506  10.321   1.189  0.4096 -0.0179  0.5780
 1001MOL0     C35011   3.359  10.334   1.145  0.3999 -0.3821  0.2014
 1001MOL0     C35012   3.344  10.446   1.047  0.2081 -0.3339  0.2650
 1001MOL0     C35013   3.201  10.438   0.990 -0.4467 -0.5326  0.3535
 1001MOL0     C35014   3.185  10.532   0.878 -0.3841 -0.6816 -1.0054
 1001MOL0     C35015   3.044  10.554   0.835  0.0471  0.1253 -0.1249
 1001MOL0     C35016   3.025  10.668   0.733 -0.0602  0.4565  0.0310
 1001MOL0     N35017   2.885  10.717   0.744  0.5256 -0.1888  0.2965
 1001MOL0     C35018   2.774  10.673   0.679 -0.3572  0.3420 -0.2557
 1001MOL0     C35019   2.678  10.755   0.712  0.3939 -0.2417 -0.4945
 1001MOL0     C35020   2.531  10.754   0.664 -0.2646  0.3840 -0.5582
 1001MOL0     C35021   2.438  10.724   0.784 -0.3083 -0.0043 -0.1536
 1001MOL0     C35022   2.399  10.842   0.863  0.6671 -0.1418 -0.0898
 1001MOL0     C35023   2.310  10.818   0.986  0.0758 -0.3280 -0.2576
 1001MOL0     O35024   2.175  10.787   0.943  0.4361 -0.1568  0.7457
 1001MOL0     C35025   2.092  10.719   1.027  0.6962 -0.1160 -1.8392
 1001MOL0     C35026   2.099  10.704   1.168  0.1561  0.8433  0.1521
 1001MOL0     C35027   1.995  10.638   1.240  0.0625 -0.5479  0.3982
 1001MOL0     C35028   2.028  10.611   1.380 -0.1458 -0.8180 -0.1974
 1001MOL0     C35029   1.869  10.612   1.182  0.2634  0.0440 -0.3187
 1001MOL0     C35030   1.756  10.556   1.251  0.1334 -0.2849  0.0874
 1001MOL0     O35031   1.648  10.530   1.167 -0.4280 -0.8499  0.4157
 1001MOL0     C35032   1.524  10.506   1.219 -0.3669  0.2073 -2.0159
 1001MOL0     C35033   1.449  10.424   1.147 -0.1229 -0.0104  0.3197
 1001MOL0     C35034   1.315  10.377   1.183 -1.3947 -0.4334 -0.0038
 1001MOL0     C35035   1.276  10.396   1.309 -0.5477  0.1784  0.3063
 1001MOL0     O35036   1.146  10.359   1.333  0.0933  0.0002 -0.4778
 1001MOL0     C35037   1.095  10.409   1.458  0.4474 -0.7975  0.0174
 1001MOL0     C35038   1.043  10.544   1.450 -0.9088 -0.2763  0.2976
 1001MOL0     C35039   0.925  10.570   1.354 -0.1391  0.4686  0.2266
 1001MOL0     C35040   0.797  10.525   1.416  0.0424 -0.5206  0.4313
 1001MOL0     C35041   0.672  10.597   1.351 -0.0490 -0.2929 -0.0555
 1001MOL0     C35042   0.546  10.543   1.414  0.3563 -0.1497  0.2761
 1001MOL0     C35043   0.408  10.590   1.348 -0.2763  0.2355  0.2057
 1001MOL0     C35044   0.393  10.737   1.356  0.1335  0.3257 -0.2392
 1001MOL0    Cl35045   0.212  10.768   1.311 -0.1398 -0.0775 -0.0807
 1001MOL0     C35046   1.356  10.475   1.394  1.3777  0.1424 -0.1681
 1001MOL0     C35047   1.470  10.535   1.348 -0.6988 -0.6614  0.1581
 1001MOL0     O35048   1.752  10.550   1.376 -0.3765 -0.4883  0.2538
 1001MOL0     C35049   1.866  10.636   1.046 -0.2138 -0.3350 -0.4193
 1001MOL0     C35050   1.975  10.678   0.969  0.3340  0.0177 -0.0911
 1001MOL0     N35051   2.737  10.858   0.790  0.2505  0.1267 -0.2426
 1001MOL0     N35052   2.853  10.823   0.820  0.4151  0.2714  0.2935
 1001MOL0     C35053   3.711   9.918   1.181  0.5225 -0.2290 -0.6001
 1001MOL0     C35054   3.813   9.829   1.142 -0.1021 -1.0095  0.4138
 1001MOL0     C35055   4.234   9.725   1.034  0.6271 -0.3825 -0.0364
 1001MOL0     C35056   4.226   9.624   0.935  0.0821 -0.0565 -0.2081
 1001MOL0     C35057   4.342   9.569   0.876 -0.4951 -0.0420  0.2550
 1001MOL0     C35058   4.465   9.613   0.921 -0.3711 -0.0088  0.4002
 1001MOL0     O35059   4.583   9.568   0.868 -0.6349  0.4774  0.0266
 1001MOL0     C35060   4.582   9.468   0.757 -0.2510  0.0244  0.3662
 1001MOL0     C35061   4.719   9.425   0.703 -0.1443  0.2909 -1.0867
 1001MOL0     C35062   4.794   9.339   0.803 -0.1884 -0.0865  0.4004
 1001MOL0     C35063   4.884   9.424   0.904 -0.0711  0.9216  0.3606
 1001MOL0     C35064   5.008   9.478   0.849 -0.1748 -0.1082  0.1246
 1001MOL0     C35065   5.093   9.541   0.792  0.3800 -0.6358 -0.7301
 1001MOL0     C35066   4.476   9.710   1.023  0.1092 -0.4008  1.1718
 1001MOL0     C35067   4.356   9.766   1.077  0.1896  0.8401 -0.9847
 1001MOL0     H35068   3.890   9.952   0.843 -0.8673 -4.5563 -0.4632
 1001MOL0     H35069   3.709  10.110   0.898  5.3011  2.2069 -0.6375
 1001MOL0     H35070   3.702  10.248   1.142  0.7211 -3.1536  0.0780
 1001MOL0     H35071   3.594  10.253   0.997  3.7904 -1.6763 -0.8917
 1001MOL0     H35072   3.506  10.268   1.285  2.3932  0.2645  0.7756
 1001MOL0     H35073   3.552  10.419   1.204  0.5041 -0.0103  0.2450
 1001MOL0     H35074   3.324  10.240   1.101 -0.2871 -0.1972  0.3586
 1001MOL0     H35075   3.305  10.359   1.237 -1.1363 -0.4260 -0.6677
 1001MOL0     H35076   3.363  10.548   1.083  0.6248  0.0401 -0.9741
 1001MOL0     H35077   3.408  10.425   0.961 -3.5050  0.8543 -3.0699
 1001MOL0     H35078   3.159  10.342   0.959 -0.7865  0.7963 -3.8700
 1001MOL0     H35079   3.124  10.475   1.059 -0.8950 -3.6555  1.6912
 1001MOL0     H35080   3.226  10.631   0.902 -0.8212 -1.0803  1.7943
 1001MOL0     H35081   3.244  10.478   0.804 -0.1876 -2.2139  0.2224
 1001MOL0     H35082   3.003  10.457   0.803  1.5679 -0.5530 -0.0897
 1001MOL0     H35083   2.984  10.579   0.922 -1.6449 -0.9768 -0.9148
 1001MOL0     H35084   3.045  10.626   0.634 -0.9142  2.8657 -1.2314
 1001MOL0     H35085   3.099  10.746   0.752 -0.1478  1.3317 -2.7887
 1001MOL0     H35086   2.765  10.576   0.630 -0.8002  0.8954 -1.3110
 1001MOL0     H35087   2.501  10.846   0.614  1.4357  0.0147 -2.3857
 1001MOL0     H35088   2.522  10.676   0.587  2.4100  0.9666 -1.5601
 1001MOL0     H35089   2.481  10.645   0.847  1.6551  0.3205 -1.0263
 1001MOL0     H35090   2.347  10.672   0.754  0.2582 -1.7260  0.9144
 1001MOL0     H35091   2.346  10.905   0.790  0.8905  1.2212  0.8826
 1001MOL0     H35092   2.487  10.894   0.902  1.2942 -1.8969  0.9030
 1001MOL0     H35093   2.310  10.911   1.044 -0.7800  0.5238 -1.5548
 1001MOL0     H35094   2.348  10.744   1.057 -1.9809  0.3147  1.6244
 1001MOL0     H35095   2.181  10.747   1.225  1.7717  3.2103 -3.5384
 1001MOL0     H35096   1.974  10.673   1.452  1.4664  1.4948 -0.8432
 1001MOL0     H35097   1.996  10.509   1.404 -2.9723  0.2656  1.1523
 1001MOL0     H35098   2.135  10.627   1.395 -0.2592  1.4959 -1.3782
 1001MOL0     H35099   1.490  10.417   1.047  1.1834 -1.1765  0.9117
 1001MOL0     H35100   1.248  10.321   1.118 -0.2208 -1.0108 -0.7482
 1001MOL0     H35101   0.999  10.358   1.471 -0.2939  0.5649  0.0692
 1001MOL0     H35102   1.157  10.374   1.542  0.7472 -2.7885 -0.9602
 1001MOL0     H35103   1.016  10.563   1.555 -1.7109  0.9807 -0.1054
 1001MOL0     H35104   1.120  10.613   1.412 -2.2530  0.6358 -0.9099
 1001MOL0     H35105   0.950  10.533   1.254  2.6045  1.9427  0.2814
 1001MOL0     H35106   0.914  10.678   1.335  0.9215  0.2292 -2.2386
 1001MOL0     H35107   0.784  10.416   1.411 -2.5956 -0.2569 -0.0554
 1001MOL0     H35108   0.790  10.540   1.524 -3.2380  0.8143  0.1658
 1001MOL0     H35109   0.679  10.591   1.242 -0.2555  1.2563 -0.1724
 1001MOL0     H35110   0.673  10.705   1.363 -1.3612  0.1122 -2.6986
 1001MOL0     H35111   0.548  10.434   1.402  3.1039 -0.5642  3.1281
 1001MOL0     H35112   0.551  10.563   1.521 -0.9362 -1.3094  0.5871
 1001MOL0     H35113   0.324  10.548   1.405 -1.2162  1.1088 -0.4811
 1001MOL0     H35114   0.396  10.561   1.243 -2.0649  0.8841  0.1941
 1001MOL0     H35115   0.463  10.787   1.288  0.6574  1.4864  1.1025
 1001MOL0     H35116   0.412  10.768   1.460 -0.3498 -0.3867  0.0714
 1001MOL0     H35117   1.338  10.478   1.501 -1.8966 -0.4278 -0.6268
 1001MOL0     H35118   1.515  10.594   1.427 -0.6825 -0.6666  0.1529
 1001MOL0     H35119   1.778  10.613   0.988  0.1061 -2.9123 -0.0029
 1001MOL0     H35120   1.962  10.678   0.862  1.1363  2.1251 -0.2428
 1001MOL0     H35121   3.656   9.888   1.270 -0.9697 -3.1530 -2.3697
 1001MOL0     H35122   3.847   9.755   1.214 -0.9418 -2.0428 -0.2226
 1001MOL0     H35123   4.126   9.596   0.904  0.7155  0.3559 -2.8105
 1001MOL0     H35124   4.329   9.506   0.789 -2.4107  0.6167  0.0019
 1001MOL0     H35125   4.534   9.375   0.789 -2.6250  1.0843  0.0490
 1001MOL0     H35126   4.523   9.517   0.679 -0.1572  0.0016  0.2806
 1001MOL0     H35127   4.797   9.498   0.678  3.2031 -3.0590 -1.3034
 1001MOL0     H35128   4.702   9.360   0.617 -0.3127 -1.6434  0.3548
 1001MOL0     H35129   4.864   9.275   0.750  0.6491  2.1300 -1.3668
 1001MOL0     H35130   4.736   9.265   0.859 -0.4688  0.0125  0.2470
 1001MOL0     H35131   4.907   9.352   0.983  0.8780 -0.0555 -0.7673
 1001MOL0     H35132   4.829   9.505   0.952 -0.1607  1.9225 -1.3488
 1001MOL0     H35133   5.149   9.611   0.733 -1.7619  0.2856 -1.7834
 1001MOL0     H35134   4.574   9.754   1.038  0.8961 -1.0391 -1.5782
 1001MOL0     H35135   4.364   9.833   1.161  0.1924  3.1460 -2.7271
 1002MOL0     O35136   6.665   9.603   2.239  0.4672 -0.1089  0.1929
 1002MOL0     C35137   6.719   9.501   2.278 -0.0324  0.0163  0.4508
 1002MOL0     O35138   6.659   9.413   2.357  0.6991 -0.2166  1.1725
 1002MOL0     C35139   6.524   9.439   2.392 -0.3227 -0.5704 -0.0162
 1002MOL0     C35140   6.423   9.424   2.293 -1.4590 -0.1575 -0.6333
 1002MOL0     C35141   6.287   9.446   2.338  0.3846  0.8604 -0.1252
 1002MOL0     C35142   6.250   9.467   2.470 -0.1081 -0.3868  0.5706
 1002MOL0     O35143   6.122   9.488   2.505  0.1174 -0.0965  0.0648
 1002MOL0     C35144   6.014   9.501   2.410  0.3103 -0.4807  0.1947
 1002MOL0     C35145   5.886   9.533   2.486 -0.5270  0.2052  0.1375
 1002MOL0     C35146   5.767   9.569   2.394 -0.8699 -1.5477  0.4570
 1002MOL0     C35147   5.652   9.635   2.477 -0.1896  0.0813  0.6252
 1002MOL0     C35148   5.527   9.661   2.388  0.1267  0.2676 -0.2312
 1002MOL0     C35149   5.422   9.706   2.485  1.4334  0.4337 -0.4095
 1002MOL0     C35150   5.298   9.760   2.409  0.1198  0.8782  0.1499
 1002MOL0     C35151   5.204   9.834   2.514  0.2667  0.4452  0.9408
 1002MOL0     N35152   5.085   9.895   2.447  0.6996  0.5140 -0.0307
 1002MOL0     C35153   4.956   9.849   2.427 -0.6481  0.1094 -0.6292
 1002MOL0     C35154   4.887   9.946   2.358  0.4644 -0.4426 -0.2172
 1002MOL0     C35155   4.752   9.932   2.295  0.5587 -1.0081 -0.7482
 1002MOL0     C35156   4.660   9.830   2.354  0.2820  0.5391  0.6239
 1002MOL0     C35157   4.516   9.837   2.280 -0.7330 -0.4516 -0.4080
 1002MOL0     C35158   4.428   9.941   2.352 -1.1421 -0.7503 -0.6782
 1002MOL0     O35159   4.302   9.946   2.280 -0.2520 -0.0541  0.3029
 1002MOL0     C35160   4.196   9.872   2.319 -0.3932  0.5691  0.0575
 1002MOL0     C35161   4.196   9.764   2.408  0.5140 -0.2460  0.2192
 1002MOL0     C35162   4.074   9.697   2.438  0.8645 -0.0711 -0.8902
 1002MOL0     C35163   4.077   9.593   2.544 -0.6096  0.1689  0.2118
 1002MOL0     C35164   3.952   9.725   2.363  0.2336  0.0670 -0.0242
 1002MOL0     C35165   3.821   9.660   2.404 -0.4210 -0.2381 -0.1191
 1002MOL0     O35166   3.700   9.735   2.393  0.0647  0.1470 -0.2339
 1002MOL0     C35167   3.580   9.675   2.388  0.1544  0.4026  0.3761
 1002MOL0     C35168   3.542   9.598   2.493 -0.2527  0.5650  0.2141
 1002MOL0     C35169   3.413   9.541   2.500  0.2322 -1.2598  0.4824
 1002MOL0     C35170   3.319   9.568   2.390  1.0284  0.1626 -0.4022
 1002MOL0     O35171   3.193   9.507   2.372  0.5801 -1.0314  0.2079
 1002MOL0     C35172   3.111   9.497   2.488  0.0221 -0.7217  0.0268
 1002MOL0     C35173   2.968   9.448   2.455  0.0818  0.6965 -0.6318
 1002MOL0     C35174   2.880   9.569   2.390 -0.8111  0.5427  0.8019
 1002MOL0     C35175   2.737   9.534   2.360  0.1981  0.0311  0.0444
 1002MOL0     C35176   2.715   9.412   2.274  0.6389  0.1614 -0.5843
 1002MOL0     C35177   2.573   9.383   2.242 -0.1635 -0.8624  0.3777
 1002MOL0     C35178   2.488   9.348   2.358  0.0749 -0.2228 -0.1309
 1002MOL0     C35179   2.356   9.281   2.308  0.5063  0.4537 -0.6017
 1002MOL0    Cl35180   2.229   9.257   2.441  0.6968  0.0837  0.3122
 1002MOL0     C35181   3.363   9.649   2.284  0.0370 -0.1333  0.5054
 1002MOL0     C35182   3.485   9.711   2.290  0.6370 -1.0358  0.5723
 1002MOL0     O35183   3.825   9.541   2.436  0.1927 -0.4707  0.2589
 1002MOL0     C35184   3.955   9.845   2.284 -0.2349  0.3896 -0.5799
 1002MOL0     C35185   4.078   9.905   2.252 -0.0243 -0.0402  0.5311
 1002MOL0     N35186   4.981  10.048   2.333  1.4016  0.3818 -0.7646
 1002MOL0     N35187   5.100  10.012   2.379  0.7847  0.8158 -0.7784
 1002MOL0     C35188   6.349   9.460   2.563  0.3207 -0.2022 -0.0998
 1002MOL0     C35189   6.481   9.445   2.525  0.1201 -0.6928 -0.0787
 1002MOL0     C35190   6.861   9.466   2.243  0.4097  0.2142  0.2079
 1002MOL0     C35191   6.924   9.356   2.306  0.4033 -0.8983 -0.4817
 1002MOL0     C35192   7.056   9.323   2.275  1.1985 -0.2246 -0.8070
 1002MOL0     C35193   7.130   9.395   2.180 -0.0084 -0.5265  0.3586
 1002MOL0     O35194   7.263   9.370   2.144 -0.2092  0.2869 -0.0810
 1002MOL0     C35195   7.346   9.340   2.252 -0.0420  0.6227  0.2969
 1002MOL0     C35196   7.496   9.341   2.212 -0.8603 -0.4969 -0.2724
 1002MOL0     C35197   7.532   9.258   2.090 -0.2660 -0.1700 -0.1109
 1002MOL0     C35198   7.649   9.316   2.009 -0.0375  0.9611 -1.0505
 1002MOL0     C35199   7.773   9.317   2.093 -0.0381 -0.3463 -0.3579
 1002MOL0     C35200   7.884   9.315   2.150  0.6041  0.9377 -0.4679
 1002MOL0     C35201   7.066   9.495   2.108  0.1862 -0.1614 -0.5362
 1002MOL0     C35202   6.942   9.540   2.158  0.3934 -0.5992  0.4975
 1002MOL0     H35203   6.433   9.423   2.185 -3.3177  1.2639 -0.8755
 1002MOL0     H35204   6.209   9.445   2.263  0.3503  1.8225 -0.1117
 1002MOL0     H35205   6.031   9.589   2.347 -0.2585 -0.4802  0.0389
 1002MOL0     H35206   5.996   9.411   2.350 -2.8019 -0.7243  1.3503
 1002MOL0     H35207   5.862   9.441   2.539  0.7930 -2.0998 -2.9391
 1002MOL0     H35208   5.916   9.610   2.558  0.3745 -0.4372  0.4544
 1002MOL0     H35209   5.797   9.627   2.307 -0.1384 -0.5867  1.3315
 1002MOL0     H35210   5.731   9.477   2.347  1.8772 -1.5225 -1.9963
 1002MOL0     H35211   5.627   9.566   2.559  1.3725  0.2199  1.2434
 1002MOL0     H35212   5.687   9.732   2.513 -2.3600  1.6049 -1.0895
 1002MOL0     H35213   5.543   9.739   2.313 -0.6186  0.2324 -0.4378
 1002MOL0     H35214   5.492   9.575   2.329  2.0430  1.1426 -2.8342
 1002MOL0     H35215   5.389   9.623   2.549 -0.4064 -0.4834 -2.3825
 1002MOL0     H35216   5.456   9.786   2.550  0.8842  0.4698 -0.1602
 1002MOL0     H35217   5.328   9.833   2.332  0.9565  0.6011  0.2024
 1002MOL0     H35218   5.242   9.677   2.364 -0.9514  0.7757  1.6135
 1002MOL0     H35219   5.273   9.908   2.555  3.9968 -0.6284 -2.6837
 1002MOL0     H35220   5.160   9.767   2.588 -2.3800 -0.6542 -1.4437
 1002MOL0     H35221   4.917   9.751   2.454 -0.2762  0.0105 -0.4389
 1002MOL0     H35222   4.705  10.030   2.306  2.0349 -0.0512 -2.4749
 1002MOL0     H35223   4.768   9.914   2.189  1.4244  0.6011 -0.9148
 1002MOL0     H35224   4.644   9.854   2.459 -2.0901 -0.0659  0.4554
 1002MOL0     H35225   4.707   9.733   2.332 -0.2645  0.8130 -2.1716
 1002MOL0     H35226   4.468   9.741   2.299 -0.0112 -0.5591  0.9895
 1002MOL0     H35227   4.516   9.840   2.170 -0.9601 -0.6724 -0.4161
 1002MOL0     H35228   4.468  10.043   2.357 -0.4799 -1.0073 -0.6198
 1002MOL0     H35229   4.412   9.908   2.455 -2.6667 -1.0637 -0.9956
 1002MOL0     H35230   4.284   9.745   2.468 -1.4245 -3.0724  2.4279
 1002MOL0     H35231   4.169   9.608   2.601  0.5804  0.1786 -1.6090
 1002MOL0     H35232   3.994   9.597   2.614  0.4984  2.8786  1.5443
 1002MOL0     H35233   4.082   9.490   2.508 -1.0254  0.1146  0.3105
 1002MOL0     H35234   3.614   9.580   2.573  1.5078 -1.6161 -1.7206
 1002MOL0     H35235   3.393   9.478   2.586 -2.0663  0.8882  1.6870
 1002MOL0     H35236   3.154   9.421   2.553 -2.3938 -1.3271  1.0470
 1002MOL0     H35237   3.105   9.595   2.536  1.5210 -1.0028  0.8659
 1002MOL0     H35238   2.980   9.357   2.396 -1.7654 -0.5802  0.8015
 1002MOL0     H35239   2.903   9.418   2.539 -1.5161  1.1015 -1.6861
 1002MOL0     H35240   2.930   9.588   2.294  0.2343  0.7926  1.3794
 1002MOL0     H35241   2.897   9.659   2.449  2.6916 -1.8163  3.8403
 1002MOL0     H35242   2.685   9.519   2.456  1.0812 -1.2531  0.3360
 1002MOL0     H35243   2.701   9.620   2.303 -0.4345  1.8672  2.9466
 1002MOL0     H35244   2.751   9.337   2.345  1.2290 -1.3349 -2.4043
 1002MOL0     H35245   2.785   9.404   2.191  0.0723  0.5799 -1.1083
 1002MOL0     H35246   2.541   9.470   2.183  3.9984 -0.8696 -2.2997
 1002MOL0     H35247   2.577   9.300   2.170  3.1341 -0.6724  0.1673
 1002MOL0     H35248   2.466   9.437   2.417 -0.7906 -1.2637  1.1902
 1002MOL0     H35249   2.544   9.278   2.421  2.4824 -0.8057 -2.7139
 1002MOL0     H35250   2.380   9.186   2.258  1.2991  1.9634 -3.3239
 1002MOL0     H35251   2.303   9.341   2.233 -0.6387 -0.5816 -0.6467
 1002MOL0     H35252   3.300   9.667   2.199  0.9238 -2.9677 -0.8935
 1002MOL0     H35253   3.515   9.787   2.218 -2.6011  1.5612  1.7192
 1002MOL0     H35254   3.869   9.877   2.227 -2.1844 -2.8219  0.3178
 1002MOL0     H35255   4.073   9.979   2.173 -0.5618 -1.4912 -0.8415
 1002MOL0     H35256   6.314   9.470   2.666 -2.9442  0.3703 -1.1378
 1002MOL0     H35257   6.557   9.436   2.602 -0.3844  0.0241  0.5159
 1002MOL0     H35258   6.863   9.289   2.367 -0.6635 -0.3067 -0.8642
 1002MOL0     H35259   7.112   9.246   2.327  2.5737  1.5467  0.4527
 1002MOL0     H35260   7.327   9.394   2.345  0.7417 -2.7329  2.6071
 1002MOL0     H35261   7.312   9.239   2.277 -3.5031  1.5405 -0.0886
 1002MOL0     H35262   7.538   9.293   2.301 -1.8612 -0.9855 -0.0485
 1002MOL0     H35263   7.525   9.446   2.201  1.2924 -0.8584  1.2892
 1002MOL0     H35264   7.451   9.230   2.022 -0.4916 -1.4094  0.6422
 1002MOL0     H35265   7.558   9.158   2.128  2.2376 -0.3911 -2.1279
 1002MOL0     H35266   7.624   9.417   1.976  2.4598  2.1712  0.4812
 1002MOL0     H35267   7.664   9.246   1.927  3.4163 -0.0855  0.2924
 1002MOL0     H35268   7.978   9.300   2.200  0.4994 -0.0499 -0.5488
 1002MOL0     H35269   7.117   9.555   2.033 -1.4448  0.8455 -0.8989
 1002MOL0     H35270   6.904   9.636   2.124  0.6860 -0.9532 -0.8678
 1003MOL0     O35271   8.359   9.065  11.252  0.0569  0.7798  0.0013
 1003MOL0     C35272   8.410   8.967  11.306 -0.0148 -0.3238  0.0543
 1003MOL0     O35273   8.346   8.849  11.328 -0.7383  0.4770  0.2738
 1003MOL0     C35274   8.213   8.843  11.284  0.3076 -0.6280 -0.2608
 1003MOL0     C35275   8.177   8.797  11.164  0.2439  0.0484  0.6360
 1003MOL0     C35276   8.045   8.806  11.116 -0.4267  0.6702 -0.3307
 1003MOL0     C35277   7.950   8.867  11.191 -0.1234  1.2656 -0.2502
 1003MOL0     O35278   7.828   8.869  11.124 -0.0777 -0.7947 -0.2085
 1003MOL0     C35279   7.704   8.883  11.207 -0.3720  0.4330 -0.7830
 1003MOL0     C35280   7.605   8.803  11.121 -0.4781 -1.1094  0.3329
 1003MOL0     C35281   7.469   8.802  11.184 -0.1271 -0.4060  0.8476
 1003MOL0     C35282   7.372   8.703  11.109  0.2547 -0.1182  0.5156
 1003MOL0     C35283   7.236   8.706  11.174 -0.4395 -0.3109 -0.1895
 1003MOL0     C35284   7.133   8.672  11.067 -0.0877  0.3239 -0.1246
 1003MOL0     C35285   6.987   8.684  11.116  0.0380 -0.6529  0.8438
 1003MOL0     C35286   6.882   8.593  11.036 -1.4260 -0.1219  0.0368
 1003MOL0     N35287   6.752   8.592  11.093  0.0610  0.7778  0.3218
 1003MOL0     C35288   6.670   8.692  11.148 -0.2847 -0.5791 -0.0784
 1003MOL0     C35289   6.555   8.633  11.192  0.3367 -0.9911  0.5157
 1003MOL0     C35290   6.448   8.699  11.278 -0.4105 -0.4394  0.9377
 1003MOL0     C35291   6.309   8.638  11.271  0.4320 -0.3050  0.4029
 1003MOL0     C35292   6.211   8.702  11.368 -0.7277 -0.8771 -1.0193
 1003MOL0     C35293   6.187   8.849  11.352 -0.0824 -0.9343  0.7986
 1003MOL0     O35294   6.106   8.878  11.460 -0.4161  0.3638  0.2586
 1003MOL0     C35295   6.018   8.985  11.432  0.0521  0.5642 -0.4257
 1003MOL0     C35296   6.058   9.100  11.355  0.4211 -0.1470  0.0007
 1003MOL0     C35297   5.962   9.198  11.324 -0.1231 -0.6278 -0.3688
 1003MOL0     C35298   6.010   9.314  11.238  0.2876 -0.6774  0.3557
 1003MOL0     C35299   5.822   9.183  11.353 -0.9048 -0.2233 -0.4332
 1003MOL0     C35300   5.710   9.273  11.308 -0.3674 -1.2513  0.5659
 1003MOL0     O35301   5.596   9.216  11.259  0.3103  0.0887 -0.4024
 1003MOL0     C35302   5.480   9.305  11.243 -0.0322  1.1925 -0.1544
 1003MOL0     C35303   5.455   9.374  11.124 -0.9238  0.0867 -0.2378
 1003MOL0     C35304   5.336   9.440  11.112  0.3671 -0.0401 -0.0182
 1003MOL0     C35305   5.234   9.424  11.210  0.0785 -0.3505 -0.0149
 1003MOL0     O35306   5.116   9.500  11.210  0.0254  1.0111 -0.0148
 1003MOL0     C35307   5.045   9.539  11.087  0.4829 -0.0272  0.2208
 1003MOL0     C35308   4.917   9.631  11.122  0.2143 -0.4212  0.0508
 1003MOL0     C35309   4.807   9.540  11.172 -0.7002 -0.4619 -0.4907
 1003MOL0     C35310   4.672   9.615  11.185  0.2056  0.2583 -0.6826
 1003MOL0     C35311   4.557   9.519  11.225 -0.7225  0.1395  0.1282
 1003MOL0     C35312   4.429   9.599  11.219  0.8304 -0.4290  0.3665
 1003MOL0     C35313   4.313   9.500  11.249 -0.3487 -0.0904  0.7219
 1003MOL0     C35314   4.174   9.547  11.219  1.0239 -0.1471  0.1189
 1003MOL0    Cl35315   4.128   9.681  11.331 -0.3154  0.2867  0.3730
 1003MOL0     C35316   5.261   9.354  11.324  0.5584 -0.0692  0.6585
 1003MOL0     C35317   5.384   9.284  11.342 -0.7170 -0.4549 -0.7301
 1003MOL0     O35318   5.730   9.392  11.294 -0.2112  0.0240 -0.1294
 1003MOL0     C35319   5.788   9.065  11.424  0.2228  0.2585  1.1599
 1003MOL0     C35320   5.878   8.976  11.465  0.6299 -0.3950  1.1140
 1003MOL0     N35321   6.557   8.501  11.159 -0.7660  0.6136  0.4561
 1003MOL0     N35322   6.673   8.481  11.098  0.1508  0.1432  0.5177
 1003MOL0     C35323   7.987   8.926  11.315  0.0555 -0.4705 -0.6883
 1003MOL0     C35324   8.116   8.920  11.356 -1.2222  0.9097 -0.0847
 1003MOL0     C35325   8.553   8.974  11.336 -1.3442 -0.3602 -0.2756
 1003MOL0     C35326   8.614   8.877  11.424 -0.4455 -0.3752 -0.1158
 1003MOL0     C35327   8.746   8.884  11.456 -0.5294  0.4429 -0.2354
 1003MOL0     C35328   8.834   8.968  11.394  0.3019 -0.5839  0.3248
 1003MOL0     O35329   8.969   8.962  11.407 -0.4414 -0.7139 -0.8840
 1003MOL0     C35330   9.018   8.890  11.524  0.1044  0.3529  0.3023
 1003MOL0     C35331   9.166   8.932  11.543  0.2781 -0.9209  0.3473
 1003MOL0     C35332   9.224   8.866  11.668 -0.2743 -0.0632  0.4311
 1003MOL0     C35333   9.365   8.910  11.703 -0.4475  0.2740 -0.2636
 1003MOL0     C35334   9.397   8.856  11.832 -0.2296  0.2011 -0.1171
 1003MOL0     C35335   9.420   8.817  11.948 -0.5735 -0.2587 -0.2538
 1003MOL0     C35336   8.783   9.059  11.300  0.6780  0.1288 -0.1979
 1003MOL0     C35337   8.644   9.066  11.281 -0.6095 -0.6496  0.4478
 1003MOL0     H35338   8.254   8.760  11.097  0.5405  0.3501  0.8080
 1003MOL0     H35339   8.015   8.766  11.020  0.3654  1.7882 -1.0614
 1003MOL0     H35340   7.714   8.835  11.304 -0.8163  1.5151 -0.1870
 1003MOL0     H35341   7.663   8.984  11.216 -2.7251 -0.5477  0.0822
 1003MOL0     H35342   7.607   8.854  11.024 -2.9534 -4.2897 -1.5809
 1003MOL0     H35343   7.655   8.705  11.119  3.5478  0.7004 -2.2952
 1003MOL0     H35344   7.477   8.783  11.291  1.2937 -0.3842  0.7756
 1003MOL0     H35345   7.419   8.899  11.175  1.9524  0.8679  2.2179
 1003MOL0     H35346   7.376   8.730  11.004  0.7225 -0.0505  0.5467
 1003MOL0     H35347   7.407   8.600  11.114 -0.2770 -0.2864  0.9176
 1003MOL0     H35348   7.223   8.643  11.263 -0.8813 -0.6850 -0.5162
 1003MOL0     H35349   7.225   8.807  11.214  1.0557  0.0939 -0.7239
 1003MOL0     H35350   7.150   8.735  10.979  2.9292 -0.7770 -0.4354
 1003MOL0     H35351   7.163   8.574  11.028  0.5038  0.7132 -0.6564
 1003MOL0     H35352   6.976   8.676  11.225  0.8774 -0.8545  0.9207
 1003MOL0     H35353   6.960   8.789  11.102  1.5964 -0.4952 -1.3553
 1003MOL0     H35354   6.919   8.491  11.033  0.2021  0.4441 -0.4075
 1003MOL0     H35355   6.869   8.637  10.937 -4.2834  0.3353  0.5164
 1003MOL0     H35356   6.697   8.797  11.155 -2.0969 -0.1242  0.8338
 1003MOL0     H35357   6.481   8.700  11.382  1.3066 -1.2900  0.4490
 1003MOL0     H35358   6.448   8.802  11.241 -0.2614 -0.6122  0.4416
 1003MOL0     H35359   6.320   8.531  11.288 -4.2807 -0.7107  2.3556
 1003MOL0     H35360   6.261   8.654  11.173  1.6418  1.2234  0.0056
 1003MOL0     H35361   6.260   8.693  11.466  2.6693 -0.7425 -2.5648
 1003MOL0     H35362   6.117   8.648  11.375 -0.6837 -0.7971  3.1580
 1003MOL0     H35363   6.148   8.871  11.252 -1.5108 -0.4566  1.4339
 1003MOL0     H35364   6.286   8.892  11.367  0.2439 -1.4018  0.0163
 1003MOL0     H35365   6.161   9.106  11.322  0.0375 -2.8598 -2.0612
 1003MOL0     H35366   6.119   9.321  11.242  0.2653 -0.4087  3.5853
 1003MOL0     H35367   5.964   9.315  11.139  0.1440 -1.2162  0.4149
 1003MOL0     H35368   5.989   9.409  11.289 -1.4217 -0.5451 -0.5462
 1003MOL0     H35369   5.531   9.399  11.051 -1.2553  1.0026 -0.2850
 1003MOL0     H35370   5.309   9.504  11.029 -1.1994 -0.6302  0.0039
 1003MOL0     H35371   5.113   9.601  11.028 -0.9156  0.0255 -1.3930
 1003MOL0     H35372   5.015   9.457  11.020  1.9333  1.8212 -2.8942
 1003MOL0     H35373   4.952   9.702  11.197 -1.4358  1.6580 -1.0514
 1003MOL0     H35374   4.878   9.691  11.041 -0.0650  0.8775  1.1178
 1003MOL0     H35375   4.835   9.510  11.274 -0.5492 -1.0405 -0.6976
 1003MOL0     H35376   4.788   9.449  11.115 -4.9863  0.1384 -0.3293
 1003MOL0     H35377   4.683   9.698  11.255 -0.6975 -2.2515  2.7017
 1003MOL0     H35378   4.637   9.652  11.088 -1.2432 -2.4961 -1.3484
 1003MOL0     H35379   4.578   9.470  11.321  0.4919 -1.6724 -1.0039
 1003MOL0     H35380   4.558   9.433  11.158 -2.8627 -0.8241  1.2310
 1003MOL0     H35381   4.419   9.689  11.279 -0.3818 -0.4709  0.2366
 1003MOL0     H35382   4.416   9.639  11.118  1.7068  0.1944  0.4872
 1003MOL0     H35383   4.317   9.458  11.350  2.6631 -2.6262 -0.2854
 1003MOL0     H35384   4.334   9.415  11.184  0.7193  1.2794 -0.8325
 1003MOL0     H35385   4.110   9.459  11.235  4.7894 -3.0863  0.3572
 1003MOL0     H35386   4.154   9.585  11.119  3.5793 -0.3063 -0.5108
 1003MOL0     H35387   5.185   9.362  11.401 -0.2205 -0.5093 -0.0556
 1003MOL0     H35388   5.412   9.212  11.418  2.1256 -0.6361 -1.8305
 1003MOL0     H35389   5.681   9.066  11.444 -0.8068  1.0635 -3.3005
 1003MOL0     H35390   5.843   8.892  11.523 -1.4210  0.6279  1.4468
 1003MOL0     H35391   7.906   8.969  11.374  0.7143 -0.9025  0.5673
 1003MOL0     H35392   8.139   8.962  11.453 -2.3436 -0.4388  0.8167
 1003MOL0     H35393   8.553   8.806  11.478 -1.4131  0.7342  0.2904
 1003MOL0     H35394   8.774   8.807  11.527 -0.7088 -0.3238 -0.9855
 1003MOL0     H35395   8.972   8.924  11.617 -0.3526 -2.3683  1.1380
 1003MOL0     H35396   9.005   8.782  11.516 -0.6634  0.5539 -2.0062
 1003MOL0     H35397   9.167   9.041  11.540 -3.3705 -0.7186  1.1044
 1003MOL0     H35398   9.222   8.897  11.456  2.4309  0.0703  1.2769
 1003MOL0     H35399   9.236   8.759  11.651 -0.3589 -0.0725  0.4315
 1003MOL0     H35400   9.155   8.895  11.748 -3.8732 -0.5657 -2.2197
 1003MOL0     H35401   9.372   9.019  11.705 -0.3362  0.2623  1.3748
 1003MOL0     H35402   9.441   8.883  11.628 -0.0737  0.2156  0.1304
 1003MOL0     H35403   9.441   8.774  12.044 -0.0405  0.4952 -0.0223
 1003MOL0     H35404   8.855   9.119  11.245  1.0388 -0.1524 -0.0368
 1003MOL0     H35405   8.604   9.151  11.226  0.7983  1.0395  1.9037
 1004MOL0     O35406   2.513   8.033   5.725  0.3573 -0.4126  0.9238
 1004MOL0     C35407   2.562   8.144   5.747 -0.2279  0.1792  0.7299
 1004MOL0     O35408   2.508   8.259   5.795  0.0365 -0.8578 -0.2449
 1004MOL0     C35409   2.379   8.255   5.842 -0.4346  0.0231 -0.0656
 1004MOL0     C35410   2.279   8.224   5.759 -1.1580 -0.4336  1.1462
 1004MOL0     C35411   2.155   8.176   5.800 -0.4507 -0.0413  0.2260
 1004MOL0     C35412   2.122   8.185   5.934  0.0403 -0.7873  0.4589
 1004MOL0     O35413   2.006   8.141   5.992  0.8316  0.3683  0.4706
 1004MOL0     C35414   1.885   8.171   5.915  0.2543 -0.0737  1.2331
 1004MOL0     C35415   1.755   8.142   6.000  0.4773  0.8068  0.2417
 1004MOL0     C35416   1.627   8.140   5.926 -0.1157  0.3187  0.6590
 1004MOL0     C35417   1.515   8.063   5.993  0.1692  0.3786  0.4847
 1004MOL0     C35418   1.382   8.081   5.913  0.9918  0.5283  0.2588
 1004MOL0     C35419   1.381   8.008   5.774 -0.6191  0.5505  0.6131
 1004MOL0     C35420   1.248   8.042   5.695  0.4408 -0.4420 -0.1263
 1004MOL0     C35421   1.263   8.167   5.620  0.3961  0.3234  0.4263
 1004MOL0     N35422   1.134   8.200   5.545 -0.3436 -0.0501  0.1381
 1004MOL0     C35423   1.049   8.302   5.593  0.0572  0.1662  0.4995
 1004MOL0     C35424   0.954   8.298   5.493 -0.0324  0.3927 -0.4103
 1004MOL0     C35425   0.827   8.375   5.485  0.3064  0.0992 -0.2182
 1004MOL0     C35426   0.710   8.279   5.495 -0.5293  0.2665  0.9410
 1004MOL0     C35427   0.704   8.211   5.623  0.4789 -0.2377  0.3992
 1004MOL0     C35428   0.567   8.164   5.662 -0.1574 -0.1176 -0.2300
 1004MOL0     O35429   0.509   8.081   5.558 -0.6586  0.0999 -0.3050
 1004MOL0     C35430   0.374   8.055   5.557 -0.2548  0.4861 -1.4100
 1004MOL0     C35431   0.303   8.074   5.437 -0.2201 -0.5657 -0.6353
 1004MOL0     C35432   0.168   8.048   5.424 -0.4130 -0.4619  0.8583
 1004MOL0     C35433   0.102   8.075   5.299  0.4867 -0.2876  0.9627
 1004MOL0     C35434   0.103   7.996   5.540  0.1459 -0.4201 -0.6824
 1004MOL0     C35435  -0.044   7.991   5.561 -0.1943  0.9367 -0.3147
 1004MOL0     O35436  -0.087   7.914   5.669  0.3370  0.0427 -0.1509
 1004MOL0     C35437  -0.221   7.929   5.701  0.3949 -0.3024 -0.4123
 1004MOL0     C35438  -0.314   7.836   5.669  0.3185 -0.1364  0.0387
 1004MOL0     C35439  -0.447   7.849   5.713  0.2307 -0.4863  0.4184
 1004MOL0     C35440  -0.494   7.968   5.770 -0.2670  0.0885  0.4768
 1004MOL0     O35441  -0.627   8.001   5.810 -0.0508  0.7711 -0.1592
 1004MOL0     C35442  -0.711   7.895   5.855 -0.3945 -0.1218 -0.0426
 1004MOL0     C35443  -0.810   7.949   5.953  0.4623  0.0975  0.0894
 1004MOL0     C35444  -0.913   7.840   5.995  0.6809 -0.0367 -0.1282
 1004MOL0     C35445  -1.014   7.898   6.100  0.3850  0.1103  0.1789
 1004MOL0     C35446  -1.147   7.827   6.113  0.0876  0.0250 -0.4786
 1004MOL0     C35447  -1.249   7.840   5.991  0.0556 -0.6145 -0.9335
 1004MOL0     C35448  -1.389   7.772   6.015 -0.1108  1.1537  0.4280
 1004MOL0     C35449  -1.479   7.782   5.887 -0.4409 -0.0058  0.0012
 1004MOL0    Cl35450  -1.514   7.962   5.856  0.2162  0.0301 -0.0809
 1004MOL0     C35451  -0.401   8.074   5.775  0.0091  0.3124 -0.1491
 1004MOL0     C35452  -0.265   8.053   5.754 -0.7623  0.3016 -0.4888
 1004MOL0     O35453  -0.112   8.067   5.497  0.9330 -0.3512  0.9392
 1004MOL0     C35454   0.175   7.978   5.660  1.0972  0.0403 -0.0213
 1004MOL0     C35455   0.312   8.001   5.665 -0.3727  0.1238  0.1280
 1004MOL0     N35456   0.984   8.211   5.388 -0.1463 -0.4163 -0.5211
 1004MOL0     N35457   1.105   8.159   5.417  0.2810  0.7193 -0.2509
 1004MOL0     C35458   2.221   8.238   6.024  0.3695  1.4802 -0.4209
 1004MOL0     C35459   2.347   8.267   5.981  0.1020  0.2256  0.0159
 1004MOL0     C35460   2.705   8.157   5.726 -0.3992  0.1772  0.5305
 1004MOL0     C35461   2.791   8.044   5.706  0.4929 -0.3546  0.1806
 1004MOL0     C35462   2.930   8.058   5.683 -0.0573  0.0022 -0.4525
 1004MOL0     C35463   2.995   8.178   5.693 -0.1075  0.2149  0.8844
 1004MOL0     O35464   3.122   8.170   5.648 -0.1740 -0.7491  0.3296
 1004MOL0     C35465   3.203   8.280   5.684 -0.1903 -0.4379  0.7930
 1004MOL0     C35466   3.321   8.277   5.587 -0.0850 -0.0073 -0.3019
 1004MOL0     C35467   3.440   8.203   5.645  0.0311 -0.1428  0.6749
 1004MOL0     C35468   3.408   8.071   5.710 -0.2269  0.3121 -0.2361
 1004MOL0     C35469   3.495   7.961   5.667  0.6678  0.2208  0.9131
 1004MOL0     C35470   3.594   7.894   5.645 -0.5015  0.6365 -0.6716
 1004MOL0     C35471   2.913   8.289   5.699 -0.3799  0.2428 -0.4180
 1004MOL0     C35472   2.773   8.283   5.726  0.1397 -0.3803  0.0839
 1004MOL0     H35473   2.309   8.208   5.656  0.6171  1.2233  1.3397
 1004MOL0     H35474   2.093   8.144   5.716  0.7655  0.1914 -0.7980
 1004MOL0     H35475   1.880   8.276   5.884 -2.0265 -0.0697  1.4539
 1004MOL0     H35476   1.890   8.107   5.826  3.9843 -0.1758  1.3856
 1004MOL0     H35477   1.768   8.045   6.049 -0.5128  0.3241 -0.4358
 1004MOL0     H35478   1.738   8.204   6.089 -0.1574 -1.7920  2.0317
 1004MOL0     H35479   1.601   8.243   5.898 -0.4211 -0.7176 -3.6362
 1004MOL0     H35480   1.649   8.098   5.827 -0.6736  3.1734 -0.8003
 1004MOL0     H35481   1.556   7.962   5.998  1.9989  0.9468 -1.1880
 1004MOL0     H35482   1.489   8.089   6.096  0.6258  0.5103  0.5682
 1004MOL0     H35483   1.299   8.044   5.973  0.7790  1.7605  0.7555
 1004MOL0     H35484   1.364   8.188   5.897 -4.0184  0.0502  1.0113
 1004MOL0     H35485   1.475   8.028   5.721  0.0871 -0.9711  1.2288
 1004MOL0     H35486   1.378   7.899   5.784 -1.1171  0.4527 -0.4322
 1004MOL0     H35487   1.231   7.963   5.621  1.1636  0.5379 -1.3610
 1004MOL0     H35488   1.166   8.043   5.768  1.3461  0.3573  0.9179
 1004MOL0     H35489   1.349   8.160   5.553 -1.2968  0.8370 -1.9353
 1004MOL0     H35490   1.269   8.255   5.685 -2.6097 -0.2604  1.6403
 1004MOL0     H35491   1.045   8.355   5.687 -0.9400 -1.7020  1.5666
 1004MOL0     H35492   0.806   8.439   5.571 -0.0724 -0.4388  0.1003
 1004MOL0     H35493   0.827   8.435   5.394 -1.6527  1.2637  0.4834
 1004MOL0     H35494   0.701   8.200   5.420  1.8772  0.4346  0.4034
 1004MOL0     H35495   0.615   8.332   5.480  0.8159  2.2100 -1.6240
 1004MOL0     H35496   0.747   8.273   5.703 -2.0435 -0.3044  1.9069
 1004MOL0     H35497   0.759   8.116   5.620 -1.7850 -1.6928  1.5693
 1004MOL0     H35498   0.508   8.249   5.697  2.4852  0.7544  2.5618
 1004MOL0     H35499   0.582   8.106   5.754  0.8531 -1.6817 -1.3243
 1004MOL0     H35500   0.362   8.111   5.354 -0.0453  0.8233  0.0739
 1004MOL0     H35501   0.092   8.180   5.269 -0.8054 -0.6396  0.0939
 1004MOL0     H35502   0.150   8.010   5.225 -0.3297 -1.8879  1.7917
 1004MOL0     H35503  -0.005   8.052   5.294  0.1929  1.1064  0.1060
 1004MOL0     H35504  -0.279   7.741   5.628  2.6240  1.1125 -1.1094
 1004MOL0     H35505  -0.519   7.770   5.692  2.2192 -1.9395 -1.5029
 1004MOL0     H35506  -0.761   7.835   5.778 -2.4802 -1.1993  2.0264
 1004MOL0     H35507  -0.653   7.821   5.912  0.7736  1.5093  0.9826
 1004MOL0     H35508  -0.755   7.998   6.034 -0.7029  1.0351  0.3263
 1004MOL0     H35509  -0.867   8.031   5.910  0.1623  0.3369  0.9316
 1004MOL0     H35510  -0.857   7.761   6.046  0.4540  0.1625  0.4422
 1004MOL0     H35511  -0.970   7.802   5.910 -2.4629  0.5284  1.5795
 1004MOL0     H35512  -0.962   7.894   6.196 -3.0981 -0.7806  2.2083
 1004MOL0     H35513  -1.032   8.006   6.090  0.0040  0.1769  1.4567
 1004MOL0     H35514  -1.195   7.856   6.206  1.6262  2.7522 -0.4371
 1004MOL0     H35515  -1.121   7.721   6.123 -0.9532 -0.0792  1.6830
 1004MOL0     H35516  -1.266   7.943   5.960 -0.8635 -0.7764 -0.9947
 1004MOL0     H35517  -1.194   7.795   5.908  0.9376  1.2741 -1.4254
 1004MOL0     H35518  -1.439   7.827   6.095 -1.5480  0.2670  0.1627
 1004MOL0     H35519  -1.376   7.666   6.037 -0.5627  0.0929 -3.6465
 1004MOL0     H35520  -1.574   7.727   5.887  0.6125 -1.9486 -1.3073
 1004MOL0     H35521  -1.419   7.745   5.804  0.7431 -1.6228  1.5058
 1004MOL0     H35522  -0.433   8.172   5.809 -0.7937 -0.5143  1.6447
 1004MOL0     H35523  -0.203   8.142   5.761  1.4299 -1.1845 -0.1505
 1004MOL0     H35524   0.129   7.944   5.752  0.0672  3.1801  0.7561
 1004MOL0     H35525   0.364   7.976   5.757  0.0393 -0.2024 -0.1914
 1004MOL0     H35526   2.193   8.221   6.127  0.9897 -4.1709 -0.8669
 1004MOL0     H35527   2.425   8.287   6.054  0.1407 -2.1170  0.6821
 1004MOL0     H35528   2.745   7.947   5.693  1.1391 -0.4956 -1.3093
 1004MOL0     H35529   2.985   7.967   5.661 -1.9780 -1.5164  0.7415
 1004MOL0     H35530   3.163   8.381   5.675  2.5321  0.6971  0.3112
 1004MOL0     H35531   3.235   8.264   5.788 -0.5384 -0.3690  0.9117
 1004MOL0     H35532   3.350   8.381   5.570 -1.3205  0.4698  0.3703
 1004MOL0     H35533   3.293   8.223   5.496 -2.3905 -2.4128  1.6569
 1004MOL0     H35534   3.485   8.274   5.715  1.7327 -0.7217  0.2222
 1004MOL0     H35535   3.510   8.192   5.561  1.0625 -0.7640  1.5876
 1004MOL0     H35536   3.309   8.028   5.688  0.1340 -0.6566 -0.0077
 1004MOL0     H35537   3.409   8.085   5.818 -0.9741 -2.0271  0.1320
 1004MOL0     H35538   3.682   7.840   5.616  1.0579  2.1077  1.0644
 1004MOL0     H35539   2.957   8.388   5.701  1.5637 -0.5610 -0.7219
 1004MOL0     H35540   2.720   8.376   5.707  3.2515  1.4793 -0.1003
 1005MOL0     O35541   4.206   0.833   5.581 -0.1145 -0.5116  0.3150
 1005MOL0     C35542   4.291   0.758   5.637 -0.8464  0.1439  0.7426
 1005MOL0     O35543   4.278   0.704   5.758 -0.7279  0.3944 -1.4950
 1005MOL0     C35544   4.162   0.712   5.839 -0.2257  0.5948  0.3244
 1005MOL0     C35545   4.132   0.602   5.915 -0.5804  0.0308 -0.2146
 1005MOL0     C35546   4.013   0.605   6.000  0.0831 -0.2572  0.1400
 1005MOL0     C35547   3.930   0.719   6.000 -0.4354  0.2282  0.3272
 1005MOL0     O35548   3.833   0.733   6.087 -0.2800  1.1342 -0.1726
 1005MOL0     C35549   3.774   0.615   6.141  0.2216 -1.0863 -0.0387
 1005MOL0     C35550   3.656   0.661   6.233 -1.5502  0.3969  0.8646
 1005MOL0     C35551   3.532   0.693   6.151 -0.1801  0.0313  0.6198
 1005MOL0     C35552   3.404   0.730   6.220 -0.5774  0.3115 -0.5259
 1005MOL0     C35553   3.305   0.760   6.117 -0.4210 -0.8403 -1.1746
 1005MOL0     C35554   3.177   0.800   6.193 -0.3775 -0.0080 -0.4899
 1005MOL0     C35555   3.099   0.684   6.255  0.3861 -0.1104 -0.0659
 1005MOL0     C35556   2.968   0.729   6.313  0.0150  0.7081  0.3218
 1005MOL0     N35557   2.877   0.617   6.329  1.1957 -0.2322  0.7414
 1005MOL0     C35558   2.808   0.554   6.224 -0.0904 -0.0747  0.2365
 1005MOL0     C35559   2.731   0.464   6.287  1.0667  0.7286  0.4983
 1005MOL0     C35560   2.624   0.365   6.235 -0.1577  0.8600 -0.2528
 1005MOL0     C35561   2.488   0.428   6.212  0.3247 -1.0547 -0.2760
 1005MOL0     C35562   2.380   0.323   6.194  0.0156 -0.2001  0.0433
 1005MOL0     C35563   2.248   0.373   6.135 -0.6467 -0.4076  0.2867
 1005MOL0     O35564   2.212   0.495   6.213  0.7696  0.0632 -0.6591
 1005MOL0     C35565   2.085   0.535   6.200  0.4021 -0.0247 -0.2428
 1005MOL0     C35566   2.037   0.614   6.308  0.2404 -0.0347 -0.0669
 1005MOL0     C35567   1.902   0.652   6.318  0.0909  0.0794  0.6775
 1005MOL0     C35568   1.857   0.708   6.455  0.4570  0.4907 -0.6872
 1005MOL0     C35569   1.818   0.631   6.206 -0.2887  0.2515  0.0978
 1005MOL0     C35570   1.675   0.674   6.197 -0.7476 -0.0970  0.4528
 1005MOL0     O35571   1.642   0.790   6.262  0.3450 -0.2269 -0.0617
 1005MOL0     C35572   1.511   0.795   6.284  0.3521  0.1476  0.5483
 1005MOL0     C35573   1.461   0.767   6.410  0.5346 -0.8376 -0.0302
 1005MOL0     C35574   1.320   0.773   6.437 -0.5337  1.1559  1.2176
 1005MOL0     C35575   1.227   0.816   6.341 -0.1783 -0.2463  0.3733
 1005MOL0     O35576   1.095   0.830   6.359 -0.0708 -0.5501 -0.4364
 1005MOL0     C35577   1.060   0.922   6.467 -0.2375 -0.4686 -0.2571
 1005MOL0     C35578   0.910   0.887   6.506 -0.2054 -0.3530  0.5333
 1005MOL0     C35579   0.809   0.929   6.393  0.2247  0.3463 -0.2281
 1005MOL0     C35580   0.674   0.907   6.446  0.0594 -0.2094  0.6867
 1005MOL0     C35581   0.564   0.973   6.368 -0.5889 -0.3402  0.3961
 1005MOL0     C35582   0.435   0.975   6.449  0.3950 -0.9204  0.0305
 1005MOL0     C35583   0.440   1.064   6.572  0.4778 -0.2207  0.0393
 1005MOL0     C35584   0.319   1.154   6.605  0.6610 -0.5248 -0.0321
 1005MOL0    Cl35585   0.339   1.329   6.563 -0.2560  0.1916  0.1947
 1005MOL0     C35586   1.281   0.837   6.215 -0.3607  0.5034 -1.1519
 1005MOL0     C35587   1.416   0.826   6.187 -1.5894 -0.5866 -0.3463
 1005MOL0     O35588   1.598   0.602   6.133 -0.4590 -0.0861 -0.0810
 1005MOL0     C35589   1.872   0.554   6.100 -0.3954 -0.4222  0.2188
 1005MOL0     C35590   2.008   0.510   6.092 -0.3522 -0.3090  0.6134
 1005MOL0     N35591   2.754   0.466   6.423 -0.2524  0.4818  0.4445
 1005MOL0     N35592   2.843   0.559   6.445 -0.3108  0.4678  0.8688
 1005MOL0     C35593   3.963   0.824   5.913  0.3124  0.3111 -1.0210
 1005MOL0     C35594   4.075   0.816   5.837 -0.6541 -0.4160  0.2840
 1005MOL0     C35595   4.416   0.726   5.563 -0.0752  0.4224 -0.4224
 1005MOL0     C35596   4.538   0.682   5.626  0.7544  0.3470 -0.3640
 1005MOL0     C35597   4.654   0.661   5.553  0.7198 -0.1662  1.2945
 1005MOL0     C35598   4.666   0.695   5.419 -0.5844 -0.2970 -0.5563
 1005MOL0     O35599   4.784   0.671   5.350 -0.6130  0.2785  0.2198
 1005MOL0     C35600   4.784   0.549   5.267 -1.1462 -0.2078 -0.1266
 1005MOL0     C35601   4.847   0.601   5.136 -0.9525  0.9705 -0.0650
 1005MOL0     C35602   4.995   0.618   5.161  0.3243  0.2038  0.3203
 1005MOL0     C35603   5.060   0.713   5.055  0.0333  0.9023  0.3915
 1005MOL0     C35604   5.050   0.652   4.920  0.0036 -0.1010 -0.1957
 1005MOL0     C35605   5.050   0.606   4.803  0.3324  1.0659 -0.1872
 1005MOL0     C35606   4.548   0.734   5.353  0.0977 -0.6209 -0.1776
 1005MOL0     C35607   4.424   0.753   5.419 -0.7876 -1.1430 -1.0181
 1005MOL0     H35608   4.197   0.517   5.898  0.4439  0.9069 -0.7700
 1005MOL0     H35609   4.001   0.515   6.058 -3.7606 -0.0340 -0.0171
 1005MOL0     H35610   3.732   0.557   6.058  0.0215  1.4280 -1.8181
 1005MOL0     H35611   3.849   0.566   6.204 -0.0739  0.1166  1.2966
 1005MOL0     H35612   3.643   0.570   6.292  2.3116 -0.0010  1.3394
 1005MOL0     H35613   3.673   0.757   6.282 -0.4520  2.3848 -2.9650
 1005MOL0     H35614   3.557   0.762   6.070  1.3792  0.7352  1.6588
 1005MOL0     H35615   3.501   0.606   6.092  0.0658 -0.3157  0.9941
 1005MOL0     H35616   3.371   0.641   6.273 -1.9853  0.8575 -0.4372
 1005MOL0     H35617   3.410   0.820   6.282 -0.9743 -0.4029  0.5599
 1005MOL0     H35618   3.345   0.842   6.056  0.3614  0.0372  0.4532
 1005MOL0     H35619   3.294   0.669   6.057  3.1972 -0.2243 -3.0792
 1005MOL0     H35620   3.207   0.868   6.273  2.2806  0.4562 -1.7674
 1005MOL0     H35621   3.110   0.854   6.125  1.6755  1.3529 -1.5503
 1005MOL0     H35622   3.081   0.607   6.179 -2.3448 -0.4250  0.7942
 1005MOL0     H35623   3.152   0.642   6.340 -0.3653  1.2695  1.1184
 1005MOL0     H35624   2.920   0.807   6.253  3.5460  2.9706  0.1424
 1005MOL0     H35625   2.985   0.784   6.407 -0.6480  0.2965  0.6945
 1005MOL0     H35626   2.820   0.564   6.117  2.4739  0.1126  0.4726
 1005MOL0     H35627   2.650   0.324   6.137 -0.3238 -1.7338  0.7095
 1005MOL0     H35628   2.617   0.281   6.304 -0.6057  0.2728 -0.9948
 1005MOL0     H35629   2.490   0.499   6.130 -1.0813 -0.2722  0.3399
 1005MOL0     H35630   2.456   0.477   6.305 -1.4968 -3.1765  0.3069
 1005MOL0     H35631   2.365   0.286   6.295  1.6589  1.9992  1.1841
 1005MOL0     H35632   2.429   0.247   6.132  2.2761  1.5939 -0.5365
 1005MOL0     H35633   2.176   0.291   6.135 -0.4045 -0.6212  0.1132
 1005MOL0     H35634   2.269   0.410   6.034 -0.5335  2.4515  1.2499
 1005MOL0     H35635   2.109   0.643   6.384 -0.8858 -1.9837  1.8803
 1005MOL0     H35636   1.749   0.722   6.463  0.7720  2.4243  0.7363
 1005MOL0     H35637   1.874   0.630   6.531 -4.2027  0.1990  0.3663
 1005MOL0     H35638   1.891   0.807   6.487 -2.9150  0.7649  2.7398
 1005MOL0     H35639   1.532   0.741   6.488  3.2260 -1.1511 -2.3953
 1005MOL0     H35640   1.281   0.741   6.533  1.5067 -0.1222  1.6758
 1005MOL0     H35641   1.126   0.899   6.552  2.5030 -2.1384 -2.6047
 1005MOL0     H35642   1.071   1.028   6.444 -1.1371  0.0297  1.4246
 1005MOL0     H35643   0.902   0.778   6.517  0.1851 -0.6482 -1.6216
 1005MOL0     H35644   0.884   0.932   6.602 -1.1939  1.2502 -0.4387
 1005MOL0     H35645   0.825   0.861   6.308  3.8269 -1.2095  1.4530
 1005MOL0     H35646   0.818   1.031   6.356 -0.2109  0.5798  0.2988
 1005MOL0     H35647   0.653   0.800   6.442 -3.0348  0.2985  1.4974
 1005MOL0     H35648   0.677   0.933   6.552  0.5679 -2.2107  1.2060
 1005MOL0     H35649   0.567   0.913   6.277  0.5912 -1.2419  1.0130
 1005MOL0     H35650   0.603   1.072   6.342  0.4728 -0.5359  1.1723
 1005MOL0     H35651   0.356   1.013   6.383  1.1798  2.5925  0.8939
 1005MOL0     H35652   0.394   0.875   6.467 -4.1352  0.4395 -1.3374
 1005MOL0     H35653   0.526   1.132   6.576  1.3950 -1.0318 -3.1711
 1005MOL0     H35654   0.461   1.000   6.658 -0.2684  1.2499  1.3607
 1005MOL0     H35655   0.302   1.146   6.713 -0.0404  1.3749  0.0431
 1005MOL0     H35656   0.225   1.116   6.565 -0.4149  2.6385 -0.7860
 1005MOL0     H35657   1.218   0.866   6.131  2.1733  1.8775 -2.7202
 1005MOL0     H35658   1.454   0.830   6.085 -1.2284 -1.4044 -0.2514
 1005MOL0     H35659   1.799   0.523   6.026  0.7957 -2.6853 -0.1056
 1005MOL0     H35660   2.057   0.470   6.005  0.6854  0.0354  1.0244
 1005MOL0     H35661   3.904   0.915   5.913  0.0521  0.1710  0.5998
 1005MOL0     H35662   4.086   0.908   5.780 -0.3086 -1.5682 -1.5813
 1005MOL0     H35663   4.536   0.663   5.733 -0.4371  0.5473 -0.3397
 1005MOL0     H35664   4.743   0.636   5.611  1.5551  0.0779  0.1405
 1005MOL0     H35665   4.834   0.462   5.311 -3.1100 -1.7829 -0.8140
 1005MOL0     H35666   4.677   0.528   5.254 -1.3739 -1.5096  3.0050
 1005MOL0     H35667   4.797   0.692   5.099 -3.0126 -0.6832 -1.5895
 1005MOL0     H35668   4.835   0.530   5.054 -0.2659  1.6888 -0.8068
 1005MOL0     H35669   5.049   0.523   5.160 -0.9194 -0.7960  4.6253
 1005MOL0     H35670   5.022   0.651   5.262  3.2268 -4.9650  1.5810
 1005MOL0     H35671   5.166   0.731   5.075  0.4127  0.0120 -0.6874
 1005MOL0     H35672   5.010   0.810   5.058 -5.1084 -1.3822  1.2324
 1005MOL0     H35673   5.042   0.544   4.715  1.5604  0.9492 -0.2424
 1005MOL0     H35674   4.560   0.741   5.245  0.6220  2.0415 -0.0125
 1005MOL0     H35675   4.331   0.783   5.373 -2.0711 -0.0928  2.0135
 1006MOL0     O35676  11.009   5.508   2.390  0.0243  0.1207 -0.6782
 1006MOL0     C35677  11.068   5.477   2.286 -0.1851  0.2949  0.2684
 1006MOL0     O35678  11.010   5.458   2.168 -0.4830 -0.6271 -0.0861
 1006MOL0     C35679  10.877   5.467   2.152 -0.4676 -0.4584  0.5341
 1006MOL0     C35680  10.786   5.558   2.216 -0.2821  0.1299 -0.5845
 1006MOL0     C35681  10.652   5.551   2.177 -0.2363  1.6809 -0.3259
 1006MOL0     C35682  10.595   5.461   2.086 -0.2689 -0.1762  0.0346
 1006MOL0     O35683  10.464   5.455   2.048 -0.1570  0.5993 -0.9986
 1006MOL0     C35684  10.389   5.580   2.047  0.0440  0.1679  0.1248
 1006MOL0     C35685  10.330   5.593   2.187 -1.0851 -0.0422  0.0058
 1006MOL0     C35686  10.195   5.667   2.187  0.7482  0.1970  0.5768
 1006MOL0     C35687  10.064   5.577   2.207 -0.3724  0.6627 -0.3572
 1006MOL0     C35688   9.958   5.665   2.279  0.5115  0.1825 -0.5146
 1006MOL0     C35689   9.832   5.578   2.310 -1.2589 -0.7355  0.8240
 1006MOL0     C35690   9.723   5.655   2.388  0.7227 -0.5939  0.4900
 1006MOL0     C35691   9.592   5.570   2.405 -0.4357 -0.2541  0.0507
 1006MOL0     N35692   9.498   5.643   2.492 -0.3545  0.0116 -0.0754
 1006MOL0     C35693   9.453   5.768   2.481 -0.2516  0.8909 -0.1169
 1006MOL0     C35694   9.353   5.780   2.575  0.1529 -0.9615  0.2594
 1006MOL0     C35695   9.286   5.907   2.615 -0.3148  0.0304 -0.2320
 1006MOL0     C35696   9.137   5.882   2.643  0.6147  0.4416  0.3591
 1006MOL0     C35697   9.038   6.002   2.661 -0.4779 -0.1893  0.2009
 1006MOL0     C35698   8.892   5.956   2.662 -0.7917  0.6137 -0.5145
 1006MOL0     O35699   8.857   5.881   2.777 -0.1721  0.8849 -0.1179
 1006MOL0     C35700   8.729   5.904   2.830  0.2314 -0.6640 -0.7859
 1006MOL0     C35701   8.619   5.968   2.773  0.0301 -0.2826  0.2120
 1006MOL0     C35702   8.493   5.984   2.832 -0.5710  0.8900  0.1827
 1006MOL0     C35703   8.383   6.049   2.752  0.0598 -0.3778  0.2747
 1006MOL0     C35704   8.476   5.924   2.956 -0.2364 -0.3636  0.3960
 1006MOL0     C35705   8.340   5.913   3.016 -0.6754  0.8818 -0.0512
 1006MOL0     O35706   8.257   6.024   3.006 -0.5229 -0.4403  0.0027
 1006MOL0     C35707   8.125   6.000   3.029  0.1152 -0.8764 -0.1388
 1006MOL0     C35708   8.052   5.936   2.929 -0.1586  0.0599  0.2683
 1006MOL0     C35709   7.917   5.913   2.948 -1.2211 -0.2569  0.4509
 1006MOL0     C35710   7.846   5.962   3.055 -0.4360  0.5000 -0.7135
 1006MOL0     O35711   7.713   5.916   3.069 -0.1040  0.5026 -0.1107
 1006MOL0     C35712   7.649   5.919   3.199 -0.0306 -0.9172  0.4019
 1006MOL0     C35713   7.505   5.861   3.185 -0.1821 -0.7078  0.2034
 1006MOL0     C35714   7.427   5.933   3.074 -0.0143  0.2328 -0.4365
 1006MOL0     C35715   7.284   5.865   3.053 -0.1298 -0.1884  0.2966
 1006MOL0     C35716   7.188   5.949   2.968 -0.2389  0.9333  0.1729
 1006MOL0     C35717   7.053   5.886   2.912 -0.0908  1.2516 -0.7287
 1006MOL0     C35718   7.078   5.764   2.822 -0.4898 -0.1310  0.0128
 1006MOL0     C35719   6.983   5.751   2.705  0.6609 -0.1843  0.5363
 1006MOL0    Cl35720   6.817   5.768   2.769 -0.1794 -0.2639  0.2793
 1006MOL0     C35721   7.922   6.031   3.159  0.4586 -0.4905  0.3686
 1006MOL0     C35722   8.063   6.046   3.148 -0.0001  0.0315 -0.2898
 1006MOL0     O35723   8.326   5.818   3.090 -0.2047  0.0936 -0.3309
 1006MOL0     C35724   8.580   5.862   3.015  0.1112 -0.3163 -0.3282
 1006MOL0     C35725   8.703   5.854   2.953 -0.3641  0.4823  1.2484
 1006MOL0     N35726   9.340   5.655   2.636  0.2885  0.6299 -0.3778
 1006MOL0     N35727   9.436   5.581   2.586  0.6962 -0.1733 -0.3027
 1006MOL0     C35728  10.683   5.367   2.024 -0.5586  0.2242  0.4521
 1006MOL0     C35729  10.825   5.382   2.053  0.1768  0.4616 -0.1473
 1006MOL0     C35730  11.214   5.475   2.284 -0.0040  0.4705 -0.1964
 1006MOL0     C35731  11.284   5.520   2.400  0.0448 -0.6526  0.6595
 1006MOL0     C35732  11.423   5.542   2.397  0.4589 -0.3374 -0.7266
 1006MOL0     C35733  11.491   5.509   2.276 -0.6975 -0.6380  0.2377
 1006MOL0     O35734  11.630   5.531   2.277 -0.2662  0.2937  0.9959
 1006MOL0     C35735  11.704   5.503   2.149 -0.4845 -0.6663 -0.6820
 1006MOL0     C35736  11.851   5.515   2.180 -0.2777  0.0317 -0.0483
 1006MOL0     C35737  11.942   5.519   2.053  0.6746  0.0339 -0.7368
 1006MOL0     C35738  12.083   5.518   2.099 -1.0076  0.1374  0.0861
 1006MOL0     C35739  12.174   5.538   1.987  0.3153  0.8044  0.6264
 1006MOL0     C35740  12.237   5.537   1.883  0.4374  0.3619  0.1781
 1006MOL0     C35741  11.422   5.475   2.164  0.1967  0.2490 -0.1680
 1006MOL0     C35742  11.286   5.457   2.162 -0.1152 -0.0553 -0.4657
 1006MOL0     H35743  10.820   5.636   2.284 -1.0190 -1.6244  1.9052
 1006MOL0     H35744  10.588   5.628   2.218 -0.5798  1.8176 -1.1082
 1006MOL0     H35745  10.464   5.660   2.041  3.9829 -3.1481  0.7357
 1006MOL0     H35746  10.318   5.580   1.964 -2.5779 -2.4628  2.1664
 1006MOL0     H35747  10.314   5.489   2.219 -3.5505 -0.3658 -1.9529
 1006MOL0     H35748  10.394   5.650   2.254 -0.9625  0.6918 -0.7192
 1006MOL0     H35749  10.200   5.742   2.267  0.9034 -0.4310  1.1671
 1006MOL0     H35750  10.187   5.714   2.089  2.3451 -0.3789  0.1422
 1006MOL0     H35751  10.016   5.539   2.116  0.6191 -0.7315 -0.3346
 1006MOL0     H35752  10.094   5.493   2.271 -0.9620  1.1753  0.6267
 1006MOL0     H35753  10.014   5.704   2.366  1.0989  2.6610 -1.8891
 1006MOL0     H35754   9.926   5.747   2.214 -1.2875 -2.0136 -2.5400
 1006MOL0     H35755   9.793   5.529   2.220  1.0764 -2.5475  0.7019
 1006MOL0     H35756   9.880   5.493   2.359  4.1207  0.4852 -1.5725
 1006MOL0     H35757   9.769   5.690   2.481  1.1267  1.1833 -0.3399
 1006MOL0     H35758   9.700   5.749   2.339  1.0766 -0.1619  1.1386
 1006MOL0     H35759   9.621   5.472   2.445 -2.4571 -1.4720 -1.2606
 1006MOL0     H35760   9.540   5.559   2.309 -0.6158 -0.3992  0.1648
 1006MOL0     H35761   9.491   5.859   2.436  1.6369 -0.0160 -0.4636
 1006MOL0     H35762   9.332   5.947   2.706 -0.1595 -2.9100  1.0987
 1006MOL0     H35763   9.292   5.979   2.533  1.9973  0.8544  0.5858
 1006MOL0     H35764   9.139   5.826   2.737 -3.3171  2.7955  2.0945
 1006MOL0     H35765   9.092   5.806   2.579 -2.2901 -0.5230  3.2758
 1006MOL0     H35766   9.060   6.069   2.578 -0.3277  0.9283  1.1261
 1006MOL0     H35767   9.053   6.058   2.753 -1.4716 -1.4898  1.2061
 1006MOL0     H35768   8.880   5.883   2.582  0.8807 -0.1737 -0.1026
 1006MOL0     H35769   8.837   6.050   2.649 -0.2199  0.8328 -1.4837
 1006MOL0     H35770   8.626   6.003   2.670 -1.2035  0.2714  0.3024
 1006MOL0     H35771   8.298   5.981   2.742 -0.2797  0.3719 -2.7859
 1006MOL0     H35772   8.348   6.142   2.797 -1.3608 -1.2397  1.0203
 1006MOL0     H35773   8.414   6.083   2.653  0.1899  0.9415  0.7487
 1006MOL0     H35774   8.092   5.892   2.839  0.9422  1.2797  0.1357
 1006MOL0     H35775   7.865   5.862   2.868  1.2578  0.9748 -2.1495
 1006MOL0     H35776   7.711   5.857   3.265 -0.0680  0.1073  1.4306
 1006MOL0     H35777   7.643   6.021   3.238 -0.3071 -0.0736 -1.7132
 1006MOL0     H35778   7.506   5.754   3.164 -1.1245 -0.7598  0.3823
 1006MOL0     H35779   7.446   5.857   3.277 -0.4422 -1.3716  0.0104
 1006MOL0     H35780   7.478   5.926   2.978 -0.3103 -0.2444 -0.5646
 1006MOL0     H35781   7.412   6.037   3.106  1.2577  0.6347 -1.1134
 1006MOL0     H35782   7.283   5.759   3.026  1.8627 -0.2544  0.3530
 1006MOL0     H35783   7.237   5.857   3.152  0.2724  1.6736  0.6615
 1006MOL0     H35784   7.246   5.968   2.877  0.5660 -1.9806 -0.0251
 1006MOL0     H35785   7.165   6.049   3.005  1.9629  1.0870  1.2896
 1006MOL0     H35786   6.988   5.859   2.996  0.1782  1.2881 -0.5077
 1006MOL0     H35787   7.012   5.965   2.848 -1.3296  0.9884 -0.3024
 1006MOL0     H35788   7.075   5.671   2.880 -1.1109 -1.0439 -1.4168
 1006MOL0     H35789   7.182   5.766   2.789  0.0672 -2.1578  1.4215
 1006MOL0     H35790   6.997   5.655   2.654  3.6043  0.5819 -0.2736
 1006MOL0     H35791   7.008   5.823   2.627 -1.9664 -0.9717 -1.1811
 1006MOL0     H35792   7.876   6.070   3.249  0.8858  0.3143  0.2531
 1006MOL0     H35793   8.111   6.084   3.238 -0.2287 -2.8737  1.2117
 1006MOL0     H35794   8.568   5.819   3.114 -1.1820 -2.6871 -1.4177
 1006MOL0     H35795   8.792   5.814   3.002 -0.0473 -0.2070  0.1457
 1006MOL0     H35796  10.635   5.294   1.960  0.3232 -1.4598  1.6238
 1006MOL0     H35797  10.900   5.317   2.008 -0.2241 -0.3230  0.2938
 1006MOL0     H35798  11.241   5.556   2.493  1.1754  2.5130  0.0661
 1006MOL0     H35799  11.466   5.570   2.492  0.3821 -1.9668 -0.1825
 1006MOL0     H35800  11.691   5.403   2.106  2.3796 -0.7064 -1.6426
 1006MOL0     H35801  11.660   5.578   2.082 -1.0025  1.3438  1.7544
 1006MOL0     H35802  11.876   5.433   2.248  0.5224  0.1454 -0.1886
 1006MOL0     H35803  11.869   5.600   2.247  0.1355 -2.3059  3.0622
 1006MOL0     H35804  11.917   5.606   1.991 -3.5798  0.0175  0.6758
 1006MOL0     H35805  11.925   5.433   1.988 -0.0191 -0.8883  0.6245
 1006MOL0     H35806  12.114   5.423   2.145 -0.1393 -0.2898 -1.3291
 1006MOL0     H35807  12.097   5.589   2.181  0.3043  0.0201 -0.0150
 1006MOL0     H35808  12.299   5.540   1.796 -0.9203  0.3005 -0.8286
 1006MOL0     H35809  11.470   5.460   2.068  0.6725  3.8227 -0.6341
 1006MOL0     H35810  11.243   5.423   2.068 -0.3949 -1.0450  0.0150
 1007MOL0     O35811   7.155   4.988   3.730 -0.1140 -0.0239 -0.2145
 1007MOL0     C35812   7.190   5.036   3.626 -0.3572  0.0563 -0.0142
 1007MOL0     O35813   7.122   5.124   3.558  0.2972  0.1054  0.3253
 1007MOL0     C35814   6.988   5.143   3.587 -0.4253 -0.8031 -0.7628
 1007MOL0     C35815   6.892   5.039   3.581 -0.1139  0.0405  0.1884
 1007MOL0     C35816   6.766   5.076   3.617  0.4812 -0.8643 -0.0665
 1007MOL0     C35817   6.729   5.207   3.656 -0.1296  1.0049  0.1130
 1007MOL0     O35818   6.597   5.229   3.667  0.1588  0.1932  0.0117
 1007MOL0     C35819   6.556   5.363   3.701  0.3459  0.1990  0.3786
 1007MOL0     C35820   6.402   5.350   3.723  0.0258 -0.5414  0.6610
 1007MOL0     C35821   6.314   5.292   3.618 -0.4453  0.0042  0.3835
 1007MOL0     C35822   6.188   5.368   3.589  1.3039  0.5743 -0.2643
 1007MOL0     C35823   6.090   5.340   3.706  0.7452 -0.0817  0.1642
 1007MOL0     C35824   5.963   5.429   3.676  0.2743 -1.1697 -0.3264
 1007MOL0     C35825   5.835   5.413   3.766  0.0211 -0.0931 -0.3590
 1007MOL0     C35826   5.852   5.447   3.920  0.1616  0.2349 -0.3604
 1007MOL0     N35827   5.722   5.428   3.981  0.1891 -0.8458 -0.7810
 1007MOL0     C35828   5.667   5.316   4.017  0.9199  0.0580  0.0018
 1007MOL0     C35829   5.542   5.345   4.060 -0.2206  0.3320 -0.8773
 1007MOL0     C35830   5.439   5.239   4.092  0.2032 -0.5490  0.2942
 1007MOL0     C35831   5.419   5.222   4.238  0.9098 -0.9470 -0.8063
 1007MOL0     C35832   5.363   5.349   4.318 -0.4930  0.6038  0.0726
 1007MOL0     C35833   5.351   5.321   4.464  0.2856  1.0138  0.2490
 1007MOL0     O35834   5.282   5.196   4.485 -0.1307  0.4653  0.5186
 1007MOL0     C35835   5.242   5.158   4.612 -0.0741  0.3199  0.1319
 1007MOL0     C35836   5.179   5.033   4.628 -0.1816 -0.2527 -0.4043
 1007MOL0     C35837   5.149   4.982   4.758 -0.5446  0.4845 -0.2919
 1007MOL0     C35838   5.085   4.844   4.763  0.0257  0.0718 -0.7326
 1007MOL0     C35839   5.170   5.058   4.874 -0.3311  0.0863 -0.0108
 1007MOL0     C35840   5.126   5.035   5.012  0.7982  0.4693  0.3894
 1007MOL0     O35841   5.091   5.140   5.091  0.0111  0.7690 -0.0093
 1007MOL0     C35842   5.024   5.114   5.210  0.0357 -0.0241  0.9651
 1007MOL0     C35843   5.066   5.191   5.316 -0.1897  0.1862  0.6625
 1007MOL0     C35844   5.010   5.167   5.446 -1.1140 -0.3642 -0.0978
 1007MOL0     C35845   4.902   5.080   5.466  0.6775  0.4258 -0.2770
 1007MOL0     O35846   4.830   5.095   5.586  0.5327  1.2341 -0.0764
 1007MOL0     C35847   4.710   5.018   5.612  1.1506  0.0229 -0.8317
 1007MOL0     C35848   4.637   5.078   5.736 -0.6194  0.0980  0.2683
 1007MOL0     C35849   4.598   5.232   5.718  0.3535  0.1617  0.0307
 1007MOL0     C35850   4.680   5.321   5.806 -0.8594 -0.7657 -0.5280
 1007MOL0     C35851   4.606   5.449   5.843 -0.1740 -0.2487  0.3967
 1007MOL0     C35852   4.693   5.550   5.899 -0.0357  0.8849 -0.4387
 1007MOL0     C35853   4.612   5.677   5.936 -0.6716 -0.1237  0.1842
 1007MOL0     C35854   4.567   5.757   5.809  0.4065 -0.4211  0.0604
 1007MOL0    Cl35855   4.497   5.901   5.892 -0.3699  0.4409  0.0852
 1007MOL0     C35856   4.869   4.991   5.359 -0.6837 -0.8291 -0.8373
 1007MOL0     C35857   4.925   5.010   5.232 -0.2929  0.4298 -0.7382
 1007MOL0     O35858   5.134   4.919   5.058  0.1260  1.2404 -0.3950
 1007MOL0     C35859   5.235   5.184   4.856  0.0535  0.4592  0.8317
 1007MOL0     C35860   5.266   5.234   4.725 -0.5292  0.0242 -0.1815
 1007MOL0     N35861   5.527   5.482   4.053 -0.6732 -0.1988 -0.4794
 1007MOL0     N35862   5.632   5.531   3.998 -0.4005 -0.3429  0.7182
 1007MOL0     C35863   6.827   5.305   3.665 -0.6167 -0.3636  0.9619
 1007MOL0     C35864   6.962   5.272   3.623  0.8382  0.5590  0.3026
 1007MOL0     C35865   7.316   4.983   3.570 -0.0470 -0.3923 -0.8681
 1007MOL0     C35866   7.362   4.857   3.612  0.4394 -0.2987  0.7790
 1007MOL0     C35867   7.472   4.800   3.562 -0.1411  0.4972 -0.2872
 1007MOL0     C35868   7.539   4.861   3.457  0.0618  0.3030 -0.6253
 1007MOL0     O35869   7.645   4.791   3.403 -0.7498 -0.0912  0.1108
 1007MOL0     C35870   7.754   4.870   3.337  0.1977  0.5660  0.1362
 1007MOL0     C35871   7.870   4.784   3.298 -0.0666 -0.4133  0.3417
 1007MOL0     C35872   7.952   4.829   3.181 -0.3214  0.3721 -0.3473
 1007MOL0     C35873   8.016   4.969   3.206 -0.1407 -0.1384  0.5313
 1007MOL0     C35874   8.101   4.968   3.322  0.5331 -0.4511 -0.0830
 1007MOL0     C35875   8.170   4.971   3.422 -0.2858  0.1079 -0.0542
 1007MOL0     C35876   7.493   4.988   3.412  0.2826 -0.1337  0.3701
 1007MOL0     C35877   7.387   5.052   3.473  0.4098 -0.6710  0.4684
 1007MOL0     H35878   6.926   4.941   3.549 -2.8167 -0.6382 -0.9122
 1007MOL0     H35879   6.679   5.011   3.625 -0.5964  0.6346  1.1254
 1007MOL0     H35880   6.600   5.392   3.796  1.8003  0.2272 -0.2864
 1007MOL0     H35881   6.584   5.443   3.632 -2.2726  0.8056 -0.1167
 1007MOL0     H35882   6.404   5.295   3.818  0.7091 -0.4722  0.6961
 1007MOL0     H35883   6.363   5.448   3.752  2.7708  0.3691  1.7036
 1007MOL0     H35884   6.378   5.284   3.529  1.3639  0.2077  1.6004
 1007MOL0     H35885   6.296   5.187   3.643 -0.8664  0.0079  0.0936
 1007MOL0     H35886   6.201   5.475   3.575 -1.0247  1.1911  1.5183
 1007MOL0     H35887   6.138   5.332   3.499  0.4481  1.5672 -0.2023
 1007MOL0     H35888   6.055   5.237   3.715  1.8490 -0.6331 -1.5134
 1007MOL0     H35889   6.132   5.361   3.805 -0.6682  0.1426  0.7442
 1007MOL0     H35890   5.991   5.535   3.677 -2.5774 -0.2878  2.4792
 1007MOL0     H35891   5.924   5.410   3.576 -0.0255 -0.1640 -0.4139
 1007MOL0     H35892   5.757   5.481   3.730  0.0104  1.0413  1.6477
 1007MOL0     H35893   5.792   5.313   3.749  1.1304 -0.5455 -0.5651
 1007MOL0     H35894   5.882   5.551   3.935  0.0735  0.0115  1.5083
 1007MOL0     H35895   5.928   5.380   3.962 -1.6847 -1.1793  0.8388
 1007MOL0     H35896   5.707   5.219   3.989 -1.0434  0.2871 -4.4292
 1007MOL0     H35897   5.342   5.261   4.045  0.5787  1.4482  0.3595
 1007MOL0     H35898   5.481   5.144   4.058  5.2843  1.3369  0.4260
 1007MOL0     H35899   5.511   5.180   4.279  0.9539  1.4229  1.7774
 1007MOL0     H35900   5.353   5.137   4.261  3.2104 -1.9183  3.1339
 1007MOL0     H35901   5.263   5.371   4.279 -2.2692 -1.6826  2.9359
 1007MOL0     H35902   5.437   5.429   4.308  0.2438  0.0461  1.0044
 1007MOL0     H35903   5.296   5.396   4.522 -1.3786  0.0176  0.0013
 1007MOL0     H35904   5.454   5.314   4.500  0.6227  0.9823 -0.6840
 1007MOL0     H35905   5.151   4.989   4.533 -1.6736  0.1325 -0.1722
 1007MOL0     H35906   5.038   4.822   4.667  0.0135  1.8489 -1.1735
 1007MOL0     H35907   5.156   4.767   4.797 -0.7364 -0.6503 -0.7512
 1007MOL0     H35908   5.006   4.848   4.838 -0.7154 -0.8839 -1.4388
 1007MOL0     H35909   5.133   5.276   5.308 -2.5147  1.9606 -1.8471
 1007MOL0     H35910   5.045   5.233   5.524  0.5946 -0.1482 -0.9870
 1007MOL0     H35911   4.638   5.027   5.530 -0.1192 -2.3005 -0.0766
 1007MOL0     H35912   4.738   4.912   5.619  0.4195 -0.0555  2.2995
 1007MOL0     H35913   4.546   5.019   5.753 -0.6551  0.4000  1.1460
 1007MOL0     H35914   4.708   5.062   5.817  0.1381 -0.7220 -0.5278
 1007MOL0     H35915   4.491   5.245   5.738  0.0412 -0.1058 -1.3613
 1007MOL0     H35916   4.605   5.265   5.614  1.8825  1.9418  0.6489
 1007MOL0     H35917   4.703   5.271   5.900  2.1592  1.3694  0.0291
 1007MOL0     H35918   4.771   5.353   5.754 -1.8408  2.9792 -0.2050
 1007MOL0     H35919   4.525   5.418   5.909 -0.3763 -1.1686 -0.2602
 1007MOL0     H35920   4.562   5.501   5.758 -1.2870  0.0251  1.1172
 1007MOL0     H35921   4.737   5.515   5.993  0.7252  1.7167 -0.4675
 1007MOL0     H35922   4.780   5.570   5.836  1.4862 -2.3342  0.4112
 1007MOL0     H35923   4.676   5.736   6.003 -1.9406  0.1643  1.1897
 1007MOL0     H35924   4.527   5.665   6.004 -0.1632  0.7545  1.0105
 1007MOL0     H35925   4.486   5.710   5.753 -0.6255  1.7431 -0.3629
 1007MOL0     H35926   4.653   5.779   5.746  0.3641 -2.6119 -0.8546
 1007MOL0     H35927   4.797   4.913   5.381 -2.2702  0.5638 -0.9562
 1007MOL0     H35928   4.888   4.968   5.139 -0.1675 -0.5303 -0.3673
 1007MOL0     H35929   5.277   5.250   4.930  2.0234  0.8799 -0.5871
 1007MOL0     H35930   5.305   5.335   4.719  1.1260 -0.5478  0.3494
 1007MOL0     H35931   6.814   5.409   3.695 -1.6565 -0.1277 -0.2435
 1007MOL0     H35932   7.028   5.357   3.614  0.7276  0.4854 -1.4635
 1007MOL0     H35933   7.308   4.800   3.687 -1.4156 -0.1860 -0.4126
 1007MOL0     H35934   7.504   4.702   3.595 -1.4862 -0.2116 -1.0429
 1007MOL0     H35935   7.717   4.917   3.245  3.1373 -0.7956 -1.9097
 1007MOL0     H35936   7.796   4.950   3.398  1.9551  0.6589 -1.1066
 1007MOL0     H35937   7.842   4.679   3.280  2.0514 -1.1713  1.1928
 1007MOL0     H35938   7.944   4.772   3.377  1.5049 -2.5875 -1.3150
 1007MOL0     H35939   7.883   4.837   3.097 -4.1166 -0.2540  2.4469
 1007MOL0     H35940   8.035   4.759   3.171  0.5035  1.2310  0.2357
 1007MOL0     H35941   7.931   5.037   3.213 -1.4241 -1.6021 -0.1475
 1007MOL0     H35942   8.067   4.993   3.112 -1.4530  1.6881  0.2479
 1007MOL0     H35943   8.230   4.965   3.511  0.1340 -0.6274 -0.3788
 1007MOL0     H35944   7.547   5.038   3.333  0.5656  1.6919  1.6593
 1007MOL0     H35945   7.359   5.155   3.452  0.9348  0.2732  3.7608
 1008MOL0     O35946   8.013   3.350   2.060  0.4820  0.3996  0.4711
 1008MOL0     C35947   7.994   3.449   2.131 -0.4560 -0.3903  0.0245
 1008MOL0     O35948   7.880   3.496   2.186  0.2279  0.0404  0.8907
 1008MOL0     C35949   7.748   3.451   2.169  0.1612  0.6806 -0.5643
 1008MOL0     C35950   7.642   3.529   2.209  0.3912  0.9592 -0.0243
 1008MOL0     C35951   7.507   3.483   2.177  0.0229  0.0645  0.1367
 1008MOL0     C35952   7.478   3.351   2.134  0.1260  0.3070 -1.3368
 1008MOL0     O35953   7.349   3.289   2.126 -0.0716 -0.1737 -0.5320
 1008MOL0     C35954   7.255   3.322   2.229  0.2267  0.0282  0.3614
 1008MOL0     C35955   7.152   3.419   2.162 -0.2422  0.5145  0.0396
 1008MOL0     C35956   7.007   3.391   2.200 -0.0290 -0.2848  0.2063
 1008MOL0     C35957   6.908   3.478   2.108 -0.0723 -0.0768  0.4767
 1008MOL0     C35958   6.758   3.438   2.133 -0.2110 -0.4439 -0.8062
 1008MOL0     C35959   6.674   3.522   2.049 -0.5663  0.1090 -0.3672
 1008MOL0     C35960   6.522   3.489   2.075  0.1213 -0.3762 -0.1763
 1008MOL0     C35961   6.447   3.475   1.943 -0.3220 -0.0931 -0.5789
 1008MOL0     N35962   6.309   3.465   1.959 -0.2132  0.4553  0.1186
 1008MOL0     C35963   6.233   3.346   1.957 -0.5603  0.1368  0.2199
 1008MOL0     C35964   6.106   3.395   1.946  0.5199  0.5469  0.5876
 1008MOL0     C35965   5.981   3.306   1.948 -0.1092 -0.6748  0.1346
 1008MOL0     C35966   5.852   3.374   1.968  0.1480 -0.4063  0.4541
 1008MOL0     C35967   5.741   3.268   1.980  0.1714  0.8267  0.9873
 1008MOL0     C35968   5.612   3.345   1.993 -0.9054 -0.1221  0.1092
 1008MOL0     O35969   5.498   3.265   1.962 -0.1175  0.1233  0.1382
 1008MOL0     C35970   5.378   3.331   1.954  0.2258  0.0139  0.1013
 1008MOL0     C35971   5.275   3.264   1.893 -0.3588 -0.9022 -0.1092
 1008MOL0     C35972   5.139   3.318   1.888  0.2475 -0.1770  0.2907
 1008MOL0     C35973   5.033   3.224   1.837 -0.6743  0.5430  0.3636
 1008MOL0     C35974   5.116   3.452   1.941  0.9612  0.2062 -0.3394
 1008MOL0     C35975   4.979   3.509   1.937 -0.5867  0.1901  0.4756
 1008MOL0     O35976   4.952   3.615   2.020 -0.1176  0.2760 -0.0753
 1008MOL0     C35977   4.880   3.724   1.971 -0.9994 -0.0135  0.1060
 1008MOL0     C35978   4.881   3.773   1.835  0.4794  0.2763  0.0014
 1008MOL0     C35979   4.794   3.879   1.798  0.2288  0.3803  0.7391
 1008MOL0     C35980   4.725   3.955   1.895  0.1476 -0.0512 -0.2061
 1008MOL0     O35981   4.652   4.068   1.875  0.1716  0.2343  0.1261
 1008MOL0     C35982   4.674   4.139   1.749 -0.2751 -0.4227 -0.1686
 1008MOL0     C35983   4.605   4.278   1.750 -0.2315  0.0006  0.7736
 1008MOL0     C35984   4.698   4.382   1.805 -0.2408 -0.4577  0.6362
 1008MOL0     C35985   4.648   4.523   1.773 -0.5626  0.3127 -0.1078
 1008MOL0     C35986   4.538   4.559   1.874 -0.1214 -0.2699  0.6432
 1008MOL0     C35987   4.493   4.702   1.835 -0.4882 -0.0159  0.1222
 1008MOL0     C35988   4.411   4.764   1.948 -0.0467  0.4584 -0.3952
 1008MOL0     C35989   4.400   4.914   1.950 -0.3193  0.3359  1.1458
 1008MOL0    Cl35990   4.342   4.962   1.799 -0.2055  0.0165  0.3359
 1008MOL0     C35991   4.744   3.918   2.028  0.8872 -0.3760 -0.5136
 1008MOL0     C35992   4.824   3.807   2.067 -0.0323  0.0731 -0.3321
 1008MOL0     O35993   4.902   3.474   1.849 -0.4509  0.0820  0.2159
 1008MOL0     C35994   5.220   3.525   2.008  0.4189 -0.3886 -0.6968
 1008MOL0     C35995   5.347   3.463   2.012  0.1967 -0.0990  1.0971
 1008MOL0     N35996   6.111   3.533   1.965  0.3560 -0.4759  0.2860
 1008MOL0     N35997   6.235   3.575   1.984 -0.0047  1.0776  0.1059
 1008MOL0     C35998   7.590   3.275   2.112 -0.4394 -0.8562 -0.2624
 1008MOL0     C35999   7.720   3.321   2.126  0.2564 -0.8681 -0.0266
 1008MOL0     C36000   8.108   3.525   2.156 -0.8127 -0.8381  0.4609
 1008MOL0     C36001   8.113   3.640   2.240  0.1063 -0.1407 -0.6561
 1008MOL0     C36002   8.230   3.720   2.262 -0.6829  0.1630 -0.0171
 1008MOL0     C36003   8.346   3.693   2.193  0.1150  1.3020 -0.8285
 1008MOL0     O36004   8.453   3.769   2.215 -0.0709  0.6589 -0.2551
 1008MOL0     C36005   8.576   3.723   2.160  0.5174  0.1035  0.3071
 1008MOL0     C36006   8.698   3.802   2.214  0.7290 -0.3850  0.3316
 1008MOL0     C36007   8.677   3.949   2.158 -0.1309  0.5905 -0.4836
 1008MOL0     C36008   8.801   4.023   2.188  0.2226 -0.6235  0.4461
 1008MOL0     C36009   8.777   4.168   2.192  0.2194 -0.0891  0.0288
 1008MOL0     C36010   8.751   4.286   2.198  1.0369 -0.0063  0.2363
 1008MOL0     C36011   8.338   3.573   2.116 -0.0566  0.2175  0.0845
 1008MOL0     C36012   8.232   3.489   2.101  0.0303 -0.0765  0.3440
 1008MOL0     H36013   7.656   3.632   2.241  0.7874  0.5764  1.0738
 1008MOL0     H36014   7.421   3.546   2.197  0.2210  0.5066 -0.3612
 1008MOL0     H36015   7.201   3.235   2.267 -2.0332  0.2837 -1.9287
 1008MOL0     H36016   7.302   3.353   2.322 -0.1705 -0.4186  0.7147
 1008MOL0     H36017   7.187   3.517   2.195 -0.8117  0.9712 -0.6910
 1008MOL0     H36018   7.167   3.415   2.054  5.7169 -0.2481  0.5388
 1008MOL0     H36019   6.977   3.289   2.173 -1.9712  0.5554 -1.0233
 1008MOL0     H36020   6.991   3.413   2.306  3.0378  1.8750  0.3462
 1008MOL0     H36021   6.913   3.580   2.145 -1.9359 -0.6153  2.4006
 1008MOL0     H36022   6.936   3.480   2.002 -1.6837 -0.7161 -0.0059
 1008MOL0     H36023   6.743   3.332   2.113  1.0969 -0.5556 -1.2585
 1008MOL0     H36024   6.743   3.446   2.241  0.2548 -1.3231 -0.6725
 1008MOL0     H36025   6.691   3.628   2.071 -0.9990  0.3079 -0.9672
 1008MOL0     H36026   6.696   3.508   1.943  1.1242  1.1605 -0.1873
 1008MOL0     H36027   6.516   3.399   2.138 -1.9387 -1.2455 -1.5222
 1008MOL0     H36028   6.475   3.568   2.134  2.3163  0.5078  0.4809
 1008MOL0     H36029   6.487   3.380   1.906  3.0577  0.8808  0.1703
 1008MOL0     H36030   6.469   3.556   1.874  0.5598 -0.9341 -1.3173
 1008MOL0     H36031   6.268   3.243   1.946  0.0097  0.1874  1.3310
 1008MOL0     H36032   5.979   3.244   1.858 -1.2736 -0.3137 -0.0908
 1008MOL0     H36033   5.998   3.244   2.037  0.9142  1.8595  1.8224
 1008MOL0     H36034   5.834   3.440   1.883  0.6540 -2.8368 -1.6275
 1008MOL0     H36035   5.857   3.440   2.056  1.4301 -2.6274  2.1544
 1008MOL0     H36036   5.746   3.208   2.071 -0.0798  0.1628  0.5712
 1008MOL0     H36037   5.744   3.211   1.887  2.8438  0.8657  0.9649
 1008MOL0     H36038   5.618   3.432   1.927  0.5480 -1.0580 -1.0647
 1008MOL0     H36039   5.610   3.379   2.097  0.5003 -0.3375  0.2260
 1008MOL0     H36040   5.308   3.175   1.838 -0.1804 -0.5308 -0.6126
 1008MOL0     H36041   5.077   3.129   1.804 -2.7254 -0.4546  0.3190
 1008MOL0     H36042   4.965   3.207   1.920 -0.3861  0.9362  0.6842
 1008MOL0     H36043   4.981   3.255   1.746  2.3150 -1.2189 -2.1612
 1008MOL0     H36044   4.921   3.723   1.747 -2.8925 -0.3706 -1.3025
 1008MOL0     H36045   4.809   3.908   1.694 -0.7670 -1.3852  0.0618
 1008MOL0     H36046   4.777   4.170   1.732 -0.4088 -0.2309 -0.6578
 1008MOL0     H36047   4.630   4.094   1.659 -1.4813  1.2762 -0.4829
 1008MOL0     H36048   4.583   4.308   1.647  0.0713  0.7959  0.9324
 1008MOL0     H36049   4.506   4.261   1.794 -1.1498 -1.4222 -1.6225
 1008MOL0     H36050   4.800   4.378   1.765  0.1216  0.6154  1.3961
 1008MOL0     H36051   4.719   4.372   1.912  2.0659 -3.5085  0.0331
 1008MOL0     H36052   4.733   4.592   1.780  0.0528 -0.1016 -2.7436
 1008MOL0     H36053   4.619   4.526   1.668  0.1656 -1.2378 -0.3894
 1008MOL0     H36054   4.581   4.567   1.974  0.2260  2.4613  0.3544
 1008MOL0     H36055   4.462   4.483   1.892  0.2602 -0.9705 -0.5609
 1008MOL0     H36056   4.577   4.770   1.818 -2.5928  2.0761 -2.9901
 1008MOL0     H36057   4.427   4.706   1.747 -1.8023  3.0619  1.1178
 1008MOL0     H36058   4.442   4.725   2.045  0.9274  2.8202  0.3060
 1008MOL0     H36059   4.309   4.725   1.935  0.4333 -0.6520 -1.0470
 1008MOL0     H36060   4.496   4.959   1.974  1.7159 -0.6991 -3.8386
 1008MOL0     H36061   4.325   4.949   2.022 -1.8438 -0.0014 -0.2206
 1008MOL0     H36062   4.704   3.970   2.114  1.1360 -1.1906  0.1150
 1008MOL0     H36063   4.848   3.780   2.169 -0.6977 -0.0563 -0.2029
 1008MOL0     H36064   5.197   3.621   2.053  0.2173  0.2229 -2.0505
 1008MOL0     H36065   5.435   3.509   2.057  0.9734  2.2910 -2.4078
 1008MOL0     H36066   7.584   3.170   2.085  3.4998 -1.1457 -0.6766
 1008MOL0     H36067   7.800   3.256   2.092  0.5368 -0.9649  0.8056
 1008MOL0     H36068   8.016   3.668   2.279 -1.3878 -1.3383 -3.1910
 1008MOL0     H36069   8.225   3.806   2.328  0.1428  0.0945  0.1379
 1008MOL0     H36070   8.597   3.619   2.185  0.8958 -0.3066 -1.5322
 1008MOL0     H36071   8.572   3.735   2.051  0.1978  2.2556  0.5171
 1008MOL0     H36072   8.793   3.759   2.182 -0.0494  0.3894 -3.3982
 1008MOL0     H36073   8.675   3.791   2.321  1.2135  1.5842  0.6671
 1008MOL0     H36074   8.595   4.004   2.205  0.2964  1.7783 -1.0610
 1008MOL0     H36075   8.656   3.942   2.051 -2.2512 -1.4262 -0.0124
 1008MOL0     H36076   8.883   3.995   2.122  0.5438 -1.0342  1.0101
 1008MOL0     H36077   8.832   3.987   2.286 -2.9136  0.6165  2.0540
 1008MOL0     H36078   8.728   4.390   2.203 -1.6394 -0.4228 -1.4512
 1008MOL0     H36079   8.417   3.543   2.048  0.1215 -0.6795  0.6733
 1008MOL0     H36080   8.240   3.407   2.031 -2.9092 -0.5368  0.3955
 1009MOL0     O36081   0.866   1.189   1.215 -0.4928 -0.7420  0.5294
 1009MOL0     C36082   0.793   1.237   1.131 -0.0112 -0.2523 -0.3106
 1009MOL0     O36083   0.833   1.333   1.040  0.5068  0.1409 -0.8941
 1009MOL0     C36084   0.958   1.376   1.038 -0.4749 -0.3742  0.1883
 1009MOL0     C36085   1.027   1.441   1.143  0.1098  0.8993 -0.0539
 1009MOL0     C36086   1.160   1.466   1.140  0.0383  0.0873 -0.1182
 1009MOL0     C36087   1.239   1.456   1.023  0.8189  0.1583 -0.1919
 1009MOL0     O36088   1.378   1.475   1.027 -0.3338  0.2211  0.9663
 1009MOL0     C36089   1.459   1.469   0.902  0.0484  0.3986 -0.6186
 1009MOL0     C36090   1.425   1.587   0.822 -0.4680 -0.1688  1.0218
 1009MOL0     C36091   1.528   1.611   0.714 -0.1281  0.9761 -0.1137
 1009MOL0     C36092   1.468   1.702   0.613 -0.8123 -0.1854  0.4060
 1009MOL0     C36093   1.552   1.733   0.488 -0.8559  0.1875  0.3265
 1009MOL0     C36094   1.592   1.610   0.398 -1.3322 -0.5008 -0.3835
 1009MOL0     C36095   1.631   1.659   0.250  0.5300 -0.3314 -0.0824
 1009MOL0     C36096   1.527   1.717   0.150 -0.0926 -0.5694 -0.2726
 1009MOL0     N36097   1.409   1.625   0.147  0.3570  1.5783 -0.5879
 1009MOL0     C36098   1.393   1.512   0.068  0.0949  0.1259 -0.0061
 1009MOL0     C36099   1.260   1.489   0.073 -0.2732  1.0790  0.7698
 1009MOL0     C36100   1.191   1.386  -0.013 -0.1522 -1.1514  0.7043
 1009MOL0     C36101   1.104   1.469  -0.118  0.6065 -0.0708  0.3976
 1009MOL0     C36102   1.158   1.433  -0.262  0.2562  0.0135  0.0747
 1009MOL0     C36103   1.048   1.424  -0.359  0.1638  0.3975 -0.1668
 1009MOL0     O36104   1.093   1.383  -0.494  0.0689 -0.0937 -0.5666
 1009MOL0     C36105   1.170   1.276  -0.516 -0.5791 -0.4060 -0.4594
 1009MOL0     C36106   1.263   1.278  -0.619  0.4937 -0.1322  0.6130
 1009MOL0     C36107   1.344   1.171  -0.650 -0.2749  0.0559 -0.2375
 1009MOL0     C36108   1.451   1.198  -0.763 -0.1429 -0.2081 -0.3171
 1009MOL0     C36109   1.340   1.057  -0.574 -0.2274 -0.5324 -0.2219
 1009MOL0     C36110   1.409   0.928  -0.613  1.2246 -0.7921  0.2876
 1009MOL0     O36111   1.441   0.914  -0.746  0.0013  0.1977  0.6839
 1009MOL0     C36112   1.509   0.807  -0.796 -0.1843 -0.2910  0.2052
 1009MOL0     C36113   1.624   0.830  -0.877 -0.1875  0.3220 -0.7953
 1009MOL0     C36114   1.687   0.722  -0.938  0.2974 -0.7009  0.3798
 1009MOL0     C36115   1.640   0.594  -0.923 -0.0032 -0.4250  0.0196
 1009MOL0     O36116   1.701   0.485  -0.978 -0.4148  0.2692  1.3296
 1009MOL0     C36117   1.747   0.384  -0.885  0.2592  1.1202 -0.0563
 1009MOL0     C36118   1.900   0.363  -0.906 -0.5570 -0.3448 -0.0888
 1009MOL0     C36119   1.926   0.335  -1.060 -0.5714  0.3172 -0.5674
 1009MOL0     C36120   2.069   0.307  -1.095  0.8643 -0.6044 -1.4445
 1009MOL0     C36121   2.093   0.270  -1.238  0.2440 -0.0821  0.5350
 1009MOL0     C36122   2.023   0.145  -1.280  0.0527  0.6763 -0.0520
 1009MOL0     C36123   2.085   0.088  -1.410  0.5271 -0.6853 -0.3712
 1009MOL0     C36124   2.225   0.027  -1.397 -0.0380 -0.8049  0.5059
 1009MOL0    Cl36125   2.236  -0.126  -1.289  0.1205 -0.1741  0.0758
 1009MOL0     C36126   1.520   0.576  -0.851 -0.0423  0.2435 -1.0918
 1009MOL0     C36127   1.457   0.682  -0.781 -0.0210 -0.0963  0.3855
 1009MOL0     O36128   1.448   0.850  -0.523  0.7764 -0.1922 -0.4699
 1009MOL0     C36129   1.248   1.049  -0.465  0.4039 -0.2304 -0.6906
 1009MOL0     C36130   1.166   1.161  -0.442  0.3279 -0.6610 -0.4380
 1009MOL0     N36131   1.202   1.581   0.165  0.6006 -0.0980 -0.8695
 1009MOL0     N36132   1.296   1.659   0.206 -0.1786 -0.2797  0.4818
 1009MOL0     C36133   1.175   1.389   0.915  1.0336  0.2007 -0.2138
 1009MOL0     C36134   1.034   1.359   0.922 -0.1688 -0.5848  0.7271
 1009MOL0     C36135   0.661   1.179   1.117  0.5167  0.0474  0.4257
 1009MOL0     C36136   0.574   1.217   1.013 -0.3633 -0.1353 -0.2100
 1009MOL0     C36137   0.450   1.155   1.005 -0.7947  0.4670 -0.6564
 1009MOL0     C36138   0.408   1.056   1.096 -0.7458  0.2400 -0.0957
 1009MOL0     O36139   0.285   1.002   1.069 -0.5315 -0.2446 -0.0213
 1009MOL0     C36140   0.230   0.897   1.146  0.3543  1.0627 -0.2057
 1009MOL0     C36141   0.248   0.759   1.092  0.2287  0.1420  0.8145
 1009MOL0     C36142   0.158   0.655   1.162  0.5578 -0.6176 -0.5376
 1009MOL0     C36143   0.132   0.529   1.081 -0.2857  0.2690  0.2559
 1009MOL0     C36144   0.258   0.453   1.063 -0.6284 -0.1199  0.3141
 1009MOL0     C36145   0.363   0.391   1.043 -0.2193 -0.0673  0.1432
 1009MOL0     C36146   0.490   1.029   1.205 -0.8569  0.8634 -0.1464
 1009MOL0     C36147   0.613   1.092   1.217 -0.1285 -0.6969  0.0180
 1009MOL0     H36148   0.971   1.470   1.231  3.9491  1.6290  2.3500
 1009MOL0     H36149   1.211   1.503   1.229 -0.9504 -2.3881  1.5816
 1009MOL0     H36150   1.566   1.473   0.926  0.1699  1.3889 -1.2608
 1009MOL0     H36151   1.436   1.379   0.844 -0.0197 -1.3897  2.0187
 1009MOL0     H36152   1.327   1.565   0.779  0.8537 -1.7784 -1.3829
 1009MOL0     H36153   1.409   1.677   0.882 -0.7390  1.4066 -1.2746
 1009MOL0     H36154   1.610   1.663   0.763  0.8555 -0.8177  0.2275
 1009MOL0     H36155   1.558   1.514   0.673 -0.6582  0.1427  1.4181
 1009MOL0     H36156   1.384   1.651   0.565 -1.3367 -0.1401  1.2569
 1009MOL0     H36157   1.440   1.795   0.665 -1.8379  0.6285 -1.4729
 1009MOL0     H36158   1.496   1.797   0.420 -1.0097 -1.2680 -0.9821
 1009MOL0     H36159   1.645   1.779   0.521 -1.5454  1.2832  0.7799
 1009MOL0     H36160   1.671   1.555   0.450 -0.9400  1.2792  1.0010
 1009MOL0     H36161   1.512   1.536   0.392 -2.0101  0.1957 -0.0438
 1009MOL0     H36162   1.715   1.726   0.270 -0.5130  0.3551  2.4731
 1009MOL0     H36163   1.659   1.567   0.198 -1.3042  0.8958 -3.4919
 1009MOL0     H36164   1.555   1.718   0.044 -1.4254  2.2806 -0.6918
 1009MOL0     H36165   1.504   1.821   0.174 -3.3949 -1.2032 -0.2077
 1009MOL0     H36166   1.459   1.471  -0.008  0.7849 -2.0302  1.6305
 1009MOL0     H36167   1.261   1.321  -0.066  1.2135 -0.2815  1.4044
 1009MOL0     H36168   1.121   1.324   0.045  1.5339 -1.6860  2.2780
 1009MOL0     H36169   1.112   1.577  -0.100  1.3841  0.1058 -0.8952
 1009MOL0     H36170   1.001   1.434  -0.108 -0.1171  1.6186 -0.6551
 1009MOL0     H36171   1.202   1.333  -0.260  2.2375  0.8055 -0.9964
 1009MOL0     H36172   1.227   1.508  -0.302 -2.5370  0.8924 -3.6537
 1009MOL0     H36173   0.994   1.519  -0.367  0.2870  0.3693 -1.5695
 1009MOL0     H36174   0.969   1.359  -0.319 -0.0091  0.0086 -1.1187
 1009MOL0     H36175   1.269   1.367  -0.680 -0.2764 -0.1293  0.5253
 1009MOL0     H36176   1.430   1.147  -0.858  0.3186  0.5343 -0.8281
 1009MOL0     H36177   1.456   1.305  -0.785 -1.1023  0.5294  2.6546
 1009MOL0     H36178   1.553   1.172  -0.734 -0.3994  1.5582  2.5480
 1009MOL0     H36179   1.659   0.930  -0.903 -1.4349  1.4718  1.5936
 1009MOL0     H36180   1.770   0.747  -1.004  3.5731 -1.2184  3.9633
 1009MOL0     H36181   1.736   0.422  -0.783  1.5900 -0.1379  0.6000
 1009MOL0     H36182   1.682   0.299  -0.905  0.4887  1.1454 -0.9285
 1009MOL0     H36183   1.964   0.448  -0.879  1.7644 -1.4745 -1.7240
 1009MOL0     H36184   1.922   0.279  -0.840  1.8850 -1.6543 -2.3891
 1009MOL0     H36185   1.893   0.421  -1.118  0.8466  1.2867  0.0094
 1009MOL0     H36186   1.868   0.250  -1.099 -0.5740 -0.1682  0.4433
 1009MOL0     H36187   2.123   0.393  -1.056 -1.5400  0.2016  0.2492
 1009MOL0     H36188   2.107   0.227  -1.030 -1.3755  0.2438  1.0608
 1009MOL0     H36189   2.200   0.252  -1.249  0.1791  1.1943 -4.6652
 1009MOL0     H36190   2.062   0.353  -1.303 -0.3948 -0.0735  0.8364
 1009MOL0     H36191   2.038   0.063  -1.209 -1.0563 -1.5701 -2.2926
 1009MOL0     H36192   1.916   0.160  -1.292  0.0399  0.8253  0.2226
 1009MOL0     H36193   2.106   0.165  -1.486 -2.6050  0.3132 -0.3745
 1009MOL0     H36194   2.007   0.022  -1.447 -2.8146  2.5058  0.3647
 1009MOL0     H36195   2.285   0.105  -1.349  0.2918 -0.8775  0.2101
 1009MOL0     H36196   2.257  -0.005  -1.496  1.7206 -1.6497  1.2992
 1009MOL0     H36197   1.482   0.475  -0.862  0.1007  0.3181 -2.4455
 1009MOL0     H36198   1.371   0.665  -0.717  0.5400  1.3908  1.5929
 1009MOL0     H36199   1.218   0.957  -0.416 -0.4443 -0.0258 -0.8075
 1009MOL0     H36200   1.098   1.145  -0.358 -1.1658  3.2309 -0.6985
 1009MOL0     H36201   1.233   1.354   0.830  0.3789  1.3797 -1.1847
 1009MOL0     H36202   0.988   1.299   0.845 -0.3462  1.2760 -0.6900
 1009MOL0     H36203   0.598   1.278   0.926  2.6589 -0.2467  0.4611
 1009MOL0     H36204   0.368   1.165   0.934 -2.3058 -0.0658  0.9388
 1009MOL0     H36205   0.266   0.901   1.249 -1.4157 -0.3972  0.5290
 1009MOL0     H36206   0.124   0.922   1.158 -0.4160 -2.2035  0.7768
 1009MOL0     H36207   0.347   0.713   1.105 -0.1235 -0.7503  0.4613
 1009MOL0     H36208   0.230   0.756   0.984  0.6187 -0.9241  0.7684
 1009MOL0     H36209   0.071   0.715   1.191  1.1153 -1.5009  3.6872
 1009MOL0     H36210   0.195   0.615   1.257 -0.6890  1.1764  0.7793
 1009MOL0     H36211   0.082   0.550   0.986  1.6896 -3.8674 -1.9656
 1009MOL0     H36212   0.058   0.464   1.128 -1.7134  1.0031 -0.9033
 1009MOL0     H36213   0.456   0.342   1.022 -0.6047 -1.3475  1.2648
 1009MOL0     H36214   0.473   0.947   1.273 -1.9839  1.6328  0.5213
 1009MOL0     H36215   0.681   1.061   1.295  1.4296 -0.3022 -1.1418
 1010MOL0     O36216   5.146   0.153  10.992  0.2622 -0.0308  0.2680
 1010MOL0     C36217   5.172   0.031  10.999  0.3002 -0.8626  0.6527
 1010MOL0     O36218   5.074  -0.065  11.013 -0.1700 -0.0193 -0.6710
 1010MOL0     C36219   4.944  -0.019  11.007  1.1113  0.7694  0.5965
 1010MOL0     C36220   4.872  -0.017  10.888 -0.5012 -0.4484  0.5206
 1010MOL0     C36221   4.744   0.033  10.883 -0.1688 -0.2335 -0.0486
 1010MOL0     C36222   4.685   0.065  11.004  0.7838 -0.6118  0.1193
 1010MOL0     O36223   4.564   0.133  11.006 -0.2274 -0.4472 -0.2938
 1010MOL0     C36224   4.454   0.053  11.020  0.0298 -0.5628  0.0232
 1010MOL0     C36225   4.387   0.110  11.162  0.1688 -0.2166  0.4380
 1010MOL0     C36226   4.347   0.260  11.164 -0.3392  0.6927 -0.3372
 1010MOL0     C36227   4.268   0.303  11.290 -0.2348 -0.3746 -0.1506
 1010MOL0     C36228   4.121   0.243  11.312  0.5378  0.3387  0.1664
 1010MOL0     C36229   4.062   0.287  11.442 -0.6029  0.4208  0.9462
 1010MOL0     C36230   3.918   0.243  11.457  0.6393  0.3963 -0.6733
 1010MOL0     C36231   3.869   0.289  11.600  0.1679 -0.1315  1.3174
 1010MOL0     N36232   3.723   0.301  11.611 -0.0766  0.3476 -0.0288
 1010MOL0     C36233   3.654   0.410  11.566  0.1475 -0.0312  0.6517
 1010MOL0     C36234   3.528   0.393  11.614  0.0144 -0.5853 -0.2713
 1010MOL0     C36235   3.413   0.486  11.597  1.0445  0.3717 -0.6234
 1010MOL0     C36236   3.317   0.479  11.717 -0.1791  0.2660  0.4306
 1010MOL0     C36237   3.213   0.582  11.691 -0.6638  0.0476 -0.4096
 1010MOL0     C36238   3.122   0.599  11.819 -0.7851  0.2886 -0.1502
 1010MOL0     O36239   3.084   0.472  11.867 -0.0404  0.2573 -0.4921
 1010MOL0     C36240   2.953   0.456  11.916 -0.9733 -0.7827  0.3917
 1010MOL0     C36241   2.885   0.557  11.993 -0.6064  0.0225  0.6496
 1010MOL0     C36242   2.747   0.533  12.022 -0.7266  0.0894  1.2303
 1010MOL0     C36243   2.670   0.652  12.079 -0.4073 -0.0103 -0.5901
 1010MOL0     C36244   2.692   0.409  12.004  0.4135 -0.6145 -0.4817
 1010MOL0     C36245   2.545   0.369  12.042 -0.6304 -0.2985 -0.4418
 1010MOL0     O36246   2.452   0.467  12.052  0.0171  0.2941 -0.8106
 1010MOL0     C36247   2.327   0.426  12.093  0.1711  0.1825  0.8053
 1010MOL0     C36248   2.219   0.466  12.013  0.0491  0.5642 -0.7589
 1010MOL0     C36249   2.089   0.425  12.042  0.6239 -0.2252  0.5390
 1010MOL0     C36250   2.059   0.330  12.140  0.0700  0.5314  0.4324
 1010MOL0     O36251   1.936   0.272  12.145  0.2412  0.6892 -0.3383
 1010MOL0     C36252   1.889   0.268  12.282  0.0329  0.5031  0.0951
 1010MOL0     C36253   1.735   0.263  12.294 -0.4891  0.2555 -0.2925
 1010MOL0     C36254   1.693   0.241  12.441 -0.0845  0.1703  0.1254
 1010MOL0     C36255   1.538   0.249  12.454 -0.9013  0.6097 -0.5654
 1010MOL0     C36256   1.467   0.123  12.396  0.7897 -0.0167  0.2581
 1010MOL0     C36257   1.318   0.125  12.429 -0.2345  0.2057  0.1068
 1010MOL0     C36258   1.250  -0.001  12.381 -0.1884  0.4969  0.9064
 1010MOL0     C36259   1.097   0.020  12.386  0.5915  0.2236 -0.3982
 1010MOL0    Cl36260   1.028   0.021  12.557 -0.0567  0.4337 -0.7205
 1010MOL0     C36261   2.163   0.300  12.226 -0.3645  0.9626 -0.5472
 1010MOL0     C36262   2.295   0.349  12.205 -0.3663  0.1989  0.3621
 1010MOL0     O36263   2.516   0.254  12.064  0.1268 -0.1375 -0.0913
 1010MOL0     C36264   2.771   0.306  11.954 -0.1460  1.1619  0.6091
 1010MOL0     C36265   2.901   0.329  11.910  0.3613  0.2735  0.1931
 1010MOL0     N36266   3.523   0.271  11.679  0.4342 -1.3155 -0.6557
 1010MOL0     N36267   3.636   0.212  11.672  1.2744  0.0889 -0.3567
 1010MOL0     C36268   4.756   0.053  11.123  0.2648 -0.0162 -1.0229
 1010MOL0     C36269   4.888   0.016  11.127  1.3005  0.2787 -0.2670
 1010MOL0     C36270   5.314  -0.012  11.006 -0.8138 -0.2098 -0.7599
 1010MOL0     C36271   5.347  -0.147  11.055 -0.0484  0.0694  0.7375
 1010MOL0     C36272   5.481  -0.200  11.043  0.2331 -2.1355 -0.4702
 1010MOL0     C36273   5.579  -0.107  11.009  0.0518 -0.3518  0.2476
 1010MOL0     O36274   5.709  -0.149  11.008  0.3606 -0.2329 -0.4221
 1010MOL0     C36275   5.808  -0.071  11.081 -0.3329  0.3568  0.2641
 1010MOL0     C36276   5.940  -0.159  11.089  0.0377 -0.0108  0.2867
 1010MOL0     C36277   5.910  -0.295  11.157  0.8814 -1.1384 -0.2126
 1010MOL0     C36278   5.991  -0.412  11.102  0.4512 -0.9191 -0.6669
 1010MOL0     C36279   6.128  -0.390  11.132 -0.5292  0.6948  0.4250
 1010MOL0     C36280   6.245  -0.371  11.159  0.0990 -0.0191 -0.1685
 1010MOL0     C36281   5.548   0.031  10.992  0.2771 -0.3245  0.7565
 1010MOL0     C36282   5.416   0.079  10.982  0.0849  0.5229 -0.4818
 1010MOL0     H36283   4.914  -0.042  10.791  0.6951  5.2367 -0.8390
 1010MOL0     H36284   4.691   0.044  10.789  1.9416 -2.0088 -1.5598
 1010MOL0     H36285   4.390   0.065  10.932 -0.5671  0.3758  0.5724
 1010MOL0     H36286   4.487  -0.051  11.020  3.1469  0.3235 -0.3628
 1010MOL0     H36287   4.306   0.041  11.187  1.9724 -2.1227  1.3163
 1010MOL0     H36288   4.470   0.101  11.234  1.7927 -0.2324 -1.3702
 1010MOL0     H36289   4.436   0.324  11.163 -1.5220  2.4597  0.8513
 1010MOL0     H36290   4.285   0.272  11.074 -0.7810 -2.0866 -0.4771
 1010MOL0     H36291   4.329   0.279  11.377 -0.1642 -0.4017 -0.2077
 1010MOL0     H36292   4.235   0.407  11.291 -1.0827 -0.6138 -1.1118
 1010MOL0     H36293   4.053   0.268  11.230  2.0432 -2.1569 -1.9832
 1010MOL0     H36294   4.123   0.134  11.305  2.9418  0.3537 -0.2488
 1010MOL0     H36295   4.123   0.264  11.529 -3.5657  0.8388  3.3177
 1010MOL0     H36296   4.059   0.396  11.426 -0.7365 -0.0124 -3.0234
 1010MOL0     H36297   3.855   0.290  11.380 -1.5933 -1.5500 -0.1367
 1010MOL0     H36298   3.905   0.137  11.434 -0.3807  0.8030 -2.0883
 1010MOL0     H36299   3.933   0.376  11.621 -0.9569  1.2248 -0.5158
 1010MOL0     H36300   3.888   0.213  11.676 -0.3036  0.2484  1.8265
 1010MOL0     H36301   3.694   0.485  11.499  1.4724  0.0254  1.4719
 1010MOL0     H36302   3.439   0.591  11.584  0.2791  1.4284  4.4981
 1010MOL0     H36303   3.371   0.463  11.498 -0.7373 -1.3978  0.4638
 1010MOL0     H36304   3.358   0.499  11.816  0.4119  0.4757  0.1476
 1010MOL0     H36305   3.277   0.377  11.713 -0.9530  0.6054 -1.1693
 1010MOL0     H36306   3.149   0.556  11.606 -1.0529  1.2609 -0.5134
 1010MOL0     H36307   3.265   0.678  11.679  0.9807 -0.7762 -0.0782
 1010MOL0     H36308   3.037   0.660  11.787  0.2573  1.7891 -0.1592
 1010MOL0     H36309   3.178   0.655  11.894  0.9731 -1.6806  0.1010
 1010MOL0     H36310   2.919   0.658  12.013  0.1921 -0.5360  2.3787
 1010MOL0     H36311   2.606   0.632  12.166  0.8378  1.2821  0.6967
 1010MOL0     H36312   2.734   0.731  12.120 -0.5548 -0.2034  0.0211
 1010MOL0     H36313   2.617   0.694  11.994 -0.1510  0.5458 -0.4790
 1010MOL0     H36314   2.249   0.517  11.922  2.0853 -1.1272 -1.1120
 1010MOL0     H36315   2.008   0.462  11.980 -0.7092 -2.5399  0.8063
 1010MOL0     H36316   1.933   0.187  12.341  1.5116  1.1848 -0.0043
 1010MOL0     H36317   1.937   0.351  12.334  3.2920 -0.7320 -0.6798
 1010MOL0     H36318   1.694   0.357  12.254  3.4102  2.3515  0.0526
 1010MOL0     H36319   1.693   0.175  12.244 -3.0446  0.7626  0.8043
 1010MOL0     H36320   1.735   0.321  12.503  1.5530 -1.0215  0.6348
 1010MOL0     H36321   1.727   0.144  12.479 -0.4344 -0.0056 -0.0107
 1010MOL0     H36322   1.528   0.267  12.561  0.3812  0.0277 -0.3293
 1010MOL0     H36323   1.497   0.339  12.407 -0.6245  1.4404  0.7480
 1010MOL0     H36324   1.517   0.033  12.433  1.4038  0.2202  0.0168
 1010MOL0     H36325   1.479   0.132  12.288  0.4867 -0.8030  0.1533
 1010MOL0     H36326   1.311   0.121  12.538  2.6449  1.7333  0.4715
 1010MOL0     H36327   1.265   0.212  12.390 -3.1224 -1.1949  0.6661
 1010MOL0     H36328   1.279  -0.090  12.437 -3.2502 -0.5373  1.0043
 1010MOL0     H36329   1.279  -0.014  12.276 -1.9192 -0.2989  0.4927
 1010MOL0     H36330   1.038  -0.051  12.327 -5.2984  2.3460  2.1496
 1010MOL0     H36331   1.070   0.117  12.344 -1.1887  0.2814  0.7772
 1010MOL0     H36332   2.140   0.222  12.297  2.3953 -1.5113 -2.1620
 1010MOL0     H36333   2.370   0.305  12.269  0.8020 -2.1907 -2.4028
 1010MOL0     H36334   2.732   0.206  11.943  1.8591  0.2842  0.9984
 1010MOL0     H36335   2.956   0.244  11.871 -1.2413  0.0581 -1.8047
 1010MOL0     H36336   4.709   0.071  11.219  2.2144 -1.8701  0.3909
 1010MOL0     H36337   4.936   0.021  11.225 -0.8521  2.3637  0.7736
 1010MOL0     H36338   5.265  -0.215  11.078 -2.2468  2.1622 -0.4128
 1010MOL0     H36339   5.513  -0.296  11.081  2.2446 -1.6799 -0.9280
 1010MOL0     H36340   5.829   0.018  11.021 -1.9227  1.3791  1.1367
 1010MOL0     H36341   5.767  -0.040  11.178  1.8534  0.8692  1.0771
 1010MOL0     H36342   6.023  -0.114  11.145 -0.1404  1.5172 -0.6203
 1010MOL0     H36343   5.970  -0.159  10.984  3.4384  3.2058  1.0241
 1010MOL0     H36344   5.803  -0.319  11.152  1.1082 -2.0619 -0.6567
 1010MOL0     H36345   5.928  -0.290  11.265 -0.4506  2.3231 -0.0040
 1010MOL0     H36346   5.976  -0.419  10.994  0.4554  0.5444 -0.7787
 1010MOL0     H36347   5.955  -0.507  11.145 -2.7101 -0.2330 -1.5257
 1010MOL0     H36348   6.342  -0.339  11.192 -0.2559  0.4250  0.4604
 1010MOL0     H36349   5.627   0.098  10.959 -0.1329 -0.0474  0.3166
 1010MOL0     H36350   5.401   0.185  10.967  0.1002  1.6521  5.2508
 1011MOL0     O36351   0.047   9.514   7.320 -0.1761 -0.2467 -0.5225
 1011MOL0     C36352   0.147   9.551   7.263  0.2059  0.3077 -0.4235
 1011MOL0     O36353   0.151   9.630   7.162  0.1065  0.0703  0.2275
 1011MOL0     C36354   0.037   9.676   7.103  0.0356  0.2718 -0.2076
 1011MOL0     C36355  -0.027   9.607   7.004  0.4966 -0.4868 -0.7883
 1011MOL0     C36356  -0.139   9.666   6.938 -0.0466  0.1879 -0.0641
 1011MOL0     C36357  -0.182   9.795   6.960 -1.3868  0.3703 -0.2937
 1011MOL0     O36358  -0.282   9.834   6.872 -0.4362  0.4353  0.0823
 1011MOL0     C36359  -0.340   9.965   6.905  1.1064 -0.7846 -0.3723
 1011MOL0     C36360  -0.435   9.991   6.783  1.3671  0.8259  1.6886
 1011MOL0     C36361  -0.574   9.920   6.804  1.3520  0.3616  0.9825
 1011MOL0     C36362  -0.682   9.962   6.695 -0.4648 -0.2455 -0.6807
 1011MOL0     C36363  -0.798   9.860   6.679  1.1652  0.1941  0.0218
 1011MOL0     C36364  -0.887   9.865   6.805  1.1243  0.0699 -0.6846
 1011MOL0     C36365  -1.040   9.847   6.801  0.5204 -0.6839  0.7825
 1011MOL0     C36366  -1.116   9.974   6.751  0.2273  0.1771  0.5243
 1011MOL0     N36367  -1.259   9.958   6.752  0.8701 -0.0242 -0.3621
 1011MOL0     C36368  -1.339   9.860   6.698  0.3026  0.2453  1.3811
 1011MOL0     C36369  -1.471   9.899   6.727 -0.2133 -0.6626  0.5787
 1011MOL0     C36370  -1.594   9.845   6.670  0.5954  0.2854  0.0674
 1011MOL0     C36371  -1.682   9.778   6.774 -0.3249  0.6133 -0.6291
 1011MOL0     C36372  -1.618   9.655   6.828 -0.2817  0.5469  1.0370
 1011MOL0     C36373  -1.720   9.553   6.889  0.8713  0.3944  0.9901
 1011MOL0     O36374  -1.774   9.471   6.782 -0.7841  0.0816  1.5067
 1011MOL0     C36375  -1.910   9.457   6.767 -0.7097  0.3119  0.1880
 1011MOL0     C36376  -2.014   9.490   6.862  0.3459  0.5227  0.6070
 1011MOL0     C36377  -2.149   9.475   6.841  0.7067 -0.2137  0.2698
 1011MOL0     C36378  -2.238   9.523   6.955 -0.1647 -0.7936 -0.0264
 1011MOL0     C36379  -2.196   9.427   6.711 -0.6061 -0.7217  0.0702
 1011MOL0     C36380  -2.332   9.445   6.668  0.9027 -0.1014 -0.8075
 1011MOL0     O36381  -2.421   9.512   6.750  0.1030 -0.2703  0.3460
 1011MOL0     C36382  -2.559   9.530   6.730  0.5768 -0.0068 -0.6295
 1011MOL0     C36383  -2.621   9.574   6.608 -0.2720 -0.0099  1.1222
 1011MOL0     C36384  -2.760   9.606   6.610  0.2681  0.8523 -0.6331
 1011MOL0     C36385  -2.835   9.591   6.716  0.3186  0.7773 -0.2201
 1011MOL0     O36386  -2.970   9.612   6.705  0.0836 -0.3191 -0.0481
 1011MOL0     C36387  -3.064   9.519   6.756  0.3337  0.1784  0.0908
 1011MOL0     C36388  -3.135   9.571   6.883 -0.5347  0.0082  0.8384
 1011MOL0     C36389  -3.288   9.570   6.872  0.5067  0.0138 -0.2807
 1011MOL0     C36390  -3.339   9.612   7.007  0.0817  0.2648 -0.9584
 1011MOL0     C36391  -3.498   9.600   7.011 -1.1058 -0.1610  0.1042
 1011MOL0     C36392  -3.561   9.639   7.144 -0.2564  0.3613  0.2178
 1011MOL0     C36393  -3.712   9.615   7.155 -0.3964 -1.1334 -0.3547
 1011MOL0     C36394  -3.766   9.696   7.262  0.9500 -0.1990 -0.2252
 1011MOL0    Cl36395  -3.930   9.645   7.294  0.1946 -0.3722  0.2046
 1011MOL0     C36396  -2.778   9.550   6.840  0.2185  0.3571 -0.0080
 1011MOL0     C36397  -2.641   9.515   6.844  0.4068 -0.5693 -0.3862
 1011MOL0     O36398  -2.358   9.402   6.561  0.6654  0.7726  0.0730
 1011MOL0     C36399  -2.101   9.378   6.624 -0.0516  0.2804 -0.5584
 1011MOL0     C36400  -1.961   9.398   6.652 -0.2018  0.0036  0.4270
 1011MOL0     N36401  -1.466  10.001   6.822  0.2787 -0.3707 -0.1799
 1011MOL0     N36402  -1.340  10.032   6.830  0.0629 -0.4969  0.0264
 1011MOL0     C36403  -0.123   9.860   7.075 -0.2474 -0.9727  0.3820
 1011MOL0     C36404  -0.005   9.811   7.131  0.1519  0.3430  0.6176
 1011MOL0     C36405   0.278   9.506   7.312 -0.2709 -0.1176 -0.2559
 1011MOL0     C36406   0.395   9.546   7.248  1.1246 -0.2260 -0.1409
 1011MOL0     C36407   0.516   9.519   7.302 -0.4130 -0.0504  0.0550
 1011MOL0     C36408   0.527   9.447   7.420  0.2870  0.3180  0.9029
 1011MOL0     O36409   0.657   9.410   7.458 -0.6685 -0.3985 -0.1846
 1011MOL0     C36410   0.691   9.373   7.594 -0.1467 -0.4892 -0.4161
 1011MOL0     C36411   0.657   9.220   7.628 -0.3547  0.2779 -0.8181
 1011MOL0     C36412   0.731   9.120   7.526 -0.7015 -0.6120 -0.2233
 1011MOL0     C36413   0.813   9.011   7.585 -0.2212  0.3901  0.0274
 1011MOL0     C36414   0.942   9.047   7.638 -0.4114 -0.8683 -0.2026
 1011MOL0     C36415   1.056   9.067   7.666  0.1308  0.1659  0.5924
 1011MOL0     C36416   0.411   9.400   7.480 -0.9621 -0.0376  0.1182
 1011MOL0     C36417   0.286   9.427   7.427 -0.6406 -0.2612  0.2456
 1011MOL0     H36418   0.006   9.515   6.955  1.2071  0.0371 -1.3090
 1011MOL0     H36419  -0.176   9.611   6.852 -1.4134 -1.8676  1.7496
 1011MOL0     H36420  -0.392   9.983   7.000 -0.9841  1.6574 -1.8171
 1011MOL0     H36421  -0.251  10.028   6.904  0.5505  0.0192 -0.1032
 1011MOL0     H36422  -0.465  10.096   6.787  1.9905  1.0683  0.5575
 1011MOL0     H36423  -0.390   9.972   6.686 -1.0134  2.0320  0.2582
 1011MOL0     H36424  -0.566   9.811   6.800 -2.0044  0.0258 -1.2554
 1011MOL0     H36425  -0.630   9.940   6.896 -1.5734 -1.1704 -0.3173
 1011MOL0     H36426  -0.720  10.060   6.725  3.5956  1.3767 -0.1556
 1011MOL0     H36427  -0.628   9.967   6.600  0.2496 -0.7228 -0.3003
 1011MOL0     H36428  -0.868   9.895   6.603  1.1131 -1.1468 -0.5720
 1011MOL0     H36429  -0.761   9.760   6.654  0.0685  0.3112 -2.2981
 1011MOL0     H36430  -0.854   9.788   6.876 -3.7281 -1.7920 -0.0699
 1011MOL0     H36431  -0.878   9.965   6.850  2.0837 -1.2649  2.3635
 1011MOL0     H36432  -1.061   9.760   6.739  2.2651 -0.9319  0.4818
 1011MOL0     H36433  -1.077   9.821   6.900 -0.7924  0.0573  0.5147
 1011MOL0     H36434  -1.077  10.001   6.653  1.4938 -0.1158  0.9290
 1011MOL0     H36435  -1.083  10.063   6.806  4.8053 -0.5907 -0.5536
 1011MOL0     H36436  -1.302   9.781   6.633  0.6177  2.3140 -1.1210
 1011MOL0     H36437  -1.639   9.939   6.636 -0.1909 -0.0589  0.1199
 1011MOL0     H36438  -1.566   9.785   6.582  0.1046  1.9744 -1.2885
 1011MOL0     H36439  -1.777   9.759   6.722 -1.1498  2.7210 -0.0334
 1011MOL0     H36440  -1.692   9.833   6.868  2.8460  1.9493 -0.9488
 1011MOL0     H36441  -1.548   9.691   6.904 -1.0520  2.8058  0.7378
 1011MOL0     H36442  -1.556   9.606   6.752  0.8263 -1.1882  2.9355
 1011MOL0     H36443  -1.799   9.603   6.946  0.7446  0.7928  0.4662
 1011MOL0     H36444  -1.668   9.483   6.955  1.6424 -0.9449 -0.9257
 1011MOL0     H36445  -1.986   9.531   6.958 -2.7019 -0.1758  1.8924
 1011MOL0     H36446  -2.327   9.461   6.975 -1.3129  0.6242 -0.5815
 1011MOL0     H36447  -2.180   9.526   7.048 -1.5893  1.5351  0.8826
 1011MOL0     H36448  -2.278   9.621   6.927  0.8616 -0.4818 -0.4106
 1011MOL0     H36449  -2.564   9.577   6.516 -0.2610 -2.4410  0.9769
 1011MOL0     H36450  -2.809   9.633   6.517  0.2639 -1.1599 -1.2752
 1011MOL0     H36451  -3.136   9.502   6.675 -0.6918 -1.9465  1.3387
 1011MOL0     H36452  -3.017   9.420   6.757  2.4175  0.9445 -3.3568
 1011MOL0     H36453  -3.086   9.522   6.968  1.9813 -1.1377 -1.1166
 1011MOL0     H36454  -3.109   9.677   6.892 -2.2144  0.9414 -3.0586
 1011MOL0     H36455  -3.334   9.471   6.859  0.5532  0.1767 -1.9380
 1011MOL0     H36456  -3.325   9.637   6.794  2.6443 -2.1370 -3.4026
 1011MOL0     H36457  -3.301   9.543   7.082  0.3087  0.1151 -1.2076
 1011MOL0     H36458  -3.316   9.713   7.041  0.2897  0.2666 -1.1060
 1011MOL0     H36459  -3.532   9.499   6.986 -2.2705  0.1587  0.3312
 1011MOL0     H36460  -3.541   9.657   6.928 -2.3663 -1.5667 -0.2469
 1011MOL0     H36461  -3.513   9.570   7.213  1.0576 -0.8641 -1.8028
 1011MOL0     H36462  -3.536   9.741   7.177  0.2835  0.7093 -1.1882
 1011MOL0     H36463  -3.725   9.508   7.173  2.8261 -1.3697  1.3418
 1011MOL0     H36464  -3.757   9.647   7.060  1.6551  1.8067 -0.4654
 1011MOL0     H36465  -3.753   9.804   7.249  1.3471 -0.2916 -0.6102
 1011MOL0     H36466  -3.715   9.684   7.358  1.0386  0.9656 -0.1153
 1011MOL0     H36467  -2.835   9.545   6.932  0.8114 -1.2922  0.2998
 1011MOL0     H36468  -2.597   9.488   6.939  1.6681 -0.7184 -0.9927
 1011MOL0     H36469  -2.137   9.330   6.534 -0.8503 -2.2848  1.0379
 1011MOL0     H36470  -1.882   9.357   6.589  0.5143 -0.8259  1.8227
 1011MOL0     H36471  -0.154   9.961   7.099  1.3239 -0.2319 -0.5335
 1011MOL0     H36472   0.048   9.873   7.202  1.9154 -0.0684 -0.2696
 1011MOL0     H36473   0.384   9.615   7.165  0.8388 -0.4578 -0.2971
 1011MOL0     H36474   0.607   9.558   7.258  0.0248 -1.5632 -0.4581
 1011MOL0     H36475   0.801   9.372   7.596 -0.0706 -2.9959 -1.9028
 1011MOL0     H36476   0.643   9.451   7.654 -1.0247  0.8087 -2.6969
 1011MOL0     H36477   0.553   9.188   7.615 -1.5029  2.3732  2.1371
 1011MOL0     H36478   0.688   9.197   7.731 -0.2901  2.4804 -0.2994
 1011MOL0     H36479   0.786   9.164   7.442 -2.0468 -0.9342 -1.3086
 1011MOL0     H36480   0.664   9.054   7.471 -0.7199 -2.2733  1.6970
 1011MOL0     H36481   0.839   8.948   7.499  2.9267 -0.3268  1.3842
 1011MOL0     H36482   0.759   8.954   7.660 -1.8731  2.2635  0.3514
 1011MOL0     H36483   1.159   9.069   7.696 -0.0886 -1.1245  1.4955
 1011MOL0     H36484   0.408   9.342   7.571  0.3187  0.8005  0.7280
 1011MOL0     H36485   0.201   9.405   7.490  1.0347  1.9783  3.5630
 1012MOL0     O36486   6.700   9.456   1.491 -0.3305  0.2032 -0.3091
 1012MOL0     C36487   6.706   9.534   1.393  0.0903 -0.2492  0.0701
 1012MOL0     O36488   6.599   9.581   1.326 -0.1757  0.0610 -0.1796
 1012MOL0     C36489   6.475   9.539   1.356  0.0742 -0.0847  0.0441
 1012MOL0     C36490   6.378   9.637   1.383 -0.4061  0.0139 -0.0838
 1012MOL0     C36491   6.239   9.606   1.405  0.6645 -1.0212  0.0295
 1012MOL0     C36492   6.210   9.471   1.410  0.3317  0.6017 -0.2050
 1012MOL0     O36493   6.087   9.421   1.450 -0.1651 -0.0441 -0.5422
 1012MOL0     C36494   5.973   9.501   1.480 -0.0299 -0.9518  0.8499
 1012MOL0     C36495   5.876   9.410   1.556 -0.2594  0.2537 -0.1502
 1012MOL0     C36496   5.748   9.491   1.591 -0.7076 -0.4907 -0.4907
 1012MOL0     C36497   5.646   9.405   1.662 -0.0816 -0.4432  0.4329
 1012MOL0     C36498   5.546   9.499   1.734  0.4534 -0.5387 -0.3290
 1012MOL0     C36499   5.481   9.609   1.652 -0.6093 -0.7939  0.2380
 1012MOL0     C36500   5.372   9.569   1.552 -0.0541  0.0975 -0.0667
 1012MOL0     C36501   5.230   9.524   1.598 -0.9532  0.2856 -0.4697
 1012MOL0     N36502   5.168   9.607   1.700  1.2504 -0.2952 -0.3655
 1012MOL0     C36503   5.081   9.712   1.672 -0.7793 -0.1074 -0.4643
 1012MOL0     C36504   5.036   9.746   1.798 -0.5649 -0.2402 -0.1827
 1012MOL0     C36505   4.941   9.866   1.822 -0.9635  0.3087  0.5242
 1012MOL0     C36506   4.801   9.816   1.803  0.5034 -0.2970 -0.3268
 1012MOL0     C36507   4.711   9.936   1.848 -0.1505 -0.2522 -0.0416
 1012MOL0     C36508   4.569   9.900   1.841  0.1743  0.4800 -0.4360
 1012MOL0     O36509   4.505   9.945   1.959 -0.3394  0.3748  0.1142
 1012MOL0     C36510   4.377   9.977   1.944  0.2230 -0.4828 -0.5777
 1012MOL0     C36511   4.349  10.103   1.903  0.2196  0.2263 -0.1276
 1012MOL0     C36512   4.216  10.152   1.880 -0.1526  0.3245 -0.2130
 1012MOL0     C36513   4.197  10.306   1.871 -1.2075  0.0099  0.5392
 1012MOL0     C36514   4.108  10.054   1.903  0.0037 -0.6728  0.1874
 1012MOL0     C36515   3.960  10.089   1.899 -0.7380  0.6134 -1.2261
 1012MOL0     O36516   3.916  10.208   1.941 -0.4649 -0.1315 -0.2925
 1012MOL0     C36517   3.789  10.244   1.971  0.3158 -0.3269  0.5840
 1012MOL0     C36518   3.717  10.178   2.070 -0.6418  0.3522 -0.4268
 1012MOL0     C36519   3.585  10.217   2.100  0.0042  0.8261  0.3750
 1012MOL0     C36520   3.521  10.327   2.049 -0.0730 -0.2527 -0.6077
 1012MOL0     O36521   3.406  10.364   2.103 -0.1749  0.1277  0.0791
 1012MOL0     C36522   3.384  10.496   2.150  0.1721 -0.6795  0.3085
 1012MOL0     C36523   3.382  10.505   2.305 -0.5473  0.7677  0.4012
 1012MOL0     C36524   3.265  10.420   2.357  0.5013  0.2267 -0.5883
 1012MOL0     C36525   3.137  10.505   2.332  0.8606  0.4724  0.0178
 1012MOL0     C36526   3.016  10.409   2.352  0.8522 -0.2587 -0.0596
 1012MOL0     C36527   2.878  10.483   2.342 -0.4045  0.0936 -0.0718
 1012MOL0     C36528   2.758  10.385   2.348 -0.1509  0.6134  0.1063
 1012MOL0     C36529   2.615  10.457   2.354 -0.8192  0.3255  0.6189
 1012MOL0    Cl36530   2.482  10.342   2.360 -0.2260 -0.0918 -0.0287
 1012MOL0     C36531   3.599  10.389   1.947 -0.6425  0.1601 -0.5670
 1012MOL0     C36532   3.735  10.353   1.915 -0.1693 -1.0921  0.0424
 1012MOL0     O36533   3.879   9.995   1.895 -0.0317  0.1919 -0.2362
 1012MOL0     C36534   4.150   9.918   1.920 -0.3406 -0.1547 -0.3145
 1012MOL0     C36535   4.283   9.885   1.952  0.0562  0.0211 -0.4037
 1012MOL0     N36536   5.086   9.658   1.890  0.7343 -0.2990 -0.1608
 1012MOL0     N36537   5.165   9.573   1.836 -0.0830  0.3097 -0.0665
 1012MOL0     C36538   6.312   9.374   1.402  0.3073  0.2521  0.8466
 1012MOL0     C36539   6.443   9.405   1.369 -0.1622  0.1590 -0.0925
 1012MOL0     C36540   6.837   9.582   1.352 -0.1757 -0.2142  0.3467
 1012MOL0     C36541   6.854   9.611   1.219  0.0679  0.5040  0.6193
 1012MOL0     C36542   6.976   9.632   1.171 -0.9066  0.1076 -0.5835
 1012MOL0     C36543   7.084   9.621   1.253 -0.3362  0.1531 -0.4446
 1012MOL0     O36544   7.212   9.647   1.201  0.4885  0.0381 -0.4853
 1012MOL0     C36545   7.316   9.684   1.285  0.0638  0.1965 -0.8119
 1012MOL0     C36546   7.447   9.726   1.212  0.6352 -0.2195  0.5013
 1012MOL0     C36547   7.552   9.777   1.308  0.4216 -0.5112 -0.6918
 1012MOL0     C36548   7.686   9.820   1.248  0.8195 -0.1146 -0.4902
 1012MOL0     C36549   7.757   9.721   1.170  0.0058  0.4287 -0.4449
 1012MOL0     C36550   7.808   9.642   1.097 -1.2607 -0.4271  0.2505
 1012MOL0     C36551   7.067   9.601   1.395  0.1479  0.1820  0.2497
 1012MOL0     C36552   6.943   9.579   1.445 -0.7239 -0.8741  0.0404
 1012MOL0     H36553   6.423   9.736   1.375 -2.0826  0.9692  1.6729
 1012MOL0     H36554   6.153   9.671   1.414 -0.6013 -2.6422  0.2555
 1012MOL0     H36555   6.007   9.594   1.525 -0.7774  0.4327 -1.2961
 1012MOL0     H36556   5.927   9.530   1.385  0.9748  0.5521  0.8006
 1012MOL0     H36557   5.851   9.324   1.494 -0.2376  1.0993 -1.3578
 1012MOL0     H36558   5.918   9.372   1.650 -1.0226 -0.3603 -0.0471
 1012MOL0     H36559   5.782   9.571   1.658  1.9309 -1.2543 -0.7941
 1012MOL0     H36560   5.701   9.537   1.504 -1.1695  0.5265  0.2697
 1012MOL0     H36561   5.595   9.348   1.584 -0.7216 -1.2084  1.3920
 1012MOL0     H36562   5.693   9.339   1.736 -0.6082 -2.0205 -0.5834
 1012MOL0     H36563   5.472   9.437   1.786  1.7038 -0.8539  1.1421
 1012MOL0     H36564   5.611   9.535   1.814  2.8996 -4.1817 -0.4361
 1012MOL0     H36565   5.430   9.671   1.726 -0.6121 -2.1736  1.4418
 1012MOL0     H36566   5.564   9.659   1.601 -0.1601 -1.6131  0.1421
 1012MOL0     H36567   5.345   9.662   1.501 -1.5856 -0.7740 -0.9078
 1012MOL0     H36568   5.408   9.494   1.481  0.3168 -0.9685  1.1855
 1012MOL0     H36569   5.249   9.428   1.646 -0.8169  1.0619  1.1041
 1012MOL0     H36570   5.165   9.494   1.515 -2.5850  0.8273  0.5645
 1012MOL0     H36571   5.059   9.761   1.577  1.6162  0.7668 -0.6599
 1012MOL0     H36572   4.952   9.894   1.928 -0.9206 -0.4658  0.7289
 1012MOL0     H36573   4.963   9.944   1.749  3.9675  0.8377  2.1907
 1012MOL0     H36574   4.785   9.732   1.871 -1.0159 -0.8883 -1.3806
 1012MOL0     H36575   4.769   9.791   1.702 -1.9860 -1.8690  0.7652
 1012MOL0     H36576   4.722  10.022   1.783 -3.9210 -0.9629 -1.9043
 1012MOL0     H36577   4.743   9.964   1.949  2.6020 -0.7677 -0.6750
 1012MOL0     H36578   4.546   9.794   1.831  1.0993  0.2315  0.0289
 1012MOL0     H36579   4.518   9.950   1.757 -0.0735  0.8867 -0.0514
 1012MOL0     H36580   4.431  10.174   1.897 -1.0306  1.9002  1.4476
 1012MOL0     H36581   4.129  10.339   1.792 -0.2093  0.7362 -0.0380
 1012MOL0     H36582   4.162  10.345   1.967 -2.9064  1.7942 -0.7268
 1012MOL0     H36583   4.299  10.336   1.846 -1.2409 -0.5638 -0.3340
 1012MOL0     H36584   3.762  10.084   2.101  1.3459  0.3913 -2.8417
 1012MOL0     H36585   3.536  10.160   2.179 -1.4768 -0.4317 -1.3552
 1012MOL0     H36586   3.467  10.556   2.112 -0.1562  0.0539  0.7189
 1012MOL0     H36587   3.294  10.531   2.098  1.4358  2.7199  0.1627
 1012MOL0     H36588   3.482  10.479   2.344 -0.9698 -0.7983  0.4993
 1012MOL0     H36589   3.369  10.612   2.327 -0.1481  1.0842 -0.8405
 1012MOL0     H36590   3.280  10.387   2.461  0.4347  0.6923 -0.4285
 1012MOL0     H36591   3.263  10.329   2.295  4.1864  0.9752 -2.0793
 1012MOL0     H36592   3.137  10.582   2.410 -0.1677  2.1706 -1.5659
 1012MOL0     H36593   3.134  10.550   2.233  0.2503  3.2083  1.1892
 1012MOL0     H36594   3.019  10.343   2.439 -0.5288 -0.6300 -0.2683
 1012MOL0     H36595   3.022  10.337   2.269 -1.3135  0.7004 -1.1191
 1012MOL0     H36596   2.867  10.570   2.407 -0.2912 -0.1746  0.3080
 1012MOL0     H36597   2.877  10.521   2.239 -0.3724 -0.1704 -0.1702
 1012MOL0     H36598   2.770  10.314   2.431 -0.4870 -1.7351 -1.7516
 1012MOL0     H36599   2.765  10.320   2.260  3.8504  0.0748  0.6344
 1012MOL0     H36600   2.604  10.527   2.271  1.5151  2.3969  1.9131
 1012MOL0     H36601   2.599  10.509   2.449 -0.6594 -0.1725  0.9178
 1012MOL0     H36602   3.558  10.475   1.895  0.3173  0.4028 -0.9393
 1012MOL0     H36603   3.795  10.406   1.842 -1.2489 -2.2962 -1.8126
 1012MOL0     H36604   4.078   9.837   1.915  0.8799 -1.3340  0.4497
 1012MOL0     H36605   4.313   9.782   1.968 -0.5916 -0.0857  0.1321
 1012MOL0     H36606   6.276   9.271   1.406 -1.4600  0.7141 -1.4823
 1012MOL0     H36607   6.528   9.339   1.354  0.4507  0.7372  0.7533
 1012MOL0     H36608   6.768   9.622   1.154 -1.2267 -2.3024  1.7229
 1012MOL0     H36609   6.987   9.659   1.066  1.3792 -0.4165 -0.5243
 1012MOL0     H36610   7.291   9.768   1.351  4.0077  1.1426 -0.2438
 1012MOL0     H36611   7.333   9.597   1.350  0.3402 -0.1516 -1.3416
 1012MOL0     H36612   7.422   9.809   1.145  0.1577 -0.8879 -0.1733
 1012MOL0     H36613   7.476   9.648   1.141 -1.7519 -0.6015 -0.1356
 1012MOL0     H36614   7.569   9.718   1.399 -0.5320  0.4420  0.1353
 1012MOL0     H36615   7.513   9.870   1.350  1.4492 -0.7423  0.8291
 1012MOL0     H36616   7.758   9.867   1.315  0.3138 -2.2072  1.6621
 1012MOL0     H36617   7.660   9.898   1.176  2.1301  1.2150  0.4240
 1012MOL0     H36618   7.857   9.582   1.023 -1.7658  1.3401 -1.6054
 1012MOL0     H36619   7.158   9.593   1.454  1.9458  0.1344 -2.3626
 1012MOL0     H36620   6.919   9.563   1.550 -2.5082 -0.2367 -0.2282
 1013MOL0     O36621  10.082   5.790   2.638  0.1797  0.6781 -0.3335
 1013MOL0     C36622  10.105   5.912   2.649 -0.0906  0.7295 -0.2339
 1013MOL0     O36623  10.006   6.006   2.668 -0.1624 -0.2754 -0.6379
 1013MOL0     C36624   9.904   5.958   2.744  0.3621  0.2653  0.4684
 1013MOL0     C36625   9.787   5.905   2.696 -1.1085  0.2808 -0.3885
 1013MOL0     C36626   9.680   5.865   2.775 -0.6980 -0.5537 -0.4953
 1013MOL0     C36627   9.695   5.866   2.908 -0.3440 -0.2223 -0.4556
 1013MOL0     O36628   9.598   5.826   3.002 -0.1951  0.5286 -0.0227
 1013MOL0     C36629   9.498   5.738   2.955  0.6967  0.3197  0.0496
 1013MOL0     C36630   9.396   5.684   3.055 -0.0220  0.5654  0.5308
 1013MOL0     C36631   9.296   5.781   3.123 -0.3908 -0.9080 -0.3330
 1013MOL0     C36632   9.174   5.806   3.032  0.1020  0.0607  0.1117
 1013MOL0     C36633   9.098   5.936   3.075 -0.0284 -0.1194 -0.0077
 1013MOL0     C36634   9.033   5.910   3.209 -0.5215 -0.3977 -0.1859
 1013MOL0     C36635   8.923   6.005   3.249  0.3753 -0.3789  0.6097
 1013MOL0     C36636   8.965   6.136   3.312 -0.4789  0.8875  0.1673
 1013MOL0     N36637   8.978   6.129   3.457 -0.2184 -0.3643  0.1098
 1013MOL0     C36638   9.090   6.115   3.522  0.1895 -0.6429  0.1156
 1013MOL0     C36639   9.059   6.127   3.651 -0.6348  0.8772 -0.4371
 1013MOL0     C36640   9.165   6.125   3.768 -0.8292 -0.9619 -0.1655
 1013MOL0     C36641   9.196   5.985   3.819 -0.7311 -0.2375 -0.1452
 1013MOL0     C36642   9.271   5.981   3.957  0.2148 -0.4417  1.1379
 1013MOL0     C36643   9.422   5.986   3.939  0.2337 -0.2550  0.0805
 1013MOL0     O36644   9.489   6.032   4.049  0.0054 -0.6207  0.5771
 1013MOL0     C36645   9.621   5.997   4.054 -0.9019 -0.5408 -0.1800
 1013MOL0     C36646   9.701   5.955   3.946  0.7862 -0.1580 -1.1364
 1013MOL0     C36647   9.844   5.945   3.956  0.8761 -0.2377 -0.1363
 1013MOL0     C36648   9.929   5.900   3.839  0.0645 -0.4179  0.5211
 1013MOL0     C36649   9.901   5.974   4.083 -0.4947 -0.4675 -0.0852
 1013MOL0     C36650  10.048   5.953   4.112  0.1850 -0.1934  0.3443
 1013MOL0     O36651  10.102   5.831   4.094 -0.0372  0.4694  0.5974
 1013MOL0     C36652  10.237   5.819   4.127 -0.4107  0.7441 -0.7737
 1013MOL0     C36653  10.277   5.826   4.265  0.1413 -0.1820  0.2401
 1013MOL0     C36654  10.417   5.821   4.288  0.7361  0.1548 -1.0277
 1013MOL0     C36655  10.514   5.815   4.192 -0.5187 -0.5247  0.1352
 1013MOL0     O36656  10.653   5.817   4.209 -0.1846  0.2502  0.2006
 1013MOL0     C36657  10.708   5.772   4.336 -0.2284 -0.5868  1.0157
 1013MOL0     C36658  10.859   5.793   4.346 -0.8046  0.3909 -0.1078
 1013MOL0     C36659  10.926   5.689   4.246 -0.2644 -0.7410  0.1669
 1013MOL0     C36660  11.078   5.695   4.263  0.6215 -0.1786 -0.0948
 1013MOL0     C36661  11.150   5.824   4.216 -0.0489  0.0743  0.5883
 1013MOL0     C36662  11.305   5.819   4.263 -0.0022  0.1741  0.0707
 1013MOL0     C36663  11.387   5.949   4.231 -0.3643  0.1192  0.1026
 1013MOL0     C36664  11.324   6.080   4.284  0.3313  0.2718  1.1200
 1013MOL0    Cl36665  11.451   6.210   4.301 -0.7167  0.4533 -0.2063
 1013MOL0     C36666  10.471   5.829   4.057 -0.0241 -0.1811 -0.5375
 1013MOL0     C36667  10.333   5.817   4.035  0.3274 -0.0046 -0.1328
 1013MOL0     O36668  10.098   6.050   4.169 -0.1414  0.2604  0.1522
 1013MOL0     C36669   9.818   6.003   4.189 -0.4323 -0.1460 -0.1069
 1013MOL0     C36670   9.682   6.020   4.180 -0.1956  0.0658  0.8999
 1013MOL0     N36671   8.924   6.137   3.661  0.1107 -0.2379 -0.7562
 1013MOL0     N36672   8.872   6.137   3.546 -0.7877 -0.1060 -0.2995
 1013MOL0     C36673   9.811   5.924   2.967 -0.0835  0.6163  0.6055
 1013MOL0     C36674   9.915   5.970   2.883  1.1241  0.9074 -0.6627
 1013MOL0     C36675  10.245   5.953   2.672  0.0683 -0.6670  0.0573
 1013MOL0     C36676  10.273   6.084   2.714 -0.5047 -0.8957 -1.0249
 1013MOL0     C36677  10.404   6.128   2.722 -0.0067  1.2684 -1.2351
 1013MOL0     C36678  10.508   6.039   2.694 -0.0166  0.1371 -0.0074
 1013MOL0     O36679  10.636   6.080   2.692  1.2195  0.0789 -0.4028
 1013MOL0     C36680  10.668   6.220   2.680  0.2170 -0.7274  0.4373
 1013MOL0     C36681  10.819   6.227   2.701 -0.1086  0.2958 -0.3872
 1013MOL0     C36682  10.872   6.371   2.681 -0.0807 -0.5860  0.3666
 1013MOL0     C36683  11.015   6.368   2.623 -0.1906  0.8010 -0.3272
 1013MOL0     C36684  11.095   6.269   2.695 -0.1006  0.8279  0.1927
 1013MOL0     C36685  11.181   6.188   2.738  0.4028 -1.1358  0.5559
 1013MOL0     C36686  10.479   5.906   2.654 -0.4267 -0.4391  0.8919
 1013MOL0     C36687  10.347   5.865   2.640 -0.4159 -0.6213  0.2875
 1013MOL0     H36688   9.780   5.892   2.589  2.5299 -2.2647 -0.4927
 1013MOL0     H36689   9.598   5.824   2.718  0.4122 -1.9752 -1.1336
 1013MOL0     H36690   9.431   5.793   2.888 -2.0248 -3.3887 -0.6149
 1013MOL0     H36691   9.547   5.663   2.892 -0.3640 -0.5339  0.2097
 1013MOL0     H36692   9.328   5.610   3.012  1.9350 -1.2373  0.3556
 1013MOL0     H36693   9.450   5.621   3.126 -3.9027 -1.9098  1.5683
 1013MOL0     H36694   9.268   5.739   3.220  3.1310  0.3508  1.4102
 1013MOL0     H36695   9.340   5.878   3.147 -2.3296 -0.5994  2.5918
 1013MOL0     H36696   9.214   5.799   2.931  1.1763  1.3067  0.4166
 1013MOL0     H36697   9.102   5.724   3.046  0.2155  0.0381  0.5771
 1013MOL0     H36698   9.151   6.032   3.075 -1.2758  0.6149 -1.6758
 1013MOL0     H36699   9.022   5.954   2.999  0.4296  1.5166 -0.1062
 1013MOL0     H36700   8.990   5.810   3.214 -1.7058 -0.0921 -2.8144
 1013MOL0     H36701   9.109   5.913   3.289 -0.9045 -2.1189  0.2764
 1013MOL0     H36702   8.872   6.032   3.156 -0.3174 -1.2818  0.7129
 1013MOL0     H36703   8.860   5.953   3.322  0.8681 -1.9190 -0.0353
 1013MOL0     H36704   8.889   6.214   3.298 -1.7740  0.4921  3.8741
 1013MOL0     H36705   9.057   6.169   3.264 -2.1942  2.7947 -2.0901
 1013MOL0     H36706   9.189   6.104   3.480  0.6565  0.5416  0.8490
 1013MOL0     H36707   9.262   6.157   3.728 -0.3638 -1.0918  0.8426
 1013MOL0     H36708   9.130   6.191   3.848  0.1695 -0.0874 -0.4283
 1013MOL0     H36709   9.256   5.924   3.751  0.2931 -1.7540  1.9957
 1013MOL0     H36710   9.102   5.930   3.817 -0.8404 -0.0782  0.5308
 1013MOL0     H36711   9.235   5.894   4.013 -2.9123 -0.5576 -0.7953
 1013MOL0     H36712   9.246   6.074   4.008 -3.0148  1.1902 -2.8714
 1013MOL0     H36713   9.444   6.048   3.851 -2.7158  0.3683 -0.3213
 1013MOL0     H36714   9.450   5.882   3.918 -0.7541 -1.2308  3.1531
 1013MOL0     H36715   9.655   5.928   3.851  2.5775 -0.8775 -1.8385
 1013MOL0     H36716  10.021   5.958   3.840 -0.4629  0.4395  1.6539
 1013MOL0     H36717   9.960   5.797   3.860  0.1956 -0.7472 -1.1902
 1013MOL0     H36718   9.878   5.901   3.743  1.3135 -0.3966 -0.1561
 1013MOL0     H36719  10.204   5.830   4.345 -0.3892 -2.8845 -0.0149
 1013MOL0     H36720  10.454   5.827   4.390  2.9238  0.3598 -1.8052
 1013MOL0     H36721  10.670   5.845   4.408 -0.3690  1.1653 -0.7416
 1013MOL0     H36722  10.673   5.670   4.354  1.4280 -1.3700 -0.0142
 1013MOL0     H36723  10.890   5.893   4.314  0.3613 -0.0234 -0.3175
 1013MOL0     H36724  10.895   5.778   4.448 -0.3608 -1.1952 -0.4595
 1013MOL0     H36725  10.895   5.729   4.149 -1.7109  0.3036  1.0263
 1013MOL0     H36726  10.893   5.585   4.260 -0.9461 -0.3130  1.9874
 1013MOL0     H36727  11.111   5.679   4.365 -1.4323 -0.2587  0.6108
 1013MOL0     H36728  11.117   5.610   4.206  0.8806 -0.1924  0.1041
 1013MOL0     H36729  11.104   5.914   4.257 -2.5002 -0.0717 -1.5685
 1013MOL0     H36730  11.131   5.825   4.108  1.5836 -3.3903  0.1020
 1013MOL0     H36731  11.302   5.816   4.373  3.1080 -2.4090  0.2486
 1013MOL0     H36732  11.359   5.733   4.222  1.0466  2.4614 -3.8524
 1013MOL0     H36733  11.405   5.959   4.123 -1.3794  5.7526  0.1208
 1013MOL0     H36734  11.483   5.922   4.276 -0.2190 -0.3001 -0.4478
 1013MOL0     H36735  11.280   6.061   4.382 -1.4281 -1.5134  0.0552
 1013MOL0     H36736  11.249   6.111   4.212 -0.1415 -0.2210  1.3936
 1013MOL0     H36737  10.543   5.808   3.979  1.8429 -1.2906  1.3813
 1013MOL0     H36738  10.300   5.811   3.932  1.8357  0.2770 -0.6454
 1013MOL0     H36739   9.858   6.011   4.290  1.5806 -0.9382 -0.7730
 1013MOL0     H36740   9.620   6.052   4.263  1.2217  2.4375  1.1155
 1013MOL0     H36741   9.803   5.938   3.075 -0.0015  2.1073  0.4369
 1013MOL0     H36742   9.991   6.025   2.937 -0.0949  0.5315  1.5697
 1013MOL0     H36743  10.196   6.156   2.741 -0.0336 -0.9670  0.6060
 1013MOL0     H36744  10.421   6.231   2.752  1.0218  0.9186 -0.5809
 1013MOL0     H36745  10.633   6.253   2.582  0.5886 -1.6296 -0.0043
 1013MOL0     H36746  10.614   6.272   2.760 -0.5371 -0.8660  0.0290
 1013MOL0     H36747  10.870   6.146   2.648 -0.4631 -1.6958  2.1252
 1013MOL0     H36748  10.837   6.194   2.803  0.4539  0.9141 -0.2764
 1013MOL0     H36749  10.877   6.428   2.774  1.6490  0.0699 -0.0830
 1013MOL0     H36750  10.801   6.431   2.624  1.6043  3.1977  1.8908
 1013MOL0     H36751  11.070   6.462   2.617  1.8065  0.0995  3.5384
 1013MOL0     H36752  11.006   6.334   2.520  2.7378  1.4878 -0.8871
 1013MOL0     H36753  11.232   6.103   2.782  0.6775 -2.7543 -2.6141
 1013MOL0     H36754  10.559   5.837   2.628  0.1916  0.7426 -0.5112
 1013MOL0     H36755  10.332   5.762   2.610 -0.5659 -0.2361 -1.0176
 1014MOL0     O36756   7.561   0.775   0.666  0.6401  0.0321 -0.7735
 1014MOL0     C36757   7.577   0.711   0.772 -0.4765 -0.6260 -0.6740
 1014MOL0     O36758   7.490   0.721   0.876 -0.1746 -0.2776  0.4668
 1014MOL0     C36759   7.356   0.746   0.839  0.1178  0.5628 -0.4774
 1014MOL0     C36760   7.318   0.872   0.789 -0.3116  0.0168  0.6003
 1014MOL0     C36761   7.184   0.901   0.768 -0.2189 -0.0561  1.3375
 1014MOL0     C36762   7.087   0.811   0.786 -0.4880  0.0260  0.5111
 1014MOL0     O36763   6.965   0.862   0.751  0.2357  0.0547 -0.7756
 1014MOL0     C36764   6.845   0.783   0.730 -0.9723 -0.0002 -0.0816
 1014MOL0     C36765   6.743   0.894   0.715  0.5238 -0.0133  0.4271
 1014MOL0     C36766   6.611   0.831   0.657  0.3824  0.6126  0.0536
 1014MOL0     C36767   6.488   0.895   0.721  0.5249  0.1968 -0.4895
 1014MOL0     C36768   6.366   0.895   0.620 -0.3372  0.0598  0.0481
 1014MOL0     C36769   6.264   1.004   0.672  0.0993  0.3343 -0.5523
 1014MOL0     C36770   6.149   1.008   0.573  0.1518 -0.0486  0.1372
 1014MOL0     C36771   6.053   1.117   0.608  0.3006 -0.4566  0.1521
 1014MOL0     N36772   5.940   1.105   0.510  1.0466  0.2297 -0.2548
 1014MOL0     C36773   5.937   1.116   0.373  0.0984  0.3143 -0.4715
 1014MOL0     C36774   5.825   1.071   0.320 -0.2891  0.5669 -0.2174
 1014MOL0     C36775   5.797   1.084   0.168  0.2736  0.0276 -0.2512
 1014MOL0     C36776   5.813   0.951   0.096 -0.1563 -0.5312 -0.6430
 1014MOL0     C36777   5.717   0.838   0.142  0.6479 -0.0082  0.0266
 1014MOL0     C36778   5.573   0.856   0.084  0.5288 -0.1077  0.6985
 1014MOL0     O36779   5.519   0.980   0.131  0.1054  0.6824 -0.4001
 1014MOL0     C36780   5.404   1.028   0.066  0.0255  0.2723 -0.2993
 1014MOL0     C36781   5.369   1.161   0.090 -0.0040  0.9528 -1.0169
 1014MOL0     C36782   5.253   1.223   0.038 -0.7146 -0.5173  0.6091
 1014MOL0     C36783   5.228   1.375   0.074  0.0621 -0.1750  0.1024
 1014MOL0     C36784   5.161   1.140  -0.037 -0.4345 -0.3607 -0.2109
 1014MOL0     C36785   5.021   1.193  -0.078 -0.5389 -0.0023 -0.6523
 1014MOL0     O36786   4.923   1.099  -0.103 -0.4063  0.4228  0.3552
 1014MOL0     C36787   4.788   1.128  -0.133  0.4670  0.1009 -0.6271
 1014MOL0     C36788   4.729   1.250  -0.179  0.4018  0.0354 -0.2919
 1014MOL0     C36789   4.591   1.265  -0.212  0.1191  0.0514 -0.0859
 1014MOL0     C36790   4.513   1.147  -0.208 -0.0289  0.5250 -0.4088
 1014MOL0     O36791   4.384   1.145  -0.245  0.7160 -0.1307  0.2346
 1014MOL0     C36792   4.292   1.045  -0.198 -0.9887  0.3691 -0.1706
 1014MOL0     C36793   4.151   1.103  -0.199 -0.1701  0.7723  0.2317
 1014MOL0     C36794   4.115   1.169  -0.333 -0.6145 -0.7110 -0.4502
 1014MOL0     C36795   3.960   1.208  -0.328  0.0419  0.1969 -0.5461
 1014MOL0     C36796   3.940   1.333  -0.240  0.6935 -1.0383  0.3783
 1014MOL0     C36797   3.798   1.379  -0.231 -0.6115 -0.5369 -0.4865
 1014MOL0     C36798   3.702   1.274  -0.193  0.4772 -0.1048  0.0844
 1014MOL0     C36799   3.569   1.317  -0.120  0.0487 -0.5887 -0.2365
 1014MOL0    Cl36800   3.494   1.446  -0.206  0.1889 -0.0083  0.0845
 1014MOL0     C36801   4.575   1.024  -0.162 -0.1880 -0.8852  0.0894
 1014MOL0     C36802   4.708   1.017  -0.133 -0.3757  0.1009 -0.0334
 1014MOL0     O36803   5.013   1.312  -0.112  0.3209 -0.3868  0.2124
 1014MOL0     C36804   5.193   1.001  -0.055  0.2390  0.0924 -0.5565
 1014MOL0     C36805   5.307   0.949  -0.004 -0.4703 -0.4512 -0.5295
 1014MOL0     N36806   5.747   1.030   0.428  0.1201  0.7614 -0.2580
 1014MOL0     N36807   5.809   1.061   0.540 -0.0021 -0.5935 -0.5299
 1014MOL0     C36808   7.114   0.685   0.837 -0.7015 -0.0752 -0.2687
 1014MOL0     C36809   7.251   0.653   0.864 -0.3694 -0.6509  0.2737
 1014MOL0     C36810   7.695   0.617   0.789 -0.0806  0.6488 -0.1956
 1014MOL0     C36811   7.695   0.534   0.906  0.0668  0.4884 -0.3465
 1014MOL0     C36812   7.802   0.443   0.928 -0.3297 -0.3828 -0.5237
 1014MOL0     C36813   7.911   0.433   0.834 -0.2008 -0.2129 -0.4782
 1014MOL0     O36814   8.021   0.351   0.833 -0.2440 -0.5472  0.4996
 1014MOL0     C36815   8.040   0.264   0.941 -0.2615  0.4249 -1.0555
 1014MOL0     C36816   8.178   0.281   1.000  0.2995 -0.1247 -0.2806
 1014MOL0     C36817   8.224   0.424   1.027 -0.3352  0.3636  0.2114
 1014MOL0     C36818   8.360   0.432   1.101  0.0160 -0.0955  0.1828
 1014MOL0     C36819   8.479   0.400   1.023  0.5015 -0.2193  0.0260
 1014MOL0     C36820   8.580   0.382   0.955  0.6176  0.0839 -0.5555
 1014MOL0     C36821   7.904   0.518   0.721 -0.0178  0.6462 -0.2615
 1014MOL0     C36822   7.798   0.601   0.694 -0.6058  0.4648 -0.3063
 1014MOL0     H36823   7.399   0.942   0.773 -0.0721 -0.0948  1.2954
 1014MOL0     H36824   7.157   1.003   0.744  1.0947  1.1829  4.5802
 1014MOL0     H36825   6.852   0.735   0.632  0.3125 -1.3508  0.6502
 1014MOL0     H36826   6.810   0.713   0.806  0.6521 -1.1199 -0.3213
 1014MOL0     H36827   6.724   0.945   0.810 -1.7279  1.4102 -0.7030
 1014MOL0     H36828   6.782   0.969   0.645  0.5645  2.1690  2.6516
 1014MOL0     H36829   6.596   0.836   0.549 -0.5380  1.9348  0.2183
 1014MOL0     H36830   6.610   0.724   0.678  1.8990  0.1786 -1.8348
 1014MOL0     H36831   6.465   0.845   0.816  0.4557  2.3036  0.6586
 1014MOL0     H36832   6.518   0.999   0.737 -2.7770  1.6186 -2.4227
 1014MOL0     H36833   6.418   0.919   0.527  3.6317 -1.8522  1.5608
 1014MOL0     H36834   6.320   0.796   0.617  0.5528 -0.3422 -2.4386
 1014MOL0     H36835   6.235   0.969   0.771  0.7822 -0.6244 -0.6821
 1014MOL0     H36836   6.317   1.100   0.679  1.6047 -0.4760 -0.3333
 1014MOL0     H36837   6.186   1.013   0.471 -1.7115 -0.0602 -0.5915
 1014MOL0     H36838   6.098   0.911   0.579  0.8887 -0.4883 -0.4913
 1014MOL0     H36839   6.105   1.213   0.601  1.2137 -0.8476  1.3262
 1014MOL0     H36840   6.011   1.099   0.708 -2.2262  2.0314 -0.3332
 1014MOL0     H36841   6.019   1.165   0.321  0.2144 -0.1240 -0.7114
 1014MOL0     H36842   5.699   1.130   0.154 -0.1702 -0.6990  0.3722
 1014MOL0     H36843   5.874   1.152   0.131 -1.3807  2.6999  0.9101
 1014MOL0     H36844   5.912   0.921   0.134 -1.3304 -2.1252  1.3948
 1014MOL0     H36845   5.828   0.963  -0.011  0.4909  3.2814 -0.2377
 1014MOL0     H36846   5.717   0.825   0.250 -0.7650 -2.4309 -0.1789
 1014MOL0     H36847   5.750   0.743   0.097 -1.4998 -0.6905 -0.2197
 1014MOL0     H36848   5.504   0.776   0.109 -0.0469  0.3610  0.6374
 1014MOL0     H36849   5.577   0.859  -0.026 -1.3245  3.5413  0.5564
 1014MOL0     H36850   5.442   1.227   0.136 -0.4688 -1.1508  3.2863
 1014MOL0     H36851   5.279   1.429  -0.007  1.6732 -2.1080 -0.2470
 1014MOL0     H36852   5.122   1.401   0.075  0.3317  0.9582  1.3817
 1014MOL0     H36853   5.269   1.408   0.170  1.8315 -1.9805  0.0292
 1014MOL0     H36854   4.777   1.346  -0.191 -2.2026  1.8368  2.1969
 1014MOL0     H36855   4.539   1.355  -0.242 -3.3792 -1.3098  1.4282
 1014MOL0     H36856   4.295   0.960  -0.266 -0.3645 -1.5922  2.1646
 1014MOL0     H36857   4.319   1.003  -0.100 -1.3309 -2.7903 -1.3070
 1014MOL0     H36858   4.086   1.018  -0.174  0.4755  0.6752  1.6609
 1014MOL0     H36859   4.143   1.179  -0.121 -1.8176 -1.3147  2.2628
 1014MOL0     H36860   4.135   1.090  -0.404  1.3582  1.0750 -1.9963
 1014MOL0     H36861   4.183   1.251  -0.358 -1.3480  0.0531 -0.0038
 1014MOL0     H36862   3.915   1.210  -0.428 -0.0455 -1.6107 -0.5767
 1014MOL0     H36863   3.904   1.126  -0.281 -1.3923  1.0267 -0.7640
 1014MOL0     H36864   4.005   1.416  -0.269 -1.2878  0.6683  0.5885
 1014MOL0     H36865   3.977   1.304  -0.141  1.5956 -0.2453  0.2888
 1014MOL0     H36866   3.785   1.463  -0.163 -2.0592 -0.6118 -0.6359
 1014MOL0     H36867   3.767   1.418  -0.329 -1.5470  1.7897  0.6732
 1014MOL0     H36868   3.753   1.197  -0.136 -0.7812 -1.0900 -0.0736
 1014MOL0     H36869   3.666   1.225  -0.284 -0.6713  0.5870  0.1372
 1014MOL0     H36870   3.603   1.351  -0.022  1.3394 -0.2091 -0.7921
 1014MOL0     H36871   3.499   1.236  -0.096  2.3652 -1.8596  3.0046
 1014MOL0     H36872   4.517   0.933  -0.149 -1.6486 -0.0640 -0.4543
 1014MOL0     H36873   4.755   0.923  -0.107  1.2025  1.0089  0.4886
 1014MOL0     H36874   5.112   0.937  -0.088  0.6782  0.2734 -2.0396
 1014MOL0     H36875   5.334   0.845  -0.018  3.2658  0.2369  0.4431
 1014MOL0     H36876   7.040   0.613   0.870 -0.7291  0.0305 -0.0947
 1014MOL0     H36877   7.280   0.561   0.913 -0.6978  0.9917  3.8041
 1014MOL0     H36878   7.613   0.550   0.975  0.8890  1.4203  0.4296
 1014MOL0     H36879   7.800   0.395   1.025 -1.5614  0.9429  0.1338
 1014MOL0     H36880   7.960   0.252   1.015 -0.7509 -1.3608 -1.8221
 1014MOL0     H36881   8.040   0.161   0.907 -0.5216  0.0939 -0.1008
 1014MOL0     H36882   8.253   0.244   0.929  0.8798 -1.5790  1.0329
 1014MOL0     H36883   8.189   0.220   1.090 -0.7939  0.8829  0.5623
 1014MOL0     H36884   8.146   0.461   1.093 -0.7651  0.4524 -0.3437
 1014MOL0     H36885   8.229   0.489   0.940  3.1343 -0.6841 -0.5620
 1014MOL0     H36886   8.351   0.376   1.195 -1.6741 -0.5920 -0.2414
 1014MOL0     H36887   8.385   0.534   1.131  0.3482 -0.0020 -0.4103
 1014MOL0     H36888   8.673   0.364   0.904  0.3916  0.7285 -1.2160
 1014MOL0     H36889   7.986   0.513   0.650  1.5780  1.6329  1.4200
 1014MOL0     H36890   7.800   0.656   0.601 -0.6308  2.6012  0.8967
 1015MOL0     O36891   2.608  10.713   8.259 -0.2848  0.0171 -0.1937
 1015MOL0     C36892   2.637  10.800   8.170  0.3313  0.0071 -0.0343
 1015MOL0     O36893   2.558  10.846   8.067  0.4356 -0.0398 -0.3215
 1015MOL0     C36894   2.429  10.803   8.049 -0.0631  0.2044  0.2872
 1015MOL0     C36895   2.343  10.747   8.150  0.1731  0.1338 -0.2165
 1015MOL0     C36896   2.206  10.717   8.121 -0.3303 -0.7341 -0.1376
 1015MOL0     C36897   2.157  10.740   7.996  0.7084 -0.5176  0.1821
 1015MOL0     O36898   2.036  10.710   7.944 -0.5714  0.2902  0.6558
 1015MOL0     C36899   1.972  10.595   7.996 -0.1448  0.4166  0.3467
 1015MOL0     C36900   1.876  10.643   8.110  0.2842  0.0637  0.2539
 1015MOL0     C36901   1.756  10.715   8.055 -0.8232 -0.0799 -0.3788
 1015MOL0     C36902   1.639  10.633   8.003  0.6901  0.6454  0.4056
 1015MOL0     C36903   1.503  10.710   7.998  0.1963 -0.3958  0.2056
 1015MOL0     C36904   1.496  10.823   7.898 -0.4542  0.6711 -0.4580
 1015MOL0     C36905   1.354  10.865   7.882  0.7389 -0.6724 -0.3206
 1015MOL0     C36906   1.307  10.901   7.738 -0.0733 -0.1108  0.2581
 1015MOL0     N36907   1.178  10.962   7.726  0.1294 -0.3481  0.2251
 1015MOL0     C36908   1.130  11.021   7.606  0.9909  0.5312 -1.0599
 1015MOL0     C36909   1.015  11.083   7.637  0.5120  0.2336  0.9054
 1015MOL0     C36910   0.928  11.161   7.536 -0.1022  0.0096  0.0185
 1015MOL0     C36911   0.775  11.157   7.584 -0.4289 -0.2843 -0.3558
 1015MOL0     C36912   0.683  11.199   7.464  1.2562  0.1725 -1.1198
 1015MOL0     C36913   0.538  11.205   7.518  0.8482  0.1649 -0.3917
 1015MOL0     O36914   0.442  11.211   7.409  0.9165  0.2851  0.6611
 1015MOL0     C36915   0.309  11.247   7.430 -1.0617  0.4387 -0.5928
 1015MOL0     C36916   0.259  11.284   7.556  0.1105  0.0696  0.6730
 1015MOL0     C36917   0.122  11.307   7.579  0.0725  0.8424  0.8388
 1015MOL0     C36918   0.080  11.353   7.720 -0.3417 -0.1642 -0.0518
 1015MOL0     C36919   0.027  11.296   7.467  0.2969 -0.3325  0.2757
 1015MOL0     C36920  -0.120  11.313   7.492 -0.1545  0.7390  0.0293
 1015MOL0     O36921  -0.184  11.384   7.389  0.1128  0.6744 -0.2170
 1015MOL0     C36922  -0.316  11.402   7.424 -0.7863  0.5591  0.4126
 1015MOL0     C36923  -0.345  11.528   7.486 -0.3366 -0.2246  0.3948
 1015MOL0     C36924  -0.480  11.547   7.522  0.5317  0.4357 -0.3694
 1015MOL0     C36925  -0.582  11.451   7.490  0.4260 -0.3302 -0.3988
 1015MOL0     O36926  -0.712  11.482   7.521  0.1431  0.3075 -0.3260
 1015MOL0     C36927  -0.815  11.410   7.435 -1.1914 -0.3835 -0.5365
 1015MOL0     C36928  -0.962  11.453   7.471 -0.0707  0.2290 -0.7719
 1015MOL0     C36929  -1.009  11.385   7.608  0.8563 -0.2783 -0.4630
 1015MOL0     C36930  -1.136  11.455   7.661  0.5108 -1.0442  0.8456
 1015MOL0     C36931  -1.202  11.387   7.783  0.2603 -0.5327 -0.4502
 1015MOL0     C36932  -1.328  11.475   7.836 -0.9731 -0.3211  0.7594
 1015MOL0     C36933  -1.373  11.419   7.963 -0.2673 -0.5686  0.6547
 1015MOL0     C36934  -1.506  11.494   8.008 -0.1398 -0.2544  0.8606
 1015MOL0    Cl36935  -1.655  11.421   7.919 -0.2312 -0.2536 -0.5848
 1015MOL0     C36936  -0.543  11.327   7.441 -0.3564  0.2539 -0.2226
 1015MOL0     C36937  -0.413  11.292   7.409 -0.3234  0.2411  0.5120
 1015MOL0     O36938  -0.163  11.274   7.600  1.4030  0.0336 -0.6458
 1015MOL0     C36939   0.077  11.263   7.342 -1.1095  1.1350 -0.5319
 1015MOL0     C36940   0.219  11.237   7.331 -0.1943  0.5612  0.4326
 1015MOL0     N36941   0.991  11.063   7.766  0.2810  0.6266  0.4906
 1015MOL0     N36942   1.089  10.999   7.825  0.8716 -0.5578 -0.3421
 1015MOL0     C36943   2.241  10.797   7.902 -0.5537  0.7071  0.8992
 1015MOL0     C36944   2.376  10.830   7.925  0.2711 -0.2134 -0.1204
 1015MOL0     C36945   2.774  10.865   8.168 -0.1136  0.5524  0.1138
 1015MOL0     C36946   2.880  10.799   8.224 -0.3427  1.0151  0.3296
 1015MOL0     C36947   3.007  10.847   8.217 -0.5099 -0.1013 -0.5225
 1015MOL0     C36948   3.034  10.972   8.155  0.1005 -0.6582 -0.1202
 1015MOL0     O36949   3.153  11.032   8.144 -0.1059 -0.2247  0.3962
 1015MOL0     C36950   3.225  10.977   8.028 -0.2835 -1.1102  0.1393
 1015MOL0     C36951   3.329  11.084   7.996  0.8077 -0.2243 -0.3091
 1015MOL0     C36952   3.418  11.037   7.884  0.6063 -0.1685  0.2518
 1015MOL0     C36953   3.535  10.952   7.940  0.5830 -0.2550  0.3662
 1015MOL0     C36954   3.640  11.033   8.001 -0.2680  0.1866 -0.1554
 1015MOL0     C36955   3.726  11.094   8.053  1.6274  0.2881 -0.0258
 1015MOL0     C36956   2.920  11.049   8.108  0.0710 -1.0854 -0.5130
 1015MOL0     C36957   2.790  10.997   8.120 -1.3152 -0.5641  0.0242
 1015MOL0     H36958   2.376  10.729   8.252 -0.5575 -4.0921 -0.5633
 1015MOL0     H36959   2.153  10.664   8.200 -2.1704  2.4515  0.9605
 1015MOL0     H36960   1.910  10.552   7.918  1.6668 -0.3080 -0.7578
 1015MOL0     H36961   2.049  10.524   8.030 -1.6696 -0.4034  2.2930
 1015MOL0     H36962   1.848  10.558   8.173  1.4678 -0.8943 -0.4554
 1015MOL0     H36963   1.926  10.714   8.177 -0.6804 -1.5308  2.8218
 1015MOL0     H36964   1.720  10.779   8.136  0.5127  0.7018 -0.3913
 1015MOL0     H36965   1.793  10.785   7.980 -0.3925 -0.0125 -0.1057
 1015MOL0     H36966   1.661  10.587   7.906  0.4959  1.3189  0.0357
 1015MOL0     H36967   1.626  10.544   8.065  0.5068 -1.3450 -2.2918
 1015MOL0     H36968   1.426  10.636   7.973  1.8701 -2.1634 -0.0332
 1015MOL0     H36969   1.479  10.762   8.091 -1.0897 -0.3780 -0.1188
 1015MOL0     H36970   1.553  10.907   7.939  0.1349 -0.2662  0.6795
 1015MOL0     H36971   1.551  10.799   7.806 -2.2684 -0.6475 -1.2566
 1015MOL0     H36972   1.284  10.788   7.916 -0.1142 -1.0858 -2.8344
 1015MOL0     H36973   1.344  10.955   7.944 -1.9573 -0.1386 -1.4039
 1015MOL0     H36974   1.311  10.811   7.676 -0.4755  0.3801 -0.4929
 1015MOL0     H36975   1.372  10.977   7.694 -2.6918  3.5067  2.1459
 1015MOL0     H36976   1.187  11.022   7.514 -0.8617  2.0964 -2.2537
 1015MOL0     H36977   0.968  11.261   7.523  2.1951 -0.7279  0.9636
 1015MOL0     H36978   0.931  11.099   7.445 -1.5241 -1.1892  0.7294
 1015MOL0     H36979   0.765  11.236   7.659  1.8921 -0.1319 -0.1308
 1015MOL0     H36980   0.743  11.062   7.626 -3.1793  1.7630  2.6361
 1015MOL0     H36981   0.686  11.115   7.394 -0.0486 -0.1875 -0.7788
 1015MOL0     H36982   0.711  11.296   7.423 -0.4094  1.3133  0.2692
 1015MOL0     H36983   0.530  11.294   7.581  1.0978 -1.0394  1.3806
 1015MOL0     H36984   0.523  11.116   7.578 -0.1372 -1.4062 -2.8058
 1015MOL0     H36985   0.328  11.298   7.638  0.5851  1.1276  0.1131
 1015MOL0     H36986   0.008  11.290   7.771 -1.3238  1.6167  0.8529
 1015MOL0     H36987   0.160  11.355   7.795 -1.5656  1.5825  1.2752
 1015MOL0     H36988   0.039  11.454   7.710 -2.8306 -1.3038 -3.4556
 1015MOL0     H36989  -0.279  11.610   7.511 -0.5654  0.2345 -0.4886
 1015MOL0     H36990  -0.517  11.639   7.567 -2.9999 -0.2560 -1.5082
 1015MOL0     H36991  -0.796  11.435   7.330  2.7154 -0.0406  0.1151
 1015MOL0     H36992  -0.804  11.302   7.447 -0.3256 -0.1244  1.2801
 1015MOL0     H36993  -0.959  11.563   7.477  0.5138  0.2128 -0.6959
 1015MOL0     H36994  -1.032  11.420   7.395 -0.1427 -1.6621  0.0690
 1015MOL0     H36995  -0.925  11.386   7.678  0.6586  2.1420 -0.1820
 1015MOL0     H36996  -1.049  11.283   7.600 -2.1113  0.7652 -0.1269
 1015MOL0     H36997  -1.114  11.561   7.677  0.4914  0.2404 -5.2185
 1015MOL0     H36998  -1.217  11.459   7.587  1.9702 -0.0269 -0.7753
 1015MOL0     H36999  -1.128  11.395   7.863 -2.3220  2.1203  1.9396
 1015MOL0     H37000  -1.234  11.283   7.769 -1.1260 -0.4243  1.4038
 1015MOL0     H37001  -1.298  11.580   7.837 -0.6094 -0.4255  1.2924
 1015MOL0     H37002  -1.404  11.459   7.759 -0.2170 -2.0844  0.3231
 1015MOL0     H37003  -1.297  11.432   8.040  0.3468 -2.4484  0.3961
 1015MOL0     H37004  -1.386  11.311   7.956  1.4838 -0.8186  0.7934
 1015MOL0     H37005  -1.493  11.602   7.994 -0.9858  0.0085  1.9424
 1015MOL0     H37006  -1.523  11.485   8.115  0.0306 -1.7469  0.7848
 1015MOL0     H37007  -0.606  11.239   7.440 -0.3294  0.2336 -0.1060
 1015MOL0     H37008  -0.396  11.189   7.380  1.6185  1.4293 -3.3228
 1015MOL0     H37009   0.017  11.233   7.257 -1.7799 -3.6118  1.3009
 1015MOL0     H37010   0.273  11.205   7.242  2.1604  0.2839  1.8735
 1015MOL0     H37011   2.204  10.805   7.801  0.5683 -1.4721  0.2488
 1015MOL0     H37012   2.440  10.874   7.849  4.6735 -2.1539  2.1503
 1015MOL0     H37013   2.856  10.702   8.268  1.1905  0.3888 -0.1219
 1015MOL0     H37014   3.099  10.798   8.245  0.6518  2.2288 -0.0290
 1015MOL0     H37015   3.262  10.883   8.071 -0.6228 -1.3392 -0.0662
 1015MOL0     H37016   3.156  10.955   7.946  0.8944 -1.7042 -0.7191
 1015MOL0     H37017   3.377  11.119   8.087 -2.3287  3.3455  0.2565
 1015MOL0     H37018   3.279  11.174   7.958 -0.1018 -0.7871 -0.4879
 1015MOL0     H37019   3.455  11.125   7.832 -0.6977 -0.4761 -1.2880
 1015MOL0     H37020   3.363  10.973   7.814  1.3063 -0.8079  0.2727
 1015MOL0     H37021   3.573  10.892   7.857 -1.1870 -3.5957  1.7837
 1015MOL0     H37022   3.515  10.878   8.018  0.4409 -1.2581 -0.6003
 1015MOL0     H37023   3.809  11.142   8.099  2.3035 -0.5974 -0.2867
 1015MOL0     H37024   2.938  11.149   8.070 -2.1936 -0.8182 -1.0304
 1015MOL0     H37025   2.712  11.056   8.073  0.6942  0.9233 -1.6514
 1016MOL0     O37026   9.158  10.878   5.593  0.1567 -0.8630  1.1192
 1016MOL0     C37027   9.197  10.767   5.605  0.8714  0.5721  0.0935
 1016MOL0     O37028   9.321  10.726   5.648 -0.2555  0.1375  0.0612
 1016MOL0     C37029   9.424  10.822   5.661  0.2545 -0.7907 -1.0028
 1016MOL0     C37030   9.554  10.791   5.621 -1.6879  0.8437 -0.0826
 1016MOL0     C37031   9.663  10.879   5.640 -0.1522  0.0690 -0.8410
 1016MOL0     C37032   9.646  11.001   5.709  0.3875  0.8651  0.0651
 1016MOL0     O37033   9.743  11.089   5.743 -0.2524 -0.6526  0.9317
 1016MOL0     C37034   9.862  11.075   5.671 -0.8174 -0.0127  0.6548
 1016MOL0     C37035   9.943  11.204   5.670  0.0228 -0.2620  0.0483
 1016MOL0     C37036   9.977  11.269   5.806 -0.2115 -0.1425  0.4185
 1016MOL0     C37037  10.081  11.181   5.870  0.0966  0.7800 -0.6591
 1016MOL0     C37038  10.128  11.223   6.004  0.0100  0.6909  0.6986
 1016MOL0     C37039  10.262  11.150   6.049  0.3829 -0.1682  0.3470
 1016MOL0     C37040  10.314  11.224   6.178 -0.4493  0.0336  0.0212
 1016MOL0     C37041  10.247  11.178   6.310  0.6753  0.0458  0.5074
 1016MOL0     N37042  10.292  11.045   6.329  0.3348 -0.8480 -0.2497
 1016MOL0     C37043  10.424  11.010   6.350  0.3119 -0.0378 -0.7514
 1016MOL0     C37044  10.419  10.878   6.385 -0.0970 -0.1098 -0.1192
 1016MOL0     C37045  10.532  10.785   6.419  0.0711 -0.1714 -0.2287
 1016MOL0     C37046  10.672  10.838   6.377  0.1228  0.6751  0.1387
 1016MOL0     C37047  10.687  10.851   6.224  0.1297 -0.2199 -0.0893
 1016MOL0     C37048  10.825  10.916   6.190 -0.0513  0.4072 -0.4926
 1016MOL0     O37049  10.814  11.055   6.210 -0.1426  0.0472 -0.0609
 1016MOL0     C37050  10.745  11.138   6.127  0.9569  0.5272 -0.8118
 1016MOL0     C37051  10.681  11.102   6.005  0.8003  0.1975 -0.8249
 1016MOL0     C37052  10.609  11.206   5.938  0.2820 -1.7049 -0.1293
 1016MOL0     C37053  10.548  11.156   5.805 -0.7096 -0.1431 -0.1708
 1016MOL0     C37054  10.594  11.336   5.984 -0.8936 -0.7521  0.3573
 1016MOL0     C37055  10.517  11.449   5.923  0.8499 -0.5815  0.1830
 1016MOL0     O37056  10.407  11.418   5.855  0.0688  0.8793 -0.1798
 1016MOL0     C37057  10.343  11.513   5.775  0.1430  0.4649 -0.0334
 1016MOL0     C37058  10.301  11.630   5.831 -0.0049 -1.0761  0.3017
 1016MOL0     C37059  10.218  11.711   5.756  0.0228 -0.1952  0.6571
 1016MOL0     C37060  10.165  11.683   5.626  0.9667  0.2790 -0.3507
 1016MOL0     O37061  10.093  11.773   5.554  0.5713 -0.2197 -0.1054
 1016MOL0     C37062  10.180  11.865   5.483  0.2315  0.3151  0.3468
 1016MOL0     C37063  10.082  11.971   5.431 -0.5487  0.2746  0.6193
 1016MOL0     C37064  10.158  12.086   5.367 -0.5242  0.2365  0.3335
 1016MOL0     C37065  10.214  12.042   5.223 -0.6587 -0.6766 -0.1518
 1016MOL0     C37066  10.278  12.155   5.152  0.6357 -1.0218  0.6561
 1016MOL0     C37067  10.432  12.159   5.163  0.3804  0.2344 -1.4303
 1016MOL0     C37068  10.475  12.296   5.082  0.2226  0.8919 -0.2983
 1016MOL0     C37069  10.627  12.312   5.070  0.1749 -0.8123 -0.1672
 1016MOL0    Cl37070  10.704  12.156   5.018  0.1180  0.3563 -0.1242
 1016MOL0     C37071  10.197  11.553   5.573 -0.5177 -0.7955  1.1497
 1016MOL0     C37072  10.294  11.479   5.643 -0.5912 -0.6535  0.6524
 1016MOL0     O37073  10.566  11.562   5.923 -0.2946  0.1138  0.4323
 1016MOL0     C37074  10.652  11.368   6.108 -0.5223  0.4030  0.3461
 1016MOL0     C37075  10.722  11.269   6.174  0.7196 -0.3012  0.0573
 1016MOL0     N37076  10.285  10.839   6.378 -0.7905  1.0190  0.5327
 1016MOL0     N37077  10.211  10.937   6.339  0.1762  0.9951 -0.8991
 1016MOL0     C37078   9.518  11.024   5.757  0.1927 -0.6137  0.0011
 1016MOL0     C37079   9.409  10.938   5.738 -0.1452  0.9256  1.1780
 1016MOL0     C37080   9.088  10.662   5.597  0.4316 -0.1082 -0.7348
 1016MOL0     C37081   9.118  10.520   5.616 -0.1030  0.2765 -0.9474
 1016MOL0     C37082   9.017  10.426   5.621  0.2467  0.1011  0.1903
 1016MOL0     C37083   8.883  10.464   5.613 -0.5614 -1.2305  0.1218
 1016MOL0     O37084   8.777  10.371   5.634  0.2440  0.7552 -0.5420
 1016MOL0     C37085   8.797  10.252   5.714  0.5248 -0.0847  0.1885
 1016MOL0     C37086   8.832  10.124   5.635 -0.6587 -0.2671 -0.0491
 1016MOL0     C37087   8.884  10.013   5.732  0.4226 -0.7872  0.2832
 1016MOL0     C37088   8.777   9.933   5.801  0.2793  0.8805 -0.4089
 1016MOL0     C37089   8.702   9.995   5.912 -0.8163  0.5117 -0.1769
 1016MOL0     C37090   8.617  10.030   6.000 -0.1579  0.1123  0.1410
 1016MOL0     C37091   8.851  10.598   5.580  0.4374  0.4660 -0.1494
 1016MOL0     C37092   8.952  10.691   5.580  0.3773  0.2480  0.0817
 1016MOL0     H37093   9.565  10.692   5.577  2.4863  0.9370  0.3047
 1016MOL0     H37094   9.762  10.848   5.611  1.2967  1.4172  2.2785
 1016MOL0     H37095   9.926  11.002   5.720 -0.8637  0.0379  0.7929
 1016MOL0     H37096   9.847  11.039   5.568 -0.1062 -3.5606  1.6665
 1016MOL0     H37097  10.030  11.198   5.604 -0.1704  0.9194 -0.3489
 1016MOL0     H37098   9.882  11.270   5.607  0.5307  0.7834  0.6177
 1016MOL0     H37099  10.023  11.364   5.779 -0.1140 -0.4112 -0.4044
 1016MOL0     H37100   9.894  11.287   5.875 -1.0011 -1.0122 -0.2629
 1016MOL0     H37101  10.042  11.079   5.872 -0.3514  0.9046 -2.0396
 1016MOL0     H37102  10.172  11.177   5.810 -0.3862 -0.2464 -1.3625
 1016MOL0     H37103  10.145  11.330   5.993  0.9650  0.6591  1.7134
 1016MOL0     H37104  10.050  11.209   6.079  0.2932  0.8852  1.0273
 1016MOL0     H37105  10.256  11.041   6.057  3.5779 -1.0412 -4.6260
 1016MOL0     H37106  10.334  11.176   5.971 -0.9460  2.0125 -0.2413
 1016MOL0     H37107  10.423  11.212   6.176 -0.3591 -1.1000 -5.4522
 1016MOL0     H37108  10.305  11.332   6.164  1.7183 -0.1013 -4.1855
 1016MOL0     H37109  10.140  11.188   6.289  0.8445 -2.1032 -1.9494
 1016MOL0     H37110  10.268  11.242   6.395  0.1613  0.3948  0.3780
 1016MOL0     H37111  10.499  11.088   6.360  0.3583 -0.2638  1.0299
 1016MOL0     H37112  10.530  10.755   6.524 -0.1440 -1.0137 -0.4665
 1016MOL0     H37113  10.511  10.688   6.372 -0.8723  0.1691 -0.5304
 1016MOL0     H37114  10.751  10.782   6.427 -2.1354  0.1254  3.4035
 1016MOL0     H37115  10.693  10.943   6.396  3.5729  0.9181 -3.5859
 1016MOL0     H37116  10.613  10.922   6.186  0.3621  0.6145  0.9691
 1016MOL0     H37117  10.676  10.755   6.172 -0.1764  0.2566 -0.9144
 1016MOL0     H37118  10.835  10.898   6.082  2.2548  0.8250 -0.3920
 1016MOL0     H37119  10.898  10.854   6.242 -1.0104  0.0740  0.5045
 1016MOL0     H37120  10.695  11.001   5.968 -2.2579 -1.1516  1.3252
 1016MOL0     H37121  10.569  11.049   5.788  0.3664 -0.1734  1.1279
 1016MOL0     H37122  10.442  11.179   5.801 -0.2291  2.3772 -0.2082
 1016MOL0     H37123  10.593  11.209   5.721 -2.8483  1.4514 -0.3750
 1016MOL0     H37124  10.322  11.664   5.932  1.2273 -1.1980  0.1073
 1016MOL0     H37125  10.191  11.808   5.796 -1.4238 -0.7319  1.0560
 1016MOL0     H37126  10.264  11.908   5.539  2.0815 -0.5928 -1.5626
 1016MOL0     H37127  10.234  11.820   5.398  0.7781 -0.9140  1.3166
 1016MOL0     H37128  10.018  11.919   5.359 -1.5409  2.1021  0.1234
 1016MOL0     H37129  10.011  11.992   5.511 -1.5555 -0.6225 -0.0115
 1016MOL0     H37130  10.238  12.126   5.430 -0.6799  1.2526 -0.0920
 1016MOL0     H37131  10.097  12.177   5.363  3.7826  3.4641  0.8079
 1016MOL0     H37132  10.283  11.957   5.230 -1.3631 -1.3529 -1.1667
 1016MOL0     H37133  10.130  12.003   5.166  1.5625 -2.8110 -2.2422
 1016MOL0     H37134  10.229  12.247   5.185 -0.7680 -1.3924 -0.3204
 1016MOL0     H37135  10.245  12.157   5.047  0.9013  0.2483  0.5759
 1016MOL0     H37136  10.456  12.158   5.270 -3.3607  0.6330 -0.4613
 1016MOL0     H37137  10.476  12.065   5.127  0.7433  0.6537 -2.1075
 1016MOL0     H37138  10.431  12.381   5.134  2.5282  2.2382 -0.4065
 1016MOL0     H37139  10.434  12.297   4.981  1.3415  2.2826 -0.7722
 1016MOL0     H37140  10.663  12.355   5.164 -0.4655  1.9861 -1.1128
 1016MOL0     H37141  10.645  12.382   4.988 -0.0639 -0.5142  0.0280
 1016MOL0     H37142  10.150  11.524   5.480  1.0408  1.3896 -0.4173
 1016MOL0     H37143  10.319  11.380   5.608  1.2857 -0.2085  0.6184
 1016MOL0     H37144  10.635  11.462   6.160 -3.0169  0.1886  0.0629
 1016MOL0     H37145  10.776  11.311   6.258 -0.1525  3.7807 -1.2123
 1016MOL0     H37146   9.505  11.117   5.810  1.6383  0.8754 -2.1043
 1016MOL0     H37147   9.315  10.966   5.786 -0.3901  1.1979  0.5472
 1016MOL0     H37148   9.216  10.483   5.645 -1.1507 -1.0622  1.1532
 1016MOL0     H37149   9.046  10.332   5.666  1.7217  0.4659  0.0664
 1016MOL0     H37150   8.882  10.270   5.780  1.6672 -0.2322 -1.1944
 1016MOL0     H37151   8.713  10.224   5.778 -0.5743 -1.9484 -1.9204
 1016MOL0     H37152   8.910  10.142   5.561 -1.3949  0.8556 -0.5715
 1016MOL0     H37153   8.743  10.090   5.583 -0.6921 -3.1734  1.6843
 1016MOL0     H37154   8.952  10.064   5.801  0.1736 -1.6691  1.2112
 1016MOL0     H37155   8.941   9.938   5.678  0.9488 -2.2158  2.6670
 1016MOL0     H37156   8.830   9.856   5.858  1.9662  1.5277 -1.0264
 1016MOL0     H37157   8.707   9.893   5.727 -0.4783  2.2923 -0.4885
 1016MOL0     H37158   8.555  10.067   6.079 -1.1289  2.5904 -1.6493
 1016MOL0     H37159   8.747  10.626   5.564 -0.6540 -3.5822 -1.3751
 1016MOL0     H37160   8.938  10.799   5.576  0.1835  0.2071 -0.4264
 1017MOL0     O37161   3.862   8.431   7.316  0.3194 -0.1800 -0.6065
 1017MOL0     C37162   3.892   8.397   7.433  0.5718 -0.7028 -0.3332
 1017MOL0     O37163   3.795   8.376   7.533 -0.4769  0.3661 -0.2667
 1017MOL0     C37164   3.667   8.398   7.490 -0.4304 -0.0606  0.3904
 1017MOL0     C37165   3.604   8.522   7.533  0.1926 -0.1887 -0.4132
 1017MOL0     C37166   3.479   8.565   7.488 -0.0016 -0.3034 -0.2670
 1017MOL0     C37167   3.409   8.466   7.419 -0.1949 -0.0655 -1.0093
 1017MOL0     O37168   3.308   8.505   7.339 -0.3004 -1.0116  0.0522
 1017MOL0     C37169   3.193   8.424   7.316 -0.3866 -0.6240 -0.2119
 1017MOL0     C37170   3.098   8.518   7.251 -0.5507  0.0267  0.9683
 1017MOL0     C37171   2.958   8.466   7.227 -0.9478 -0.5549 -0.5380
 1017MOL0     C37172   2.876   8.588   7.189  0.4729  0.3572  0.2555
 1017MOL0     C37173   2.728   8.560   7.179 -1.1765  0.0913 -0.4758
 1017MOL0     C37174   2.667   8.692   7.164 -0.6973 -0.2259  0.1129
 1017MOL0     C37175   2.518   8.682   7.187  0.3448 -0.7334 -0.2491
 1017MOL0     C37176   2.430   8.601   7.091 -0.0700 -0.6374  0.5150
 1017MOL0     N37177   2.285   8.626   7.100 -0.1229  0.5837 -0.0491
 1017MOL0     C37178   2.210   8.613   7.213 -0.3584 -0.8155  0.0398
 1017MOL0     C37179   2.082   8.643   7.175  0.2971 -0.2925 -0.3462
 1017MOL0     C37180   1.956   8.619   7.253  0.5769 -0.0940 -0.6660
 1017MOL0     C37181   1.955   8.465   7.269 -0.0419 -0.3225  0.3444
 1017MOL0     C37182   1.842   8.431   7.377 -0.4306  0.0316 -0.4458
 1017MOL0     C37183   1.790   8.288   7.388 -0.9284 -0.6588 -0.4938
 1017MOL0     O37184   1.714   8.238   7.273 -0.4376  0.3730 -0.7696
 1017MOL0     C37185   1.597   8.313   7.252  0.8258 -0.3113  1.0610
 1017MOL0     C37186   1.556   8.324   7.114 -0.7015  0.5406  0.1255
 1017MOL0     C37187   1.437   8.386   7.073 -0.2520 -0.4383 -0.3937
 1017MOL0     C37188   1.417   8.408   6.923 -0.6464  0.4240 -0.2187
 1017MOL0     C37189   1.353   8.445   7.172 -0.2147 -0.0858 -0.0146
 1017MOL0     C37190   1.228   8.530   7.145 -0.3648 -0.2101  0.1430
 1017MOL0     O37191   1.168   8.579   7.254 -0.0534  0.1735 -1.1931
 1017MOL0     C37192   1.072   8.668   7.240  0.5923 -0.1258 -0.1210
 1017MOL0     C37193   0.946   8.649   7.168 -0.2043 -1.1841  0.7202
 1017MOL0     C37194   0.851   8.756   7.157  0.1519 -0.3977 -0.0708
 1017MOL0     C37195   0.874   8.881   7.221 -0.2444 -0.0730  1.0759
 1017MOL0     O37196   0.786   8.986   7.216  0.1361  0.4247  0.1224
 1017MOL0     C37197   0.651   8.968   7.168 -0.7639 -0.5845 -0.5256
 1017MOL0     C37198   0.567   9.099   7.185  0.6811 -0.0406 -0.5651
 1017MOL0     C37199   0.423   9.065   7.144 -0.2375 -0.1739  0.4063
 1017MOL0     C37200   0.318   9.159   7.186 -0.2111 -0.2522 -0.5459
 1017MOL0     C37201   0.197   9.143   7.090  0.7935 -0.4822 -0.8497
 1017MOL0     C37202   0.069   9.227   7.129  1.1906  0.0355 -0.6690
 1017MOL0     C37203  -0.054   9.173   7.049 -0.6697 -0.5262 -0.6611
 1017MOL0     C37204  -0.179   9.238   7.096  0.8782 -0.0288  1.4915
 1017MOL0    Cl37205  -0.304   9.137   7.024  0.1907  0.3349 -0.3880
 1017MOL0     C37206   0.988   8.896   7.296  0.8457  0.8545  0.4783
 1017MOL0     C37207   1.083   8.799   7.296 -0.1098 -0.4128 -0.6894
 1017MOL0     O37208   1.183   8.532   7.033  0.1174 -0.0424  0.2516
 1017MOL0     C37209   1.403   8.449   7.308  0.4987 -0.2875  0.6826
 1017MOL0     C37210   1.518   8.379   7.346 -0.3552  0.5649  0.1716
 1017MOL0     N37211   2.092   8.684   7.045  0.2508 -0.7456 -0.0987
 1017MOL0     N37212   2.212   8.680   7.003 -0.1462 -0.0033  0.3442
 1017MOL0     C37213   3.460   8.335   7.391 -0.9186  0.2210  0.5592
 1017MOL0     C37214   3.594   8.301   7.423  0.6588 -0.2748 -0.4978
 1017MOL0     C37215   4.030   8.363   7.440 -0.6149  1.0770 -0.9836
 1017MOL0     C37216   4.113   8.360   7.322 -0.1757  0.8135 -0.1412
 1017MOL0     C37217   4.243   8.311   7.328  0.2417  0.2690  0.8474
 1017MOL0     C37218   4.301   8.272   7.455  0.3702 -0.8484  0.4169
 1017MOL0     O37219   4.437   8.231   7.473 -0.4376 -0.4356  0.1771
 1017MOL0     C37220   4.531   8.233   7.363  0.6565 -0.1008  0.8012
 1017MOL0     C37221   4.664   8.198   7.434 -0.1856  0.1885  0.1856
 1017MOL0     C37222   4.782   8.173   7.336 -0.6350 -0.8255  0.2080
 1017MOL0     C37223   4.818   8.285   7.239  0.4439  0.7322  0.3369
 1017MOL0     C37224   4.855   8.417   7.294 -0.6265  0.5118  0.3714
 1017MOL0     C37225   4.889   8.525   7.332 -0.2426  0.6742 -0.1463
 1017MOL0     C37226   4.223   8.283   7.566 -0.3329 -0.8816  0.3973
 1017MOL0     C37227   4.088   8.324   7.566 -0.4252 -0.2026  0.0038
 1017MOL0     H37228   3.656   8.594   7.595 -1.6018  0.6077  0.2389
 1017MOL0     H37229   3.445   8.667   7.503 -3.0806 -1.5231  2.1685
 1017MOL0     H37230   3.213   8.344   7.245  0.5317  1.3209 -2.2629
 1017MOL0     H37231   3.149   8.389   7.410 -1.3512  3.4781  1.0840
 1017MOL0     H37232   3.095   8.612   7.308 -2.3350  0.8744 -0.4289
 1017MOL0     H37233   3.138   8.541   7.152 -2.1994  1.0397  0.4992
 1017MOL0     H37234   2.959   8.395   7.143  1.9262 -1.3033  0.0043
 1017MOL0     H37235   2.915   8.420   7.317 -2.4799  2.1175  0.1763
 1017MOL0     H37236   2.891   8.669   7.261 -2.3507  1.4764 -0.2992
 1017MOL0     H37237   2.912   8.624   7.093  0.9052  1.4160  0.7976
 1017MOL0     H37238   2.704   8.493   7.096  1.2073 -3.0297  1.1372
 1017MOL0     H37239   2.697   8.511   7.272 -0.3859  1.1220  0.3629
 1017MOL0     H37240   2.694   8.759   7.246 -2.7891  1.5015 -0.5241
 1017MOL0     H37241   2.684   8.740   7.067 -2.1826  2.4228  1.0588
 1017MOL0     H37242   2.499   8.652   7.291 -1.3706 -1.5111 -0.7556
 1017MOL0     H37243   2.484   8.784   7.167  2.7921  0.3863  0.9999
 1017MOL0     H37244   2.444   8.492   7.098  1.6519 -0.5267 -0.6016
 1017MOL0     H37245   2.469   8.619   6.991  0.3270 -0.8880  0.6206
 1017MOL0     H37246   2.238   8.580   7.312  0.4388  1.4266  0.6406
 1017MOL0     H37247   1.965   8.671   7.349  1.4990  0.3761 -0.9957
 1017MOL0     H37248   1.868   8.654   7.197  1.5962 -0.0740 -2.3150
 1017MOL0     H37249   2.054   8.417   7.280  1.2583  1.9505 -0.7509
 1017MOL0     H37250   1.925   8.439   7.167  1.5737  0.6222 -0.4133
 1017MOL0     H37251   1.755   8.497   7.377 -1.2768 -0.9566  2.2787
 1017MOL0     H37252   1.884   8.452   7.476  0.1589 -1.4944 -0.3511
 1017MOL0     H37253   1.731   8.266   7.478 -0.5945 -2.5242 -0.6770
 1017MOL0     H37254   1.884   8.234   7.406 -0.2777  0.5351 -0.2182
 1017MOL0     H37255   1.622   8.284   7.038 -0.6806  2.1066 -0.7120
 1017MOL0     H37256   1.420   8.516   6.907 -1.9459  1.1577  3.4698
 1017MOL0     H37257   1.505   8.369   6.872 -0.6698  1.5003 -1.1152
 1017MOL0     H37258   1.327   8.360   6.884 -0.9953  0.4654  0.5068
 1017MOL0     H37259   0.919   8.562   7.109  1.4586  0.4270 -2.7451
 1017MOL0     H37260   0.759   8.743   7.101 -0.3148 -0.9882  0.8033
 1017MOL0     H37261   0.656   8.939   7.062 -1.2625 -0.7252 -0.5109
 1017MOL0     H37262   0.597   8.892   7.225  0.2031 -0.2445  0.9117
 1017MOL0     H37263   0.578   9.144   7.284  0.7308  0.8153 -0.9439
 1017MOL0     H37264   0.604   9.179   7.119  2.7006 -0.3576  0.1179
 1017MOL0     H37265   0.384   8.971   7.183  0.0802 -0.4559  0.0453
 1017MOL0     H37266   0.430   9.069   7.035  1.8365  1.8015  0.5319
 1017MOL0     H37267   0.277   9.139   7.286  0.7147 -0.6418 -0.2346
 1017MOL0     H37268   0.346   9.265   7.181  0.6284 -0.4743 -0.5457
 1017MOL0     H37269   0.163   9.039   7.092 -0.9290  0.0587 -0.1139
 1017MOL0     H37270   0.209   9.166   6.984 -3.5169 -2.7131 -2.0328
 1017MOL0     H37271   0.060   9.214   7.237  1.9747  0.6160 -0.5244
 1017MOL0     H37272   0.078   9.336   7.117  2.0724  0.0832  0.3194
 1017MOL0     H37273  -0.070   9.065   7.049 -1.2948 -0.4648  0.7977
 1017MOL0     H37274  -0.051   9.206   6.945 -2.4165 -1.3586 -1.0041
 1017MOL0     H37275  -0.185   9.341   7.059 -0.7099 -0.4829  0.3760
 1017MOL0     H37276  -0.196   9.234   7.204 -1.7103  0.1326  1.1567
 1017MOL0     H37277   1.002   8.997   7.332  3.5456  0.5114  0.5993
 1017MOL0     H37278   1.174   8.820   7.351 -2.0794  3.1013  1.6529
 1017MOL0     H37279   1.351   8.511   7.380 -0.3680 -0.1182 -0.0731
 1017MOL0     H37280   1.562   8.388   7.445  0.9228 -1.8166 -0.0830
 1017MOL0     H37281   3.402   8.268   7.329 -0.3665 -0.1255  0.4188
 1017MOL0     H37282   3.640   8.209   7.389  1.7923  0.7889 -2.0117
 1017MOL0     H37283   4.080   8.392   7.223  0.0007  0.3351 -0.3556
 1017MOL0     H37284   4.305   8.297   7.239 -0.5443 -3.2049  0.7291
 1017MOL0     H37285   4.504   8.164   7.283 -0.0638 -0.8025  1.6370
 1017MOL0     H37286   4.535   8.329   7.311  0.1146 -1.4957 -1.9848
 1017MOL0     H37287   4.655   8.100   7.480  1.3828  0.2353  0.6617
 1017MOL0     H37288   4.689   8.276   7.507  2.1388 -1.8263  1.7202
 1017MOL0     H37289   4.767   8.082   7.276  1.3135 -0.9754 -0.1153
 1017MOL0     H37290   4.875   8.159   7.391  0.8653 -2.5980 -2.5342
 1017MOL0     H37291   4.738   8.292   7.165  1.9658 -1.5989 -1.6614
 1017MOL0     H37292   4.898   8.245   7.177 -0.5473 -4.3506  1.8735
 1017MOL0     H37293   4.929   8.622   7.355  0.9825  0.2421 -0.4103
 1017MOL0     H37294   4.272   8.244   7.654 -2.2558 -1.0888  1.4274
 1017MOL0     H37295   4.024   8.332   7.654  0.5517  1.8838  0.5854
 1018MOL0     O37296   7.726   1.192   5.814 -0.4033  0.3294 -0.4277
 1018MOL0     C37297   7.763   1.297   5.867 -0.2983  0.3774 -0.3017
 1018MOL0     O37298   7.689   1.421   5.856  0.0943  0.2291  0.1093
 1018MOL0     C37299   7.591   1.418   5.757 -0.1003  0.4426  0.5229
 1018MOL0     C37300   7.626   1.402   5.626 -0.1066 -0.0591  0.3627
 1018MOL0     C37301   7.533   1.417   5.526  0.5452 -0.8587  0.2105
 1018MOL0     C37302   7.405   1.449   5.569  0.8127  0.5696  1.0170
 1018MOL0     O37303   7.296   1.453   5.482 -0.4408  0.4219 -0.3463
 1018MOL0     C37304   7.316   1.516   5.354  0.2361  0.5167  0.8384
 1018MOL0     C37305   7.206   1.620   5.327 -0.5111 -0.0596 -0.0361
 1018MOL0     C37306   7.066   1.557   5.322  0.4120  0.0081  0.7450
 1018MOL0     C37307   6.954   1.665   5.295 -0.1503  0.4079 -0.7820
 1018MOL0     C37308   6.818   1.628   5.357 -0.4214  0.2632 -0.1136
 1018MOL0     C37309   6.720   1.732   5.314 -0.3496  0.1385 -0.0800
 1018MOL0     C37310   6.574   1.701   5.347 -0.0551  0.3780 -0.0930
 1018MOL0     C37311   6.514   1.785   5.466 -0.4873  1.1055  0.0840
 1018MOL0     N37312   6.387   1.731   5.508  0.2374 -0.9623  0.8149
 1018MOL0     C37313   6.278   1.809   5.518 -0.2053 -0.1105 -0.1843
 1018MOL0     C37314   6.198   1.749   5.601 -0.0566 -0.1124 -0.5317
 1018MOL0     C37315   6.063   1.797   5.637  0.1659 -0.1454 -0.0313
 1018MOL0     C37316   5.952   1.715   5.578 -0.4975 -0.2558 -0.3312
 1018MOL0     C37317   5.816   1.753   5.633  0.2461 -0.2739  0.5805
 1018MOL0     C37318   5.780   1.704   5.772 -0.5327 -0.2692 -0.2544
 1018MOL0     O37319   5.643   1.731   5.800  0.2684  0.4605 -0.5220
 1018MOL0     C37320   5.544   1.639   5.764 -0.2195  0.5719 -0.6063
 1018MOL0     C37321   5.559   1.520   5.692  0.1474 -0.0828 -0.2705
 1018MOL0     C37322   5.452   1.442   5.655 -0.2342  0.2772 -0.4048
 1018MOL0     C37323   5.499   1.314   5.588 -0.2735 -0.1687 -0.2000
 1018MOL0     C37324   5.322   1.474   5.687  0.0914 -0.5927 -0.0444
 1018MOL0     C37325   5.196   1.407   5.631  0.3017 -0.1846 -0.2702
 1018MOL0     O37326   5.070   1.462   5.646  0.5295  0.1422  0.4973
 1018MOL0     C37327   4.950   1.403   5.603 -0.1312  0.2929 -0.4140
 1018MOL0     C37328   4.848   1.492   5.584 -0.8710 -0.1559  0.6099
 1018MOL0     C37329   4.721   1.450   5.534 -0.8812 -0.2524 -0.4808
 1018MOL0     C37330   4.697   1.314   5.501 -0.7988  0.6497  0.6388
 1018MOL0     O37331   4.571   1.274   5.451  0.1793 -0.6848  0.0997
 1018MOL0     C37332   4.534   1.142   5.491 -0.5451 -0.0033 -0.0890
 1018MOL0     C37333   4.387   1.146   5.500 -0.0974  0.8152 -0.7941
 1018MOL0     C37334   4.345   1.189   5.635 -0.6599  0.6737  0.5267
 1018MOL0     C37335   4.195   1.184   5.663 -0.3813 -0.6668  0.3401
 1018MOL0     C37336   4.157   1.219   5.798  0.2528 -0.3412 -0.4980
 1018MOL0     C37337   4.008   1.212   5.826  0.0176 -0.4136  0.5537
 1018MOL0     C37338   3.945   1.356   5.812  0.0848  0.2482 -0.8637
 1018MOL0     C37339   3.790   1.344   5.798  0.3389  0.3479 -0.1282
 1018MOL0    Cl37340   3.714   1.513   5.797 -0.0824  0.1105 -0.2348
 1018MOL0     C37341   4.802   1.218   5.524 -0.4454 -0.7196 -0.7501
 1018MOL0     C37342   4.927   1.267   5.575 -0.0418 -0.7642  0.2781
 1018MOL0     O37343   5.223   1.299   5.580  0.2814 -0.2667 -0.1763
 1018MOL0     C37344   5.304   1.600   5.753 -0.3123  0.2572  0.4803
 1018MOL0     C37345   5.412   1.678   5.799 -0.4233  0.1067  0.2249
 1018MOL0     N37346   6.242   1.624   5.627 -0.0304  0.6929  0.4246
 1018MOL0     N37347   6.360   1.618   5.576 -0.2128  0.2295  0.4823
 1018MOL0     C37348   7.370   1.468   5.703  0.6979  0.0154  0.5450
 1018MOL0     C37349   7.470   1.452   5.800  0.2931 -0.5276  0.8540
 1018MOL0     C37350   7.889   1.286   5.953 -0.2322 -0.1399  0.1001
 1018MOL0     C37351   7.963   1.164   5.955  0.5242 -0.4335  0.4723
 1018MOL0     C37352   8.082   1.153   6.030 -0.0931 -0.6751  0.4323
 1018MOL0     C37353   8.133   1.268   6.104 -0.3743  0.6427 -0.5443
 1018MOL0     O37354   8.252   1.249   6.179  0.6658  0.0308 -0.0946
 1018MOL0     C37355   8.297   1.359   6.258 -0.6888 -0.5314 -0.0336
 1018MOL0     C37356   8.453   1.335   6.296 -0.1363 -0.5258  0.6741
 1018MOL0     C37357   8.533   1.341   6.168 -0.1084 -0.4515  0.1965
 1018MOL0     C37358   8.683   1.312   6.195  0.4092  0.7151  0.6244
 1018MOL0     C37359   8.706   1.178   6.266 -0.0769 -0.5187 -0.5958
 1018MOL0     C37360   8.724   1.067   6.309  0.5257  0.0665  0.3706
 1018MOL0     C37361   8.049   1.384   6.101 -0.5234  0.4365  0.3420
 1018MOL0     C37362   7.935   1.394   6.021 -0.7286  0.0104 -0.6579
 1018MOL0     H37363   7.732   1.388   5.607  0.7237  2.9433  2.0858
 1018MOL0     H37364   7.557   1.401   5.421  0.1757  2.4295 -0.4893
 1018MOL0     H37365   7.417   1.557   5.349  1.6066 -2.7196 -0.7995
 1018MOL0     H37366   7.311   1.441   5.275 -0.9863  0.1836  1.2001
 1018MOL0     H37367   7.201   1.689   5.411 -0.4288 -1.8843  1.5392
 1018MOL0     H37368   7.225   1.672   5.233  0.1693 -1.3664 -0.6425
 1018MOL0     H37369   7.066   1.484   5.241  1.1896 -0.0182  0.7593
 1018MOL0     H37370   7.043   1.501   5.413 -2.5042 -1.8510 -0.9646
 1018MOL0     H37371   6.993   1.758   5.336  1.5411 -0.7079  0.2479
 1018MOL0     H37372   6.943   1.673   5.187  0.5684 -1.2146 -0.9995
 1018MOL0     H37373   6.787   1.528   5.326  1.5299 -0.3515 -0.2528
 1018MOL0     H37374   6.834   1.636   5.465  1.5968  0.6462 -0.3996
 1018MOL0     H37375   6.756   1.817   5.374 -0.0184 -2.1932  3.3522
 1018MOL0     H37376   6.732   1.757   5.209  0.1771  0.0283 -0.0518
 1018MOL0     H37377   6.522   1.721   5.252 -1.3860 -1.0688  0.2872
 1018MOL0     H37378   6.562   1.595   5.370 -1.6942  0.5344 -0.1158
 1018MOL0     H37379   6.505   1.893   5.451 -0.9487  1.5703  2.9735
 1018MOL0     H37380   6.582   1.773   5.551  0.2575 -1.0653 -0.7594
 1018MOL0     H37381   6.252   1.909   5.484 -3.6575 -1.2315 -1.3121
 1018MOL0     H37382   6.049   1.791   5.745  2.1927 -0.5216  0.2631
 1018MOL0     H37383   6.057   1.904   5.615  0.3500 -0.2071 -0.3790
 1018MOL0     H37384   5.970   1.607   5.583 -4.6284 -1.1550 -0.8208
 1018MOL0     H37385   5.953   1.740   5.472 -0.7978  0.4411 -0.1729
 1018MOL0     H37386   5.748   1.705   5.562 -2.0054  0.0644  2.4183
 1018MOL0     H37387   5.799   1.859   5.613 -0.7614 -1.0107 -3.4298
 1018MOL0     H37388   5.833   1.768   5.843 -1.5381 -1.9188  2.1292
 1018MOL0     H37389   5.818   1.602   5.779  2.9287  0.8694 -0.7247
 1018MOL0     H37390   5.662   1.495   5.668  0.0195  0.1856 -1.1767
 1018MOL0     H37391   5.606   1.328   5.573  0.2596  1.8818  3.9823
 1018MOL0     H37392   5.488   1.227   5.654  3.8052 -1.4141 -0.8899
 1018MOL0     H37393   5.454   1.314   5.488 -2.1489  2.6464  0.5122
 1018MOL0     H37394   4.858   1.600   5.590 -0.9994 -0.1315  0.4243
 1018MOL0     H37395   4.638   1.520   5.518 -1.0767 -0.5975 -1.0038
 1018MOL0     H37396   4.565   1.076   5.410 -0.2122  0.4291 -0.3167
 1018MOL0     H37397   4.573   1.108   5.587 -2.5035  1.8730  1.4818
 1018MOL0     H37398   4.345   1.219   5.430 -0.4773  1.5580  0.1847
 1018MOL0     H37399   4.332   1.054   5.482 -0.8646  0.4858  2.6395
 1018MOL0     H37400   4.384   1.286   5.665  0.3296 -0.1596  2.1219
 1018MOL0     H37401   4.394   1.119   5.704 -2.7602 -0.5221  0.8860
 1018MOL0     H37402   4.133   1.247   5.598 -2.8313 -1.6843  1.5450
 1018MOL0     H37403   4.163   1.081   5.646 -1.8315 -0.1478 -0.2270
 1018MOL0     H37404   4.207   1.315   5.812 -1.2576  0.6157 -1.3765
 1018MOL0     H37405   4.214   1.154   5.866  2.8657  0.8065 -1.4960
 1018MOL0     H37406   3.957   1.145   5.756  0.6352 -1.5946  1.2155
 1018MOL0     H37407   3.990   1.173   5.926  1.0152 -2.1806  0.0822
 1018MOL0     H37408   3.990   1.421   5.737  0.6058  3.3713  1.9380
 1018MOL0     H37409   3.960   1.411   5.905  0.6810 -0.6341 -0.4174
 1018MOL0     H37410   3.756   1.286   5.883  1.8879 -1.1977 -0.4964
 1018MOL0     H37411   3.776   1.282   5.709 -0.6658 -2.1760  1.6743
 1018MOL0     H37412   4.793   1.116   5.489 -1.7640 -1.6508  1.9920
 1018MOL0     H37413   5.004   1.191   5.585  1.2787  0.4393 -0.3093
 1018MOL0     H37414   5.199   1.629   5.755 -0.4254  0.3762 -2.3160
 1018MOL0     H37415   5.401   1.775   5.847  0.2075  0.2152  0.1471
 1018MOL0     H37416   7.269   1.482   5.739  1.0471 -1.5925  2.3340
 1018MOL0     H37417   7.450   1.467   5.905 -0.0728 -2.4164  1.0979
 1018MOL0     H37418   7.934   1.071   5.907  1.5418 -0.3115 -0.4298
 1018MOL0     H37419   8.133   1.058   6.025 -0.2679 -0.7486 -0.0093
 1018MOL0     H37420   8.296   1.453   6.202  1.4769 -0.5725 -0.2224
 1018MOL0     H37421   8.237   1.371   6.349  0.6480  0.8422  0.7051
 1018MOL0     H37422   8.461   1.234   6.339 -0.8670 -0.4171  1.0886
 1018MOL0     H37423   8.477   1.412   6.370 -2.4419  2.2638 -1.2605
 1018MOL0     H37424   8.501   1.424   6.105 -1.4256 -1.6726 -0.8043
 1018MOL0     H37425   8.507   1.250   6.113 -0.2545  0.2150 -0.8638
 1018MOL0     H37426   8.727   1.393   6.253  2.2495 -1.6243  2.7275
 1018MOL0     H37427   8.735   1.308   6.098  0.0466  1.1345  0.4106
 1018MOL0     H37428   8.739   0.965   6.339  2.4482  0.4892  1.0574
 1018MOL0     H37429   8.079   1.478   6.146 -1.0095 -0.9920  3.9852
 1018MOL0     H37430   7.892   1.493   6.019  2.3309  1.4829  0.5439
 1019MOL0     O37431   1.548   2.940   7.370 -0.3228 -0.2273  0.0351
 1019MOL0     C37432   1.522   3.050   7.417 -0.7407 -0.2254 -0.1976
 1019MOL0     O37433   1.402   3.104   7.443  0.1698  0.2274 -0.0880
 1019MOL0     C37434   1.281   3.040   7.425 -0.4494 -0.3974 -0.5568
 1019MOL0     C37435   1.250   2.899   7.412  0.0573 -0.5217  0.5109
 1019MOL0     C37436   1.122   2.858   7.394  0.3545 -0.5656  0.4921
 1019MOL0     C37437   1.017   2.944   7.381  0.1643 -0.1026 -0.3831
 1019MOL0     O37438   0.890   2.898   7.354 -0.6439 -0.2406 -0.1670
 1019MOL0     C37439   0.779   2.991   7.328  0.9026  0.2383  0.9187
 1019MOL0     C37440   0.667   2.895   7.314 -0.1331 -1.0511  0.4580
 1019MOL0     C37441   0.531   2.942   7.271 -0.0672  0.0147 -0.7062
 1019MOL0     C37442   0.489   3.070   7.343  1.4778 -0.1210  0.3170
 1019MOL0     C37443   0.334   3.113   7.333 -1.1364 -0.0091  0.1153
 1019MOL0     C37444   0.281   3.127   7.191 -0.7425 -0.1601 -0.0474
 1019MOL0     C37445   0.132   3.166   7.191 -0.1021 -0.3558  0.7195
 1019MOL0     C37446   0.083   3.179   7.048  0.4623 -0.2666 -0.1048
 1019MOL0     N37447  -0.063   3.175   7.037  0.1032 -0.6560 -0.0068
 1019MOL0     C37448  -0.153   3.115   7.124  0.6760 -0.2246  0.5914
 1019MOL0     C37449  -0.275   3.136   7.070  1.2483  0.4385 -0.3754
 1019MOL0     C37450  -0.399   3.113   7.148  0.7657  0.5408 -0.0622
 1019MOL0     C37451  -0.452   3.244   7.214  0.0106 -0.1876  0.6371
 1019MOL0     C37452  -0.517   3.218   7.353  0.0419 -0.4299  0.8641
 1019MOL0     C37453  -0.589   3.339   7.416  0.0761  0.3668  0.3896
 1019MOL0     O37454  -0.641   3.326   7.549 -0.5142  0.5881 -0.0430
 1019MOL0     C37455  -0.730   3.218   7.567 -0.2610  0.3761 -0.8951
 1019MOL0     C37456  -0.691   3.111   7.646  0.7042  0.8167  0.6952
 1019MOL0     C37457  -0.773   3.000   7.670  0.4707  0.2574  0.0803
 1019MOL0     C37458  -0.725   2.891   7.765  0.2780 -0.7167  0.1124
 1019MOL0     C37459  -0.898   2.990   7.605 -0.3900  0.0447  0.0972
 1019MOL0     C37460  -0.994   2.873   7.630  0.0803  0.4176 -0.8344
 1019MOL0     O37461  -1.100   2.879   7.546  0.1807  0.3904  0.4110
 1019MOL0     C37462  -1.214   2.798   7.565  0.5569  0.1240  0.4425
 1019MOL0     C37463  -1.239   2.709   7.465  0.7723  0.0795  0.5667
 1019MOL0     C37464  -1.350   2.618   7.476  0.2650 -0.4311 -0.0966
 1019MOL0     C37465  -1.440   2.629   7.583  0.2679  0.1065 -0.8241
 1019MOL0     O37466  -1.559   2.556   7.588  0.1593  0.2089 -0.2712
 1019MOL0     C37467  -1.588   2.455   7.485  0.4151 -0.2535 -0.8126
 1019MOL0     C37468  -1.701   2.371   7.530 -0.1090  0.3398  0.4094
 1019MOL0     C37469  -1.828   2.448   7.553  1.0280  0.7212 -0.0874
 1019MOL0     C37470  -1.922   2.366   7.645 -0.5639  0.4908  0.0991
 1019MOL0     C37471  -2.068   2.429   7.649 -1.3271 -0.0237 -0.0538
 1019MOL0     C37472  -2.143   2.353   7.753 -0.7282  0.5239 -0.3664
 1019MOL0     C37473  -2.287   2.401   7.742  0.3055  0.1447  0.1552
 1019MOL0     C37474  -2.368   2.307   7.833 -0.2985  0.6628  0.2418
 1019MOL0    Cl37475  -2.526   2.369   7.862  0.1127 -0.0083 -0.2344
 1019MOL0     C37476  -1.417   2.725   7.682  1.4865 -0.6134  0.6515
 1019MOL0     C37477  -1.304   2.806   7.670 -0.2022 -0.3377 -0.7346
 1019MOL0     O37478  -0.982   2.800   7.724 -0.3962 -0.2379  0.0418
 1019MOL0     C37479  -0.937   3.097   7.526  0.3326 -0.8392  0.7820
 1019MOL0     C37480  -0.854   3.212   7.506  0.1180  0.0712  0.5773
 1019MOL0     N37481  -0.253   3.204   6.958  0.4927 -0.3327 -0.3521
 1019MOL0     N37482  -0.128   3.215   6.922  0.3555  0.0420  0.1529
 1019MOL0     C37483   1.045   3.078   7.389 -0.0669 -0.3341  0.0803
 1019MOL0     C37484   1.175   3.128   7.408  0.6682 -0.0858 -0.5175
 1019MOL0     C37485   1.641   3.124   7.462  0.6320 -0.1809  0.8939
 1019MOL0     C37486   1.762   3.095   7.408 -0.2716 -0.2833 -0.1162
 1019MOL0     C37487   1.877   3.158   7.437 -0.7051 -0.3836 -0.4209
 1019MOL0     C37488   1.876   3.265   7.526  0.5533  0.7034 -0.3254
 1019MOL0     O37489   2.000   3.321   7.554 -0.0476 -0.2788  0.6018
 1019MOL0     C37490   2.008   3.434   7.637 -0.3249 -0.0915 -0.1479
 1019MOL0     C37491   2.144   3.491   7.621 -0.6077 -0.0373  0.2630
 1019MOL0     C37492   2.262   3.387   7.631 -0.0825  0.7447 -0.3473
 1019MOL0     C37493   2.394   3.455   7.621  0.0062 -0.6205 -0.0275
 1019MOL0     C37494   2.407   3.561   7.726  0.4135 -0.5853  0.1010
 1019MOL0     C37495   2.436   3.652   7.800  0.0957 -0.0570 -0.9605
 1019MOL0     C37496   1.749   3.302   7.582  0.1886  0.6180  0.0973
 1019MOL0     C37497   1.631   3.238   7.547 -0.1996  0.6724 -0.6337
 1019MOL0     H37498   1.322   2.818   7.414 -0.1125 -0.7740 -1.7120
 1019MOL0     H37499   1.094   2.754   7.384  0.5938 -0.5890  0.0365
 1019MOL0     H37500   0.760   3.053   7.417  0.6620  1.4950  0.0124
 1019MOL0     H37501   0.794   3.042   7.232 -0.8065  0.2820  0.6337
 1019MOL0     H37502   0.703   2.818   7.245  2.2889  1.3968 -1.2437
 1019MOL0     H37503   0.662   2.849   7.413 -0.5652  0.1757  1.0127
 1019MOL0     H37504   0.526   2.962   7.163  2.1893  1.0634 -0.6755
 1019MOL0     H37505   0.459   2.865   7.300  1.3525 -0.3074  2.3367
 1019MOL0     H37506   0.497   3.046   7.450 -2.3826 -0.8554  0.5589
 1019MOL0     H37507   0.557   3.149   7.311  1.0946  1.3056  2.7984
 1019MOL0     H37508   0.272   3.040   7.387  0.0721 -0.3934  1.0335
 1019MOL0     H37509   0.337   3.211   7.380  5.2116 -0.1317  0.8750
 1019MOL0     H37510   0.347   3.202   7.147 -0.2291  0.9894  2.5100
 1019MOL0     H37511   0.291   3.038   7.128  1.8290  0.3797 -0.4991
 1019MOL0     H37512   0.101   3.074   7.241  2.0348 -0.8741  1.1709
 1019MOL0     H37513   0.114   3.263   7.237  1.6745  0.9884 -1.2492
 1019MOL0     H37514   0.132   3.107   6.982 -4.3720 -2.1740 -2.1279
 1019MOL0     H37515   0.118   3.276   7.012 -0.3592 -0.8711 -2.7010
 1019MOL0     H37516  -0.127   3.064   7.216 -1.0260 -0.3285  1.0418
 1019MOL0     H37517  -0.474   3.057   7.091 -0.2457 -0.3626  2.0599
 1019MOL0     H37518  -0.380   3.045   7.231  0.1467 -1.0689 -1.2020
 1019MOL0     H37519  -0.527   3.290   7.149  1.6557 -0.7342 -1.8015
 1019MOL0     H37520  -0.372   3.318   7.223  0.6955 -1.1724  3.3384
 1019MOL0     H37521  -0.442   3.178   7.422  2.2944 -0.0848 -1.2191
 1019MOL0     H37522  -0.590   3.138   7.349 -1.1043  0.5653 -3.2837
 1019MOL0     H37523  -0.681   3.366   7.362  0.0442 -0.4440  0.0230
 1019MOL0     H37524  -0.513   3.417   7.420  0.9606 -0.3471 -1.4611
 1019MOL0     H37525  -0.598   3.114   7.701  0.7837  2.7826  0.5168
 1019MOL0     H37526  -0.729   2.790   7.724  1.7450 -0.4263 -0.8205
 1019MOL0     H37527  -0.620   2.906   7.793  0.3460 -0.9766  0.0062
 1019MOL0     H37528  -0.786   2.893   7.856  2.4607  0.8842  1.6333
 1019MOL0     H37529  -1.172   2.708   7.380  0.2230  0.4472  0.1219
 1019MOL0     H37530  -1.362   2.551   7.391 -1.7427 -0.8452  0.4769
 1019MOL0     H37531  -1.600   2.492   7.382  3.1399 -2.3658 -2.0107
 1019MOL0     H37532  -1.506   2.383   7.486  1.4858  0.9003  1.1766
 1019MOL0     H37533  -1.734   2.295   7.459 -2.4194  0.5057  1.2089
 1019MOL0     H37534  -1.675   2.317   7.622 -2.4733  1.2805  1.7202
 1019MOL0     H37535  -1.872   2.478   7.457  0.8072  0.1476 -0.1728
 1019MOL0     H37536  -1.800   2.544   7.597  1.0400  0.0135  1.4739
 1019MOL0     H37537  -1.936   2.261   7.618 -0.2033 -0.6910  3.8761
 1019MOL0     H37538  -1.879   2.374   7.745  0.5617 -1.4903 -0.1774
 1019MOL0     H37539  -2.116   2.417   7.551 -2.0913  3.6384 -0.2640
 1019MOL0     H37540  -2.066   2.537   7.667 -1.3344 -0.0481  0.0891
 1019MOL0     H37541  -2.131   2.245   7.739 -1.1493  0.5064 -0.6389
 1019MOL0     H37542  -2.104   2.360   7.855  1.0413 -3.0730 -0.6506
 1019MOL0     H37543  -2.328   2.384   7.643  1.4852 -0.4408 -0.2492
 1019MOL0     H37544  -2.284   2.503   7.782  2.0853 -0.1797  0.9689
 1019MOL0     H37545  -2.320   2.285   7.929  1.5358 -2.6218 -1.2503
 1019MOL0     H37546  -2.371   2.210   7.782  1.2137  1.3871 -1.3472
 1019MOL0     H37547  -1.490   2.728   7.762 -1.4966 -3.4040 -1.7031
 1019MOL0     H37548  -1.281   2.876   7.750 -0.1803 -2.8112  1.5880
 1019MOL0     H37549  -1.037   3.103   7.483  0.6274 -2.4634 -0.1983
 1019MOL0     H37550  -0.894   3.287   7.438  0.6702 -1.4491 -1.5571
 1019MOL0     H37551   0.955   3.136   7.406 -0.4915 -0.7994 -0.5208
 1019MOL0     H37552   1.184   3.236   7.407 -2.3696  0.3081  1.3293
 1019MOL0     H37553   1.779   3.022   7.329 -0.4430  0.9027 -1.2909
 1019MOL0     H37554   1.971   3.137   7.388 -0.7148 -0.4694 -0.4042
 1019MOL0     H37555   1.935   3.513   7.615  1.7195  1.6139 -1.1972
 1019MOL0     H37556   1.992   3.408   7.742  1.6308  0.3287  0.2959
 1019MOL0     H37557   2.148   3.560   7.705 -0.5622  0.4333 -0.1197
 1019MOL0     H37558   2.142   3.549   7.528  0.0315  0.1998  0.3914
 1019MOL0     H37559   2.265   3.306   7.557 -2.0334  0.1050  0.1950
 1019MOL0     H37560   2.265   3.345   7.731  1.7630  2.3625  0.3450
 1019MOL0     H37561   2.406   3.498   7.521 -0.2062 -1.4856 -0.4323
 1019MOL0     H37562   2.471   3.378   7.628 -0.8374 -1.3736  1.3552
 1019MOL0     H37563   2.449   3.727   7.876  0.1570 -2.0231  1.0916
 1019MOL0     H37564   1.748   3.378   7.659  0.8761  1.2736 -0.5203
 1019MOL0     H37565   1.537   3.276   7.585  1.1440  2.5074  1.0716
 1020MOL0     O37566  11.320  10.212   2.838 -0.1744 -0.1736 -0.0019
 1020MOL0     C37567  11.387  10.109   2.813  0.2587 -0.9978  0.1320
 1020MOL0     O37568  11.345   9.995   2.760  0.0876 -0.3267 -0.1503
 1020MOL0     C37569  11.211   9.988   2.729 -0.7851 -0.8262  0.8715
 1020MOL0     C37570  11.173  10.049   2.603  0.6579  0.1850  0.3672
 1020MOL0     C37571  11.051  10.025   2.552 -0.0032 -0.4576  0.5849
 1020MOL0     C37572  10.954   9.943   2.621 -0.7898 -0.7350  0.2675
 1020MOL0     O37573  10.854   9.891   2.552 -0.0358  0.2166 -0.2769
 1020MOL0     C37574  10.770   9.974   2.466 -0.3635  0.0780 -0.6217
 1020MOL0     C37575  10.633   9.924   2.499  0.6252  0.1249  0.3241
 1020MOL0     C37576  10.592   9.803   2.417 -0.9199 -0.1084  0.8800
 1020MOL0     C37577  10.558   9.838   2.272  0.0335  0.9434 -0.1292
 1020MOL0     C37578  10.470   9.739   2.211  0.7517 -0.3549  0.0265
 1020MOL0     C37579  10.438   9.791   2.074  0.3927  0.3943  0.4204
 1020MOL0     C37580  10.337   9.706   2.003 -0.9132 -0.3449 -0.3322
 1020MOL0     C37581  10.191   9.749   2.028 -0.5227  0.1402  0.4903
 1020MOL0     N37582  10.084   9.708   1.931  0.2639 -0.6126 -0.1903
 1020MOL0     C37583  10.097   9.702   1.790 -0.8192  0.0579 -0.2948
 1020MOL0     C37584   9.966   9.670   1.756 -1.0800  0.2791 -0.5480
 1020MOL0     C37585   9.904   9.657   1.620  0.4299 -0.0745  0.1216
 1020MOL0     C37586   9.946   9.539   1.544 -0.0739  0.9173  0.1234
 1020MOL0     C37587   9.918   9.403   1.612  0.0047  0.7073  0.4063
 1020MOL0     C37588   9.773   9.383   1.635  0.1017 -0.6067  0.4453
 1020MOL0     O37589   9.692   9.364   1.514  0.2579 -0.6034  0.2212
 1020MOL0     C37590   9.567   9.321   1.533  0.7547 -0.7975  0.1374
 1020MOL0     C37591   9.538   9.193   1.584  0.1374  0.2190  0.5218
 1020MOL0     C37592   9.406   9.157   1.606  0.7249 -0.4651  0.8591
 1020MOL0     C37593   9.375   9.011   1.639 -0.4410  0.9229  0.1689
 1020MOL0     C37594   9.307   9.254   1.573  0.1873  0.4191  0.1153
 1020MOL0     C37595   9.165   9.213   1.574 -0.5177  0.0652 -0.9201
 1020MOL0     O37596   9.106   9.186   1.695 -1.3260 -0.3845 -0.0604
 1020MOL0     C37597   8.973   9.176   1.703 -0.1023 -0.0828 -0.0505
 1020MOL0     C37598   8.924   9.063   1.763  0.1449  0.6024 -0.3702
 1020MOL0     C37599   8.782   9.043   1.780 -0.5784  0.0772 -0.1801
 1020MOL0     C37600   8.701   9.131   1.720 -0.3728 -0.5346  0.0051
 1020MOL0     O37601   8.563   9.126   1.719 -0.2199 -0.5994  0.4665
 1020MOL0     C37602   8.504   9.007   1.759 -0.3056 -0.3649 -0.2314
 1020MOL0     C37603   8.374   9.002   1.686 -0.0474 -0.0221 -0.0458
 1020MOL0     C37604   8.390   8.981   1.535 -0.0473 -0.5208 -0.6952
 1020MOL0     C37605   8.255   8.993   1.462 -0.1641  0.5237  0.2655
 1020MOL0     C37606   8.251   9.018   1.312 -0.5743 -0.5571  0.3630
 1020MOL0     C37607   8.106   9.007   1.249 -0.4422 -0.6254 -0.6955
 1020MOL0     C37608   8.026   9.140   1.277 -0.3854 -0.7047  0.3237
 1020MOL0     C37609   7.878   9.126   1.232 -0.0648 -0.0516  0.3314
 1020MOL0    Cl37610   7.765   9.270   1.254  0.1986 -0.9351 -0.1199
 1020MOL0     C37611   8.745   9.255   1.662  0.0968  0.2311 -0.5742
 1020MOL0     C37612   8.883   9.275   1.658 -0.4121 -0.3835 -0.0397
 1020MOL0     O37613   9.109   9.236   1.470  0.4674  0.3249 -0.0763
 1020MOL0     C37614   9.334   9.386   1.527 -0.1299  0.5498 -0.3952
 1020MOL0     C37615   9.465   9.417   1.522  0.1713  0.4695 -0.0724
 1020MOL0     N37616   9.890   9.664   1.866 -0.2230  0.4827  0.1002
 1020MOL0     N37617   9.957   9.697   1.969  0.4751  1.0241 -0.1331
 1020MOL0     C37618  10.988   9.895   2.746 -0.1914 -0.0873 -0.8897
 1020MOL0     C37619  11.113   9.917   2.803 -0.4145  0.2897 -1.0047
 1020MOL0     C37620  11.524  10.115   2.855 -0.0564 -1.0667  0.0573
 1020MOL0     C37621  11.563  10.185   2.972 -1.0715 -0.0196  0.9356
 1020MOL0     C37622  11.705  10.209   3.002  0.1607 -0.6862 -0.0443
 1020MOL0     C37623  11.801  10.144   2.930 -0.0197 -0.0464 -0.2051
 1020MOL0     O37624  11.923  10.157   2.988  0.3988 -0.3790 -0.6126
 1020MOL0     C37625  12.028  10.082   2.920  0.0301 -0.1301  0.0582
 1020MOL0     C37626  12.157  10.127   2.987 -0.3063 -0.5545  0.3411
 1020MOL0     C37627  12.284  10.085   2.917  0.4762  0.3026  0.0131
 1020MOL0     C37628  12.399  10.156   2.995  0.9134 -0.0929  0.6168
 1020MOL0     C37629  12.522  10.108   2.955  0.0343  0.4278 -0.6557
 1020MOL0     C37630  12.628  10.066   2.921 -0.3273 -0.0365 -0.4620
 1020MOL0     C37631  11.765  10.073   2.811  0.6099 -0.3097  0.4662
 1020MOL0     C37632  11.624  10.060   2.772  0.2567 -0.3253  0.6056
 1020MOL0     H37633  11.255  10.103   2.556  2.6671 -2.5213  0.5173
 1020MOL0     H37634  11.030  10.056   2.450 -0.5411 -0.1771  0.7767
 1020MOL0     H37635  10.774  10.081   2.491 -1.2585 -0.1070  0.4310
 1020MOL0     H37636  10.793   9.968   2.360 -0.2592 -2.6782 -0.5120
 1020MOL0     H37637  10.630   9.919   2.608  4.1363  2.4698  0.6887
 1020MOL0     H37638  10.559  10.004   2.490 -1.8935 -1.8691  1.8821
 1020MOL0     H37639  10.669   9.727   2.426 -2.6376 -1.9947  0.5405
 1020MOL0     H37640  10.506   9.764   2.473 -0.2449 -2.9035  0.1484
 1020MOL0     H37641  10.502   9.932   2.278  1.1054  1.5324  1.0540
 1020MOL0     H37642  10.653   9.855   2.220  0.5891  2.1702  1.2282
 1020MOL0     H37643  10.507   9.636   2.217  1.3272 -0.0933  1.6352
 1020MOL0     H37644  10.377   9.726   2.269 -0.0749 -1.0004 -1.3906
 1020MOL0     H37645  10.404   9.894   2.077  0.4058  0.3924  3.3083
 1020MOL0     H37646  10.529   9.797   2.013 -0.3600  1.6382 -0.6180
 1020MOL0     H37647  10.365   9.707   1.897  2.3469 -0.3090  0.4217
 1020MOL0     H37648  10.357   9.603   2.034 -1.0345  0.0348  1.0515
 1020MOL0     H37649  10.181   9.857   2.043 -0.7641  0.2910 -0.6827
 1020MOL0     H37650  10.167   9.706   2.126  1.1282 -0.6090  0.6146
 1020MOL0     H37651  10.175   9.721   1.717 -0.8738  0.8429 -0.1612
 1020MOL0     H37652   9.795   9.659   1.631  0.2533 -0.1153 -1.4169
 1020MOL0     H37653   9.929   9.744   1.560  1.9477 -0.3806  0.2726
 1020MOL0     H37654  10.054   9.551   1.530  0.1479  2.4414  2.5463
 1020MOL0     H37655   9.904   9.546   1.443  0.8477 -1.5290 -0.4961
 1020MOL0     H37656   9.968   9.389   1.709  1.0826 -2.3080 -0.4619
 1020MOL0     H37657   9.953   9.319   1.552  0.3374  2.2206 -1.6225
 1020MOL0     H37658   9.728   9.471   1.683 -0.0046 -0.4408  0.0477
 1020MOL0     H37659   9.774   9.290   1.691  4.1813 -1.7850 -1.2503
 1020MOL0     H37660   9.624   9.129   1.598  1.7417  1.7462 -1.6277
 1020MOL0     H37661   9.273   8.995   1.676 -1.6732  1.1803 -2.8463
 1020MOL0     H37662   9.373   8.954   1.546 -2.5645 -0.5527  1.0293
 1020MOL0     H37663   9.451   8.962   1.700 -0.9622  0.8889  0.7948
 1020MOL0     H37664   8.987   8.982   1.801 -0.9131 -0.5247 -0.9381
 1020MOL0     H37665   8.741   8.955   1.827 -0.1768 -0.6476 -1.1370
 1020MOL0     H37666   8.558   8.914   1.738 -1.2498 -1.2198  0.9824
 1020MOL0     H37667   8.493   9.017   1.868  0.5821  1.0823 -0.2337
 1020MOL0     H37668   8.309   8.929   1.736 -0.4005  1.7282  2.2031
 1020MOL0     H37669   8.326   9.099   1.694  3.1145  1.7168 -0.6921
 1020MOL0     H37670   8.426   8.880   1.514 -1.7563 -1.0692 -1.2055
 1020MOL0     H37671   8.453   9.061   1.495 -0.9935  0.5861 -0.0217
 1020MOL0     H37672   8.193   8.903   1.474 -2.4336  1.8926 -0.6129
 1020MOL0     H37673   8.200   9.072   1.513  0.9336  1.1957  0.4505
 1020MOL0     H37674   8.317   8.942   1.268 -1.3811  0.1983 -2.3463
 1020MOL0     H37675   8.295   9.115   1.289  0.2010 -0.8398  0.6105
 1020MOL0     H37676   8.120   8.997   1.141  0.0520 -1.6811 -0.5454
 1020MOL0     H37677   8.051   8.921   1.287  1.3624 -1.0339  1.1496
 1020MOL0     H37678   8.082   9.221   1.229 -0.8278  0.6934  2.0511
 1020MOL0     H37679   8.027   9.168   1.383  0.3163  1.0721 -0.1071
 1020MOL0     H37680   7.832   9.038   1.280  2.4619 -1.5366  0.1926
 1020MOL0     H37681   7.886   9.106   1.125  1.7189  1.7564  0.0823
 1020MOL0     H37682   8.681   9.331   1.618  2.5663  3.5591  1.1418
 1020MOL0     H37683   8.913   9.372   1.618  1.1793 -0.4252  0.9727
 1020MOL0     H37684   9.263   9.466   1.513  0.1816  0.9354  0.2247
 1020MOL0     H37685   9.503   9.515   1.495 -0.3578  0.7424  0.1554
 1020MOL0     H37686  10.919   9.831   2.799  3.7962 -1.1689  3.7197
 1020MOL0     H37687  11.137   9.872   2.898  1.0626  1.5688 -0.7197
 1020MOL0     H37688  11.485  10.221   3.038 -1.3119 -3.2541  2.6561
 1020MOL0     H37689  11.736  10.258   3.094 -1.0555  0.6272 -0.3054
 1020MOL0     H37690  12.017   9.973   2.919  0.1505 -0.1515 -1.3014
 1020MOL0     H37691  12.028  10.104   2.813 -0.8837 -1.6053 -0.2830
 1020MOL0     H37692  12.158  10.088   3.089 -0.6859 -0.5870  0.3311
 1020MOL0     H37693  12.150  10.235   3.008  0.6187 -0.5912  0.9024
 1020MOL0     H37694  12.288  10.113   2.811  0.8630  0.1537 -0.0144
 1020MOL0     H37695  12.285   9.977   2.930 -1.5207  0.5333  2.9952
 1020MOL0     H37696  12.388  10.146   3.103  1.8090  0.6385  0.7912
 1020MOL0     H37697  12.398  10.263   2.971 -0.0933 -0.4294 -1.0499
 1020MOL0     H37698  12.726  10.037   2.888 -0.3273  0.8001 -1.2307
 1020MOL0     H37699  11.830  10.009   2.752 -1.4526 -2.5462  0.4522
 1020MOL0     H37700  11.603  10.002   2.684 -0.0506 -0.0555  0.4999
 1021MOL0     O37701   0.622  10.345   8.512  0.3308  0.8797  0.5580
 1021MOL0     C37702   0.649  10.354   8.630  0.1301  0.3586  0.6190
 1021MOL0     O37703   0.549  10.369   8.725 -0.2632 -0.0882 -0.3190
 1021MOL0     C37704   0.421  10.408   8.692  0.4324 -0.6214 -0.0984
 1021MOL0     C37705   0.371  10.459   8.574 -0.5537 -0.3505  0.1744
 1021MOL0     C37706   0.238  10.493   8.560  0.2056  0.3888  0.1599
 1021MOL0     C37707   0.145  10.484   8.661 -0.0714 -0.6823  0.3645
 1021MOL0     O37708   0.010  10.511   8.665 -0.9239 -0.0382 -0.1250
 1021MOL0     C37709  -0.070  10.512   8.543 -0.9436  0.1809  0.3810
 1021MOL0     C37710  -0.216  10.548   8.564  0.5650  0.5477  0.1887
 1021MOL0     C37711  -0.283  10.437   8.650  0.4408  0.3119 -0.7679
 1021MOL0     C37712  -0.437  10.442   8.620  0.3803  0.2011 -0.0673
 1021MOL0     C37713  -0.528  10.343   8.700  0.1881 -0.2071  0.4212
 1021MOL0     C37714  -0.679  10.366   8.686  0.5949  0.2101  0.5462
 1021MOL0     C37715  -0.757  10.253   8.751  0.3896  0.8017 -0.3733
 1021MOL0     C37716  -0.905  10.271   8.756  0.6807  0.4389  0.2293
 1021MOL0     N37717  -0.962  10.140   8.796 -1.8090 -0.1584 -0.2448
 1021MOL0     C37718  -0.981  10.034   8.709 -0.3783  0.0912 -0.2686
 1021MOL0     C37719  -1.054   9.942   8.791  0.8284 -0.0853 -0.1447
 1021MOL0     C37720  -1.128   9.823   8.741 -0.2265 -0.3376 -0.3478
 1021MOL0     C37721  -1.266   9.875   8.702  0.3471 -0.6136 -0.4931
 1021MOL0     C37722  -1.358   9.755   8.641 -0.2188 -0.6016 -0.1838
 1021MOL0     C37723  -1.506   9.792   8.631  0.6152 -0.3852  0.4183
 1021MOL0     O37724  -1.567   9.661   8.615  0.6589 -0.2436  0.1742
 1021MOL0     C37725  -1.700   9.655   8.581  0.2398  0.4072  0.7615
 1021MOL0     C37726  -1.749   9.718   8.470 -0.3835 -0.6716 -0.2314
 1021MOL0     C37727  -1.883   9.699   8.424 -0.3006  0.0915  0.0320
 1021MOL0     C37728  -1.934   9.796   8.317 -0.5268 -0.1495  0.1601
 1021MOL0     C37729  -1.969   9.628   8.507 -0.0274  0.3273 -0.5839
 1021MOL0     C37730  -2.114   9.620   8.472  0.0924  1.0256 -1.5208
 1021MOL0     O37731  -2.196   9.637   8.569 -0.3224 -0.3274 -0.1550
 1021MOL0     C37732  -2.332   9.634   8.557  0.6142 -0.5929  0.4986
 1021MOL0     C37733  -2.420   9.545   8.613  0.3797 -0.4994 -0.2213
 1021MOL0     C37734  -2.560   9.563   8.603  0.0896 -0.3321  0.9972
 1021MOL0     C37735  -2.615   9.679   8.543 -0.4449  0.2803 -0.4702
 1021MOL0     O37736  -2.755   9.687   8.541  0.2867  0.0335  0.5437
 1021MOL0     C37737  -2.823   9.811   8.525  1.1886 -0.1799 -0.8422
 1021MOL0     C37738  -2.967   9.794   8.565  0.3094  0.4002 -0.9631
 1021MOL0     C37739  -3.061   9.911   8.570  0.2309 -0.5023 -0.6074
 1021MOL0     C37740  -3.207   9.861   8.542  0.0249  0.0732  0.2341
 1021MOL0     C37741  -3.303   9.976   8.531 -0.2841 -0.2218  0.2729
 1021MOL0     C37742  -3.448   9.928   8.496 -0.3992 -0.2108 -0.3631
 1021MOL0     C37743  -3.548  10.043   8.532  0.6642  0.4234 -0.0476
 1021MOL0     C37744  -3.694  10.012   8.488 -1.1571 -0.3851 -0.4553
 1021MOL0    Cl37745  -3.772   9.934   8.620 -0.7020 -0.0921 -0.4421
 1021MOL0     C37746  -2.522   9.778   8.495 -0.0362  0.8346  0.0882
 1021MOL0     C37747  -2.386   9.751   8.497 -0.8847 -0.6884  0.0679
 1021MOL0     O37748  -2.146   9.599   8.355  0.6175 -0.0301  0.2584
 1021MOL0     C37749  -1.924   9.582   8.627 -0.1375  0.0917 -0.3565
 1021MOL0     C37750  -1.789   9.587   8.665  0.1183  0.4019 -0.1954
 1021MOL0     N37751  -1.079  10.002   8.914 -0.6647 -0.0058 -0.4353
 1021MOL0     N37752  -1.016  10.110   8.918  0.1987 -0.3960  0.3565
 1021MOL0     C37753   0.192  10.434   8.777  0.0406  0.0591 -0.7010
 1021MOL0     C37754   0.321  10.390   8.790 -0.4661 -0.1880 -0.2420
 1021MOL0     C37755   0.790  10.342   8.668  0.3933  0.3840 -0.4671
 1021MOL0     C37756   0.887  10.295   8.577 -0.4256 -0.0842  0.4596
 1021MOL0     C37757   1.028  10.295   8.603  0.2384  0.7961  0.8082
 1021MOL0     C37758   1.073  10.345   8.716  0.3469 -0.1890  0.2245
 1021MOL0     O37759   1.207  10.344   8.773  0.9390 -0.3378  0.2685
 1021MOL0     C37760   1.308  10.272   8.701 -0.2696  0.4846  0.0054
 1021MOL0     C37761   1.442  10.284   8.782  0.0185 -0.2552  0.3417
 1021MOL0     C37762   1.466  10.419   8.851  0.1759 -0.1343  0.5972
 1021MOL0     C37763   1.610  10.460   8.865  0.3785 -0.4945  1.0706
 1021MOL0     C37764   1.672  10.382   8.974 -0.3058  0.1614  0.0075
 1021MOL0     C37765   1.717  10.306   9.061 -0.4012 -0.0931 -0.4566
 1021MOL0     C37766   0.983  10.383   8.810  0.5202  0.0018  0.3534
 1021MOL0     C37767   0.843  10.374   8.793 -0.5639 -0.2483 -0.8586
 1021MOL0     H37768   0.437  10.488   8.493 -0.9031  2.4841  0.7924
 1021MOL0     H37769   0.190  10.524   8.467 -3.4046 -1.9715  1.0559
 1021MOL0     H37770  -0.038  10.589   8.472 -0.7231 -0.6400 -0.4256
 1021MOL0     H37771  -0.053  10.415   8.496  2.2913  0.9308 -0.1997
 1021MOL0     H37772  -0.224  10.648   8.610  0.5083  0.4842  0.3179
 1021MOL0     H37773  -0.265  10.555   8.467 -0.2337  2.4971  0.6721
 1021MOL0     H37774  -0.241  10.340   8.625  2.1359  1.2606 -1.7917
 1021MOL0     H37775  -0.264  10.457   8.755 -0.7133 -0.0941 -0.4662
 1021MOL0     H37776  -0.472  10.546   8.624  0.5593  0.2294  1.3269
 1021MOL0     H37777  -0.460  10.419   8.516  0.7658  2.5747 -0.7259
 1021MOL0     H37778  -0.499  10.241   8.671  0.8417 -0.0523  0.5090
 1021MOL0     H37779  -0.493  10.345   8.803 -0.8651 -1.3055  0.8270
 1021MOL0     H37780  -0.707  10.462   8.731  0.5720  0.3443  0.2482
 1021MOL0     H37781  -0.706  10.368   8.579 -2.5248 -0.6877  1.2023
 1021MOL0     H37782  -0.747  10.157   8.700 -2.4301  0.7005 -0.8952
 1021MOL0     H37783  -0.709  10.243   8.849  0.5504  2.1970 -0.2952
 1021MOL0     H37784  -0.949  10.285   8.657  0.0733 -1.8162  0.1233
 1021MOL0     H37785  -0.943  10.350   8.821 -0.5968 -1.1433  1.4960
 1021MOL0     H37786  -0.950  10.029   8.605 -1.7503 -4.6566 -0.6761
 1021MOL0     H37787  -1.072   9.779   8.657 -2.1261 -2.3108 -0.6486
 1021MOL0     H37788  -1.132   9.747   8.819 -1.1324 -1.6808 -1.6512
 1021MOL0     H37789  -1.258   9.961   8.635  0.1800 -0.8220 -0.7830
 1021MOL0     H37790  -1.312   9.911   8.795  1.2855 -3.0063  0.9790
 1021MOL0     H37791  -1.342   9.663   8.697  4.7275  1.0551  1.6259
 1021MOL0     H37792  -1.327   9.747   8.536  0.2765  2.7724 -0.4044
 1021MOL0     H37793  -1.511   9.848   8.537  0.2498 -2.3973 -0.8160
 1021MOL0     H37794  -1.555   9.847   8.712  2.8586  0.4000  1.3122
 1021MOL0     H37795  -1.676   9.780   8.418 -0.0877 -1.3241 -0.6030
 1021MOL0     H37796  -2.018   9.858   8.351  0.8838  1.2563  1.2611
 1021MOL0     H37797  -1.849   9.861   8.293  0.9510 -1.1415  2.3758
 1021MOL0     H37798  -1.963   9.738   8.229  1.1129 -1.3880  0.3964
 1021MOL0     H37799  -2.382   9.454   8.658 -3.0339 -1.9766  0.0115
 1021MOL0     H37800  -2.628   9.482   8.629  1.2031 -1.6762 -0.0958
 1021MOL0     H37801  -2.779   9.893   8.583  0.7358 -0.3591 -0.2428
 1021MOL0     H37802  -2.820   9.843   8.420 -1.3621  1.5483 -0.4705
 1021MOL0     H37803  -3.005   9.735   8.482  1.0462 -1.1331 -0.2541
 1021MOL0     H37804  -2.972   9.735   8.658  2.8553  2.2334  0.4574
 1021MOL0     H37805  -3.038   9.980   8.488 -0.4378  0.9571  0.3950
 1021MOL0     H37806  -3.061   9.963   8.666 -0.3365  1.6861 -1.7280
 1021MOL0     H37807  -3.209   9.807   8.447  2.0278  0.6130 -0.1677
 1021MOL0     H37808  -3.236   9.794   8.623  2.5536 -1.3842  0.0424
 1021MOL0     H37809  -3.270  10.045   8.452  1.0396 -0.8532  0.2534
 1021MOL0     H37810  -3.296  10.032   8.624 -0.6835  0.2128  0.0506
 1021MOL0     H37811  -3.449   9.907   8.389  1.9107 -0.0589 -0.4768
 1021MOL0     H37812  -3.481   9.838   8.550 -1.0382  0.9241  1.2221
 1021MOL0     H37813  -3.523  10.145   8.502 -3.0988  1.1448 -1.2469
 1021MOL0     H37814  -3.552  10.044   8.642 -0.8467 -3.7455  0.1165
 1021MOL0     H37815  -3.681   9.955   8.395  0.2231 -2.7898  1.0939
 1021MOL0     H37816  -3.751  10.104   8.474 -1.1244 -0.5095 -1.5600
 1021MOL0     H37817  -2.551   9.867   8.440  0.8546  1.9616  1.3886
 1021MOL0     H37818  -2.331   9.828   8.445 -0.6712 -1.7030 -1.2521
 1021MOL0     H37819  -2.001   9.535   8.687 -0.6094  2.4639  1.0285
 1021MOL0     H37820  -1.747   9.538   8.752  0.8718 -1.3077 -1.4664
 1021MOL0     H37821   0.126  10.417   8.861  1.4310  1.3586  0.7095
 1021MOL0     H37822   0.364  10.352   8.882  3.8357 -0.4296 -2.0817
 1021MOL0     H37823   0.861  10.270   8.475  1.8756 -2.6799  0.3755
 1021MOL0     H37824   1.090  10.262   8.520 -1.7354 -0.5771 -0.1811
 1021MOL0     H37825   1.281  10.166   8.694  0.1722  0.4709 -2.1484
 1021MOL0     H37826   1.324  10.311   8.601  1.9124 -0.1012  0.0675
 1021MOL0     H37827   1.515  10.244   8.711  1.2941 -0.9817  2.0112
 1021MOL0     H37828   1.445  10.209   8.862 -1.0973 -0.6115  0.0722
 1021MOL0     H37829   1.413  10.420   8.946  1.9528 -0.6970  1.6430
 1021MOL0     H37830   1.412  10.501   8.803  0.1767 -1.6446 -2.2391
 1021MOL0     H37831   1.626  10.565   8.891 -0.3206 -0.1626  0.1867
 1021MOL0     H37832   1.659  10.426   8.774  2.1076  0.9319  1.4141
 1021MOL0     H37833   1.761  10.242   9.135 -0.7690  3.0011  2.6852
 1021MOL0     H37834   1.016  10.407   8.911  0.0834  0.1481  0.4612
 1021MOL0     H37835   0.778  10.418   8.867  1.9003 -3.0949  3.4084
 1022MOL0     O37836   5.121   4.018  10.214  0.3422  0.6053  0.1929
 1022MOL0     C37837   5.118   3.894  10.205  0.0195 -1.2692  0.2517
 1022MOL0     O37838   5.003   3.817  10.185  0.0111 -0.6247 -0.4971
 1022MOL0     C37839   4.881   3.875  10.164  0.0327  0.6797 -0.8025
 1022MOL0     C37840   4.831   3.969  10.261  0.3004 -0.1154 -0.1102
 1022MOL0     C37841   4.697   4.002  10.263  0.1006 -0.9667  0.7446
 1022MOL0     C37842   4.598   3.958  10.181 -0.2564 -0.5583 -0.1615
 1022MOL0     O37843   4.462   3.984  10.186 -0.7434  0.2102  0.4886
 1022MOL0     C37844   4.403   4.059  10.297  0.7610  0.1421  0.3586
 1022MOL0     C37845   4.263   4.104  10.268  0.0667 -0.6595  0.2994
 1022MOL0     C37846   4.180   3.991  10.204 -0.1047  0.2741 -0.7110
 1022MOL0     C37847   4.136   3.886  10.320  0.2403 -0.1229 -0.1340
 1022MOL0     C37848   4.039   3.787  10.252 -0.2715  0.9564  0.1642
 1022MOL0     C37849   3.893   3.832  10.227 -0.8760 -0.8413 -1.0245
 1022MOL0     C37850   3.811   3.885  10.353  0.8466 -0.9408 -0.8088
 1022MOL0     C37851   3.747   3.771  10.440 -0.2570 -0.0249 -0.9488
 1022MOL0     N37852   3.651   3.823  10.539 -0.9120  0.2195  0.4464
 1022MOL0     C37853   3.543   3.888  10.501  0.6388 -0.3144 -0.4599
 1022MOL0     C37854   3.478   3.921  10.620 -0.0337 -0.7921 -0.0904
 1022MOL0     C37855   3.346   3.988  10.655 -0.2505  0.1223 -0.1627
 1022MOL0     C37856   3.230   3.903  10.602 -0.0349 -0.8279 -0.7421
 1022MOL0     C37857   3.208   3.924  10.451 -0.0362 -0.5496  1.0288
 1022MOL0     C37858   3.060   3.908  10.424 -0.0967  0.3927  0.0718
 1022MOL0     O37859   3.035   3.896  10.282 -0.2344  0.0538 -0.1291
 1022MOL0     C37860   2.909   3.841  10.250 -0.1271  0.0142  0.7541
 1022MOL0     C37861   2.904   3.765  10.131 -0.1325  0.5703 -1.2928
 1022MOL0     C37862   2.787   3.721  10.076 -0.1376 -0.0612  0.8943
 1022MOL0     C37863   2.781   3.670   9.943 -1.0869  1.0003 -0.0284
 1022MOL0     C37864   2.667   3.716  10.156 -0.8825  1.6536 -0.2602
 1022MOL0     C37865   2.540   3.646  10.123 -0.6081 -0.7489 -0.6389
 1022MOL0     O37866   2.432   3.679  10.187 -0.3692 -0.2091 -0.2754
 1022MOL0     C37867   2.311   3.626  10.151  0.6272  1.1450  0.0349
 1022MOL0     C37868   2.266   3.609  10.018  0.9675  0.3022 -0.1049
 1022MOL0     C37869   2.140   3.583   9.982  0.9758  0.0603  0.0663
 1022MOL0     C37870   2.037   3.572  10.072 -0.0155 -0.1947 -1.1554
 1022MOL0     O37871   1.916   3.540  10.024 -0.1688 -0.1637  0.1465
 1022MOL0     C37872   1.800   3.601  10.085 -1.2823  1.2209  0.3681
 1022MOL0     C37873   1.801   3.759  10.083 -0.0814  0.2619  0.2631
 1022MOL0     C37874   1.669   3.815  10.118 -0.3247 -0.0567  0.5894
 1022MOL0     C37875   1.659   3.968  10.078 -0.1085  0.5342 -0.6417
 1022MOL0     C37876   1.525   4.027  10.100 -0.0479  0.6940  0.4888
 1022MOL0     C37877   1.524   4.173  10.049  0.5341  0.4150  0.0428
 1022MOL0     C37878   1.394   4.239  10.018  0.3539  0.1181 -0.0856
 1022MOL0     C37879   1.295   4.235  10.127  0.5260 -0.0030  0.1506
 1022MOL0    Cl37880   1.362   4.300  10.291  0.2719  0.3518  0.0944
 1022MOL0     C37881   2.077   3.596  10.211 -0.2199  0.5789 -0.4875
 1022MOL0     C37882   2.205   3.622  10.246 -0.2952  0.9782 -0.3571
 1022MOL0     O37883   2.548   3.543  10.055 -0.4801  0.1337  0.0356
 1022MOL0     C37884   2.669   3.801  10.274 -0.1152 -0.1912 -0.0222
 1022MOL0     C37885   2.788   3.857  10.321  0.2188 -0.5838  0.0284
 1022MOL0     N37886   3.556   3.861  10.721  0.7391 -1.0526 -0.4192
 1022MOL0     N37887   3.658   3.814  10.673 -0.1139  0.1735  0.3190
 1022MOL0     C37888   4.645   3.865  10.087  0.8126 -0.0831 -0.1503
 1022MOL0     C37889   4.781   3.832  10.076 -0.3929  0.1604  1.0499
 1022MOL0     C37890   5.245   3.817  10.213  0.8304 -0.3419  0.3330
 1022MOL0     C37891   5.365   3.884  10.256 -0.0744 -0.6573  0.8334
 1022MOL0     C37892   5.484   3.817  10.282  0.8633 -0.2280  0.5199
 1022MOL0     C37893   5.496   3.681  10.272  0.1046 -0.6213  0.8136
 1022MOL0     O37894   5.610   3.616  10.302  0.2922 -0.1876  0.2338
 1022MOL0     C37895   5.699   3.586  10.192  0.4341  0.6708  0.3505
 1022MOL0     C37896   5.841   3.568  10.243 -0.1677  0.7922  0.4856
 1022MOL0     C37897   5.918   3.693  10.294  0.6000 -0.7668  0.2506
 1022MOL0     C37898   6.055   3.653  10.338  0.8448  0.0618  0.3902
 1022MOL0     C37899   6.134   3.780  10.373 -0.3565 -0.1257  0.4735
 1022MOL0     C37900   6.214   3.873  10.391  0.1271  0.7295 -0.3035
 1022MOL0     C37901   5.376   3.608  10.233  0.3460 -0.7754  0.6372
 1022MOL0     C37902   5.257   3.675  10.199 -0.0649 -0.0022 -0.3780
 1022MOL0     H37903   4.899   4.021  10.327  0.1518  1.7538 -1.3553
 1022MOL0     H37904   4.664   4.067  10.343 -0.4424 -1.4853  0.9477
 1022MOL0     H37905   4.408   3.991  10.383  0.3628 -1.4421 -0.8311
 1022MOL0     H37906   4.449   4.154  10.324  0.0978  1.2617 -2.1720
 1022MOL0     H37907   4.211   4.137  10.358  0.1223 -0.6503  0.3279
 1022MOL0     H37908   4.262   4.192  10.202  0.2301 -1.2925 -0.5708
 1022MOL0     H37909   4.093   4.021  10.145 -0.3755 -1.3696 -1.2105
 1022MOL0     H37910   4.237   3.935  10.130  1.9438  3.1449 -1.4804
 1022MOL0     H37911   4.227   3.834  10.354  0.7295  1.5574  1.3132
 1022MOL0     H37912   4.091   3.933  10.408  0.7772  0.7708 -0.3205
 1022MOL0     H37913   4.087   3.752  10.160 -0.6678  1.9698 -0.4322
 1022MOL0     H37914   4.027   3.692  10.306  1.0708  1.5101  1.5337
 1022MOL0     H37915   3.883   3.910  10.151  0.6384 -1.3051 -1.7414
 1022MOL0     H37916   3.835   3.744  10.196 -0.9682 -1.4053  0.6698
 1022MOL0     H37917   3.876   3.946  10.416  1.6046 -1.1926 -1.3344
 1022MOL0     H37918   3.733   3.950  10.310  1.8694  0.1346 -1.0929
 1022MOL0     H37919   3.819   3.708  10.493  0.2172  0.7282 -0.6797
 1022MOL0     H37920   3.689   3.703  10.377 -1.3090 -0.8859  0.8708
 1022MOL0     H37921   3.514   3.930  10.404 -3.0137  1.5047  1.2161
 1022MOL0     H37922   3.337   3.999  10.763  0.7021 -0.2750 -0.0368
 1022MOL0     H37923   3.345   4.089  10.613 -1.2761  1.0122  1.8475
 1022MOL0     H37924   3.142   3.937  10.656  1.3854  2.2613 -0.1393
 1022MOL0     H37925   3.252   3.800  10.632 -0.5033 -0.6310  0.3307
 1022MOL0     H37926   3.260   3.837  10.408 -0.3258  0.1305 -0.7915
 1022MOL0     H37927   3.246   4.018  10.410 -2.8155  0.2460  0.0177
 1022MOL0     H37928   3.007   3.997  10.461 -0.9456 -0.0204 -0.1327
 1022MOL0     H37929   3.020   3.820  10.474 -0.5047  1.7379  2.2891
 1022MOL0     H37930   2.999   3.750  10.080  0.4966  1.3990 -0.4014
 1022MOL0     H37931   2.766   3.561   9.944  0.0599  0.7334 -2.6602
 1022MOL0     H37932   2.696   3.711   9.887 -1.0529 -1.1325 -1.7715
 1022MOL0     H37933   2.881   3.671   9.900 -0.9309 -1.8395  0.0421
 1022MOL0     H37934   2.335   3.627   9.936  0.9936 -0.7050 -0.3256
 1022MOL0     H37935   2.127   3.574   9.874  1.1134  0.2802  0.0319
 1022MOL0     H37936   1.715   3.561  10.028 -0.0281 -3.1625  1.1804
 1022MOL0     H37937   1.785   3.559  10.185  2.6620 -3.6384 -0.6871
 1022MOL0     H37938   1.871   3.793  10.160  0.7623  1.3489 -0.9442
 1022MOL0     H37939   1.845   3.793   9.989 -1.0731  1.1623  0.1066
 1022MOL0     H37940   1.655   3.807  10.226  1.7000  1.0529  0.9899
 1022MOL0     H37941   1.583   3.759  10.081 -1.0063 -0.5588  2.8044
 1022MOL0     H37942   1.724   4.027  10.144 -0.4740  0.2590 -0.0301
 1022MOL0     H37943   1.702   3.978   9.979  2.6991 -0.7357  0.3555
 1022MOL0     H37944   1.498   4.023  10.206 -3.0737  0.3251 -0.2123
 1022MOL0     H37945   1.446   3.974  10.045  0.1894 -1.2905  1.9446
 1022MOL0     H37946   1.584   4.233  10.118  1.8965  1.2253 -1.7529
 1022MOL0     H37947   1.580   4.165   9.956  1.0338 -1.4448  0.4470
 1022MOL0     H37948   1.355   4.177   9.936  1.9586 -1.6978  0.4500
 1022MOL0     H37949   1.410   4.340   9.980 -0.1095 -0.5254 -2.1437
 1022MOL0     H37950   1.281   4.127  10.136 -0.9371  0.0929 -0.7151
 1022MOL0     H37951   1.205   4.292  10.101 -1.2522 -2.2914  0.8737
 1022MOL0     H37952   2.002   3.588  10.289 -0.1051 -0.3231 -0.4668
 1022MOL0     H37953   2.236   3.623  10.350  1.1809  0.1880 -0.7500
 1022MOL0     H37954   2.585   3.803  10.342  0.1934  1.3710  0.3402
 1022MOL0     H37955   2.782   3.918  10.411  0.5666  0.8811 -0.9167
 1022MOL0     H37956   4.577   3.831  10.010 -1.6549  3.3799  0.2658
 1022MOL0     H37957   4.821   3.761  10.004 -0.2631  0.0052  1.2737
 1022MOL0     H37958   5.364   3.991  10.275  1.6333  0.3598 -3.5949
 1022MOL0     H37959   5.573   3.867  10.318  0.4911  1.1237 -0.3731
 1022MOL0     H37960   5.666   3.490  10.151  1.3928  0.2040  0.6372
 1022MOL0     H37961   5.702   3.660  10.112  0.6680  0.0206 -0.2521
 1022MOL0     H37962   5.894   3.529  10.155 -1.4334  1.8456 -0.7935
 1022MOL0     H37963   5.832   3.497  10.326  0.1882 -0.6633 -0.6813
 1022MOL0     H37964   5.860   3.739  10.375  0.9861  2.6066 -1.2019
 1022MOL0     H37965   5.925   3.764  10.211  0.9491 -0.2685  0.7024
 1022MOL0     H37966   6.104   3.590  10.263 -0.8200 -1.4158  0.4801
 1022MOL0     H37967   6.044   3.604  10.434  0.6160  1.4873  1.1241
 1022MOL0     H37968   6.283   3.952  10.412  1.5729 -0.0755 -1.8053
 1022MOL0     H37969   5.378   3.500  10.231 -4.1342 -1.0508 -1.7259
 1022MOL0     H37970   5.162   3.624  10.186 -0.8888  1.4731 -0.4414
 1023MOL0     O37971   2.989   3.607   6.468 -0.1603 -0.1524 -0.3525
 1023MOL0     C37972   3.101   3.615   6.417 -1.6736  0.4129 -0.0636
 1023MOL0     O37973   3.137   3.690   6.312  0.3420  0.0357 -0.1228
 1023MOL0     C37974   3.045   3.751   6.230 -0.5237  0.1130 -1.1603
 1023MOL0     C37975   2.907   3.739   6.227  0.4769 -0.7961  0.0604
 1023MOL0     C37976   2.836   3.794   6.121  0.0498  0.5134  0.5303
 1023MOL0     C37977   2.897   3.854   6.015  0.2149 -0.6320  0.3576
 1023MOL0     O37978   2.827   3.906   5.905  0.4669 -0.2521  0.0281
 1023MOL0     C37979   2.682   3.928   5.922 -0.9443 -0.2064 -0.1630
 1023MOL0     C37980   2.658   4.039   6.020  0.4756  0.2614 -0.1330
 1023MOL0     C37981   2.509   4.069   6.027 -0.0967 -0.1066 -0.0396
 1023MOL0     C37982   2.467   4.187   6.121  0.3739  0.0613 -1.2865
 1023MOL0     C37983   2.312   4.199   6.150 -0.8108 -1.1092 -0.2184
 1023MOL0     C37984   2.274   4.340   6.208  0.3280  0.2139 -0.7582
 1023MOL0     C37985   2.118   4.339   6.215  0.0185 -0.0490 -0.2774
 1023MOL0     C37986   2.083   4.455   6.292 -0.0035 -0.2315  0.1662
 1023MOL0     N37987   1.937   4.491   6.276  0.5291  0.1827  0.0761
 1023MOL0     C37988   1.846   4.496   6.375 -0.3305 -0.1876 -0.8179
 1023MOL0     C37989   1.731   4.541   6.320 -0.3501  0.3957  0.3546
 1023MOL0     C37990   1.585   4.558   6.371  1.1435 -0.7794 -0.5101
 1023MOL0     C37991   1.492   4.474   6.288 -0.1832 -0.4961 -0.1480
 1023MOL0     C37992   1.349   4.466   6.348 -0.6273  0.9398 -0.5556
 1023MOL0     C37993   1.287   4.611   6.348 -1.2324  0.8579  0.7864
 1023MOL0     O37994   1.169   4.598   6.417  0.1475  0.3086 -0.4394
 1023MOL0     C37995   1.075   4.694   6.422  0.2863 -0.2815 -0.3625
 1023MOL0     C37996   1.079   4.820   6.365  0.6310 -0.6040 -0.7909
 1023MOL0     C37997   0.965   4.899   6.347  0.1708  0.3995 -0.1747
 1023MOL0     C37998   0.991   5.028   6.278  1.3197 -0.3242  0.4736
 1023MOL0     C37999   0.843   4.857   6.397  0.1375  0.3271 -0.2919
 1023MOL0     C38000   0.715   4.938   6.388  0.7494  0.3254  0.6913
 1023MOL0     O38001   0.606   4.879   6.446 -0.5012 -0.1098  0.1324
 1023MOL0     C38002   0.488   4.946   6.418  0.3354  0.0595 -0.9558
 1023MOL0     C38003   0.389   4.874   6.348 -0.0702 -0.0636  0.3801
 1023MOL0     C38004   0.259   4.929   6.350  0.4271 -0.0418 -0.5238
 1023MOL0     C38005   0.240   5.058   6.402 -0.1843 -0.0770  0.2410
 1023MOL0     O38006   0.116   5.116   6.411 -0.8257  0.4591 -0.0461
 1023MOL0     C38007   0.022   5.069   6.509 -0.1613 -0.4730 -0.4410
 1023MOL0     C38008  -0.102   5.160   6.514 -0.1932  0.1819  0.0402
 1023MOL0     C38009  -0.185   5.169   6.382  0.3529 -0.1365  0.3546
 1023MOL0     C38010  -0.249   5.041   6.325  1.0560 -0.5803 -0.6220
 1023MOL0     C38011  -0.329   5.060   6.201 -0.3691  0.4663 -0.3946
 1023MOL0     C38012  -0.244   5.100   6.078  0.1743 -0.2985 -0.2836
 1023MOL0     C38013  -0.332   5.127   5.957  0.1636  0.9357 -0.5076
 1023MOL0     C38014  -0.247   5.163   5.827  0.0408  0.2531 -0.0534
 1023MOL0    Cl38015  -0.335   5.250   5.691 -0.0346 -0.1954 -0.0462
 1023MOL0     C38016   0.340   5.126   6.454 -0.6531 -0.6481  0.0390
 1023MOL0     C38017   0.467   5.065   6.480 -0.3395 -0.1691 -0.1049
 1023MOL0     O38018   0.707   5.042   6.324  0.2363  0.9253  0.1007
 1023MOL0     C38019   0.841   4.733   6.463 -0.1332  0.4265 -0.9482
 1023MOL0     C38020   0.954   4.653   6.477 -0.3403  0.0919 -0.0150
 1023MOL0     N38021   1.755   4.559   6.185 -0.3400 -0.7463 -0.0939
 1023MOL0     N38022   1.877   4.528   6.164  0.3325 -0.1303  0.8083
 1023MOL0     C38023   3.040   3.865   6.016 -0.3056 -0.1307  0.2093
 1023MOL0     C38024   3.111   3.812   6.119  0.1562 -0.1481  0.8267
 1023MOL0     C38025   3.227   3.562   6.483  0.0814 -0.0525  0.1615
 1023MOL0     C38026   3.349   3.576   6.418  0.4616  0.5409 -0.1808
 1023MOL0     C38027   3.469   3.530   6.479 -0.1926 -1.1750 -0.2434
 1023MOL0     C38028   3.467   3.472   6.610  0.4661  0.2059 -0.6888
 1023MOL0     O38029   3.573   3.456   6.693 -0.9866 -0.8049 -0.1007
 1023MOL0     C38030   3.700   3.413   6.637 -0.3771  0.0246 -0.0577
 1023MOL0     C38031   3.806   3.400   6.750  0.5436  0.6222  0.2468
 1023MOL0     C38032   3.945   3.359   6.699 -0.5217  0.8143  0.3686
 1023MOL0     C38033   3.951   3.214   6.640 -0.3196 -0.6357  0.6340
 1023MOL0     C38034   4.084   3.199   6.584  0.3913 -0.0869 -0.2639
 1023MOL0     C38035   4.197   3.183   6.540 -0.5798 -0.5141  0.5337
 1023MOL0     C38036   3.347   3.453   6.667 -0.3650 -0.2061  0.0536
 1023MOL0     C38037   3.227   3.483   6.599 -0.2558 -0.0044 -0.0131
 1023MOL0     H38038   2.843   3.689   6.300  0.8605 -0.0633  0.9299
 1023MOL0     H38039   2.728   3.781   6.126  0.0911  0.2134  0.6744
 1023MOL0     H38040   2.650   3.975   5.829 -2.1329  3.0883  1.7459
 1023MOL0     H38041   2.618   3.843   5.945 -0.3419 -0.5428  0.2915
 1023MOL0     H38042   2.691   4.009   6.120 -1.2128  0.0530  0.3934
 1023MOL0     H38043   2.709   4.130   5.986 -1.9635  1.7386 -0.0444
 1023MOL0     H38044   2.474   4.103   5.929  0.6913 -2.0914 -1.0669
 1023MOL0     H38045   2.452   3.981   6.058 -0.6150  0.2716  0.0925
 1023MOL0     H38046   2.513   4.172   6.218  0.6225  0.8810 -1.2684
 1023MOL0     H38047   2.500   4.288   6.095  3.4294  0.0738  1.9995
 1023MOL0     H38048   2.251   4.192   6.059 -0.7746 -0.6174 -0.2864
 1023MOL0     H38049   2.280   4.128   6.226  2.4841 -0.9118  1.5261
 1023MOL0     H38050   2.315   4.357   6.309 -4.4124  2.7317  1.0583
 1023MOL0     H38051   2.303   4.426   6.146 -2.2070  1.0472 -0.8803
 1023MOL0     H38052   2.080   4.353   6.114 -0.4520  0.9398  0.0229
 1023MOL0     H38053   2.070   4.250   6.256 -0.5343  0.0078 -0.8044
 1023MOL0     H38054   2.144   4.543   6.272 -1.7915  1.5613  2.0050
 1023MOL0     H38055   2.093   4.438   6.400 -3.1659 -5.7187 -0.0185
 1023MOL0     H38056   1.867   4.458   6.475  1.5029  0.4177 -0.9356
 1023MOL0     H38057   1.578   4.525   6.475  2.4469 -2.3875 -0.8981
 1023MOL0     H38058   1.566   4.666   6.361  1.2203 -0.7909 -0.7962
 1023MOL0     H38059   1.533   4.373   6.277 -0.5986 -0.5492 -1.4264
 1023MOL0     H38060   1.487   4.509   6.185  1.5429 -0.7333 -0.3456
 1023MOL0     H38061   1.351   4.424   6.449  3.2946  0.6565 -0.5775
 1023MOL0     H38062   1.287   4.400   6.286 -0.4475 -0.1818  0.4142
 1023MOL0     H38063   1.264   4.631   6.243  1.8668  0.8729  0.0277
 1023MOL0     H38064   1.353   4.685   6.393 -0.3532  0.4503  0.1867
 1023MOL0     H38065   1.175   4.860   6.334  0.2923  2.0144  1.1033
 1023MOL0     H38066   0.952   5.114   6.334 -1.3570  0.2934 -2.0771
 1023MOL0     H38067   1.098   5.041   6.260  1.6433 -1.9178  1.0606
 1023MOL0     H38068   0.935   5.027   6.184 -0.4012 -1.1424  1.4601
 1023MOL0     H38069   0.411   4.776   6.306  0.7084  1.0428 -1.9721
 1023MOL0     H38070   0.173   4.884   6.300  0.5142 -0.9951  0.1586
 1023MOL0     H38071  -0.009   4.966   6.488  0.2789 -0.2898 -2.1251
 1023MOL0     H38072   0.073   5.064   6.606 -1.2152 -0.7603  0.1190
 1023MOL0     H38073  -0.159   5.113   6.595 -2.0606 -0.4252 -1.5495
 1023MOL0     H38074  -0.081   5.262   6.547  1.4713  0.2989 -1.2397
 1023MOL0     H38075  -0.120   5.220   6.310  0.7907  0.8656  1.4137
 1023MOL0     H38076  -0.269   5.237   6.401 -0.2362 -1.7176  4.3185
 1023MOL0     H38077  -0.168   4.969   6.309  1.3547 -0.5121  0.4984
 1023MOL0     H38078  -0.316   5.011   6.405  0.5133  0.7022 -0.5699
 1023MOL0     H38079  -0.403   5.133   6.234  1.0588  1.3952  0.9166
 1023MOL0     H38080  -0.388   4.972   6.173 -0.6288  0.3575  0.4597
 1023MOL0     H38081  -0.196   5.196   6.098  1.9146 -0.9300 -1.1864
 1023MOL0     H38082  -0.161   5.032   6.059  0.4063 -0.6061  1.6750
 1023MOL0     H38083  -0.404   5.207   5.980  0.3430  0.0735  3.7633
 1023MOL0     H38084  -0.391   5.037   5.939  2.0228 -0.4951  0.2399
 1023MOL0     H38085  -0.216   5.067   5.785  0.6550 -0.3766  1.7387
 1023MOL0     H38086  -0.159   5.221   5.854 -0.9213  1.0406  1.5134
 1023MOL0     H38087   0.303   5.214   6.506 -1.5129  0.7980 -2.8149
 1023MOL0     H38088   0.546   5.125   6.524  1.4832 -1.1746 -1.8200
 1023MOL0     H38089   0.747   4.691   6.500 -0.4045 -0.2174 -2.2905
 1023MOL0     H38090   0.951   4.555   6.523  1.8956  1.0776  2.4597
 1023MOL0     H38091   3.094   3.919   5.939 -1.9990 -0.8603 -1.5939
 1023MOL0     H38092   3.218   3.827   6.106 -0.0426  1.3879  0.8582
 1023MOL0     H38093   3.373   3.630   6.327 -1.4110  0.9721 -0.4511
 1023MOL0     H38094   3.563   3.557   6.433  0.0376 -0.2622  0.7077
 1023MOL0     H38095   3.675   3.317   6.593  0.7200  0.8547 -2.6806
 1023MOL0     H38096   3.729   3.484   6.559 -2.9750  0.3218 -0.8573
 1023MOL0     H38097   3.787   3.331   6.832  3.4207 -1.6390 -0.8247
 1023MOL0     H38098   3.815   3.496   6.801  1.9924  0.5521  0.1512
 1023MOL0     H38099   4.017   3.373   6.779 -2.5417 -0.6227  2.5776
 1023MOL0     H38100   3.966   3.423   6.613  0.5890  1.3154  1.0051
 1023MOL0     H38101   3.876   3.195   6.563  1.1032 -2.3123 -0.4213
 1023MOL0     H38102   3.937   3.134   6.713 -1.2182  0.0023  1.1783
 1023MOL0     H38103   4.295   3.170   6.499  0.0745 -1.0396  2.2083
 1023MOL0     H38104   3.342   3.421   6.770  0.8897  0.4395  0.3320
 1023MOL0     H38105   3.137   3.461   6.656 -0.5789 -2.5810 -1.3481
 1024MOL0     O38106   5.005   7.375   0.877 -0.3928 -0.0985 -0.5890
 1024MOL0     C38107   5.078   7.473   0.894 -0.4989  0.3055 -0.1504
 1024MOL0     O38108   5.056   7.568   0.990 -0.2809  0.1363  0.0691
 1024MOL0     C38109   4.929   7.566   1.053 -0.6298 -0.4607 -0.5069
 1024MOL0     C38110   4.823   7.652   1.012  0.0704 -0.5179 -1.6624
 1024MOL0     C38111   4.696   7.640   1.079 -0.3228 -0.7003  0.1924
 1024MOL0     C38112   4.680   7.550   1.181  0.2316  0.0817 -0.2314
 1024MOL0     O38113   4.552   7.537   1.240 -0.4527 -0.2030  0.6250
 1024MOL0     C38114   4.520   7.398   1.281  0.3048 -0.8562 -0.4382
 1024MOL0     C38115   4.371   7.399   1.313  0.2810  0.1400 -0.2944
 1024MOL0     C38116   4.328   7.264   1.380 -0.5484  0.0734  0.0552
 1024MOL0     C38117   4.205   7.270   1.459 -0.2024  0.3341 -0.5434
 1024MOL0     C38118   4.080   7.311   1.387 -0.3141 -0.5682  0.6435
 1024MOL0     C38119   3.964   7.303   1.493  0.4019 -0.5606 -0.5926
 1024MOL0     C38120   3.842   7.394   1.470  0.3323 -0.5294 -0.1976
 1024MOL0     C38121   3.743   7.378   1.586 -0.1894  0.0695 -0.4087
 1024MOL0     N38122   3.651   7.485   1.561  0.0247 -0.2109  0.5972
 1024MOL0     C38123   3.552   7.487   1.458 -0.8016 -0.7375  0.2278
 1024MOL0     C38124   3.486   7.604   1.476 -0.1155  0.5672  0.0605
 1024MOL0     C38125   3.365   7.650   1.392  0.3892 -0.8692 -0.6777
 1024MOL0     C38126   3.382   7.630   1.242  0.3859 -1.0243  0.0081
 1024MOL0     C38127   3.272   7.677   1.148  0.1010  0.6254 -0.6540
 1024MOL0     C38128   3.134   7.677   1.199 -0.2706 -0.7453 -0.2233
 1024MOL0     O38129   3.046   7.700   1.089 -0.1232 -0.2205  0.0654
 1024MOL0     C38130   2.917   7.748   1.109 -0.0502  0.3288 -0.0243
 1024MOL0     C38131   2.834   7.764   0.995  0.4343 -0.0905 -0.6446
 1024MOL0     C38132   2.705   7.834   1.013  0.1781  0.0804 -0.2490
 1024MOL0     C38133   2.632   7.864   0.884  0.1951  0.3502  0.5660
 1024MOL0     C38134   2.648   7.861   1.143 -0.0308  0.9924  0.0936
 1024MOL0     C38135   2.509   7.908   1.165 -0.2060  0.4405 -0.5562
 1024MOL0     O38136   2.473   8.018   1.083 -0.4563 -0.3146 -0.0951
 1024MOL0     C38137   2.339   8.047   1.087  0.1290  1.1762  0.3130
 1024MOL0     C38138   2.305   8.162   1.163  0.1019  0.3784  0.0512
 1024MOL0     C38139   2.167   8.186   1.180 -0.6659 -0.4858  0.2086
 1024MOL0     C38140   2.060   8.107   1.124 -0.3666 -0.3049  0.4239
 1024MOL0     O38141   1.928   8.144   1.129  0.3229  0.7221  0.1983
 1024MOL0     C38142   1.904   8.267   1.064 -0.2279  0.2855  1.0293
 1024MOL0     C38143   1.755   8.299   1.059 -0.3220 -0.1183 -0.2472
 1024MOL0     C38144   1.727   8.432   0.988 -0.2576 -0.2966  0.1065
 1024MOL0     C38145   1.790   8.555   1.056  0.0500  0.3278 -0.0607
 1024MOL0     C38146   1.720   8.688   1.011 -0.3177  0.5261 -0.1989
 1024MOL0     C38147   1.569   8.701   1.049 -1.1219 -0.6254  0.5931
 1024MOL0     C38148   1.560   8.682   1.203  1.0546 -0.0568  0.1936
 1024MOL0     C38149   1.454   8.763   1.267 -0.0131 -0.5909 -0.1249
 1024MOL0    Cl38150   1.296   8.688   1.237 -0.2085  0.1870  0.1002
 1024MOL0     C38151   2.097   7.992   1.056  0.0748 -0.1564 -0.5977
 1024MOL0     C38152   2.240   7.956   1.042 -1.1703 -0.4163 -0.7397
 1024MOL0     O38153   2.436   7.856   1.253 -0.0169 -0.3151  0.0553
 1024MOL0     C38154   2.734   7.842   1.250 -0.1950  0.2875 -0.5364
 1024MOL0     C38155   2.870   7.791   1.232  0.0254 -0.4766 -0.1690
 1024MOL0     N38156   3.543   7.669   1.585  0.6074 -0.5046  0.1991
 1024MOL0     N38157   3.645   7.601   1.631  0.2799  0.9120 -0.5064
 1024MOL0     C38158   4.783   7.464   1.226  0.4775 -0.4595 -0.4510
 1024MOL0     C38159   4.907   7.479   1.159  0.1690 -0.1495  0.3871
 1024MOL0     C38160   5.193   7.480   0.809  0.3336  0.6008  0.1328
 1024MOL0     C38161   5.246   7.604   0.766  0.2656 -0.2545 -0.4849
 1024MOL0     C38162   5.361   7.608   0.688  0.5184  0.7850  0.1419
 1024MOL0     C38163   5.440   7.501   0.669  0.4320 -0.2054 -0.8516
 1024MOL0     O38164   5.534   7.518   0.575 -0.0900  0.0973  0.5357
 1024MOL0     C38165   5.602   7.407   0.525 -0.0961  0.4497  0.3556
 1024MOL0     C38166   5.701   7.459   0.424  0.9552  0.6532 -0.1921
 1024MOL0     C38167   5.831   7.519   0.477  0.1866 -0.3372  0.6017
 1024MOL0     C38168   5.943   7.545   0.374 -0.6144 -0.1710  0.6804
 1024MOL0     C38169   6.023   7.417   0.344  0.7082  0.3918  0.1464
 1024MOL0     C38170   6.096   7.315   0.315 -0.1907 -0.1267  0.1776
 1024MOL0     C38171   5.392   7.376   0.711  1.2829  1.1414 -0.2728
 1024MOL0     C38172   5.268   7.365   0.786 -1.0757  0.4435  0.5021
 1024MOL0     H38173   4.844   7.709   0.921 -0.9481 -1.0324 -2.2376
 1024MOL0     H38174   4.606   7.688   1.043 -0.5841 -2.0595 -1.0477
 1024MOL0     H38175   4.553   7.331   1.202  1.1190  0.4391 -1.2302
 1024MOL0     H38176   4.575   7.377   1.373 -1.5628  0.7672  1.1520
 1024MOL0     H38177   4.339   7.483   1.375 -2.1161  0.4791 -1.8883
 1024MOL0     H38178   4.322   7.410   1.217  1.1214 -1.2728 -0.9204
 1024MOL0     H38179   4.321   7.181   1.309  0.6690  0.2117 -0.2506
 1024MOL0     H38180   4.406   7.243   1.454 -0.7750  1.1999  0.6303
 1024MOL0     H38181   4.190   7.172   1.504 -1.7484  0.8572  0.1157
 1024MOL0     H38182   4.216   7.334   1.546 -0.9517 -0.3019  0.0336
 1024MOL0     H38183   4.089   7.413   1.347 -0.5566 -0.1821  1.5413
 1024MOL0     H38184   4.067   7.238   1.307  1.0689  0.8628 -0.9680
 1024MOL0     H38185   3.936   7.198   1.503 -0.1072 -0.3050  0.8553
 1024MOL0     H38186   4.007   7.332   1.589  4.0787  1.0138 -2.5215
 1024MOL0     H38187   3.862   7.500   1.451 -3.8824  0.1272 -2.2203
 1024MOL0     H38188   3.793   7.358   1.379 -1.3838 -0.0005  0.4699
 1024MOL0     H38189   3.794   7.395   1.682 -0.3876  1.3729 -0.5125
 1024MOL0     H38190   3.690   7.284   1.599  1.7399 -1.1559 -0.9704
 1024MOL0     H38191   3.543   7.407   1.386  1.1222 -1.8702  1.1697
 1024MOL0     H38192   3.277   7.599   1.430  0.3813 -0.8823 -0.7145
 1024MOL0     H38193   3.364   7.759   1.404 -0.6324 -1.1148  2.2138
 1024MOL0     H38194   3.382   7.521   1.228  0.0285 -0.8374 -1.7298
 1024MOL0     H38195   3.479   7.662   1.204  0.9490 -0.9572  1.4638
 1024MOL0     H38196   3.281   7.601   1.070  1.5471  0.5874 -0.4826
 1024MOL0     H38197   3.288   7.778   1.109 -1.4764  1.4244  0.6565
 1024MOL0     H38198   3.140   7.752   1.279 -0.8518 -0.8864 -0.0433
 1024MOL0     H38199   3.116   7.576   1.236  1.4241 -1.6930 -1.7907
 1024MOL0     H38200   2.870   7.736   0.897 -0.4418  0.0149 -1.0114
 1024MOL0     H38201   2.682   7.832   0.792 -3.4618  0.3816 -1.6012
 1024MOL0     H38202   2.537   7.810   0.886  1.3777 -2.2182 -2.8305
 1024MOL0     H38203   2.611   7.971   0.878 -3.3960 -0.2637  0.1559
 1024MOL0     H38204   2.377   8.229   1.207 -0.3305  1.2880 -0.6038
 1024MOL0     H38205   2.143   8.275   1.236  0.0257  1.4624 -2.4181
 1024MOL0     H38206   1.945   8.354   1.115 -2.5956  1.9708  0.1890
 1024MOL0     H38207   1.946   8.265   0.963 -0.6897 -1.8461  0.8290
 1024MOL0     H38208   1.697   8.225   1.003  0.8914 -1.1182 -0.2090
 1024MOL0     H38209   1.711   8.307   1.159 -0.9243 -0.0406 -0.5118
 1024MOL0     H38210   1.618   8.439   0.997 -0.3250 -1.8644  0.8664
 1024MOL0     H38211   1.763   8.430   0.885  2.3618  2.0087  0.8502
 1024MOL0     H38212   1.782   8.539   1.163 -0.1368 -0.8998 -0.2427
 1024MOL0     H38213   1.895   8.557   1.023  0.9863 -1.7832  2.4364
 1024MOL0     H38214   1.727   8.701   0.902 -0.5569  0.0725 -0.2675
 1024MOL0     H38215   1.777   8.776   1.044 -0.7046  1.1077 -1.0564
 1024MOL0     H38216   1.531   8.799   1.018  0.0901  0.1091  1.3358
 1024MOL0     H38217   1.501   8.631   1.000 -2.9964  0.5214  1.4334
 1024MOL0     H38218   1.643   8.715   1.267 -0.5086  1.2128  1.6551
 1024MOL0     H38219   1.538   8.576   1.213  2.5342 -0.3766  0.2981
 1024MOL0     H38220   1.455   8.868   1.234  1.4627 -0.5523 -0.0337
 1024MOL0     H38221   1.476   8.759   1.375  0.1185 -0.6091 -0.1515
 1024MOL0     H38222   2.025   7.918   1.021 -0.8827  0.8033 -0.7135
 1024MOL0     H38223   2.279   7.866   0.996  2.6980  0.8219 -0.2169
 1024MOL0     H38224   2.701   7.849   1.353 -3.1863  0.5041 -1.4069
 1024MOL0     H38225   2.938   7.787   1.316  0.9223  0.4174 -0.8279
 1024MOL0     H38226   4.760   7.385   1.297 -0.4460 -0.1449 -0.3927
 1024MOL0     H38227   4.990   7.414   1.184  0.0336 -0.5338 -0.1434
 1024MOL0     H38228   5.187   7.694   0.783  1.0624 -0.1916  2.5653
 1024MOL0     H38229   5.404   7.703   0.659  2.2830 -0.0947 -0.2957
 1024MOL0     H38230   5.642   7.344   0.605  1.2696 -0.7905 -1.2198
 1024MOL0     H38231   5.537   7.334   0.476 -1.4353 -1.1561  4.1417
 1024MOL0     H38232   5.656   7.521   0.346  2.0147 -0.1270 -1.4804
 1024MOL0     H38233   5.734   7.367   0.374  0.2167 -1.3135  2.7339
 1024MOL0     H38234   5.870   7.452   0.554 -0.3837  0.8241  1.9211
 1024MOL0     H38235   5.812   7.610   0.533  4.0050  1.7449 -1.0665
 1024MOL0     H38236   6.012   7.616   0.419 -0.1322 -1.9202  2.8413
 1024MOL0     H38237   5.907   7.589   0.280 -1.6249  0.4263  1.3366
 1024MOL0     H38238   6.159   7.242   0.269  0.3459  0.6568 -0.3530
 1024MOL0     H38239   5.435   7.280   0.686  0.4489  0.3841  1.0404
 1024MOL0     H38240   5.233   7.265   0.811  1.7142  0.0812  3.7304
  11.32167  11.32167  11.32167
